Title
19927
    1ASP      N    1   2.298   3.061   2.938 -0.0574 -0.3327  0.2046
    1ASP    HT1    2   2.261   3.151   2.975 -2.2639 -1.8505  1.8893
    1ASP    HT2    3   2.396   3.048   2.972 -0.1569 -0.3641  0.4820
    1ASP    HT3    4   2.238   2.986   2.977  0.2680 -1.2415 -0.9799
    1ASP     CA    5   2.310   3.052   2.793  0.2156  0.1663 -0.3382
    1ASP     HA    6   2.373   3.131   2.754  1.5015 -0.2143  0.8975
    1ASP     CB    7   2.377   2.911   2.774 -0.6319  0.3998 -0.1008
    1ASP    HB1    8   2.296   2.835   2.780 -0.7629  0.5176 -0.3603
    1ASP    HB2    9   2.454   2.892   2.852  0.0534  1.7838 -0.4120
    1ASP     CG   10   2.452   2.899   2.644 -0.3093 -0.2496 -0.2105
    1ASP    OD1   11   2.506   2.791   2.626 -0.0352  0.1793  0.3171
    1ASP    OD2   12   2.448   2.995   2.562  0.2581  0.2604  0.3803
    1ASP      C   13   2.170   3.055   2.741 -0.2373 -0.0891  0.3673
    1ASP      O   14   2.077   3.036   2.818  0.1180 -0.2475  0.0558
    2ALA      N   15   2.148   3.067   2.607 -0.4538 -0.1126  0.3294
    2ALA     HN   16   2.222   3.068   2.541 -0.9730  0.3880 -0.2503
    2ALA     CA   17   2.016   3.069   2.550  0.1977  0.4186  0.3337
    2ALA     HA   18   1.948   3.128   2.611  0.2255  0.0248  0.7530
    2ALA     CB   19   2.032   3.136   2.408  0.1779  0.5027  0.2046
    2ALA    HB1   20   2.101   3.086   2.336  1.3453  0.7367  1.1158
    2ALA    HB2   21   2.053   3.245   2.415  0.7539  0.3464  1.2557
    2ALA    HB3   22   1.932   3.143   2.361 -0.0974  1.4480  0.8802
    2ALA      C   23   1.946   2.934   2.541 -0.9279 -0.2886 -0.1732
    2ALA      O   24   2.009   2.827   2.533 -0.0431  0.1704 -0.3090
    3ASP      N   25   1.811   2.941   2.546  0.4031  0.3947  0.0407
    3ASP     HN   26   1.755   3.021   2.566 -0.1007  0.6122 -2.0229
    3ASP     CA   27   1.722   2.833   2.499  0.8427 -0.4619  0.4602
    3ASP     HA   28   1.747   2.739   2.546 -0.4420 -0.0574  2.0589
    3ASP     CB   29   1.569   2.868   2.537 -0.1130  0.3863  0.0101
    3ASP    HB1   30   1.511   2.790   2.483 -0.0147 -0.1716  0.6852
    3ASP    HB2   31   1.546   2.964   2.486  1.6209  1.4424  1.1171
    3ASP     CG   32   1.531   2.875   2.681  0.3481 -0.4110  0.4361
    3ASP    OD1   33   1.421   2.922   2.715  0.0158  0.2934  0.5339
    3ASP    OD2   34   1.611   2.827   2.763 -0.0589  0.2488 -0.4491
    3ASP      C   35   1.739   2.811   2.344 -0.2384 -0.2643 -0.1457
    3ASP      O   36   1.752   2.902   2.261 -0.4516 -0.2756 -0.0446
    4GLY      N   37   1.746   2.685   2.305 -0.1283 -0.2027 -0.1629
    4GLY     HN   38   1.745   2.607   2.367  0.8991  0.1844  0.3663
    4GLY     CA   39   1.757   2.648   2.161  0.7023  0.2856 -0.6997
    4GLY    HA1   40   1.790   2.546   2.164  0.3756  0.1761  1.8336
    4GLY    HA2   41   1.830   2.714   2.117 -0.4005  0.7162 -1.9745
    4GLY      C   42   1.623   2.663   2.081 -0.7720 -0.2739 -0.4818
    4GLY      O   43   1.522   2.708   2.140 -0.6286  0.6225  0.6207
    5PRO      N   44   1.621   2.618   1.957  0.2516  0.1235  0.2616
    5PRO     CD   45   1.737   2.625   1.865 -0.5440  0.9471 -0.6302
    5PRO    HD1   46   1.783   2.524   1.869 -0.3830  0.8807 -3.1625
    5PRO    HD2   47   1.805   2.705   1.904 -0.2304  1.3298 -1.9343
    5PRO     CA   48   1.498   2.633   1.875  0.2529  0.6543 -0.0394
    5PRO     HA   49   1.458   2.733   1.886 -1.8781 -0.2406  0.9717
    5PRO     CB   50   1.549   2.593   1.735 -0.5967  0.2378  0.0844
    5PRO    HB1   51   1.486   2.648   1.661 -0.2833  1.8304  0.9615
    5PRO    HB2   52   1.565   2.485   1.713  0.4020  0.3432  0.2770
    5PRO     CG   53   1.687   2.658   1.728  0.7684 -0.0229  0.8028
    5PRO    HG1   54   1.744   2.601   1.652 -3.4803 -1.5782 -1.5606
    5PRO    HG2   55   1.689   2.768   1.711  0.2095  0.2677  2.3965
    5PRO      C   56   1.380   2.541   1.911  0.5399  0.2599 -0.3797
    5PRO      O   57   1.274   2.567   1.849 -0.1104  0.6362 -0.2637
    6GLY      N   58   1.383   2.448   2.012 -0.6638 -0.1552  0.3160
    6GLY     HN   59   1.471   2.441   2.059  0.8737  1.0268 -2.1479
    6GLY     CA   60   1.269   2.361   2.065 -0.4266 -0.0304  0.0863
    6GLY    HA1   61   1.179   2.419   2.078  0.2191  0.9821  0.1653
    6GLY    HA2   62   1.304   2.328   2.162 -1.7189 -0.3182  0.4740
    6GLY      C   63   1.230   2.241   1.989 -0.9042  0.9398  0.1401
    6GLY      O   64   1.262   2.221   1.871  0.1307 -0.5342  0.1893
    7ASP      N   65   1.169   2.141   2.063  0.0129 -0.4102  0.1407
    7ASP     HN   66   1.152   2.163   2.158  0.4016  1.1034 -0.1058
    7ASP     CA   67   1.115   2.023   2.008  0.2401  0.4111 -0.3714
    7ASP     HA   68   1.187   1.984   1.939  0.9392  1.3208 -0.1779
    7ASP     CB   69   1.101   1.934   2.133 -0.1087 -0.2727  0.2251
    7ASP    HB1   70   1.037   1.988   2.205 -0.8465  2.0429 -2.0265
    7ASP    HB2   71   1.196   1.909   2.186  0.1888  0.3137 -0.0223
    7ASP     CG   72   1.027   1.806   2.101  0.2009 -0.3552  0.6965
    7ASP    OD1   73   1.069   1.750   2.000 -0.3106 -0.0594 -0.3829
    7ASP    OD2   74   0.942   1.754   2.176 -0.2508 -0.3027  0.3018
    7ASP      C   75   0.992   2.061   1.930 -0.9568  0.0048  0.5833
    7ASP      O   76   0.919   2.148   1.977  0.1415 -0.0805 -0.0896
    8PRO      N   77   0.962   2.003   1.815  0.0263  0.5700 -0.7996
    8PRO     CD   78   1.059   1.932   1.732 -0.8909  0.5759  1.0042
    8PRO    HD1   79   1.078   1.833   1.779 -1.9010 -1.1706 -1.9607
    8PRO    HD2   80   1.153   1.988   1.713 -1.3982  1.2730  0.4666
    8PRO     CA   81   0.846   2.037   1.739  0.3308  0.5551  0.4896
    8PRO     HA   82   0.878   2.133   1.701 -2.0720  1.5936  0.8892
    8PRO     CB   83   0.837   1.919   1.632 -0.2319  0.4063  0.0435
    8PRO    HB1   84   0.784   1.938   1.536 -1.2026  2.1966  0.8707
    8PRO    HB2   85   0.795   1.827   1.676  2.4933 -0.2493  1.4765
    8PRO     CG   86   0.986   1.896   1.603  0.0632 -1.1820  0.4225
    8PRO    HG1   87   0.992   1.789   1.573 -2.3456 -1.2597  0.0506
    8PRO    HG2   88   1.021   1.964   1.523 -2.8930  2.6504  2.0828
    8PRO      C   89   0.710   2.052   1.804  0.5390 -0.7757  0.1375
    8PRO      O   90   0.680   1.973   1.890 -0.2087 -0.6059 -0.2240
    9ASP      N   91   0.624   2.142   1.763  0.3024 -0.2257  0.0244
    9ASP     HN   92   0.654   2.202   1.691 -1.3505 -1.3664 -1.7277
    9ASP     CA   93   0.495   2.169   1.829 -0.2644 -0.3575 -0.2976
    9ASP     HA   94   0.501   2.164   1.936 -1.8561  0.5811 -0.1365
    9ASP     CB   95   0.446   2.312   1.799 -0.0967 -0.1509  0.3836
    9ASP    HB1   96   0.338   2.309   1.824 -0.3204 -1.7476 -0.6082
    9ASP    HB2   97   0.443   2.334   1.690 -0.1781  1.5236  0.7019
    9ASP     CG   98   0.524   2.425   1.870 -0.1964  0.4533 -0.6995
    9ASP    OD1   99   0.499   2.541   1.833 -0.1244  0.3638 -0.1200
    9ASP    OD2  100   0.609   2.408   1.964  0.0839  0.1453 -0.4755
    9ASP      C  101   0.386   2.056   1.794  0.3998 -0.1160  0.2809
    9ASP      O  102   0.346   2.020   1.682 -0.3063 -0.2774 -0.3253
   10ALA      N  103   0.326   2.000   1.899  0.2054 -0.3822 -0.0827
   10ALA     HN  104   0.368   2.031   1.984  2.2526  0.9024 -1.4613
   10ALA     CA  105   0.226   1.892   1.887 -0.5244  0.1432 -0.2706
   10ALA     HA  106   0.247   1.825   1.805  2.1106 -0.0950  0.4974
   10ALA     CB  107   0.220   1.826   2.025  0.0586 -0.3725  0.3188
   10ALA    HB1  108   0.171   1.898   2.095  0.8183  0.4758 -0.0026
   10ALA    HB2  109   0.316   1.795   2.071 -1.1340 -2.1132  1.7457
   10ALA    HB3  110   0.146   1.744   2.037 -1.5885  0.9177 -0.6261
   10ALA      C  111   0.090   1.956   1.845 -0.2414 -0.6479 -0.2234
   10ALA      O  112   0.064   2.078   1.858 -0.0061  0.7859 -0.3872
   11GLY      N  113  -0.001   1.871   1.791 -0.2935 -0.0928 -0.8458
   11GLY     HN  114   0.030   1.776   1.797 -2.1104 -0.6724  3.4960
   11GLY     CA  115  -0.136   1.901   1.736  0.0520  1.1590  0.5292
   11GLY    HA1  116  -0.198   1.959   1.803  2.5122  1.7023  2.4764
   11GLY    HA2  117  -0.177   1.804   1.712 -0.8062  1.7658 -0.5790
   11GLY      C  118  -0.127   1.989   1.608 -0.6425  0.4846  0.0387
   11GLY    OT1  119  -0.229   2.047   1.572 -0.0108  0.5157  0.5284
   11GLY    OT2  120  -0.027   1.990   1.529 -0.2919 -0.0965  0.1528
   12SOD    SOD  121   2.198   4.323   2.394 -0.2996  0.3207 -0.1758
   13SOD    SOD  122   0.864   1.580   3.415 -0.1917 -0.0608 -0.5668
   14SOD    SOD  123   2.248   3.980   2.955  0.6409 -0.4958  0.1973
   15SOD    SOD  124   1.461   3.075   3.085 -0.6582  0.0934 -0.2582
   16SOD    SOD  125   2.337   4.909   1.837 -0.0377 -0.2599  0.7830
   17SOD    SOD  126   0.982   0.957   4.297  0.0062  0.4134 -0.5560
   18SOD    SOD  127   5.289   5.104   5.127 -0.2216 -0.0308  0.1567
   19SOD    SOD  128   4.515   4.360   3.482 -0.5493 -0.0744 -0.0678
   20SOD    SOD  129   6.185   5.417   0.114 -0.7180 -0.2905  0.0055
   21SOD    SOD  130   3.678   1.441   3.945 -0.1530  0.1649 -0.2224
   22SOD    SOD  131   0.158   3.068   2.365  0.3755  0.4764  0.1791
   23SOD    SOD  132   1.860   1.149   3.965  0.2570  0.2548  0.6855
   24SOD    SOD  133   0.093   0.747   0.789  0.4135 -0.5669 -0.0785
   25SOD    SOD  134   5.681   3.089   0.200  0.0676 -0.2057  0.0062
   26SOD    SOD  135   6.163   2.314   4.162 -0.1944  0.1090 -0.3522
   27SOD    SOD  136   0.089   1.762   0.580  0.0954  0.3086  0.4004
   28SOD    SOD  137   4.375   2.094   1.045 -0.2702  0.1689  0.1284
   29SOD    SOD  138   6.081   0.092   1.640 -0.3786 -0.0640 -0.4539
   30SOD    SOD  139   4.649   1.092   0.597  0.3035 -0.3205  0.3062
   31SOD    SOD  140   0.407   4.517   0.608 -0.0919  0.3164  0.0384
   32SOD    SOD  141   5.244   0.266   2.774 -0.6970  0.7151 -0.2305
   33SOD    SOD  142   1.144   0.833   3.474  0.2113  0.1379  0.7959
   34CLA    CLA  143   6.052   4.035   1.934 -0.2531  0.1083  0.2065
   35CLA    CLA  144   6.229   0.516   1.420  0.2456 -0.1945 -0.1493
   36CLA    CLA  145   2.154   4.360   3.555  0.2329  0.2645 -0.0380
   37CLA    CLA  146   5.950   3.050   4.428  0.3417  0.1309  0.0590
   38CLA    CLA  147   4.460   4.155   5.151 -0.1642  0.1163  0.5016
   39CLA    CLA  148   0.642   5.379   2.246  0.0873 -0.0591  0.2798
   40CLA    CLA  149   1.105   1.040   3.635 -0.1528 -0.0254  0.0800
   41CLA    CLA  150   0.935   5.546   4.628  0.3416  0.3543 -0.1289
   42CLA    CLA  151   6.181   3.627   4.539  0.5372  0.1671 -0.5229
   43CLA    CLA  152   1.421   0.281   3.100 -0.2966 -0.1584  0.1485
   44CLA    CLA  153   2.211   4.624   0.625 -0.1119 -0.3723  0.3735
   45CLA    CLA  154   4.700   3.925   3.098  0.3327 -0.0402 -0.1154
   46CLA    CLA  155   4.704   3.424   0.339  0.1644  0.2263  0.1805
   47CLA    CLA  156   4.274   4.064   2.796 -0.2915 -0.2423  0.1615
   48CLA    CLA  157   4.609   5.052   3.795  0.3202  0.1315  0.0801
   49CLA    CLA  158   4.827   0.409   2.065 -0.0586  0.0750  0.4209
   50CLA    CLA  159   1.800   4.269   2.014 -0.0660 -0.1627 -0.0821
   51CLA    CLA  160   1.675   0.663   3.923 -0.4262  0.1328 -0.1791
   52TIP3   OH2  161   1.879   0.347   0.476 -0.2277 -0.3940 -0.0552
   52TIP3    H1  162   1.898   0.263   0.435  1.2177  0.6238 -1.5695
   52TIP3    H2  163   1.901   0.412   0.410 -2.0196  1.1929  0.8100
   53TIP3   OH2  164   3.716   3.044   1.022 -0.2617  0.0313  0.3542
   53TIP3    H1  165   3.663   3.113   0.982 -0.1362 -0.9341 -1.6008
   53TIP3    H2  166   3.801   3.085   1.037 -0.2999  0.4166 -0.4355
   54TIP3   OH2  167   0.556   5.356   5.056 -0.4323 -0.4002 -0.2882
   54TIP3    H1  168   0.537   5.273   5.099 -0.5314  0.0192  0.4953
   54TIP3    H2  169   0.605   5.332   4.978 -1.8441 -1.3085 -0.9318
   55TIP3   OH2  170   1.477   4.772   2.032  0.5218 -0.3861  0.3132
   55TIP3    H1  171   1.443   4.853   2.071 -1.8927 -1.0100 -0.2891
   55TIP3    H2  172   1.417   4.753   1.959  0.9501 -2.7550  0.4785
   56TIP3   OH2  173   6.317   2.104   2.396  0.4926 -0.2480  0.6218
   56TIP3    H1  174   6.339   2.132   2.307 -2.2675 -0.1039 -0.1347
   56TIP3    H2  175   6.296   2.011   2.387 -3.9676  0.5871  0.0162
   57TIP3   OH2  176   5.527   2.835   1.021 -0.1178 -0.4941 -1.0178
   57TIP3    H1  177   5.613   2.839   0.980  0.2750 -0.2965 -0.2027
   57TIP3    H2  178   5.480   2.912   0.987  0.3477 -0.1015 -0.7849
   58TIP3   OH2  179   1.277   4.379   3.476 -0.1618 -0.6632 -0.2289
   58TIP3    H1  180   1.362   4.423   3.466 -0.8127  0.7519  0.2147
   58TIP3    H2  181   1.274   4.353   3.568 -0.0666 -1.0254 -0.3275
   59TIP3   OH2  182   6.187   1.439   2.564  0.1485  0.0986 -0.3209
   59TIP3    H1  183   6.185   1.520   2.615  1.1807 -0.9792  1.5701
   59TIP3    H2  184   6.112   1.389   2.596 -0.1146  0.0458 -1.0119
   60TIP3   OH2  185   5.828   4.240   4.554 -0.2858 -0.0612 -0.5785
   60TIP3    H1  186   5.855   4.295   4.481  0.6402  2.2258  1.3584
   60TIP3    H2  187   5.907   4.231   4.608 -0.4409 -3.2247 -0.6709
   61TIP3   OH2  188   2.964   2.937   2.168 -0.2402 -0.2951  0.3601
   61TIP3    H1  189   2.928   2.925   2.080 -1.7147  1.2863  0.6879
   61TIP3    H2  190   3.012   2.856   2.185  0.9452 -0.2433 -2.2593
   62TIP3   OH2  191   4.160   0.417   3.671 -0.5346  0.7372  0.0171
   62TIP3    H1  192   4.201   0.481   3.729 -2.9464  3.2579 -0.8428
   62TIP3    H2  193   4.089   0.378   3.723  0.5004 -0.8708  0.3176
   63TIP3   OH2  194   5.192   3.789   1.592  0.2905  0.9036 -0.4197
   63TIP3    H1  195   5.202   3.818   1.683  0.8052  1.4011 -0.6317
   63TIP3    H2  196   5.207   3.694   1.596  0.5663  0.9625 -0.0232
   64TIP3   OH2  197   5.289   2.956   3.380  0.2161  0.6659  0.0539
   64TIP3    H1  198   5.268   3.000   3.297 -1.2755 -0.1042 -0.0096
   64TIP3    H2  199   5.339   3.021   3.429 -0.2208  1.7072 -0.8297
   65TIP3   OH2  200   5.627   0.017   1.516  0.2043  0.3317  0.0920
   65TIP3    H1  201   5.581   0.065   1.446 -0.7895 -0.0532  0.4626
   65TIP3    H2  202   5.635   0.081   1.587 -0.3088  0.2256  0.2495
   66TIP3   OH2  203   0.435   0.290   3.428  0.1056 -0.0462 -0.2250
   66TIP3    H1  204   0.387   0.335   3.358 -0.0678 -0.4118 -0.3439
   66TIP3    H2  205   0.419   0.343   3.506 -1.3754 -0.7250 -0.0342
   67TIP3   OH2  206   0.423   4.143   5.040  0.2065  0.4181 -0.0139
   67TIP3    H1  207   0.360   4.071   5.053  0.2967  0.0470 -1.3876
   67TIP3    H2  208   0.376   4.206   4.985  0.5431  0.8397  0.1776
   68TIP3   OH2  209   1.011   4.473   3.982  0.2511 -0.2950 -0.4084
   68TIP3    H1  210   1.014   4.559   4.025  0.7288 -0.3264 -0.3787
   68TIP3    H2  211   0.966   4.489   3.899 -0.1780 -0.1271 -0.1485
   69TIP3   OH2  212   2.264   5.283   4.640 -0.0042 -0.3649 -0.0119
   69TIP3    H1  213   2.215   5.273   4.558 -0.0115  0.1047 -0.0635
   69TIP3    H2  214   2.337   5.341   4.618 -1.0859  1.3624  0.7608
   70TIP3   OH2  215   1.606   0.739   3.611  0.1233 -0.2274  0.1355
   70TIP3    H1  216   1.679   0.777   3.563 -0.6497  1.0077 -0.0874
   70TIP3    H2  217   1.646   0.700   3.689  1.4802 -2.7617 -1.6947
   71TIP3   OH2  218   0.068   1.550   0.657  0.0508 -0.5724 -0.0562
   71TIP3    H1  219   0.101   1.534   0.746  0.5638 -0.9989 -0.3113
   71TIP3    H2  220  -0.026   1.534   0.663  0.3616 -2.7866 -0.0364
   72TIP3   OH2  221   3.999   0.666   0.626  0.0701 -0.1373 -0.0134
   72TIP3    H1  222   4.036   0.622   0.702 -1.2814 -1.1323  0.0967
   72TIP3    H2  223   4.029   0.757   0.633 -0.5349 -0.0585  2.0346
   73TIP3   OH2  224   0.863   2.719   3.238  0.9997 -0.4558 -0.2314
   73TIP3    H1  225   0.872   2.631   3.201  1.5162 -1.1797  1.4909
   73TIP3    H2  226   0.951   2.741   3.268  0.5353 -0.1133  0.9443
   74TIP3   OH2  227   5.511   0.388   1.221 -0.0560  0.4596  1.0399
   74TIP3    H1  228   5.504   0.303   1.263 -1.2143  1.0069  2.0179
   74TIP3    H2  229   5.588   0.429   1.261  0.3083  0.0053  0.8031
   75TIP3   OH2  230   2.030   4.362   1.822  0.1302 -0.6022 -0.0299
   75TIP3    H1  231   1.989   4.379   1.737  0.0499 -1.3114 -0.1434
   75TIP3    H2  232   1.959   4.333   1.878 -0.1365  1.5081  0.8120
   76TIP3   OH2  233   1.023   2.025   1.239  0.2537 -0.0684 -0.0071
   76TIP3    H1  234   1.087   2.065   1.298  2.7354 -1.0282 -1.8807
   76TIP3    H2  235   1.062   1.941   1.216 -2.0049 -0.9550 -0.8109
   77TIP3   OH2  236   1.570   3.850   4.739 -0.6132 -0.0575 -0.0840
   77TIP3    H1  237   1.593   3.771   4.787  0.4027 -0.0794 -0.5962
   77TIP3    H2  238   1.490   3.827   4.692 -1.2240 -0.2625  1.0062
   78TIP3   OH2  239   6.212   1.922   4.759  0.0596 -0.4778 -0.1212
   78TIP3    H1  240   6.307   1.913   4.769  0.1646 -0.4733 -1.0199
   78TIP3    H2  241   6.182   1.956   4.844  1.2073  2.0838 -0.6494
   79TIP3   OH2  242   5.443   0.836   1.726  0.4623 -0.5286 -0.3675
   79TIP3    H1  243   5.405   0.900   1.787 -0.8103 -0.0680 -1.6033
   79TIP3    H2  244   5.471   0.764   1.782  0.7683  0.5563  0.9240
   80TIP3   OH2  245   2.679   1.229   1.812  0.1118 -0.3624  0.1947
   80TIP3    H1  246   2.735   1.199   1.883  1.0436  1.2143  0.1540
   80TIP3    H2  247   2.700   1.322   1.801 -1.0786 -0.2112 -1.1544
   81TIP3   OH2  248   4.591   5.631   3.603  0.0725 -0.0387 -0.8707
   81TIP3    H1  249   4.604   5.576   3.680  1.8357 -0.1425 -1.2157
   81TIP3    H2  250   4.605   5.720   3.635 -2.8350  0.3191 -0.2987
   82TIP3   OH2  251   1.503   1.936   1.943  0.1596  0.1360  0.4660
   82TIP3    H1  252   1.578   1.884   1.915  2.0331  1.8715  1.9928
   82TIP3    H2  253   1.428   1.879   1.927  1.8352 -1.9642 -0.4397
   83TIP3   OH2  254   5.224   5.714   4.899 -0.2244 -0.1010  0.0330
   83TIP3    H1  255   5.194   5.705   4.808 -0.2546 -0.1999  0.0529
   83TIP3    H2  256   5.275   5.634   4.915  2.1740  1.1633 -0.8119
   84TIP3   OH2  257   5.474   3.091   1.793 -0.0569  0.2557  0.2540
   84TIP3    H1  258   5.481   3.006   1.750 -0.2718 -0.1963  1.0911
   84TIP3    H2  259   5.394   3.086   1.845 -0.3348  1.1517 -0.0633
   85TIP3   OH2  260   0.260   1.168   3.682 -0.7295  0.1367 -0.4080
   85TIP3    H1  261   0.172   1.194   3.656 -0.8431 -0.4331 -0.6080
   85TIP3    H2  262   0.270   1.203   3.771 -0.9168  0.7477 -0.6233
   86TIP3   OH2  263   2.006   1.366   0.479 -0.1960 -0.0051 -0.6244
   86TIP3    H1  264   2.013   1.322   0.395  0.0968  0.1642 -0.6903
   86TIP3    H2  265   1.914   1.391   0.485 -0.8005 -2.1968  0.2212
   87TIP3   OH2  266   0.720   3.239   3.100  0.5287 -0.5473  0.5300
   87TIP3    H1  267   0.685   3.204   3.018 -1.3185  0.1977  0.9461
   87TIP3    H2  268   0.665   3.199   3.168  1.1153 -0.0743  1.2974
   88TIP3   OH2  269   4.902   0.696   4.285 -0.3121 -0.0342  0.4451
   88TIP3    H1  270   4.819   0.649   4.291 -0.0913 -0.7966 -1.5407
   88TIP3    H2  271   4.883   0.784   4.318 -3.2726  1.3896 -4.0563
   89TIP3   OH2  272   0.349   4.739   0.608 -0.3099  0.1944  0.3655
   89TIP3    H1  273   0.345   4.782   0.523 -0.5567  0.8226  0.6938
   89TIP3    H2  274   0.302   4.797   0.667 -0.9162 -0.6795  0.7546
   90TIP3   OH2  275   1.085   4.820   0.292 -0.4974 -0.3379  0.1983
   90TIP3    H1  276   1.175   4.793   0.273 -0.4076  1.3829 -2.4288
   90TIP3    H2  277   1.094   4.908   0.327 -1.0627 -1.3846  3.2198
   91TIP3   OH2  278   1.298   1.345   1.803  0.5400 -0.8894  0.2216
   91TIP3    H1  279   1.363   1.376   1.739  0.4278 -2.3722 -0.6411
   91TIP3    H2  280   1.214   1.376   1.769  0.0583 -4.3067 -2.2198
   92TIP3   OH2  281   1.419   1.626   3.970 -0.2945  0.1396 -0.3768
   92TIP3    H1  282   1.397   1.537   3.942  3.3048 -0.5659 -1.5091
   92TIP3    H2  283   1.390   1.682   3.899  1.4721 -0.7214 -1.8466
   93TIP3   OH2  284   1.777   0.504   2.135 -0.0470  0.2674 -0.0369
   93TIP3    H1  285   1.781   0.565   2.062 -0.7535 -0.4874 -0.7392
   93TIP3    H2  286   1.865   0.503   2.171  0.3425  0.5774 -0.9509
   94TIP3   OH2  287   0.303   0.419   1.553 -0.5938 -0.2838  0.2296
   94TIP3    H1  288   0.396   0.415   1.577 -0.4770  0.8655 -0.0049
   94TIP3    H2  289   0.300   0.476   1.476 -1.3677 -1.2522 -0.4865
   95TIP3   OH2  290   0.414   5.175   1.922  0.2768 -0.3893 -0.1699
   95TIP3    H1  291   0.341   5.121   1.892  0.8398 -1.2273 -0.0745
   95TIP3    H2  292   0.404   5.177   2.017 -0.4092  0.6636 -0.2515
   96TIP3   OH2  293   3.281   4.956   4.427  0.5846 -0.5865 -0.4413
   96TIP3    H1  294   3.188   4.952   4.449  0.7022  1.5881  0.7121
   96TIP3    H2  295   3.297   4.876   4.377 -1.8670 -1.0633 -0.5959
   97TIP3   OH2  296   2.682   1.216   2.867 -0.1734  0.0187 -0.0040
   97TIP3    H1  297   2.629   1.184   2.795  0.5163 -0.3633 -0.3606
   97TIP3    H2  298   2.768   1.177   2.852 -0.3478 -1.1553  1.7463
   98TIP3   OH2  299   5.524   2.268   3.858 -0.0839  0.1392  0.3178
   98TIP3    H1  300   5.432   2.243   3.857 -0.0643  0.0963 -0.3048
   98TIP3    H2  301   5.530   2.344   3.801  0.5682 -0.9520 -1.1329
   99TIP3   OH2  302   0.079   2.922   3.422  0.0986  0.4336 -0.4194
   99TIP3    H1  303   0.154   2.938   3.480 -0.4020 -0.1609  0.3968
   99TIP3    H2  304   0.062   2.828   3.429  0.0667  0.3365 -1.5849
  100TIP3   OH2  305   1.435   3.733   3.928 -0.1966 -0.3366 -0.3826
  100TIP3    H1  306   1.341   3.744   3.938  0.0317  0.6589  0.9490
  100TIP3    H2  307   1.465   3.704   4.014  0.9400  1.2763 -0.1830
  101TIP3   OH2  308   5.129   1.705   3.195 -0.1639 -0.3136  0.0838
  101TIP3    H1  309   5.136   1.619   3.238 -0.0940 -0.3594 -0.0193
  101TIP3    H2  310   5.101   1.684   3.106 -0.3725 -0.2142  0.1244
  102TIP3   OH2  311   0.988   3.298   5.086  0.0786 -0.4519  0.0564
  102TIP3    H1  312   0.959   3.275   5.174 -1.2193  0.2201 -0.1691
  102TIP3    H2  313   0.911   3.283   5.031 -0.0798  1.9606 -0.4886
  103TIP3   OH2  314   5.651   1.695   1.613  0.1049  0.2448  0.3261
  103TIP3    H1  315   5.602   1.725   1.537  0.6544 -2.3700 -1.1960
  103TIP3    H2  316   5.654   1.600   1.604 -1.1972 -0.4095  4.5223
  104TIP3   OH2  317   3.393   3.188   3.412 -0.1778  0.0243 -0.0598
  104TIP3    H1  318   3.344   3.258   3.368  0.7634  0.6596 -0.1239
  104TIP3    H2  319   3.434   3.231   3.486  0.8957 -0.3332 -0.4359
  105TIP3   OH2  320   6.158   4.417   1.899  0.0784 -0.2132 -0.3899
  105TIP3    H1  321   6.212   4.399   1.975 -1.0293  0.9554  0.7208
  105TIP3    H2  322   6.164   4.337   1.846  1.5711 -0.7090  0.4584
  106TIP3   OH2  323   1.803   1.709   3.923 -0.7823 -0.1254 -0.0611
  106TIP3    H1  324   1.749   1.664   3.989 -1.6966  1.8453  0.6368
  106TIP3    H2  325   1.750   1.785   3.897  1.5440  1.8401  0.5228
  107TIP3   OH2  326   4.970   0.970   3.169 -0.2840 -0.7010  0.6450
  107TIP3    H1  327   5.058   0.942   3.194  0.3005  1.3663  1.1923
  107TIP3    H2  328   4.920   0.968   3.251 -0.3200 -0.4795  0.6299
  108TIP3   OH2  329   2.537   4.322   1.059  0.5849 -0.1793 -0.0244
  108TIP3    H1  330   2.476   4.334   0.987 -0.7994 -0.6683  1.0163
  108TIP3    H2  331   2.563   4.411   1.083 -0.7762  0.1427  0.3623
  109TIP3   OH2  332   0.629   5.238   4.753  0.3632  0.2146  0.0529
  109TIP3    H1  333   0.603   5.183   4.680 -0.9987 -0.5490  1.0592
  109TIP3    H2  334   0.588   5.323   4.735  1.0279  0.3826 -0.6550
  110TIP3   OH2  335   1.856   4.309   1.220  0.5801 -0.3144 -0.0389
  110TIP3    H1  336   1.910   4.386   1.202  0.4682 -0.2399 -0.0542
  110TIP3    H2  337   1.779   4.343   1.264  0.6319 -0.4432  0.1529
  111TIP3   OH2  338   5.232   4.331   1.396 -0.4501  0.2684 -0.1076
  111TIP3    H1  339   5.187   4.377   1.467 -1.3550 -0.2035 -0.3689
  111TIP3    H2  340   5.232   4.239   1.423  0.7598  0.3153  0.0971
  112TIP3   OH2  341   5.855   1.347   2.617  0.0946 -0.7686  0.1929
  112TIP3    H1  342   5.760   1.340   2.620  0.0873 -0.5594  0.4585
  112TIP3    H2  343   5.875   1.427   2.666  0.3329 -0.1268 -0.9333
  113TIP3   OH2  344   2.144   5.086   3.842  0.0632 -0.2314  0.4876
  113TIP3    H1  345   2.089   5.113   3.768 -0.2744 -2.5435 -0.1819
  113TIP3    H2  346   2.233   5.099   3.810 -0.0884 -0.4937 -0.0664
  114TIP3   OH2  347   2.771   5.176   1.318 -0.1219  0.1777  0.0892
  114TIP3    H1  348   2.730   5.253   1.280  1.2650  0.1337 -1.6297
  114TIP3    H2  349   2.863   5.202   1.331 -0.1007 -0.5039  1.5476
  115TIP3   OH2  350   2.907   5.073   3.684 -0.2996  0.0683 -0.0281
  115TIP3    H1  351   2.959   5.138   3.730  0.0406 -0.9167  1.0102
  115TIP3    H2  352   2.971   5.021   3.635 -0.5872  0.6260 -1.0243
  116TIP3   OH2  353   3.414   3.995   5.038  0.1077 -0.3203 -0.2659
  116TIP3    H1  354   3.461   3.918   5.072 -0.7343 -1.5617 -1.7832
  116TIP3    H2  355   3.469   4.069   5.064 -0.2970 -1.1094  3.5176
  117TIP3   OH2  356   2.255   3.192   0.985  0.0689  0.6902 -0.4249
  117TIP3    H1  357   2.217   3.246   1.054 -0.6228 -0.5863  0.2287
  117TIP3    H2  358   2.182   3.172   0.927  0.3680  0.6405 -0.7870
  118TIP3   OH2  359   3.867   0.510   4.693  0.5043  0.0383 -0.2511
  118TIP3    H1  360   3.880   0.437   4.632  0.3111 -0.6813  0.5510
  118TIP3    H2  361   3.786   0.552   4.662  1.1904  0.5993 -1.3662
  119TIP3   OH2  362   1.607   4.140   2.680  0.1639 -0.1629 -0.7379
  119TIP3    H1  363   1.676   4.074   2.682 -0.2400 -0.5926  1.5076
  119TIP3    H2  364   1.654   4.223   2.682  0.6324 -0.3815 -1.7928
  120TIP3   OH2  365   2.932   3.237   3.767 -0.7429 -0.5665 -0.2472
  120TIP3    H1  366   2.982   3.194   3.837 -0.8684  0.0407  0.2266
  120TIP3    H2  367   2.981   3.316   3.748 -0.8832 -0.5698 -0.6308
  121TIP3   OH2  368   4.110   5.159   1.911 -0.8246 -0.1065 -0.2911
  121TIP3    H1  369   4.087   5.246   1.879 -3.1010  1.0687  3.9108
  121TIP3    H2  370   4.205   5.163   1.925 -0.6929  1.1894 -1.4182
  122TIP3   OH2  371   5.571   2.702   3.534  0.0186  0.4701  0.4989
  122TIP3    H1  372   5.600   2.734   3.449  0.0508  2.2356  1.1411
  122TIP3    H2  373   5.647   2.709   3.591 -0.1646 -0.1469  0.8389
  123TIP3   OH2  374   4.070   3.808   5.109 -0.1260  0.2639  0.1503
  123TIP3    H1  375   4.007   3.869   5.070  1.4066  1.8308  0.0094
  123TIP3    H2  376   4.094   3.751   5.036 -0.7897  0.1546  0.0072
  124TIP3   OH2  377   1.757   3.727   3.035 -0.2982 -0.2715  0.1810
  124TIP3    H1  378   1.766   3.822   3.037 -0.3987 -0.2277 -0.8963
  124TIP3    H2  379   1.841   3.694   3.066 -0.4490  0.1573  1.0866
  125TIP3   OH2  380   3.744   0.603   0.565  0.5833 -0.1789  0.4450
  125TIP3    H1  381   3.817   0.661   0.589  1.9206 -0.8252 -1.7704
  125TIP3    H2  382   3.750   0.531   0.628  0.8547  0.5526  1.2772
  126TIP3   OH2  383   4.868   0.269   0.948  0.3837  0.0021  0.0691
  126TIP3    H1  384   4.883   0.346   0.892  0.8777 -0.3967 -0.3586
  126TIP3    H2  385   4.800   0.296   1.009  0.6693  0.8360  0.0270
  127TIP3   OH2  386   1.446   0.810   3.179  0.0700 -0.3322 -0.4288
  127TIP3    H1  387   1.532   0.786   3.213 -0.0620  0.4786  0.5285
  127TIP3    H2  388   1.449   0.906   3.172 -0.9095 -0.2547  0.0772
  128TIP3   OH2  389   1.198   4.979   0.635  0.0142  0.3386  0.5584
  128TIP3    H1  390   1.187   5.026   0.552  4.4591  2.1898  0.7324
  128TIP3    H2  391   1.111   4.978   0.674 -1.6257  2.3244 -2.6118
  129TIP3   OH2  392   2.071   1.268   4.014 -0.7442 -0.1090 -0.0892
  129TIP3    H1  393   2.133   1.232   3.950 -1.0014 -1.4968  0.3979
  129TIP3    H2  394   2.120   1.272   4.095 -0.3208  1.9588 -0.3977
  130TIP3   OH2  395   6.305   4.104   0.293 -0.5770  0.3070 -0.3784
  130TIP3    H1  396   6.280   4.174   0.354 -0.4899  0.9123 -1.0251
  130TIP3    H2  397   6.273   4.024   0.335  0.2181  0.6109  0.8664
  131TIP3   OH2  398   4.998   2.110   2.511  0.6926  0.0450  0.4478
  131TIP3    H1  399   5.029   2.114   2.421  1.6563 -0.3503  0.7457
  131TIP3    H2  400   5.077   2.093   2.563  0.0447 -0.4945  1.2898
  132TIP3   OH2  401   1.045   1.348   0.751  0.1194 -0.3231 -0.2407
  132TIP3    H1  402   1.117   1.408   0.735  0.2059 -0.5743 -0.8517
  132TIP3    H2  403   1.014   1.324   0.663 -1.1645  0.3264  0.0015
  133TIP3   OH2  404   4.050   3.870   3.008  0.3268 -0.5647  0.2909
  133TIP3    H1  405   4.123   3.926   2.981  1.1946 -0.9212  1.8353
  133TIP3    H2  406   4.026   3.901   3.095 -0.6418 -1.1784  0.2595
  134TIP3   OH2  407   1.402   3.140   4.413  0.2110  0.1447  0.7725
  134TIP3    H1  408   1.386   3.114   4.504 -0.8437 -0.2381  0.4900
  134TIP3    H2  409   1.367   3.228   4.407  0.7612  0.3759  0.8620
  135TIP3   OH2  410   5.175   2.514   2.590 -0.2190 -0.1897 -0.1596
  135TIP3    H1  411   5.170   2.434   2.643 -0.3529 -0.4718 -0.5967
  135TIP3    H2  412   5.199   2.582   2.653  1.7374 -0.8822 -0.0819
  136TIP3   OH2  413   0.726   1.962   4.391 -0.7077  0.4107  0.0336
  136TIP3    H1  414   0.765   2.048   4.379 -1.2659  0.4814 -1.4407
  136TIP3    H2  415   0.643   1.980   4.435 -0.6932  0.5966 -0.0141
  137TIP3   OH2  416   6.084   4.827   0.680 -0.6012  0.4432 -0.3517
  137TIP3    H1  417   6.080   4.923   0.675  0.4468  0.5175 -0.0892
  137TIP3    H2  418   6.103   4.800   0.590 -0.4305  0.5191 -0.3401
  138TIP3   OH2  419   4.187   1.966   0.956  0.2960 -1.0608 -0.1036
  138TIP3    H1  420   4.116   1.901   0.954 -1.2860  0.5837  0.0980
  138TIP3    H2  421   4.212   1.976   0.865 -1.4740  0.1118 -0.5044
  139TIP3   OH2  422   0.138   1.579   3.265  0.4280  0.2776  0.2701
  139TIP3    H1  423   0.163   1.664   3.230  1.8791 -0.0253  0.5040
  139TIP3    H2  424   0.044   1.572   3.247  1.0365 -0.0124 -3.9877
  140TIP3   OH2  425   1.464   4.996   3.279  0.1182  0.3635  0.1624
  140TIP3    H1  426   1.433   4.906   3.286  0.7712  0.1688  0.7430
  140TIP3    H2  427   1.386   5.050   3.289 -0.1390 -0.1221  0.8575
  141TIP3   OH2  428   2.964   2.541   3.699 -0.4288 -0.2414  0.3396
  141TIP3    H1  429   2.896   2.509   3.639 -0.0058 -0.1572 -0.1921
  141TIP3    H2  430   2.917   2.601   3.758 -0.4734  1.5648 -1.4031
  142TIP3   OH2  431   1.797   5.907   2.551  0.0691 -0.5445  0.4677
  142TIP3    H1  432   1.725   5.957   2.589 -0.3307 -0.1269 -0.8083
  142TIP3    H2  433   1.875   5.955   2.577 -0.2474  0.1991  0.0777
  143TIP3   OH2  434   1.026   1.443   4.036  0.1381  0.9721 -0.3553
  143TIP3    H1  435   1.091   1.501   3.996 -0.5481  1.2107 -1.1600
  143TIP3    H2  436   0.987   1.396   3.962  0.0337  0.1596  0.2041
  144TIP3   OH2  437   5.398   0.014   0.289  0.3534  0.2459 -0.0336
  144TIP3    H1  438   5.391   0.110   0.290 -2.0714  0.1272  0.1972
  144TIP3    H2  439   5.470  -0.006   0.349  1.5540  1.9277 -0.8329
  145TIP3   OH2  440   3.048   2.724   0.188  0.3095 -0.0563 -0.2405
  145TIP3    H1  441   3.043   2.736   0.094 -1.3341 -0.3909 -0.2345
  145TIP3    H2  442   2.993   2.793   0.225 -0.0214 -0.6361  0.3918
  146TIP3   OH2  443   0.798   3.464   4.320  0.1588  0.2208 -0.0641
  146TIP3    H1  444   0.705   3.449   4.303  0.2037  2.3906 -3.2126
  146TIP3    H2  445   0.842   3.426   4.244  1.8566 -0.4224  1.1814
  147TIP3   OH2  446   5.096   3.565   0.135 -0.4327  0.0229 -0.0133
  147TIP3    H1  447   5.139   3.612   0.063  0.5372 -1.7461 -0.6405
  147TIP3    H2  448   5.015   3.614   0.150  0.6581  2.0639 -0.3994
  148TIP3   OH2  449   2.423   3.832   2.260 -0.1531 -0.1346  0.1098
  148TIP3    H1  450   2.418   3.747   2.304 -0.9238  0.2509  0.7891
  148TIP3    H2  451   2.443   3.810   2.169 -1.3778 -1.1283  0.0397
  149TIP3   OH2  452   3.563   5.926   1.910 -0.2722  0.4998  0.3748
  149TIP3    H1  453   3.524   5.851   1.956 -2.5269  0.8733 -0.7639
  149TIP3    H2  454   3.573   5.993   1.977 -1.8342  0.4295  0.7189
  150TIP3   OH2  455   4.676   4.744   0.102 -0.0905 -0.0960  0.2856
  150TIP3    H1  456   4.747   4.791   0.060 -0.0327 -0.6327 -0.2383
  150TIP3    H2  457   4.596   4.782   0.065 -0.0379 -1.9490 -1.9679
  151TIP3   OH2  458   2.269   4.229   1.274 -0.0305  0.5660 -0.4189
  151TIP3    H1  459   2.262   4.290   1.201  0.8156 -0.1484 -1.1127
  151TIP3    H2  460   2.360   4.200   1.273 -0.0915  0.2944  0.7192
  152TIP3   OH2  461   2.380   4.457   2.053  0.1148 -0.2586  0.5555
  152TIP3    H1  462   2.404   4.405   1.976 -0.4546  1.3509 -0.7742
  152TIP3    H2  463   2.328   4.398   2.107 -0.9192 -0.9649 -1.1236
  153TIP3   OH2  464   5.175   2.275   2.749 -0.3093 -0.7448 -0.1817
  153TIP3    H1  465   5.207   2.195   2.706 -0.6370 -0.6574 -0.5931
  153TIP3    H2  466   5.114   2.244   2.816 -0.4561 -0.8395 -0.3582
  154TIP3   OH2  467   0.637   2.998   0.208  0.0704 -0.1606 -0.8700
  154TIP3    H1  468   0.731   2.980   0.219 -0.3154 -1.3037  1.0433
  154TIP3    H2  469   0.609   2.939   0.138  0.6284 -0.3597 -0.9306
  155TIP3   OH2  470   3.866   3.456   4.725  0.3749 -0.1052 -0.1858
  155TIP3    H1  471   3.932   3.397   4.689  1.3847  1.4955 -1.0704
  155TIP3    H2  472   3.792   3.449   4.665 -0.4040 -2.0149  0.8877
  156TIP3   OH2  473   4.106   3.274   3.886 -0.2485 -0.2828 -0.1461
  156TIP3    H1  474   4.140   3.363   3.881 -1.5781  0.2072 -0.9274
  156TIP3    H2  475   4.182   3.220   3.910  0.5317  1.0728  0.5154
  157TIP3   OH2  476   5.587   0.954   1.175 -0.4185  0.2448 -0.0612
  157TIP3    H1  477   5.515   0.895   1.195  0.0438 -0.0273  0.8636
  157TIP3    H2  478   5.553   1.042   1.193 -0.8869  0.2121 -0.7695
  158TIP3   OH2  479   3.912   1.001   4.576 -0.1361  0.6567  0.4280
  158TIP3    H1  480   3.830   1.045   4.593  0.0995  0.6449  1.7071
  158TIP3    H2  481   3.970   1.028   4.648  1.4475  1.7766 -1.1843
  159TIP3   OH2  482   5.064   0.863   3.662  0.8508  0.2124  0.2460
  159TIP3    H1  483   5.141   0.827   3.705  2.2968  1.4376 -1.2080
  159TIP3    H2  484   5.035   0.794   3.602 -0.4175 -1.0056  2.1448
  160TIP3   OH2  485   1.128   4.737   4.550  0.3205  0.2925 -0.6970
  160TIP3    H1  486   1.095   4.813   4.599  1.1148  1.5349 -2.0187
  160TIP3    H2  487   1.054   4.676   4.549  0.2714  0.1784  2.0379
  161TIP3   OH2  488   0.545   0.118   2.761  0.3908 -0.2130  0.3590
  161TIP3    H1  489   0.524   0.192   2.704  0.4022 -1.6599 -1.6128
  161TIP3    H2  490   0.460   0.090   2.797  0.1692 -0.2527 -0.1888
  162TIP3   OH2  491   4.607   1.810   4.675 -0.4038  0.5306 -0.8180
  162TIP3    H1  492   4.678   1.763   4.720 -2.1677 -0.1805  1.4110
  162TIP3    H2  493   4.586   1.883   4.733 -2.0899  0.1707 -0.9240
  163TIP3   OH2  494   0.504   2.333   0.138  0.5634 -0.7223  0.0356
  163TIP3    H1  495   0.483   2.335   0.045  1.0360 -1.5803 -0.1013
  163TIP3    H2  496   0.592   2.369   0.143 -0.7740  2.8284  0.6000
  164TIP3   OH2  497   3.007   5.028   0.937  0.2409  0.1750 -0.0241
  164TIP3    H1  498   3.092   5.061   0.966  0.8022 -0.3257 -1.0557
  164TIP3    H2  499   3.024   4.939   0.909 -0.7684 -0.1588  0.3560
  165TIP3   OH2  500   6.345   0.691   0.582 -0.0061  0.4356 -0.1218
  165TIP3    H1  501   6.330   0.610   0.533 -1.4631 -0.5691  1.8524
  165TIP3    H2  502   6.322   0.760   0.519 -0.7006 -0.7470 -1.2339
  166TIP3   OH2  503   1.399   5.469   2.119  0.0471  0.1427  0.5367
  166TIP3    H1  504   1.467   5.460   2.185 -0.3299 -0.8922  0.8055
  166TIP3    H2  505   1.318   5.446   2.164  0.0866 -3.5963 -0.9173
  167TIP3   OH2  506   1.105   0.937   2.456 -0.0751 -0.3263  0.2351
  167TIP3    H1  507   1.076   0.901   2.540 -0.3604  0.2856  0.4050
  167TIP3    H2  508   1.051   1.015   2.444  2.4137  1.6863  1.2301
  168TIP3   OH2  509   5.687   4.298   0.678  0.3692  0.1725 -0.2101
  168TIP3    H1  510   5.757   4.241   0.646 -0.0616 -1.9223  2.2205
  168TIP3    H2  511   5.731   4.380   0.701  1.6196 -0.3239 -0.7564
  169TIP3   OH2  512   1.048   2.496   4.358  0.0032 -0.2226 -0.0626
  169TIP3    H1  513   1.019   2.536   4.440 -0.3978 -1.7224  0.5624
  169TIP3    H2  514   1.117   2.554   4.327 -1.4209  1.6557  0.1004
  170TIP3   OH2  515   5.736   1.252   4.930  0.0919 -0.1715 -0.4886
  170TIP3    H1  516   5.750   1.176   4.987  0.3615 -0.1680 -0.5528
  170TIP3    H2  517   5.655   1.291   4.963  0.0996 -0.3267 -0.2801
  171TIP3   OH2  518   0.109   0.047   2.802 -0.0050  0.8464  0.0736
  171TIP3    H1  519   0.110  -0.048   2.791  2.5284  0.7593  0.4883
  171TIP3    H2  520   0.086   0.080   2.715 -0.6427 -0.1261 -0.1506
  172TIP3   OH2  521   4.681   4.288   4.770 -0.7764 -0.0580 -0.5422
  172TIP3    H1  522   4.739   4.332   4.832  1.0473 -2.5045 -0.3652
  172TIP3    H2  523   4.710   4.319   4.684 -0.7323  0.4260 -0.3565
  173TIP3   OH2  524   5.928   0.151   2.586  0.5356 -0.0865  0.4250
  173TIP3    H1  525   5.948   0.243   2.573  0.0131  0.0787  0.7846
  173TIP3    H2  526   6.014   0.110   2.602  0.5834  0.7019  2.4710
  174TIP3   OH2  527   1.790   0.177   0.868  0.1963  0.4328  0.0403
  174TIP3    H1  528   1.828   0.101   0.911  0.2898 -0.0206 -0.8268
  174TIP3    H2  529   1.865   0.222   0.828 -0.0088  0.2188 -0.6099
  175TIP3   OH2  530   3.059   3.591   3.939  0.1369 -0.7484  0.0001
  175TIP3    H1  531   3.145   3.573   3.977  0.7502  0.5748 -0.6994
  175TIP3    H2  532   3.055   3.533   3.863  0.7991 -0.1880 -0.4767
  176TIP3   OH2  533   1.376   3.209   1.738  0.5588 -0.5256  0.6320
  176TIP3    H1  534   1.448   3.215   1.675 -0.2558  2.3848 -0.1416
  176TIP3    H2  535   1.404   3.140   1.799  2.5741 -1.6024 -1.3564
  177TIP3   OH2  536   4.550   1.795   1.873 -0.3437  0.1686  0.0478
  177TIP3    H1  537   4.504   1.760   1.797 -0.0802 -0.2888  0.0946
  177TIP3    H2  538   4.527   1.736   1.945  1.3948 -0.9161 -0.2143
  178TIP3   OH2  539   4.877   5.394   3.007  0.2287  0.2063 -0.2209
  178TIP3    H1  540   4.832   5.467   3.049  2.3327  0.3746  1.9692
  178TIP3    H2  541   4.948   5.371   3.067  0.2094 -3.0858 -1.2436
  179TIP3   OH2  542   5.902   5.973   0.642  0.7534 -0.1283  0.6142
  179TIP3    H1  543   5.924   6.006   0.729  1.0359 -1.3260  1.0137
  179TIP3    H2  544   5.984   5.938   0.608  0.5031 -0.2643  0.1401
  180TIP3   OH2  545   2.450   0.168   0.964 -0.0159  0.6466  0.1587
  180TIP3    H1  546   2.463   0.171   1.058  2.0421 -1.1444  0.0139
  180TIP3    H2  547   2.361   0.201   0.951 -1.2270 -1.1007  2.9470
  181TIP3   OH2  548   4.055   4.563   3.566  0.1100 -0.0598  0.1196
  181TIP3    H1  549   4.055   4.525   3.479  0.7715 -0.2124  0.1833
  181TIP3    H2  550   4.022   4.652   3.553  0.3342 -0.0350 -0.3112
  182TIP3   OH2  551   3.794   5.424   5.146 -0.0051  0.3146  0.6237
  182TIP3    H1  552   3.803   5.473   5.065 -0.8562 -3.0612 -1.7572
  182TIP3    H2  553   3.822   5.484   5.215 -1.1601  4.0700 -1.8981
  183TIP3   OH2  554   4.180   1.721   4.604  0.0457 -0.1266  0.3216
  183TIP3    H1  555   4.200   1.680   4.519  0.6756 -0.2224  0.5128
  183TIP3    H2  556   4.260   1.710   4.655 -0.1401  0.4247  0.7394
  184TIP3   OH2  557   2.450   0.506   1.229 -0.0666  0.3203  0.9056
  184TIP3    H1  558   2.391   0.541   1.297 -1.1184 -1.2818  0.8696
  184TIP3    H2  559   2.518   0.460   1.278 -0.1329  0.2229  0.9074
  185TIP3   OH2  560   3.287   0.146   0.514  0.0245 -0.4702 -0.1980
  185TIP3    H1  561   3.248   0.123   0.429 -0.7599 -1.6126  0.4530
  185TIP3    H2  562   3.226   0.209   0.552  0.1136 -0.3525 -0.2471
  186TIP3   OH2  563   4.061   2.325   0.961 -0.1715 -0.1638  0.4128
  186TIP3    H1  564   4.005   2.399   0.939 -0.3726 -0.0609  1.2486
  186TIP3    H2  565   4.054   2.266   0.886 -1.6547 -0.3029  0.6335
  187TIP3   OH2  566   4.046   2.301   4.733 -0.0986 -0.2866 -0.0736
  187TIP3    H1  567   4.055   2.206   4.740 -1.7399 -0.4163  0.5793
  187TIP3    H2  568   3.960   2.314   4.693 -0.7850  0.9233  1.6582
  188TIP3   OH2  569   1.870   5.520   4.518  0.0414  0.5724  0.0110
  188TIP3    H1  570   1.933   5.478   4.459  0.2194 -1.1797  1.3523
  188TIP3    H2  571   1.905   5.608   4.531  0.6370  0.5897 -1.5267
  189TIP3   OH2  572   4.064   4.770   1.263  0.6801  0.1360  0.0454
  189TIP3    H1  573   3.999   4.765   1.333 -0.1021  0.7163 -0.6292
  189TIP3    H2  574   4.135   4.712   1.292 -0.2347 -0.6928  0.6763
  190TIP3   OH2  575   1.826   0.934   4.865  0.0782 -0.1319  0.0563
  190TIP3    H1  576   1.858   1.020   4.837  0.9090 -0.7543 -1.0463
  190TIP3    H2  577   1.789   0.948   4.952  0.6722  1.2336  0.1096
  191TIP3   OH2  578   2.133   2.340   1.001  0.0961  0.0855 -0.3400
  191TIP3    H1  579   2.117   2.275   0.932 -1.8699 -0.2445  0.3544
  191TIP3    H2  580   2.057   2.397   0.997  0.6709  0.9327  0.6190
  192TIP3   OH2  581   3.513   4.187   4.704 -0.5034  0.6741 -0.1354
  192TIP3    H1  582   3.535   4.264   4.651  0.9928  0.6450  0.3859
  192TIP3    H2  583   3.591   4.132   4.701 -1.9789 -1.4806 -1.5159
  193TIP3   OH2  584   3.212   3.633   3.170  0.0765  0.0145  0.0939
  193TIP3    H1  585   3.124   3.620   3.206 -0.2090  0.9422 -0.2409
  193TIP3    H2  586   3.257   3.688   3.234  0.0405  0.4712 -0.2671
  194TIP3   OH2  587   3.968   2.310   0.085  0.1670 -0.4337  0.2691
  194TIP3    H1  588   3.942   2.290  -0.005 -1.1105 -1.2986  0.7999
  194TIP3    H2  589   3.977   2.405   0.087 -0.2976 -0.3624 -0.6561
  195TIP3   OH2  590   1.543   5.916   0.191 -0.6936 -0.2531  0.4733
  195TIP3    H1  591   1.472   5.854   0.210 -0.9797 -0.2153 -0.4282
  195TIP3    H2  592   1.502   6.002   0.199 -1.3597 -0.2355 -2.0936
  196TIP3   OH2  593   2.425   4.786   0.823 -0.7267  0.0211  0.7281
  196TIP3    H1  594   2.419   4.881   0.824  0.6031  0.1304  0.8859
  196TIP3    H2  595   2.365   4.758   0.754  0.0878  1.0984 -0.4644
  197TIP3   OH2  596   5.915   1.159   3.199 -0.3050  0.7420  0.2540
  197TIP3    H1  597   5.907   1.152   3.104 -0.2484  0.4694  0.2683
  197TIP3    H2  598   5.836   1.117   3.233 -0.5171  1.1868  0.3205
  198TIP3   OH2  599   0.142   1.643   4.426  0.2792 -0.2136  0.2880
  198TIP3    H1  600   0.199   1.680   4.359  1.1347 -0.4252  0.8626
  198TIP3    H2  601   0.165   1.692   4.506  1.2545 -1.7345  1.0036
  199TIP3   OH2  602   3.304   4.372   0.496  0.1033  0.3220  0.4270
  199TIP3    H1  603   3.392   4.338   0.510  0.3265  0.7618  0.1074
  199TIP3    H2  604   3.255   4.347   0.575  1.1226  2.1397  1.6921
  200TIP3   OH2  605   1.349   0.507   5.108 -0.2389 -0.1011  0.5747
  200TIP3    H1  606   1.336   0.471   5.196 -0.4243  1.0769  1.0431
  200TIP3    H2  607   1.421   0.456   5.072 -1.6075 -2.1220  0.5369
  201TIP3   OH2  608   4.513   4.046   1.097  0.1301 -0.1324 -0.2840
  201TIP3    H1  609   4.527   4.136   1.127  1.3589 -0.5263  0.4110
  201TIP3    H2  610   4.532   4.049   1.003  1.6784  0.0662  0.0045
  202TIP3   OH2  611   3.298   5.663   3.826  0.7318 -0.4469 -0.6348
  202TIP3    H1  612   3.325   5.729   3.890  0.7297 -0.2327 -0.8501
  202TIP3    H2  613   3.267   5.589   3.878  0.2543 -0.0774 -0.3865
  203TIP3   OH2  614   4.083   0.136   1.523  0.2703 -0.0282  0.3348
  203TIP3    H1  615   4.166   0.131   1.475  1.2700 -0.1843  2.0070
  203TIP3    H2  616   4.043   0.050   1.510  0.3176  0.0758 -0.5492
  204TIP3   OH2  617   1.876   0.198   0.145  0.6653  0.0142 -0.1375
  204TIP3    H1  618   1.867   0.156   0.060 -1.0226  1.0696 -0.5305
  204TIP3    H2  619   1.853   0.289   0.129 -2.3186 -0.2525  1.8657
  205TIP3   OH2  620   1.477   0.850   0.016  0.7974  0.6395  0.1502
  205TIP3    H1  621   1.520   0.769  -0.012 -0.2105  0.4427 -0.9089
  205TIP3    H2  622   1.421   0.824   0.089  1.4978  0.6560  0.7023
  206TIP3   OH2  623   3.609   1.008   1.105  0.1929  0.3822 -0.0470
  206TIP3    H1  624   3.540   0.945   1.081  0.2894  0.0355  0.5542
  206TIP3    H2  625   3.633   1.050   1.022  1.4294 -1.6843 -0.8327
  207TIP3   OH2  626   4.845   4.018   3.640 -0.1541  0.2058  0.7083
  207TIP3    H1  627   4.901   4.089   3.670 -0.9912  1.4229 -0.5394
  207TIP3    H2  628   4.893   3.979   3.567  0.3485 -0.6108  1.4503
  208TIP3   OH2  629   3.400   1.583   2.741  0.5024  0.0147  0.3716
  208TIP3    H1  630   3.315   1.581   2.697  0.7254  1.7826 -0.2147
  208TIP3    H2  631   3.403   1.501   2.790 -1.2334 -0.4169 -0.1576
  209TIP3   OH2  632   6.111   1.378   4.548  0.3102  0.8082  0.7372
  209TIP3    H1  633   6.072   1.390   4.634 -0.4882 -0.2548  0.5454
  209TIP3    H2  634   6.040   1.344   4.494  0.3682  2.8699 -0.7587
  210TIP3   OH2  635   4.582   2.529   1.555 -0.3309  0.5766  0.4222
  210TIP3    H1  636   4.635   2.570   1.623  1.2873 -1.2887  0.3657
  210TIP3    H2  637   4.505   2.497   1.601 -0.1569  0.9708  1.0056
  211TIP3   OH2  638   3.350   3.049   1.788  0.2616  0.5683 -0.3826
  211TIP3    H1  639   3.284   3.115   1.769  0.0940 -0.1558 -2.5606
  211TIP3    H2  640   3.402   3.086   1.859 -0.8128  2.3095 -0.4593
  212TIP3   OH2  641   5.098   4.529   4.957 -0.0074 -0.3811  0.0647
  212TIP3    H1  642   5.192   4.522   4.944 -0.2215 -0.9639 -1.2419
  212TIP3    H2  643   5.072   4.604   4.903 -0.1598  0.4951  1.2867
  213TIP3   OH2  644   1.517   1.066   3.330 -0.2274 -0.3228  0.3199
  213TIP3    H1  645   1.610   1.043   3.333 -0.4368 -1.0938  1.4805
  213TIP3    H2  646   1.501   1.110   3.414 -0.7587  0.4260 -0.1653
  214TIP3   OH2  647   0.484   2.317   2.918  0.4570  0.6098  0.7230
  214TIP3    H1  648   0.419   2.385   2.900  0.2420  0.2619  0.1719
  214TIP3    H2  649   0.540   2.317   2.841  1.5924  1.4281  1.5097
  215TIP3   OH2  650   0.037   2.349   1.819 -0.3534  0.4414  0.1759
  215TIP3    H1  651   0.010   2.257   1.818  0.0785  0.2914 -1.3202
  215TIP3    H2  652   0.087   2.359   1.899  0.4137 -0.8981 -0.1088
  216TIP3   OH2  653   3.129   4.085   5.021 -0.2436  0.1610  0.3936
  216TIP3    H1  654   3.217   4.067   5.053 -0.8397 -0.2097  1.9519
  216TIP3    H2  655   3.077   4.011   5.052 -1.1890  0.6196 -0.0730
  217TIP3   OH2  656   3.113   0.110   0.776 -0.0795 -0.2742  0.0974
  217TIP3    H1  657   3.021   0.094   0.799  0.3313  0.4353  2.4253
  217TIP3    H2  658   3.111   0.195   0.732 -0.4792  0.0527  0.7222
  218TIP3   OH2  659   5.536   2.323   1.658  0.0381  0.8336 -0.2979
  218TIP3    H1  660   5.556   2.408   1.698  0.6354  0.9913 -0.9059
  218TIP3    H2  661   5.440   2.322   1.653  0.0182  1.4385 -0.1978
  219TIP3   OH2  662   3.566   5.033   1.918  0.0913  0.0593 -0.7176
  219TIP3    H1  663   3.614   4.961   1.877  1.4652  0.2178  0.4967
  219TIP3    H2  664   3.602   5.037   2.007 -0.6919  1.5824 -0.4379
  220TIP3   OH2  665   4.083   3.609   0.518  0.0812  0.6540  0.2752
  220TIP3    H1  666   4.142   3.641   0.450 -1.2614  0.0303 -1.2432
  220TIP3    H2  667   4.101   3.515   0.523 -0.5620  0.5131  0.0095
  221TIP3   OH2  668   0.850   2.958   1.618  0.1741 -0.4861 -0.1563
  221TIP3    H1  669   0.791   2.983   1.547  0.5120 -0.1833 -0.3361
  221TIP3    H2  670   0.848   2.862   1.619  1.3876 -0.5627 -1.6356
  222TIP3   OH2  671   1.623   5.972   1.994 -0.1276  0.4748 -0.4527
  222TIP3    H1  672   1.589   5.886   1.972  0.4915  0.1471 -0.1561
  222TIP3    H2  673   1.705   5.955   2.040 -1.3123  1.1188  2.0894
  223TIP3   OH2  674   1.915   5.704   4.843 -0.6167  0.6883  0.3219
  223TIP3    H1  675   1.961   5.634   4.795  1.2038  0.7703  1.8052
  223TIP3    H2  676   1.850   5.657   4.897 -0.1256  0.2211  0.5211
  224TIP3   OH2  677   2.794   4.298   4.224 -0.4138  0.0445  1.1681
  224TIP3    H1  678   2.736   4.292   4.148  1.3435 -1.1655 -0.1592
  224TIP3    H2  679   2.817   4.207   4.244  2.9301  0.4926  0.0297
  225TIP3   OH2  680   3.117   2.802   3.172 -0.2043 -0.5205  0.4481
  225TIP3    H1  681   3.084   2.712   3.176 -0.3598 -0.5496 -0.9944
  225TIP3    H2  682   3.203   2.794   3.131 -0.6634  0.0718 -0.6655
  226TIP3   OH2  683   3.582   0.107   1.432  0.1462  0.8535  0.1198
  226TIP3    H1  684   3.536   0.043   1.486 -0.4686  0.7768 -0.4910
  226TIP3    H2  685   3.634   0.159   1.494  0.8905 -0.4212  0.5948
  227TIP3   OH2  686   1.851   0.979   3.268 -0.3182 -0.3117 -0.4228
  227TIP3    H1  687   1.800   0.944   3.341 -1.2726  0.1032 -0.8693
  227TIP3    H2  688   1.869   0.902   3.213 -0.1223 -0.5239 -0.0668
  228TIP3   OH2  689   5.792   5.313   0.975  0.0438 -0.8178 -0.1136
  228TIP3    H1  690   5.847   5.248   0.933  2.6351  1.2195 -0.1399
  228TIP3    H2  691   5.735   5.345   0.905  0.2668 -1.4903 -0.6161
  229TIP3   OH2  692   0.162   5.735   2.656 -0.0528  0.2422  0.1795
  229TIP3    H1  693   0.235   5.676   2.672 -0.3201 -0.2419 -0.3637
  229TIP3    H2  694   0.191   5.791   2.584 -0.6703 -0.7729 -0.8926
  230TIP3   OH2  695   2.913   5.680   0.128  0.4251  1.1124  0.0165
  230TIP3    H1  696   2.903   5.594   0.168  0.9595  0.7150 -0.6795
  230TIP3    H2  697   2.969   5.665   0.052  0.0220  1.9698 -0.4682
  231TIP3   OH2  698   5.394   3.952   0.263  0.0435  0.3592  0.9652
  231TIP3    H1  699   5.319   3.969   0.206  1.5895  1.2863 -0.9149
  231TIP3    H2  700   5.369   3.991   0.347 -2.0766 -0.5368  0.8035
  232TIP3   OH2  701   3.474   3.676   1.472 -0.1121  0.1282  1.2576
  232TIP3    H1  702   3.568   3.658   1.473 -0.1236 -0.4991 -1.4088
  232TIP3    H2  703   3.456   3.714   1.558  2.3314 -0.8462  2.2892
  233TIP3   OH2  704   4.166   1.668   0.342 -0.1529 -0.1937 -0.4641
  233TIP3    H1  705   4.104   1.641   0.274 -0.9146 -0.0513  0.1652
  233TIP3    H2  706   4.126   1.746   0.381  0.2034 -0.3737  0.2569
  234TIP3   OH2  707   1.130   2.395   2.872 -0.5342  0.5649  0.0902
  234TIP3    H1  708   1.159   2.321   2.819 -2.1118 -0.6398  0.8094
  234TIP3    H2  709   1.201   2.411   2.933  0.0275 -0.0249 -0.4006
  235TIP3   OH2  710   0.615   2.893   2.706 -0.2900 -0.2776  0.0054
  235TIP3    H1  711   0.535   2.843   2.694 -0.4978  0.1951 -0.6873
  235TIP3    H2  712   0.669   2.870   2.630 -1.1059  1.8416 -1.3101
  236TIP3   OH2  713   3.131   0.331   2.542 -0.7879 -0.5497  0.3275
  236TIP3    H1  714   3.150   0.315   2.634 -1.3076 -0.9299  0.3704
  236TIP3    H2  715   3.171   0.416   2.524  0.0586 -0.8659  0.6763
  237TIP3   OH2  716   0.873   3.426   2.539 -0.2780 -0.1682 -0.5072
  237TIP3    H1  717   0.947   3.467   2.492 -0.2820 -1.0362 -1.3066
  237TIP3    H2  718   0.797   3.479   2.514  0.3600  2.3420  2.3361
  238TIP3   OH2  719   4.266   4.906   4.415  0.0162 -0.5145 -0.2764
  238TIP3    H1  720   4.270   4.972   4.346  1.6574  0.1749  0.4435
  238TIP3    H2  721   4.310   4.829   4.378  3.8733  0.8759  0.9926
  239TIP3   OH2  722   3.820   1.020   3.197  0.3675 -0.0253  0.0069
  239TIP3    H1  723   3.826   1.085   3.267 -0.0088 -0.8122  0.7943
  239TIP3    H2  724   3.910   1.010   3.165  0.0496  3.6469 -2.8100
  240TIP3   OH2  725   0.789   3.777   4.331 -0.3628 -0.4131 -0.1773
  240TIP3    H1  726   0.746   3.713   4.276  0.9376 -0.3869 -1.2855
  240TIP3    H2  727   0.767   3.862   4.292 -1.3367 -0.2143  0.7491
  241TIP3   OH2  728   2.197   3.374   4.357  0.5889 -0.1741 -0.1395
  241TIP3    H1  729   2.180   3.294   4.406 -1.0051 -0.2296 -0.7427
  241TIP3    H2  730   2.117   3.425   4.366  1.4413  1.2088 -0.0765
  242TIP3   OH2  731   4.788   0.068   2.803  0.5530  0.2675  0.2355
  242TIP3    H1  732   4.790   0.154   2.846  0.1999 -1.2142  3.5172
  242TIP3    H2  733   4.847   0.014   2.855  0.5688 -1.5733 -1.5818
  243TIP3   OH2  734   3.224   4.821   3.315  0.2051  0.0086  0.4131
  243TIP3    H1  735   3.214   4.744   3.259  1.6286 -0.1010  0.2608
  243TIP3    H2  736   3.170   4.888   3.274  0.0747 -0.5020 -0.2668
  244TIP3   OH2  737   5.605   3.522   1.142 -0.7886  0.5454 -0.6918
  244TIP3    H1  738   5.617   3.475   1.225  0.6497  1.6230 -0.2561
  244TIP3    H2  739   5.657   3.472   1.079  2.2056  2.4183  0.1408
  245TIP3   OH2  740   3.708   1.558   0.381  0.2782 -0.6216  0.2381
  245TIP3    H1  741   3.702   1.553   0.476 -0.9738 -0.4696  0.1880
  245TIP3    H2  742   3.617   1.558   0.351  0.6468 -1.7764 -1.0215
  246TIP3   OH2  743   3.481   0.195   3.275  0.3553 -0.1994 -0.0887
  246TIP3    H1  744   3.555   0.245   3.309 -1.6266  2.7800  0.1298
  246TIP3    H2  745   3.409   0.212   3.336 -1.1921 -1.0013 -1.6017
  247TIP3   OH2  746   2.219   1.254   3.459 -0.2657  0.3757  0.9085
  247TIP3    H1  747   2.149   1.314   3.483 -1.2389 -0.3653  0.0271
  247TIP3    H2  748   2.207   1.240   3.365  1.3650  0.6044  0.6421
  248TIP3   OH2  749   4.146   2.676   3.500 -0.0696 -0.0488  0.1056
  248TIP3    H1  750   4.088   2.607   3.469 -0.7207  0.5957 -0.1363
  248TIP3    H2  751   4.234   2.645   3.479 -0.4496  0.2348 -2.1626
  249TIP3   OH2  752   0.648   3.232   5.038  0.1862  0.0687 -0.6081
  249TIP3    H1  753   0.635   3.234   4.943  0.7298 -2.5749 -0.8271
  249TIP3    H2  754   0.715   3.165   5.051 -0.7234 -0.4762  1.7310
  250TIP3   OH2  755   2.587   2.172   4.682  0.0444 -0.7924 -0.0900
  250TIP3    H1  756   2.681   2.167   4.663  0.3197 -0.4628  1.0857
  250TIP3    H2  757   2.580   2.146   4.774 -0.9298 -0.1475  0.0328
  251TIP3   OH2  758   0.984   0.000   3.022  0.9016  0.0623  0.6595
  251TIP3    H1  759   0.961   0.070   2.961 -0.0701 -0.0781  0.8506
  251TIP3    H2  760   0.909  -0.060   3.020  1.9415 -1.2615  0.0960
  252TIP3   OH2  761   3.419   1.731   3.670 -0.4300 -0.0406 -0.0812
  252TIP3    H1  762   3.435   1.742   3.576 -1.3685  0.2664 -0.2196
  252TIP3    H2  763   3.332   1.769   3.683 -0.7138 -0.9493  0.7420
  253TIP3   OH2  764   3.174   3.235   1.292 -0.0151 -0.1396 -0.1374
  253TIP3    H1  765   3.103   3.293   1.264  0.5969 -0.7342 -3.4438
  253TIP3    H2  766   3.130   3.154   1.318 -0.6467 -0.1337 -1.1193
  254TIP3   OH2  767   2.341   1.532   4.206  0.7347  0.2756 -0.0001
  254TIP3    H1  768   2.306   1.590   4.138  2.0832  3.0710  1.5058
  254TIP3    H2  769   2.398   1.472   4.159  0.0605  0.7973 -1.5584
  255TIP3   OH2  770   4.492   4.590   2.867 -0.4277 -0.3506 -0.3905
  255TIP3    H1  771   4.452   4.506   2.889 -1.6835  0.2369 -0.3531
  255TIP3    H2  772   4.582   4.583   2.901  0.0433 -2.2808 -1.8449
  256TIP3   OH2  773   5.951   5.668   1.725 -0.0708 -0.5430 -0.9280
  256TIP3    H1  774   5.946   5.710   1.811  2.2970  1.2179 -1.5436
  256TIP3    H2  775   5.986   5.581   1.743 -0.1011 -0.3812 -0.0338
  257TIP3   OH2  776   3.986   5.176   4.463 -0.0457 -0.5642 -0.7078
  257TIP3    H1  777   4.033   5.096   4.487 -0.0708 -0.7460 -1.2485
  257TIP3    H2  778   4.054   5.236   4.432  0.0993 -0.0113  0.5907
  258TIP3   OH2  779   6.206   4.727   0.432  0.0005 -0.1876  0.7881
  258TIP3    H1  780   6.242   4.638   0.426 -0.5163 -0.3924  0.5913
  258TIP3    H2  781   6.273   4.777   0.478  0.0927 -0.7937  1.3345
  259TIP3   OH2  782   3.466   1.748   1.785  0.1983  0.2012  0.1106
  259TIP3    H1  783   3.444   1.668   1.833 -0.6350 -0.3539 -1.1618
  259TIP3    H2  784   3.561   1.755   1.794  0.0521  0.3161  2.1101
  260TIP3   OH2  785   4.891   3.144   1.829 -0.0398 -0.5448 -0.2159
  260TIP3    H1  786   4.895   3.059   1.786 -0.0638 -0.8227  0.3330
  260TIP3    H2  787   4.801   3.152   1.860 -0.3721  0.2067 -1.3192
  261TIP3   OH2  788   4.583   2.975   2.649 -0.5200  0.1596 -0.0930
  261TIP3    H1  789   4.549   2.956   2.736 -0.1124  0.1919  0.0721
  261TIP3    H2  790   4.632   2.897   2.624  1.6280  1.1455  0.8168
  262TIP3   OH2  791   2.354   2.000   0.298 -0.3617 -0.5667  0.2472
  262TIP3    H1  792   2.392   1.954   0.373 -2.3138 -0.0892  1.6339
  262TIP3    H2  793   2.397   1.962   0.222  2.5363 -0.3092  1.6015
  263TIP3   OH2  794   6.273   4.245   2.870  0.7555 -0.1078 -0.1530
  263TIP3    H1  795   6.186   4.273   2.897 -0.5317 -1.3051 -2.7324
  263TIP3    H2  796   6.276   4.151   2.889  0.8376 -0.4045 -1.5316
  264TIP3   OH2  797   5.517   3.330   2.973 -0.5533 -0.1391  0.2244
  264TIP3    H1  798   5.440   3.277   2.955  0.3782 -1.7318  0.7819
  264TIP3    H2  799   5.570   3.278   3.033  2.1458 -0.2288 -2.0186
  265TIP3   OH2  800   5.820   1.824   0.603  0.7031 -0.2616  0.8335
  265TIP3    H1  801   5.729   1.806   0.626  0.2747 -0.3953 -0.8208
  265TIP3    H2  802   5.851   1.884   0.671  0.0560 -1.8686  2.6085
  266TIP3   OH2  803   3.149   2.471   3.954  0.1483 -0.3008  0.0343
  266TIP3    H1  804   3.107   2.547   3.995 -0.2305 -0.0642 -0.7634
  266TIP3    H2  805   3.233   2.463   3.999  0.0798  0.4352  0.3081
  267TIP3   OH2  806   4.015   0.115   3.968  0.2445  0.5236  0.3117
  267TIP3    H1  807   4.096   0.166   3.959  1.1552 -0.9822 -0.5385
  267TIP3    H2  808   4.035   0.032   3.924 -1.9956  0.3658 -0.5290
  268TIP3   OH2  809   2.912   3.510   2.953 -0.1575  0.7113 -0.0073
  268TIP3    H1  810   2.910   3.570   2.878  0.7579  1.0847  0.2586
  268TIP3    H2  811   2.835   3.534   3.004 -0.3001  1.0524 -0.3720
  269TIP3   OH2  812   6.207   4.884   5.013  0.2255 -0.1687 -0.4934
  269TIP3    H1  813   6.200   4.791   4.990  0.0860 -0.0163 -1.0924
  269TIP3    H2  814   6.277   4.888   5.078  0.4483 -0.6523 -0.7028
  270TIP3   OH2  815   0.530   3.541   0.010  0.5103  0.1629  0.1962
  270TIP3    H1  816   0.547   3.634   0.022  0.9716  0.4105 -1.9086
  270TIP3    H2  817   0.602   3.497   0.055  1.6249  0.9184 -0.8056
  271TIP3   OH2  818   4.181   5.007   3.600  0.2088  0.5486  0.0307
  271TIP3    H1  819   4.139   5.038   3.680  0.3578 -0.1301  0.3861
  271TIP3    H2  820   4.216   4.921   3.624 -0.1898  0.1101 -0.9179
  272TIP3   OH2  821   2.334   1.817   3.007 -0.8179 -0.6640  0.0344
  272TIP3    H1  822   2.346   1.912   3.014 -0.3371 -0.6439 -0.9182
  272TIP3    H2  823   2.251   1.806   2.960 -1.6064 -0.7472  1.3925
  273TIP3   OH2  824   1.287   2.840   1.532 -0.9095  0.1259  0.3127
  273TIP3    H1  825   1.297   2.867   1.623 -2.8236  0.4128  0.4860
  273TIP3    H2  826   1.200   2.871   1.507 -0.9234 -1.0134 -1.2381
  274TIP3   OH2  827   0.341   4.925   0.068 -0.1103  0.3089  0.4357
  274TIP3    H1  828   0.418   4.875   0.094 -0.6105 -0.9980 -0.4859
  274TIP3    H2  829   0.266   4.874   0.099 -0.6358  1.1731  0.6532
  275TIP3   OH2  830   6.335   5.947   4.757  0.2865 -0.1733  0.2357
  275TIP3    H1  831   6.366   5.920   4.843 -0.1647 -1.2989  0.0552
  275TIP3    H2  832   6.248   5.985   4.773  0.0175 -0.7766  0.2320
  276TIP3   OH2  833   5.875   1.041   1.519  0.3603 -0.5658  0.0711
  276TIP3    H1  834   5.847   0.957   1.556 -0.8266 -0.0067  0.4701
  276TIP3    H2  835   5.863   1.103   1.591  1.6028 -0.1032 -0.0950
  277TIP3   OH2  836   0.623   1.904   1.185  0.4864 -0.1968 -0.2119
  277TIP3    H1  837   0.672   1.844   1.240  0.4316  1.4548  1.7501
  277TIP3    H2  838   0.596   1.974   1.244 -1.8233  0.3805 -1.8045
  278TIP3   OH2  839   2.181   0.628   4.375 -0.0785  0.0111  0.0351
  278TIP3    H1  840   2.108   0.595   4.428  0.3671 -1.6913 -0.3478
  278TIP3    H2  841   2.166   0.722   4.370 -1.0462 -0.0115  1.7822
  279TIP3   OH2  842   0.945   4.545   3.715 -0.8898  0.2177  0.2992
  279TIP3    H1  843   1.011   4.530   3.647 -0.3156  0.1126  0.8675
  279TIP3    H2  844   0.862   4.544   3.668 -0.5497 -0.4326 -0.3166
  280TIP3   OH2  845   0.071   1.218   2.961  0.1791 -0.2478 -0.1995
  280TIP3    H1  846   0.064   1.161   2.885  2.7830 -0.6624 -0.2143
  280TIP3    H2  847   0.054   1.306   2.927 -0.5301 -0.6200 -0.8492
  281TIP3   OH2  848   4.363   4.960   3.977  0.3565  0.1570 -0.3474
  281TIP3    H1  849   4.446   4.971   3.930 -0.3359 -0.7545 -1.8691
  281TIP3    H2  850   4.336   5.049   3.999  2.3107  0.4350  1.3277
  282TIP3   OH2  851   4.406   2.016   3.002 -0.3580  0.5837 -0.4511
  282TIP3    H1  852   4.410   1.921   3.005 -0.3643  0.5783 -0.6086
  282TIP3    H2  853   4.313   2.036   2.992 -0.5042  0.6433  0.8418
  283TIP3   OH2  854   0.659   3.994   1.037 -0.5661  0.1163 -0.5677
  283TIP3    H1  855   0.664   4.076   1.086  0.5627  0.4346 -1.1550
  283TIP3    H2  856   0.612   3.934   1.094 -0.9758  1.0300  0.0803
  284TIP3   OH2  857   1.595   0.473   0.509 -0.4053 -0.4786  0.3731
  284TIP3    H1  858   1.675   0.420   0.513 -0.6159 -0.8002  0.3665
  284TIP3    H2  859   1.610   0.544   0.572  0.7431  0.6628 -1.1088
  285TIP3   OH2  860   6.122   5.640   3.213 -0.2431  0.4873  0.2492
  285TIP3    H1  861   6.149   5.620   3.302 -1.0242  0.8465  0.5774
  285TIP3    H2  862   6.119   5.555   3.169  3.2300  0.5678 -0.3792
  286TIP3   OH2  863   2.540   5.727   0.334  0.1067 -0.1558  0.3463
  286TIP3    H1  864   2.593   5.802   0.364  1.5242 -0.6655 -0.7375
  286TIP3    H2  865   2.452   5.745   0.368  0.3406  2.1084 -0.0471
  287TIP3   OH2  866   2.152   4.208   4.725  0.3664 -0.4248  0.2607
  287TIP3    H1  867   2.248   4.206   4.728  0.6289 -2.2639 -3.4769
  287TIP3    H2  868   2.129   4.146   4.656 -3.4845  0.9304  0.0898
  288TIP3   OH2  869   5.828   4.166   1.524 -0.0621 -0.4640 -0.5036
  288TIP3    H1  870   5.810   4.078   1.489 -0.6442 -1.0936  1.3030
  288TIP3    H2  871   5.830   4.154   1.619 -2.2335  1.8520 -0.0701
  289TIP3   OH2  872   4.265   2.104   1.776 -0.0563 -0.4208  0.0249
  289TIP3    H1  873   4.319   2.124   1.700 -0.8594  0.9442 -0.2052
  289TIP3    H2  874   4.217   2.185   1.795 -1.5893 -1.4076  0.5732
  290TIP3   OH2  875   0.885   4.786   4.376 -0.2965 -0.3204  0.5010
  290TIP3    H1  876   0.868   4.871   4.335  0.4156  0.8949  2.5571
  290TIP3    H2  877   0.977   4.769   4.356 -0.6019 -0.9214 -0.4198
  291TIP3   OH2  878   5.166   5.051   3.126 -0.2758 -0.2603  0.5408
  291TIP3    H1  879   5.259   5.062   3.104 -0.6847  0.7695 -0.8370
  291TIP3    H2  880   5.160   4.962   3.161  0.8181 -1.3152 -1.7470
  292TIP3   OH2  881   4.637   0.663   4.353 -0.3015 -0.0095 -0.0536
  292TIP3    H1  882   4.600   0.721   4.286  0.0002  1.1753  0.7800
  292TIP3    H2  883   4.592   0.688   4.434  1.4912  0.6734  0.7654
  293TIP3   OH2  884   6.024   4.012   3.690  0.3767  0.0660 -0.9453
  293TIP3    H1  885   6.108   3.997   3.733  0.6013  0.6549 -1.1743
  293TIP3    H2  886   6.041   4.080   3.626 -0.0650 -0.4727 -1.6531
  294TIP3   OH2  887   1.811   4.505   5.125 -0.5293 -0.0184  0.0539
  294TIP3    H1  888   1.798   4.572   5.058  2.4216 -0.2536 -0.9215
  294TIP3    H2  889   1.801   4.422   5.078  1.7976 -0.1866 -0.2952
  295TIP3   OH2  890   2.137   5.535   4.383  1.1216 -0.4149  0.1913
  295TIP3    H1  891   2.167   5.625   4.372  0.8185 -0.5237 -1.7864
  295TIP3    H2  892   2.199   5.483   4.334  1.1330 -1.2797  1.0938
  296TIP3   OH2  893   2.453   2.821   3.601  0.3719  0.6234  0.3876
  296TIP3    H1  894   2.466   2.913   3.622  1.1452  0.6595 -0.2057
  296TIP3    H2  895   2.522   2.775   3.650  0.5420  0.4559 -0.0006
  297TIP3   OH2  896   0.341   1.061   4.826  0.0933  0.4483 -0.0599
  297TIP3    H1  897   0.258   1.049   4.779  0.0706 -2.9396  0.5768
  297TIP3    H2  898   0.318   1.116   4.901 -1.9738 -1.4319  0.8184
  298TIP3   OH2  899   1.058   3.894   3.817  0.1594  0.3452 -0.3224
  298TIP3    H1  900   1.093   3.808   3.838 -0.0525  0.2738 -0.2618
  298TIP3    H2  901   0.988   3.877   3.754 -2.2712  0.1207  2.2795
  299TIP3   OH2  902   4.411   4.112   4.644 -0.1931 -0.5658 -0.1066
  299TIP3    H1  903   4.418   4.173   4.718 -1.4290  0.0284 -0.4473
  299TIP3    H2  904   4.454   4.158   4.571  0.9626 -1.1220  0.2013
  300TIP3   OH2  905   1.330   3.763   4.619 -0.2909  0.3816 -0.1550
  300TIP3    H1  906   1.248   3.749   4.665  0.3083 -1.4978  0.4281
  300TIP3    H2  907   1.305   3.779   4.528 -1.2662 -2.5604 -0.5081
  301TIP3   OH2  908   5.338   1.194   0.226  0.7163  0.3419 -0.5405
  301TIP3    H1  909   5.326   1.134   0.300  3.0872  1.0385  0.4826
  301TIP3    H2  910   5.391   1.145   0.163  0.6719  0.5488 -0.7415
  302TIP3   OH2  911   5.462   4.233   4.751 -0.2767  0.1100  0.5890
  302TIP3    H1  912   5.523   4.307   4.744  0.4468 -0.5378 -0.1728
  302TIP3    H2  913   5.514   4.163   4.789 -0.6522 -0.3374  0.2898
  303TIP3   OH2  914   4.963   2.808   2.318 -0.4995 -0.4880 -0.1558
  303TIP3    H1  915   4.916   2.805   2.401 -1.7525  1.1868 -0.7565
  303TIP3    H2  916   4.920   2.743   2.263  0.3802 -1.6512  0.4926
  304TIP3   OH2  917   0.888   1.356   3.523  0.1011  0.1462  0.1329
  304TIP3    H1  918   0.863   1.365   3.615 -0.2952  0.1366  0.0267
  304TIP3    H2  919   0.866   1.266   3.500  0.4502  0.0677  0.1027
  305TIP3   OH2  920   5.166   1.414   3.621  0.1395  0.3026  0.2135
  305TIP3    H1  921   5.178   1.321   3.642  0.3695  0.4215  0.6225
  305TIP3    H2  922   5.188   1.459   3.702  0.0246  0.7161  0.0153
  306TIP3   OH2  923   3.998   4.255   3.184  0.3843 -0.1802  0.0171
  306TIP3    H1  924   4.082   4.287   3.215  0.8937 -2.1161  0.8134
  306TIP3    H2  925   4.015   4.224   3.095  0.5898 -0.7351  0.2411
  307TIP3   OH2  926   0.403   0.502   1.065  0.3913 -0.2497  0.4696
  307TIP3    H1  927   0.482   0.474   1.111 -0.8146 -0.7457  2.3566
  307TIP3    H2  928   0.368   0.422   1.026  1.1039  0.0743 -0.9101
  308TIP3   OH2  929   1.465   0.193   3.408  0.3604  0.4383  0.0523
  308TIP3    H1  930   1.451   0.276   3.452  0.3987  0.0199  0.8633
  308TIP3    H2  931   1.457   0.214   3.314  1.3438  1.5399  0.1940
  309TIP3   OH2  932   5.828   2.816   0.639 -0.4483 -0.4202  0.3998
  309TIP3    H1  933   5.785   2.827   0.724  0.0127 -0.2847  0.6144
  309TIP3    H2  934   5.757   2.789   0.580 -0.6578 -1.1357  0.9605
  310TIP3   OH2  935   2.729   2.679   0.146  0.1635 -0.0404  0.1067
  310TIP3    H1  936   2.707   2.651   0.235 -1.5743 -0.2781 -0.3652
  310TIP3    H2  937   2.797   2.618   0.118 -0.0566 -0.6692  0.8871
  311TIP3   OH2  938   0.225   3.233   3.806  0.0367  0.6133 -0.0955
  311TIP3    H1  939   0.305   3.255   3.759  0.8495  0.6577  1.2753
  311TIP3    H2  940   0.230   3.138   3.819 -1.1669  0.2607 -1.8099
  312TIP3   OH2  941   2.996   1.618   3.520  0.0202 -0.0345  0.2560
  312TIP3    H1  942   3.041   1.638   3.602 -1.1504 -1.3668  1.2891
  312TIP3    H2  943   3.046   1.547   3.481 -0.2289 -0.3783  0.5566
  313TIP3   OH2  944   0.553   0.978   2.784  0.4014 -0.9352 -0.2589
  313TIP3    H1  945   0.488   0.909   2.769  0.0338 -0.9077  1.1313
  313TIP3    H2  946   0.628   0.953   2.729 -1.1341 -0.3825 -2.8050
  314TIP3   OH2  947   5.818   2.527   0.691 -0.1516 -0.1897 -0.3495
  314TIP3    H1  948   5.779   2.471   0.624 -0.1839 -0.7202  0.1057
  314TIP3    H2  949   5.895   2.479   0.721 -0.0032  0.1540 -0.1753
  315TIP3   OH2  950   4.386   2.574   3.814 -0.4925  0.1704  0.1022
  315TIP3    H1  951   4.477   2.604   3.821 -0.1155 -0.5377 -1.4696
  315TIP3    H2  952   4.335   2.655   3.808  0.3198  0.6027 -1.8248
  316TIP3   OH2  953   0.277   5.756   3.993 -0.4551  0.1710  0.8026
  316TIP3    H1  954   0.215   5.824   3.965 -1.1830 -0.4583  0.8640
  316TIP3    H2  955   0.233   5.713   4.067 -0.2947 -0.8023  0.3380
  317TIP3   OH2  956   4.803   1.551   2.156  0.4505 -0.2258  0.6156
  317TIP3    H1  957   4.826   1.458   2.151  1.9359  0.1264  0.4874
  317TIP3    H2  958   4.865   1.594   2.097 -1.3315  0.6842 -0.6788
  318TIP3   OH2  959   3.743   5.556   2.130  0.4010  0.0703  0.0417
  318TIP3    H1  960   3.660   5.525   2.092  1.1796 -0.7650 -1.0178
  318TIP3    H2  961   3.735   5.535   2.223  0.0757 -1.5231 -0.3121
  319TIP3   OH2  962   1.275   2.611   4.805  0.1008  0.3872 -0.4572
  319TIP3    H1  963   1.321   2.670   4.865 -0.4024  2.2310 -1.7957
  319TIP3    H2  964   1.208   2.665   4.763 -1.0421 -1.3845 -1.0748
  320TIP3   OH2  965   0.463   3.218   0.253  0.7756  0.2252  0.4405
  320TIP3    H1  966   0.519   3.242   0.327 -0.9070 -1.4997  2.4358
  320TIP3    H2  967   0.483   3.127   0.236 -0.2404  0.0530  0.1000
  321TIP3   OH2  968   3.261   0.832   0.418  0.6988 -0.3484  0.1122
  321TIP3    H1  969   3.216   0.827   0.502  0.4034  2.9275  0.2837
  321TIP3    H2  970   3.339   0.777   0.429  1.0562  0.5381  2.8295
  322TIP3   OH2  971   5.240   0.315   4.714 -0.1765 -0.0988 -0.0989
  322TIP3    H1  972   5.291   0.276   4.642  0.6359 -0.4012  0.6287
  322TIP3    H2  973   5.152   0.325   4.678  0.1700 -0.4370 -1.0732
  323TIP3   OH2  974   2.995   0.672   1.749 -0.0353 -0.1797  0.3559
  323TIP3    H1  975   3.034   0.760   1.747 -1.6538  0.5714 -0.3130
  323TIP3    H2  976   3.070   0.613   1.750  1.1026  1.2074  1.2429
  324TIP3   OH2  977   3.501   1.530   1.962  0.2798 -0.0880 -0.0308
  324TIP3    H1  978   3.565   1.459   1.975 -0.0902 -0.3329  0.5161
  324TIP3    H2  979   3.419   1.485   1.940 -0.2923  0.0640  1.6069
  325TIP3   OH2  980   4.676   3.620   1.866 -0.7312  0.3053 -0.4365
  325TIP3    H1  981   4.645   3.652   1.951  0.8811  0.9429 -0.0545
  325TIP3    H2  982   4.596   3.607   1.815 -1.6953  0.5657  0.9410
  326TIP3   OH2  983   5.713   5.170   0.695  0.0250  0.5556 -0.7849
  326TIP3    H1  984   5.624   5.137   0.704  0.3817 -0.1833  0.3221
  326TIP3    H2  985   5.729   5.173   0.601 -0.6105 -0.8652 -0.9587
  327TIP3   OH2  986   2.909   5.953   1.914 -0.0263  0.2472  0.0916
  327TIP3    H1  987   2.873   5.868   1.888  2.3407 -1.0117  0.6606
  327TIP3    H2  988   2.981   5.968   1.854  0.9759  0.7542  1.3758
  328TIP3   OH2  989   0.088   1.318   2.523  0.1583 -0.2104  0.1705
  328TIP3    H1  990   0.136   1.354   2.597  0.7955 -1.1804  0.2442
  328TIP3    H2  991   0.002   1.359   2.528  1.0806  1.8785 -0.2201
  329TIP3   OH2  992   6.033   0.473   1.675 -0.2732  0.4093  0.6476
  329TIP3    H1  993   6.079   0.510   1.751  1.1318 -0.3845  0.2170
  329TIP3    H2  994   6.094   0.484   1.602 -0.5365 -1.1403  0.1510
  330TIP3   OH2  995   1.500   0.756   0.472  0.1096  0.1698 -0.5060
  330TIP3    H1  996   1.564   0.795   0.413  1.2772 -0.2152  0.4415
  330TIP3    H2  997   1.420   0.807   0.459 -0.0799 -0.6944 -3.2966
  331TIP3   OH2  998   0.766   0.675   0.610  0.9029 -0.2414 -0.0320
  331TIP3    H1  999   0.784   0.599   0.666  1.8386  0.0099  0.0241
  331TIP3    H2 1000   0.733   0.637   0.528 -0.2400 -0.6224  0.5850
  332TIP3   OH2 1001   4.179   1.586   1.783 -0.2077 -0.1714 -0.4109
  332TIP3    H1 1002   4.174   1.671   1.828  0.0638 -0.6409  0.5145
  332TIP3    H2 1003   4.237   1.603   1.708 -0.7727  0.6505 -0.6812
  333TIP3   OH2 1004   4.023   5.308   5.063 -0.0396 -0.4946 -0.1800
  333TIP3    H1 1005   3.931   5.327   5.083  0.1707 -0.9229  1.3876
  333TIP3    H2 1006   4.046   5.238   5.124  1.7756  0.7098  0.6134
  334TIP3   OH2 1007   3.466   3.128   3.706  0.0488  0.1552  0.0129
  334TIP3    H1 1008   3.502   3.171   3.783 -0.7090 -1.1941  1.1622
  334TIP3    H2 1009   3.422   3.198   3.657 -1.0854  0.7407  1.7800
  335TIP3   OH2 1010   3.631   0.598   4.598 -0.2185  0.3814 -0.1266
  335TIP3    H1 1011   3.570   0.541   4.645 -0.0170  0.4189  0.1810
  335TIP3    H2 1012   3.610   0.686   4.629  0.0079  0.3920 -0.0073
  336TIP3   OH2 1013   4.470   1.037   2.835  0.0648  0.1809 -0.4976
  336TIP3    H1 1014   4.518   0.955   2.833  1.2724  0.8719 -0.4698
  336TIP3    H2 1015   4.428   1.039   2.921  0.1117 -0.3445 -0.4609
  337TIP3   OH2 1016   2.104   0.928   4.747 -0.2102  0.7792  0.1172
  337TIP3    H1 1017   2.098   0.973   4.662  0.6506  1.8951  0.6328
  337TIP3    H2 1018   2.013   0.922   4.777 -0.5841 -0.0599 -1.0803
  338TIP3   OH2 1019   3.101   1.402   4.214  0.1593  0.0864 -0.2450
  338TIP3    H1 1020   3.129   1.453   4.138 -0.2457  0.2969 -0.2563
  338TIP3    H2 1021   3.006   1.407   4.212  0.0656 -1.5969 -0.8729
  339TIP3   OH2 1022   0.878   2.427   3.808 -0.6657  0.1202 -0.3437
  339TIP3    H1 1023   0.912   2.428   3.719  0.6522  0.4805  0.1448
  339TIP3    H2 1024   0.815   2.354   3.809  0.8381 -1.2508 -1.0226
  340TIP3   OH2 1025   4.103   1.371   3.986 -0.1097  0.4219  0.0588
  340TIP3    H1 1026   4.127   1.442   3.926 -2.1116  0.4472 -0.7797
  340TIP3    H2 1027   4.166   1.302   3.968 -0.1749  0.7422 -1.5011
  341TIP3   OH2 1028   5.311   3.928   2.216 -0.0890  0.3772  0.3515
  341TIP3    H1 1029   5.398   3.967   2.209 -0.4048  1.0756  0.2550
  341TIP3    H2 1030   5.312   3.880   2.299  0.3450  0.4736  0.4022
  342TIP3   OH2 1031   5.118   0.296   0.646  0.0141  0.1733 -0.2224
  342TIP3    H1 1032   5.191   0.352   0.672 -0.2419  0.5090 -0.2223
  342TIP3    H2 1033   5.043   0.354   0.645 -0.3491 -0.2720  0.2597
  343TIP3   OH2 1034   3.442   4.673   0.894 -0.2495  0.4795  0.6700
  343TIP3    H1 1035   3.502   4.737   0.932  0.6189  0.9718 -1.4057
  343TIP3    H2 1036   3.495   4.622   0.832 -1.0099 -2.0132  1.9178
  344TIP3   OH2 1037   6.096   5.449   4.728 -0.5625  0.0493 -0.0661
  344TIP3    H1 1038   6.051   5.481   4.650 -0.2896 -1.5065 -0.9163
  344TIP3    H2 1039   6.169   5.396   4.693 -0.1146 -0.2292  1.2449
  345TIP3   OH2 1040   3.463   4.679   1.522  0.1160 -0.1819 -0.7482
  345TIP3    H1 1041   3.548   4.640   1.543 -0.9285 -3.2111 -1.6974
  345TIP3    H2 1042   3.410   4.666   1.601  0.2618  1.0475 -0.4217
  346TIP3   OH2 1043   5.167   1.533   4.530 -0.5718 -0.2595  0.0209
  346TIP3    H1 1044   5.080   1.550   4.494 -0.1642  0.5111 -0.6445
  346TIP3    H2 1045   5.215   1.494   4.458  0.2109  1.1535 -0.2669
  347TIP3   OH2 1046   4.508   3.257   2.976 -0.4104  0.3389 -0.2592
  347TIP3    H1 1047   4.441   3.325   2.966 -1.6795 -0.8969 -0.5127
  347TIP3    H2 1048   4.563   3.266   2.898 -0.8039  0.8183 -0.4881
  348TIP3   OH2 1049   2.447   1.398   1.433 -0.2226 -0.2377 -0.2822
  348TIP3    H1 1050   2.352   1.388   1.443 -0.2406  0.3684  0.2994
  348TIP3    H2 1051   2.479   1.404   1.523  0.1900  0.9974 -0.4891
  349TIP3   OH2 1052   2.745   4.959   0.006 -0.5715  0.5271  0.0906
  349TIP3    H1 1053   2.734   4.905   0.084  1.4564 -0.1838 -0.0548
  349TIP3    H2 1054   2.686   4.921  -0.059 -1.0209  0.0781  0.7517
  350TIP3   OH2 1055   0.670   0.025   1.504  0.4022 -0.2446 -0.1185
  350TIP3    H1 1056   0.728  -0.001   1.433 -0.0275 -1.2923 -0.1149
  350TIP3    H2 1057   0.728   0.035   1.580  1.3438  3.7988 -1.1522
  351TIP3   OH2 1058   6.316   4.547   4.509  0.2653 -0.4275  0.0772
  351TIP3    H1 1059   6.350   4.606   4.576 -0.4354 -0.1628  0.2048
  351TIP3    H2 1060   6.282   4.605   4.441  1.6763 -0.6842 -0.8942
  352TIP3   OH2 1061   3.144   3.782   0.555  0.8521 -0.0263  0.6786
  352TIP3    H1 1062   3.190   3.836   0.619  1.3203  0.2581  0.1027
  352TIP3    H2 1063   3.195   3.791   0.475 -0.8341  1.2037 -0.3066
  353TIP3   OH2 1064   5.136   2.060   0.900  0.1917  0.1431 -0.2713
  353TIP3    H1 1065   5.229   2.082   0.895 -0.2224  1.9471 -0.6725
  353TIP3    H2 1066   5.092   2.130   0.852 -1.4821  0.0870  1.0920
  354TIP3   OH2 1067   3.856   4.632   2.037  0.2805  0.0041  0.6015
  354TIP3    H1 1068   3.874   4.703   2.098  0.1654 -0.7363  1.5156
  354TIP3    H2 1069   3.879   4.553   2.085  3.4930 -0.4873 -1.4339
  355TIP3   OH2 1070   2.034   5.721   3.266  0.1006  0.3998 -0.4230
  355TIP3    H1 1071   2.042   5.745   3.173  2.9153 -1.4074 -0.7597
  355TIP3    H2 1072   2.078   5.793   3.312  1.4769 -0.1814 -0.7834
  356TIP3   OH2 1073   6.215   3.975   1.274 -0.3738  0.1885 -0.3806
  356TIP3    H1 1074   6.137   4.017   1.238  0.4275  3.1082  0.9856
  356TIP3    H2 1075   6.186   3.939   1.358 -0.7027 -0.6485 -0.8415
  357TIP3   OH2 1076   3.447   4.133   4.227 -0.4445 -0.1748  0.0350
  357TIP3    H1 1077   3.491   4.061   4.182  0.7849 -0.1750  1.1681
  357TIP3    H2 1078   3.503   4.151   4.303 -1.4165  1.1150  0.4746
  358TIP3   OH2 1079   4.939   5.753   1.142 -0.3749 -0.2109 -0.3469
  358TIP3    H1 1080   4.982   5.810   1.206  2.1818 -0.1826 -1.9547
  358TIP3    H2 1081   4.939   5.666   1.182  2.1904 -0.4140 -0.6321
  359TIP3   OH2 1082   4.131   1.852   2.579 -0.0661  0.3062  0.1537
  359TIP3    H1 1083   4.081   1.859   2.661 -1.2163  0.5404 -0.5411
  359TIP3    H2 1084   4.170   1.765   2.582  1.0989  0.8366  1.5896
  360TIP3   OH2 1085   1.316   1.080   1.549  0.4575 -0.1645  0.2165
  360TIP3    H1 1086   1.339   1.167   1.517 -1.1687  1.0026  1.9830
  360TIP3    H2 1087   1.364   1.071   1.631 -0.7546 -0.1293  0.9599
  361TIP3   OH2 1088   0.488   5.612   3.218 -0.7163 -0.0940  0.1504
  361TIP3    H1 1089   0.458   5.703   3.213 -1.3762 -0.3477 -0.6768
  361TIP3    H2 1090   0.537   5.608   3.301  0.0664  1.2237 -0.2031
  362TIP3   OH2 1091   2.040   2.453   2.594 -0.1056  0.2061 -0.1866
  362TIP3    H1 1092   1.974   2.470   2.661  0.4046  0.2801  0.3028
  362TIP3    H2 1093   2.122   2.485   2.632  0.5418 -1.5349 -0.0499
  363TIP3   OH2 1094   3.376   0.180   0.124 -0.2429  0.1891  0.2336
  363TIP3    H1 1095   3.451   0.190   0.066 -0.2297  0.2188  0.2558
  363TIP3    H2 1096   3.334   0.266   0.125 -0.2848  0.1688  0.2105
  364TIP3   OH2 1097   6.095   0.447   2.203  0.3551 -0.6047 -0.3770
  364TIP3    H1 1098   6.139   0.489   2.130 -2.1465  0.9101 -1.1292
  364TIP3    H2 1099   6.011   0.418   2.168 -0.4314 -0.9098  1.6069
  365TIP3   OH2 1100   5.149   4.531   0.915 -0.2579  0.3993  0.5348
  365TIP3    H1 1101   5.105   4.452   0.946  0.5175  0.5384  2.1170
  365TIP3    H2 1102   5.125   4.599   0.978 -0.5606  1.3318 -0.5555
  366TIP3   OH2 1103   3.011   5.360   4.206 -0.1048 -0.3625 -0.1359
  366TIP3    H1 1104   3.090   5.348   4.259 -0.3915  0.2230  0.4361
  366TIP3    H2 1105   2.940   5.356   4.269 -0.6661 -2.3567 -0.8092
  367TIP3   OH2 1106   0.797   3.474   1.219  0.3865 -0.1569  0.3338
  367TIP3    H1 1107   0.842   3.440   1.142  0.5726  1.0884 -0.1290
  367TIP3    H2 1108   0.867   3.503   1.277  0.2153  1.2495 -0.1371
  368TIP3   OH2 1109   1.697   5.568   0.249 -0.1356 -0.3742  0.4489
  368TIP3    H1 1110   1.706   5.592   0.157 -2.9433 -0.0598  0.1715
  368TIP3    H2 1111   1.712   5.649   0.297  2.6360 -0.7965  0.4496
  369TIP3   OH2 1112   4.353   1.348   1.664 -0.5355  0.3651 -0.3116
  369TIP3    H1 1113   4.262   1.338   1.693 -0.4287 -3.5474 -0.8432
  369TIP3    H2 1114   4.404   1.298   1.728  1.0003  0.6542 -1.2740
  370TIP3   OH2 1115   3.230   2.462   3.691  0.2762 -0.1719 -0.2830
  370TIP3    H1 1116   3.143   2.500   3.676  0.8076  1.7850  1.1973
  370TIP3    H2 1117   3.241   2.467   3.786  2.1137 -0.1795 -0.4760
  371TIP3   OH2 1118   3.261   0.652   4.586 -0.3030  0.5980 -0.1270
  371TIP3    H1 1119   3.262   0.589   4.514 -1.0275 -0.5579  0.8303
  371TIP3    H2 1120   3.308   0.608   4.657  1.2997  2.1159 -0.1658
  372TIP3   OH2 1121   0.837   1.722   3.880  0.3455  0.4916  0.0671
  372TIP3    H1 1122   0.931   1.735   3.893  1.0167 -2.2849 -1.1552
  372TIP3    H2 1123   0.796   1.766   3.955  2.8031 -0.4382  2.1344
  373TIP3   OH2 1124   4.594   5.469   3.383  0.7725 -0.2193  0.4178
  373TIP3    H1 1125   4.575   5.381   3.415 -1.5559 -0.5565 -1.5818
  373TIP3    H2 1126   4.579   5.526   3.459 -0.6294 -1.3128  1.0138
  374TIP3   OH2 1127   3.288   1.937   1.360  0.0262  0.1798 -0.0342
  374TIP3    H1 1128   3.373   1.966   1.394  0.3674 -1.5771  0.7367
  374TIP3    H2 1129   3.300   1.844   1.343 -2.0074 -0.3151  0.9649
  375TIP3   OH2 1130   2.659   1.822   1.949 -0.4889  0.1438 -0.0314
  375TIP3    H1 1131   2.564   1.826   1.937 -0.6858 -0.6348  1.1692
  375TIP3    H2 1132   2.681   1.730   1.934  0.1160  0.3536 -0.4786
  376TIP3   OH2 1133   1.191   4.695   5.167  0.1327  0.7221  0.1200
  376TIP3    H1 1134   1.190   4.705   5.072  0.7218  2.3451  0.2411
  376TIP3    H2 1135   1.204   4.601   5.182  1.3867  0.6053 -1.4260
  377TIP3   OH2 1136   0.335   3.417   2.683 -0.3288  0.6974  0.6219
  377TIP3    H1 1137   0.277   3.392   2.755  0.2727  0.4646  1.0320
  377TIP3    H2 1138   0.386   3.491   2.717  0.6377 -0.0303  0.7889
  378TIP3   OH2 1139   0.313   1.189   1.226 -0.0897 -0.3642 -0.3835
  378TIP3    H1 1140   0.298   1.278   1.194  0.2549 -0.3140 -0.4041
  378TIP3    H2 1141   0.225   1.151   1.233 -0.3600  0.4606  1.0279
  379TIP3   OH2 1142   2.723   1.458   1.385 -0.2346 -0.0517 -0.6617
  379TIP3    H1 1143   2.629   1.444   1.398 -0.5656  1.6105 -1.0299
  379TIP3    H2 1144   2.762   1.371   1.395 -1.5404 -0.4588  1.6971
  380TIP3   OH2 1145   6.259   2.837   1.844  0.1258  0.0243 -0.7581
  380TIP3    H1 1146   6.298   2.752   1.824  2.0253  0.2845  1.3977
  380TIP3    H2 1147   6.332   2.890   1.876 -1.2125  2.1335 -0.9915
  381TIP3   OH2 1148   4.673   2.808   0.982  0.2793  0.3717  0.6884
  381TIP3    H1 1149   4.605   2.832   1.046 -1.4726  0.5359 -1.1182
  381TIP3    H2 1150   4.693   2.716   1.002 -1.3184 -0.0353  0.6002
  382TIP3   OH2 1151   3.720   2.650   3.166  0.0115 -0.4205  0.4460
  382TIP3    H1 1152   3.697   2.626   3.257 -0.0518 -0.1912  0.4900
  382TIP3    H2 1153   3.683   2.737   3.154 -0.6482 -0.7585 -0.0511
  383TIP3   OH2 1154   2.001   0.108   0.365  0.2813 -0.0831  0.3974
  383TIP3    H1 1155   2.096   0.123   0.366  0.5915 -1.8953  2.0144
  383TIP3    H2 1156   1.974   0.138   0.278  2.3800  0.1247 -0.2456
  384TIP3   OH2 1157   0.085   3.511   2.412 -0.1742  0.6864  0.2766
  384TIP3    H1 1158   0.163   3.457   2.407  1.1416  2.4554  0.8352
  384TIP3    H2 1159   0.112   3.596   2.378 -1.4543  1.7355  1.7312
  385TIP3   OH2 1160   6.357   0.441   0.481 -0.1226 -0.1034  0.4675
  385TIP3    H1 1161   6.294   0.382   0.523  0.0989 -0.5375  0.2016
  385TIP3    H2 1162   6.321   0.456   0.394 -0.4196  0.5442  0.6905
  386TIP3   OH2 1163   4.202   4.652   4.797  0.4731  0.5607 -0.4688
  386TIP3    H1 1164   4.123   4.666   4.745  1.1700  1.8158 -1.2311
  386TIP3    H2 1165   4.271   4.639   4.733  0.7782 -1.4623  0.1875
  387TIP3   OH2 1166   5.556   0.066   3.248 -0.2956 -0.4336 -0.0206
  387TIP3    H1 1167   5.475   0.032   3.286 -0.9034  0.9654  0.0035
  387TIP3    H2 1168   5.531   0.091   3.159 -0.0102  0.4713  0.1515
  388TIP3   OH2 1169   3.647   4.426   4.667 -0.3704 -0.0264 -0.0920
  388TIP3    H1 1170   3.615   4.450   4.754 -0.9809  0.3022 -0.3971
  388TIP3    H2 1171   3.706   4.498   4.643 -0.2584 -0.0800  0.0248
  389TIP3   OH2 1172   6.062   5.609   0.142 -0.0070  0.3037 -0.3324
  389TIP3    H1 1173   6.077   5.676   0.075 -1.5997  0.5288 -0.4946
  389TIP3    H2 1174   5.991   5.643   0.195  2.4872  1.0674  2.8147
  390TIP3   OH2 1175   5.356   1.736   0.454  0.0327  0.0346  0.1318
  390TIP3    H1 1176   5.335   1.829   0.452  1.0347  0.2660 -1.0902
  390TIP3    H2 1177   5.325   1.706   0.540  1.1313  1.8283  1.2113
  391TIP3   OH2 1178   1.967   2.609   3.292  0.0621 -0.0003 -0.3542
  391TIP3    H1 1179   1.931   2.693   3.264 -0.8633  0.4817  2.0900
  391TIP3    H2 1180   2.055   2.630   3.324  0.4975 -0.2809 -1.3302
  392TIP3   OH2 1181   4.578   4.298   2.695 -0.1141  0.2241  0.1106
  392TIP3    H1 1182   4.518   4.369   2.716 -0.6564  0.2735 -1.4761
  392TIP3    H2 1183   4.590   4.251   2.778 -1.2176  1.0480  0.7613
  393TIP3   OH2 1184   4.743   3.876   2.634  0.2340  0.3125 -0.7390
  393TIP3    H1 1185   4.667   3.917   2.592 -0.1295 -0.6169 -1.0029
  393TIP3    H2 1186   4.813   3.884   2.569  0.0500  0.1365 -0.9622
  394TIP3   OH2 1187   6.211   5.594   4.134  0.9921  0.0202  0.1804
  394TIP3    H1 1188   6.223   5.681   4.095  1.2251  1.0807  2.5028
  394TIP3    H2 1189   6.297   5.570   4.167  1.0177 -1.3083 -0.7532
  395TIP3   OH2 1190   4.680   5.842   3.764 -0.3770 -0.1807  0.2824
  395TIP3    H1 1191   4.677   5.936   3.782  0.8646 -0.2524  0.9991
  395TIP3    H2 1192   4.773   5.823   3.752 -0.7567 -0.9409 -2.0236
  396TIP3   OH2 1193   5.611   4.271   0.356  0.3241  0.3467 -0.1313
  396TIP3    H1 1194   5.552   4.344   0.337 -1.0045 -0.6726 -0.0984
  396TIP3    H2 1195   5.631   4.280   0.449  1.5953  1.6455 -0.5043
  397TIP3   OH2 1196   3.620   2.869   1.243  0.5909  0.5032 -0.4059
  397TIP3    H1 1197   3.712   2.871   1.269  0.8894 -2.1852 -0.9281
  397TIP3    H2 1198   3.617   2.923   1.164  2.1445 -0.7663 -1.3982
  398TIP3   OH2 1199   0.650   0.447   1.158 -0.2843  0.6929 -0.1335
  398TIP3    H1 1200   0.744   0.463   1.152  0.0810 -1.0825  0.2331
  398TIP3    H2 1201   0.643   0.354   1.180 -2.0990  1.0188  0.8981
  399TIP3   OH2 1202   1.137   0.411   4.486 -0.0808 -0.0876 -0.4533
  399TIP3    H1 1203   1.214   0.427   4.432 -0.0242 -0.0541 -0.3627
  399TIP3    H2 1204   1.091   0.494   4.489 -0.5198 -0.2980 -1.1300
  400TIP3   OH2 1205   3.588   3.931   0.912  0.0857 -0.1207  0.5417
  400TIP3    H1 1206   3.500   3.927   0.949 -1.0175 -0.5608 -1.8829
  400TIP3    H2 1207   3.626   3.845   0.932  0.5260  0.5209  2.7189
  401TIP3   OH2 1208   5.606   4.592   1.830 -0.4622  0.1802 -0.3360
  401TIP3    H1 1209   5.623   4.502   1.803 -1.1649 -0.2589  0.6257
  401TIP3    H2 1210   5.554   4.584   1.910 -0.0642  1.4397  0.0771
  402TIP3   OH2 1211   3.065   2.634   2.218 -0.0857  0.6040  0.5065
  402TIP3    H1 1212   3.119   2.571   2.171  0.3870  1.6934 -0.4844
  402TIP3    H2 1213   3.099   2.634   2.307 -0.9331 -1.4407  0.8820
  403TIP3   OH2 1214   4.813   1.013   2.751  0.3312  0.6531  0.0379
  403TIP3    H1 1215   4.809   0.925   2.714  1.4833  0.9998 -0.9789
  403TIP3    H2 1216   4.810   1.000   2.846 -0.4354 -0.4144 -0.1254
  404TIP3   OH2 1217   3.286   1.164   5.076 -0.3644  0.4946  0.0433
  404TIP3    H1 1218   3.218   1.097   5.067 -0.1915  0.3266 -0.0024
  404TIP3    H2 1219   3.295   1.201   4.988  0.5068 -0.3583 -0.2446
  405TIP3   OH2 1220   2.557   2.335   0.553 -0.6539  0.1340  0.1763
  405TIP3    H1 1221   2.623   2.394   0.590 -0.7535  0.2587  0.1599
  405TIP3    H2 1222   2.585   2.320   0.463 -1.4238  1.3831 -0.3110
  406TIP3   OH2 1223   4.492   0.666   5.055 -0.3099 -0.6115 -0.1739
  406TIP3    H1 1224   4.579   0.629   5.045 -0.4621 -0.9456 -0.2620
  406TIP3    H2 1225   4.460   0.679   4.965  0.5675  1.7222 -0.2190
  407TIP3   OH2 1226   2.912   5.820   3.992  0.3396 -0.4889 -0.3793
  407TIP3    H1 1227   2.824   5.838   3.957  1.0009  1.2964 -1.2449
  407TIP3    H2 1228   2.896   5.788   4.081 -1.1900 -0.0898 -0.4800
  408TIP3   OH2 1229   5.035   5.871   2.394  0.4772 -0.4212 -0.1183
  408TIP3    H1 1230   5.107   5.883   2.332  1.0141  0.0736  0.5793
  408TIP3    H2 1231   5.068   5.807   2.457  0.4514  0.0855  0.4152
  409TIP3   OH2 1232   4.941   5.887   4.017 -0.1224 -0.0449 -0.0205
  409TIP3    H1 1233   4.931   5.860   3.925 -0.4957  0.6484 -0.1935
  409TIP3    H2 1234   5.026   5.853   4.043  0.3727  0.4957 -0.8930
  410TIP3   OH2 1235   1.216   0.198   0.539 -0.0273 -0.7349  0.1013
  410TIP3    H1 1236   1.179   0.225   0.456  0.9815 -2.8504 -1.1162
  410TIP3    H2 1237   1.303   0.165   0.518  0.3230 -1.2016  2.0234
  411TIP3   OH2 1238   1.959   0.150   2.423 -0.4449 -0.7882  0.5020
  411TIP3    H1 1239   1.988   0.170   2.512 -0.8566  0.8259  0.2912
  411TIP3    H2 1240   1.876   0.196   2.413  1.5553  2.7934 -2.1102
  412TIP3   OH2 1241   1.026   0.758   3.892  0.2879 -0.7063  0.0491
  412TIP3    H1 1242   0.954   0.714   3.846 -1.6023  1.2958  0.9221
  412TIP3    H2 1243   1.066   0.814   3.825 -0.8238  0.2853  0.1775
  413TIP3   OH2 1244   1.432   4.725   3.293 -0.0597  1.1309  0.1784
  413TIP3    H1 1245   1.475   4.658   3.345  0.0761  0.7460 -0.4195
  413TIP3    H2 1246   1.363   4.679   3.247 -0.1008  1.4435 -0.0754
  414TIP3   OH2 1247   3.490   4.748   2.919  0.1832 -0.4932  0.0599
  414TIP3    H1 1248   3.417   4.713   2.867  1.2670  0.1408 -1.9909
  414TIP3    H2 1249   3.478   4.843   2.917 -0.1703 -0.4808  1.6623
  415TIP3   OH2 1250   0.142   2.255   2.576 -0.1322 -0.0517 -0.5378
  415TIP3    H1 1251   0.087   2.204   2.516  0.7293 -2.7342  0.8446
  415TIP3    H2 1252   0.218   2.200   2.592  0.2088  1.0581  2.1404
  416TIP3   OH2 1253   4.344   2.741   1.984 -0.1316 -0.0863 -0.0775
  416TIP3    H1 1254   4.412   2.674   1.978  0.2022  0.3213 -1.3339
  416TIP3    H2 1255   4.373   2.799   2.055  3.0248  2.3089 -2.9211
  417TIP3   OH2 1256   2.364   0.093   3.587 -0.4523  0.1707 -0.5433
  417TIP3    H1 1257   2.459   0.098   3.585 -0.3563 -1.3941 -1.2373
  417TIP3    H2 1258   2.341   0.092   3.680  0.3072 -0.7420 -0.3549
  418TIP3   OH2 1259   1.973   5.162   0.455 -0.2801 -0.0331 -0.0636
  418TIP3    H1 1260   1.924   5.080   0.441 -0.7062 -0.1928  2.1335
  418TIP3    H2 1261   1.953   5.187   0.545  2.2189  0.9133  0.2873
  419TIP3   OH2 1262   0.295   2.377   4.068 -0.0561  0.1199  0.1051
  419TIP3    H1 1263   0.312   2.471   4.075  0.1764 -0.0207  1.6627
  419TIP3    H2 1264   0.355   2.347   4.000 -0.3869  1.1419 -0.6740
  420TIP3   OH2 1265   2.924   1.626   1.664 -0.3615  0.1417 -0.1581
  420TIP3    H1 1266   3.012   1.641   1.632  0.0575 -1.2292  0.2779
  420TIP3    H2 1267   2.867   1.656   1.593  0.4210  1.3051 -0.3280
  421TIP3   OH2 1268   5.816   0.535   0.882 -0.0213 -0.8845 -0.0282
  421TIP3    H1 1269   5.830   0.484   0.961 -2.4643 -0.6659  0.6056
  421TIP3    H2 1270   5.889   0.598   0.880  1.6574 -2.7335  0.4601
  422TIP3   OH2 1271   6.209   0.655   3.911  0.2674  0.2591  0.0619
  422TIP3    H1 1272   6.179   0.573   3.949  0.7781  0.2299  0.4138
  422TIP3    H2 1273   6.168   0.723   3.966 -0.4577  0.2561 -0.4582
  423TIP3   OH2 1274   5.735   5.292   0.427  0.7231  0.3238 -0.2773
  423TIP3    H1 1275   5.814   5.319   0.474  1.0525 -1.1004  0.0465
  423TIP3    H2 1276   5.670   5.358   0.449  0.8439 -0.2937  2.2669
  424TIP3   OH2 1277   0.718   1.314   1.925 -0.3234  0.5015  0.2987
  424TIP3    H1 1278   0.675   1.229   1.915  1.2079 -0.4574  1.4297
  424TIP3    H2 1279   0.662   1.360   1.988 -0.5678 -0.1056  0.5394
  425TIP3   OH2 1280   1.064   3.703   4.677 -0.2577  0.2094  0.1018
  425TIP3    H1 1281   1.068   3.680   4.770 -1.1362  1.2486  0.4143
  425TIP3    H2 1282   1.009   3.636   4.638 -1.3510  0.7439  0.6770
  426TIP3   OH2 1283   5.215   5.494   3.826  0.9022 -0.1295  0.2218
  426TIP3    H1 1284   5.271   5.565   3.855 -1.0093  1.8928 -0.6805
  426TIP3    H2 1285   5.260   5.457   3.750  1.7343  0.3837  0.4533
  427TIP3   OH2 1286   4.631   1.153   1.755 -0.3457  0.6236 -0.6259
  427TIP3    H1 1287   4.614   1.178   1.664 -0.5707  0.2503 -0.6844
  427TIP3    H2 1288   4.553   1.183   1.803  0.1310  1.5616 -0.4200
  428TIP3   OH2 1289   2.396   3.542   4.382  0.1074  1.0311  0.1234
  428TIP3    H1 1290   2.315   3.496   4.360  1.3306  0.3213 -3.7006
  428TIP3    H2 1291   2.461   3.473   4.391  0.7803  1.7116  0.5935
  429TIP3   OH2 1292   2.917   0.293   1.631  0.0727  0.2172  0.3178
  429TIP3    H1 1293   2.934   0.372   1.579  1.2056  1.2261  2.1207
  429TIP3    H2 1294   2.867   0.324   1.707 -0.5060 -1.0203  0.4757
  430TIP3   OH2 1295   2.779   2.955   3.812  0.1974  0.3534 -0.1226
  430TIP3    H1 1296   2.870   2.927   3.816  0.3956  1.1199  2.2018
  430TIP3    H2 1297   2.782   3.049   3.826 -0.9409  0.4528 -0.4178
  431TIP3   OH2 1298   3.797   1.797   2.422 -0.5513  0.4353 -0.5572
  431TIP3    H1 1299   3.832   1.753   2.345 -0.7992 -0.9889  0.1170
  431TIP3    H2 1300   3.868   1.793   2.487 -1.6114 -1.9144  0.5999
  432TIP3   OH2 1301   5.014   2.818   4.814 -0.2117  0.3180  0.6142
  432TIP3    H1 1302   5.018   2.848   4.905  1.4736  0.7683  0.4275
  432TIP3    H2 1303   5.088   2.862   4.771  0.1412 -1.2951 -0.5354
  433TIP3   OH2 1304   4.222   5.257   1.613  0.0774 -0.3455 -0.2785
  433TIP3    H1 1305   4.302   5.223   1.574 -0.3058 -2.4771  0.6842
  433TIP3    H2 1306   4.246   5.278   1.704 -0.7481 -2.3942  0.4577
  434TIP3   OH2 1307   2.228   1.292   2.692 -0.5317 -0.0610 -0.5310
  434TIP3    H1 1308   2.260   1.244   2.616 -0.6566  1.3800 -1.5351
  434TIP3    H2 1309   2.133   1.286   2.686 -0.5512  0.4369 -0.7529
  435TIP3   OH2 1310   2.460   1.898   3.464  0.1709  0.2882 -0.0737
  435TIP3    H1 1311   2.370   1.924   3.480  0.0463 -0.0447 -0.2314
  435TIP3    H2 1312   2.460   1.803   3.472  0.3207  0.2035 -0.9540
  436TIP3   OH2 1313   1.308   2.852   3.855 -0.3537 -0.5941  0.1685
  436TIP3    H1 1314   1.250   2.927   3.871  1.3103  0.7400  0.1052
  436TIP3    H2 1315   1.311   2.843   3.760  1.4299  0.9300  0.0250
  437TIP3   OH2 1316   1.950   0.497   4.486 -0.3539  0.3048 -0.2893
  437TIP3    H1 1317   1.912   0.464   4.404 -0.4555  0.3812 -0.2726
  437TIP3    H2 1318   1.878   0.493   4.549 -0.5896  1.3367 -0.4897
  438TIP3   OH2 1319   5.784   4.624   2.132  0.1935  0.1048 -0.0296
  438TIP3    H1 1320   5.695   4.589   2.142  1.3912 -2.4602  4.0596
  438TIP3    H2 1321   5.827   4.563   2.072 -0.2115  0.0662 -0.2841
  439TIP3   OH2 1322   6.074   1.643   4.900 -0.0615 -0.3662  0.2854
  439TIP3    H1 1323   6.030   1.567   4.937 -0.2304 -0.0649  0.7018
  439TIP3    H2 1324   6.106   1.692   4.975 -0.5329  0.3297  0.0432
  440TIP3   OH2 1325   6.288   4.900   1.070 -0.6325  0.1727 -0.0450
  440TIP3    H1 1326   6.250   4.988   1.071 -2.5270 -0.6003  0.3089
  440TIP3    H2 1327   6.237   4.851   1.135 -0.5257 -1.5323 -1.1861
  441TIP3   OH2 1328   5.009   2.664   3.384  0.1624  0.0659 -0.5710
  441TIP3    H1 1329   4.934   2.706   3.425  0.3458 -0.4358  0.2965
  441TIP3    H2 1330   4.999   2.683   3.290 -1.0240  0.0107 -0.4623
  442TIP3   OH2 1331   4.596   3.381   3.509 -0.1491  0.1621 -0.0665
  442TIP3    H1 1332   4.564   3.326   3.582  1.5265  0.4865  0.9669
  442TIP3    H2 1333   4.609   3.319   3.437  2.1462 -0.9929  1.2171
  443TIP3   OH2 1334   2.909   2.311   4.901  0.0421 -0.0603  0.1223
  443TIP3    H1 1335   2.976   2.370   4.934 -0.8297  1.3017 -0.4317
  443TIP3    H2 1336   2.923   2.229   4.948  0.0500  1.1882  2.4250
  444TIP3   OH2 1337   1.343   0.526   3.809  0.0820 -0.4136  0.1291
  444TIP3    H1 1338   1.432   0.550   3.835  0.2371 -0.4146 -0.3910
  444TIP3    H2 1339   1.297   0.513   3.892  0.7038 -0.9333  0.4091
  445TIP3   OH2 1340   4.447   4.648   5.158 -0.4152 -0.4855  0.5958
  445TIP3    H1 1341   4.427   4.563   5.198 -0.1422 -0.7709  0.1473
  445TIP3    H2 1342   4.362   4.681   5.128 -0.3263 -1.5168 -0.9712
  446TIP3   OH2 1343   1.639   4.178   4.285  0.5440 -0.4496  0.3291
  446TIP3    H1 1344   1.707   4.110   4.292  1.1156  0.0452 -0.2637
  446TIP3    H2 1345   1.557   4.129   4.278  0.8818 -1.0677  0.5584
  447TIP3   OH2 1346   4.495   0.459   3.997  0.1794  0.0643  0.2586
  447TIP3    H1 1347   4.559   0.389   4.011 -0.8760 -1.3446 -1.4888
  447TIP3    H2 1348   4.517   0.496   3.912 -2.0032 -1.3646 -1.0533
  448TIP3   OH2 1349   1.270   5.387   4.154 -0.0610  0.7193  0.0374
  448TIP3    H1 1350   1.319   5.469   4.145  0.9204  0.0966 -0.4081
  448TIP3    H2 1351   1.289   5.358   4.243 -0.9732  1.3035  0.4479
  449TIP3   OH2 1352   4.061   5.661   2.430 -0.0681 -0.4547  0.4133
  449TIP3    H1 1353   4.127   5.609   2.384  0.0142  1.0452 -1.2779
  449TIP3    H2 1354   3.980   5.645   2.381  0.2600  2.0869 -1.1347
  450TIP3   OH2 1355   3.104   1.142   1.533 -0.0600 -0.3741  0.0787
  450TIP3    H1 1356   3.038   1.133   1.602 -0.9394 -1.3461 -0.8607
  450TIP3    H2 1357   3.131   1.234   1.539 -1.7855  0.1729  0.2423
  451TIP3   OH2 1358   5.331   0.205   2.175  0.5108  0.5291  0.1509
  451TIP3    H1 1359   5.397   0.270   2.198  0.6268 -0.0642  1.5829
  451TIP3    H2 1360   5.250   0.238   2.213  0.1183  0.8491 -0.9066
  452TIP3   OH2 1361   2.771   5.100   5.114  0.4895 -0.2714 -0.1556
  452TIP3    H1 1362   2.786   5.144   5.031 -0.1548 -1.0777 -0.7232
  452TIP3    H2 1363   2.678   5.078   5.113  0.3084  0.3111  1.0909
  453TIP3   OH2 1364   1.887   1.912   0.573  0.4475  0.0911  0.1272
  453TIP3    H1 1365   1.811   1.952   0.531 -0.3899 -0.4644  1.0844
  453TIP3    H2 1366   1.953   1.908   0.503 -0.4714  0.3628 -0.7818
  454TIP3   OH2 1367   5.938   0.596   1.255  0.2207  0.2563 -0.4235
  454TIP3    H1 1368   5.917   0.686   1.282  1.2531 -0.1966  2.1267
  454TIP3    H2 1369   6.021   0.576   1.299 -0.8705 -2.5578  0.5834
  455TIP3   OH2 1370   5.633   4.006   4.624  0.0553 -0.3175 -0.0707
  455TIP3    H1 1371   5.687   4.070   4.577  0.2496  0.1000  0.6999
  455TIP3    H2 1372   5.674   3.922   4.605 -0.6076 -0.3143 -1.6568
  456TIP3   OH2 1373   4.185   3.299   1.529 -0.1182 -0.0045 -0.6002
  456TIP3    H1 1374   4.255   3.316   1.465  0.9396 -0.0626  0.5118
  456TIP3    H2 1375   4.230   3.294   1.613 -1.4767 -0.0353  0.1508
  457TIP3   OH2 1376   4.248   0.170   0.241  0.4540  0.0326  0.3270
  457TIP3    H1 1377   4.337   0.179   0.275  1.0596 -0.3832 -1.0539
  457TIP3    H2 1378   4.233   0.076   0.237 -0.4500  0.1035  1.4762
  458TIP3   OH2 1379   5.996   1.141   4.479 -0.3646  0.1060 -0.3847
  458TIP3    H1 1380   6.027   1.119   4.567 -0.0687 -1.8890 -0.9366
  458TIP3    H2 1381   5.914   1.188   4.494  0.5029  1.2628  0.9778
  459TIP3   OH2 1382   4.564   0.591   2.104  0.6232 -0.4743  0.5386
  459TIP3    H1 1383   4.553   0.651   2.030 -0.4127 -0.6307  0.5634
  459TIP3    H2 1384   4.646   0.546   2.085 -0.1956 -1.3592 -1.1129
  460TIP3   OH2 1385   2.152   2.576   1.694  0.3378  0.6060  0.2368
  460TIP3    H1 1386   2.150   2.618   1.780  1.3507  3.9463 -1.2252
  460TIP3    H2 1387   2.230   2.520   1.697  0.2301  0.4929  1.5254
  461TIP3   OH2 1388   3.561   5.489   1.625 -0.3682  0.3263 -0.7509
  461TIP3    H1 1389   3.561   5.584   1.642  0.0398  0.2801 -0.4773
  461TIP3    H2 1390   3.496   5.477   1.556 -0.3573  0.8200 -0.8512
  462TIP3   OH2 1391   1.171   4.509   2.886  0.3377  0.1532 -0.5233
  462TIP3    H1 1392   1.238   4.461   2.836 -0.7266 -0.3120 -1.5603
  462TIP3    H2 1393   1.105   4.443   2.906 -0.1932  0.7667 -0.2221
  463TIP3   OH2 1394   0.959   3.895   4.537 -0.1228  0.0930 -0.5328
  463TIP3    H1 1395   1.006   3.836   4.595  1.4538 -0.5263 -2.3276
  463TIP3    H2 1396   0.905   3.837   4.483 -0.0618  0.4616 -0.9975
  464TIP3   OH2 1397   5.927   2.182   0.028 -0.6919  0.4184 -0.3346
  464TIP3    H1 1398   5.900   2.092   0.045 -0.4702  0.0906 -1.6261
  464TIP3    H2 1399   5.850   2.224  -0.010 -1.1946  1.1533  1.3868
  465TIP3   OH2 1400   0.236   1.957   0.208  0.1971 -0.1176 -0.0769
  465TIP3    H1 1401   0.231   2.053   0.205 -0.4084 -0.1488 -0.2197
  465TIP3    H2 1402   0.324   1.937   0.175  1.1454  0.4676  1.9496
  466TIP3   OH2 1403   2.832   1.999   4.198 -0.1006 -0.1872 -0.1891
  466TIP3    H1 1404   2.831   1.909   4.231  2.7519  0.2735  1.4826
  466TIP3    H2 1405   2.747   2.035   4.226 -0.5738 -1.8278  0.6415
  467TIP3   OH2 1406   5.673   3.984   2.939  0.1198 -0.3860  0.2842
  467TIP3    H1 1407   5.652   3.975   3.032  1.7812 -1.3025  0.6161
  467TIP3    H2 1408   5.766   4.005   2.937  0.2618 -1.0186 -1.1823
  468TIP3   OH2 1409   4.882   2.565   4.805  0.0482  0.1859 -0.3581
  468TIP3    H1 1410   4.913   2.655   4.803 -0.6476  0.4470  0.2764
  468TIP3    H2 1411   4.826   2.557   4.727 -1.3955  0.8698  0.5782
  469TIP3   OH2 1412   4.933   0.822   0.114  0.3512  0.5002 -0.1164
  469TIP3    H1 1413   4.848   0.779   0.118  1.4242 -1.8717 -1.4013
  469TIP3    H2 1414   4.912   0.915   0.129 -1.9299 -0.4113  3.9810
  470TIP3   OH2 1415   6.072   5.941   2.767  0.5339 -0.6155  0.4171
  470TIP3    H1 1416   6.084   5.848   2.747  1.7882 -0.9677  2.5725
  470TIP3    H2 1417   6.047   5.943   2.859 -0.5866  1.1507  0.1312
  471TIP3   OH2 1418   2.087   0.325   3.874  0.2876  0.3604  0.4299
  471TIP3    H1 1419   2.156   0.392   3.876  2.1157 -1.4264  0.2692
  471TIP3    H2 1420   2.075   0.307   3.780  2.3213 -1.8756  0.4862
  472TIP3   OH2 1421   3.182   4.643   0.217 -0.0932  0.1445 -0.0474
  472TIP3    H1 1422   3.146   4.557   0.193 -0.8050  0.3254  0.3331
  472TIP3    H2 1423   3.106   4.692   0.248  0.4332  0.6689  0.4215
  473TIP3   OH2 1424   2.295   2.671   1.956 -0.3147  0.5721 -0.5322
  473TIP3    H1 1425   2.371   2.618   1.930 -0.2718  0.9130 -1.1203
  473TIP3    H2 1426   2.320   2.761   1.935 -0.5285  0.7922  0.1272
  474TIP3   OH2 1427   1.092   5.102   0.368 -0.0725 -0.4558 -0.2561
  474TIP3    H1 1428   1.086   5.153   0.287 -1.1979 -0.1625 -0.0059
  474TIP3    H2 1429   1.043   5.153   0.432  0.3703 -0.9436  0.4798
  475TIP3   OH2 1430   5.380   5.429   3.580  0.4355  0.3032 -0.7077
  475TIP3    H1 1431   5.351   5.381   3.503  2.3556 -1.8391 -0.2206
  475TIP3    H2 1432   5.447   5.490   3.547 -1.0393  1.7643 -1.1292
  476TIP3   OH2 1433   2.294   3.342   2.926 -0.4140 -0.2346  0.9347
  476TIP3    H1 1434   2.283   3.379   2.839 -0.8941  1.0317  1.5090
  476TIP3    H2 1435   2.351   3.404   2.971 -1.9481  0.3352  2.1998
  477TIP3   OH2 1436   2.025   0.452   2.217  0.4339  0.1823  0.6356
  477TIP3    H1 1437   2.096   0.491   2.166  0.6499  0.5201  1.1942
  477TIP3    H2 1438   2.014   0.510   2.292 -2.0597  1.5043 -0.6417
  478TIP3   OH2 1439   3.435   0.506   1.513 -0.0346  0.5020 -0.3050
  478TIP3    H1 1440   3.449   0.535   1.423  0.4590  0.2968 -0.2961
  478TIP3    H2 1441   3.505   0.444   1.530 -0.7870 -0.3330 -0.1540
  479TIP3   OH2 1442   2.261   4.886   3.628 -0.6614  0.1674 -0.1324
  479TIP3    H1 1443   2.323   4.813   3.632 -0.6267  0.2360  0.6473
  479TIP3    H2 1444   2.212   4.871   3.547  0.8642  0.5147 -1.1612
  480TIP3   OH2 1445   3.214   0.431   3.840 -0.1850 -0.4546 -0.2226
  480TIP3    H1 1446   3.277   0.456   3.773  0.7057 -1.8473  0.0588
  480TIP3    H2 1447   3.187   0.342   3.816 -0.0427 -0.8732  1.1030
  481TIP3   OH2 1448   0.874   3.709   4.038 -0.5318  0.2791 -0.2464
  481TIP3    H1 1449   0.860   3.662   3.955 -1.1003  3.1390 -1.9115
  481TIP3    H2 1450   0.787   3.721   4.074 -0.4259  0.3679 -0.0155
  482TIP3   OH2 1451   1.416   2.030   4.786  0.3370 -0.1261  0.2159
  482TIP3    H1 1452   1.347   2.053   4.848 -0.3060 -1.1747 -0.0842
  482TIP3    H2 1453   1.381   2.058   4.701  0.9416  0.7205  0.2314
  483TIP3   OH2 1454   5.090   3.982   4.169 -0.3899 -0.0893 -0.4311
  483TIP3    H1 1455   5.012   3.967   4.117 -1.0081  0.6569  0.2464
  483TIP3    H2 1456   5.107   3.898   4.212 -1.6228  0.0752  0.4455
  484TIP3   OH2 1457   2.957   0.534   0.768 -0.3545  0.0154 -0.1259
  484TIP3    H1 1458   2.997   0.582   0.841 -2.2090 -0.1371  1.0503
  484TIP3    H2 1459   2.864   0.554   0.774 -1.1523 -3.1989  0.0441
  485TIP3   OH2 1460   1.707   5.075   0.039 -0.4337 -0.1699 -0.0784
  485TIP3    H1 1461   1.703   5.169   0.055 -2.1909 -0.2173 -0.0399
  485TIP3    H2 1462   1.767   5.042   0.106 -0.8596  0.7427  0.7738
  486TIP3   OH2 1463   3.143   1.233   0.205 -0.4148 -0.0925  0.3900
  486TIP3    H1 1464   3.071   1.248   0.145 -2.0708 -1.8059  1.8212
  486TIP3    H2 1465   3.185   1.153   0.173 -0.0599  0.0897  0.3930
  487TIP3   OH2 1466   1.828   0.846   3.492 -0.4441 -0.0413  0.1027
  487TIP3    H1 1467   1.860   0.756   3.484 -0.9010 -0.2695  0.8015
  487TIP3    H2 1468   1.892   0.890   3.547 -1.1112 -0.3951  1.1777
  488TIP3   OH2 1469   1.661   4.350   3.733 -0.8531 -0.1140 -0.2220
  488TIP3    H1 1470   1.737   4.392   3.693  0.4591  0.4455  2.5755
  488TIP3    H2 1471   1.606   4.423   3.763 -1.0109 -0.4675  0.3731
  489TIP3   OH2 1472   4.604   4.166   4.294 -0.1050  0.2575  0.1923
  489TIP3    H1 1473   4.695   4.146   4.317 -0.2723 -2.2010 -0.8731
  489TIP3    H2 1474   4.609   4.202   4.205 -0.0914  1.6409  0.7316
  490TIP3   OH2 1475   3.726   3.327   3.591 -0.3216  0.1926  0.6772
  490TIP3    H1 1476   3.699   3.416   3.614 -2.2078 -0.1443 -0.0286
  490TIP3    H2 1477   3.773   3.337   3.508  0.3374  0.6374  1.1047
  491TIP3   OH2 1478   2.392   0.738   5.064  0.2796  0.1761  0.8344
  491TIP3    H1 1479   2.319   0.712   5.008  2.2859  0.1768 -1.9652
  491TIP3    H2 1480   2.453   0.782   5.005  1.8161  1.7150  3.3912
  492TIP3   OH2 1481   0.564   1.167   4.648 -0.0331  0.8497 -0.0770
  492TIP3    H1 1482   0.604   1.115   4.718 -0.0962 -0.7731 -1.1921
  492TIP3    H2 1483   0.474   1.180   4.677 -0.4281 -0.9182 -0.3873
  493TIP3   OH2 1484   0.337   4.806   4.897 -0.6114 -0.1788  0.0139
  493TIP3    H1 1485   0.340   4.749   4.974 -1.2962 -3.4629 -2.1798
  493TIP3    H2 1486   0.396   4.765   4.834 -0.4966  2.0831 -1.4749
  494TIP3   OH2 1487   3.350   5.744   3.572 -0.1329 -0.4407  0.0997
  494TIP3    H1 1488   3.445   5.748   3.580 -0.1588 -1.4030  1.1689
  494TIP3    H2 1489   3.322   5.688   3.644 -1.5904  0.4906  0.3117
  495TIP3   OH2 1490   0.122   4.351   5.022 -0.3112  0.2053 -0.0851
  495TIP3    H1 1491   0.129   4.295   4.945 -1.0210  1.6069 -1.2181
  495TIP3    H2 1492   0.040   4.324   5.064 -0.1938 -0.2015 -0.1141
  496TIP3   OH2 1493   0.685   3.527   1.683  0.3843 -0.4374 -0.1605
  496TIP3    H1 1494   0.720   3.557   1.767  0.1189  1.3552 -0.6434
  496TIP3    H2 1495   0.721   3.439   1.672 -0.9572 -1.4271  2.6113
  497TIP3   OH2 1496   0.440   0.491   3.646 -0.1846 -0.0604 -0.1265
  497TIP3    H1 1497   0.422   0.464   3.736  2.1927  0.3447  0.5388
  497TIP3    H2 1498   0.531   0.521   3.647 -0.1601  0.2032 -2.6185
  498TIP3   OH2 1499   0.534   3.280   1.828 -0.4113 -0.7333  0.1088
  498TIP3    H1 1500   0.521   3.373   1.808 -0.4269 -0.2787  2.0329
  498TIP3    H2 1501   0.575   3.245   1.749 -0.4654  0.8877 -0.6974
  499TIP3   OH2 1502   3.123   1.167   3.014  0.0385 -0.8443 -0.3113
  499TIP3    H1 1503   3.193   1.103   2.997  0.4500 -0.6590  0.6239
  499TIP3    H2 1504   3.147   1.243   2.961  0.9862 -0.4860  0.5971
  500TIP3   OH2 1505   0.555   1.262   2.801  0.1246 -0.2518 -0.3808
  500TIP3    H1 1506   0.467   1.291   2.775  1.1518  1.8984 -1.6940
  500TIP3    H2 1507   0.553   1.167   2.790 -1.4227 -0.0486 -2.4261
  501TIP3   OH2 1508   0.405   0.008   1.584 -0.3973 -0.0740  0.3121
  501TIP3    H1 1509   0.397   0.006   1.679 -1.2393  0.3861  0.2561
  501TIP3    H2 1510   0.499   0.021   1.568 -0.2940  0.1538  1.0835
  502TIP3   OH2 1511   0.803   5.997   3.695 -0.5092 -0.5433  0.6694
  502TIP3    H1 1512   0.774   6.016   3.605 -1.5578 -1.6997  0.7423
  502TIP3    H2 1513   0.801   5.902   3.701 -0.4079 -0.4729  1.9227
  503TIP3   OH2 1514   2.225   5.925   1.774  0.0942 -0.5338 -0.0869
  503TIP3    H1 1515   2.219   5.889   1.686 -2.7182 -1.8272  0.5118
  503TIP3    H2 1516   2.134   5.940   1.800  0.8080 -0.3158  2.6235
  504TIP3   OH2 1517   6.339   0.167   0.035 -0.0680  0.1943  0.1587
  504TIP3    H1 1518   6.247   0.146   0.051  0.4977 -1.6765  1.2653
  504TIP3    H2 1519   6.344   0.179  -0.060 -1.1770 -1.3062 -0.1368
  505TIP3   OH2 1520   5.237   5.210   1.334 -0.2697  0.2512  0.0603
  505TIP3    H1 1521   5.290   5.225   1.256  0.9042  0.5463  0.8825
  505TIP3    H2 1522   5.277   5.134   1.376 -1.4177 -0.4393 -0.0482
  506TIP3   OH2 1523   0.780   4.405   1.382 -0.1225 -0.1076  0.2567
  506TIP3    H1 1524   0.842   4.354   1.328 -0.7594 -0.4964 -0.1178
  506TIP3    H2 1525   0.756   4.346   1.453  1.4527  0.7278  1.5655
  507TIP3   OH2 1526   3.606   3.861   4.418 -0.1750  0.2836 -0.2263
  507TIP3    H1 1527   3.661   3.784   4.410  0.2467  0.7545 -2.6320
  507TIP3    H2 1528   3.528   3.831   4.464 -0.0710 -1.5931 -1.2122
  508TIP3   OH2 1529   5.233   2.961   0.788 -0.4158 -0.4847  0.0058
  508TIP3    H1 1530   5.147   2.993   0.762 -0.8359 -1.7016 -0.1786
  508TIP3    H2 1531   5.216   2.902   0.861  0.2382 -0.9058 -0.1725
  509TIP3   OH2 1532   3.276   4.430   2.083  0.1677 -0.5774  0.3762
  509TIP3    H1 1533   3.298   4.337   2.070  0.4389 -0.7800  2.1334
  509TIP3    H2 1534   3.354   4.477   2.054 -0.6854 -0.7109 -2.4836
  510TIP3   OH2 1535   1.435   4.080   3.356  0.0627 -0.4809 -0.2511
  510TIP3    H1 1536   1.512   4.123   3.392 -1.0398 -0.3602  2.1485
  510TIP3    H2 1537   1.434   3.994   3.398 -1.7575 -0.0028  0.7924
  511TIP3   OH2 1538   2.307   0.769   0.758  0.2130 -0.4170 -0.1031
  511TIP3    H1 1539   2.235   0.717   0.722  0.7444 -0.9403 -0.4147
  511TIP3    H2 1540   2.339   0.719   0.832  1.0764 -0.8123 -0.7290
  512TIP3   OH2 1541   1.726   5.916   0.947 -0.3669  0.0006 -1.0141
  512TIP3    H1 1542   1.808   5.870   0.961 -1.2555 -0.9304  2.0406
  512TIP3    H2 1543   1.751   6.003   0.916  1.7745 -0.2673 -0.1856
  513TIP3   OH2 1544   5.557   1.779   0.658 -0.6588  0.2975 -0.6690
  513TIP3    H1 1545   5.528   1.752   0.745 -2.6492 -0.2034 -1.4313
  513TIP3    H2 1546   5.516   1.716   0.598 -1.5311  2.1677 -2.1634
  514TIP3   OH2 1547   0.327   0.130   1.367  0.0077 -0.5542  0.1277
  514TIP3    H1 1548   0.264   0.058   1.374 -0.9459  0.4350  3.2228
  514TIP3    H2 1549   0.357   0.145   1.457  0.9611  2.2091 -0.5462
  515TIP3   OH2 1550   3.893   1.939   0.943  0.1645  0.4534  0.1232
  515TIP3    H1 1551   3.938   2.010   0.896 -2.1485  1.4376 -0.7549
  515TIP3    H2 1552   3.848   1.889   0.874 -0.9094  0.1442  1.0157
  516TIP3   OH2 1553   0.139   5.084   1.843  0.0371  0.4941  0.1888
  516TIP3    H1 1554   0.093   5.008   1.878 -0.5645  0.7012 -0.1321
  516TIP3    H2 1555   0.069   5.146   1.823  0.4868  0.9362 -0.0210
  517TIP3   OH2 1556   2.482   1.344   2.245 -0.2075 -0.2602 -0.5435
  517TIP3    H1 1557   2.434   1.360   2.164  0.9008  2.1178 -0.8212
  517TIP3    H2 1558   2.432   1.390   2.312 -0.7021 -1.5703  0.0142
  518TIP3   OH2 1559   4.923   1.251   1.003 -0.2375  0.2358  0.0032
  518TIP3    H1 1560   4.866   1.196   0.951 -0.9567  1.2197 -0.2738
  518TIP3    H2 1561   4.960   1.314   0.941  0.2298  0.3493  0.3860
  519TIP3   OH2 1562   1.258   3.790   4.345 -0.2479  0.4502  0.6669
  519TIP3    H1 1563   1.207   3.710   4.362  1.5706 -0.8361  0.3768
  519TIP3    H2 1564   1.224   3.822   4.261 -2.4140  1.2094  1.7556
  520TIP3   OH2 1565   3.856   5.609   4.925  0.1806  0.1728 -0.5358
  520TIP3    H1 1566   3.808   5.674   4.873 -0.6998  0.9869  1.2388
  520TIP3    H2 1567   3.928   5.659   4.964 -0.9732  0.3337  1.4971
  521TIP3   OH2 1568   3.066   4.369   0.972 -0.2735  0.2989 -0.0781
  521TIP3    H1 1569   3.088   4.282   1.005 -1.1495 -0.0557 -0.4000
  521TIP3    H2 1570   2.993   4.399   1.027  0.9401  1.4458  0.9673
  522TIP3   OH2 1571   1.710   2.317   2.913 -0.3358  0.2890 -0.1124
  522TIP3    H1 1572   1.758   2.315   2.996 -0.9260  0.0857  0.2319
  522TIP3    H2 1573   1.716   2.408   2.884 -0.2841  0.4027  0.2477
  523TIP3   OH2 1574   5.692   3.907   4.017  0.3168  0.0623 -0.2900
  523TIP3    H1 1575   5.639   3.944   4.088 -0.7321 -0.1753 -0.9259
  523TIP3    H2 1576   5.708   3.981   3.958  0.4826  0.0818 -0.2203
  524TIP3   OH2 1577   6.199   2.945   0.582 -0.5886 -0.4850  0.2033
  524TIP3    H1 1578   6.169   2.860   0.615  0.0493 -0.6809  0.3069
  524TIP3    H2 1579   6.154   2.956   0.498  2.8550 -3.2243 -2.3162
  525TIP3   OH2 1580   0.761   4.189   3.591 -0.4717 -0.4169  0.0935
  525TIP3    H1 1581   0.783   4.223   3.677 -1.4850 -0.1385  0.2513
  525TIP3    H2 1582   0.775   4.264   3.532 -2.3427  0.2090  0.3905
  526TIP3   OH2 1583   3.691   3.543   2.376 -0.3642 -0.5559 -0.1600
  526TIP3    H1 1584   3.751   3.491   2.324 -0.1658  0.5133 -1.0433
  526TIP3    H2 1585   3.743   3.570   2.452 -0.0442 -0.5034 -0.3952
  527TIP3   OH2 1586   1.692   3.148   4.072 -0.2200  0.0551 -0.1551
  527TIP3    H1 1587   1.720   3.172   4.160 -1.1685  0.0268  0.1729
  527TIP3    H2 1588   1.657   3.059   4.082  0.9984 -0.5284 -0.8605
  528TIP3   OH2 1589   1.576   5.867   3.733  0.6766  0.0363  0.2151
  528TIP3    H1 1590   1.525   5.881   3.813 -0.4432 -0.2517 -0.4116
  528TIP3    H2 1591   1.595   5.773   3.732  0.4190 -0.0164  0.0019
  529TIP3   OH2 1592   2.175   4.513   4.076  0.1353  0.2595 -0.1492
  529TIP3    H1 1593   2.082   4.499   4.061  0.1250  0.2832 -0.1088
  529TIP3    H2 1594   2.218   4.488   3.994  0.0539  0.6651 -0.3204
  530TIP3   OH2 1595   5.346   1.560   0.677 -0.4375  0.0871  0.3383
  530TIP3    H1 1596   5.357   1.519   0.763  1.5434  1.2940  0.7471
  530TIP3    H2 1597   5.297   1.497   0.626 -0.7328 -1.1354  2.0434
  531TIP3   OH2 1598   0.609   3.833   3.174  0.0769 -0.0202 -0.0129
  531TIP3    H1 1599   0.700   3.807   3.178  0.4869  1.0137 -1.4315
  531TIP3    H2 1600   0.605   3.914   3.224 -0.6172 -1.2924  2.1015
  532TIP3   OH2 1601   6.042   2.267   0.801 -0.1459  0.2946  0.1605
  532TIP3    H1 1602   6.098   2.210   0.747 -0.5651 -1.2882  1.3016
  532TIP3    H2 1603   6.053   2.233   0.890 -1.1818  1.4154  0.7438
  533TIP3   OH2 1604   4.698   5.534   3.145  0.3821  0.4862  0.1256
  533TIP3    H1 1605   4.785   5.571   3.157  0.3129  0.4294  0.8393
  533TIP3    H2 1606   4.668   5.514   3.233 -0.6974  1.3036 -0.0287
  534TIP3   OH2 1607   3.493   5.884   4.367 -0.7480  0.1869  0.7053
  534TIP3    H1 1608   3.484   5.875   4.272 -1.2541 -2.4704  0.9321
  534TIP3    H2 1609   3.464   5.973   4.385  2.2558  1.9039 -1.9228
  535TIP3   OH2 1610   4.715   3.662   3.274  0.1463 -0.0206  0.6033
  535TIP3    H1 1611   4.628   3.623   3.283 -0.2102 -0.0330 -2.1933
  535TIP3    H2 1612   4.699   3.749   3.236  1.2485  1.0155  2.3612
  536TIP3   OH2 1613   0.618   3.717   4.109  0.2616  0.5863 -0.6785
  536TIP3    H1 1614   0.527   3.707   4.137  0.6769  1.0631  0.9901
  536TIP3    H2 1615   0.613   3.733   4.015 -1.4427  1.5204 -0.4696
  537TIP3   OH2 1616   3.117   4.189   3.079 -0.2882 -0.6829  0.0382
  537TIP3    H1 1617   3.134   4.098   3.054  0.0759 -0.8643  0.8906
  537TIP3    H2 1618   3.062   4.182   3.157  0.2719 -0.1897  0.4858
  538TIP3   OH2 1619   1.319   1.775   3.265  0.8188 -0.6147 -1.0060
  538TIP3    H1 1620   1.400   1.813   3.297  0.8404  0.5664 -2.3380
  538TIP3    H2 1621   1.344   1.730   3.184  0.3764 -1.5032 -0.6673
  539TIP3   OH2 1622   2.482   2.453   3.047  0.5850  0.5250 -0.5350
  539TIP3    H1 1623   2.501   2.456   2.953 -0.3392 -2.0324 -0.8986
  539TIP3    H2 1624   2.554   2.401   3.083 -0.4301 -0.7922 -0.3227
  540TIP3   OH2 1625   1.322   4.067   2.651 -0.8880 -0.3347 -0.2259
  540TIP3    H1 1626   1.336   3.979   2.687 -2.0210 -0.0363  0.9960
  540TIP3    H2 1627   1.399   4.116   2.679 -0.6053 -0.7382 -0.2812
  541TIP3   OH2 1628   4.568   2.130   0.572 -0.4063 -0.2425  0.2054
  541TIP3    H1 1629   4.642   2.108   0.629 -0.2291 -0.7241 -0.2086
  541TIP3    H2 1630   4.513   2.052   0.572 -1.2942  0.3541  1.0777
  542TIP3   OH2 1631   1.358   5.182   2.339  0.1206 -0.1249 -0.7137
  542TIP3    H1 1632   1.281   5.163   2.392 -0.1228 -1.8328 -1.6042
  542TIP3    H2 1633   1.411   5.239   2.394 -0.6293 -0.9292  0.9292
  543TIP3   OH2 1634   2.628   4.526   3.989  0.1152  0.0501  0.1835
  543TIP3    H1 1635   2.613   4.434   4.009  0.0034 -0.0321 -0.2725
  543TIP3    H2 1636   2.644   4.528   3.894 -0.1455  0.5277  0.1432
  544TIP3   OH2 1637   6.233   4.263   2.575  0.3622  0.0191 -0.1761
  544TIP3    H1 1638   6.215   4.194   2.639 -1.7300  0.0481 -0.6415
  544TIP3    H2 1639   6.199   4.343   2.616 -1.6718 -0.0780 -1.5220
  545TIP3   OH2 1640   0.047   2.613   1.772 -0.2650  0.1511  0.3224
  545TIP3    H1 1641   0.039   2.518   1.783 -0.2062  0.3067  1.9238
  545TIP3    H2 1642   0.141   2.631   1.780  0.0639  0.1196 -2.4395
  546TIP3   OH2 1643   0.125   0.838   4.140 -0.3717 -0.1845  0.4910
  546TIP3    H1 1644   0.077   0.892   4.203 -1.6443 -3.3811  2.5784
  546TIP3    H2 1645   0.093   0.749   4.158  3.3967 -1.9895 -0.8891
  547TIP3   OH2 1646   1.719   1.776   2.187 -0.1861 -0.1278 -0.4235
  547TIP3    H1 1647   1.810   1.765   2.215 -0.3842 -1.0286 -0.1237
  547TIP3    H2 1648   1.667   1.748   2.262 -0.7402  1.7009 -0.0605
  548TIP3   OH2 1649   0.980   5.069   4.608 -0.2890  0.5397  0.1500
  548TIP3    H1 1650   0.929   5.022   4.675 -0.7305  1.8410  0.7515
  548TIP3    H2 1651   0.934   5.050   4.526  1.7022 -3.2422 -0.3385
  549TIP3   OH2 1652   0.854   0.266   1.649 -0.0486 -0.3483  0.7368
  549TIP3    H1 1653   0.875   0.233   1.737  0.4204 -1.4122  0.2484
  549TIP3    H2 1654   0.848   0.360   1.660  3.4655 -0.0479  1.2804
  550TIP3   OH2 1655   2.667   5.449   1.320 -0.1462 -0.5644  0.2802
  550TIP3    H1 1656   2.630   5.402   1.394 -0.0407 -1.0262  0.0437
  550TIP3    H2 1657   2.731   5.508   1.359 -0.5304 -0.3664  0.6110
  551TIP3   OH2 1658   1.923   1.191   4.775  0.4056  0.1234  0.1499
  551TIP3    H1 1659   1.852   1.236   4.729  0.7265  0.1088 -0.3765
  551TIP3    H2 1660   1.926   1.230   4.862 -0.7653 -0.4181  0.4532
  552TIP3   OH2 1661   0.597   3.225   2.590  0.1181 -0.2358  0.5351
  552TIP3    H1 1662   0.613   3.292   2.524 -1.5430  0.2012  0.5376
  552TIP3    H2 1663   0.588   3.144   2.540 -0.8008  0.0398  0.2332
  553TIP3   OH2 1664   1.245   5.978   4.332 -0.1146 -0.3771  0.6636
  553TIP3    H1 1665   1.322   5.925   4.317  0.2230  0.0519  0.8515
  553TIP3    H2 1666   1.174   5.915   4.346 -0.0289 -0.7708 -0.6354
  554TIP3   OH2 1667   4.512   1.496   2.066 -0.5795 -0.3717 -0.2878
  554TIP3    H1 1668   4.588   1.447   2.096 -0.5693 -0.5569 -0.6100
  554TIP3    H2 1669   4.478   1.539   2.145  0.8940  1.1471 -0.4185
  555TIP3   OH2 1670   5.440   2.891   2.521  0.7738  0.1438  0.1384
  555TIP3    H1 1671   5.367   2.830   2.511  0.4525  0.0376  2.5099
  555TIP3    H2 1672   5.430   2.952   2.448 -0.6812 -0.8592 -0.5600
  556TIP3   OH2 1673   1.936   0.246   4.091  0.3133 -0.6342 -0.6599
  556TIP3    H1 1674   1.852   0.224   4.051  0.1788  0.7408 -1.2064
  556TIP3    H2 1675   1.985   0.288   4.020  0.4321  0.9953  0.3232
  557TIP3   OH2 1676   0.218   1.115   1.563 -0.1702  0.2453  0.3425
  557TIP3    H1 1677   0.292   1.059   1.542 -0.2153  0.3934 -0.2293
  557TIP3    H2 1678   0.158   1.058   1.611 -0.4345 -0.3454 -0.6586
  558TIP3   OH2 1679   2.110   5.595   1.510 -0.3186 -0.6932 -0.2800
  558TIP3    H1 1680   2.186   5.543   1.481  1.7981  0.6867  2.3206
  558TIP3    H2 1681   2.082   5.552   1.591 -0.1638  0.7044  0.5347
  559TIP3   OH2 1682   3.000   0.935   0.091 -0.2343  0.1280  0.0799
  559TIP3    H1 1683   3.089   0.921   0.121 -0.6652  1.4360  2.1338
  559TIP3    H2 1684   3.007   0.934  -0.005  1.9433  0.0833  0.1897
  560TIP3   OH2 1685   6.092   4.436   0.637  0.1707 -0.0622  0.0856
  560TIP3    H1 1686   6.098   4.358   0.581 -0.3927  0.2108 -0.3584
  560TIP3    H2 1687   6.052   4.502   0.581 -0.7725  0.0967  0.9367
  561TIP3   OH2 1688   5.923   3.607   1.340  0.5926 -0.1951 -0.2372
  561TIP3    H1 1689   5.930   3.521   1.299 -1.6920 -0.9016  0.6680
  561TIP3    H2 1690   5.852   3.597   1.404 -0.1114  2.4909 -0.4620
  562TIP3   OH2 1691   4.740   0.816   4.677 -0.1803 -0.4794 -0.5137
  562TIP3    H1 1692   4.673   0.752   4.652 -0.1847 -0.4805 -0.4991
  562TIP3    H2 1693   4.756   0.866   4.597  0.0897 -0.7404 -0.6237
  563TIP3   OH2 1694   3.898   3.586   0.264  0.4656 -0.2728  0.3340
  563TIP3    H1 1695   3.865   3.601   0.352 -0.4794 -0.1457 -0.0284
  563TIP3    H2 1696   3.984   3.629   0.262  1.5740 -2.2399  1.8813
  564TIP3   OH2 1697   6.145   0.775   1.531  0.2058 -0.4365 -0.3168
  564TIP3    H1 1698   6.160   0.683   1.509 -1.2376 -1.0210  0.9271
  564TIP3    H2 1699   6.187   0.786   1.617  0.5682  0.1351 -0.5623
  565TIP3   OH2 1700   1.520   5.070   1.752 -0.2165 -0.2725  0.2904
  565TIP3    H1 1701   1.596   5.108   1.707  0.9889 -2.1953  0.6054
  565TIP3    H2 1702   1.544   5.070   1.845 -0.5508 -1.0312  0.3805
  566TIP3   OH2 1703   1.734   5.544   5.068 -0.7797  0.0629 -0.7531
  566TIP3    H1 1704   1.692   5.589   5.142  1.2023  0.3413  0.2812
  566TIP3    H2 1705   1.661   5.510   5.016 -2.2683  0.9887  0.6214
  567TIP3   OH2 1706   0.222   5.260   0.807  0.1691 -0.4726  0.2086
  567TIP3    H1 1707   0.253   5.183   0.854 -0.3488  0.4554  2.1863
  567TIP3    H2 1708   0.298   5.317   0.801  0.3146 -0.7238 -0.3969
  568TIP3   OH2 1709   1.977   3.401   4.632  0.6906 -0.3670  0.4179
  568TIP3    H1 1710   2.033   3.356   4.570  0.6147 -0.4155  0.3849
  568TIP3    H2 1711   1.908   3.339   4.653  0.6931 -0.3369  0.5200
  569TIP3   OH2 1712   2.469   3.290   1.482  0.2718 -0.1175 -0.3140
  569TIP3    H1 1713   2.401   3.357   1.482  0.9468  0.5718 -0.2655
  569TIP3    H2 1714   2.551   3.338   1.487  0.7227 -0.9984  1.9615
  570TIP3   OH2 1715   2.791   5.340   0.542  0.2546 -0.5836 -0.5323
  570TIP3    H1 1716   2.710   5.291   0.556 -0.5974 -0.0535 -3.0333
  570TIP3    H2 1717   2.763   5.428   0.518  1.6233 -0.0690 -0.3605
  571TIP3   OH2 1718   5.381   4.913   2.631  0.2526  0.8127  0.1944
  571TIP3    H1 1719   5.443   4.913   2.559 -0.4277  1.8989 -0.4225
  571TIP3    H2 1720   5.340   4.827   2.628  2.2283 -0.2416  1.1020
  572TIP3   OH2 1721   0.144   4.658   3.859  0.1582 -0.1033 -0.0889
  572TIP3    H1 1722   0.110   4.737   3.818  0.4248  0.7141  1.2279
  572TIP3    H2 1723   0.128   4.670   3.953  2.2649 -0.5744  0.3736
  573TIP3   OH2 1724   2.862   1.267   1.053 -0.1729 -0.2210 -0.7612
  573TIP3    H1 1725   2.775   1.294   1.083 -0.4501 -0.2793 -1.5037
  573TIP3    H2 1726   2.865   1.293   0.961  0.7469  0.1440 -0.6415
  574TIP3   OH2 1727   4.126   0.998   1.960 -0.0649  0.4175 -0.4409
  574TIP3    H1 1728   4.076   0.919   1.939 -0.8470  1.4620 -2.8517
  574TIP3    H2 1729   4.065   1.052   2.009 -0.1994  0.3273 -0.5078
  575TIP3   OH2 1730   5.139   4.729   4.215  0.0532 -0.1047 -0.1330
  575TIP3    H1 1731   5.148   4.673   4.292 -0.8910 -0.6177 -0.3818
  575TIP3    H2 1732   5.214   4.707   4.160 -0.7449 -1.7698 -0.6204
  576TIP3   OH2 1733   4.535   0.884   3.188  0.1464 -0.6422 -0.3533
  576TIP3    H1 1734   4.547   0.940   3.264  0.8778 -1.4831  0.1643
  576TIP3    H2 1735   4.446   0.849   3.198 -0.0725 -0.1017 -0.3406
  577TIP3   OH2 1736   3.659   0.980   1.740  0.5286 -0.1759  0.3535
  577TIP3    H1 1737   3.565   0.986   1.755  0.4439 -0.3259 -0.1120
  577TIP3    H2 1738   3.678   0.887   1.736  0.7417 -0.1509  0.7007
  578TIP3   OH2 1739   6.262   1.824   2.383  0.3211  0.2178  0.3394
  578TIP3    H1 1740   6.176   1.823   2.425  0.7072 -0.5322  1.1290
  578TIP3    H2 1741   6.245   1.794   2.294 -0.6190  2.4963 -0.3323
  579TIP3   OH2 1742   3.205   5.883   2.444  0.3342 -0.6259  0.0813
  579TIP3    H1 1743   3.161   5.805   2.409  0.4020 -0.3458 -0.6420
  579TIP3    H2 1744   3.245   5.925   2.367  0.0966  0.2547  0.4245
  580TIP3   OH2 1745   3.366   5.063   2.571  0.0925 -0.3255 -1.5109
  580TIP3    H1 1746   3.452   5.030   2.544  0.1524  0.3626 -2.1659
  580TIP3    H2 1747   3.378   5.157   2.579 -0.1428 -0.4154  0.1392
  581TIP3   OH2 1748   3.663   0.372   1.622 -0.3035 -0.1039  0.2622
  581TIP3    H1 1749   3.735   0.413   1.670  1.1495 -0.4989 -1.4582
  581TIP3    H2 1750   3.638   0.297   1.675  1.0815 -0.3954  0.5331
  582TIP3   OH2 1751   5.974   3.925   2.712 -0.1693  0.0488  0.1170
  582TIP3    H1 1752   5.952   3.841   2.673 -0.3947 -0.7716  1.9031
  582TIP3    H2 1753   6.060   3.948   2.676 -0.2050 -0.8296 -0.5412
  583TIP3   OH2 1754   4.786   0.179   3.764  0.7220  0.1764  0.0543
  583TIP3    H1 1755   4.834   0.205   3.685  0.9871  0.3766  0.2808
  583TIP3    H2 1756   4.694   0.179   3.738  0.8596 -0.4439 -0.4537
  584TIP3   OH2 1757   4.806   2.833   3.499 -0.2684  0.0292 -0.1626
  584TIP3    H1 1758   4.872   2.890   3.461 -1.3008  0.2611 -1.7058
  584TIP3    H2 1759   4.842   2.808   3.585  0.7718  1.9258 -0.0031
  585TIP3   OH2 1760   3.249   0.972   0.177  0.0027  0.3174 -0.2677
  585TIP3    H1 1761   3.258   0.940   0.266 -1.9159 -2.3655 -0.9216
  585TIP3    H2 1762   3.328   0.941   0.132 -1.0979 -2.3952 -0.5047
  586TIP3   OH2 1763   5.357   2.753   0.591  0.1475 -0.6989  0.2769
  586TIP3    H1 1764   5.285   2.712   0.542  1.1218 -1.1697 -0.8026
  586TIP3    H2 1765   5.313   2.803   0.660 -1.2856  0.0837 -1.1391
  587TIP3   OH2 1766   1.766   3.190   1.288  0.4795  0.3320  0.1908
  587TIP3    H1 1767   1.795   3.263   1.342  0.9298 -0.3812  0.9291
  587TIP3    H2 1768   1.800   3.211   1.201 -2.3111  2.7161 -0.5076
  588TIP3   OH2 1769   2.726   3.362   2.813  0.5498  0.9142  0.4310
  588TIP3    H1 1770   2.694   3.361   2.904  0.9606  2.8745  0.6358
  588TIP3    H2 1771   2.819   3.381   2.821  0.6299  0.8909 -0.4144
  589TIP3   OH2 1772   1.823   4.254   2.342  0.4419 -0.3055 -0.0787
  589TIP3    H1 1773   1.820   4.262   2.247 -0.7927  0.0420 -0.0268
  589TIP3    H2 1774   1.802   4.342   2.374  0.6630 -0.4634  0.5094
  590TIP3   OH2 1775   5.695   1.498   3.617  0.4814 -0.1353  0.6620
  590TIP3    H1 1776   5.707   1.407   3.592 -0.6163 -0.5322  1.5070
  590TIP3    H2 1777   5.631   1.532   3.554  0.7285  0.0026  0.4809
  591TIP3   OH2 1778   2.160   4.330   2.983  0.3320 -0.0469  0.0102
  591TIP3    H1 1779   2.240   4.363   3.023  0.0329 -0.9447  1.4037
  591TIP3    H2 1780   2.190   4.260   2.924  0.8357  1.7204 -1.9713
  592TIP3   OH2 1781   3.592   2.445   2.188 -0.4939  0.0603 -0.1587
  592TIP3    H1 1782   3.668   2.387   2.190  0.5106  1.3211  2.4258
  592TIP3    H2 1783   3.575   2.458   2.095  2.2201 -0.5664 -0.8271
  593TIP3   OH2 1784   1.671   3.147   4.345 -0.0380 -0.5293 -0.9473
  593TIP3    H1 1785   1.580   3.125   4.366 -0.0801 -0.8431 -1.4423
  593TIP3    H2 1786   1.678   3.240   4.365  0.1370 -0.9516  1.1590
  594TIP3   OH2 1787   4.065   4.634   2.393 -0.5402  0.2274 -0.2081
  594TIP3    H1 1788   4.003   4.600   2.328  0.6820 -0.0395 -1.2726
  594TIP3    H2 1789   4.016   4.631   2.475 -1.4267 -1.4558 -0.7358
  595TIP3   OH2 1790   4.867   1.768   0.707  0.4953 -0.3462 -0.4202
  595TIP3    H1 1791   4.854   1.716   0.628 -0.9682  0.5221 -0.7928
  595TIP3    H2 1792   4.815   1.847   0.692  0.1222 -0.1978  1.4359
  596TIP3   OH2 1793   3.145   3.241   1.836  0.3187  0.7275  0.3120
  596TIP3    H1 1794   3.194   3.282   1.907  0.6342  0.7942  0.0567
  596TIP3    H2 1795   3.138   3.309   1.769  0.8192  0.3812 -0.1004
  597TIP3   OH2 1796   0.226   0.172   0.526 -0.0096  0.2235  0.3594
  597TIP3    H1 1797   0.280   0.209   0.457 -1.3050 -0.1809 -0.9324
  597TIP3    H2 1798   0.151   0.231   0.532  0.1873  0.3834  1.6138
  598TIP3   OH2 1799   4.800   2.970   1.195 -0.3033  0.2057  0.6251
  598TIP3    H1 1800   4.860   2.895   1.197  0.8566  1.1139  0.9124
  598TIP3    H2 1801   4.720   2.937   1.237 -0.3278 -1.2672 -0.4786
  599TIP3   OH2 1802   4.902   2.542   0.103 -0.0371 -0.5185 -0.0303
  599TIP3    H1 1803   4.855   2.512   0.025 -0.5168  1.2151 -0.4366
  599TIP3    H2 1804   4.848   2.613   0.138  1.4122  0.3639  0.4899
  600TIP3   OH2 1805   2.287   1.836   5.174  0.2689  0.0785 -0.2847
  600TIP3    H1 1806   2.200   1.812   5.203 -0.8909  2.4895 -1.4476
  600TIP3    H2 1807   2.275   1.917   5.125  3.3043  1.0575  0.3399
  601TIP3   OH2 1808   1.158   0.921   4.833 -0.0555 -0.1875 -0.4246
  601TIP3    H1 1809   1.169   0.839   4.883  0.9384  0.3046  0.1999
  601TIP3    H2 1810   1.196   0.988   4.889  0.6979  0.4557 -1.6608
  602TIP3   OH2 1811   2.435   3.702   1.577  0.2932 -0.3291  0.3417
  602TIP3    H1 1812   2.525   3.690   1.607  0.7798 -1.0434 -1.2626
  602TIP3    H2 1813   2.435   3.786   1.532  0.1754 -0.3651  0.2733
  603TIP3   OH2 1814   1.459   0.220   3.827  0.2774 -0.3037  0.0520
  603TIP3    H1 1815   1.541   0.258   3.795  1.6402 -2.4260  0.8059
  603TIP3    H2 1816   1.469   0.216   3.922 -1.0069  0.0214  0.2214
  604TIP3   OH2 1817   3.331   2.735   3.445  0.0431 -0.0784  0.2352
  604TIP3    H1 1818   3.251   2.766   3.488  0.5158  1.6211 -0.0420
  604TIP3    H2 1819   3.302   2.659   3.394 -1.4826  0.6997 -0.1448
  605TIP3   OH2 1820   4.851   3.675   0.159  0.2091 -0.7650 -0.5491
  605TIP3    H1 1821   4.811   3.762   0.156  2.8084  0.6482  1.5154
  605TIP3    H2 1822   4.801   3.628   0.226  0.7004  0.2881  0.5911
  606TIP3   OH2 1823   1.870   4.280   4.975 -0.0247  0.3305 -0.0688
  606TIP3    H1 1824   1.948   4.225   4.978  0.5812  1.1221 -0.6661
  606TIP3    H2 1825   1.825   4.252   4.895 -0.4949 -0.2915  0.4015
  607TIP3   OH2 1826   4.577   0.318   0.712  0.0857  0.2189  0.3250
  607TIP3    H1 1827   4.565   0.317   0.807  1.7516  1.9970  0.6375
  607TIP3    H2 1828   4.495   0.354   0.678 -0.1419  0.5817  1.2040
  608TIP3   OH2 1829   3.919   0.570   2.786  0.4399 -0.0544 -0.2836
  608TIP3    H1 1830   3.996   0.612   2.824  0.2800 -1.0481  1.1998
  608TIP3    H2 1831   3.864   0.547   2.861 -2.4944  2.7488 -1.3115
  609TIP3   OH2 1832   0.169   0.768   0.083  0.3480 -0.1572  0.5508
  609TIP3    H1 1833   0.250   0.758   0.033  0.7549 -0.6602  1.2957
  609TIP3    H2 1834   0.105   0.717   0.033  0.9720 -1.4377  1.0146
  610TIP3   OH2 1835   5.019   3.925   2.478  0.1867  0.3346 -0.0790
  610TIP3    H1 1836   5.057   3.842   2.505  1.2521  0.9803  0.5062
  610TIP3    H2 1837   5.051   3.988   2.543 -0.2411  1.2752 -0.7544
  611TIP3   OH2 1838   5.000   1.247   4.894  0.3265  0.1145  0.1331
  611TIP3    H1 1839   4.990   1.152   4.891  0.8175  0.0289  0.9484
  611TIP3    H2 1840   4.937   1.276   4.960 -0.2084  0.4206 -0.5000
  612TIP3   OH2 1841   5.165   0.948   2.026  0.5813 -0.5066 -0.1988
  612TIP3    H1 1842   5.109   0.880   1.988  1.0670 -0.2852 -1.3671
  612TIP3    H2 1843   5.110   1.026   2.028  0.3998 -0.6385  0.0101
  613TIP3   OH2 1844   0.901   5.843   0.522  0.1540 -0.0476 -0.1799
  613TIP3    H1 1845   0.814   5.856   0.560  0.1676  0.6162 -0.3622
  613TIP3    H2 1846   0.959   5.897   0.576  0.4405 -0.3945 -0.1326
  614TIP3   OH2 1847   0.997   0.700   0.946 -0.4852 -0.7286  0.2704
  614TIP3    H1 1848   1.031   0.741   0.866  0.7554 -1.1317  0.5588
  614TIP3    H2 1849   0.962   0.616   0.916 -0.6681 -0.5703  0.0424
  615TIP3   OH2 1850   4.271   1.373   2.913  0.0392 -0.2837 -0.1404
  615TIP3    H1 1851   4.314   1.362   2.998  0.3803 -1.8665 -0.4988
  615TIP3    H2 1852   4.341   1.358   2.849 -0.5774 -0.7252 -0.7120
  616TIP3   OH2 1853   4.688   5.382   1.886 -0.0033  0.0917  0.2767
  616TIP3    H1 1854   4.694   5.293   1.851  0.2417  0.4043 -0.4982
  616TIP3    H2 1855   4.751   5.384   1.958 -2.1544 -1.2597  2.3450
  617TIP3   OH2 1856   5.026   1.766   3.704  0.2202  0.3618  0.5286
  617TIP3    H1 1857   5.080   1.824   3.757  2.1369 -1.4128  0.6210
  617TIP3    H2 1858   5.073   1.758   3.621  0.0173 -1.0573  0.5245
  618TIP3   OH2 1859   1.593   3.716   2.502  0.3957  0.0700  0.2506
  618TIP3    H1 1860   1.671   3.760   2.466  0.2346  0.3029  0.1824
  618TIP3    H2 1861   1.577   3.643   2.442  2.0950 -1.5765  1.6920
  619TIP3   OH2 1862   3.842   4.347   4.892 -0.5589 -0.3181 -0.0075
  619TIP3    H1 1863   3.852   4.279   4.959 -2.3263 -0.7135 -0.0990
  619TIP3    H2 1864   3.815   4.299   4.813 -1.8912  0.4721 -0.0583
  620TIP3   OH2 1865   6.078   4.889   3.325 -0.0321  0.1537 -0.1981
  620TIP3    H1 1866   6.021   4.864   3.252  0.6456  0.0129 -0.6934
  620TIP3    H2 1867   6.158   4.838   3.311 -0.2470 -0.5981  1.1846
  621TIP3   OH2 1868   3.680   4.525   3.665 -0.0922 -0.4227 -0.2227
  621TIP3    H1 1869   3.668   4.619   3.678  0.5376 -0.4697  0.8760
  621TIP3    H2 1870   3.705   4.492   3.752 -1.7804 -1.8595 -0.2239
  622TIP3   OH2 1871   5.765   2.131   3.415 -0.2690 -0.6313 -0.3263
  622TIP3    H1 1872   5.748   2.150   3.507 -1.1666 -0.6666 -0.4738
  622TIP3    H2 1873   5.697   2.068   3.391  0.4728 -1.2593 -0.7965
  623TIP3   OH2 1874   3.388   1.141   2.493 -0.1139 -0.0835  0.9293
  623TIP3    H1 1875   3.452   1.195   2.447 -0.9716  0.4311  0.2910
  623TIP3    H2 1876   3.426   1.053   2.494  0.5708  0.2022  0.5191
  624TIP3   OH2 1877   1.572   3.005   4.738  0.4360 -0.0032  0.0262
  624TIP3    H1 1878   1.566   3.028   4.831  0.6042 -0.2339  0.0963
  624TIP3    H2 1879   1.488   3.031   4.701  0.9781  1.6632 -0.1215
  625TIP3   OH2 1880   5.893   1.348   2.020  0.2449  0.1366 -0.1815
  625TIP3    H1 1881   5.933   1.344   2.107 -0.3037  0.4819  0.0895
  625TIP3    H2 1882   5.967   1.341   1.960  0.7161  0.7059  0.3122
  626TIP3   OH2 1883   0.559   2.638   1.587 -0.3740  0.5948 -0.0297
  626TIP3    H1 1884   0.649   2.662   1.567 -0.5778  0.6689 -0.8992
  626TIP3    H2 1885   0.565   2.587   1.668  0.5923 -0.4810 -0.7385
  627TIP3   OH2 1886   0.537   0.614   1.350  0.1573 -0.0691 -0.0326
  627TIP3    H1 1887   0.603   0.557   1.309 -0.7917 -0.8928 -0.4576
  627TIP3    H2 1888   0.462   0.610   1.290  0.5283  2.7570 -0.8174
  628TIP3   OH2 1889   3.559   3.228   4.264  0.1580 -0.0354 -0.7304
  628TIP3    H1 1890   3.593   3.284   4.333 -0.7601  1.1631 -1.2137
  628TIP3    H2 1891   3.511   3.159   4.311  0.0851  0.3969 -0.1634
  629TIP3   OH2 1892   4.370   3.831   5.173  0.1867 -0.0024 -0.2725
  629TIP3    H1 1893   4.382   3.924   5.155 -0.8390  0.0265 -0.9122
  629TIP3    H2 1894   4.275   3.817   5.168  0.2492 -0.9289  0.6119
  630TIP3   OH2 1895   1.445   3.705   1.150  0.1821  0.2221  0.2767
  630TIP3    H1 1896   1.423   3.615   1.175 -0.3911  0.2928  0.0499
  630TIP3    H2 1897   1.368   3.735   1.101 -0.4866  1.5135  2.0341
  631TIP3   OH2 1898   5.686   3.347   1.332 -0.4788  0.2523  0.6005
  631TIP3    H1 1899   5.694   3.285   1.260 -1.8477  0.2558  0.4277
  631TIP3    H2 1900   5.677   3.293   1.410  0.2772  0.2495  0.6938
  632TIP3   OH2 1901   1.521   1.922   4.469 -0.0800  0.2203 -0.1007
  632TIP3    H1 1902   1.446   1.970   4.504  0.0956  0.5478 -0.1708
  632TIP3    H2 1903   1.495   1.830   4.473 -0.0232  0.2449  0.9876
  633TIP3   OH2 1904   0.473   2.070   4.181  0.1157  0.4779  0.0208
  633TIP3    H1 1905   0.551   2.122   4.164 -0.4448  2.1247  2.0198
  633TIP3    H2 1906   0.463   2.071   4.276 -1.0796 -1.6341 -0.0147
  634TIP3   OH2 1907   4.308   1.359   1.004  0.2332  0.3211  0.1214
  634TIP3    H1 1908   4.259   1.365   0.923 -1.1292 -0.5340  0.8538
  634TIP3    H2 1909   4.250   1.395   1.071  2.0766  2.8990  0.4865
  635TIP3   OH2 1910   4.128   5.386   2.346 -0.1835  0.7679 -0.0058
  635TIP3    H1 1911   4.185   5.401   2.422 -0.0032  1.2599 -0.2408
  635TIP3    H2 1912   4.093   5.298   2.361  0.1094  0.7274  0.4818
  636TIP3   OH2 1913   5.596   3.432   0.341  0.1884 -0.1318 -0.2040
  636TIP3    H1 1914   5.512   3.474   0.324 -0.1722 -0.6908  0.1724
  636TIP3    H2 1915   5.575   3.339   0.352  1.0626 -0.5499 -1.7576
  637TIP3   OH2 1916   5.712   1.178   0.276 -0.3679 -0.2009  0.6001
  637TIP3    H1 1917   5.643   1.244   0.283 -1.1148 -0.9761  0.7506
  637TIP3    H2 1918   5.737   1.179   0.184  0.7056  1.3328  0.8696
  638TIP3   OH2 1919   2.854   1.956   0.790 -0.0480  0.3803  0.1590
  638TIP3    H1 1920   2.915   2.029   0.802 -0.8126  0.8742  1.1483
  638TIP3    H2 1921   2.844   1.949   0.695  0.5997  1.0793  0.0284
  639TIP3   OH2 1922   0.500   3.712   0.961  0.2337  0.4448  0.3292
  639TIP3    H1 1923   0.530   3.708   1.051  2.2546 -0.8679 -0.3288
  639TIP3    H2 1924   0.452   3.630   0.948 -0.5583  0.8975  0.3648
  640TIP3   OH2 1925   4.173   3.875   4.189 -0.2061  0.2719  0.0939
  640TIP3    H1 1926   4.119   3.846   4.261  0.9892 -0.6826  0.6355
  640TIP3    H2 1927   4.179   3.970   4.200 -0.3189  0.1748  1.0500
  641TIP3   OH2 1928   5.982   1.501   0.966 -0.0041 -0.0573  0.0359
  641TIP3    H1 1929   5.940   1.478   1.049 -0.4798 -0.9495 -0.4404
  641TIP3    H2 1930   6.026   1.585   0.984  0.3019 -0.4732  1.3193
  642TIP3   OH2 1931   2.389   2.876   0.950  0.2614  0.1851 -0.1858
  642TIP3    H1 1932   2.306   2.878   0.998  0.5201  1.1393  0.2582
  642TIP3    H2 1933   2.430   2.793   0.976 -1.6278 -1.5718 -2.3738
  643TIP3   OH2 1934   0.685   0.530   3.312  0.1130 -0.0606  0.2279
  643TIP3    H1 1935   0.691   0.437   3.335  1.5795  0.1781  0.9446
  643TIP3    H2 1936   0.594   0.554   3.332 -0.0576 -1.1410  0.8309
  644TIP3   OH2 1937   1.951   4.885   3.971 -0.8571 -0.1589 -0.2538
  644TIP3    H1 1938   1.875   4.942   3.977 -2.3919 -1.9975 -1.3499
  644TIP3    H2 1939   2.001   4.919   3.897 -0.9636  0.6349  0.0305
  645TIP3   OH2 1940   3.562   3.129   4.521  0.2603  0.3445 -0.2094
  645TIP3    H1 1941   3.510   3.166   4.592  1.6882  1.7047  0.1868
  645TIP3    H2 1942   3.588   3.043   4.553 -0.6400  0.1918  0.1326
  646TIP3   OH2 1943   4.442   3.877   3.445  0.0699 -0.7806 -0.3645
  646TIP3    H1 1944   4.482   3.811   3.501  0.0407 -0.0689  0.5004
  646TIP3    H2 1945   4.397   3.826   3.377  1.9701 -1.6011 -1.0737
  647TIP3   OH2 1946   5.981   0.442   4.545  0.0693 -0.6346  0.0157
  647TIP3    H1 1947   6.068   0.483   4.549  0.6465 -1.6300 -1.4623
  647TIP3    H2 1948   5.930   0.498   4.486 -0.0625 -0.4555  0.2985
  648TIP3   OH2 1949   4.939   5.915   0.320  0.3363  0.1042 -0.2253
  648TIP3    H1 1950   5.006   5.880   0.261 -0.1114  0.5145 -1.0013
  648TIP3    H2 1951   4.966   5.887   0.407  0.9447 -0.6333 -0.6408
  649TIP3   OH2 1952   0.623   2.943   1.163 -0.1820 -0.2817  0.1416
  649TIP3    H1 1953   0.548   2.993   1.130 -1.9857 -2.0140  1.3360
  649TIP3    H2 1954   0.588   2.855   1.177  2.4658 -1.5262 -0.4695
  650TIP3   OH2 1955   2.256   5.279   2.961  0.3541 -0.0621  0.2216
  650TIP3    H1 1956   2.298   5.242   2.883  1.1463 -0.6025  0.8826
  650TIP3    H2 1957   2.317   5.260   3.032 -0.1701  0.7774  0.9145
  651TIP3   OH2 1958   4.173   5.020   0.733 -0.0982 -0.3277 -0.5712
  651TIP3    H1 1959   4.218   5.068   0.802 -2.2772  0.7036  0.2091
  651TIP3    H2 1960   4.189   5.071   0.654 -0.0895  0.1376 -0.2710
  652TIP3   OH2 1961   2.742   5.123   1.586  0.1453  0.2058  0.0919
  652TIP3    H1 1962   2.770   5.089   1.501 -1.9709 -1.7623  0.0660
  652TIP3    H2 1963   2.679   5.192   1.564 -0.5763 -0.4582  0.0027
  653TIP3   OH2 1964   3.271   5.671   4.881  0.6925 -0.1079  0.2982
  653TIP3    H1 1965   3.282   5.729   4.805 -1.5450 -0.5360 -0.4252
  653TIP3    H2 1966   3.305   5.587   4.851  0.8633 -0.0030  0.1909
  654TIP3   OH2 1967   5.444   1.968   4.232 -0.2315 -0.1150  0.0959
  654TIP3    H1 1968   5.473   2.058   4.214  0.5745 -0.6389 -1.3534
  654TIP3    H2 1969   5.354   1.965   4.199 -0.7602  0.5094  1.3861
  655TIP3   OH2 1970   0.307   4.503   1.801 -0.3784  0.2157  0.1251
  655TIP3    H1 1971   0.278   4.427   1.751  1.4323  0.3310 -1.2068
  655TIP3    H2 1972   0.337   4.466   1.885 -0.7944 -0.3389  0.0392
  656TIP3   OH2 1973   0.937   3.367   4.789  0.6274 -0.5648  0.4617
  656TIP3    H1 1974   0.972   3.396   4.705  2.7177 -2.4828  0.5852
  656TIP3    H2 1975   0.983   3.286   4.808  0.2045 -0.2308  3.4682
  657TIP3   OH2 1976   0.933   4.379   4.529  0.7015  0.1011 -0.0640
  657TIP3    H1 1977   1.019   4.389   4.570  0.5977 -1.0939  0.4852
  657TIP3    H2 1978   0.909   4.288   4.546 -2.4870  1.3233  3.4309
  658TIP3   OH2 1979   2.648   4.004   4.951 -0.1758 -0.0586 -0.1086
  658TIP3    H1 1980   2.688   4.062   4.887 -0.1621  1.7350  1.4551
  658TIP3    H2 1981   2.561   4.041   4.968 -0.3505 -0.7422  0.6002
  659TIP3   OH2 1982   1.822   3.535   0.916  0.2475  0.2533 -0.1655
  659TIP3    H1 1983   1.890   3.602   0.906 -0.9548  1.7286  1.0294
  659TIP3    H2 1984   1.759   3.554   0.847  0.6155 -0.6030 -0.7573
  660TIP3   OH2 1985   3.211   2.594   4.409 -0.3350 -0.1396 -0.0690
  660TIP3    H1 1986   3.270   2.646   4.354  0.9592 -1.1680  0.2886
  660TIP3    H2 1987   3.220   2.505   4.375 -1.0232 -0.4587  0.5639
  661TIP3   OH2 1988   6.215   0.442   3.141  0.2911  0.1308  0.6724
  661TIP3    H1 1989   6.254   0.356   3.156 -1.0002 -0.4261  0.9325
  661TIP3    H2 1990   6.133   0.423   3.096 -1.5946  0.9533  3.5210
  662TIP3   OH2 1991   5.115   2.236   4.248  0.5103  0.0096 -0.2617
  662TIP3    H1 1992   5.174   2.308   4.267 -0.7120  1.0336 -0.2556
  662TIP3    H2 1993   5.137   2.169   4.313 -0.6923  1.7662  2.1013
  663TIP3   OH2 1994   2.892   1.184   0.487 -0.0866 -0.3320 -0.4395
  663TIP3    H1 1995   2.956   1.254   0.473 -1.7527  1.7247  1.4748
  663TIP3    H2 1996   2.877   1.148   0.400  0.9018  1.6514 -1.5013
  664TIP3   OH2 1997   5.599   1.216   3.081 -0.6392 -0.1591 -0.5942
  664TIP3    H1 1998   5.607   1.156   3.155 -1.9815  1.1158  0.6478
  664TIP3    H2 1999   5.537   1.174   3.022 -0.1478 -0.8323 -0.6387
  665TIP3   OH2 2000  -0.027   3.197   2.716 -0.0063 -0.3135  0.0105
  665TIP3    H1 2001   0.033   3.201   2.642  0.8643 -2.0927  0.5470
  665TIP3    H2 2002   0.024   3.229   2.790 -0.2435 -0.3172  0.1767
  666TIP3   OH2 2003   5.769   1.295   3.487 -0.7931 -0.7189  0.0931
  666TIP3    H1 2004   5.746   1.358   3.419  1.3021  1.2217  1.0384
  666TIP3    H2 2005   5.815   1.225   3.440  0.8131  0.6981 -0.5554
  667TIP3   OH2 2006   0.343   1.806   1.026  0.4648 -0.5431  0.0179
  667TIP3    H1 2007   0.424   1.784   0.980  0.7382 -0.0424  0.2441
  667TIP3    H2 2008   0.371   1.823   1.116 -0.1425 -2.1126  0.5429
  668TIP3   OH2 2009   3.588   2.275   3.916  0.2070 -0.2964 -0.4076
  668TIP3    H1 2010   3.617   2.213   3.982  0.8348  0.9699  0.5329
  668TIP3    H2 2011   3.522   2.329   3.960  0.0939  0.0969 -1.0311
  669TIP3   OH2 2012   3.688   0.855   4.364  0.3727  0.1496 -0.5489
  669TIP3    H1 2013   3.680   0.793   4.437  2.2838  2.0088  1.3950
  669TIP3    H2 2014   3.650   0.809   4.289  0.1583 -2.6635  1.1463
  670TIP3   OH2 2015   2.309   0.991   3.550  0.1252  0.0611 -0.1301
  670TIP3    H1 2016   2.281   1.066   3.499  0.6516  0.7438  0.5643
  670TIP3    H2 2017   2.383   0.955   3.503 -0.1681 -0.0657 -0.4981
  671TIP3   OH2 2018   5.195   3.745   0.339 -0.2763 -0.4954 -0.4486
  671TIP3    H1 2019   5.140   3.712   0.267  0.1829 -2.0680 -0.1214
  671TIP3    H2 2020   5.255   3.673   0.357  0.2967  0.2827  0.8271
  672TIP3   OH2 2021   5.291   3.048   2.735  0.1207  0.5003 -0.1000
  672TIP3    H1 2022   5.343   3.080   2.662 -1.0687 -1.3336 -1.8583
  672TIP3    H2 2023   5.201   3.055   2.706 -0.7046  2.8072  2.5439
  673TIP3   OH2 2024   4.363   0.647   4.811 -0.0122  0.4518 -0.4505
  673TIP3    H1 2025   4.323   0.720   4.763 -0.6372  1.8875  2.0819
  673TIP3    H2 2026   4.289   0.591   4.834  0.0472  0.6469  0.2315
  674TIP3   OH2 2027   1.326   0.564   0.557 -0.3669  0.1302  0.2062
  674TIP3    H1 2028   1.397   0.624   0.533  0.2648 -0.0605  1.4863
  674TIP3    H2 2029   1.371   0.485   0.587 -1.1842 -0.8125 -0.9624
  675TIP3   OH2 2030   1.256   5.936   2.148  0.4234 -0.1231  0.4565
  675TIP3    H1 2031   1.333   5.992   2.144 -0.2796  0.8437 -0.1707
  675TIP3    H2 2032   1.210   5.963   2.228  0.8761 -0.9106  0.9958
  676TIP3   OH2 2033   1.282   5.638   3.461 -0.1795 -0.3673  0.4098
  676TIP3    H1 2034   1.351   5.700   3.438  0.0156 -0.7807 -0.1297
  676TIP3    H2 2035   1.201   5.685   3.442 -0.0601  0.0741  0.9302
  677TIP3   OH2 2036   1.981   2.860   4.194  0.3581  0.1996  0.0149
  677TIP3    H1 2037   2.032   2.788   4.158  1.3827  0.6883  0.4520
  677TIP3    H2 2038   1.905   2.818   4.235  1.3097 -0.7173  0.9150
  678TIP3   OH2 2039   2.247   2.544   2.772  0.5481  0.4257  0.4462
  678TIP3    H1 2040   2.339   2.568   2.759  0.4121  0.0076 -1.7637
  678TIP3    H2 2041   2.249   2.450   2.789  0.4959  0.1845 -0.7738
  679TIP3   OH2 2042   5.186   5.750   1.644  0.0012 -0.2504  0.1193
  679TIP3    H1 2043   5.232   5.805   1.581  0.1827 -0.2519  0.2461
  679TIP3    H2 2044   5.231   5.665   1.639  0.9737  0.1626  1.2760
  680TIP3   OH2 2045   3.887   1.660   3.213 -0.0540  0.4497 -1.0939
  680TIP3    H1 2046   3.972   1.625   3.187 -0.2308 -0.9821  0.0862
  680TIP3    H2 2047   3.824   1.620   3.152 -0.1678 -0.7356 -0.2289
  681TIP3   OH2 2048   4.780   1.283   4.017  0.2532  0.3569  0.3646
  681TIP3    H1 2049   4.754   1.298   3.926 -1.0479 -1.8407  0.2893
  681TIP3    H2 2050   4.704   1.312   4.068  0.1804 -0.2073  0.5873
  682TIP3   OH2 2051   1.765   4.352   2.734 -0.4600 -0.1379  0.2641
  682TIP3    H1 2052   1.737   4.443   2.726  0.9330  0.2253 -0.8664
  682TIP3    H2 2053   1.796   4.345   2.825  1.8202  1.2881 -0.3057
  683TIP3   OH2 2054   4.333   1.612   1.261  0.4777 -0.9153 -0.2431
  683TIP3    H1 2055   4.356   1.524   1.290  0.8096 -1.1406 -1.1602
  683TIP3    H2 2056   4.243   1.624   1.291 -0.6426 -2.6925 -2.5518
  684TIP3   OH2 2057   2.898   4.173   0.547 -0.1687 -0.2038 -0.3515
  684TIP3    H1 2058   2.916   4.262   0.576  2.9843 -0.9639  0.3334
  684TIP3    H2 2059   2.887   4.180   0.452  1.3078  0.7899 -0.4711
  685TIP3   OH2 2060   2.221   3.183   3.803  0.4534  0.0599 -0.0980
  685TIP3    H1 2061   2.166   3.141   3.869 -0.3690 -0.7050 -1.2091
  685TIP3    H2 2062   2.248   3.266   3.842  0.3375 -0.5466  1.3349
  686TIP3   OH2 2063   0.857   2.697   1.059  0.0378  0.0404  0.1755
  686TIP3    H1 2064   0.767   2.686   1.089 -0.3921  1.4844 -0.5138
  686TIP3    H2 2065   0.851   2.699   0.964  0.6244  1.3251  0.1414
  687TIP3   OH2 2066   0.524   4.862   4.248  0.2402  0.2659  0.0589
  687TIP3    H1 2067   0.508   4.800   4.319  1.6256 -1.9267 -1.4261
  687TIP3    H2 2068   0.483   4.821   4.171  0.4527  1.6213 -0.8155
  688TIP3   OH2 2069   0.132   2.961   3.787  0.2527  0.2242 -0.0891
  688TIP3    H1 2070   0.049   3.004   3.768  0.1799  0.5465  0.8695
  688TIP3    H2 2071   0.108   2.883   3.837  0.5026  0.1399 -0.0984
  689TIP3   OH2 2072   5.286   1.463   2.549 -0.4662 -0.9590  0.4607
  689TIP3    H1 2073   5.242   1.403   2.488 -1.0555 -0.0468 -0.0402
  689TIP3    H2 2074   5.326   1.529   2.493  0.0846 -0.8169  1.0125
  690TIP3   OH2 2075   4.815   2.324   2.493  0.0304 -0.0490  0.1869
  690TIP3    H1 2076   4.835   2.231   2.498 -0.9890 -0.4757 -2.2406
  690TIP3    H2 2077   4.843   2.350   2.405 -2.7410  1.0912 -0.4675
  691TIP3   OH2 2078   1.756   4.637   4.823  0.3353 -0.5631  0.4578
  691TIP3    H1 2079   1.673   4.624   4.869 -1.0401  2.0954 -0.9931
  691TIP3    H2 2080   1.761   4.565   4.761 -2.5835  0.7957 -1.5822
  692TIP3   OH2 2081   5.233   0.118   0.892 -0.0992 -0.4211  0.9849
  692TIP3    H1 2082   5.178   0.168   0.831  0.7979  0.1965  0.6595
  692TIP3    H2 2083   5.212   0.155   0.978  0.0405  0.0440  0.8252
  693TIP3   OH2 2084   1.694   5.385   1.206  0.1579 -0.0202 -0.2459
  693TIP3    H1 2085   1.621   5.376   1.267 -1.5395 -5.0282 -2.4702
  693TIP3    H2 2086   1.745   5.304   1.217  2.0112  0.6709 -2.7237
  694TIP3   OH2 2087   2.230   1.212   4.223 -0.4288  0.2882  0.3187
  694TIP3    H1 2088   2.258   1.125   4.195 -3.5969 -0.5157 -0.8182
  694TIP3    H2 2089   2.264   1.221   4.312  0.9765 -1.6000  0.0358
  695TIP3   OH2 2090   4.950   4.814   0.469 -0.0477  0.4017 -0.3377
  695TIP3    H1 2091   4.971   4.804   0.562  1.0812 -0.8502 -0.6877
  695TIP3    H2 2092   4.890   4.741   0.450 -1.5692  1.5921 -0.2590
  696TIP3   OH2 2093   1.065   4.908   1.188 -0.2694  0.1002 -0.5161
  696TIP3    H1 2094   1.130   4.894   1.256  0.5232  0.3896 -1.1975
  696TIP3    H2 2095   0.999   4.965   1.230 -1.0321 -1.6141  0.7244
  697TIP3   OH2 2096   5.718   2.136   3.694 -0.5364 -0.0074  0.6485
  697TIP3    H1 2097   5.646   2.178   3.740  0.7543  1.6600  1.2688
  697TIP3    H2 2098   5.734   2.055   3.742 -1.5548 -0.0795  0.8885
  698TIP3   OH2 2099   5.021   3.090   2.678  0.1691 -0.2538 -0.3743
  698TIP3    H1 2100   4.975   3.031   2.737 -2.5951  1.2878 -0.8119
  698TIP3    H2 2101   4.962   3.099   2.603  1.3144  1.6551 -1.1134
  699TIP3   OH2 2102   0.345   3.478   0.937 -0.2573 -0.6184 -0.3713
  699TIP3    H1 2103   0.316   3.388   0.922 -0.5340 -0.7294  0.7428
  699TIP3    H2 2104   0.269   3.521   0.975 -0.4918  0.4083 -1.8956
  700TIP3   OH2 2105   3.184   4.317   0.736 -0.1967  0.5528 -0.3993
  700TIP3    H1 2106   3.178   4.360   0.821 -0.9115 -1.4957  0.6351
  700TIP3    H2 2107   3.141   4.233   0.748  0.1326 -0.0056 -2.6655
  701TIP3   OH2 2108   4.913   5.146   4.974 -0.2775 -0.4928 -0.0050
  701TIP3    H1 2109   4.946   5.234   4.956 -0.4300 -0.2477  0.8954
  701TIP3    H2 2110   4.836   5.139   4.918 -0.7389  0.2539  0.5187
  702TIP3   OH2 2111   3.523   4.279   3.294 -0.1350 -0.1312  0.3759
  702TIP3    H1 2112   3.615   4.251   3.301 -0.4541 -1.2208  0.2936
  702TIP3    H2 2113   3.524   4.368   3.328  0.9218 -0.2027  0.5905
  703TIP3   OH2 2114   0.974   0.627   2.521  0.2941 -0.3883 -0.0430
  703TIP3    H1 2115   1.046   0.565   2.506  0.9551  0.2317  0.4973
  703TIP3    H2 2116   1.004   0.680   2.595  0.0816  1.0852 -0.9803
  704TIP3   OH2 2117   4.739   1.625   4.885  0.6510  0.1495  0.0185
  704TIP3    H1 2118   4.822   1.585   4.908  2.0262  2.0069 -1.4164
  704TIP3    H2 2119   4.714   1.677   4.961  0.6092 -0.6392  0.5598
  705TIP3   OH2 2120   0.323   5.137   4.788 -0.3719 -0.4271  0.2436
  705TIP3    H1 2121   0.381   5.137   4.712 -1.0529 -2.6296 -0.3423
  705TIP3    H2 2122   0.382   5.130   4.863  0.2471  0.5652 -0.1333
  706TIP3   OH2 2123   6.161   4.461   0.906 -0.2015 -0.6087 -0.1188
  706TIP3    H1 2124   6.126   4.440   0.819  0.6224  1.3051 -0.9775
  706TIP3    H2 2125   6.197   4.549   0.896 -0.2558 -0.2603  2.2405
  707TIP3   OH2 2126   0.846   5.369   4.883  0.2537 -0.0959  0.3329
  707TIP3    H1 2127   0.790   5.300   4.847  0.9639 -0.2431 -0.5197
  707TIP3    H2 2128   0.869   5.423   4.808  1.1372  0.0445  0.6971
  708TIP3   OH2 2129   6.271   0.174   1.745 -0.4705  0.5663 -0.3013
  708TIP3    H1 2130   6.285   0.217   1.660  1.3219 -0.4527 -0.5667
  708TIP3    H2 2131   6.333   0.102   1.746 -0.3580  0.6232  1.9444
  709TIP3   OH2 2132   2.037   2.603   0.288  0.1795 -0.0068  0.2059
  709TIP3    H1 2133   1.983   2.603   0.367 -0.0200  0.0369  0.0724
  709TIP3    H2 2134   2.101   2.672   0.302 -0.8939  1.1488 -0.3549
  710TIP3   OH2 2135   4.340   2.456   1.608 -0.0374 -0.2644  0.4017
  710TIP3    H1 2136   4.266   2.516   1.623 -0.7579 -1.1045  0.2427
  710TIP3    H2 2137   4.302   2.382   1.562  1.2470  0.0576 -1.2623
  711TIP3   OH2 2138   2.261   3.485   1.467 -0.1988  0.0147 -0.1458
  711TIP3    H1 2139   2.182   3.526   1.432 -0.8550 -1.4377 -0.4463
  711TIP3    H2 2140   2.267   3.517   1.557 -0.9061  0.4444 -0.2424
  712TIP3   OH2 2141   4.018   5.074   3.377 -0.4472 -0.3656  0.4284
  712TIP3    H1 2142   4.076   5.053   3.450 -1.2227  1.1095  1.5182
  712TIP3    H2 2143   3.947   5.126   3.416 -2.3183 -1.7607 -0.9200
  713TIP3   OH2 2144   0.420   3.893   4.863  0.4464 -0.3074 -0.3481
  713TIP3    H1 2145   0.417   3.959   4.794  0.9173  0.1005  0.0126
  713TIP3    H2 2146   0.509   3.898   4.896  0.0882 -0.1423  0.6260
  714TIP3   OH2 2147   3.492   0.731   0.544 -0.1528  0.2691  0.1353
  714TIP3    H1 2148   3.450   0.713   0.629  0.3772  0.8551  0.5312
  714TIP3    H2 2149   3.580   0.694   0.553 -0.6325 -1.1438 -0.7665
  715TIP3   OH2 2150   4.119   1.309   3.382 -0.4839  0.1456  0.1476
  715TIP3    H1 2151   4.066   1.314   3.302  0.1424  1.4077 -0.2014
  715TIP3    H2 2152   4.071   1.362   3.445  0.0951  0.8705 -0.0176
  716TIP3   OH2 2153   3.397   1.754   2.981 -0.1243 -0.1525 -0.2233
  716TIP3    H1 2154   3.333   1.816   2.945 -0.5583 -0.5591 -0.1733
  716TIP3    H2 2155   3.400   1.684   2.917  1.1991  0.4272 -0.8256
  717TIP3   OH2 2156   2.431   4.297   2.494  0.0642 -0.2784 -0.5239
  717TIP3    H1 2157   2.482   4.227   2.453 -2.4124 -1.9231 -1.0445
  717TIP3    H2 2158   2.480   4.377   2.475  2.2197 -1.6774 -1.2541
  718TIP3   OH2 2159   1.244   0.875   0.488  0.2922  0.3997  1.0158
  718TIP3    H1 2160   1.181   0.909   0.552 -0.9684 -1.1245  0.6511
  718TIP3    H2 2161   1.223   0.922   0.407  0.4887  0.8284  1.2137
  719TIP3   OH2 2162   1.703   1.259   1.643 -0.0871  0.0698 -0.4196
  719TIP3    H1 2163   1.667   1.193   1.584  1.1140 -1.5948  0.6264
  719TIP3    H2 2164   1.794   1.269   1.616 -0.2836  1.4996 -0.6789
  720TIP3   OH2 2165   3.704   3.387   0.417  0.1507  0.0432 -0.2413
  720TIP3    H1 2166   3.655   3.459   0.458  0.9245 -0.0422  0.8966
  720TIP3    H2 2167   3.637   3.326   0.386 -0.4710  0.0121  1.1155
  721TIP3   OH2 2168   3.040   0.009   4.431 -0.1325  0.1056  0.4392
  721TIP3    H1 2169   2.950  -0.022   4.418 -0.8549  2.4893 -0.8571
  721TIP3    H2 2170   3.067   0.041   4.345  0.8186  2.1685  1.4285
  722TIP3   OH2 2171   5.780   0.863   1.902  0.8296  0.1281 -0.4162
  722TIP3    H1 2172   5.839   0.815   1.961 -0.4420  0.6079  1.3236
  722TIP3    H2 2173   5.708   0.801   1.886  0.6732  0.3668 -0.6229
  723TIP3   OH2 2174   0.824   2.366   1.597  0.7403 -0.7590 -0.4394
  723TIP3    H1 2175   0.827   2.404   1.685  2.2368 -1.8118  0.0016
  723TIP3    H2 2176   0.899   2.403   1.552 -0.7896  0.8705 -1.8064
  724TIP3   OH2 2177   4.718   5.257   2.455 -0.2805  0.2224 -0.0344
  724TIP3    H1 2178   4.782   5.233   2.522 -0.8083 -0.6344  0.1781
  724TIP3    H2 2179   4.637   5.270   2.504 -1.1797 -2.3959 -0.6600
  725TIP3   OH2 2180   0.004   4.720   2.901  0.4434 -0.2699 -0.0200
  725TIP3    H1 2181   0.015   4.629   2.928  1.1817  0.0164  0.7156
  725TIP3    H2 2182   0.088   4.762   2.923  0.7499  0.2235 -1.9244
  726TIP3   OH2 2183   3.589   5.299   2.919 -0.0705  0.4092 -0.1042
  726TIP3    H1 2184   3.567   5.390   2.900  1.0533  0.4781 -1.1632
  726TIP3    H2 2185   3.639   5.302   3.001  1.0057  0.8906 -0.7639
  727TIP3   OH2 2186   2.126   2.301   3.392  0.1720 -0.5094 -0.2978
  727TIP3    H1 2187   2.173   2.324   3.312  1.5808 -2.5470 -0.1321
  727TIP3    H2 2188   2.056   2.242   3.364  0.1538 -0.5729 -0.1222
  728TIP3   OH2 2189   3.205   1.711   1.239 -0.0645 -0.2037 -0.1962
  728TIP3    H1 2190   3.218   1.742   1.150 -0.7337  2.1090  0.4443
  728TIP3    H2 2191   3.138   1.643   1.232  0.6955 -0.8562 -1.5450
  729TIP3   OH2 2192   4.326   2.856   4.701  0.2728 -0.3704 -0.4189
  729TIP3    H1 2193   4.336   2.944   4.665  0.3102  0.1689  0.8731
  729TIP3    H2 2194   4.320   2.800   4.624  0.2116  0.7582 -1.2686
  730TIP3   OH2 2195   2.930   2.275   2.212  0.2952 -0.1661  0.2092
  730TIP3    H1 2196   2.936   2.208   2.280  1.1158 -1.9177 -1.4778
  730TIP3    H2 2197   3.018   2.278   2.174  0.7416  3.0864  1.2366
  731TIP3   OH2 2198   6.307   2.994   4.711  0.4437  0.0048  0.0987
  731TIP3    H1 2199   6.306   2.912   4.761  0.3414  0.2432  0.4963
  731TIP3    H2 2200   6.309   2.967   4.620 -0.8198 -0.4428  0.1925
  732TIP3   OH2 2201   3.612   5.757   3.606 -1.0811  0.4928 -0.1007
  732TIP3    H1 2202   3.631   5.796   3.521 -1.1182  0.5239 -0.0950
  732TIP3    H2 2203   3.696   5.757   3.653 -1.3745  1.9752  0.4793
  733TIP3   OH2 2204   1.049   5.630   1.143 -0.2077 -0.8029  0.4593
  733TIP3    H1 2205   1.015   5.707   1.187 -1.3160 -1.5001  0.8532
  733TIP3    H2 2206   1.124   5.603   1.196  2.0148  1.5633 -1.1847
  734TIP3   OH2 2207   1.636   4.692   3.569 -0.3648 -0.8013  0.2825
  734TIP3    H1 2208   1.681   4.625   3.621  1.8576  0.6185  0.3345
  734TIP3    H2 2209   1.674   4.683   3.482  0.1197  0.4594  0.3416
  735TIP3   OH2 2210   3.196   1.594   4.404  0.2385 -0.0617 -0.5988
  735TIP3    H1 2211   3.125   1.611   4.465  0.1623 -1.4106 -0.2776
  735TIP3    H2 2212   3.158   1.539   4.336  1.0150 -1.0312 -0.2802
  736TIP3   OH2 2213   0.193   0.554   1.340  0.1633 -0.2428 -0.3810
  736TIP3    H1 2214   0.202   0.644   1.307 -1.2149  0.1474  0.2132
  736TIP3    H2 2215   0.098   0.542   1.349  0.1993 -2.3255 -1.9571
  737TIP3   OH2 2216   3.625   3.447   1.267  0.5209  0.2964  0.0578
  737TIP3    H1 2217   3.635   3.474   1.176  1.6663  0.9322  0.3594
  737TIP3    H2 2218   3.543   3.489   1.294  0.5246  0.6747 -0.4811
  738TIP3   OH2 2219   4.754   0.960   1.020  0.0201  0.8483  0.3493
  738TIP3    H1 2220   4.704   0.889   1.059 -0.7556  0.8777 -0.5563
  738TIP3    H2 2221   4.688   1.024   0.994  0.5339  0.9564 -0.7334
  739TIP3   OH2 2222   3.865   0.609   3.425 -0.7254  0.0538  0.3419
  739TIP3    H1 2223   3.827   0.555   3.494 -1.0867  0.1412  0.2161
  739TIP3    H2 2224   3.955   0.580   3.418 -0.9409 -0.6049  0.2091
  740TIP3   OH2 2225   0.652   2.685   2.897 -0.0159 -0.2797 -0.3326
  740TIP3    H1 2226   0.654   2.610   2.838 -0.4121  0.3834 -1.2269
  740TIP3    H2 2227   0.656   2.761   2.839  0.1400  0.3919  0.5346
  741TIP3   OH2 2228   2.435   3.553   1.276  0.5417  0.0646 -0.1838
  741TIP3    H1 2229   2.394   3.622   1.224 -1.1727 -1.5309 -1.0788
  741TIP3    H2 2230   2.366   3.524   1.335  0.6382 -2.0166 -1.0231
  742TIP3   OH2 2231   5.601   3.614   2.349 -0.0195  0.4377 -0.5261
  742TIP3    H1 2232   5.564   3.582   2.266  0.9018 -1.1440 -0.3586
  742TIP3    H2 2233   5.681   3.660   2.323  1.1938 -1.5327 -0.4241
  743TIP3   OH2 2234   2.225   3.735   3.269  0.0061  0.0726 -0.0680
  743TIP3    H1 2235   2.287   3.698   3.332  2.1805  1.2640 -1.3948
  743TIP3    H2 2236   2.195   3.816   3.310  2.0245  1.2555 -0.8155
  744TIP3   OH2 2237   5.550   4.594   2.716  0.4377 -0.5399 -0.0462
  744TIP3    H1 2238   5.535   4.533   2.788  0.8398  0.6272  1.0770
  744TIP3    H2 2239   5.462   4.620   2.688  0.2772 -0.8305  0.1790
  745TIP3   OH2 2240   2.029   1.464   2.817 -0.2493 -0.0546  0.4072
  745TIP3    H1 2241   2.122   1.445   2.811 -0.3488 -1.1321  1.6291
  745TIP3    H2 2242   2.021   1.521   2.894 -0.6596 -0.7381  0.8974
  746TIP3   OH2 2243   5.609   5.948   1.747 -0.4710 -0.2366 -0.2192
  746TIP3    H1 2244   5.581   5.885   1.681 -1.4245 -0.9962  0.8792
  746TIP3    H2 2245   5.540   6.014   1.749 -1.9294 -1.7145  1.9582
  747TIP3   OH2 2246   6.329   3.814   4.975 -0.5155 -0.3696  0.2615
  747TIP3    H1 2247   6.300   3.723   4.987 -3.7596  0.7697  2.2699
  747TIP3    H2 2248   6.291   3.840   4.892  2.4118 -1.3906 -1.5555
  748TIP3   OH2 2249   1.572   2.596   4.751  0.0850 -0.1177 -0.0136
  748TIP3    H1 2250   1.633   2.663   4.781 -0.8362  1.7383 -2.0217
  748TIP3    H2 2251   1.609   2.565   4.668 -0.3985 -0.8303  0.0266
  749TIP3   OH2 2252   1.450   4.652   4.479  0.3176  0.0608  0.3986
  749TIP3    H1 2253   1.489   4.737   4.498 -0.1365  0.0698  1.3487
  749TIP3    H2 2254   1.506   4.615   4.410 -0.4924  1.8471 -1.3359
  750TIP3   OH2 2255   2.231   3.222   0.541 -0.0128  0.1378 -0.2293
  750TIP3    H1 2256   2.244   3.294   0.479  1.2092  0.6429  0.5846
  750TIP3    H2 2257   2.280   3.149   0.503  0.7954  0.4681  0.1681
  751TIP3   OH2 2258   2.917   2.838   1.007  0.1387 -0.5820  0.5802
  751TIP3    H1 2259   3.000   2.876   1.038  0.4071 -2.0286  1.7253
  751TIP3    H2 2260   2.860   2.914   0.994  1.8784  0.5384 -1.1237
  752TIP3   OH2 2261   4.657   5.636   1.747 -0.2066 -0.8906  0.5331
  752TIP3    H1 2262   4.665   5.552   1.792 -0.1940 -0.9952  0.3333
  752TIP3    H2 2263   4.568   5.637   1.713 -0.2265 -0.7966  0.5847
  753TIP3   OH2 2264   1.280   3.931   4.851  0.0153  0.0395  0.3824
  753TIP3    H1 2265   1.365   3.889   4.839  1.1344  2.1211  0.5278
  753TIP3    H2 2266   1.249   3.898   4.935  0.5629 -0.8867  0.2424
  754TIP3   OH2 2267   5.005   1.621   2.532  0.4866  0.0721 -0.0700
  754TIP3    H1 2268   4.971   1.710   2.523  1.3090  0.2890 -1.2304
  754TIP3    H2 2269   5.056   1.606   2.452  0.3262 -1.4602  0.0830
  755TIP3   OH2 2270   1.324   3.912   1.593  0.2276  0.2329 -0.3421
  755TIP3    H1 2271   1.323   3.909   1.497 -1.1257  1.3884 -0.3926
  755TIP3    H2 2272   1.236   3.884   1.619  0.0331  1.5194  0.4760
  756TIP3   OH2 2273   3.341   3.897   1.011  0.1825 -0.3022  0.4403
  756TIP3    H1 2274   3.284   3.834   0.966  0.9468 -1.0608  0.4908
  756TIP3    H2 2275   3.318   3.888   1.103  0.5662 -0.8175  0.4917
  757TIP3   OH2 2276   5.322   1.035   3.829  0.1873  0.4560 -0.3567
  757TIP3    H1 2277   5.333   1.084   3.911 -1.8637 -0.4726  0.5265
  757TIP3    H2 2278   5.364   0.951   3.847  0.2472  0.4601 -0.4793
  758TIP3   OH2 2279   2.884   1.661   4.978 -0.1970  0.0567 -0.2998
  758TIP3    H1 2280   2.970   1.617   4.976 -0.3349 -0.2467  0.1305
  758TIP3    H2 2281   2.828   1.606   4.924 -0.5567 -0.7317  0.8270
  759TIP3   OH2 2282   0.789   3.897   2.391  0.0683  0.6107 -0.2522
  759TIP3    H1 2283   0.701   3.889   2.426 -1.0953 -0.2327 -3.0717
  759TIP3    H2 2284   0.828   3.971   2.438 -0.9465 -0.8951  3.2350
  760TIP3   OH2 2285   2.661   1.467   0.933  0.3602 -0.3962  0.5935
  760TIP3    H1 2286   2.584   1.453   0.989 -1.1951  0.9026 -1.1015
  760TIP3    H2 2287   2.637   1.428   0.849  2.8660 -2.8046  0.8246
  761TIP3   OH2 2288   5.648   0.571   1.372 -0.3285 -0.5911 -0.2459
  761TIP3    H1 2289   5.672   0.536   1.458 -0.9424 -2.2192 -0.7054
  761TIP3    H2 2290   5.689   0.658   1.369  3.8479 -2.3342 -0.2291
  762TIP3   OH2 2291   2.010   4.424   2.536  0.3871 -0.3965 -0.5535
  762TIP3    H1 2292   1.928   4.459   2.502 -0.2267 -1.1685  0.0867
  762TIP3    H2 2293   2.010   4.447   2.629 -0.5808 -2.9398  0.1758
  763TIP3   OH2 2294   0.193   4.003   4.979  0.8858 -0.0313  0.5460
  763TIP3    H1 2295   0.262   3.959   4.929 -0.0616 -0.2037 -0.6529
  763TIP3    H2 2296   0.121   3.940   4.980  0.0894  0.8508  0.1784
  764TIP3   OH2 2297   3.231   0.564   2.451  0.1324 -0.4744  0.3527
  764TIP3    H1 2298   3.214   0.604   2.366  1.4554  1.3826  0.9027
  764TIP3    H2 2299   3.295   0.622   2.493 -0.9102 -0.9823  2.8587
  765TIP3   OH2 2300   0.227   0.411   4.786  0.6161 -0.4757  0.4486
  765TIP3    H1 2301   0.211   0.470   4.713 -1.2466  0.9562  1.9133
  765TIP3    H2 2302   0.312   0.439   4.821  0.3062  0.5771  0.3985
  766TIP3   OH2 2303   5.592   2.632   2.971 -0.1003  0.4020  0.4846
  766TIP3    H1 2304   5.548   2.715   2.957 -1.4594 -0.5796 -1.6362
  766TIP3    H2 2305   5.673   2.639   2.919  0.7386  1.0469  1.8323
  767TIP3   OH2 2306   4.992   1.383   2.688 -0.0424 -0.6536  0.6851
  767TIP3    H1 2307   5.045   1.306   2.666  1.8064  0.4443  1.0502
  767TIP3    H2 2308   5.018   1.448   2.622  1.2799  0.8414  2.5951
  768TIP3   OH2 2309   2.802   5.679   4.985 -0.1717 -0.5134 -0.4908
  768TIP3    H1 2310   2.886   5.666   5.030  0.0907 -0.7382 -1.0446
  768TIP3    H2 2311   2.787   5.598   4.937 -0.9115 -0.6335 -0.0745
  769TIP3   OH2 2312   4.742   0.648   3.839  0.0165 -0.1605  0.5383
  769TIP3    H1 2313   4.782   0.734   3.827  0.5085 -0.5171 -0.4795
  769TIP3    H2 2314   4.816   0.587   3.838 -0.4077 -0.6781  0.3340
  770TIP3   OH2 2315   5.185   1.017   0.824 -0.8444  0.8968  0.0776
  770TIP3    H1 2316   5.252   1.060   0.876  0.0487  1.1431 -1.2321
  770TIP3    H2 2317   5.142   0.957   0.885  2.8679 -1.9711  0.2476
  771TIP3   OH2 2318   3.087   5.415   3.098 -0.2404  0.6830  0.6671
  771TIP3    H1 2319   3.147   5.463   3.041  0.2840 -0.8148 -0.0722
  771TIP3    H2 2320   3.137   5.398   3.177 -0.1738  0.6631  0.6202
  772TIP3   OH2 2321   5.420   4.969   1.849  0.2403 -0.0676  0.1343
  772TIP3    H1 2322   5.447   4.991   1.760  2.0565 -2.4144  0.0002
  772TIP3    H2 2323   5.345   4.910   1.838 -0.7290  1.1089  0.2658
  773TIP3   OH2 2324   1.756   3.912   1.353  0.4732 -0.5810  0.1984
  773TIP3    H1 2325   1.814   3.913   1.277 -0.2429  2.9171 -0.4484
  773TIP3    H2 2326   1.802   3.963   1.420 -0.7932  0.2123  0.5002
  774TIP3   OH2 2327   0.021   1.290   1.407 -0.2225 -0.1447  0.5724
  774TIP3    H1 2328   0.084   1.233   1.451  0.8820 -0.2286 -1.0445
  774TIP3    H2 2329   0.069   1.371   1.392 -1.0019  0.3451  0.6731
  775TIP3   OH2 2330   0.969   1.268   1.801  0.5892 -0.0928  0.1317
  775TIP3    H1 2331   1.005   1.357   1.796 -0.9399  0.5826  0.3772
  775TIP3    H2 2332   0.885   1.279   1.847 -0.2805 -1.4574 -1.0293
  776TIP3   OH2 2333   3.664   0.640   1.133 -0.0362 -0.9106 -0.1466
  776TIP3    H1 2334   3.590   0.699   1.148  0.8245  0.1662 -0.0344
  776TIP3    H2 2335   3.660   0.577   1.206  0.2505  0.2955  0.9433
  777TIP3   OH2 2336   2.448   3.556   2.987  0.0979 -0.1076  0.0511
  777TIP3    H1 2337   2.514   3.501   3.028 -1.1775 -0.7572  1.2864
  777TIP3    H2 2338   2.484   3.575   2.900  1.0208 -2.0507 -0.0462
  778TIP3   OH2 2339   3.567   0.860   4.696  0.0083  0.8009  0.3314
  778TIP3    H1 2340   3.614   0.943   4.695 -0.4142  1.0471  0.6029
  778TIP3    H2 2341   3.499   0.872   4.762 -1.4026  0.9870 -1.1059
  779TIP3   OH2 2342   5.459   0.843   2.320 -0.4421  0.0623  0.4743
  779TIP3    H1 2343   5.440   0.811   2.232 -0.2316 -1.0750  0.8321
  779TIP3    H2 2344   5.517   0.918   2.306 -0.4603 -0.0656 -0.3489
  780TIP3   OH2 2345   1.111   1.028   1.823  1.0121  0.4423  0.3747
  780TIP3    H1 2346   1.084   1.119   1.813 -0.4227  0.0310  0.2728
  780TIP3    H2 2347   1.177   1.015   1.754 -0.9669  0.6066 -1.6671
  781TIP3   OH2 2348   5.748   3.669   0.818 -0.6518 -0.1489  0.2809
  781TIP3    H1 2349   5.803   3.740   0.787  1.6199  0.0656  4.1315
  781TIP3    H2 2350   5.660   3.707   0.823 -0.3845  0.8773 -1.9830
  782TIP3   OH2 2351   1.993   4.122   2.698  0.2010  0.0714  0.0216
  782TIP3    H1 2352   1.937   4.195   2.673  0.1794  0.5378  1.3595
  782TIP3    H2 2353   1.932   4.050   2.715  0.2328 -0.3235 -1.4490
  783TIP3   OH2 2354   5.265   3.069   0.468  0.0078  0.0879  0.6859
  783TIP3    H1 2355   5.187   3.062   0.524 -1.2367  1.3256 -0.7830
  783TIP3    H2 2356   5.286   3.162   0.469  1.5011 -0.2300  1.0447
  784TIP3   OH2 2357   4.562   0.763   1.879 -0.2378  0.5920  0.1426
  784TIP3    H1 2358   4.477   0.789   1.842 -0.1006 -0.8599 -1.3222
  784TIP3    H2 2359   4.625   0.787   1.811  0.5442  1.5150  1.1557
  785TIP3   OH2 2360   0.489   5.495   3.783  0.8540 -0.1678 -0.2004
  785TIP3    H1 2361   0.510   5.589   3.785 -0.5117  0.1932  2.9906
  785TIP3    H2 2362   0.431   5.485   3.708  0.7962  1.6006 -0.4344
  786TIP3   OH2 2363   6.300   2.620   4.468  0.3582 -0.2057 -0.2536
  786TIP3    H1 2364   6.286   2.714   4.456  0.4384 -0.2734 -0.8992
  786TIP3    H2 2365   6.295   2.607   4.562  0.4831  0.4688 -0.1497
  787TIP3   OH2 2366   5.396   2.885   3.726 -0.4597 -0.5218  0.0184
  787TIP3    H1 2367   5.437   2.820   3.784  2.5370 -0.1812 -1.4957
  787TIP3    H2 2368   5.344   2.833   3.664 -0.2270 -1.2487  0.4251
  788TIP3   OH2 2369   0.694   0.011   4.401  0.3503  0.2030  0.8109
  788TIP3    H1 2370   0.631  -0.028   4.462 -2.2829  1.4113 -0.9916
  788TIP3    H2 2371   0.772   0.025   4.455 -1.7366  1.0837  3.9341
  789TIP3   OH2 2372   6.219   4.763   1.551 -0.2672  0.0992 -0.2786
  789TIP3    H1 2373   6.209   4.856   1.533  0.3021  0.1888 -0.1477
  789TIP3    H2 2374   6.182   4.751   1.638 -1.1386  0.0388 -0.6469
  790TIP3   OH2 2375   2.900   1.061   0.827 -0.1241 -0.0472 -0.2012
  790TIP3    H1 2376   2.874   1.014   0.747  1.1821 -0.1555 -0.5880
  790TIP3    H2 2377   2.922   0.991   0.889 -2.3186  0.0076  0.7099
  791TIP3   OH2 2378   6.299   5.350   1.350 -0.0448  0.9522  0.0452
  791TIP3    H1 2379   6.314   5.442   1.328  0.5568  0.6388 -0.9118
  791TIP3    H2 2380   6.373   5.304   1.312 -0.2759  0.0823  0.6315
  792TIP3   OH2 2381   1.918   1.642   1.655  0.1334 -0.5847 -0.1514
  792TIP3    H1 2382   1.995   1.610   1.701  2.5624  2.3517 -1.8203
  792TIP3    H2 2383   1.952   1.689   1.580 -2.9128  4.3298  1.0708
  793TIP3   OH2 2384   5.521   1.374   5.034 -0.6210  0.4710  0.1388
  793TIP3    H1 2385   5.449   1.336   4.985 -0.2708 -0.2530  0.1677
  793TIP3    H2 2386   5.494   1.370   5.126  0.6984 -2.7950  0.5195
  794TIP3   OH2 2387   1.733   1.626   1.192  0.0416  0.0597 -0.2937
  794TIP3    H1 2388   1.707   1.718   1.188  1.2099  0.4608  0.8042
  794TIP3    H2 2389   1.761   1.605   1.103  0.6662  1.0499 -0.3457
  795TIP3   OH2 2390   1.071   4.569   3.441 -0.4150  0.4245  0.2629
  795TIP3    H1 2391   1.127   4.495   3.419 -1.3528  0.4335 -2.5922
  795TIP3    H2 2392   1.131   4.642   3.454  0.3692 -0.1621 -0.0243
  796TIP3   OH2 2393   6.114   1.696   4.642  0.1073  0.3966  0.1039
  796TIP3    H1 2394   6.082   1.666   4.727 -0.2896  1.2637  0.2616
  796TIP3    H2 2395   6.134   1.789   4.654  0.6695  0.3775 -0.5763
  797TIP3   OH2 2396   3.981   1.853   4.465 -0.8964  0.2064 -0.3480
  797TIP3    H1 2397   3.985   1.758   4.474  1.4640  0.2927  0.1572
  797TIP3    H2 2398   3.935   1.883   4.544  0.5052 -0.4118  0.7480
  798TIP3   OH2 2399   0.729   0.323   4.468  0.0875  0.2926  0.2020
  798TIP3    H1 2400   0.649   0.323   4.520 -0.1367 -1.2368 -0.0914
  798TIP3    H2 2401   0.704   0.283   4.385  1.0529  0.1559 -0.0425
  799TIP3   OH2 2402   4.014   5.060   1.499 -0.1902 -0.4494 -0.0287
  799TIP3    H1 2403   3.950   5.040   1.568 -0.5309  0.6432 -0.0144
  799TIP3    H2 2404   4.088   5.099   1.546 -1.9571  4.0338 -0.5016
  800TIP3   OH2 2405   4.848   3.720   5.103 -0.8177 -0.2397 -0.3325
  800TIP3    H1 2406   4.939   3.734   5.076 -0.3166 -0.9884  0.8562
  800TIP3    H2 2407   4.818   3.806   5.133 -0.4126 -0.0371 -0.5100
  801TIP3   OH2 2408   3.689   0.179   3.682  0.1159  0.5014  0.0393
  801TIP3    H1 2409   3.669   0.202   3.773  1.5259  0.1045  0.4615
  801TIP3    H2 2410   3.729   0.093   3.687 -0.0628  0.3424 -1.0022
  802TIP3   OH2 2411   3.454   2.894   3.029 -0.0137  0.6142 -0.2891
  802TIP3    H1 2412   3.464   2.921   3.121 -0.9362 -0.8203  0.2738
  802TIP3    H2 2413   3.523   2.941   2.983  2.1651 -0.5485  1.5611
  803TIP3   OH2 2414   5.758   1.690   4.035 -0.0366 -0.3787  0.1608
  803TIP3    H1 2415   5.711   1.617   3.996 -0.6964  0.3057 -0.3459
  803TIP3    H2 2416   5.829   1.649   4.085 -0.1351 -1.3398 -0.4655
  804TIP3   OH2 2417   1.518   4.133   2.422 -0.2660  0.5105 -0.1402
  804TIP3    H1 2418   1.596   4.109   2.372 -0.7546 -1.1727 -0.1820
  804TIP3    H2 2419   1.547   4.132   2.513 -0.7048 -2.6483  0.0864
  805TIP3   OH2 2420   5.488   3.125   0.663 -0.6233  0.3704  0.1929
  805TIP3    H1 2421   5.479   3.217   0.688 -1.9371  0.7652 -1.5225
  805TIP3    H2 2422   5.398   3.095   0.649 -0.1448 -0.8138 -0.4851
  806TIP3   OH2 2423   4.208   0.503   1.533 -0.1137 -0.9579 -0.2724
  806TIP3    H1 2424   4.231   0.565   1.463 -1.2039 -1.4596 -1.0895
  806TIP3    H2 2425   4.291   0.488   1.579  0.3399  0.4706 -0.5608
  807TIP3   OH2 2426   1.272   1.252   0.095 -0.0275 -0.3902  0.5488
  807TIP3    H1 2427   1.200   1.281   0.039 -0.0172  0.5208  0.9909
  807TIP3    H2 2428   1.347   1.248   0.035 -0.5950 -2.1910 -0.1040
  808TIP3   OH2 2429   4.484   3.526   3.271 -0.3504 -0.1240 -0.4311
  808TIP3    H1 2430   4.422   3.550   3.202 -1.0632 -0.0697  0.2310
  808TIP3    H2 2431   4.501   3.433   3.257  0.1059  0.0543 -1.1462
  809TIP3   OH2 2432   1.211   2.002   4.006  0.5919 -0.0366 -0.7435
  809TIP3    H1 2433   1.259   1.945   4.065  0.9714  1.2288  0.2278
  809TIP3    H2 2434   1.175   2.071   4.062 -2.8957 -1.1866 -1.3070
  810TIP3   OH2 2435   1.467   4.157   1.545 -0.4211  0.1446 -0.2347
  810TIP3    H1 2436   1.488   4.161   1.452 -0.1068 -1.0712 -0.2276
  810TIP3    H2 2437   1.397   4.092   1.551 -1.8560  1.6222  0.1691
  811TIP3   OH2 2438   5.749   4.245   2.277 -0.3402 -0.0381  0.0745
  811TIP3    H1 2439   5.818   4.310   2.262 -0.3197 -0.0699  0.0292
  811TIP3    H2 2440   5.796   4.162   2.285 -0.2000  0.1824  1.9222
  812TIP3   OH2 2441   0.647   5.903   0.584  0.2889 -0.5236  0.2868
  812TIP3    H1 2442   0.573   5.923   0.642  0.0094 -1.8404  0.4300
  812TIP3    H2 2443   0.694   5.985   0.575  0.0697 -0.1700  2.0180
  813TIP3   OH2 2444   3.216   3.043   2.050  0.1585  0.2622 -0.0954
  813TIP3    H1 2445   3.252   2.968   2.097 -0.8091 -0.0405  0.1866
  813TIP3    H2 2446   3.132   3.060   2.093 -0.3516  0.5228 -1.1618
  814TIP3   OH2 2447   0.860   2.402   1.870  0.0364  0.1634 -0.4117
  814TIP3    H1 2448   0.766   2.404   1.890  0.1602  1.3888  0.1553
  814TIP3    H2 2449   0.893   2.324   1.916 -0.8155 -0.6933 -1.2133
  815TIP3   OH2 2450   5.881   1.641   2.699 -0.2416  0.0099 -0.0495
  815TIP3    H1 2451   5.883   1.727   2.741 -2.3991 -0.5324  1.3057
  815TIP3    H2 2452   5.890   1.579   2.771  1.1398 -0.9631 -0.9934
  816TIP3   OH2 2453   6.009   4.968   2.743  0.2563 -0.3955  0.0588
  816TIP3    H1 2454   6.079   5.009   2.692  0.0419 -2.1865 -1.7790
  816TIP3    H2 2455   5.931   5.018   2.722  0.4551 -0.1537 -0.1091
  817TIP3   OH2 2456   4.535   1.547   2.347 -0.0222  0.2281 -0.1672
  817TIP3    H1 2457   4.608   1.593   2.305 -0.6070  1.3380  0.0166
  817TIP3    H2 2458   4.530   1.584   2.435 -0.7226  0.0604 -0.1328
  818TIP3   OH2 2459   5.595   5.864   0.178  0.1964 -0.1472 -0.3083
  818TIP3    H1 2460   5.665   5.890   0.237 -0.2119 -0.8277  0.5084
  818TIP3    H2 2461   5.525   5.927   0.194 -0.0550 -0.5533  0.2265
  819TIP3   OH2 2462   0.870   3.544   3.297 -0.1590  0.5732 -0.7483
  819TIP3    H1 2463   0.954   3.500   3.287 -0.1952  0.8360 -2.5522
  819TIP3    H2 2464   0.877   3.622   3.241 -0.5997  2.1436  1.2662
  820TIP3   OH2 2465   5.759   2.100   3.998 -0.1438 -0.1247  0.0164
  820TIP3    H1 2466   5.806   2.148   3.930 -0.4591  0.9172  0.5117
  820TIP3    H2 2467   5.705   2.037   3.951 -0.5535  0.7547 -0.7123
  821TIP3   OH2 2468   3.053   3.462   3.687 -0.1484  0.4082 -0.2822
  821TIP3    H1 2469   3.048   3.557   3.673 -1.0542  0.4992  0.5559
  821TIP3    H2 2470   3.041   3.424   3.599  0.1328  1.0574 -0.6101
  822TIP3   OH2 2471   1.747   5.354   3.940  0.3574  0.0868 -0.5587
  822TIP3    H1 2472   1.679   5.324   3.880  0.1006  1.1046 -0.8034
  822TIP3    H2 2473   1.701   5.364   4.024  0.7582 -1.5146 -0.1305
  823TIP3   OH2 2474   1.131   5.392   1.344  0.6004  0.3184 -0.2023
  823TIP3    H1 2475   1.066   5.330   1.311  1.2615 -0.4804 -0.0280
  823TIP3    H2 2476   1.080   5.458   1.392 -0.2009  0.5103 -1.3001
  824TIP3   OH2 2477   1.155   4.110   3.372 -0.1479 -0.3128 -0.1749
  824TIP3    H1 2478   1.248   4.091   3.382 -0.3536 -1.3174 -0.0857
  824TIP3    H2 2479   1.122   4.113   3.461 -0.0907  0.6726 -0.1780
  825TIP3   OH2 2480   4.459   1.440   3.100  0.3290  0.4538 -0.8173
  825TIP3    H1 2481   4.457   1.432   3.195 -0.5972 -1.1277 -0.9451
  825TIP3    H2 2482   4.552   1.432   3.078  0.3662 -1.4940 -0.1834
  826TIP3   OH2 2483   0.087   5.722   2.260 -0.2498 -0.0124 -0.1351
  826TIP3    H1 2484   0.143   5.792   2.294 -0.4576 -0.6630  1.6422
  826TIP3    H2 2485   0.000   5.741   2.295 -0.5695 -0.4693 -0.6721
  827TIP3   OH2 2486   1.165   3.698   2.552 -0.5699 -0.1645  0.0353
  827TIP3    H1 2487   1.199   3.616   2.516 -0.0036 -0.0878  0.3803
  827TIP3    H2 2488   1.170   3.761   2.480  1.6606  0.3021  0.5191
  828TIP3   OH2 2489   3.181   4.472   4.448 -0.2728 -0.8914  0.6920
  828TIP3    H1 2490   3.262   4.426   4.470 -0.9231 -2.0579  0.7265
  828TIP3    H2 2491   3.191   4.496   4.356  0.4550 -0.2756  0.9240
  829TIP3   OH2 2492   1.339   3.425   1.193  0.6767  0.0611  0.1330
  829TIP3    H1 2493   1.384   3.386   1.268  1.5541 -0.7806 -0.7998
  829TIP3    H2 2494   1.268   3.365   1.172  0.0324  0.6180  0.6587
  830TIP3   OH2 2495   1.577   0.619  -0.012 -0.1452  0.2361 -0.2453
  830TIP3    H1 2496   1.649   0.570  -0.052  0.9576  1.4149  0.2021
  830TIP3    H2 2497   1.568   0.580   0.075  2.7201  2.5332  1.2707
  831TIP3   OH2 2498   5.152   2.146   1.951  0.4972 -0.3044 -0.6145
  831TIP3    H1 2499   5.234   2.193   1.967 -0.9249  1.4855  2.2749
  831TIP3    H2 2500   5.108   2.197   1.884 -0.7032  2.3397  1.9710
  832TIP3   OH2 2501   5.603   2.490   4.080  0.6671 -0.6525  0.4336
  832TIP3    H1 2502   5.578   2.399   4.098  0.1902 -0.6225 -0.0274
  832TIP3    H2 2503   5.683   2.482   4.028 -0.1159 -0.8755 -0.7945
  833TIP3   OH2 2504   4.273   2.027   0.367 -0.4968 -0.4227  0.5566
  833TIP3    H1 2505   4.360   1.987   0.355  0.5089  1.4696  1.2019
  833TIP3    H2 2506   4.253   2.067   0.282 -0.3444 -0.1177  0.6647
  834TIP3   OH2 2507   5.044   4.387   5.176  0.1076 -0.1521 -0.1526
  834TIP3    H1 2508   5.073   4.431   5.097 -0.9034 -1.4544 -1.2868
  834TIP3    H2 2509   4.988   4.451   5.221 -0.1865  0.2150 -1.0334
  835TIP3   OH2 2510   2.044   4.509   2.800 -0.1908  0.4721 -0.2747
  835TIP3    H1 2511   2.076   4.439   2.857  0.9206  1.0270 -0.1868
  835TIP3    H2 2512   1.994   4.567   2.858  1.2800  1.2562  0.2722
  836TIP3   OH2 2513   2.573   4.053   0.909  0.9000 -0.0168  0.2435
  836TIP3    H1 2514   2.485   4.076   0.879  0.7059 -0.6556  0.2959
  836TIP3    H2 2515   2.596   3.974   0.859  1.1052 -0.3337  0.8155
  837TIP3   OH2 2516   5.663   4.075   0.175  0.2321 -0.0443  0.3492
  837TIP3    H1 2517   5.575   4.046   0.149  1.4916 -2.3753 -1.7884
  837TIP3    H2 2518   5.648   4.134   0.248 -3.0198 -1.6890  1.2098
  838TIP3   OH2 2519   5.012   0.096   1.148  0.0051 -0.1509 -0.0577
  838TIP3    H1 2520   4.969   0.154   1.085 -0.1594  0.1447  0.3274
  838TIP3    H2 2521   4.945   0.077   1.213  0.7613  1.2134  1.1627
  839TIP3   OH2 2522   3.271   3.946   2.906  0.3477  0.6055 -0.4114
  839TIP3    H1 2523   3.364   3.962   2.922  0.8194  0.1965 -2.3865
  839TIP3    H2 2524   3.259   3.853   2.927  0.3632  0.6788 -0.0730
  840TIP3   OH2 2525   4.473   4.489   3.669  0.1672  0.4091 -0.5131
  840TIP3    H1 2526   4.502   4.579   3.682 -0.6717  0.7486 -0.8955
  840TIP3    H2 2527   4.447   4.459   3.756 -1.0122  1.0756 -0.6141
  841TIP3   OH2 2528   6.219   5.615   4.966  0.1869  0.2620  0.1795
  841TIP3    H1 2529   6.221   5.597   5.060  1.6205  1.8054  0.4903
  841TIP3    H2 2530   6.182   5.536   4.927 -2.0456  0.2108  2.1660
  842TIP3   OH2 2531   1.643   5.230   0.586 -0.3654 -0.3990 -0.2957
  842TIP3    H1 2532   1.588   5.252   0.511  0.1197 -0.0297 -0.5469
  842TIP3    H2 2533   1.703   5.304   0.595 -0.1549 -0.6221  0.2106
  843TIP3   OH2 2534   2.138   2.006   3.390  0.2100  0.2008  0.0586
  843TIP3    H1 2535   2.049   1.978   3.410  0.1910 -0.0030 -0.3126
  843TIP3    H2 2536   2.139   2.018   3.296  0.8562 -0.7955 -0.0785
  844TIP3   OH2 2537   3.355   0.788   2.702 -0.1381  0.3812  0.5659
  844TIP3    H1 2538   3.386   0.828   2.621  0.2805  2.9093  1.8812
  844TIP3    H2 2539   3.429   0.735   2.732 -0.6693 -1.4400 -1.1607
  845TIP3   OH2 2540   0.016   0.055   4.228  0.0032  0.0863 -0.2745
  845TIP3    H1 2541   0.052  -0.001   4.297 -0.5206 -0.4804 -0.4508
  845TIP3    H2 2542  -0.006   0.137   4.272  1.3353  0.3818 -0.1355
  846TIP3   OH2 2543   0.571   2.343   0.451  0.5800 -0.3154  0.0232
  846TIP3    H1 2544   0.542   2.330   0.361 -1.6053  1.6710  0.3449
  846TIP3    H2 2545   0.594   2.255   0.482 -2.4835 -1.6965 -1.2540
  847TIP3   OH2 2546   3.798   0.786   2.969 -0.0228 -0.1716  0.2153
  847TIP3    H1 2547   3.871   0.846   2.953 -1.1271  0.8011 -1.5250
  847TIP3    H2 2548   3.722   0.843   2.984 -0.8930 -1.1177 -0.4041
  848TIP3   OH2 2549   3.479   2.105   3.729 -0.2392  0.3644 -0.1029
  848TIP3    H1 2550   3.542   2.052   3.680  1.0204  0.7453  1.0436
  848TIP3    H2 2551   3.532   2.157   3.788 -1.6475  0.5729  1.0441
  849TIP3   OH2 2552   1.024   4.516   1.159  0.0656 -0.2268  0.4247
  849TIP3    H1 2553   1.104   4.514   1.213 -0.1076 -0.9764  0.6728
  849TIP3    H2 2554   0.982   4.432   1.177  0.0629 -0.5513 -0.9846
  850TIP3   OH2 2555   1.152   3.964   2.442 -0.2645 -0.1352  0.2671
  850TIP3    H1 2556   1.171   4.054   2.417 -1.5307  0.2935  0.7908
  850TIP3    H2 2557   1.145   3.966   2.537  2.1060 -1.2846  0.5327
  851TIP3   OH2 2558   1.541   1.411   3.717  0.5839 -0.4942  0.1601
  851TIP3    H1 2559   1.569   1.440   3.630  2.4040  1.2190  1.2353
  851TIP3    H2 2560   1.446   1.428   3.718  0.5630 -0.3628 -1.4056
  852TIP3   OH2 2561   0.595   2.666   1.180 -0.2761  0.1732 -0.1674
  852TIP3    H1 2562   0.521   2.681   1.121 -0.0060  0.3208 -0.4701
  852TIP3    H2 2563   0.615   2.573   1.170 -0.2424  0.1937 -0.2961
  853TIP3   OH2 2564   0.963   5.203   0.577  0.1379  0.0555  0.2064
  853TIP3    H1 2565   0.936   5.130   0.633 -2.4070  1.5017  1.0207
  853TIP3    H2 2566   0.993   5.270   0.639  1.4746  0.1262 -0.4723
  854TIP3   OH2 2567   1.232   1.867   4.249  0.6760  0.1468  0.1492
  854TIP3    H1 2568   1.246   1.922   4.326  0.6154 -0.5358  0.6613
  854TIP3    H2 2569   1.149   1.822   4.267  1.3575 -1.0759  0.3488
  855TIP3   OH2 2570   6.022   5.431   1.286  0.3000  0.3688  0.1666
  855TIP3    H1 2571   6.053   5.374   1.357  2.2252  0.7131 -0.3345
  855TIP3    H2 2572   6.078   5.408   1.212 -0.4420  1.3170 -0.7073
  856TIP3   OH2 2573   2.149   2.555   4.350 -0.1724  0.0813  0.2530
  856TIP3    H1 2574   2.227   2.612   4.352 -0.9236  1.1944 -0.8538
  856TIP3    H2 2575   2.120   2.557   4.259 -1.7407  0.0186  0.7275
  857TIP3   OH2 2576   1.045   5.863   2.862 -0.3215  0.3525 -0.1022
  857TIP3    H1 2577   1.107   5.792   2.879 -0.5888  0.0270 -0.4552
  857TIP3    H2 2578   0.975   5.821   2.813 -1.4068  0.4639  1.3119
  858TIP3   OH2 2579   2.778   1.540   4.450 -0.1125 -0.2680 -0.2316
  858TIP3    H1 2580   2.826   1.500   4.523 -1.7485 -1.9801 -0.0021
  858TIP3    H2 2581   2.686   1.523   4.469 -0.6574  0.1978 -2.1584
  859TIP3   OH2 2582   1.559   0.349   4.757  0.2910 -0.2921  0.1124
  859TIP3    H1 2583   1.576   0.335   4.850 -0.9078  0.8582  0.5411
  859TIP3    H2 2584   1.464   0.343   4.749  0.3597 -0.1422 -1.0052
  860TIP3   OH2 2585   0.785   4.796   0.812 -0.1889  0.6329 -0.4284
  860TIP3    H1 2586   0.825   4.764   0.892 -1.3497  0.1982  0.0065
  860TIP3    H2 2587   0.725   4.726   0.786 -2.2456  2.0897  0.1416
  861TIP3   OH2 2588   4.972   3.345   3.188 -0.1323 -0.1861 -0.0959
  861TIP3    H1 2589   5.002   3.376   3.273 -2.3027 -0.6784  0.9211
  861TIP3    H2 2590   4.977   3.422   3.131  0.9388  0.2526  0.5611
  862TIP3   OH2 2591   2.311   4.786   1.651  0.5044  0.1986 -0.2449
  862TIP3    H1 2592   2.372   4.716   1.630 -1.2073 -2.0891  1.7714
  862TIP3    H2 2593   2.240   4.776   1.587  0.5487  0.5093 -0.3437
  863TIP3   OH2 2594   0.611   1.069   1.875  0.0434  0.3642 -0.8621
  863TIP3    H1 2595   0.691   1.036   1.915  0.6976  1.1404 -1.4757
  863TIP3    H2 2596   0.610   1.030   1.787 -0.3364  0.2348 -0.8026
  864TIP3   OH2 2597   0.459   3.801   2.269  0.3373  0.1711  0.0854
  864TIP3    H1 2598   0.381   3.792   2.323  0.3230 -2.0774 -0.2231
  864TIP3    H2 2599   0.431   3.852   2.193 -0.7400 -0.3080  0.1533
  865TIP3   OH2 2600   0.115   4.084   1.269 -0.3003  0.2229 -0.2152
  865TIP3    H1 2601   0.031   4.039   1.263  0.2825 -0.8659 -0.6967
  865TIP3    H2 2602   0.137   4.081   1.362 -0.8366  0.6125 -0.0713
  866TIP3   OH2 2603   3.030   0.069   4.157  0.0401  0.5283  0.0073
  866TIP3    H1 2604   2.968   0.100   4.090 -0.1398 -1.0902 -0.6353
  866TIP3    H2 2605   3.105   0.038   4.106 -0.5649 -1.7769  0.4323
  867TIP3   OH2 2606   4.413   2.422   3.219  0.0701 -0.4223  0.4554
  867TIP3    H1 2607   4.367   2.403   3.137 -1.7258  0.5774  1.1751
  867TIP3    H2 2608   4.454   2.339   3.244  0.9397 -0.6691 -1.5825
  868TIP3   OH2 2609   2.566   3.736   3.629 -0.4169  0.2466 -0.5998
  868TIP3    H1 2610   2.530   3.806   3.684  0.5192 -0.9213  1.6489
  868TIP3    H2 2611   2.635   3.779   3.579 -1.8794  1.5474 -1.6060
  869TIP3   OH2 2612   6.276   5.757   3.751  0.1598  0.1168 -0.2349
  869TIP3    H1 2613   6.371   5.745   3.743 -0.1291 -1.4158 -2.3972
  869TIP3    H2 2614   6.266   5.824   3.819  2.7349 -0.2998  0.6734
  870TIP3   OH2 2615   0.280   1.779   0.711 -0.1618 -0.0679 -0.0016
  870TIP3    H1 2616   0.314   1.812   0.795  0.1556  1.5522 -0.7185
  870TIP3    H2 2617   0.355   1.782   0.652 -0.5991 -0.2859 -0.5804
  871TIP3   OH2 2618   0.010   2.593   4.729  0.4520  0.1600  0.3439
  871TIP3    H1 2619   0.077   2.558   4.788 -0.3038 -0.5969  0.7816
  871TIP3    H2 2620  -0.045   2.647   4.786 -0.5552 -0.9436  0.4540
  872TIP3   OH2 2621   3.020   2.260   1.743  0.8605 -0.5272  0.4714
  872TIP3    H1 2622   2.936   2.235   1.784  0.7421 -0.3049  0.3680
  872TIP3    H2 2623   3.085   2.207   1.789  0.5779 -1.2931  0.0062
  873TIP3   OH2 2624   5.168   2.174   5.032 -0.1126 -0.3112  0.1554
  873TIP3    H1 2625   5.236   2.203   4.971  0.4590  0.4594  1.1277
  873TIP3    H2 2626   5.193   2.085   5.056 -1.3813 -1.3670 -2.1588
  874TIP3   OH2 2627   0.783   4.393   0.348 -0.2267 -0.2455  0.4980
  874TIP3    H1 2628   0.838   4.472   0.351 -1.3444  0.5327  1.3881
  874TIP3    H2 2629   0.765   4.374   0.440 -1.0687 -0.7590  0.2293
  875TIP3   OH2 2630   0.600   2.479   4.439 -0.8164  0.1236 -0.3543
  875TIP3    H1 2631   0.528   2.439   4.390 -0.6138  1.2900 -1.6483
  875TIP3    H2 2632   0.665   2.502   4.373  0.8170 -0.9701  0.8028
  876TIP3   OH2 2633   2.669   0.194   1.485 -0.2358 -0.1090  0.1415
  876TIP3    H1 2634   2.727   0.151   1.422 -1.2550  0.1660 -1.0225
  876TIP3    H2 2635   2.584   0.152   1.473 -1.4847  2.6693 -1.6178
  877TIP3   OH2 2636   5.786   4.069   1.785 -0.4945  0.1761  0.1367
  877TIP3    H1 2637   5.730   4.007   1.831 -1.5616  1.0378  0.0319
  877TIP3    H2 2638   5.871   4.060   1.828 -0.8134 -0.8453  0.5819
  878TIP3   OH2 2639   2.423   0.626   0.037 -0.1527  0.2154 -0.0617
  878TIP3    H1 2640   2.367   0.703   0.038  0.5432  0.7376 -0.5117
  878TIP3    H2 2641   2.489   0.643   0.104 -2.5444 -2.0064  3.2522
  879TIP3   OH2 2642   3.533   5.024   0.324  0.4012 -0.1615 -0.2653
  879TIP3    H1 2643   3.483   4.993   0.248  1.4166 -1.9413 -0.2839
  879TIP3    H2 2644   3.486   4.988   0.400  0.1252  0.4957 -0.1220
  880TIP3   OH2 2645   3.162   0.161   4.847  0.6473  0.0191  0.0987
  880TIP3    H1 2646   3.234   0.098   4.836 -0.3836 -1.0395 -1.0262
  880TIP3    H2 2647   3.165   0.214   4.767  1.2579  1.1561  0.8615
  881TIP3   OH2 2648   3.203   1.786   4.177  0.0693  0.3901 -0.1138
  881TIP3    H1 2649   3.209   1.720   4.247  1.2312  0.4863 -0.0935
  881TIP3    H2 2650   3.118   1.770   4.136  0.7550 -1.8718 -0.8253
  882TIP3   OH2 2651   0.687   5.339   0.192  0.3024 -0.0702 -0.4114
  882TIP3    H1 2652   0.681   5.345   0.288 -1.5042 -0.0948 -0.4789
  882TIP3    H2 2653   0.752   5.272   0.176 -1.5863 -2.3929  0.9043
  883TIP3   OH2 2654   3.126   0.344   2.808  0.1641  0.3121 -0.1369
  883TIP3    H1 2655   3.159   0.423   2.853 -2.0055  0.6202  1.0396
  883TIP3    H2 2656   3.114   0.280   2.878 -0.1707 -0.3236 -0.7674
  884TIP3   OH2 2657   5.850   1.918   0.053 -0.3728  0.7152 -0.0972
  884TIP3    H1 2658   5.817   1.836   0.089  1.0784  0.2752  0.3103
  884TIP3    H2 2659   5.872   1.896  -0.038  1.1889  0.2633  0.3525
  885TIP3   OH2 2660   6.113   0.055   1.214  0.0966 -0.1604 -0.0599
  885TIP3    H1 2661   6.173   0.125   1.188  0.1571  0.2217  1.0710
  885TIP3    H2 2662   6.169  -0.014   1.249 -0.1520  0.8048  2.4120
  886TIP3   OH2 2663   1.999   2.153   1.773 -0.3813  0.1992  0.5515
  886TIP3    H1 2664   1.944   2.080   1.744 -2.5092  2.1745 -0.7435
  886TIP3    H2 2665   2.058   2.170   1.700 -0.5589  0.3887  0.4516
  887TIP3   OH2 2666   2.021   3.654   3.791 -0.4754 -0.2888 -0.0032
  887TIP3    H1 2667   2.011   3.635   3.884 -2.5236 -0.0113 -0.1195
  887TIP3    H2 2668   2.000   3.571   3.747 -1.4652  0.0817 -0.2556
  888TIP3   OH2 2669   6.292   2.420   1.317  0.5660  0.3194  0.0345
  888TIP3    H1 2670   6.386   2.435   1.321  0.6565 -0.4285  1.1012
  888TIP3    H2 2671   6.273   2.367   1.394 -0.6982  0.2831 -0.2830
  889TIP3   OH2 2672   6.025   4.571   3.215  0.0300  0.0151  0.2029
  889TIP3    H1 2673   6.070   4.539   3.138 -1.1912 -0.2169 -0.4478
  889TIP3    H2 2674   5.963   4.636   3.182 -1.0114 -0.5914  0.8632
  890TIP3   OH2 2675   2.960   4.434   1.705 -0.3054 -0.1368  0.1865
  890TIP3    H1 2676   2.992   4.524   1.709  0.9277 -0.4619 -1.5001
  890TIP3    H2 2677   2.990   4.394   1.786  1.0546  0.3822 -0.0363
  891TIP3   OH2 2678   2.564   0.936   0.022 -0.1180 -0.0711  0.1672
  891TIP3    H1 2679   2.639   0.992   0.040  1.0486 -0.1735 -3.4633
  891TIP3    H2 2680   2.502   0.993  -0.024 -1.7562 -0.3098  1.9788
  892TIP3   OH2 2681   3.416   1.545   4.799  0.1858  0.1876 -0.2566
  892TIP3    H1 2682   3.392   1.625   4.753 -0.1856  1.1207  1.4942
  892TIP3    H2 2683   3.438   1.573   4.888  3.3870 -1.1985 -0.4479
  893TIP3   OH2 2684   2.812   2.375   3.552  0.4406 -0.3044  0.3549
  893TIP3    H1 2685   2.878   2.305   3.543  0.1502 -0.6125  0.6173
  893TIP3    H2 2686   2.737   2.342   3.503 -0.0822 -0.6567  1.3690
  894TIP3   OH2 2687   5.020   5.487   4.197 -0.0245  1.4152  0.0884
  894TIP3    H1 2688   5.083   5.560   4.192  3.9328 -1.6844 -0.2839
  894TIP3    H2 2689   5.002   5.465   4.106  1.4344 -0.0277  0.1158
  895TIP3   OH2 2690   5.783   2.249   0.982  0.0132 -0.3088  0.3364
  895TIP3    H1 2691   5.763   2.203   1.064  2.0260  0.2178  1.1690
  895TIP3    H2 2692   5.874   2.275   0.991 -0.0288  0.6616 -1.6708
  896TIP3   OH2 2693   0.417   1.676   1.672  0.1529 -0.0563  0.4441
  896TIP3    H1 2694   0.334   1.629   1.660  0.3258 -0.2424 -0.0064
  896TIP3    H2 2695   0.401   1.763   1.635  0.2125 -0.1466  0.2070
  897TIP3   OH2 2696   0.968   5.699   2.410  0.0558 -0.4779  0.2948
  897TIP3    H1 2697   0.918   5.754   2.351 -1.8441 -0.7566  1.5716
  897TIP3    H2 2698   1.014   5.760   2.468  1.1995 -0.2269 -0.8290
  898TIP3   OH2 2699   2.285   4.339   0.530 -0.4207  0.2662  0.3207
  898TIP3    H1 2700   2.288   4.435   0.536  0.4399  0.3773 -1.3615
  898TIP3    H2 2701   2.192   4.318   0.533 -0.6163  1.1414  0.7852
  899TIP3   OH2 2702   6.008   5.241   3.999 -0.8104  0.1442  0.2222
  899TIP3    H1 2703   5.932   5.200   4.042 -0.2931 -0.6183  0.4370
  899TIP3    H2 2704   6.083   5.212   4.051 -0.4571  1.7917  0.6760
  900TIP3   OH2 2705   0.487   0.318   4.918  0.1524  0.3676  0.1339
  900TIP3    H1 2706   0.434   0.239   4.904 -0.4685  0.4301  1.9152
  900TIP3    H2 2707   0.577   0.288   4.910 -0.0839 -0.4738  0.5597
  901TIP3   OH2 2708   4.709   0.313   1.163  0.1879 -0.4230  0.2024
  901TIP3    H1 2709   4.747   0.391   1.204  0.2546 -0.4648  0.2219
  901TIP3    H2 2710   4.748   0.240   1.212  0.8527 -0.5007 -0.4170
  902TIP3   OH2 2711   2.510   4.591   1.491  0.0544  0.3757  0.1684
  902TIP3    H1 2712   2.449   4.604   1.419 -1.5548 -0.5682  1.3079
  902TIP3    H2 2713   2.561   4.514   1.466  0.8772  1.1974 -0.8078
  903TIP3   OH2 2714   1.720   5.643   2.099  0.3376  0.1980 -0.3053
  903TIP3    H1 2715   1.733   5.697   2.176 -0.7638 -0.5265  0.4238
  903TIP3    H2 2716   1.634   5.669   2.065 -0.2108 -1.0367  0.0509
  904TIP3   OH2 2717   5.523   2.488   0.282  0.4549  0.5347  0.1290
  904TIP3    H1 2718   5.591   2.442   0.331  0.8542 -0.8920 -1.6616
  904TIP3    H2 2719   5.558   2.576   0.267  0.7169  0.6856  1.5310
  905TIP3   OH2 2720   6.182   2.074   0.996 -0.0871 -0.5697  0.6169
  905TIP3    H1 2721   6.272   2.073   0.965 -0.4628 -0.7401 -0.5364
  905TIP3    H2 2722   6.189   2.070   1.091  1.1439  0.7416  0.6143
  906TIP3   OH2 2723   3.004   4.312   1.940 -0.2514 -0.0646  0.6434
  906TIP3    H1 2724   3.057   4.357   2.005  1.5240 -0.4304 -0.4920
  906TIP3    H2 2725   2.997   4.222   1.972  1.1036 -0.3908  0.1040
  907TIP3   OH2 2726   0.319   0.036   2.949  0.0954 -0.1281  0.1497
  907TIP3    H1 2727   0.290  -0.033   3.009 -0.3557 -0.7658 -0.7763
  907TIP3    H2 2728   0.246   0.047   2.889  0.3378  0.8747  0.0306
  908TIP3   OH2 2729   0.364   3.911   3.922  0.2871  0.0561 -0.4254
  908TIP3    H1 2730   0.282   3.960   3.933 -0.4199 -0.8822 -1.2710
  908TIP3    H2 2731   0.418   3.937   3.996 -1.2435 -0.2228  0.8288
  909TIP3   OH2 2732   3.607   1.074   5.053 -0.2918 -0.3420 -0.2214
  909TIP3    H1 2733   3.614   0.986   5.090  0.9736  0.9369  2.9381
  909TIP3    H2 2734   3.636   1.132   5.124 -0.3867  2.5939 -2.4111
  910TIP3   OH2 2735   2.670   2.585   1.173 -0.2375 -0.4800  0.2108
  910TIP3    H1 2736   2.611   2.597   1.099 -0.4401 -1.0145  0.2889
  910TIP3    H2 2737   2.644   2.652   1.236 -1.2500 -1.1900  0.5608
  911TIP3   OH2 2738   0.626   5.822   2.572  0.1675  0.4534 -0.0162
  911TIP3    H1 2739   0.710   5.868   2.563  0.5521 -0.2577 -0.0800
  911TIP3    H2 2740   0.650   5.730   2.584 -0.5412  0.4397  1.4738
  912TIP3   OH2 2741   3.329   3.021   0.821 -0.5305  0.0131  0.3388
  912TIP3    H1 2742   3.311   3.003   0.729 -0.1040 -1.9386  0.6046
  912TIP3    H2 2743   3.348   3.115   0.823  0.1342 -0.0275 -1.6612
  913TIP3   OH2 2744   2.833   5.831   1.594  0.2931  0.8935  0.1294
  913TIP3    H1 2745   2.849   5.811   1.501 -0.0271  1.1549  0.0188
  913TIP3    H2 2746   2.864   5.921   1.605  0.4334  0.8245  0.3041
  914TIP3   OH2 2747   1.140   4.927   1.950  0.4399 -0.0817  0.0545
  914TIP3    H1 2748   1.122   4.890   2.037  0.8133 -0.4081 -0.0074
  914TIP3    H2 2749   1.141   5.022   1.964 -2.4571  0.0653 -0.1256
  915TIP3   OH2 2750   3.512   1.780   4.391 -0.3552  0.0328 -0.7565
  915TIP3    H1 2751   3.586   1.809   4.338  1.6620  2.7954  3.1126
  915TIP3    H2 2752   3.445   1.846   4.378  0.0569  0.5902 -0.1304
  916TIP3   OH2 2753   2.977   2.623   1.974  0.1481 -0.2620 -0.3463
  916TIP3    H1 2754   2.996   2.636   2.067 -2.6112  0.4369  0.1995
  916TIP3    H2 2755   2.982   2.711   1.936  0.6001 -0.4475 -0.7205
  917TIP3   OH2 2756   4.843   1.577   1.213  1.0188 -0.2252  0.0485
  917TIP3    H1 2757   4.925   1.587   1.165 -0.4938 -1.0120 -2.9129
  917TIP3    H2 2758   4.781   1.632   1.166 -0.1101  0.6824  2.4733
  918TIP3   OH2 2759   5.196   3.191   3.499 -0.4397 -0.5207  0.3225
  918TIP3    H1 2760   5.155   3.151   3.576 -1.4592  0.1978  0.1823
  918TIP3    H2 2761   5.225   3.277   3.531 -3.3375  0.9818 -0.6600
  919TIP3   OH2 2762   2.927   2.772   4.368  0.4389 -0.7419 -0.0077
  919TIP3    H1 2763   2.935   2.810   4.456 -2.6229  0.0584  0.0465
  919TIP3    H2 2764   2.885   2.688   4.383 -2.6415  0.5190 -0.7267
  920TIP3   OH2 2765   1.746   0.018   3.017  0.9607  0.4340  0.4792
  920TIP3    H1 2766   1.652   0.008   3.005  0.8908  1.0877  0.4302
  920TIP3    H2 2767   1.756   0.102   3.062  1.5573  0.7672 -0.2343
  921TIP3   OH2 2768   3.709   5.074   3.261 -0.5597 -0.3364 -0.4993
  921TIP3    H1 2769   3.625   5.038   3.233 -0.6201 -0.2711 -0.4038
  921TIP3    H2 2770   3.775   5.016   3.223 -0.7043 -2.2085  1.9139
  922TIP3   OH2 2771   5.859   1.873   2.217  0.3713 -0.6844  0.0823
  922TIP3    H1 2772   5.890   1.963   2.223 -1.0668 -0.2155  0.9601
  922TIP3    H2 2773   5.904   1.827   2.289 -1.9958  0.3544  2.3856
  923TIP3   OH2 2774   3.212   0.526   3.396 -0.6491  0.7375 -0.1084
  923TIP3    H1 2775   3.194   0.530   3.302 -1.1302 -3.2809 -0.3802
  923TIP3    H2 2776   3.280   0.591   3.411  1.3286 -0.2084 -3.7929
  924TIP3   OH2 2777   2.976   0.309   0.293 -0.3765  0.2794 -0.2691
  924TIP3    H1 2778   3.049   0.248   0.304 -0.9930 -0.3391  0.4790
  924TIP3    H2 2779   2.980   0.366   0.370 -0.3642  0.5926 -0.5000
  925TIP3   OH2 2780   1.080   1.633   3.349 -0.1353 -0.3432 -0.2795
  925TIP3    H1 2781   1.098   1.577   3.274 -0.7600  0.3359 -0.9424
  925TIP3    H2 2782   1.159   1.688   3.357  0.9690 -2.0234  1.0608
  926TIP3   OH2 2783   4.146   1.883   1.905 -0.2863 -0.4471  0.7683
  926TIP3    H1 2784   4.191   1.922   1.830  1.2130 -1.2694  1.1872
  926TIP3    H2 2785   4.081   1.948   1.931 -0.0417  0.3491 -0.5219
  927TIP3   OH2 2786   3.980   5.894   2.571 -0.4507  0.3814 -0.1750
  927TIP3    H1 2787   3.969   5.806   2.535 -1.2677  1.2221 -2.1919
  927TIP3    H2 2788   4.073   5.913   2.561 -0.5179  0.2654 -1.0963
  928TIP3   OH2 2789   2.349   4.036   3.187 -0.1559 -0.2854 -0.2328
  928TIP3    H1 2790   2.361   4.110   3.247 -1.8275 -1.1987  1.3268
  928TIP3    H2 2791   2.387   3.961   3.233 -1.3060 -0.9726 -0.3490
  929TIP3   OH2 2792   5.375   4.725   0.266  0.2368 -0.2572  0.7332
  929TIP3    H1 2793   5.301   4.762   0.315 -0.2892  0.0626 -0.2785
  929TIP3    H2 2794   5.441   4.793   0.267 -0.1498  0.1353  0.1750
  930TIP3   OH2 2795   2.763   4.995   4.518  0.5725 -0.1227  0.6973
  930TIP3    H1 2796   2.756   4.934   4.591  1.4990 -0.4427  0.5301
  930TIP3    H2 2797   2.709   4.956   4.449 -0.0957  0.0501  1.1124
  931TIP3   OH2 2798   5.841   5.618   4.719  0.1968  0.5582 -0.1850
  931TIP3    H1 2799   5.886   5.683   4.772 -1.2022  0.7163  0.8780
  931TIP3    H2 2800   5.859   5.643   4.629 -0.6764  2.7237  0.1775
  932TIP3   OH2 2801   4.476   1.984   2.694  0.0107  1.2547 -0.5127
  932TIP3    H1 2802   4.549   1.953   2.748  0.4597  2.2250 -0.5241
  932TIP3    H2 2803   4.515   2.000   2.608 -0.6381 -0.0011 -1.0596
  933TIP3   OH2 2804   0.069   0.087   2.522  0.3134 -0.0432 -0.2884
  933TIP3    H1 2805   0.135   0.151   2.496 -1.9994  2.3743 -0.6764
  933TIP3    H2 2806   0.068   0.023   2.452  1.8712  0.1370 -0.5059
  934TIP3   OH2 2807   5.918   2.741   3.229 -0.3125 -0.5190 -0.8310
  934TIP3    H1 2808   5.912   2.791   3.148  3.0699  1.2861 -0.1482
  934TIP3    H2 2809   5.827   2.731   3.258 -1.3619  3.1366 -2.2972
  935TIP3   OH2 2810   0.331   2.955   0.755  0.1266  0.1476  0.6046
  935TIP3    H1 2811   0.265   2.901   0.711  1.2746 -1.5934  0.9118
  935TIP3    H2 2812   0.351   3.024   0.692 -0.6154 -0.3905 -0.2510
  936TIP3   OH2 2813   1.962   4.360   1.511  0.6733  0.0151  0.3294
  936TIP3    H1 2814   1.934   4.352   1.420 -0.8290  0.2553  0.7315
  936TIP3    H2 2815   2.055   4.380   1.506  0.4084  1.0641 -1.2013
  937TIP3   OH2 2816   0.661   1.640   1.389 -0.1433  0.1399 -0.0981
  937TIP3    H1 2817   0.686   1.657   1.480  0.2036 -1.7994  0.2263
  937TIP3    H2 2818   0.737   1.596   1.351 -0.3380  0.8024 -1.3043
  938TIP3   OH2 2819   2.877   5.644   0.610  0.2498  0.1585  0.1434
  938TIP3    H1 2820   2.883   5.714   0.676  0.7303  0.4686 -0.2212
  938TIP3    H2 2821   2.901   5.686   0.528  1.5386 -0.6398  0.0668
  939TIP3   OH2 2822   4.873   4.618   1.458  0.0563 -0.3369  0.3510
  939TIP3    H1 2823   4.891   4.619   1.364 -0.7505  1.9611  0.1524
  939TIP3    H2 2824   4.959   4.616   1.499  0.4488 -0.5375 -0.4559
  940TIP3   OH2 2825   1.106   3.610   3.821 -0.2931  0.1254 -0.2456
  940TIP3    H1 2826   1.012   3.598   3.810 -0.2709  1.0137 -1.6409
  940TIP3    H2 2827   1.144   3.587   3.736  0.9011 -1.4106  0.6471
  941TIP3   OH2 2828   4.124   1.632   0.017  0.0111 -0.3256  0.3909
  941TIP3    H1 2829   4.195   1.696   0.015 -0.3727  0.1136 -1.5498
  941TIP3    H2 2830   4.069   1.660   0.090  2.0274 -0.9852  2.2727
  942TIP3   OH2 2831   1.950   3.682   2.023  0.1351 -0.0203  0.1166
  942TIP3    H1 2832   1.876   3.730   1.984  0.1885  0.0045  0.0462
  942TIP3    H2 2833   1.932   3.590   2.002  0.9136  0.1166 -1.2340
  943TIP3   OH2 2834   2.852   0.921   0.317  0.4464 -0.2474 -0.2477
  943TIP3    H1 2835   2.911   0.952   0.250  0.4615 -1.2890 -0.7434
  943TIP3    H2 2836   2.822   0.835   0.285 -1.8873  0.5347 -0.3688
  944TIP3   OH2 2837   3.296   1.482   4.004  0.1977 -0.5741 -0.5366
  944TIP3    H1 2838   3.287   1.427   3.927 -1.7324  0.8119 -1.4184
  944TIP3    H2 2839   3.360   1.548   3.980 -1.0394  0.3762 -1.3555
  945TIP3   OH2 2840   3.235   4.210   2.466  0.2159  0.2527 -0.4589
  945TIP3    H1 2841   3.219   4.193   2.558  0.5371 -1.5555 -0.6918
  945TIP3    H2 2842   3.187   4.291   2.447 -3.2300 -1.3988  0.3660
  946TIP3   OH2 2843   5.803   1.750   0.974 -0.0088  0.5845 -0.1028
  946TIP3    H1 2844   5.709   1.751   0.955 -0.2661  0.1910  1.0860
  946TIP3    H2 2845   5.843   1.796   0.900 -1.3114  2.4338  0.2618
  947TIP3   OH2 2846   5.064   3.242   1.647 -0.1850  0.1511 -0.0056
  947TIP3    H1 2847   5.012   3.220   1.724 -0.9834  1.0620 -0.2557
  947TIP3    H2 2848   5.010   3.214   1.573 -0.0270  0.4997 -0.2567
  948TIP3   OH2 2849   1.888   0.819   2.677  0.0832  0.6233  0.2958
  948TIP3    H1 2850   1.924   0.836   2.764 -0.1201 -0.9037  0.7034
  948TIP3    H2 2851   1.965   0.793   2.625 -0.2176 -1.8566  0.9607
  949TIP3   OH2 2852   2.773   5.841   3.569 -0.3536 -0.1238  0.0630
  949TIP3    H1 2853   2.705   5.888   3.520  1.0209  2.5922  0.5882
  949TIP3    H2 2854   2.724   5.776   3.620 -2.3084  0.2491 -1.1984
  950TIP3   OH2 2855   0.444   3.274   1.235  0.1903 -0.5606  0.5356
  950TIP3    H1 2856   0.384   3.347   1.223  0.6368 -0.1775  0.6474
  950TIP3    H2 2857   0.483   3.260   1.149  0.4037 -0.4100  0.6086
  951TIP3   OH2 2858   6.125   3.516   2.357 -0.1675  0.2348 -0.3409
  951TIP3    H1 2859   6.073   3.480   2.428 -0.9626  1.1654 -0.4339
  951TIP3    H2 2860   6.211   3.532   2.396  0.0887 -1.3089 -0.1865
  952TIP3   OH2 2861   5.178   2.560   4.743 -0.1828  0.2831 -0.2400
  952TIP3    H1 2862   5.099   2.559   4.689 -1.1083 -3.5839  0.8277
  952TIP3    H2 2863   5.145   2.565   4.833  0.1974 -5.0154  0.4912
  953TIP3   OH2 2864   3.286   4.945   4.018 -0.0086 -0.2792  0.1941
  953TIP3    H1 2865   3.204   4.988   4.043 -0.2269 -0.9923  0.7615
  953TIP3    H2 2866   3.279   4.933   3.924 -0.3782  0.0434  0.1780
  954TIP3   OH2 2867   4.930   0.553   3.417 -0.2513  0.1687  0.1403
  954TIP3    H1 2868   4.996   0.621   3.433 -0.0976  0.3340 -1.0704
  954TIP3    H2 2869   4.963   0.477   3.464  0.7181  0.3068 -0.2896
  955TIP3   OH2 2870   3.413   3.113   2.337  0.2550  0.4989  0.3827
  955TIP3    H1 2871   3.319   3.119   2.319  0.0456 -0.7344  0.9921
  955TIP3    H2 2872   3.419   3.067   2.420  1.4224  0.1304  0.1149
  956TIP3   OH2 2873   4.116   1.570   2.795 -0.3843 -0.4508  0.0937
  956TIP3    H1 2874   4.193   1.622   2.817  0.0981 -1.8802  2.0738
  956TIP3    H2 2875   4.133   1.485   2.836 -2.5534 -1.1288 -0.3259
  957TIP3   OH2 2876   2.234   3.649   0.441  0.4917  0.3352 -0.0274
  957TIP3    H1 2877   2.298   3.691   0.498 -1.0110  0.1924  1.8661
  957TIP3    H2 2878   2.228   3.706   0.365  0.6750  1.9664  1.1365
  958TIP3   OH2 2879   4.506   1.397   3.397 -0.7204 -0.1447 -0.7628
  958TIP3    H1 2880   4.585   1.450   3.403  0.0777 -1.2168 -1.3465
  958TIP3    H2 2881   4.463   1.407   3.482 -0.1590  0.7438 -0.5778
  959TIP3   OH2 2882   4.355   4.364   4.208  0.3840  0.4093  0.3215
  959TIP3    H1 2883   4.361   4.359   4.113  2.4438 -1.2192  0.4691
  959TIP3    H2 2884   4.309   4.283   4.233  1.5452 -0.1388  0.7747
  960TIP3   OH2 2885   2.785   1.918   1.339  0.4165  0.1259 -0.5614
  960TIP3    H1 2886   2.877   1.891   1.334  0.6011  0.3004  1.2417
  960TIP3    H2 2887   2.782   1.977   1.415 -1.5402 -1.4964  0.7035
  961TIP3   OH2 2888   5.091   5.429   4.477 -0.2147 -0.2702  0.1750
  961TIP3    H1 2889   5.001   5.438   4.447  0.5919  1.3583 -1.9869
  961TIP3    H2 2890   5.144   5.426   4.397  1.7472 -0.2195  1.3810
  962TIP3   OH2 2891   5.356   1.080   1.862 -0.0435  0.4266  0.0814
  962TIP3    H1 2892   5.297   1.064   1.936 -1.4386  2.0217 -0.6085
  962TIP3    H2 2893   5.438   1.108   1.903 -0.0220 -0.9464  1.0492
  963TIP3   OH2 2894   0.220   1.789   4.001 -0.4634  0.2029  0.2729
  963TIP3    H1 2895   0.184   1.702   4.017 -1.3651  0.7815  1.5675
  963TIP3    H2 2896   0.193   1.841   4.077 -1.0487  1.9421 -1.0423
  964TIP3   OH2 2897   0.771   1.256   3.010  0.3615  0.7266  0.2409
  964TIP3    H1 2898   0.789   1.194   3.080  0.5127  0.6121  0.0996
  964TIP3    H2 2899   0.676   1.249   2.995  0.2775  0.9651  0.6350
  965TIP3   OH2 2900   1.480   4.677   5.191  0.0475 -0.3831  0.2737
  965TIP3    H1 2901   1.509   4.634   5.110  1.7306 -0.9933  1.1561
  965TIP3    H2 2902   1.385   4.687   5.180  0.4070  0.9364 -2.4039
  966TIP3   OH2 2903   2.148   1.934   4.918 -0.1533 -0.0493  0.1138
  966TIP3    H1 2904   2.200   1.977   4.850  0.5800 -0.0895  0.6403
  966TIP3    H2 2905   2.057   1.940   4.886 -0.0220  1.4752 -0.0363
  967TIP3   OH2 2906   1.549   3.389   2.824 -0.2467 -0.1132 -0.0536
  967TIP3    H1 2907   1.458   3.414   2.807 -1.1715 -3.3419 -0.4614
  967TIP3    H2 2908   1.543   3.303   2.867  2.5949  0.1203  1.0385
  968TIP3   OH2 2909   0.499   5.889   1.624  0.1096  0.2017 -0.0757
  968TIP3    H1 2910   0.459   5.872   1.709  0.1946 -1.9236 -0.3831
  968TIP3    H2 2911   0.589   5.915   1.644 -0.0400  0.2918  0.4985
  969TIP3   OH2 2912   5.736   1.790   4.996  0.4036 -0.0507  0.1837
  969TIP3    H1 2913   5.680   1.754   4.928  2.1470 -1.4827 -0.5833
  969TIP3    H2 2914   5.770   1.871   4.959 -0.7243  0.5565  0.4493
  970TIP3   OH2 2915   4.014   4.654   3.972 -0.4971 -0.2874 -0.1522
  970TIP3    H1 2916   4.072   4.681   4.044  0.5997 -1.0522 -0.7212
  970TIP3    H2 2917   3.996   4.734   3.925 -0.1299  0.0154  0.2085
  971TIP3   OH2 2918   0.503   3.499   0.668  0.2200  0.4335 -0.2201
  971TIP3    H1 2919   0.555   3.573   0.637  0.1118  0.2846 -0.7786
  971TIP3    H2 2920   0.414   3.533   0.675 -0.1086  0.0028 -1.8742
  972TIP3   OH2 2921   6.286   1.405   1.670  0.0580  0.7076 -0.0392
  972TIP3    H1 2922   6.190   1.405   1.673 -0.0550  2.3947 -1.8179
  972TIP3    H2 2923   6.307   1.358   1.589  0.7640  0.3186  0.3617
  973TIP3   OH2 2924   6.050   5.923   3.717  0.0879  0.0696  0.0432
  973TIP3    H1 2925   5.960   5.896   3.696  0.2154 -1.2926  1.1298
  973TIP3    H2 2926   6.104   5.851   3.685  0.5369 -0.5056  1.9563
  974TIP3   OH2 2927   4.325   0.456   2.230  0.8904 -0.3193 -0.1492
  974TIP3    H1 2928   4.324   0.361   2.215  0.7902 -0.2960 -0.2796
  974TIP3    H2 2929   4.407   0.485   2.190  0.2501 -0.1332 -1.3698
  975TIP3   OH2 2930   3.314   5.455   1.498  0.5909  0.7067  0.4198
  975TIP3    H1 2931   3.261   5.437   1.575  0.4933 -0.3393  0.1322
  975TIP3    H2 2932   3.251   5.488   1.433  0.0505 -1.3990 -0.2281
  976TIP3   OH2 2933   1.899   5.324   4.180 -0.5632 -0.1337 -0.1334
  976TIP3    H1 2934   1.898   5.418   4.195  0.0792  0.2476 -2.2107
  976TIP3    H2 2935   1.885   5.314   4.086  2.0925 -1.9665 -0.4390
  977TIP3   OH2 2936   5.348   3.101   3.884  0.0007 -0.0047 -0.1315
  977TIP3    H1 2937   5.280   3.048   3.925 -1.6200  1.5101 -0.7218
  977TIP3    H2 2938   5.343   3.079   3.791  0.4798 -0.0398 -0.1525
  978TIP3   OH2 2939   0.484   4.666   4.459 -0.2200 -0.1298 -0.3907
  978TIP3    H1 2940   0.540   4.736   4.492 -1.5846  1.2680 -0.9255
  978TIP3    H2 2941   0.449   4.624   4.537  0.5995 -0.2212 -0.0652
  979TIP3   OH2 2942   4.075   1.679   0.890 -0.0085  0.2189 -0.3914
  979TIP3    H1 2943   4.065   1.629   0.810  0.7137 -0.1611 -0.2496
  979TIP3    H2 2944   4.004   1.649   0.946  2.0833 -2.9432  0.8628
  980TIP3   OH2 2945   2.048   1.909   1.543 -0.2981  0.3266  0.2785
  980TIP3    H1 2946   1.982   1.887   1.609 -0.7290  1.3197  0.1945
  980TIP3    H2 2947   2.028   1.850   1.470  0.2589 -0.8613  1.0531
  981TIP3   OH2 2948   5.971   1.443   5.066  0.4870  0.0428 -0.4961
  981TIP3    H1 2949   5.906   1.416   5.130  1.0084 -0.0561  0.0010
  981TIP3    H2 2950   6.027   1.366   5.054 -0.2322 -0.3054 -1.8901
  982TIP3   OH2 2951   0.804   5.231   4.034 -0.1371 -0.0703  0.1792
  982TIP3    H1 2952   0.775   5.145   4.004 -1.8823  0.4338  0.3044
  982TIP3    H2 2953   0.817   5.281   3.954  0.1335 -0.2255  0.1264
  983TIP3   OH2 2954   5.052   1.501   3.002 -0.5239  0.5216  0.5860
  983TIP3    H1 2955   5.103   1.491   2.921  0.8974  2.0585  1.2293
  983TIP3    H2 2956   5.046   1.412   3.037  1.0373  0.1541  0.0433
  984TIP3   OH2 2957   1.570   5.497   3.206  0.4306  0.2913  0.1356
  984TIP3    H1 2958   1.642   5.507   3.268  0.0686  0.3760  0.5491
  984TIP3    H2 2959   1.603   5.436   3.140  1.0289  0.6606  0.0877
  985TIP3   OH2 2960   4.156   5.915   0.553  0.0542  0.1392 -0.1081
  985TIP3    H1 2961   4.199   5.881   0.475 -1.1104 -1.2023 -0.1959
  985TIP3    H2 2962   4.071   5.872   0.555 -0.0088  0.2607  1.8151
  986TIP3   OH2 2963   5.366   3.599   0.996 -0.3590 -0.2799  0.1088
  986TIP3    H1 2964   5.365   3.506   0.973  0.0417  0.0894 -1.5398
  986TIP3    H2 2965   5.438   3.607   1.059  0.3657 -0.9059 -0.6175
  987TIP3   OH2 2966   2.489   5.085   0.817 -0.2880 -0.0754 -0.0132
  987TIP3    H1 2967   2.537   5.056   0.739 -0.3405  0.1467 -0.1288
  987TIP3    H2 2968   2.543   5.155   0.854 -1.4622  1.5798 -1.2601
  988TIP3   OH2 2969   3.223   2.308   4.306 -0.3912  0.1946  0.0556
  988TIP3    H1 2970   3.196   2.232   4.255 -0.6659  0.4359 -0.1608
  988TIP3    H2 2971   3.194   2.288   4.395 -2.3830  0.9561 -0.3700
  989TIP3   OH2 2972   1.536   0.597   4.502 -0.5334  0.1996 -0.1533
  989TIP3    H1 2973   1.477   0.525   4.481 -0.0079 -0.8636  1.7133
  989TIP3    H2 2974   1.624   0.561   4.490 -0.2565  0.3430  1.2306
  990TIP3   OH2 2975   1.490   0.264   2.184  0.4365 -0.1217  0.4937
  990TIP3    H1 2976   1.412   0.312   2.212  1.8872  2.2405  0.7737
  990TIP3    H2 2977   1.480   0.253   2.090 -0.8834 -1.1999  0.7281
  991TIP3   OH2 2978   2.383   3.090   0.163  0.0511  0.0475 -0.5099
  991TIP3    H1 2979   2.416   3.050   0.243  0.7320  0.0010 -0.8059
  991TIP3    H2 2980   2.288   3.085   0.171  0.1103  0.4555  0.4941
  992TIP3   OH2 2981   0.205   2.823   4.274 -0.0438 -0.0905  0.1730
  992TIP3    H1 2982   0.248   2.764   4.211 -0.0720 -1.2311  1.1806
  992TIP3    H2 2983   0.200   2.907   4.229  2.8831  0.0175 -0.1375
  993TIP3   OH2 2984   5.313   2.302   4.809  0.2136 -0.3770  0.3067
  993TIP3    H1 2985   5.369   2.273   4.737  0.1739 -0.1405  0.1810
  993TIP3    H2 2986   5.281   2.387   4.781 -0.2385 -0.5287  0.3630
  994TIP3   OH2 2987   0.857   1.724   4.493  0.0597  0.8062 -0.3498
  994TIP3    H1 2988   0.911   1.691   4.421 -1.4950  0.8228 -1.5801
  994TIP3    H2 2989   0.809   1.797   4.455 -0.3120  1.2424  0.9137
  995TIP3   OH2 2990   0.168   1.882   2.543  0.5410  0.1830 -0.1725
  995TIP3    H1 2991   0.214   1.925   2.471 -0.4025  2.9622  0.7558
  995TIP3    H2 2992   0.089   1.847   2.504  0.2958  1.1960 -0.6134
  996TIP3   OH2 2993   6.091   4.621   2.404 -0.5078  0.2674  0.5353
  996TIP3    H1 2994   6.175   4.579   2.421 -1.1830 -0.9577  0.9327
  996TIP3    H2 2995   6.066   4.661   2.487  0.0333  1.3126  0.2130
  997TIP3   OH2 2996   4.823   3.427   2.011 -1.3459  0.4007  0.2830
  997TIP3    H1 2997   4.898   3.474   2.047 -1.1085  0.0683  0.2304
  997TIP3    H2 2998   4.785   3.487   1.947 -0.8243  0.3746 -0.0518
  998TIP3   OH2 2999   4.292   2.110   2.431 -0.1485  0.4195 -0.0939
  998TIP3    H1 3000   4.270   2.111   2.524  0.8885 -1.3497  0.2144
  998TIP3    H2 3001   4.320   2.020   2.414 -0.0056  0.7872 -2.0531
  999TIP3   OH2 3002   6.005   2.603   2.530  0.4620 -0.5393 -0.0816
  999TIP3    H1 3003   5.969   2.691   2.520  1.0514 -0.3176 -0.3010
  999TIP3    H2 3004   5.931   2.549   2.559  0.0060 -0.0585 -0.3519
 1000TIP3   OH2 3005   4.159   2.352   1.850  0.2568 -0.6341  0.0856
 1000TIP3    H1 3006   4.117   2.426   1.807  1.4619  0.3071  0.4788
 1000TIP3    H2 3007   4.185   2.384   1.936  0.7502 -1.5175  0.2864
 1001TIP3   OH2 3008   2.115   3.877   0.899 -0.0856 -0.7867  0.1237
 1001TIP3    H1 3009   2.155   3.793   0.876  0.5529 -0.0896 -1.4434
 1001TIP3    H2 3010   2.027   3.873   0.861  0.3861 -0.2896 -1.0843
 1002TIP3   OH2 3011   6.249   0.045   1.496 -0.4125  0.1050 -0.4924
 1002TIP3    H1 3012   6.292  -0.022   1.443 -0.6924 -1.6934  1.4385
 1002TIP3    H2 3013   6.286   0.127   1.465  1.4405 -1.0742 -1.6144
 1003TIP3   OH2 3014   4.657   2.499   0.453 -0.5815  0.6016  0.4363
 1003TIP3    H1 3015   4.618   2.575   0.495 -1.1285  0.4832  0.1542
 1003TIP3    H2 3016   4.615   2.495   0.367 -0.3670  0.1352  0.3512
 1004TIP3   OH2 3017   2.508   3.077   1.918  0.4040 -0.0522 -0.6179
 1004TIP3    H1 3018   2.459   3.002   1.951 -1.1833  1.0792 -0.2833
 1004TIP3    H2 3019   2.495   3.075   1.823  0.3587 -0.1879 -0.6087
 1005TIP3   OH2 3020   0.818   4.536   2.878  0.7771 -0.2201 -0.3522
 1005TIP3    H1 3021   0.791   4.467   2.938  0.0367  1.5755  1.4702
 1005TIP3    H2 3022   0.785   4.616   2.916  2.3416  1.2819 -1.9497
 1006TIP3   OH2 3023   1.172   0.205   3.797 -0.1017  0.6618  0.6266
 1006TIP3    H1 3024   1.164   0.222   3.890  0.4008 -0.5384  0.9180
 1006TIP3    H2 3025   1.266   0.192   3.783 -0.2752 -0.1666  0.1551
 1007TIP3   OH2 3026   5.804   0.554   2.138 -0.3401  0.6803  0.4823
 1007TIP3    H1 3027   5.842   0.642   2.134  0.6108  0.2475 -1.0551
 1007TIP3    H2 3028   5.781   0.541   2.230  1.5574  1.6853  1.1426
 1008TIP3   OH2 3029   2.359   4.858   0.383  0.0478 -0.2800  0.1212
 1008TIP3    H1 3030   2.325   4.816   0.304  0.3467 -0.9347  0.3366
 1008TIP3    H2 3031   2.316   4.813   0.455 -0.7803  0.8084  0.3325
 1009TIP3   OH2 3032   3.885   4.580   3.320 -0.0516  0.1326  0.1517
 1009TIP3    H1 3033   3.948   4.533   3.265 -1.0087 -0.2099 -0.6868
 1009TIP3    H2 3034   3.919   4.669   3.324  0.8717 -0.2163  0.3325
 1010TIP3   OH2 3035   1.980   3.663   2.805 -0.8137  0.5156 -0.5090
 1010TIP3    H1 3036   1.999   3.612   2.727 -3.4558  0.8662 -1.4836
 1010TIP3    H2 3037   2.036   3.741   2.797 -1.4977  0.8585 -2.4158
 1011TIP3   OH2 3038   3.610   4.142   2.153 -0.5995  0.3265 -0.0093
 1011TIP3    H1 3039   3.583   4.151   2.244  0.9880  0.5240  0.4835
 1011TIP3    H2 3040   3.551   4.076   2.116 -1.6156  0.6479  0.9971
 1012TIP3   OH2 3041   3.991   0.548   0.378 -0.4149  0.8778 -0.3309
 1012TIP3    H1 3042   4.075   0.533   0.335  0.5775 -3.6065  2.4657
 1012TIP3    H2 3043   4.014   0.595   0.458 -1.2235  2.8592 -1.1988
 1013TIP3   OH2 3044   0.949   2.583   5.078 -0.3305  0.0584 -0.2616
 1013TIP3    H1 3045   1.013   2.566   5.146 -0.6476 -1.9550 -0.4054
 1013TIP3    H2 3046   0.982   2.660   5.032  0.0727  1.2674  1.9008
 1014TIP3   OH2 3047   4.687   4.403   2.964 -0.0095  0.1255  0.0517
 1014TIP3    H1 3048   4.772   4.388   2.924  0.0090  0.2420  0.0454
 1014TIP3    H2 3049   4.635   4.326   2.942  0.5150 -0.5893  1.1961
 1015TIP3   OH2 3050   4.473   3.765   4.560 -0.2739 -0.0946  0.2281
 1015TIP3    H1 3051   4.543   3.791   4.619  0.4283 -2.9460  0.7615
 1015TIP3    H2 3052   4.508   3.781   4.472  2.1562 -3.6082  0.3611
 1016TIP3   OH2 3053   4.395   3.392   4.906  0.2284  0.3267 -0.4740
 1016TIP3    H1 3054   4.453   3.448   4.855 -0.1019  1.3195  0.2022
 1016TIP3    H2 3055   4.404   3.424   4.996 -1.2283  0.4129 -0.3248
 1017TIP3   OH2 3056   0.656   5.266   2.557 -0.1682  0.3026 -0.1829
 1017TIP3    H1 3057   0.655   5.275   2.461 -0.7886  1.0957 -0.1160
 1017TIP3    H2 3058   0.596   5.194   2.575  2.4692 -2.1334 -0.5562
 1018TIP3   OH2 3059   0.112   2.961   0.101 -0.4169 -0.2810 -0.6902
 1018TIP3    H1 3060   0.165   2.991   0.028  1.3213  1.8965  1.3310
 1018TIP3    H2 3061   0.045   3.028   0.113  0.6986  0.6114  1.0302
 1019TIP3   OH2 3062   5.636   4.350   5.068  0.6017 -1.3005 -0.2927
 1019TIP3    H1 3063   5.690   4.324   4.992 -1.1751  0.6163 -2.3592
 1019TIP3    H2 3064   5.636   4.445   5.066 -1.5631 -1.2193  0.5574
 1020TIP3   OH2 3065   4.511   5.081   2.149  0.2090  0.2859  0.5078
 1020TIP3    H1 3066   4.596   5.122   2.133  0.6706 -0.3683  1.1821
 1020TIP3    H2 3067   4.455   5.111   2.078  0.8304  1.2289  0.4107
 1021TIP3   OH2 3068   4.838   0.665   0.968 -0.3497  0.0311 -0.1013
 1021TIP3    H1 3069   4.929   0.665   0.939  1.2518 -0.4121  4.1553
 1021TIP3    H2 3070   4.805   0.752   0.947  1.7105  0.8410 -0.1454
 1022TIP3   OH2 3071   2.802   3.659   1.917  0.0951  0.2374 -0.2466
 1022TIP3    H1 3072   2.726   3.602   1.926 -0.6392  1.4321  1.8138
 1022TIP3    H2 3073   2.777   3.723   1.850  0.6083 -1.2707 -1.9623
 1023TIP3   OH2 3074   6.349   1.922   3.369 -0.2088 -0.0465 -0.8817
 1023TIP3    H1 3075   6.366   1.993   3.308 -0.9249  1.7746  0.9278
 1023TIP3    H2 3076   6.263   1.943   3.407  0.3724 -0.8919  1.0003
 1024TIP3   OH2 3077   6.212   4.773   0.118  0.1985 -0.0641  0.9335
 1024TIP3    H1 3078   6.147   4.722   0.072 -0.3573  2.2543 -1.0660
 1024TIP3    H2 3079   6.189   4.763   0.211  0.2968 -3.4690  0.7182
 1025TIP3   OH2 3080   4.318   3.105   3.956  0.1882 -0.8234 -0.6014
 1025TIP3    H1 3081   4.309   3.094   4.051  0.8511  0.0482 -0.4310
 1025TIP3    H2 3082   4.399   3.060   3.934 -0.2278 -1.4757 -0.8515
 1026TIP3   OH2 3083   3.787   4.847   3.105  0.5310 -0.4376 -0.1264
 1026TIP3    H1 3084   3.855   4.825   3.169 -1.1583  0.4849  2.1211
 1026TIP3    H2 3085   3.727   4.772   3.109  0.8629 -0.7828 -1.3484
 1027TIP3   OH2 3086   1.351   2.476   3.007 -0.2611  0.0036 -0.4476
 1027TIP3    H1 3087   1.357   2.567   2.978  0.4814 -0.0138 -0.3635
 1027TIP3    H2 3088   1.430   2.462   3.059 -1.0337 -0.2827  0.6922
 1028TIP3   OH2 3089   1.804   5.526   1.485  0.0560 -0.2082 -0.0874
 1028TIP3    H1 3090   1.761   5.600   1.443 -1.0373 -1.4562 -1.2554
 1028TIP3    H2 3091   1.742   5.495   1.551 -0.4953 -1.4403 -1.1410
 1029TIP3   OH2 3092   3.799   5.262   1.961  0.0536  0.4391  0.0441
 1029TIP3    H1 3093   3.834   5.249   2.050 -0.0471  0.9398  0.1580
 1029TIP3    H2 3094   3.708   5.289   1.975 -0.0007  0.3916 -0.2173
 1030TIP3   OH2 3095   4.499   0.102   2.409 -0.8416 -0.2289  0.3002
 1030TIP3    H1 3096   4.579   0.081   2.363 -2.2252 -0.8384 -1.9659
 1030TIP3    H2 3097   4.505   0.054   2.492  1.5293  0.5845  0.6835
 1031TIP3   OH2 3098   2.878   5.914   2.960 -0.0036  1.1276  0.1716
 1031TIP3    H1 3099   2.937   5.873   2.897 -0.8243  1.4978 -0.8894
 1031TIP3    H2 3100   2.874   5.853   3.033 -0.3805 -0.2003 -0.9077
 1032TIP3   OH2 3101   0.886   3.814   0.258 -0.2837  0.4111  0.6682
 1032TIP3    H1 3102   0.793   3.795   0.243  0.0481 -0.1085 -0.8208
 1032TIP3    H2 3103   0.918   3.847   0.174  1.2406 -0.9002  0.7042
 1033TIP3   OH2 3104   2.980   4.731   4.087  0.3373 -0.2377  0.5530
 1033TIP3    H1 3105   2.982   4.727   3.991 -1.6905 -3.0175  0.5104
 1033TIP3    H2 3106   2.940   4.816   4.106  0.8630  0.4070 -1.0282
 1034TIP3   OH2 3107   5.908   1.947   0.831 -0.1307  0.2416 -0.1328
 1034TIP3    H1 3108   5.884   1.989   0.914 -0.3381  0.1548 -0.1478
 1034TIP3    H2 3109   5.999   1.972   0.817 -0.0146  0.0436  0.2539
 1035TIP3   OH2 3110   3.555   3.808   3.953  0.2627 -0.6775 -0.3889
 1035TIP3    H1 3111   3.469   3.849   3.965 -0.1273 -1.2846 -1.0710
 1035TIP3    H2 3112   3.605   3.836   4.030  0.6030  2.5082 -1.5889
 1036TIP3   OH2 3113   3.900   0.791   5.141 -0.1620 -0.0118 -0.4098
 1036TIP3    H1 3114   3.813   0.808   5.175 -0.5631 -1.5485 -0.5827
 1036TIP3    H2 3115   3.889   0.717   5.082  1.4815 -1.3023  0.7844
 1037TIP3   OH2 3116   6.038   0.063   3.986  0.1585 -0.9597  0.5697
 1037TIP3    H1 3117   6.007  -0.021   4.022 -0.3536 -0.9454  0.1755
 1037TIP3    H2 3118   6.030   0.124   4.059  3.3339 -1.8251  1.8146
 1038TIP3   OH2 3119   3.477   0.366   5.031  0.3411 -0.3815 -0.2514
 1038TIP3    H1 3120   3.546   0.348   4.967  1.3716  1.1513  0.3696
 1038TIP3    H2 3121   3.478   0.461   5.041 -1.0993 -0.4255  0.6405
 1039TIP3   OH2 3122   5.231   4.054   0.784  0.3898  0.7450  0.9575
 1039TIP3    H1 3123   5.296   4.123   0.791 -0.0356  1.0945  1.5427
 1039TIP3    H2 3124   5.240   4.004   0.865  2.3661 -1.4263 -0.4246
 1040TIP3   OH2 3125   3.139   0.692   5.118  0.0950 -0.2778 -0.4274
 1040TIP3    H1 3126   3.133   0.701   5.023  1.2292 -0.0818 -0.4946
 1040TIP3    H2 3127   3.221   0.644   5.132 -0.1849 -0.5100  0.4413
 1041TIP3   OH2 3128   0.473   2.914   4.863 -0.0793 -0.1232 -0.2413
 1041TIP3    H1 3129   0.405   2.923   4.931  0.3308  0.8274  0.0632
 1041TIP3    H2 3130   0.450   2.981   4.798  0.5103  0.1326 -0.1875
 1042TIP3   OH2 3131   6.300   2.797   2.211 -0.5882 -0.4331 -0.2511
 1042TIP3    H1 3132   6.305   2.821   2.118  0.5110 -0.4519 -0.2065
 1042TIP3    H2 3133   6.287   2.702   2.209  0.9577 -0.6590 -0.3889
 1043TIP3   OH2 3134   0.921   5.362   2.576  0.2923  0.0700  0.5892
 1043TIP3    H1 3135   0.960   5.343   2.661  0.3253 -2.8363  0.0352
 1043TIP3    H2 3136   0.835   5.321   2.579  0.4930 -0.5426 -0.9132
 1044TIP3   OH2 3137   1.596   0.942   4.125 -0.4768 -0.1941  0.6522
 1044TIP3    H1 3138   1.528   0.927   4.190  0.7075 -1.7014  1.5987
 1044TIP3    H2 3139   1.601   0.859   4.077 -0.6227  0.5603 -0.7144
 1045TIP3   OH2 3140   0.178   1.539   2.327 -0.1426  0.2793 -0.2306
 1045TIP3    H1 3141   0.236   1.575   2.394  0.8954 -1.6907 -0.0053
 1045TIP3    H2 3142   0.147   1.456   2.363  0.9601 -1.1741 -2.3961
 1046TIP3   OH2 3143   4.023   2.822   5.122 -1.0143 -0.0164  0.2892
 1046TIP3    H1 3144   3.986   2.903   5.088 -3.3014 -1.5945 -1.1930
 1046TIP3    H2 3145   4.095   2.801   5.062 -0.4320  0.8332  0.6611
 1047TIP3   OH2 3146   3.607   0.111   1.754  0.1764  0.4946  0.1079
 1047TIP3    H1 3147   3.545   0.038   1.758 -1.3164  1.7739  1.6026
 1047TIP3    H2 3148   3.674   0.089   1.819  1.7240 -1.1378 -1.8658
 1048TIP3   OH2 3149   2.617   4.329   5.131 -0.0263 -0.4510 -0.4171
 1048TIP3    H1 3150   2.693   4.275   5.151  0.7445  0.1846 -1.5511
 1048TIP3    H2 3151   2.651   4.418   5.124 -1.2763  0.2450  1.4320
 1049TIP3   OH2 3152   5.811   3.193   0.608 -0.1016 -0.5018 -0.0085
 1049TIP3    H1 3153   5.749   3.144   0.662 -2.4930  0.6997 -1.4954
 1049TIP3    H2 3154   5.897   3.174   0.647 -1.5523 -0.3347  3.6604
 1050TIP3   OH2 3155   1.056   4.146   3.631 -0.6189 -0.2029  0.6279
 1050TIP3    H1 3156   1.093   4.230   3.655 -1.2814 -0.2262  1.7924
 1050TIP3    H2 3157   1.069   4.091   3.708 -1.5061 -0.7265  0.4205
 1051TIP3   OH2 3158   3.627   1.914   2.980  0.3333 -0.0610  0.8964
 1051TIP3    H1 3159   3.615   1.979   3.049 -0.6456 -0.1214  0.7910
 1051TIP3    H2 3160   3.561   1.847   2.998  1.7836 -1.4332  1.4524
 1052TIP3   OH2 3161   2.984   1.899   3.489  0.0266 -0.0943  0.2022
 1052TIP3    H1 3162   2.890   1.900   3.503  0.1539 -0.3145  1.1199
 1052TIP3    H2 3163   3.020   1.854   3.565  0.9108  0.4025  0.1008
 1053TIP3   OH2 3164   0.839   3.591   3.780 -0.1390 -0.8054 -0.1035
 1053TIP3    H1 3165   0.804   3.516   3.731 -1.9746  0.3239 -0.6275
 1053TIP3    H2 3166   0.773   3.660   3.768  1.4052  0.8454  0.5058
 1054TIP3   OH2 3167   4.215   3.926   4.503 -0.4323  0.4770 -0.1062
 1054TIP3    H1 3168   4.278   3.968   4.561 -1.7107  0.8948  1.0519
 1054TIP3    H2 3169   4.225   3.833   4.520  1.1580  0.3784 -1.3482
 1055TIP3   OH2 3170   2.638   4.114   2.730  0.5612  0.1297  0.1458
 1055TIP3    H1 3171   2.607   4.048   2.791  1.3376 -0.3555  0.0325
 1055TIP3    H2 3172   2.603   4.087   2.645  2.0313 -0.9662 -0.1557
 1056TIP3   OH2 3173   5.495   4.915   2.387 -0.2644  0.2518 -0.5110
 1056TIP3    H1 3174   5.445   4.904   2.306 -0.6499  0.3498 -0.2881
 1056TIP3    H2 3175   5.530   5.004   2.381  0.0576  0.1135 -0.7586
 1057TIP3   OH2 3176   5.730   5.673   2.584 -0.2539  0.0288  0.2358
 1057TIP3    H1 3177   5.664   5.662   2.653 -0.3377 -0.4964  0.0788
 1057TIP3    H2 3178   5.790   5.599   2.596  0.9248  1.0777  1.0405
 1058TIP3   OH2 3179   4.614   2.205   3.784 -0.2211 -0.4582 -0.4820
 1058TIP3    H1 3180   4.545   2.246   3.835 -0.0198 -0.8784  0.1270
 1058TIP3    H2 3181   4.612   2.252   3.700 -0.9196 -0.1500 -0.2970
 1059TIP3   OH2 3182   4.964   5.139   1.700  0.5887  0.5153 -0.6681
 1059TIP3    H1 3183   4.963   5.194   1.621 -0.8624 -0.0696 -1.0913
 1059TIP3    H2 3184   4.995   5.054   1.669 -0.1108  0.2473 -0.6565
 1060TIP3   OH2 3185   2.555   0.273   4.831 -0.3920  0.2136 -0.3798
 1060TIP3    H1 3186   2.487   0.260   4.765 -0.5184  0.5951 -0.3306
 1060TIP3    H2 3187   2.522   0.230   4.909 -0.5815  0.4076 -0.3532
 1061TIP3   OH2 3188   5.121   3.543   4.524  0.8479 -0.0747 -0.2283
 1061TIP3    H1 3189   5.056   3.556   4.593 -1.3209 -0.5997 -2.0629
 1061TIP3    H2 3190   5.085   3.472   4.471  3.0114 -0.4573 -1.2713
 1062TIP3   OH2 3191   6.056   2.742   3.821  0.1628 -0.2138  0.4409
 1062TIP3    H1 3192   6.047   2.707   3.910  0.5435  0.7404  0.8626
 1062TIP3    H2 3193   6.049   2.664   3.765 -2.3576 -0.5858  1.1315
 1063TIP3   OH2 3194   2.453   1.399   1.080 -0.2604  0.2350 -0.3571
 1063TIP3    H1 3195   2.492   1.389   1.167 -0.4780  0.2930 -0.2531
 1063TIP3    H2 3196   2.360   1.382   1.094 -0.2615  0.0326 -0.6171
 1064TIP3   OH2 3197   4.244   5.623   4.809  0.1062 -0.4509  0.0716
 1064TIP3    H1 3198   4.209   5.538   4.781  0.3895 -1.2772  2.0657
 1064TIP3    H2 3199   4.267   5.610   4.901  0.3144  1.7580  0.3748
 1065TIP3   OH2 3200   2.736   4.770   1.968 -0.6057  0.1451  0.0807
 1065TIP3    H1 3201   2.827   4.762   1.940 -1.5407 -1.5869 -3.0263
 1065TIP3    H2 3202   2.708   4.679   1.983 -2.1637  0.5264 -0.3797
 1066TIP3   OH2 3203   1.349   0.675   4.271  0.3991 -0.6766 -0.2524
 1066TIP3    H1 3204   1.355   0.634   4.184  0.6252 -0.7647 -0.1939
 1066TIP3    H2 3205   1.427   0.646   4.317  0.8603  0.2935 -0.4086
 1067TIP3   OH2 3206   2.751   1.506   3.512 -0.3349  0.0369  0.1194
 1067TIP3    H1 3207   2.807   1.581   3.531  1.4336 -1.5223  1.5537
 1067TIP3    H2 3208   2.728   1.472   3.599 -1.9614 -0.4904 -0.4877
 1068TIP3   OH2 3209   3.431   5.592   2.537  0.5566 -0.9671  0.3218
 1068TIP3    H1 3210   3.434   5.635   2.451  2.5610 -2.4922 -0.4827
 1068TIP3    H2 3211   3.405   5.502   2.517 -1.0198 -0.8387  1.6259
 1069TIP3   OH2 3212   4.725   1.483   4.644  0.1325 -0.6295 -0.4802
 1069TIP3    H1 3213   4.723   1.552   4.710 -2.2047 -1.5278  0.4795
 1069TIP3    H2 3214   4.818   1.457   4.640  0.8705  1.7455 -0.0667
 1070TIP3   OH2 3215   4.350   0.167   2.187 -0.0559 -0.2826 -0.5281
 1070TIP3    H1 3216   4.404   0.158   2.265  2.0551 -1.8579 -2.0548
 1070TIP3    H2 3217   4.369   0.089   2.135 -2.3876  0.0492 -2.0518
 1071TIP3   OH2 3218   6.000   2.735   4.135 -0.4276  0.3221 -0.0066
 1071TIP3    H1 3219   5.914   2.709   4.167 -0.4405 -0.9207 -0.9614
 1071TIP3    H2 3220   5.989   2.825   4.105 -1.9737 -0.4903 -2.0825
 1072TIP3   OH2 3221   5.255   2.663   2.154  0.4932  0.0175  0.6306
 1072TIP3    H1 3222   5.279   2.726   2.086 -1.3083  2.0165  1.7403
 1072TIP3    H2 3223   5.326   2.670   2.219  1.8152 -1.3352 -0.5961
 1073TIP3   OH2 3224   1.087   3.629   2.810 -0.2660  0.7196 -0.0025
 1073TIP3    H1 3225   0.994   3.651   2.810 -0.8021 -1.2764  0.1029
 1073TIP3    H2 3226   1.115   3.642   2.719 -0.8049  0.7763 -0.1651
 1074TIP3   OH2 3227   0.403   2.501   1.419 -0.7676 -0.3336  0.0217
 1074TIP3    H1 3228   0.345   2.477   1.490 -1.0890 -1.1288 -0.4969
 1074TIP3    H2 3229   0.472   2.553   1.460 -1.8439  0.6536  0.6423
 1075TIP3   OH2 3230   0.818   3.159   3.782  0.3625 -0.1210  0.1176
 1075TIP3    H1 3231   0.852   3.094   3.721  0.5925  1.0303 -1.0161
 1075TIP3    H2 3232   0.894   3.212   3.806 -0.1987  1.1776 -0.8200
 1076TIP3   OH2 3233   4.230   2.728   3.046  0.6304  0.1664 -0.0426
 1076TIP3    H1 3234   4.166   2.690   3.106  0.2104  1.3740  0.2928
 1076TIP3    H2 3235   4.178   2.752   2.969  0.9522 -0.2163 -0.3867
 1077TIP3   OH2 3236   4.254   0.917   3.847  0.5067  0.0559 -0.2651
 1077TIP3    H1 3237   4.342   0.882   3.862  0.1742 -1.6040 -1.8201
 1077TIP3    H2 3238   4.218   0.860   3.779 -1.9104  0.4517  0.6109
 1078TIP3   OH2 3239   4.567   5.233   3.111 -0.2225  0.3040  0.5177
 1078TIP3    H1 3240   4.614   5.316   3.103  0.6124 -0.1145  0.9959
 1078TIP3    H2 3241   4.480   5.252   3.076 -0.1285  1.4562  0.8595
 1079TIP3   OH2 3242   4.549   5.236   1.662 -0.2475  0.1862  0.5385
 1079TIP3    H1 3243   4.522   5.217   1.573 -0.0033  0.1486  0.4715
 1079TIP3    H2 3244   4.574   5.151   1.699  0.0348  0.2553  0.5116
 1080TIP3   OH2 3245   3.186   2.116   0.191 -0.5639  0.0560  0.6419
 1080TIP3    H1 3246   3.246   2.072   0.251 -2.5336 -2.2481  1.0451
 1080TIP3    H2 3247   3.123   2.161   0.248  0.1118  1.6224  0.2227
 1081TIP3   OH2 3248   0.802   5.970   4.882  0.6928 -0.0100  0.3009
 1081TIP3    H1 3249   0.860   6.043   4.866  0.7178 -0.2495 -0.7951
 1081TIP3    H2 3250   0.831   5.901   4.822 -0.9189 -0.0096 -0.5558
 1082TIP3   OH2 3251   0.886   3.303   0.992  0.1267  0.2541  0.2036
 1082TIP3    H1 3252   0.801   3.330   0.958  0.2685 -0.4645 -0.7939
 1082TIP3    H2 3253   0.878   3.208   1.004  0.5423  0.2923  0.8189
 1083TIP3   OH2 3254   1.020   2.458   4.038  0.7629 -0.4716  0.0507
 1083TIP3    H1 3255   1.000   2.550   4.057  0.9228 -0.8905  2.6048
 1083TIP3    H2 3256   0.972   2.439   3.957  1.3584  2.0475 -0.9788
 1084TIP3   OH2 3257   1.479   2.427   4.273  0.4643  0.4724  0.3673
 1084TIP3    H1 3258   1.414   2.496   4.275 -1.1874 -1.0264  2.2268
 1084TIP3    H2 3259   1.441   2.359   4.218  0.2849 -0.5087  1.6412
 1085TIP3   OH2 3260   4.646   4.096   0.847  0.2521 -0.2978 -0.3338
 1085TIP3    H1 3261   4.631   4.037   0.773 -0.8306  1.5031 -1.6317
 1085TIP3    H2 3262   4.638   4.184   0.810 -2.1311  0.7266  2.2307
 1086TIP3   OH2 3263   4.672   4.511   3.928  0.5266  0.0694 -0.2646
 1086TIP3    H1 3264   4.698   4.428   3.887  0.2399  0.0266 -0.3581
 1086TIP3    H2 3265   4.690   4.577   3.861  1.5569  0.1916  0.1053
 1087TIP3   OH2 3266   3.579   2.523   4.270  0.0645  0.3278 -0.6473
 1087TIP3    H1 3267   3.671   2.503   4.251  0.7697  0.8454  1.8503
 1087TIP3    H2 3268   3.582   2.578   4.348 -2.4025 -0.2041 -0.0901
 1088TIP3   OH2 3269   5.559   2.644   1.232 -0.1092 -0.2014 -0.3725
 1088TIP3    H1 3270   5.551   2.719   1.173  0.0406 -0.0176 -0.1648
 1088TIP3    H2 3271   5.607   2.578   1.181 -2.0889 -0.9810 -1.3066
 1089TIP3   OH2 3272   4.387   5.830   1.064  0.5882 -0.0099 -0.3624
 1089TIP3    H1 3273   4.433   5.746   1.061  1.4002  0.3577  0.9501
 1089TIP3    H2 3274   4.345   5.838   0.978 -0.6499 -2.3851 -0.0606
 1090TIP3   OH2 3275   3.543   4.621   2.613  0.0796 -0.3521 -0.4194
 1090TIP3    H1 3276   3.585   4.596   2.695  0.7026 -0.3201 -0.7185
 1090TIP3    H2 3277   3.584   4.704   2.589 -1.1033  0.3501 -0.0555
 1091TIP3   OH2 3278   1.655   5.752   1.406 -0.2782 -0.4747 -0.0973
 1091TIP3    H1 3279   1.658   5.742   1.311 -0.6724 -0.0273 -0.1590
 1091TIP3    H2 3280   1.563   5.768   1.426 -0.0079  0.8176  0.2045
 1092TIP3   OH2 3281   4.041   1.990   3.707 -0.1922  0.7519 -0.0211
 1092TIP3    H1 3282   4.005   1.972   3.793  0.4757  0.3696  0.1905
 1092TIP3    H2 3283   3.978   2.048   3.665 -1.3435 -0.3880  0.0980
 1093TIP3   OH2 3284   2.607   0.177   3.381  0.4518 -0.6946  0.1292
 1093TIP3    H1 3285   2.578   0.268   3.384  0.6895 -0.6442  0.9858
 1093TIP3    H2 3286   2.664   0.167   3.457  1.0471 -1.3503 -0.3901
 1094TIP3   OH2 3287   0.341   1.337   3.940 -0.0054 -0.7144  0.4249
 1094TIP3    H1 3288   0.304   1.267   3.995 -0.9561 -0.7310 -0.2145
 1094TIP3    H2 3289   0.360   1.408   4.001 -5.3059  1.1357  0.4340
 1095TIP3   OH2 3290   2.594   0.044   3.145  0.3109 -0.0498 -0.3753
 1095TIP3    H1 3291   2.689   0.046   3.159  0.7249  3.1106 -2.5965
 1095TIP3    H2 3292   2.559   0.091   3.220  0.6203 -0.0826 -0.2061
 1096TIP3   OH2 3293   0.951   5.586   0.457  0.2653  0.3688 -0.5073
 1096TIP3    H1 3294   1.036   5.622   0.431 -0.3391  0.7187 -2.1272
 1096TIP3    H2 3295   0.906   5.659   0.500  0.6324  0.3005 -0.0073
 1097TIP3   OH2 3296   1.004   4.465   0.896  0.5169  0.5442  0.0507
 1097TIP3    H1 3297   1.017   4.519   0.975 -0.0976  0.8615 -0.0568
 1097TIP3    H2 3298   1.092   4.435   0.873  0.5984 -0.3368  1.4010
 1098TIP3   OH2 3299   0.383   5.358   1.035 -0.0348  0.1827  0.3105
 1098TIP3    H1 3300   0.325   5.326   1.104  1.1293 -1.2550  0.6504
 1098TIP3    H2 3301   0.469   5.325   1.058  0.5839  0.6032 -1.2604
 1099TIP3   OH2 3302   5.652   3.841   1.243 -0.3136  0.1483  0.0368
 1099TIP3    H1 3303   5.686   3.762   1.202  0.3043  0.7957 -0.7403
 1099TIP3    H2 3304   5.558   3.824   1.253 -0.4799 -0.0696 -1.6090
 1100TIP3   OH2 3305   0.236   2.827   3.028  0.0085 -0.3012 -0.4857
 1100TIP3    H1 3306   0.263   2.772   3.102  0.9634 -0.3180 -0.8270
 1100TIP3    H2 3307   0.236   2.916   3.062  1.7418 -0.1502 -0.7646
 1101TIP3   OH2 3308   4.605   3.155   4.411  0.5084 -0.1972 -0.0637
 1101TIP3    H1 3309   4.641   3.180   4.496 -0.7786  0.6979  0.2431
 1101TIP3    H2 3310   4.633   3.224   4.351 -0.4102  0.3549  0.1186
 1102TIP3   OH2 3311   3.996   4.341   1.529 -0.3628 -0.9761 -0.2665
 1102TIP3    H1 3312   4.016   4.375   1.616  0.5015  0.5535 -1.0243
 1102TIP3    H2 3313   3.932   4.402   1.493  0.5919 -0.5719 -1.3495
 1103TIP3   OH2 3314   4.778   4.547   0.590 -0.2271 -0.2289 -0.1119
 1103TIP3    H1 3315   4.767   4.553   0.685 -1.6133 -1.6141 -0.1464
 1103TIP3    H2 3316   4.831   4.469   0.576 -0.3177 -0.2263 -0.4893
 1104TIP3   OH2 3317   6.212   1.878   2.850 -0.1241  0.1000 -0.3695
 1104TIP3    H1 3318   6.137   1.924   2.812 -0.2778  1.8856  1.8611
 1104TIP3    H2 3319   6.287   1.934   2.828  0.1251 -0.1298 -0.0997
 1105TIP3   OH2 3320   3.547   3.263   0.985  0.5305 -0.0405 -0.3488
 1105TIP3    H1 3321   3.502   3.279   0.902  0.1642  0.5114 -0.0521
 1105TIP3    H2 3322   3.510   3.328   1.045  2.1231  0.8285 -0.2485
 1106TIP3   OH2 3323   1.758   1.250   4.482 -0.9143 -0.1051  0.0137
 1106TIP3    H1 3324   1.752   1.342   4.458 -1.6718 -0.1216  0.1031
 1106TIP3    H2 3325   1.667   1.221   4.488 -0.7128 -1.2986 -1.7206
 1107TIP3   OH2 3326   0.660   0.892   0.743  0.9084 -0.3318  0.4647
 1107TIP3    H1 3327   0.703   0.828   0.686  0.2861 -1.5231  1.2886
 1107TIP3    H2 3328   0.575   0.909   0.701  1.4802  0.7478 -0.2858
 1108TIP3   OH2 3329   5.117   0.200   2.957 -0.4088 -0.7111 -0.1627
 1108TIP3    H1 3330   5.079   0.112   2.959  0.1322 -0.9286  1.5815
 1108TIP3    H2 3331   5.062   0.252   3.015 -0.6898  0.1259 -1.1315
 1109TIP3   OH2 3332   5.449   1.347   2.222 -0.2991  0.0471 -0.1434
 1109TIP3    H1 3333   5.382   1.328   2.156  0.9465  0.1568 -1.4891
 1109TIP3    H2 3334   5.438   1.440   2.241 -1.4285 -0.2341  0.7342
 1110TIP3   OH2 3335   0.348   5.389   3.137  0.4989 -0.3644  0.2695
 1110TIP3    H1 3336   0.301   5.358   3.214 -1.0284 -1.0727 -0.9090
 1110TIP3    H2 3337   0.383   5.475   3.163 -1.8282  0.4124  1.0616
 1111TIP3   OH2 3338   5.426   5.535   3.161  0.1551  0.4105 -0.2317
 1111TIP3    H1 3339   5.392   5.480   3.232  0.6989  2.4335  1.7129
 1111TIP3    H2 3340   5.519   5.543   3.180  0.3599  0.7462 -1.3648
 1112TIP3   OH2 3341   0.488   4.338   3.278  0.0173 -0.9251  0.0367
 1112TIP3    H1 3342   0.505   4.415   3.224  1.1900  0.2255  1.9090
 1112TIP3    H2 3343   0.417   4.293   3.233 -2.1611  2.3348 -0.1703
 1113TIP3   OH2 3344   4.152   1.579   3.434 -0.2067 -0.3247 -0.5817
 1113TIP3    H1 3345   4.242   1.606   3.415 -0.0766 -0.5378 -0.2720
 1113TIP3    H2 3346   4.130   1.520   3.361  0.1786 -0.8810 -0.2613
 1114TIP3   OH2 3347   2.800   4.632   0.588  0.1534  0.0285 -0.1186
 1114TIP3    H1 3348   2.867   4.574   0.553  1.7112  1.0458  1.0476
 1114TIP3    H2 3349   2.823   4.719   0.555 -0.3480  0.4667  0.6400
 1115TIP3   OH2 3350   4.099   4.429   3.829  0.8387 -0.6921 -0.3139
 1115TIP3    H1 3351   4.075   4.432   3.737  0.7896  0.8348 -0.2835
 1115TIP3    H2 3352   4.089   4.520   3.859 -0.3307 -1.3472  1.4849
 1116TIP3   OH2 3353   5.665   0.488   4.104  0.5430 -0.6875 -0.4981
 1116TIP3    H1 3354   5.630   0.575   4.086  3.4516  0.7798  0.4198
 1116TIP3    H2 3355   5.617   0.459   4.182 -1.9801 -0.9665 -2.0357
 1117TIP3   OH2 3356   1.591   0.422   4.074  0.1270 -0.6142  0.2553
 1117TIP3    H1 3357   1.602   0.516   4.061 -0.9666 -0.4969  0.0827
 1117TIP3    H2 3358   1.652   0.382   4.012  2.1953 -0.0432  1.8169
 1118TIP3   OH2 3359   1.190   0.169   1.723 -0.2653 -0.1178 -0.4839
 1118TIP3    H1 3360   1.214   0.255   1.757  1.9244 -1.0560  0.5247
 1118TIP3    H2 3361   1.106   0.150   1.763  0.2916  0.5956  1.1137
 1119TIP3   OH2 3362   1.824   3.189   3.747  0.6708  0.5487  0.4891
 1119TIP3    H1 3363   1.758   3.189   3.816  0.2749  2.9501  0.1774
 1119TIP3    H2 3364   1.775   3.177   3.666  0.7130  1.2485  0.3521
 1120TIP3   OH2 3365   3.874   0.609   2.519  0.3379  0.8961 -0.6928
 1120TIP3    H1 3366   3.873   0.587   2.612 -1.3355  1.2721 -0.5792
 1120TIP3    H2 3367   3.946   0.558   2.482 -1.1578 -2.0377  0.1637
 1121TIP3   OH2 3368   2.829   0.286   4.854 -0.0945  0.5263  0.1576
 1121TIP3    H1 3369   2.857   0.244   4.772  0.5046 -1.3318  1.2654
 1121TIP3    H2 3370   2.733   0.278   4.853 -0.1719  1.3063 -0.7383
 1122TIP3   OH2 3371   2.563   3.439   2.250 -0.2317  0.2759  0.1318
 1122TIP3    H1 3372   2.590   3.358   2.206  1.0885  0.9423 -0.3150
 1122TIP3    H2 3373   2.606   3.509   2.201 -0.2607  1.1610  1.3336
 1123TIP3   OH2 3374   5.752   1.811   3.432 -0.1731 -0.2432  0.2466
 1123TIP3    H1 3375   5.757   1.809   3.528  0.2297 -0.5396  0.2208
 1123TIP3    H2 3376   5.659   1.822   3.413 -0.2834 -0.4401  0.6703
 1124TIP3   OH2 3377   1.356   1.170   4.075  0.3762  0.0910  0.0420
 1124TIP3    H1 3378   1.271   1.149   4.037  0.5255  0.5343 -0.5637
 1124TIP3    H2 3379   1.418   1.153   4.004  0.9164 -1.2652  0.8060
 1125TIP3   OH2 3380   1.890   3.890   4.899 -0.4764  0.3999 -0.1921
 1125TIP3    H1 3381   1.878   3.822   4.834  3.4100 -2.2088  1.4921
 1125TIP3    H2 3382   1.981   3.917   4.891 -0.3252  1.2542  2.9289
 1126TIP3   OH2 3383   3.768   4.422   1.020  0.1971 -0.6641  0.2891
 1126TIP3    H1 3384   3.814   4.459   0.944 -1.4934  0.0561 -0.4241
 1126TIP3    H2 3385   3.677   4.414   0.992 -0.7011  0.6380  2.5964
 1127TIP3   OH2 3386   2.818   1.908   0.512 -0.3640  0.1156  0.2004
 1127TIP3    H1 3387   2.846   1.943   0.428  0.5465 -0.7840  0.1018
 1127TIP3    H2 3388   2.738   1.860   0.493 -1.2983  1.5905  0.2361
 1128TIP3   OH2 3389   4.385   0.920   0.146  0.4576 -0.7699  0.2094
 1128TIP3    H1 3390   4.382   0.843   0.088 -0.7051 -0.3677 -0.2901
 1128TIP3    H2 3391   4.309   0.972   0.120  0.8418  0.2125  1.0200
 1129TIP3   OH2 3392   1.009   2.682   0.442  0.1122  0.6452  0.1077
 1129TIP3    H1 3393   1.000   2.671   0.537  1.2143  1.6619  0.3665
 1129TIP3    H2 3394   1.103   2.669   0.426 -0.2041 -0.4281 -0.9960
 1130TIP3   OH2 3395   5.924   2.922   3.021 -0.1957  0.0804 -0.0896
 1130TIP3    H1 3396   5.879   2.990   2.971 -0.7833  0.1132  0.4716
 1130TIP3    H2 3397   6.011   2.959   3.038 -0.4388  0.6113  0.0277
 1131TIP3   OH2 3398   0.093   4.742   2.171 -0.1293  0.1061 -0.7469
 1131TIP3    H1 3399   0.051   4.749   2.257  0.7955  0.1564 -0.2842
 1131TIP3    H2 3400   0.179   4.706   2.189 -0.4706 -1.3378 -1.8382
 1132TIP3   OH2 3401   1.152   4.204   1.473  0.8898  0.1090  0.2181
 1132TIP3    H1 3402   1.063   4.176   1.492  1.1373 -1.1976 -0.4702
 1132TIP3    H2 3403   1.191   4.219   1.559  0.0704  0.5218  0.5287
 1133TIP3   OH2 3404   4.572   5.522   0.371  0.4091 -0.1848 -0.4439
 1133TIP3    H1 3405   4.625   5.459   0.323  1.7476  1.8922 -1.8638
 1133TIP3    H2 3406   4.527   5.572   0.304  2.3954  2.8667  0.2796
 1134TIP3   OH2 3407   0.984   4.100   4.895  0.3274 -0.2017 -0.2658
 1134TIP3    H1 3408   1.020   4.061   4.816  1.3371  1.3084 -0.5955
 1134TIP3    H2 3409   1.022   4.188   4.898 -2.2561  0.9959  0.1451
 1135TIP3   OH2 3410   0.451   0.714   2.797 -0.0322  0.3346 -0.4519
 1135TIP3    H1 3411   0.531   0.694   2.749  0.5849  2.1855 -0.2920
 1135TIP3    H2 3412   0.438   0.640   2.856  1.0734 -0.3836 -1.0835
 1136TIP3   OH2 3413   2.633   0.455   3.154  0.3072 -0.4238  0.5163
 1136TIP3    H1 3414   2.697   0.407   3.101  0.9317 -0.7367  1.5042
 1136TIP3    H2 3415   2.685   0.521   3.200 -0.5091  1.0902 -0.6554
 1137TIP3   OH2 3416   3.487   5.483   1.294  0.5251 -0.0059 -0.2703
 1137TIP3    H1 3417   3.485   5.576   1.318 -1.3829 -0.3808  1.2499
 1137TIP3    H2 3418   3.408   5.446   1.333  1.1266 -2.2519 -1.0124
 1138TIP3   OH2 3419   2.112   1.123   5.106  0.3716 -0.6572 -0.2305
 1138TIP3    H1 3420   2.022   1.152   5.092  0.6944 -0.3455 -1.9501
 1138TIP3    H2 3421   2.162   1.165   5.035  1.7541 -1.3198  0.3067
 1139TIP3   OH2 3422   1.808   1.941   1.686 -1.1062  0.4547  0.2593
 1139TIP3    H1 3423   1.720   1.939   1.649  0.5061 -2.0517 -4.4571
 1139TIP3    H2 3424   1.810   1.868   1.747 -2.3327  0.6423  0.5421
 1140TIP3   OH2 3425   1.038   3.221   0.177 -0.0822  0.5670 -0.4767
 1140TIP3    H1 3426   0.973   3.277   0.218 -0.7707  0.5060 -1.4392
 1140TIP3    H2 3427   1.058   3.154   0.242  0.2434  1.5212  0.4344
 1141TIP3   OH2 3428   4.464   2.538   0.867 -0.6369  1.1832 -0.2008
 1141TIP3    H1 3429   4.436   2.550   0.958 -0.9574  0.5337 -0.2145
 1141TIP3    H2 3430   4.560   2.539   0.872 -0.6193 -0.7518  0.4136
 1142TIP3   OH2 3431   2.540   0.278   2.011 -0.0441  0.7492 -0.6109
 1142TIP3    H1 3432   2.577   0.254   2.096  2.8208 -0.0990 -1.9870
 1142TIP3    H2 3433   2.445   0.268   2.023  0.3220 -0.3681  2.1620
 1143TIP3   OH2 3434   6.328   3.348   4.470 -0.1681  0.9883  0.0590
 1143TIP3    H1 3435   6.284   3.433   4.475 -1.2278  0.5706 -1.4186
 1143TIP3    H2 3436   6.276   3.291   4.527 -0.0648  1.0848  0.2506
 1144TIP3   OH2 3437   2.113   4.499   0.902 -0.0953 -0.0814 -0.0087
 1144TIP3    H1 3438   2.069   4.578   0.935 -0.5453 -0.5052  0.4305
 1144TIP3    H2 3439   2.130   4.517   0.810 -0.1201  0.5647  0.1116
 1145TIP3   OH2 3440   5.340   1.737   2.447 -0.1753 -0.2093 -0.7960
 1145TIP3    H1 3441   5.300   1.816   2.484 -2.1826 -1.1951 -0.7061
 1145TIP3    H2 3442   5.431   1.761   2.433 -0.1811  1.4003  1.3218
 1146TIP3   OH2 3443   1.322   5.339   0.673 -0.1299 -0.2105 -0.0137
 1146TIP3    H1 3444   1.272   5.339   0.755  2.2170  0.0857  1.5029
 1146TIP3    H2 3445   1.402   5.387   0.694  0.0485  0.8770 -2.8486
 1147TIP3   OH2 3446   0.356   1.404   2.592 -0.1834 -0.0890 -0.3859
 1147TIP3    H1 3447   0.417   1.380   2.522 -0.3996 -0.7660 -0.3514
 1147TIP3    H2 3448   0.363   1.499   2.599  0.1771 -0.0644 -1.0192
 1148TIP3   OH2 3449   2.555   5.281   5.047  0.2287  0.3285  0.0205
 1148TIP3    H1 3450   2.483   5.285   4.984 -0.5011 -1.0566  0.7200
 1148TIP3    H2 3451   2.632   5.311   4.998 -0.3917 -0.3315 -1.4116
 1149TIP3   OH2 3452   2.652   3.866   1.123 -0.3552 -0.4270  0.5668
 1149TIP3    H1 3453   2.633   3.927   1.051 -0.1243 -1.9020 -0.8003
 1149TIP3    H2 3454   2.567   3.827   1.143 -0.2282 -0.8504  0.2910
 1150TIP3   OH2 3455   3.403   0.039   2.439 -0.4956  0.1768  0.1360
 1150TIP3    H1 3456   3.480   0.026   2.382 -0.6750  0.0526 -0.0810
 1150TIP3    H2 3457   3.414   0.127   2.474 -1.1278  0.8297 -1.2402
 1151TIP3   OH2 3458   6.201   5.612   3.475 -0.1623  0.3978 -0.0892
 1151TIP3    H1 3459   6.153   5.656   3.545 -0.3832  1.0848 -0.6600
 1151TIP3    H2 3460   6.287   5.593   3.513  1.1231  4.1557 -0.7416
 1152TIP3   OH2 3461   3.663   0.035   2.612 -0.0621  0.2441  0.1755
 1152TIP3    H1 3462   3.609  -0.038   2.640 -0.1564  0.1918 -0.1307
 1152TIP3    H2 3463   3.646   0.041   2.518 -1.8325  2.0872  0.5300
 1153TIP3   OH2 3464   2.257   4.046   4.283  0.1352  0.0105 -0.2356
 1153TIP3    H1 3465   2.233   3.956   4.303  0.7342 -0.2592 -0.6809
 1153TIP3    H2 3466   2.174   4.093   4.276 -0.1683 -0.4620  0.1989
 1154TIP3   OH2 3467   5.909   4.917   5.136  0.3190 -0.0978 -0.1929
 1154TIP3    H1 3468   6.000   4.922   5.107  0.2150  1.1641 -0.3798
 1154TIP3    H2 3469   5.865   4.985   5.086 -0.6470 -0.4132  0.2060
 1155TIP3   OH2 3470   2.443   2.734   3.314 -1.1412  0.1664 -0.5705
 1155TIP3    H1 3471   2.390   2.667   3.270 -0.9171 -0.4748  0.1041
 1155TIP3    H2 3472   2.495   2.685   3.378 -2.3673  1.1695  1.2958
 1156TIP3   OH2 3473   2.514   4.123   1.259 -0.0782 -0.2959 -0.4171
 1156TIP3    H1 3474   2.526   4.179   1.182 -2.9362 -0.9688 -1.4917
 1156TIP3    H2 3475   2.547   4.037   1.232  0.8724 -0.0395 -0.1016
 1157TIP3   OH2 3476   5.458   1.672   2.759 -0.1533  0.7393  0.2721
 1157TIP3    H1 3477   5.491   1.643   2.674  0.5035 -0.0450  0.7746
 1157TIP3    H2 3478   5.487   1.605   2.820 -0.5046  1.3548  1.1422
 1158TIP3   OH2 3479   1.456   1.487   4.644  0.0199 -0.4539  0.0788
 1158TIP3    H1 3480   1.441   1.499   4.738 -0.3427  1.1934 -0.1439
 1158TIP3    H2 3481   1.544   1.451   4.638 -0.2040 -1.2237  1.0718
 1159TIP3   OH2 3482   5.918   4.879   3.970 -0.3652 -0.5669  0.1463
 1159TIP3    H1 3483   5.873   4.837   3.897 -1.4150 -0.2586  0.5899
 1159TIP3    H2 3484   6.011   4.867   3.952 -0.6165 -0.7818 -1.0625
 1160TIP3   OH2 3485   0.843   1.358   4.778 -0.0142 -0.1705 -0.2512
 1160TIP3    H1 3486   0.935   1.332   4.788  0.4173  1.0740 -0.7731
 1160TIP3    H2 3487   0.824   1.342   4.685 -0.3311 -0.4577 -0.1352
 1161TIP3   OH2 3488   5.145   2.388   3.597  0.9440 -0.3665  0.5217
 1161TIP3    H1 3489   5.146   2.459   3.661  1.9954  0.8740 -0.8252
 1161TIP3    H2 3490   5.222   2.336   3.618  1.1452 -0.1074  0.4284
 1162TIP3   OH2 3491   1.077   3.250   1.607  0.1377  0.0150 -0.1967
 1162TIP3    H1 3492   1.120   3.228   1.689  1.5560 -0.9744 -1.1615
 1162TIP3    H2 3493   1.123   3.327   1.574  1.2168 -1.0136 -1.2042
 1163TIP3   OH2 3494   2.176   1.532   1.454 -0.1005 -0.3409  0.0559
 1163TIP3    H1 3495   2.087   1.495   1.451 -0.1523 -0.1765 -0.8698
 1163TIP3    H2 3496   2.189   1.568   1.366  0.7302  0.0064  0.3162
 1164TIP3   OH2 3497   0.195   4.162   1.969  0.6273 -0.0516 -0.0784
 1164TIP3    H1 3498   0.138   4.208   2.031 -1.2189 -0.6076 -1.2973
 1164TIP3    H2 3499   0.222   4.229   1.907 -0.4074 -0.1876 -0.6874
 1165TIP3   OH2 3500   5.638   3.647   0.540 -0.1262 -0.0882  0.0639
 1165TIP3    H1 3501   5.647   3.722   0.481  1.0131 -0.6537 -0.5153
 1165TIP3    H2 3502   5.669   3.573   0.489  0.8497 -0.6077  1.3500
 1166TIP3   OH2 3503   0.599   0.188   1.231 -0.1449 -0.2091  0.2858
 1166TIP3    H1 3504   0.690   0.190   1.260 -0.1010  0.3073  0.1354
 1166TIP3    H2 3505   0.553   0.139   1.298  0.6207 -2.4904 -0.7694
 1167TIP3   OH2 3506   2.907   4.673   0.264  0.3755  0.2146 -0.2059
 1167TIP3    H1 3507   2.814   4.657   0.251 -0.1826  2.5835  0.4578
 1167TIP3    H2 3508   2.933   4.609   0.330 -0.5636 -0.9868 -0.9487
 1168TIP3   OH2 3509   1.257   3.419   2.877  0.3744 -0.1070  0.3602
 1168TIP3    H1 3510   1.195   3.347   2.873  0.9961 -0.7055  1.0197
 1168TIP3    H2 3511   1.206   3.497   2.857 -0.5427 -0.6064  0.7064
 1169TIP3   OH2 3512   2.824   3.827   2.162 -0.3125  0.0682 -0.2179
 1169TIP3    H1 3513   2.813   3.770   2.086 -1.1064  0.0080 -0.0719
 1169TIP3    H2 3514   2.819   3.767   2.237 -1.5571  0.3584 -0.0444
 1170TIP3   OH2 3515   4.219   0.728   1.356 -0.3342 -0.6615  0.0646
 1170TIP3    H1 3516   4.171   0.787   1.298 -0.9878 -0.5813  0.6699
 1170TIP3    H2 3517   4.301   0.775   1.375  0.0841 -0.8750 -1.1150
 1171TIP3   OH2 3518   5.314   3.535   1.772  0.1504  0.0103 -0.3411
 1171TIP3    H1 3519   5.235   3.540   1.718  0.5696  3.5731 -0.8573
 1171TIP3    H2 3520   5.281   3.507   1.858 -1.3848 -0.3149 -0.9946
 1172TIP3   OH2 3521   5.777   2.736   1.416  0.3103  0.3385 -0.7164
 1172TIP3    H1 3522   5.731   2.659   1.382  0.8967 -1.4074  2.1235
 1172TIP3    H2 3523   5.868   2.725   1.389  0.1930  0.6620 -1.2641
 1173TIP3   OH2 3524   3.567   3.517   4.283  0.3610 -0.2699 -0.9426
 1173TIP3    H1 3525   3.645   3.548   4.330  0.8459 -0.4734 -1.6009
 1173TIP3    H2 3526   3.601   3.482   4.201 -0.2813 -1.7249 -0.6052
 1174TIP3   OH2 3527   4.425   4.860   1.100 -0.4066 -0.2360 -0.2373
 1174TIP3    H1 3528   4.360   4.793   1.080 -1.2816  0.1670  1.1376
 1174TIP3    H2 3529   4.385   4.914   1.168  0.8123  0.8809 -0.3508
 1175TIP3   OH2 3530   3.518   5.553   2.805 -0.4145  0.3705 -0.0852
 1175TIP3    H1 3531   3.512   5.561   2.710 -1.4177  0.9001  0.0057
 1175TIP3    H2 3532   3.569   5.629   2.833  0.5047 -0.1720 -0.2488
 1176TIP3   OH2 3533   3.543   5.177   1.277 -0.1491  0.2080  0.0973
 1176TIP3    H1 3534   3.556   5.262   1.319 -0.5343  0.9232 -1.1672
 1176TIP3    H2 3535   3.621   5.165   1.223 -0.5168  0.2037 -0.4429
 1177TIP3   OH2 3536   2.957   2.071   5.050 -0.2390 -0.4549  0.1705
 1177TIP3    H1 3537   3.038   2.049   5.096 -0.3762  0.1453  0.7258
 1177TIP3    H2 3538   2.968   2.036   4.962  1.1450  0.6693 -0.1386
 1178TIP3   OH2 3539   0.886   1.435   3.199 -0.1861 -0.3982 -0.1158
 1178TIP3    H1 3540   0.950   1.369   3.227 -2.6397 -2.6581  0.5177
 1178TIP3    H2 3541   0.828   1.388   3.139 -2.4158  0.9721  0.8424
 1179TIP3   OH2 3542   5.274   2.231   3.844 -0.4192  0.0751  0.1444
 1179TIP3    H1 3543   5.256   2.306   3.902 -4.3038 -0.0022 -0.6638
 1179TIP3    H2 3544   5.206   2.167   3.866  0.1501 -1.4207 -2.1131
 1180TIP3   OH2 3545   3.936   2.568   0.880 -0.0360 -0.2266 -0.4697
 1180TIP3    H1 3546   3.988   2.646   0.901  0.3156 -0.4420 -0.5419
 1180TIP3    H2 3547   3.845   2.598   0.887  0.1002  0.3518 -1.1233
 1181TIP3   OH2 3548   4.751   5.335   0.560 -0.2669  0.2788 -0.1501
 1181TIP3    H1 3549   4.758   5.382   0.477  2.6475 -0.1420 -0.2625
 1181TIP3    H2 3550   4.709   5.252   0.537 -0.0478  0.4176 -1.1047
 1182TIP3   OH2 3551   1.293   5.923   4.869 -0.0190 -0.1239  0.3897
 1182TIP3    H1 3552   1.244   5.842   4.886 -0.2223 -0.1075 -0.1127
 1182TIP3    H2 3553   1.327   5.912   4.780 -1.1614  0.9023 -0.2018
 1183TIP3   OH2 3554   1.515   4.556   3.810 -0.1780 -0.0277 -0.3648
 1183TIP3    H1 3555   1.458   4.541   3.886  0.7859  0.0797  0.3969
 1183TIP3    H2 3556   1.500   4.648   3.788 -0.0918  0.0813  0.0117
 1184TIP3   OH2 3557   6.076   3.283   4.253 -0.2148 -0.3435 -0.8608
 1184TIP3    H1 3558   6.140   3.262   4.184  0.5340 -1.6482  0.1965
 1184TIP3    H2 3559   6.056   3.199   4.294 -1.4212  0.2795 -0.1198
 1185TIP3   OH2 3560   4.511   3.153   1.320  0.4272 -0.2765  0.2260
 1185TIP3    H1 3561   4.480   3.229   1.369 -0.1421 -0.2168 -0.2172
 1185TIP3    H2 3562   4.432   3.101   1.305  0.0746  0.9178 -2.7554
 1186TIP3   OH2 3563   3.799   2.422   2.564  0.1682  0.1576 -0.1340
 1186TIP3    H1 3564   3.811   2.354   2.497 -0.1422  0.8565 -0.9140
 1186TIP3    H2 3565   3.845   2.498   2.529  1.8043 -0.0451  1.4008
 1187TIP3   OH2 3566   0.544   4.076   4.467  0.0768  0.0230 -0.2159
 1187TIP3    H1 3567   0.614   4.099   4.529 -0.6133 -2.1185  1.4563
 1187TIP3    H2 3568   0.463   4.095   4.514 -0.4711  0.0066 -1.1411
 1188TIP3   OH2 3569   3.151   5.220   2.890  0.0024  0.2747  0.0895
 1188TIP3    H1 3570   3.146   5.265   2.975  0.1990 -1.6212  1.1655
 1188TIP3    H2 3571   3.236   5.176   2.892 -0.0124  0.1591 -1.0932
 1189TIP3   OH2 3572   4.747   5.367   4.134  0.4956 -0.3074 -0.3681
 1189TIP3    H1 3573   4.827   5.333   4.094 -0.4468 -1.1509 -1.6066
 1189TIP3    H2 3574   4.748   5.461   4.113  0.8191 -0.4433 -0.9728
 1190TIP3   OH2 3575   4.616   1.527   3.862  0.4470  0.0394 -0.1891
 1190TIP3    H1 3576   4.577   1.566   3.941 -0.7654 -1.3343 -0.0658
 1190TIP3    H2 3577   4.670   1.597   3.825 -0.0677  1.1647  1.0946
 1191TIP3   OH2 3578   0.338   4.486   3.890 -0.1661  0.7613 -0.2434
 1191TIP3    H1 3579   0.265   4.548   3.887 -0.3639  0.4872 -1.7800
 1191TIP3    H2 3580   0.296   4.401   3.901 -0.0104  0.7183  0.0081
 1192TIP3   OH2 3581   3.366   5.864   5.080 -0.6005  0.2934  0.1456
 1192TIP3    H1 3582   3.372   5.868   5.175  0.9523  0.6533  0.0640
 1192TIP3    H2 3583   3.333   5.776   5.061 -0.1781 -0.0608  0.9992
 1193TIP3   OH2 3584   0.793   4.130   2.578 -0.6779  0.6312  0.2030
 1193TIP3    H1 3585   0.875   4.148   2.624 -0.6157 -0.5316  0.5849
 1193TIP3    H2 3586   0.742   4.079   2.640 -1.3507  0.6265 -0.3509
 1194TIP3   OH2 3587   1.709   5.152   2.548 -0.0104 -0.4064  0.2822
 1194TIP3    H1 3588   1.797   5.133   2.581 -0.3254 -0.2635  1.2142
 1194TIP3    H2 3589   1.650   5.124   2.617 -0.5451  3.9159  1.9113
 1195TIP3   OH2 3590   5.796   3.764   4.274 -0.0257 -0.2910  0.2284
 1195TIP3    H1 3591   5.886   3.731   4.282  0.6967  1.3369 -0.5762
 1195TIP3    H2 3592   5.793   3.802   4.186 -1.1779  0.6267  0.6421
 1196TIP3   OH2 3593   1.559   3.496   3.374 -0.2929  0.7918 -0.4083
 1196TIP3    H1 3594   1.566   3.558   3.446  1.8305  0.6861 -0.4538
 1196TIP3    H2 3595   1.541   3.549   3.297  0.1825  1.2182 -0.2291
 1197TIP3   OH2 3596   0.120   0.700   3.773 -0.0224 -0.4920  0.5134
 1197TIP3    H1 3597   0.120   0.796   3.765 -0.0195 -0.4064  1.5144
 1197TIP3    H2 3598   0.048   0.681   3.832  1.1540 -0.9703  1.8302
 1198TIP3   OH2 3599   2.561   2.390   2.505  0.9142 -0.2250 -0.2280
 1198TIP3    H1 3600   2.614   2.420   2.431  1.3535  0.2323  0.2563
 1198TIP3    H2 3601   2.578   2.455   2.573  0.2106 -0.4292  0.1419
 1199TIP3   OH2 3602   0.776   5.384   1.313  0.4357 -0.0666 -0.0458
 1199TIP3    H1 3603   0.723   5.404   1.236  1.8904 -0.1847 -1.1215
 1199TIP3    H2 3604   0.730   5.313   1.357 -1.4155  1.2633  0.2826
 1200TIP3   OH2 3605   0.967   1.477   0.967  0.0143  0.0320 -0.4610
 1200TIP3    H1 3606   0.991   1.433   0.886 -0.6091  0.9910 -1.1923
 1200TIP3    H2 3607   0.886   1.434   0.994 -0.1012  0.1059 -0.6828
 1201TIP3   OH2 3608   5.670   2.024   0.341 -0.0685 -0.0474 -0.2311
 1201TIP3    H1 3609   5.631   2.075   0.269 -1.4393 -0.0556  0.4850
 1201TIP3    H2 3610   5.639   1.935   0.327  0.9951 -0.3859 -0.5375
 1202TIP3   OH2 3611   6.279   1.770   3.770  0.4424 -0.1200 -0.3001
 1202TIP3    H1 3612   6.305   1.681   3.793  1.0516  0.0666 -0.2401
 1202TIP3    H2 3613   6.210   1.759   3.704  0.2314 -0.6356  0.0080
 1203TIP3   OH2 3614   4.295   3.457   1.749  0.5921  0.3554  0.3970
 1203TIP3    H1 3615   4.300   3.480   1.842 -0.7515  1.5693  0.2043
 1203TIP3    H2 3616   4.229   3.516   1.713 -1.6599 -2.4849 -0.5810
 1204TIP3   OH2 3617   2.672   2.650   0.404 -0.5952  0.2531 -0.2365
 1204TIP3    H1 3618   2.736   2.589   0.440  0.4059  1.7289  0.6188
 1204TIP3    H2 3619   2.694   2.734   0.445 -1.6971  1.2636 -1.6279
 1205TIP3   OH2 3620   5.216   5.323   2.723  0.0606 -0.1168  0.1913
 1205TIP3    H1 3621   5.271   5.321   2.801 -1.5686 -1.3418  1.3942
 1205TIP3    H2 3622   5.241   5.244   2.674  1.0761  0.6469 -0.5526
 1206TIP3   OH2 3623   5.600   0.203   4.299 -0.4189  0.1173 -0.5504
 1206TIP3    H1 3624   5.674   0.259   4.321 -0.9285  0.5836  0.0299
 1206TIP3    H2 3625   5.617   0.175   4.209  0.8279 -0.3926 -0.1756
 1207TIP3   OH2 3626   5.274   3.186   2.971 -0.1200  0.0071  0.2528
 1207TIP3    H1 3627   5.208   3.255   2.973  1.4117  1.6609 -2.0054
 1207TIP3    H2 3628   5.271   3.152   2.882  0.4940 -1.5253  0.7889
 1208TIP3   OH2 3629   1.232   4.353   0.149 -0.1674  0.1633  0.2889
 1208TIP3    H1 3630   1.254   4.260   0.146 -0.5542  0.0771 -0.0187
 1208TIP3    H2 3631   1.198   4.367   0.237 -0.8278 -0.1583  0.0920
 1209TIP3   OH2 3632   2.074   1.599   2.119 -0.0298  0.6911  0.1970
 1209TIP3    H1 3633   2.063   1.693   2.133 -0.1304  0.6977  0.0802
 1209TIP3    H2 3634   2.153   1.592   2.065 -0.0059  0.7080  0.2301
 1210TIP3   OH2 3635   4.671   5.724   4.934 -0.7859  0.2255 -0.5235
 1210TIP3    H1 3636   4.611   5.763   4.998 -1.4226 -0.1915 -0.8556
 1210TIP3    H2 3637   4.743   5.786   4.929 -0.9751  0.5241  0.2074
 1211TIP3   OH2 3638   4.195   4.708   1.636 -0.3178  0.6437  0.1252
 1211TIP3    H1 3639   4.250   4.641   1.675  0.2577  0.1795 -1.3947
 1211TIP3    H2 3640   4.165   4.761   1.710  0.0705 -0.6415  1.2416
 1212TIP3   OH2 3641   5.018   4.039   0.361 -0.0627  1.2209 -0.8522
 1212TIP3    H1 3642   5.056   3.997   0.283  0.9158  3.1944 -1.5253
 1212TIP3    H2 3643   5.094   4.063   0.414 -0.7287 -0.5355  1.0316
 1213TIP3   OH2 3644   3.209   4.941   2.326 -0.0959 -0.2987  0.4135
 1213TIP3    H1 3645   3.250   4.975   2.405  0.2228  1.1171 -0.3232
 1213TIP3    H2 3646   3.234   4.849   2.323  0.7290 -0.1173  1.4209
 1214TIP3   OH2 3647   4.550   2.147   5.034  0.5065  0.4399 -0.5772
 1214TIP3    H1 3648   4.561   2.082   5.104 -1.5361  0.6518  0.0014
 1214TIP3    H2 3649   4.553   2.231   5.079  1.2262  0.6689 -1.0491
 1215TIP3   OH2 3650   5.047   2.381   3.069 -0.5153 -0.0769  0.3014
 1215TIP3    H1 3651   5.127   2.383   3.120 -0.8027 -1.1676  0.8140
 1215TIP3    H2 3652   5.057   2.453   3.006  0.0538  0.9745  1.5439
 1216TIP3   OH2 3653   3.221   3.065   4.545 -0.2317  0.2250 -0.1925
 1216TIP3    H1 3654   3.125   3.069   4.548 -0.4291 -2.3916 -0.7090
 1216TIP3    H2 3655   3.249   3.146   4.589 -2.6328  1.5330 -0.8464
 1217TIP3   OH2 3656   1.097   1.498   2.081  0.0534 -0.5709 -0.3884
 1217TIP3    H1 3657   1.139   1.483   1.997 -0.3243  1.1146 -0.9217
 1217TIP3    H2 3658   1.078   1.592   2.082 -1.1651 -0.7895  1.0118
 1218TIP3   OH2 3659   1.674   2.189   1.994  0.2708 -0.9386  0.3846
 1218TIP3    H1 3660   1.620   2.249   2.045  1.5399 -0.0319  0.7216
 1218TIP3    H2 3661   1.612   2.132   1.949 -0.9929  0.9255 -0.3142
 1219TIP3   OH2 3662   5.388   0.751   2.075 -0.1256 -0.1142 -0.0844
 1219TIP3    H1 3663   5.411   0.678   2.017 -0.6985  0.6551 -1.3388
 1219TIP3    H2 3664   5.313   0.792   2.032  0.0629  1.0952  0.7039
 1220TIP3   OH2 3665   1.423   0.369   4.383 -0.6048  0.6362 -0.4636
 1220TIP3    H1 3666   1.414   0.294   4.441  0.9990  1.6458  1.1605
 1220TIP3    H2 3667   1.433   0.330   4.296 -0.3844 -1.0044  0.2497
 1221TIP3   OH2 3668   2.588   0.892   4.905  0.1921 -0.1283  0.1316
 1221TIP3    H1 3669   2.529   0.936   4.845 -0.5353  2.0157  2.2432
 1221TIP3    H2 3670   2.670   0.942   4.899  0.0141  0.2994  1.0921
 1222TIP3   OH2 3671   5.196   5.091   0.188 -0.0160 -0.8306 -0.3182
 1222TIP3    H1 3672   5.132   5.157   0.161 -0.1230 -0.1434  1.4928
 1222TIP3    H2 3673   5.148   5.008   0.184 -1.1275 -0.3123  1.1401
 1223TIP3   OH2 3674   0.112   1.604   0.971 -0.3400 -0.6776 -0.7303
 1223TIP3    H1 3675   0.131   1.512   0.989  1.2860 -0.2477 -0.0862
 1223TIP3    H2 3676   0.194   1.649   0.988 -1.2469  0.9721 -0.5266
 1224TIP3   OH2 3677   3.845   5.554   1.688  0.3618  0.3727  0.1694
 1224TIP3    H1 3678   3.754   5.540   1.662  0.9397 -0.9713 -1.3051
 1224TIP3    H2 3679   3.854   5.649   1.694 -0.3384  0.7369 -2.9146
 1225TIP3   OH2 3680   5.329   2.331   1.150  0.0383 -0.3136 -0.3247
 1225TIP3    H1 3681   5.362   2.267   1.213  0.4994 -0.3973 -0.6423
 1225TIP3    H2 3682   5.405   2.387   1.130  0.1169 -0.7623 -1.3703
 1226TIP3   OH2 3683   1.093   5.850   3.354 -0.2622  0.1768 -0.3997
 1226TIP3    H1 3684   1.044   5.926   3.386  2.3411  1.7313  0.2164
 1226TIP3    H2 3685   1.037   5.812   3.287 -2.5787  1.3881  0.7268
 1227TIP3   OH2 3686   4.552   3.547   1.540 -0.5154 -0.0576 -0.3528
 1227TIP3    H1 3687   4.573   3.610   1.470 -0.5226  0.4199  0.0687
 1227TIP3    H2 3688   4.528   3.601   1.615  0.8481 -0.5151  0.4616
 1228TIP3   OH2 3689   1.718   0.817   5.137 -0.5122 -0.1941  0.0736
 1228TIP3    H1 3690   1.662   0.785   5.208 -0.9112  1.3942  0.5247
 1228TIP3    H2 3691   1.690   0.908   5.124 -0.6002 -0.5062 -2.2859
 1229TIP3   OH2 3692   5.754   1.519   1.336 -0.4510 -0.4854  0.5802
 1229TIP3    H1 3693   5.839   1.484   1.310 -0.0463  0.0746  1.1209
 1229TIP3    H2 3694   5.751   1.606   1.296 -1.4014 -1.0744 -0.6679
 1230TIP3   OH2 3695   5.625   4.460   4.765 -0.2071 -0.4229  1.0437
 1230TIP3    H1 3696   5.701   4.485   4.818  0.2712 -1.5266  0.9062
 1230TIP3    H2 3697   5.650   4.483   4.675 -0.7901  0.9164  1.1999
 1231TIP3   OH2 3698   4.697   2.784   3.003  0.5087 -0.7307 -0.3468
 1231TIP3    H1 3699   4.625   2.723   2.989  0.0302 -0.1914 -0.2873
 1231TIP3    H2 3700   4.684   2.815   3.093  1.0769 -0.9625 -0.1810
 1232TIP3   OH2 3701   5.933   4.730   2.625  0.1898  0.3653  0.8385
 1232TIP3    H1 3702   5.945   4.658   2.687  1.3110 -0.3140 -0.1172
 1232TIP3    H2 3703   5.958   4.808   2.674 -1.9385  0.2775  2.1813
 1233TIP3   OH2 3704   3.142   3.084   2.359 -0.1490  0.0761 -0.3534
 1233TIP3    H1 3705   3.127   3.010   2.418  1.8236 -0.3358 -0.2838
 1233TIP3    H2 3706   3.056   3.122   2.345 -0.8622 -0.6872  1.6517
 1234TIP3   OH2 3707   1.466   0.887   4.396 -0.2625 -0.1401 -0.0213
 1234TIP3    H1 3708   1.382   0.843   4.410 -1.8031  2.6534  0.1640
 1234TIP3    H2 3709   1.530   0.829   4.436 -1.9225 -2.8849 -1.0740
 1235TIP3   OH2 3710   6.012   2.936   0.369  0.4566 -0.9508  0.0986
 1235TIP3    H1 3711   5.918   2.952   0.373  0.3558 -0.5978 -2.2413
 1235TIP3    H2 3712   6.021   2.855   0.319  1.4037 -0.6917 -0.1875
 1236TIP3   OH2 3713   3.014   3.632   4.503  0.9931  0.3884  0.2316
 1236TIP3    H1 3714   3.038   3.716   4.464 -1.5471  0.4013 -1.5531
 1236TIP3    H2 3715   3.002   3.573   4.428 -0.7837 -0.5434  1.1831
 1237TIP3   OH2 3716   2.995   4.708   0.943 -0.8749 -0.3067 -0.3122
 1237TIP3    H1 3717   2.909   4.687   0.905 -1.0672  1.6760 -1.1556
 1237TIP3    H2 3718   3.057   4.657   0.891 -1.4201 -0.3951 -0.8989
 1238TIP3   OH2 3719   0.895   4.018   0.518 -0.3148  0.6981 -0.5900
 1238TIP3    H1 3720   0.948   4.030   0.439  0.0025 -0.7193 -0.6305
 1238TIP3    H2 3721   0.916   3.929   0.547 -0.4370  1.1772  1.0891
 1239TIP3   OH2 3722   0.254   4.890   1.196 -0.2294 -0.4726 -0.0447
 1239TIP3    H1 3723   0.208   4.866   1.276 -1.4141 -0.0104 -0.5635
 1239TIP3    H2 3724   0.227   4.824   1.132 -1.9634  1.0260 -0.9460
 1240TIP3   OH2 3725   2.934   3.254   2.528  0.5566  0.1899  0.1006
 1240TIP3    H1 3726   2.838   3.259   2.524  0.5745  0.0076 -0.7464
 1240TIP3    H2 3727   2.964   3.321   2.467  0.9293 -1.5850 -1.7621
 1241TIP3   OH2 3728   0.151   1.919   4.269 -0.5237 -0.3511 -0.0708
 1241TIP3    H1 3729   0.064   1.923   4.307  0.2414  1.7564  1.7207
 1241TIP3    H2 3730   0.150   1.984   4.199 -0.3059 -0.0204  0.2256
 1242TIP3   OH2 3731   5.222   1.493   0.294  0.2651  0.2176 -0.8134
 1242TIP3    H1 3732   5.205   1.430   0.364 -1.2808  0.8365 -0.5777
 1242TIP3    H2 3733   5.295   1.545   0.325 -0.3138  0.3922  0.3016
 1243TIP3   OH2 3734   2.375   1.894   3.958  0.0078 -0.7295 -0.8543
 1243TIP3    H1 3735   2.423   1.876   4.038 -0.7905  0.1354 -0.1492
 1243TIP3    H2 3736   2.430   1.859   3.888  0.9991 -0.9696  0.0204
 1244TIP3   OH2 3737   0.448   0.525   2.999  0.0758  0.3492  0.6458
 1244TIP3    H1 3738   0.363   0.527   3.042 -0.1561  0.3852  0.1962
 1244TIP3    H2 3739   0.487   0.442   3.024 -0.4828 -0.0762  0.1100
 1245TIP3   OH2 3740   0.842   5.663   2.794 -0.1278 -0.5711  0.4275
 1245TIP3    H1 3741   0.800   5.593   2.744 -1.2206 -1.0259  1.9032
 1245TIP3    H2 3742   0.771   5.703   2.843  0.5343  1.4011 -0.1222
 1246TIP3   OH2 3743   5.978   5.126   2.366  0.0067  0.7487 -0.7301
 1246TIP3    H1 3744   5.903   5.089   2.320 -1.3508  0.8220  1.2740
 1246TIP3    H2 3745   5.983   5.217   2.335 -0.1689  0.4875 -1.5336
 1247TIP3   OH2 3746   1.274   3.136   0.676 -0.3017 -0.4221  0.1911
 1247TIP3    H1 3747   1.367   3.151   0.693 -0.1653  2.1459 -2.0835
 1247TIP3    H2 3748   1.248   3.071   0.741  3.1547 -1.5997  0.6131
 1248TIP3   OH2 3749   3.512   3.731   2.237  0.5569 -0.2397  0.9539
 1248TIP3    H1 3750   3.511   3.670   2.311  1.0867 -0.1819  1.0085
 1248TIP3    H2 3751   3.588   3.787   2.253  0.3709  0.1046  0.6338
 1249TIP3   OH2 3752   5.498   4.635   4.262  0.3537 -0.1158 -0.8096
 1249TIP3    H1 3753   5.497   4.693   4.185  0.2783  0.2120 -0.5628
 1249TIP3    H2 3754   5.413   4.591   4.260  0.0827  0.3893 -0.5398
 1250TIP3   OH2 3755   3.659   1.087   2.981 -0.2868  0.5773  0.3300
 1250TIP3    H1 3756   3.728   1.074   3.046  0.5444 -1.6179 -0.8912
 1250TIP3    H2 3757   3.610   1.163   3.013  0.5339  0.0536  3.1094
 1251TIP3   OH2 3758   2.176   2.089   2.812 -0.1792  0.2354  0.7309
 1251TIP3    H1 3759   2.214   2.146   2.745 -0.4899 -0.5738 -0.1568
 1251TIP3    H2 3760   2.244   2.082   2.879  0.1591  1.0074  0.4860
 1252TIP3   OH2 3761   3.864   1.608   4.527 -0.0121 -0.0707  0.2746
 1252TIP3    H1 3762   3.878   1.518   4.495  0.9825  0.2431 -0.2350
 1252TIP3    H2 3763   3.926   1.617   4.600  0.1460  0.3108  0.0948
 1253TIP3   OH2 3764   0.952   1.161   2.512 -0.0266 -0.3873  0.6057
 1253TIP3    H1 3765   0.988   1.249   2.497  1.5016 -1.2597 -1.2490
 1253TIP3    H2 3766   0.933   1.159   2.606 -1.4218  2.3692  0.5042
 1254TIP3   OH2 3767   6.142   4.323   4.535 -0.2971 -0.0787 -0.0501
 1254TIP3    H1 3768   6.197   4.399   4.552  1.5178 -1.2886 -0.2487
 1254TIP3    H2 3769   6.144   4.312   4.440 -0.0479 -0.7007  0.0185
 1255TIP3   OH2 3770   3.099   0.082   1.503 -0.2087 -0.6223 -0.7219
 1255TIP3    H1 3771   3.161   0.129   1.559 -0.8192 -0.8262  0.1497
 1255TIP3    H2 3772   3.013   0.119   1.524 -0.5765 -1.4086 -0.7695
 1256TIP3   OH2 3773   3.525   2.516   1.226 -0.7422 -0.0573 -0.6538
 1256TIP3    H1 3774   3.471   2.579   1.274 -0.9161 -0.3394 -0.4738
 1256TIP3    H2 3775   3.470   2.438   1.219 -1.0754  0.2917 -2.1518
 1257TIP3   OH2 3776   2.574   4.577   2.469 -0.1410 -0.2058 -0.1822
 1257TIP3    H1 3777   2.571   4.649   2.406 -0.9820 -0.7766 -0.8237
 1257TIP3    H2 3778   2.587   4.619   2.554  0.5684  0.6091 -0.6782
 1258TIP3   OH2 3779   2.102   5.596   1.223 -0.1412  0.4643  0.2908
 1258TIP3    H1 3780   2.068   5.616   1.310  1.0011  0.6052  0.7133
 1258TIP3    H2 3781   2.186   5.553   1.238 -0.7966 -1.2720 -0.7082
 1259TIP3   OH2 3782   2.231   1.275   4.872  0.1968  0.3805  0.2200
 1259TIP3    H1 3783   2.294   1.326   4.921 -0.9404  0.4143  1.7335
 1259TIP3    H2 3784   2.202   1.332   4.801  0.4071  1.0833  0.6993
 1260TIP3   OH2 3785   3.391   3.176   1.446  0.1697 -0.3049 -0.3544
 1260TIP3    H1 3786   3.465   3.215   1.401  1.0777 -0.3362  1.0398
 1260TIP3    H2 3787   3.315   3.201   1.395  1.2309 -1.3888 -2.6061
 1261TIP3   OH2 3788   4.832   1.558   4.109 -0.4282  0.0645  0.3482
 1261TIP3    H1 3789   4.765   1.622   4.132  0.4355  0.8021  0.8410
 1261TIP3    H2 3790   4.814   1.482   4.165 -1.1858  0.0268  0.0680
 1262TIP3   OH2 3791   2.118   4.910   1.884  0.5682  0.1458  0.2262
 1262TIP3    H1 3792   2.043   4.853   1.869  0.9807 -0.2013 -0.5167
 1262TIP3    H2 3793   2.085   4.977   1.944 -0.1654 -0.3483  0.3832
 1263TIP3   OH2 3794   0.653   0.590   4.353  0.0911 -0.2412  0.0232
 1263TIP3    H1 3795   0.688   0.504   4.378 -0.6349 -0.6823 -0.4344
 1263TIP3    H2 3796   0.588   0.570   4.287  1.0268  0.7919 -1.2555
 1264TIP3   OH2 3797   2.655   0.831   1.716  0.5732  0.1676 -0.1376
 1264TIP3    H1 3798   2.670   0.737   1.726  1.8386  0.1805 -1.5418
 1264TIP3    H2 3799   2.738   0.871   1.740  0.2004  0.9014 -0.0351
 1265TIP3   OH2 3800   0.149   3.855   3.747  0.3763  0.0022 -0.5340
 1265TIP3    H1 3801   0.238   3.874   3.778 -0.3341 -0.3737  1.9324
 1265TIP3    H2 3802   0.123   3.778   3.797 -1.4433  0.2546 -1.0402
 1266TIP3   OH2 3803   5.706   4.669   5.055 -0.4481 -0.6376  0.0639
 1266TIP3    H1 3804   5.761   4.628   4.988 -0.7589 -0.7761 -0.1063
 1266TIP3    H2 3805   5.768   4.702   5.119 -0.1899 -1.4522  0.2465
 1267TIP3   OH2 3806   0.971   0.693   3.423  0.1403  0.5138 -0.0910
 1267TIP3    H1 3807   0.994   0.629   3.356 -0.6230  0.9201 -0.7591
 1267TIP3    H2 3808   0.876   0.703   3.415  0.1055  0.9493  0.7191
 1268TIP3   OH2 3809   3.131   4.327   3.792  0.2922 -0.0827 -0.5773
 1268TIP3    H1 3810   3.204   4.386   3.808 -0.4280  0.3427  1.4640
 1268TIP3    H2 3811   3.084   4.323   3.875 -1.1450 -1.5447 -1.3822
 1269TIP3   OH2 3812   3.047   4.484   2.195  0.3024  0.2338 -0.4521
 1269TIP3    H1 3813   3.125   4.463   2.143 -0.1176  0.9320 -1.3904
 1269TIP3    H2 3814   3.024   4.573   2.169  0.3580  0.7919  1.3102
 1270TIP3   OH2 3815   5.098   2.098   2.228 -0.0215 -0.2425  0.2351
 1270TIP3    H1 3816   5.177   2.066   2.272 -0.5426 -0.1327  1.2825
 1270TIP3    H2 3817   5.118   2.091   2.134  1.5379  0.5658  0.4711
 1271TIP3   OH2 3818   0.029   2.621   0.363  0.0446  0.0070  0.2856
 1271TIP3    H1 3819   0.085   2.697   0.379  0.6853 -0.6578  1.3645
 1271TIP3    H2 3820   0.056   2.589   0.277  0.3190  0.5449  0.1672
 1272TIP3   OH2 3821   2.063   0.839   2.884  0.2901 -0.5037 -0.4794
 1272TIP3    H1 3822   2.105   0.753   2.878  1.4690  0.1316 -2.5121
 1272TIP3    H2 3823   2.134   0.901   2.869 -0.2386  0.9607  2.4554
 1273TIP3   OH2 3824   3.654   5.237   0.396  0.0692 -0.2858 -0.5643
 1273TIP3    H1 3825   3.620   5.147   0.390  0.7588 -0.4943 -1.4856
 1273TIP3    H2 3826   3.625   5.279   0.315 -0.1152  0.2832 -0.2093
 1274TIP3   OH2 3827   5.054   4.079   1.356 -0.2585 -0.0340 -0.0723
 1274TIP3    H1 3828   5.105   4.080   1.275 -1.0658  1.2791 -0.6034
 1274TIP3    H2 3829   4.997   4.003   1.347  0.8820 -0.9349  0.0833
 1275TIP3   OH2 3830   6.125   1.238   5.088  0.2160  0.2241 -0.1686
 1275TIP3    H1 3831   6.144   1.213   5.178 -0.2547 -0.1466 -0.1665
 1275TIP3    H2 3832   6.085   1.161   5.050  1.3960  0.0026 -1.0206
 1276TIP3   OH2 3833   4.421   3.857   2.984  0.5059 -0.1422  0.3684
 1276TIP3    H1 3834   4.507   3.891   3.011  1.5195 -1.3116 -1.1909
 1276TIP3    H2 3835   4.369   3.936   2.967  1.0267  0.5965  1.9490
 1277TIP3   OH2 3836   5.212   2.489   5.056  0.7620  0.6873  0.3301
 1277TIP3    H1 3837   5.149   2.551   5.092  0.6509  1.3730 -1.0154
 1277TIP3    H2 3838   5.164   2.406   5.051 -0.2115  1.3146 -1.1449
 1278TIP3   OH2 3839   5.888   3.611   3.713 -0.1216  0.1054 -0.2974
 1278TIP3    H1 3840   5.910   3.641   3.624  0.2040  0.2517 -0.1704
 1278TIP3    H2 3841   5.900   3.516   3.710 -0.3093  0.0860 -0.4653
 1279TIP3   OH2 3842   3.795   4.201   3.346  0.3936 -0.3996 -0.0070
 1279TIP3    H1 3843   3.816   4.221   3.437  0.1361  3.5177 -0.6177
 1279TIP3    H2 3844   3.872   4.230   3.297 -0.4569 -0.0703 -1.1926
 1280TIP3   OH2 3845   5.824   2.879   4.663 -0.2159 -0.3858 -0.2009
 1280TIP3    H1 3846   5.871   2.928   4.596  2.3719 -2.1010  0.2250
 1280TIP3    H2 3847   5.847   2.788   4.648 -2.3171 -1.1961  0.9700
 1281TIP3   OH2 3848   1.358   5.675   5.095  0.8521 -0.0261 -0.4146
 1281TIP3    H1 3849   1.446   5.675   5.058  1.0365 -3.1745 -0.2756
 1281TIP3    H2 3850   1.301   5.655   5.021  0.2293  1.7632 -0.4592
 1282TIP3   OH2 3851   2.829   0.110   0.127  0.0963 -0.2825 -0.1934
 1282TIP3    H1 3852   2.788   0.070   0.204  1.2806 -0.8154  0.1795
 1282TIP3    H2 3853   2.874   0.188   0.161  0.3603 -0.3437 -0.4009
 1283TIP3   OH2 3854   0.948   5.593   3.744 -0.1485  0.1587 -0.0918
 1283TIP3    H1 3855   1.043   5.598   3.758  0.0512 -1.6294 -0.5584
 1283TIP3    H2 3856   0.911   5.649   3.812  1.2299  1.0038  0.0170
 1284TIP3   OH2 3857   4.203   0.904   0.596  0.0661 -0.1543 -0.1583
 1284TIP3    H1 3858   4.162   0.974   0.546  1.1030  0.7530  0.2011
 1284TIP3    H2 3859   4.248   0.850   0.531 -1.5109 -1.0708 -0.5344
 1285TIP3   OH2 3860   2.648   0.556   4.321  0.3578  0.1544 -0.0877
 1285TIP3    H1 3861   2.555   0.545   4.340 -0.3447  1.0873 -2.5825
 1285TIP3    H2 3862   2.683   0.467   4.316 -0.4975 -0.2145  0.4292
 1286TIP3   OH2 3863   2.708   2.569   1.535 -0.1053 -0.2683  0.5372
 1286TIP3    H1 3864   2.767   2.534   1.469 -1.3878 -3.0741  0.7474
 1286TIP3    H2 3865   2.766   2.604   1.603  1.2527 -0.3590 -0.5373
 1287TIP3   OH2 3866   0.688   1.490   3.991  0.6280  0.1625 -0.0403
 1287TIP3    H1 3867   0.620   1.537   4.039  0.5752  0.1361 -0.0884
 1287TIP3    H2 3868   0.749   1.558   3.962  1.7651 -0.0151  1.7958
 1288TIP3   OH2 3869   1.638   3.098   3.215  0.7479  0.0870  0.4799
 1288TIP3    H1 3870   1.701   3.169   3.206  0.1135  0.5132 -0.7578
 1288TIP3    H2 3871   1.677   3.041   3.282  0.9700  1.8906  2.0024
 1289TIP3   OH2 3872   2.348   3.164   2.238  0.2366  0.1315 -0.1755
 1289TIP3    H1 3873   2.304   3.247   2.221  0.1721 -0.0407 -0.9270
 1289TIP3    H2 3874   2.405   3.151   2.162 -1.5500 -1.6518 -1.3214
 1290TIP3   OH2 3875   5.518   0.432   5.083 -0.4041 -0.2565  0.1531
 1290TIP3    H1 3876   5.446   0.415   5.023 -0.3509 -2.3887  0.5890
 1290TIP3    H2 3877   5.515   0.358   5.145  1.9345 -0.2377  0.3755
 1291TIP3   OH2 3878   0.160   0.977   0.758 -0.6442 -0.3582  0.5395
 1291TIP3    H1 3879   0.255   0.970   0.756 -0.3176  2.3067  1.8171
 1291TIP3    H2 3880   0.138   1.019   0.675 -0.4080  0.9945  1.1274
 1292TIP3   OH2 3881   3.686   3.454   4.042  0.0023  0.4371  0.1418
 1292TIP3    H1 3882   3.617   3.418   3.985 -0.4819  0.6345  0.5981
 1292TIP3    H2 3883   3.735   3.377   4.071  0.9952  0.4049 -1.4493
 1293TIP3   OH2 3884   0.077   1.398   0.055 -0.1044 -0.9302  0.1971
 1293TIP3    H1 3885   0.133   1.347  -0.004  1.1153  0.4053  0.1437
 1293TIP3    H2 3886   0.061   1.479   0.007  0.8258  0.1388  1.6309
 1294TIP3   OH2 3887   3.434   4.069   1.695 -0.1418  0.2883  0.1428
 1294TIP3    H1 3888   3.461   3.988   1.650  0.2958 -0.1471  1.1656
 1294TIP3    H2 3889   3.433   4.046   1.788 -0.5987  1.3012  0.4010
 1295TIP3   OH2 3890   3.310   3.103   5.106 -0.0821 -0.4464  0.4456
 1295TIP3    H1 3891   3.280   3.066   5.189 -1.1565 -0.1659  0.2042
 1295TIP3    H2 3892   3.402   3.077   5.099 -0.0954 -0.8237  1.5193
 1296TIP3   OH2 3893   1.450   1.573   2.147 -0.5550  0.2224 -0.1487
 1296TIP3    H1 3894   1.449   1.617   2.232 -0.2512  0.1160 -0.0907
 1296TIP3    H2 3895   1.538   1.538   2.139 -1.0207 -1.0544  0.1548
 1297TIP3   OH2 3896   2.564   4.232   0.110 -0.4538  0.3252 -0.1980
 1297TIP3    H1 3897   2.475   4.254   0.085 -0.8545 -1.9047 -1.0125
 1297TIP3    H2 3898   2.558   4.206   0.202 -0.8166 -0.5078 -0.4450
 1298TIP3   OH2 3899   0.398   4.551   0.146 -0.1726  0.1077 -0.5774
 1298TIP3    H1 3900   0.311   4.576   0.115 -0.9265  0.9389  1.9460
 1298TIP3    H2 3901   0.395   4.456   0.152 -0.5942  0.0666 -1.2865
 1299TIP3   OH2 3902   5.577   4.825   3.854  0.6078 -0.2978 -0.6052
 1299TIP3    H1 3903   5.520   4.824   3.777 -0.1572  1.7425 -0.1242
 1299TIP3    H2 3904   5.662   4.795   3.821  1.0873  3.0467 -2.9828
 1300TIP3   OH2 3905   1.339   1.721   1.924 -0.1461  0.5365  0.6142
 1300TIP3    H1 3906   1.249   1.746   1.941 -0.0284  1.3709  0.0928
 1300TIP3    H2 3907   1.366   1.671   2.001 -1.5271 -1.0798  0.0923
 1301TIP3   OH2 3908   1.079   2.764   4.671  0.8314  0.0514 -0.1363
 1301TIP3    H1 3909   1.061   2.804   4.586  1.3599  1.1123  0.2435
 1301TIP3    H2 3910   1.030   2.681   4.669  1.2456 -0.1920 -1.6686
 1302TIP3   OH2 3911   5.479   4.228   1.655 -0.2130 -0.3951  0.1955
 1302TIP3    H1 3912   5.504   4.281   1.580 -0.4947 -1.6700 -0.8289
 1302TIP3    H2 3913   5.418   4.284   1.704  0.1571  0.5380 -0.3835
 1303TIP3   OH2 3914   3.622   5.752   0.012 -0.0351 -0.7499 -0.5991
 1303TIP3    H1 3915   3.597   5.679   0.068 -0.1998 -0.8813 -0.8413
 1303TIP3    H2 3916   3.649   5.821   0.073 -0.4519 -0.8018 -0.3512
 1304TIP3   OH2 3917   0.046   0.340   4.018  0.0393 -0.0005  0.0580
 1304TIP3    H1 3918   0.036   0.246   4.035 -2.5686  0.2480  0.2473
 1304TIP3    H2 3919  -0.018   0.359   3.950 -2.2672  2.2782  2.6418
 1305TIP3   OH2 3920   1.865   4.930   0.469 -0.0441  0.1411  0.1609
 1305TIP3    H1 3921   1.820   4.885   0.398 -0.4552  0.4816  0.2030
 1305TIP3    H2 3922   1.819   4.903   0.549  0.1931  0.0365  0.2642
 1306TIP3   OH2 3923   0.695   1.393   5.007  0.1504  0.0454 -0.4365
 1306TIP3    H1 3924   0.735   1.384   4.920  0.1090  0.2619 -0.4768
 1306TIP3    H2 3925   0.752   1.454   5.053  0.0030  0.1656 -0.4131
 1307TIP3   OH2 3926   2.054   1.478   2.358 -0.2250 -0.3588 -0.1809
 1307TIP3    H1 3927   2.078   1.515   2.274 -0.0741  0.0315  0.0303
 1307TIP3    H2 3928   2.101   1.531   2.422  1.0843 -1.7680  0.0752
 1308TIP3   OH2 3929   5.616   1.090   1.994  0.3235  0.8557 -0.1412
 1308TIP3    H1 3930   5.594   1.099   2.087 -2.4873  0.0092 -0.6163
 1308TIP3    H2 3931   5.682   1.022   1.991  0.4295  0.8705  1.2313
 1309TIP3   OH2 3932   6.229   1.367   4.872 -0.4879  0.0173 -0.0679
 1309TIP3    H1 3933   6.185   1.326   4.947 -0.3441  0.9952  0.5744
 1309TIP3    H2 3934   6.229   1.461   4.893 -1.9563  0.5295 -2.0885
 1310TIP3   OH2 3935   3.863   1.689   4.835  0.6283  0.0645 -0.0482
 1310TIP3    H1 3936   3.935   1.632   4.865  1.4205  1.4299  0.7304
 1310TIP3    H2 3937   3.784   1.646   4.867  1.2264 -0.4824  0.7409
 1311TIP3   OH2 3938   6.252   2.069   1.268  0.0763  0.0357  0.3096
 1311TIP3    H1 3939   6.315   2.015   1.220 -0.7991  0.3254 -1.2524
 1311TIP3    H2 3940   6.270   2.051   1.360  2.1172 -0.2400 -0.0901
 1312TIP3   OH2 3941   0.771   4.521   4.341 -0.1733  0.1157  0.7488
 1312TIP3    H1 3942   0.824   4.488   4.413  1.5614  1.0130 -0.0733
 1312TIP3    H2 3943   0.774   4.616   4.351 -1.6179  0.2028  0.6443
 1313TIP3   OH2 3944   4.826   3.823   1.673 -0.6276 -0.2232  0.3940
 1313TIP3    H1 3945   4.858   3.883   1.741 -1.9901  0.6371  0.3356
 1313TIP3    H2 3946   4.780   3.755   1.721 -1.0618  0.0527  0.3810
 1314TIP3   OH2 3947   4.655   4.362   1.438 -0.6112  0.2830 -0.5199
 1314TIP3    H1 3948   4.645   4.296   1.506 -1.7969 -0.2336 -1.1706
 1314TIP3    H2 3949   4.744   4.350   1.406 -1.2392 -2.0198 -1.6226
 1315TIP3   OH2 3950   1.512   3.580   3.065 -0.3664  0.3229 -0.4524
 1315TIP3    H1 3951   1.604   3.603   3.077 -0.2055 -0.2132 -0.6376
 1315TIP3    H2 3952   1.511   3.522   2.989 -0.3894 -2.5115  1.5231
 1316TIP3   OH2 3953   0.399   3.770   4.520 -0.1376  0.2997  0.6549
 1316TIP3    H1 3954   0.484   3.747   4.557  0.1344 -0.0334 -0.1571
 1316TIP3    H2 3955   0.403   3.865   4.506  0.2603  0.2195  0.2222
 1317TIP3   OH2 3956   6.336   3.866   1.888  0.1999 -1.0464  0.8431
 1317TIP3    H1 3957   6.249   3.829   1.874  0.3037 -0.9573 -0.0870
 1317TIP3    H2 3958   6.321   3.942   1.943 -0.7350  0.8135 -1.7780
 1318TIP3   OH2 3959   0.901   2.932   3.959  0.1163  0.2180  0.2633
 1318TIP3    H1 3960   0.845   3.002   3.926  0.8382  1.5233  1.7331
 1318TIP3    H2 3961   0.990   2.966   3.950  0.6038 -1.1507 -0.4517
 1319TIP3   OH2 3962   3.825   3.316   1.400  0.3186 -0.4617  0.5616
 1319TIP3    H1 3963   3.840   3.350   1.488  2.7589  1.6041 -0.5248
 1319TIP3    H2 3964   3.765   3.379   1.359 -1.0609 -1.5822  0.7773
 1320TIP3   OH2 3965   3.874   3.805   1.090 -0.6140 -0.1878  0.3484
 1320TIP3    H1 3966   3.935   3.852   1.034  0.8992 -2.4999 -0.0906
 1320TIP3    H2 3967   3.856   3.723   1.043 -1.0402 -1.2282  2.1998
 1321TIP3   OH2 3968   2.317   1.702   0.940 -0.1075  0.4604 -0.3633
 1321TIP3    H1 3969   2.323   1.783   0.990 -1.1078  1.0186 -1.0969
 1321TIP3    H2 3970   2.397   1.654   0.962 -0.6337  0.5376  1.9482
 1322TIP3   OH2 3971   6.243   0.221   0.605  0.0023 -0.0436 -0.1868
 1322TIP3    H1 3972   6.263   0.133   0.575  1.4302  0.4534 -0.7984
 1322TIP3    H2 3973   6.304   0.236   0.677 -0.8750  0.1116  0.5378
 1323TIP3   OH2 3974   4.903   4.771   4.313 -0.4671  0.0483 -0.4220
 1323TIP3    H1 3975   4.897   4.865   4.297  1.0528  0.0446 -1.2456
 1323TIP3    H2 3976   4.996   4.750   4.298 -0.7238 -1.5324  0.0101
 1324TIP3   OH2 3977   6.013   5.647   3.681 -0.0465  0.2903 -0.6879
 1324TIP3    H1 3978   5.947   5.601   3.732  0.1708  0.6149 -0.1033
 1324TIP3    H2 3979   6.088   5.655   3.739 -0.0383  1.2752 -0.8111
 1325TIP3   OH2 3980   3.950   2.046   1.669 -0.4106 -0.5262 -0.1628
 1325TIP3    H1 3981   3.930   2.128   1.624 -3.0456 -1.0199 -0.0434
 1325TIP3    H2 3982   3.938   2.066   1.762 -0.5996 -0.9217 -0.0999
 1326TIP3   OH2 3983   5.121   1.967   2.993  0.6101  0.3778 -0.4070
 1326TIP3    H1 3984   5.078   1.882   3.004 -0.0210  0.6873 -0.4654
 1326TIP3    H2 3985   5.050   2.030   2.985  1.0616  0.8142 -1.1960
 1327TIP3   OH2 3986   5.305   2.410   0.115 -0.6670  0.5999 -0.0567
 1327TIP3    H1 3987   5.367   2.447   0.178  0.6738 -1.1070 -0.3066
 1327TIP3    H2 3988   5.221   2.412   0.160  0.5412 -2.4819  2.7708
 1328TIP3   OH2 3989   2.812   1.449   3.788  0.0728  0.1342  0.5447
 1328TIP3    H1 3990   2.843   1.370   3.832  2.0904  0.9983  0.7729
 1328TIP3    H2 3991   2.887   1.508   3.789 -1.2014  1.8453 -0.1467
 1329TIP3   OH2 3992   5.142   3.414   2.831  0.2414 -0.3932  0.4087
 1329TIP3    H1 3993   5.193   3.420   2.750  0.9082 -2.0543  0.6600
 1329TIP3    H2 3994   5.051   3.404   2.802  0.4081 -0.3991 -0.1129
 1330TIP3   OH2 3995   0.711   3.213   4.553 -0.3910 -0.3042 -0.2613
 1330TIP3    H1 3996   0.737   3.158   4.479  0.0935  0.0244 -0.3373
 1330TIP3    H2 3997   0.618   3.231   4.537  0.1384  1.3786 -1.8629
 1331TIP3   OH2 3998   1.380   0.713   1.016  0.3492  0.1259  0.5310
 1331TIP3    H1 3999   1.354   0.735   0.926 -2.2689 -0.0125  1.1738
 1331TIP3    H2 4000   1.403   0.797   1.056  0.4657  0.3243  0.0547
 1332TIP3   OH2 4001   4.417   0.332   1.355 -0.0013 -0.3406 -0.0775
 1332TIP3    H1 4002   4.415   0.316   1.450  2.1321  0.8981  0.2332
 1332TIP3    H2 4003   4.397   0.247   1.316 -0.2105 -1.0365  1.4636
 1333TIP3   OH2 4004   3.042   5.166   1.320 -0.1653  0.5718  0.3204
 1333TIP3    H1 4005   3.118   5.148   1.265 -1.3280 -0.5867 -0.9553
 1333TIP3    H2 4006   3.014   5.081   1.352 -0.8900  0.9900  0.8409
 1334TIP3   OH2 4007   3.429   4.762   2.061 -0.6203 -0.6116  0.3454
 1334TIP3    H1 4008   3.356   4.789   2.005 -0.5809 -0.9971  0.1016
 1334TIP3    H2 4009   3.479   4.842   2.077 -0.3973 -0.5733 -0.5131
 1335TIP3   OH2 4010   5.222   5.573   0.137 -0.0992  0.1607 -0.3041
 1335TIP3    H1 4011   5.301   5.554   0.187  0.3734  1.5550 -0.4765
 1335TIP3    H2 4012   5.152   5.573   0.202  0.2620  0.3726  0.0887
 1336TIP3   OH2 4013   0.360   1.409   4.820  0.3211  0.4324  0.3242
 1336TIP3    H1 4014   0.307   1.410   4.740  1.3388  0.6770 -0.3663
 1336TIP3    H2 4015   0.451   1.413   4.788  0.8771 -1.9668  1.3526
 1337TIP3   OH2 4016   4.942   2.893   2.843 -0.0167 -0.0997 -0.4862
 1337TIP3    H1 4017   4.867   2.852   2.885 -0.8635  1.3962 -0.4802
 1337TIP3    H2 4018   4.979   2.950   2.910  0.7898 -0.3762 -0.6779
 1338TIP3   OH2 4019   0.185   5.855   1.275  0.7797  0.4906 -0.0402
 1338TIP3    H1 4020   0.226   5.921   1.331  0.6936  0.6234 -0.1353
 1338TIP3    H2 4021   0.175   5.779   1.332 -0.2559  0.9570  0.4197
 1339TIP3   OH2 4022   0.699   1.734   3.114 -0.0897  0.3083  0.2642
 1339TIP3    H1 4023   0.663   1.822   3.107 -1.6405 -0.3056  0.0035
 1339TIP3    H2 4024   0.662   1.687   3.039  1.2826 -0.3863 -0.0040
 1340TIP3   OH2 4025   1.779   0.744   4.394  0.4851  0.0853 -0.3009
 1340TIP3    H1 4026   1.775   0.783   4.482 -0.2146 -0.1557 -0.2205
 1340TIP3    H2 4027   1.805   0.816   4.337 -1.0143  0.7496 -0.1891
 1341TIP3   OH2 4028   1.008   1.710   4.255  0.8203  0.2147 -0.3211
 1341TIP3    H1 4029   1.008   1.618   4.228 -0.9017 -0.0388  0.4531
 1341TIP3    H2 4030   0.940   1.751   4.201 -0.1397  0.4747  1.0265
 1342TIP3   OH2 4031   2.193   2.847   4.434 -0.4359 -0.2446  0.1604
 1342TIP3    H1 4032   2.289   2.853   4.433 -0.4808  0.9038  0.7911
 1342TIP3    H2 4033   2.166   2.876   4.347 -0.2072 -0.7514 -0.0824
 1343TIP3   OH2 4034   6.302   4.897   4.759  0.0307  0.3428  0.1003
 1343TIP3    H1 4035   6.256   4.965   4.711 -0.9294  0.3375  0.9706
 1343TIP3    H2 4036   6.277   4.912   4.851  1.4669  0.1031  0.5624
 1344TIP3   OH2 4037   6.239   0.118   4.776  0.5018  0.0940 -0.4291
 1344TIP3    H1 4038   6.294   0.040   4.770 -0.0630 -0.4061  0.6731
 1344TIP3    H2 4039   6.165   0.092   4.830 -0.6286  0.8796 -1.5239
 1345TIP3   OH2 4040   1.808   5.745   2.349 -0.2013  0.2433  0.3713
 1345TIP3    H1 4041   1.902   5.732   2.349 -0.0867  0.6012 -2.3467
 1345TIP3    H2 4042   1.792   5.799   2.427  1.7612 -0.1202  1.0813
 1346TIP3   OH2 4043   4.858   0.911   1.273  0.1029  0.8687  0.0296
 1346TIP3    H1 4044   4.816   0.957   1.200  0.1564 -1.4172 -1.5521
 1346TIP3    H2 4045   4.935   0.870   1.234  2.0437  2.2471  2.1550
 1347TIP3   OH2 4046   2.792   4.873   3.872 -0.2948 -0.1760 -0.6510
 1347TIP3    H1 4047   2.871   4.819   3.874 -0.6751 -0.7208  0.8955
 1347TIP3    H2 4048   2.808   4.936   3.802  2.4471  1.1604  1.0025
 1348TIP3   OH2 4049   0.893   1.929   2.806  0.2899  0.2772 -0.2021
 1348TIP3    H1 4050   0.908   1.874   2.729  1.2366  0.9778 -0.5458
 1348TIP3    H2 4051   0.930   1.880   2.879 -1.4947 -0.8450  0.0125
 1349TIP3   OH2 4052   4.938   5.448   2.335 -0.5694  0.2165 -0.0007
 1349TIP3    H1 4053   4.908   5.363   2.368  0.2124 -0.0433  0.0799
 1349TIP3    H2 4054   4.924   5.508   2.408 -0.9159  0.1059  0.0232
 1350TIP3   OH2 4055   4.742   5.098   4.762  0.1960 -0.4794 -0.1992
 1350TIP3    H1 4056   4.788   5.144   4.692  0.9970  2.6254  2.1689
 1350TIP3    H2 4057   4.734   5.008   4.730  3.1470  0.0632 -2.9913
 1351TIP3   OH2 4058   0.810   5.306   4.406  0.7984 -0.1728  0.3605
 1351TIP3    H1 4059   0.836   5.332   4.494  1.7958  0.9931 -0.2491
 1351TIP3    H2 4060   0.733   5.360   4.386  2.6105  2.2093 -0.7375
 1352TIP3   OH2 4061   3.275   3.800   3.385  0.6275  0.1806  0.2823
 1352TIP3    H1 4062   3.270   3.893   3.408 -0.9683  0.3359 -0.5782
 1352TIP3    H2 4063   3.368   3.785   3.367  0.9859  1.4796  0.9578
 1353TIP3   OH2 4064   5.565   1.945   1.726 -0.2198  0.5099 -0.0823
 1353TIP3    H1 4065   5.653   1.946   1.764 -1.2605  0.9778  2.5177
 1353TIP3    H2 4066   5.548   1.853   1.708  0.3934  0.2975  0.3817
 1354TIP3   OH2 4067   2.315   5.398   1.148 -0.2111 -0.2959  0.2380
 1354TIP3    H1 4068   2.348   5.308   1.153 -0.5830 -0.4341  0.2095
 1354TIP3    H2 4069   2.340   5.428   1.060  2.0703  0.4773  1.0765
 1355TIP3   OH2 4070   1.549   3.049   1.309 -0.4674  0.0870  0.2948
 1355TIP3    H1 4071   1.551   3.014   1.220  0.5208 -2.2900  1.1647
 1355TIP3    H2 4072   1.623   3.110   1.313 -1.0456  0.8730 -0.7344
 1356TIP3   OH2 4073   4.647   0.339   1.802  0.4378  0.1985 -0.0393
 1356TIP3    H1 4074   4.716   0.341   1.868  1.0269  0.1218 -0.6370
 1356TIP3    H2 4075   4.566   0.355   1.851  0.8786  0.3247  0.6666
 1357TIP3   OH2 4076   5.641   3.166   3.967  0.4990  0.1424  0.2281
 1357TIP3    H1 4077   5.633   3.260   3.981 -1.9368 -0.1201  1.0352
 1357TIP3    H2 4078   5.551   3.136   3.951  1.1981 -2.0694  0.0900
 1358TIP3   OH2 4079   3.004   4.559   4.868 -0.1394  0.4268 -0.0933
 1358TIP3    H1 4080   3.083   4.508   4.851 -0.6824 -0.5073  0.1520
 1358TIP3    H2 4081   2.994   4.614   4.790 -0.7022 -1.3275 -1.3114
 1359TIP3   OH2 4082   2.712   2.219   4.308  0.0529 -0.0651 -0.1937
 1359TIP3    H1 4083   2.735   2.198   4.398  0.0083 -1.0446 -0.3998
 1359TIP3    H2 4084   2.771   2.291   4.284 -1.0414  1.3241  1.1167
 1360TIP3   OH2 4085   2.190   3.929   1.680  0.4713  0.0647 -0.1472
 1360TIP3    H1 4086   2.270   3.939   1.630  0.1758  0.1412 -0.6105
 1360TIP3    H2 4087   2.191   4.002   1.742 -0.8926  2.1711 -2.4277
 1361TIP3   OH2 4088   4.899   3.631   1.437 -0.0693 -0.3189  0.5750
 1361TIP3    H1 4089   4.884   3.701   1.500  2.0989  0.4713  0.2783
 1361TIP3    H2 4090   4.981   3.590   1.464 -0.6511 -1.9415  0.0107
 1362TIP3   OH2 4091   5.285   5.959   2.635 -0.2325  0.6300  0.4061
 1362TIP3    H1 4092   5.258   5.870   2.614  2.1750 -0.3314  1.1666
 1362TIP3    H2 4093   5.215   5.992   2.692 -1.5549 -0.4241 -0.5327
 1363TIP3   OH2 4094   6.089   3.537   0.187  0.2048  0.1469 -0.2256
 1363TIP3    H1 4095   5.997   3.525   0.163 -0.5551  2.3955  1.2298
 1363TIP3    H2 4096   6.109   3.627   0.162  1.4877  0.2420  1.0062
 1364TIP3   OH2 4097   3.607   4.523   4.231  0.3664 -0.6541  0.3630
 1364TIP3    H1 4098   3.578   4.572   4.308  1.7714  1.7644 -0.5468
 1364TIP3    H2 4099   3.697   4.498   4.250  1.6163  2.0961 -1.3107
 1365TIP3   OH2 4100   4.955   2.405   1.428  0.1232  0.3138 -0.0559
 1365TIP3    H1 4101   4.973   2.366   1.343 -2.1740  1.1129 -0.9774
 1365TIP3    H2 4102   4.923   2.332   1.481 -0.8489  0.2656 -0.6865
 1366TIP3   OH2 4103   0.479   5.609   1.284  0.7318  0.3418  0.2434
 1366TIP3    H1 4104   0.437   5.682   1.239 -1.8327 -1.5480 -0.6349
 1366TIP3    H2 4105   0.524   5.561   1.215  0.7727  0.0362  0.4827
 1367TIP3   OH2 4106   2.442   2.820   4.719  0.0212  0.1758  0.7258
 1367TIP3    H1 4107   2.422   2.827   4.626 -1.4278 -0.8899  0.9305
 1367TIP3    H2 4108   2.432   2.727   4.739  0.5463  0.3505  1.8985
 1368TIP3   OH2 4109   4.922   2.393   5.029  0.2618 -0.0866  0.1222
 1368TIP3    H1 4110   4.906   2.301   5.008 -0.9484  0.1436 -0.0475
 1368TIP3    H2 4111   4.886   2.441   4.954  0.5804  0.5333  0.3589
 1369TIP3   OH2 4112   3.311   0.824   4.198  0.0750  0.0338 -0.1623
 1369TIP3    H1 4113   3.234   0.796   4.249 -0.6091  0.5660 -0.8905
 1369TIP3    H2 4114   3.337   0.907   4.238  0.4090 -0.2465  0.2155
 1370TIP3   OH2 4115   5.997   1.763   2.444 -0.2631 -0.5763  0.2964
 1370TIP3    H1 4116   6.003   1.682   2.394 -0.6910 -0.0663 -0.6116
 1370TIP3    H2 4117   5.979   1.735   2.534  1.4487 -1.5395  0.3785
 1371TIP3   OH2 4118   0.865   1.650   5.123 -0.1614  0.8574 -0.2415
 1371TIP3    H1 4119   0.957   1.672   5.105  0.2612 -0.3354  0.4006
 1371TIP3    H2 4120   0.856   1.659   5.217 -0.3756 -0.1884 -0.1515
 1372TIP3   OH2 4121   4.338   3.455   4.342  0.1514 -0.2695 -0.4280
 1372TIP3    H1 4122   4.307   3.375   4.301 -0.9976 -0.1190  0.1176
 1372TIP3    H2 4123   4.347   3.517   4.270  0.9010 -0.8201 -0.8290
 1373TIP3   OH2 4124   2.260   1.088   1.253 -0.6314 -0.0952 -1.0659
 1373TIP3    H1 4125   2.338   1.087   1.197  0.6902  0.6602  0.6592
 1373TIP3    H2 4126   2.224   1.000   1.245  0.0145 -0.2722 -2.3881
 1374TIP3   OH2 4127   6.182   3.059   3.329  0.1665 -0.4300  0.0720
 1374TIP3    H1 4128   6.250   3.019   3.383  1.3687 -0.6526 -1.5271
 1374TIP3    H2 4129   6.229   3.092   3.252 -1.1759  1.7755  0.1316
 1375TIP3   OH2 4130   3.860   1.446   1.376 -0.0093 -0.2531  0.9708
 1375TIP3    H1 4131   3.938   1.500   1.390 -1.1356  1.6904  0.1833
 1375TIP3    H2 4132   3.790   1.509   1.356 -1.6721 -1.9515  1.1122
 1376TIP3   OH2 4133   1.546   4.439   3.398  0.2592 -0.2567  0.3335
 1376TIP3    H1 4134   1.576   4.377   3.464  0.0088  0.7990  1.4872
 1376TIP3    H2 4135   1.497   4.387   3.335  1.9160 -1.5565  0.0470
 1377TIP3   OH2 4136   2.845   4.486   3.329  0.2719  0.0916  0.0110
 1377TIP3    H1 4137   2.930   4.511   3.293 -0.0212  1.2282  0.0868
 1377TIP3    H2 4138   2.838   4.535   3.411 -1.2780  1.5873 -0.9542
 1378TIP3   OH2 4139   3.931   0.732   4.489 -0.4481  0.2303 -0.1590
 1378TIP3    H1 4140   3.943   0.736   4.394  0.3390  1.4021 -0.0380
 1378TIP3    H2 4141   3.919   0.823   4.515 -2.1719 -0.2149  0.7027
 1379TIP3   OH2 4142   2.252   5.019   4.552 -0.1746 -0.0859  0.7056
 1379TIP3    H1 4143   2.220   4.984   4.635 -0.6962  0.1687  0.6169
 1379TIP3    H2 4144   2.266   5.112   4.568 -1.1431  0.1578  0.2792
 1380TIP3   OH2 4145   3.342   1.683   0.829 -0.2785 -0.0314 -0.0874
 1380TIP3    H1 4146   3.363   1.590   0.841 -0.6450 -0.1600 -0.4437
 1380TIP3    H2 4147   3.257   1.694   0.872  0.2132  0.3584  0.8175
 1381TIP3   OH2 4148   5.091   0.139   2.654 -0.4700  0.4050  0.0912
 1381TIP3    H1 4149   5.002   0.159   2.684 -0.2565  1.1970  0.2324
 1381TIP3    H2 4150   5.080   0.063   2.597 -0.8995 -1.0798  2.0475
 1382TIP3   OH2 4151   1.844   4.504   4.366 -0.5704  0.3554  0.3858
 1382TIP3    H1 4152   1.866   4.594   4.341  0.3542 -0.3707 -1.5776
 1382TIP3    H2 4153   1.760   4.487   4.325 -0.4954  0.1474  0.3197
 1383TIP3   OH2 4154   5.607   3.777   1.552 -0.2814  0.7287 -0.3269
 1383TIP3    H1 4155   5.573   3.691   1.529  1.9509 -0.5749  0.8618
 1383TIP3    H2 4156   5.648   3.809   1.472 -1.3246  0.8171 -0.8397
 1384TIP3   OH2 4157   5.726   0.765   3.476 -0.1956 -0.2719 -0.1952
 1384TIP3    H1 4158   5.788   0.696   3.455  0.8779  0.8667 -0.9129
 1384TIP3    H2 4159   5.767   0.814   3.546 -1.1711 -0.6189  0.6479
 1385TIP3   OH2 4160   3.562   5.691   0.910  0.0150  0.5170 -0.4034
 1385TIP3    H1 4161   3.482   5.678   0.961 -0.2675 -0.3722 -1.0352
 1385TIP3    H2 4162   3.629   5.641   0.958 -0.2614 -0.3598 -0.9035
 1386TIP3   OH2 4163   2.139   3.803   4.385 -0.3344  0.3968  0.1278
 1386TIP3    H1 4164   2.125   3.711   4.360 -1.6873  0.7678 -0.5818
 1386TIP3    H2 4165   2.145   3.800   4.481  0.2400 -0.5012  0.0790
 1387TIP3   OH2 4166   1.255   3.370   4.410  0.3622 -0.3892  0.5562
 1387TIP3    H1 4167   1.234   3.434   4.342 -1.7717  0.3210  1.7844
 1387TIP3    H2 4168   1.170   3.342   4.443  1.2687  0.1306  3.6600
 1388TIP3   OH2 4169   3.934   4.349   0.207 -0.3727  0.2500  0.0532
 1388TIP3    H1 4170   4.000   4.419   0.214  0.9529 -1.0408  0.9659
 1388TIP3    H2 4171   3.965   4.294   0.135  0.3097 -1.0802  1.3017
 1389TIP3   OH2 4172   0.361   4.317   2.654  0.0838 -0.3484  0.1552
 1389TIP3    H1 4173   0.445   4.358   2.633 -0.1694 -0.4307 -1.1152
 1389TIP3    H2 4174   0.296   4.380   2.623 -0.3127 -1.1328 -0.6398
 1390TIP3   OH2 4175   0.651   1.548   4.461  0.6424  0.5215  0.0294
 1390TIP3    H1 4176   0.589   1.621   4.466  1.8434  1.7108 -1.4671
 1390TIP3    H2 4177   0.737   1.590   4.472  1.4663 -0.4134 -2.3331
 1391TIP3   OH2 4178   3.895   5.817   2.033  0.2403 -0.3187  0.4421
 1391TIP3    H1 4179   3.868   5.736   1.991 -0.2109  0.0770 -0.0346
 1391TIP3    H2 4180   3.947   5.863   1.967 -1.4125  0.8309 -0.1356
 1392TIP3   OH2 4181   1.549   5.467   0.737  0.3469 -0.5674  0.4523
 1392TIP3    H1 4182   1.630   5.455   0.688  0.5321  1.3058  0.2138
 1392TIP3    H2 4183   1.550   5.559   0.764  0.0616 -1.3577  3.6529
 1393TIP3   OH2 4184   5.925   2.630   4.778  0.5522  0.4222  0.3273
 1393TIP3    H1 4185   5.837   2.592   4.782  0.4641  0.5081 -0.6636
 1393TIP3    H2 4186   5.919   2.707   4.835  0.4456 -0.4539  1.5297
 1394TIP3   OH2 4187   4.038   1.611   1.261  0.0275 -0.0864  0.4128
 1394TIP3    H1 4188   4.006   1.684   1.209 -0.9058  0.0562  1.1657
 1394TIP3    H2 4189   4.028   1.534   1.205 -0.5606  0.1229  0.2343
 1395TIP3   OH2 4190   5.562   4.505   1.168 -0.4153 -0.3128  0.1725
 1395TIP3    H1 4191   5.592   4.577   1.113  0.9278 -1.6212 -0.9049
 1395TIP3    H2 4192   5.624   4.503   1.241 -0.6735 -0.1531  0.3973
 1396TIP3   OH2 4193   3.018   3.039   2.641  0.0475 -0.2899 -0.1545
 1396TIP3    H1 4194   2.980   3.107   2.585  2.3628  0.5765 -0.7912
 1396TIP3    H2 4195   2.957   3.031   2.714 -0.2276  2.6734  0.0593
 1397TIP3   OH2 4196   5.943   5.101   0.835  0.0410 -0.3243 -0.0058
 1397TIP3    H1 4197   6.004   5.173   0.816  0.7842 -1.1089 -0.6299
 1397TIP3    H2 4198   5.872   5.112   0.772  0.0093  0.0298  0.0896
 1398TIP3   OH2 4199   5.397   0.274   3.968  0.1015  0.6638  0.5538
 1398TIP3    H1 4200   5.433   0.242   4.050  0.0008 -1.5066 -0.1907
 1398TIP3    H2 4201   5.358   0.197   3.927 -3.4526  2.4010  0.2884
 1399TIP3   OH2 4202   5.144   0.376   1.025 -0.2980  0.3683  0.1227
 1399TIP3    H1 4203   5.069   0.325   0.994 -0.2911 -0.3446  1.2089
 1399TIP3    H2 4204   5.131   0.382   1.120  0.8206  0.5638  0.2728
 1400TIP3   OH2 4205   3.146   4.805   2.979 -0.5899 -0.2056 -0.4463
 1400TIP3    H1 4206   3.133   4.882   3.035  0.4851 -1.1842  1.2358
 1400TIP3    H2 4207   3.201   4.837   2.908  0.4317  0.4785  0.6057
 1401TIP3   OH2 4208   5.498   4.170   3.783 -0.3367  0.1681 -0.2670
 1401TIP3    H1 4209   5.444   4.129   3.850  0.2732 -1.4383 -0.7037
 1401TIP3    H2 4210   5.437   4.224   3.732 -1.3831 -0.9362 -0.2308
 1402TIP3   OH2 4211   3.778   1.426   2.671  0.2556 -0.5991 -0.4226
 1402TIP3    H1 4212   3.684   1.435   2.657  0.3305 -0.3459 -0.7783
 1402TIP3    H2 4213   3.811   1.387   2.590  0.4889 -0.4683 -0.3931
 1403TIP3   OH2 4214   5.651   4.419   3.733  0.0314 -0.0734  0.2406
 1403TIP3    H1 4215   5.627   4.334   3.770  0.3496 -0.2206  0.1181
 1403TIP3    H2 4216   5.702   4.461   3.802 -0.6587  0.2814  0.5403
 1404TIP3   OH2 4217   0.005   2.987   5.131 -0.4775 -0.0594 -0.0366
 1404TIP3    H1 4218   0.076   2.947   5.182  0.6261  2.9525  1.0095
 1404TIP3    H2 4219  -0.069   2.991   5.192  0.4004  2.2198  1.0034
 1405TIP3   OH2 4220   3.901   2.745   0.483  0.2865  1.3036  0.6031
 1405TIP3    H1 4221   3.857   2.784   0.559  1.3227  0.6677  1.5549
 1405TIP3    H2 4222   3.941   2.665   0.517  0.8799  1.0708 -0.5970
 1406TIP3   OH2 4223   4.393   0.049   4.030  0.1451 -0.4703  0.0912
 1406TIP3    H1 4224   4.368   0.070   3.939  0.0310 -1.1696 -0.0442
 1406TIP3    H2 4225   4.351   0.117   4.082  1.4638  0.8560 -0.4999
 1407TIP3   OH2 4226   5.574   3.905   0.599  0.0022 -0.3933 -0.4290
 1407TIP3    H1 4227   5.493   3.953   0.619  0.1196 -0.7431  0.9931
 1407TIP3    H2 4228   5.586   3.846   0.674  1.6605 -0.2228 -0.5245
 1408TIP3   OH2 4229   0.107   5.540   3.576 -0.5133  0.4418  0.4172
 1408TIP3    H1 4230   0.195   5.502   3.574 -0.1624  1.2865 -0.8231
 1408TIP3    H2 4231   0.121   5.632   3.598 -1.0457  0.7021 -0.3257
 1409TIP3   OH2 4232   1.042   4.982   1.709  0.6008  0.2376  0.1071
 1409TIP3    H1 4233   1.086   5.064   1.685 -0.6291  1.2706  1.2280
 1409TIP3    H2 4234   1.092   4.950   1.785  1.2447 -0.2090 -0.4951
 1410TIP3   OH2 4235   3.135   5.973   0.071  0.1663 -0.1901 -0.1885
 1410TIP3    H1 4236   3.179   5.929  -0.001  0.6706  0.4653 -0.2913
 1410TIP3    H2 4237   3.201   5.978   0.140  0.0721  0.2743 -0.1294
 1411TIP3   OH2 4238   4.694   2.696   0.171 -0.0991 -0.4354 -0.6276
 1411TIP3    H1 4239   4.660   2.754   0.239  0.0559 -0.2861 -0.6751
 1411TIP3    H2 4240   4.675   2.741   0.089 -1.2891 -1.1443 -0.7523
 1412TIP3   OH2 4241   1.755   1.426   4.715 -0.1933  0.3244  0.2649
 1412TIP3    H1 4242   1.769   1.517   4.742 -1.7169  0.5061  0.5484
 1412TIP3    H2 4243   1.787   1.423   4.625  0.2836  1.0292  0.4019
 1413TIP3   OH2 4244   5.904   3.200   2.071 -0.4647  0.1670 -0.0567
 1413TIP3    H1 4245   5.845   3.140   2.118 -1.5535  0.1122 -1.4206
 1413TIP3    H2 4246   5.859   3.218   1.988  0.9757  0.9620 -0.7094
 1414TIP3   OH2 4247   0.413   1.132   0.420 -0.0998 -0.1382 -0.1642
 1414TIP3    H1 4248   0.344   1.088   0.370 -0.2152 -1.7379  1.3131
 1414TIP3    H2 4249   0.378   1.218   0.439 -0.4217  0.1898 -1.9934
 1415TIP3   OH2 4250   3.437   5.075   4.590  0.7137  0.1879 -0.1299
 1415TIP3    H1 4251   3.364   5.039   4.539 -0.5799  1.5162  0.7194
 1415TIP3    H2 4252   3.456   5.159   4.548 -0.7273  1.5610  1.7986
 1416TIP3   OH2 4253   6.127   4.896   2.982 -0.5165 -0.1423 -0.1850
 1416TIP3    H1 4254   6.085   4.913   2.897 -2.0334 -2.5453 -0.0146
 1416TIP3    H2 4255   6.197   4.833   2.962  0.7811  1.1715  0.0478
 1417TIP3   OH2 4256   4.849   0.575   1.222  0.0053 -0.3453 -0.4545
 1417TIP3    H1 4257   4.850   0.605   1.131 -0.4812  0.8303 -0.0971
 1417TIP3    H2 4258   4.920   0.624   1.264 -0.2846 -0.2923 -0.0239
 1418TIP3   OH2 4259   0.177   1.418   4.590  0.4509  0.5905  0.0958
 1418TIP3    H1 4260   0.173   1.460   4.505 -1.0412  0.1038 -0.1049
 1418TIP3    H2 4261   0.159   1.488   4.653  1.4541  0.9278  0.0305
 1419TIP3   OH2 4262   2.504   4.858   2.376  0.2222  0.4031 -0.2345
 1419TIP3    H1 4263   2.414   4.888   2.360  0.0472 -0.4393 -0.9529
 1419TIP3    H2 4264   2.530   4.818   2.293  1.1614  0.3781  0.0643
 1420TIP3   OH2 4265   1.409   3.174   2.671  0.6583  0.2612 -0.0036
 1420TIP3    H1 4266   1.407   3.081   2.691 -0.3632 -0.7124 -3.8392
 1420TIP3    H2 4267   1.497   3.190   2.638  0.1832  0.0418 -1.4607
 1421TIP3   OH2 4268   4.288   1.205   4.336  0.1027 -0.2271  0.3885
 1421TIP3    H1 4269   4.278   1.249   4.252  0.0074 -0.2919  0.3662
 1421TIP3    H2 4270   4.264   1.272   4.401 -1.8455 -0.7694  0.2981
 1422TIP3   OH2 4271   1.221   5.957   0.876 -0.3669  0.0390 -0.1619
 1422TIP3    H1 4272   1.140   5.998   0.844 -0.6060 -0.2809  0.0175
 1422TIP3    H2 4273   1.196   5.916   0.959 -0.1666 -0.5483 -0.3792
 1423TIP3   OH2 4274   5.727   3.830   0.038 -0.1022  0.1290 -0.2351
 1423TIP3    H1 4275   5.649   3.781   0.065 -1.0855  1.6945 -0.1178
 1423TIP3    H2 4276   5.739   3.895   0.107  1.8434 -0.5840  0.1836
 1424TIP3   OH2 4277   2.738   4.081   3.076  0.1296 -0.3683  0.4166
 1424TIP3    H1 4278   2.715   3.995   3.112 -1.7640 -0.0289  0.1363
 1424TIP3    H2 4279   2.681   4.091   3.000  2.6716 -0.2397 -1.6081
 1425TIP3   OH2 4280   4.525   2.216   0.920 -0.0174 -0.5374 -0.2790
 1425TIP3    H1 4281   4.606   2.205   0.870 -1.1390 -0.2189 -2.2681
 1425TIP3    H2 4282   4.504   2.309   0.911 -0.6701 -0.6408  0.1496
 1426TIP3   OH2 4283   2.609   0.058   3.729  0.2536  0.2825 -0.1446
 1426TIP3    H1 4284   2.673   0.126   3.710 -0.4859  0.4753 -2.1912
 1426TIP3    H2 4285   2.602   0.057   3.824  1.5900  1.8180  0.0067
 1427TIP3   OH2 4286   5.058   2.538   0.974  0.4128  0.3695  0.2707
 1427TIP3    H1 4287   5.116   2.559   1.046  0.4560 -0.6890  0.5514
 1427TIP3    H2 4288   5.114   2.543   0.896  0.6729  0.2027  0.4467
 1428TIP3   OH2 4289   3.223   3.330   0.537 -0.0494  0.1884 -0.6563
 1428TIP3    H1 4290   3.226   3.404   0.476 -0.8553  0.9525  0.1966
 1428TIP3    H2 4291   3.149   3.277   0.506  0.2669 -0.0428 -1.0221
 1429TIP3   OH2 4292   3.530   1.805   2.398  0.0388 -0.2557  0.0885
 1429TIP3    H1 4293   3.622   1.805   2.424  0.5720  1.9472 -1.4874
 1429TIP3    H2 4294   3.532   1.789   2.303 -1.0998  0.6017 -0.1045
 1430TIP3   OH2 4295   0.420   5.580   5.025 -0.0357  0.0168 -0.0708
 1430TIP3    H1 4296   0.470   5.628   4.959 -1.0287  0.2807 -0.6590
 1430TIP3    H2 4297   0.461   5.494   5.029  1.6780  0.8318  0.8923
 1431TIP3   OH2 4298   5.649   0.179   4.040 -0.2722 -0.5151  0.0378
 1431TIP3    H1 4299   5.689   0.128   3.969 -1.8857 -1.2085 -0.4296
 1431TIP3    H2 4300   5.641   0.267   4.005 -0.6257 -0.7435 -0.4659
 1432TIP3   OH2 4301   5.033   3.112   0.657  0.7198  0.3237 -0.4543
 1432TIP3    H1 4302   4.954   3.059   0.656  0.9856 -0.0673 -0.9841
 1432TIP3    H2 4303   5.006   3.196   0.620  0.6052  0.1071 -0.8712
 1433TIP3   OH2 4304   2.121   4.126   3.930  0.1474 -0.4455  0.4734
 1433TIP3    H1 4305   2.080   4.063   3.871  1.9649  1.1174 -2.7497
 1433TIP3    H2 4306   2.048   4.163   3.980 -1.3681 -2.5782 -0.0290
 1434TIP3   OH2 4307   2.117   4.145   5.051 -0.2930 -0.2545 -0.0100
 1434TIP3    H1 4308   2.098   4.078   5.116 -1.7209  1.1904  1.1177
 1434TIP3    H2 4309   2.210   4.165   5.065 -0.1821 -1.0500  0.4949
 1435TIP3   OH2 4310   4.449   3.787   1.266  0.4194  0.2094  0.3542
 1435TIP3    H1 4311   4.513   3.784   1.338  0.2962  0.4541  0.4755
 1435TIP3    H2 4312   4.473   3.866   1.216  0.9384 -0.3389 -0.2796
 1436TIP3   OH2 4313   1.866   4.129   1.016  0.0355  0.0660 -0.0442
 1436TIP3    H1 4314   1.859   4.210   1.065  1.5359  1.6768 -2.3081
 1436TIP3    H2 4315   1.794   4.132   0.953 -0.6245 -0.9936  0.6125
 1437TIP3   OH2 4316   0.610   5.478   4.368  0.9559 -0.1783  0.4973
 1437TIP3    H1 4317   0.531   5.518   4.331  0.9349 -0.1612  0.5597
 1437TIP3    H2 4318   0.592   5.474   4.462  1.2469  0.3182  0.5781
 1438TIP3   OH2 4319   4.291   4.522   0.641 -0.1296 -0.6476  0.3860
 1438TIP3    H1 4320   4.350   4.522   0.716 -0.9954 -1.5028  1.0984
 1438TIP3    H2 4321   4.240   4.603   0.649  0.1945 -0.4456  0.3854
 1439TIP3   OH2 4322   3.891   2.916   1.315  0.1671 -0.3513 -0.4213
 1439TIP3    H1 4323   3.958   2.946   1.376 -0.2809  0.4976 -0.3310
 1439TIP3    H2 4324   3.876   2.990   1.257 -0.2263 -0.7564 -0.8450
 1440TIP3   OH2 4325   2.897   4.224   2.208  0.2087  0.7399 -0.0820
 1440TIP3    H1 4326   2.968   4.286   2.190  1.0881  1.4616  4.5185
 1440TIP3    H2 4327   2.938   4.156   2.262 -2.0773 -0.1620  0.6541
 1441TIP3   OH2 4328   3.047   5.755   3.747  0.9725  0.0681 -0.0139
 1441TIP3    H1 4329   2.979   5.751   3.814  0.3794 -1.6436 -0.6598
 1441TIP3    H2 4330   3.115   5.696   3.778  0.7054 -0.7201 -0.8663
 1442TIP3   OH2 4331   3.213   2.960   4.096  0.1243 -0.0441 -0.0909
 1442TIP3    H1 4332   3.191   2.868   4.105 -1.7651  0.4888  1.5366
 1442TIP3    H2 4333   3.269   2.979   4.171 -1.2550  0.5570  0.8302
 1443TIP3   OH2 4334   5.953   5.246   1.576  0.1247  0.4842  0.3486
 1443TIP3    H1 4335   5.943   5.200   1.493 -1.3556 -0.1725  0.8514
 1443TIP3    H2 4336   6.042   5.227   1.605  0.2092 -0.3538 -0.4506
 1444TIP3   OH2 4337   5.350   1.862   2.151  0.3490 -0.1474  0.3761
 1444TIP3    H1 4338   5.315   1.820   2.073  1.0028  0.8530 -0.4858
 1444TIP3    H2 4339   5.415   1.924   2.118  2.0680 -1.0706  1.8211
 1445TIP3   OH2 4340   5.309   2.669   0.967 -0.3512 -0.3726 -0.1808
 1445TIP3    H1 4341   5.248   2.730   1.008 -0.0899 -0.6365  0.6181
 1445TIP3    H2 4342   5.393   2.716   0.967 -0.4331 -0.2082 -0.8179
 1446TIP3   OH2 4343   4.412   3.955   2.508  0.0759  0.6502 -0.3436
 1446TIP3    H1 4344   4.463   4.034   2.491  0.3762  0.1969 -1.6166
 1446TIP3    H2 4345   4.371   3.971   2.593  3.3457  0.4795  1.4132
 1447TIP3   OH2 4346   6.028   2.772   2.000  0.0863  0.1853  0.2614
 1447TIP3    H1 4347   6.059   2.788   1.911 -1.4871  1.2871 -0.1214
 1447TIP3    H2 4348   6.047   2.679   2.015 -0.0849 -0.1580 -1.4290
 1448TIP3   OH2 4349   6.043   0.042   4.954 -0.1137  0.1864  0.7585
 1448TIP3    H1 4350   5.961   0.080   4.988 -1.9252 -1.4619 -1.4241
 1448TIP3    H2 4351   6.108   0.062   5.021 -2.0440  2.5070  2.1298
 1449TIP3   OH2 4352   2.775   2.583   4.729 -0.2574 -0.5623  0.3577
 1449TIP3    H1 4353   2.826   2.617   4.802  1.3669 -1.2894 -0.3960
 1449TIP3    H2 4354   2.714   2.521   4.770  0.6353 -0.9776  1.1157
 1450TIP3   OH2 4355   2.948   3.555   3.348  0.4112  0.0733  0.0664
 1450TIP3    H1 4356   2.933   3.590   3.436 -1.7415 -0.6078  0.0220
 1450TIP3    H2 4357   3.006   3.481   3.362 -1.5020 -1.2941  1.2556
 1451TIP3   OH2 4358   6.153   5.263   4.270 -0.3809 -0.4857  0.2879
 1451TIP3    H1 4359   6.234   5.260   4.220 -0.4283  1.8774 -0.0360
 1451TIP3    H2 4360   6.169   5.328   4.339 -1.6576 -0.7197  0.8432
 1452TIP3   OH2 4361   2.659   4.363   1.406 -0.1497 -0.2212  0.4509
 1452TIP3    H1 4362   2.751   4.353   1.427  0.1018  0.0117 -0.4553
 1452TIP3    H2 4363   2.642   4.295   1.341 -0.5383 -0.0847  0.4086
 1453TIP3   OH2 4364   2.881   3.563   5.044  0.3772  0.1667 -0.0079
 1453TIP3    H1 4365   2.876   3.471   5.068 -2.3172  0.6511  1.7264
 1453TIP3    H2 4366   2.802   3.579   4.991  1.7728  1.1168 -1.9412
 1454TIP3   OH2 4367   6.182   1.682   1.001 -0.3055 -0.0520  0.1825
 1454TIP3    H1 4368   6.273   1.652   1.006  0.1274  0.7483 -1.7440
 1454TIP3    H2 4369   6.178   1.756   1.062  0.5061  0.2106 -0.0624
 1455TIP3   OH2 4370   5.205   1.754   2.711 -0.3537  0.2270 -0.0683
 1455TIP3    H1 4371   5.286   1.714   2.743 -0.7612 -0.4968  0.0759
 1455TIP3    H2 4372   5.164   1.686   2.658  0.1255  1.2793 -1.8631
 1456TIP3   OH2 4373   4.995   0.154   1.563 -0.2518 -0.4961 -0.0516
 1456TIP3    H1 4374   5.067   0.189   1.615 -0.4970  0.2090 -0.1820
 1456TIP3    H2 4375   4.921   0.212   1.581  0.2767  1.3504 -3.0764
 1457TIP3   OH2 4376   2.009   5.777   1.028 -0.7624  0.3032 -0.1173
 1457TIP3    H1 4377   2.007   5.756   1.121  0.0340  0.6376 -0.0195
 1457TIP3    H2 4378   2.054   5.703   0.987  0.2084  0.8344 -0.0369
 1458TIP3   OH2 4379   4.860   2.932   0.751 -0.2265  0.2946  0.0208
 1458TIP3    H1 4380   4.769   2.916   0.726 -0.1904 -2.4784  1.2588
 1458TIP3    H2 4381   4.858   2.933   0.847  0.9433  1.1644  0.0557
 1459TIP3   OH2 4382   5.502   3.171   0.317 -0.4159 -0.1227 -0.2005
 1459TIP3    H1 4383   5.430   3.191   0.257 -0.4636  1.1028  0.2522
 1459TIP3    H2 4384   5.461   3.120   0.387 -0.4196 -1.2858 -1.0198
 1460TIP3   OH2 4385   0.395   3.600   5.177  0.0022  0.1131 -0.0495
 1460TIP3    H1 4386   0.420   3.686   5.210  2.8779 -0.3175 -0.8031
 1460TIP3    H2 4387   0.462   3.579   5.111 -1.0874 -2.3243 -0.5022
 1461TIP3   OH2 4388   6.313   3.780   1.046 -0.0198 -0.3038  0.3262
 1461TIP3    H1 4389   6.295   3.826   1.127 -1.0852 -0.9920  0.4950
 1461TIP3    H2 4390   6.229   3.745   1.019 -0.0293  1.2517 -1.9432
 1462TIP3   OH2 4391   3.927   5.316   0.987 -0.1299  0.2312 -0.0236
 1462TIP3    H1 4392   3.968   5.309   0.901 -0.0485  0.6623 -0.0226
 1462TIP3    H2 4393   4.001   5.321   1.048 -0.1374 -2.3882  0.3035
 1463TIP3   OH2 4394   2.047   0.961   0.658  0.0622 -0.0430  0.2824
 1463TIP3    H1 4395   2.113   0.970   0.588 -1.0208  0.2976 -0.7235
 1463TIP3    H2 4396   2.040   1.049   0.694 -1.5952  0.5340 -1.2865
 1464TIP3   OH2 4397   5.750   3.615   3.016  0.2498  0.3252 -0.1411
 1464TIP3    H1 4398   5.788   3.671   3.083  0.9679 -1.5651  1.1168
 1464TIP3    H2 4399   5.800   3.533   3.021 -0.4361 -0.3027 -2.2157
 1465TIP3   OH2 4400   2.653   2.803   5.138  0.0486 -0.6655 -0.4535
 1465TIP3    H1 4401   2.654   2.813   5.043 -0.7601  0.1110 -0.3923
 1465TIP3    H2 4402   2.686   2.886   5.171 -0.6478 -0.5506 -0.0383
 1466TIP3   OH2 4403   5.539   3.380   5.028  0.0912  0.0627  0.3704
 1466TIP3    H1 4404   5.599   3.307   5.015 -0.0938 -0.0986  0.4278
 1466TIP3    H2 4405   5.548   3.433   4.949  0.7617  0.3627  0.6332
 1467TIP3   OH2 4406   3.537   1.753   2.130  0.3950 -0.1138 -0.1716
 1467TIP3    H1 4407   3.620   1.781   2.089  1.2469 -0.7796  1.0425
 1467TIP3    H2 4408   3.518   1.668   2.090  0.1072  0.1862 -0.6891
 1468TIP3   OH2 4409   1.357   3.348   2.000  0.3419 -1.0803 -0.1635
 1468TIP3    H1 4410   1.424   3.405   1.962 -0.4284 -0.4764 -0.6417
 1468TIP3    H2 4411   1.328   3.293   1.928  0.2146 -1.2336  0.0031
 1469TIP3   OH2 4412   2.428   4.654   3.220  0.1300 -0.2648  0.0678
 1469TIP3    H1 4413   2.357   4.590   3.211  0.1438 -0.4313  1.0234
 1469TIP3    H2 4414   2.467   4.635   3.306  1.0346  0.1263 -0.2447
 1470TIP3   OH2 4415   4.521   0.315   2.822  0.2108  0.1122  0.2200
 1470TIP3    H1 4416   4.617   0.313   2.825  0.3292 -1.8750 -1.9069
 1470TIP3    H2 4417   4.500   0.408   2.810  1.8997  0.5363  0.2357
 1471TIP3   OH2 4418   0.554   1.162   5.041  0.5942  0.0550  0.5824
 1471TIP3    H1 4419   0.583   1.253   5.033  1.5972 -0.2363  0.7319
 1471TIP3    H2 4420   0.499   1.161   5.119  0.3867  0.5791  0.4480
 1472TIP3   OH2 4421   4.825   3.165   3.677  0.2360 -1.1233  0.2996
 1472TIP3    H1 4422   4.899   3.115   3.710 -1.3701 -3.4315  0.6737
 1472TIP3    H2 4423   4.787   3.206   3.755  1.5562  0.8374 -0.0077
 1473TIP3   OH2 4424   5.060   5.010   1.112  0.2414 -0.4268 -0.5400
 1473TIP3    H1 4425   5.063   4.920   1.080 -0.7266 -0.7102  0.1235
 1473TIP3    H2 4426   5.149   5.043   1.101  0.4600 -1.2705 -1.3379
 1474TIP3   OH2 4427   2.313   5.544   4.751 -0.3764 -0.2281  0.0562
 1474TIP3    H1 4428   2.235   5.492   4.731 -1.0809  0.6579  0.4062
 1474TIP3    H2 4429   2.281   5.613   4.809  0.5322  0.5481 -0.3349
 1475TIP3   OH2 4430   4.937   5.281   0.739  0.3508  0.1014  0.2367
 1475TIP3    H1 4431   4.984   5.206   0.702 -0.6992 -2.1914  3.1791
 1475TIP3    H2 4432   4.860   5.291   0.682  1.0066 -0.3827 -0.7704
 1476TIP3   OH2 4433   2.476   1.067   2.233  0.2460 -0.1178 -0.1752
 1476TIP3    H1 4434   2.488   1.161   2.239 -0.1079 -0.1314  1.3514
 1476TIP3    H2 4435   2.381   1.055   2.241  0.3565 -0.6240  0.5435
 1477TIP3   OH2 4436   4.932   4.616   4.578 -0.1185  0.6008 -0.3362
 1477TIP3    H1 4437   4.989   4.665   4.519 -1.8511  1.8034 -1.0739
 1477TIP3    H2 4438   4.915   4.533   4.532  2.3909 -0.5847  0.6846
 1478TIP3   OH2 4439   0.187   2.816   0.314  0.2568 -0.1161  0.2170
 1478TIP3    H1 4440   0.275   2.854   0.315  0.7277 -0.9319 -2.3191
 1478TIP3    H2 4441   0.141   2.863   0.244 -1.9325  1.3912  2.5029
 1479TIP3   OH2 4442   5.133   3.496   1.558 -0.5654 -0.3583  0.1582
 1479TIP3    H1 4443   5.107   3.412   1.594  1.3315 -0.6985  0.8626
 1479TIP3    H2 4444   5.173   3.475   1.474  0.1790 -0.2088  0.4668
 1480TIP3   OH2 4445   4.111   2.182   4.037  0.6979  0.0837  0.4505
 1480TIP3    H1 4446   4.018   2.165   4.053  0.9957 -2.1607  0.1574
 1480TIP3    H2 4447   4.113   2.228   3.954 -0.2240  1.9910  1.4102
 1481TIP3   OH2 4448   1.971   1.272   0.746  0.3645 -0.3744 -0.1649
 1481TIP3    H1 4449   2.023   1.344   0.784  2.4682 -1.5475 -0.6557
 1481TIP3    H2 4450   1.939   1.308   0.663 -0.6583  0.7732  0.6886
 1482TIP3   OH2 4451   5.751   5.386   4.555  0.4047  0.0227 -0.2467
 1482TIP3    H1 4452   5.784   5.471   4.586 -0.5955 -0.0653  1.1637
 1482TIP3    H2 4453   5.661   5.382   4.586  0.0846 -1.1153 -1.2302
 1483TIP3   OH2 4454   4.672   0.292   3.325  0.1497  0.0993  0.1292
 1483TIP3    H1 4455   4.683   0.385   3.344  1.1314 -0.2275  1.2585
 1483TIP3    H2 4456   4.595   0.288   3.269 -0.2953  1.5277  0.6059
 1484TIP3   OH2 4457   4.772   3.927   2.309 -0.2660  0.3270 -0.3120
 1484TIP3    H1 4458   4.774   4.023   2.316  1.5750  0.3731 -0.8077
 1484TIP3    H2 4459   4.839   3.897   2.371  0.2989 -0.5138 -1.2858
 1485TIP3   OH2 4460   4.113   5.451   3.145 -0.0175  0.0225 -0.1428
 1485TIP3    H1 4461   4.036   5.502   3.120 -0.1626 -1.3653 -2.7876
 1485TIP3    H2 4462   4.185   5.488   3.094  1.0834  1.0219  1.9799
 1486TIP3   OH2 4463   3.973   0.229   4.312 -0.3273 -0.6040  0.1711
 1486TIP3    H1 4464   3.937   0.199   4.229 -0.3878 -1.3745  0.4733
 1486TIP3    H2 4465   3.992   0.322   4.297 -1.4158 -0.4483 -0.3390
 1487TIP3   OH2 4466   4.064   5.669   5.066 -0.8074 -0.6291  0.5095
 1487TIP3    H1 4467   4.117   5.746   5.089 -0.0828  0.0409 -2.7822
 1487TIP3    H2 4468   4.127   5.598   5.055 -1.1333 -0.9751  0.8590
 1488TIP3   OH2 4469   1.626   4.522   2.941  0.3120 -0.4950  0.0996
 1488TIP3    H1 4470   1.608   4.537   2.848  0.1886 -0.9217  0.0541
 1488TIP3    H2 4471   1.690   4.590   2.964 -0.9882  0.7658  0.1534
 1489TIP3   OH2 4472   0.261   2.533   4.854  0.6098 -0.0257  0.1474
 1489TIP3    H1 4473   0.344   2.544   4.808  0.1512  2.9225 -0.1811
 1489TIP3    H2 4474   0.274   2.576   4.939 -0.2978 -0.3299  0.4590
 1490TIP3   OH2 4475   1.789   3.302  -0.018 -0.0729  0.2513  0.0003
 1490TIP3    H1 4476   1.734   3.275   0.054  0.0333  0.2703  0.0890
 1490TIP3    H2 4477   1.873   3.326   0.023  0.2732 -0.5502 -0.2152
 1491TIP3   OH2 4478   5.124   3.778   3.246 -0.5227 -0.2034  0.1825
 1491TIP3    H1 4479   5.168   3.737   3.321  0.7218  1.2026  0.2616
 1491TIP3    H2 4480   5.065   3.711   3.214  0.3594 -1.5361  1.2222
 1492TIP3   OH2 4481   4.385   3.908   3.885 -0.1517 -0.0453 -0.0638
 1492TIP3    H1 4482   4.298   3.944   3.903 -0.0899  0.3800 -0.5888
 1492TIP3    H2 4483   4.369   3.836   3.824 -0.2324 -0.6495  0.6543
 1493TIP3   OH2 4484   3.956   2.385   5.067  0.2109  0.7276 -0.2344
 1493TIP3    H1 4485   3.882   2.329   5.089 -0.8139  2.0846 -0.1500
 1493TIP3    H2 4486   3.923   2.442   4.997  1.6871  0.2622 -1.3740
 1494TIP3   OH2 4487   0.417   5.617   0.914  0.3833  0.2008 -0.1658
 1494TIP3    H1 4488   0.444   5.526   0.916 -0.7590 -0.1396  0.9728
 1494TIP3    H2 4489   0.325   5.615   0.888 -0.1374  0.8648  1.4933
 1495TIP3   OH2 4490   1.126   1.213   1.404 -0.2127 -0.2505 -0.1643
 1495TIP3    H1 4491   1.186   1.150   1.446 -0.5325  0.4479  1.4333
 1495TIP3    H2 4492   1.147   1.208   1.311  0.7283 -1.6996  0.0916
 1496TIP3   OH2 4493   5.234   5.065   4.111  0.2937 -0.1937 -0.7447
 1496TIP3    H1 4494   5.185   5.031   4.036  0.6375  0.9623 -1.5214
 1496TIP3    H2 4495   5.317   5.016   4.109 -0.0549 -0.8050 -0.5600
 1497TIP3   OH2 4496   2.103   3.161   3.543 -0.4812  0.4481 -0.5657
 1497TIP3    H1 4497   2.122   3.083   3.491  0.5763  0.5704 -0.3964
 1497TIP3    H2 4498   2.088   3.127   3.631  0.9154  0.4717 -0.2818
 1498TIP3   OH2 4499   0.818   3.028   0.986  0.6287 -0.5937  0.0195
 1498TIP3    H1 4500   0.738   3.015   1.037 -1.0383  0.9070 -2.0408
 1498TIP3    H2 4501   0.873   2.953   1.009 -1.2064 -1.5043  1.7832
 1499TIP3   OH2 4502   5.601   3.269   3.550 -0.4339 -0.3003 -0.2390
 1499TIP3    H1 4503   5.610   3.178   3.577  0.9084  0.1501  0.9931
 1499TIP3    H2 4504   5.572   3.315   3.629  0.1014  0.5100 -0.4958
 1500TIP3   OH2 4505   4.816   0.165   3.144 -0.8564 -0.3667  0.1614
 1500TIP3    H1 4506   4.757   0.196   3.213  0.1956  1.0751  0.4736
 1500TIP3    H2 4507   4.900   0.208   3.163  0.6707 -3.1885  0.3789
 1501TIP3   OH2 4508   4.951   4.316   2.891  0.0499 -0.0818  0.4916
 1501TIP3    H1 4509   5.003   4.316   2.811 -0.1601 -1.7591  0.3323
 1501TIP3    H2 4510   4.983   4.392   2.940  2.3554 -0.7938  0.2088
 1502TIP3   OH2 4511   5.694   1.009   3.306 -0.0142  0.2002  0.0886
 1502TIP3    H1 4512   5.711   0.924   3.346  0.6936  0.6395  0.7674
 1502TIP3    H2 4513   5.616   1.042   3.350  1.8508  1.5455  2.6643
 1503TIP3   OH2 4514   4.658   5.900   1.835  0.7664 -0.0873  0.2994
 1503TIP3    H1 4515   4.571   5.863   1.850  0.6076  0.0385 -0.2575
 1503TIP3    H2 4516   4.708   5.829   1.794  1.2078 -0.4446  1.4360
 1504TIP3   OH2 4517   5.066   0.691   4.035  0.0863 -0.2099  0.0818
 1504TIP3    H1 4518   5.021   0.689   4.120  1.0573 -0.2555  0.6159
 1504TIP3    H2 4519   5.112   0.607   4.032  1.9214  0.7328  0.5722
 1505TIP3   OH2 4520   6.156   0.985   2.109  0.3092 -0.1224 -0.1371
 1505TIP3    H1 4521   6.192   1.020   2.027  1.7114  1.5224  1.1066
 1505TIP3    H2 4522   6.228   0.936   2.148 -0.3806 -0.9750  0.1028
 1506TIP3   OH2 4523   2.296   2.979   1.272 -0.2187 -0.3456  0.0256
 1506TIP3    H1 4524   2.372   3.022   1.231  0.2299  1.1802  2.2870
 1506TIP3    H2 4525   2.334   2.907   1.323 -0.3988 -0.2160  0.3439
 1507TIP3   OH2 4526   2.732   5.478   2.503  0.4803 -0.4653 -0.0462
 1507TIP3    H1 4527   2.755   5.556   2.554  1.6116  0.3717 -1.7379
 1507TIP3    H2 4528   2.637   5.480   2.498  0.5361  2.1070 -1.8735
 1508TIP3   OH2 4529   1.273   3.455   2.511 -0.3757 -0.0008  0.3278
 1508TIP3    H1 4530   1.272   3.404   2.592 -0.2232  0.8305  0.8658
 1508TIP3    H2 4531   1.269   3.389   2.442  0.2968 -0.7728  0.9936
 1509TIP3   OH2 4532   2.646   3.200   4.188  0.4725  0.6668 -0.5271
 1509TIP3    H1 4533   2.552   3.221   4.186  0.1572 -0.5050  0.4982
 1509TIP3    H2 4534   2.682   3.244   4.111 -0.9572  0.9647 -1.0618
 1510TIP3   OH2 4535   2.678   0.717   3.867 -0.1765 -0.7141  0.1913
 1510TIP3    H1 4536   2.627   0.793   3.836  1.5383  0.4270  0.0064
 1510TIP3    H2 4537   2.728   0.750   3.942  1.3677 -1.3378 -0.5030
 1511TIP3   OH2 4538   0.381   0.579   4.252  0.2350  0.7696 -0.0525
 1511TIP3    H1 4539   0.285   0.569   4.251  0.3469 -2.7353  2.8067
 1511TIP3    H2 4540   0.410   0.533   4.174 -0.4132 -1.7620  1.0762
 1512TIP3   OH2 4541   5.840   5.612   0.292 -0.2242  0.0245 -0.2145
 1512TIP3    H1 4542   5.767   5.672   0.279  0.8457  1.0832 -1.7477
 1512TIP3    H2 4543   5.859   5.616   0.385 -1.4329  0.5335  0.0309
 1513TIP3   OH2 4544   3.604   0.358   0.073 -0.3761  0.2719 -0.0922
 1513TIP3    H1 4545   3.679   0.344   0.017 -0.5619 -1.7768  0.0954
 1513TIP3    H2 4546   3.539   0.401   0.017 -0.0215 -0.3897 -1.0334
 1514TIP3   OH2 4547   2.538   2.082   3.214 -0.0928  0.3074 -0.5730
 1514TIP3    H1 4548   2.586   2.037   3.145  2.2640  0.6873  0.7016
 1514TIP3    H2 4549   2.551   2.027   3.291  1.5263  2.2725  0.6595
 1515TIP3   OH2 4550   5.519   1.721   1.270  0.1460  0.4618  0.1912
 1515TIP3    H1 4551   5.442   1.753   1.222 -0.1727  1.9240  1.5933
 1515TIP3    H2 4552   5.486   1.646   1.319  0.1401 -0.1761 -0.7477
 1516TIP3   OH2 4553   4.370   4.369   1.424 -0.3806 -0.3611 -0.0661
 1516TIP3    H1 4554   4.463   4.367   1.404 -0.3568 -0.9398  0.0819
 1516TIP3    H2 4555   4.366   4.390   1.517 -0.3790 -0.7803  0.0308
 1517TIP3   OH2 4556   0.202   4.673   0.980 -0.2495 -0.5032 -0.7397
 1517TIP3    H1 4557   0.249   4.593   1.007 -1.0104 -0.2577  1.5243
 1517TIP3    H2 4558   0.120   4.641   0.943 -1.3692 -0.8211  1.8260
 1518TIP3   OH2 4559   6.093   4.769   2.179  0.1634  0.6703  0.2242
 1518TIP3    H1 4560   6.001   4.777   2.152  0.2367  1.4246  0.1947
 1518TIP3    H2 4561   6.092   4.697   2.243 -0.5151  0.9494  0.5442
 1519TIP3   OH2 4562   6.126   3.431   4.770  0.2588 -0.1523  0.2782
 1519TIP3    H1 4563   6.150   3.491   4.699  0.9153 -1.1712 -0.4038
 1519TIP3    H2 4564   6.127   3.344   4.729  1.6243 -0.8871  1.7306
 1520TIP3   OH2 4565   1.583   1.349   1.009 -0.3588 -0.4122 -0.0850
 1520TIP3    H1 4566   1.611   1.296   1.084 -0.3784  0.1848  0.3577
 1520TIP3    H2 4567   1.649   1.418   1.002 -0.5170 -0.2929 -0.4260
 1521TIP3   OH2 4568   0.546   1.508   3.626  0.6829  0.3320 -0.3885
 1521TIP3    H1 4569   0.471   1.514   3.566  0.2409  3.4839  0.2966
 1521TIP3    H2 4570   0.516   1.449   3.696 -0.9314  1.0094 -0.4649
 1522TIP3   OH2 4571   3.989   1.142   2.687  0.0544 -0.5247 -0.4836
 1522TIP3    H1 4572   4.063   1.093   2.651  0.2401 -0.8509  0.3197
 1522TIP3    H2 4573   4.026   1.193   2.759 -0.5338 -0.8360  0.0482
 1523TIP3   OH2 4574   2.602   0.100   4.597 -0.1478 -0.1350  0.3403
 1523TIP3    H1 4575   2.523   0.139   4.560 -0.4430 -1.1621 -0.1533
 1523TIP3    H2 4576   2.592   0.111   4.692 -0.8704 -0.2204  0.2793
 1524TIP3   OH2 4577   5.421   0.213   4.504 -0.4247 -0.4542  0.0908
 1524TIP3    H1 4578   5.472   0.233   4.425  0.5994 -0.1120  0.8158
 1524TIP3    H2 4579   5.486   0.177   4.565 -0.9791  0.3688  1.1865
 1525TIP3   OH2 4580   5.525   3.523   1.431 -0.3865 -0.4262 -0.2825
 1525TIP3    H1 4581   5.557   3.443   1.391  1.1070  0.7119 -1.4905
 1525TIP3    H2 4582   5.436   3.533   1.396  0.3866 -0.1773 -2.3181
 1526TIP3   OH2 4583   2.692   1.611   2.426 -0.1100 -0.3543 -0.2806
 1526TIP3    H1 4584   2.663   1.567   2.507  0.1464  1.4056  0.8166
 1526TIP3    H2 4585   2.654   1.558   2.356 -1.0780 -1.4512  1.0067
 1527TIP3   OH2 4586   1.230   1.640   1.563 -0.4170 -0.4200 -0.5705
 1527TIP3    H1 4587   1.251   1.605   1.477 -0.2961 -0.9205 -0.3430
 1527TIP3    H2 4588   1.314   1.665   1.601 -0.5083  0.1923 -0.7571
 1528TIP3   OH2 4589   1.880   4.649   3.027  0.0120 -0.0698  0.1826
 1528TIP3    H1 4590   1.864   4.657   3.121  1.9237 -1.5515  0.6994
 1528TIP3    H2 4591   1.939   4.722   3.007  0.6695 -0.5236  0.4345
 1529TIP3   OH2 4592   2.628   5.122   4.004  0.3382 -0.5051 -0.3118
 1529TIP3    H1 4593   2.543   5.097   4.039 -0.4201  1.0828 -0.9300
 1529TIP3    H2 4594   2.650   5.052   3.943 -0.8871 -0.5673 -0.7078
 1530TIP3   OH2 4595   0.816   4.152   0.754  0.0233  0.0970  0.2826
 1530TIP3    H1 4596   0.751   4.090   0.788  1.2675 -1.8832 -0.7497
 1530TIP3    H2 4597   0.827   4.127   0.662 -0.7200  3.0588 -0.7358
 1531TIP3   OH2 4598   5.044   4.749   0.715  0.1221  0.7239 -0.0330
 1531TIP3    H1 4599   5.028   4.688   0.787  1.4317  1.8699  1.3254
 1531TIP3    H2 4600   5.138   4.770   0.722 -0.4801  3.8558  0.4541
 1532TIP3   OH2 4601   3.613   2.073   0.733  0.0745  0.0680 -0.0802
 1532TIP3    H1 4602   3.653   1.997   0.690  2.2723  0.4198  1.1670
 1532TIP3    H2 4603   3.534   2.091   0.682  0.8202 -1.4948 -1.9180
 1533TIP3   OH2 4604   4.342   3.141   2.321 -0.0851 -0.0746 -0.3350
 1533TIP3    H1 4605   4.352   3.203   2.249  0.2679  0.3846  0.1012
 1533TIP3    H2 4606   4.256   3.161   2.358  0.5668  1.0718  0.6361
 1534TIP3   OH2 4607   6.099   4.053   4.575 -0.4469 -1.0464 -0.1341
 1534TIP3    H1 4608   6.039   4.023   4.506 -2.3194  0.0975  0.9225
 1534TIP3    H2 4609   6.103   4.148   4.563  0.8256 -1.0588  0.1072
 1535TIP3   OH2 4610   4.950   1.310   0.417 -0.1619  0.3813 -0.0825
 1535TIP3    H1 4611   4.981   1.242   0.357  0.5139  0.1440  0.5290
 1535TIP3    H2 4612   4.886   1.266   0.473  1.2166 -0.1087  1.1677
 1536TIP3   OH2 4613   5.349   2.241   0.753  0.1386  0.5306 -0.1215
 1536TIP3    H1 4614   5.443   2.239   0.768  0.2693  0.0230 -0.9298
 1536TIP3    H2 4615   5.321   2.328   0.782  0.8302  0.6266  0.2559
 1537TIP3   OH2 4616   4.312   4.015   0.546 -0.4293  0.2219 -0.4739
 1537TIP3    H1 4617   4.228   3.972   0.562 -0.0224 -0.2268  0.4897
 1537TIP3    H2 4618   4.375   3.965   0.598  0.7337 -0.4904 -2.4294
 1538TIP3   OH2 4619   3.535   0.254   3.007  0.0076  0.3069  1.0412
 1538TIP3    H1 4620   3.553   0.167   2.971 -0.8341 -0.5194  2.5589
 1538TIP3    H2 4621   3.522   0.240   3.100 -1.6450  1.8397  1.0930
 1539TIP3   OH2 4622   1.723   1.777   1.901  0.1460  0.0825  0.4044
 1539TIP3    H1 4623   1.714   1.685   1.874 -1.7957  0.4990 -0.5535
 1539TIP3    H2 4624   1.731   1.774   1.996  0.7077 -1.1059  0.3351
 1540TIP3   OH2 4625   2.829   0.868   0.625  0.0523  0.4829 -0.2651
 1540TIP3    H1 4626   2.757   0.806   0.617 -0.4714  0.9097  0.9422
 1540TIP3    H2 4627   2.831   0.914   0.541 -0.1166 -0.5410 -0.8424
 1541TIP3   OH2 4628   4.206   3.191   4.893 -0.1378 -0.5159  0.2931
 1541TIP3    H1 4629   4.260   3.255   4.846  0.6020 -1.2841  0.0527
 1541TIP3    H2 4630   4.259   3.165   4.968  0.5766 -2.4675 -0.8120
 1542TIP3   OH2 4631   3.698   0.733   1.654 -0.3754 -0.1832 -0.4948
 1542TIP3    H1 4632   3.632   0.746   1.586  1.2002  1.0325 -1.8851
 1542TIP3    H2 4633   3.781   0.731   1.606  0.9964  2.6399  1.5225
 1543TIP3   OH2 4634   0.836   2.211   1.147 -0.0245  0.5845 -0.2411
 1543TIP3    H1 4635   0.892   2.134   1.159 -0.4437  0.4112  0.6475
 1543TIP3    H2 4636   0.837   2.255   1.232 -2.6054 -0.3571  0.3875
 1544TIP3   OH2 4637   3.414   5.273   2.129 -0.0456 -0.0111  0.1982
 1544TIP3    H1 4638   3.474   5.220   2.181 -0.2454 -0.2053  0.2310
 1544TIP3    H2 4639   3.471   5.332   2.080  0.2010 -0.5248 -0.1396
 1545TIP3   OH2 4640   6.194   2.769   3.341 -0.2305 -0.0021 -0.3043
 1545TIP3    H1 4641   6.213   2.859   3.317 -0.1023 -0.1314 -0.6946
 1545TIP3    H2 4642   6.111   2.750   3.297  0.7044 -0.6989 -1.8739
 1546TIP3   OH2 4643   4.569   4.831   2.742 -0.5628  0.2298  0.4216
 1546TIP3    H1 4644   4.572   4.741   2.772 -1.4207  0.1532  0.3049
 1546TIP3    H2 4645   4.553   4.824   2.648 -0.5872  0.5041  0.4040
 1547TIP3   OH2 4646   2.471   1.875   0.092 -0.1210  0.2106  0.1753
 1547TIP3    H1 4647   2.468   1.941   0.023 -3.0515  0.1469  0.1104
 1547TIP3    H2 4648   2.446   1.793   0.048  2.5214 -0.8442  0.4485
 1548TIP3   OH2 4649   1.648   0.908   2.164  0.3421  0.3704 -0.1253
 1548TIP3    H1 4650   1.736   0.888   2.194  0.2011  0.7050  0.5510
 1548TIP3    H2 4651   1.649   1.003   2.150 -0.3640  0.6788  1.5666
 1549TIP3   OH2 4652   5.107   1.789   0.840  0.2978  0.3402 -0.2416
 1549TIP3    H1 4653   5.040   1.761   0.777  0.6365  0.4676 -0.6612
 1549TIP3    H2 4654   5.115   1.883   0.826  0.6998  0.2944 -0.3167
 1550TIP3   OH2 4655   1.509   4.401   1.803 -0.5181 -0.4567 -0.7200
 1550TIP3    H1 4656   1.487   4.424   1.893 -0.7413 -2.3877 -0.2356
 1550TIP3    H2 4657   1.591   4.447   1.787 -0.4559 -0.0981  0.4912
 1551TIP3   OH2 4658   3.213   3.293   2.615 -0.4218 -0.1790  0.1417
 1551TIP3    H1 4659   3.155   3.368   2.626 -0.5360 -0.0173 -1.3062
 1551TIP3    H2 4660   3.154   3.217   2.614 -0.9248  0.1023 -3.0232
 1552TIP3   OH2 4661   1.624   1.166   2.046  0.1908 -0.3434 -0.1724
 1552TIP3    H1 4662   1.694   1.198   1.989 -0.1090 -0.5785 -0.6844
 1552TIP3    H2 4663   1.549   1.223   2.028  0.2051 -0.1861  0.2612
 1553TIP3   OH2 4664   6.156   3.197   4.627 -0.1921 -0.0817  0.3799
 1553TIP3    H1 4665   6.224   3.143   4.668  0.0710  0.1275  0.2200
 1553TIP3    H2 4666   6.107   3.137   4.571 -0.6222 -0.3987  1.0699
 1554TIP3   OH2 4667   0.223   5.868   3.135  0.2154  0.3256  0.4773
 1554TIP3    H1 4668   0.297   5.926   3.149 -1.1801  1.9723  1.4108
 1554TIP3    H2 4669   0.168   5.914   3.071 -0.1143 -0.7607 -0.0473
 1555TIP3   OH2 4670   5.365   0.645   1.380  0.5294  0.5222 -0.5101
 1555TIP3    H1 4671   5.450   0.610   1.408 -0.3106 -0.1760  1.3183
 1555TIP3    H2 4672   5.371   0.739   1.398  0.3820  0.2396  1.1233
 1556TIP3   OH2 4673   3.220   5.490   0.642  0.3499  0.5361 -0.0254
 1556TIP3    H1 4674   3.269   5.434   0.702 -0.4464  0.2205  0.3543
 1556TIP3    H2 4675   3.128   5.472   0.663  0.0693  0.9263 -0.8871
 1557TIP3   OH2 4676   3.807   0.433   3.022 -0.3800 -0.5001 -0.0668
 1557TIP3    H1 4677   3.750   0.360   2.995  0.3214 -0.9489 -0.3635
 1557TIP3    H2 4678   3.858   0.398   3.095  0.2156 -0.4326 -0.4413
 1558TIP3   OH2 4679   3.923   1.363   0.389 -0.5710  0.5267  0.3849
 1558TIP3    H1 4680   3.854   1.429   0.392 -1.5986 -0.5114  0.2574
 1558TIP3    H2 4681   3.938   1.348   0.295  0.1768  1.0742  0.4016
 1559TIP3   OH2 4682   0.760   0.856   1.013 -0.7941  0.1933 -0.0488
 1559TIP3    H1 4683   0.709   0.869   0.933  0.7823  0.9205 -0.9724
 1559TIP3    H2 4684   0.844   0.822   0.983  0.1304  1.2527  1.2085
 1560TIP3   OH2 4685   1.763   2.191   0.917  0.0804  0.3169  0.0684
 1560TIP3    H1 4686   1.751   2.253   0.988  2.1896  1.9612 -0.8955
 1560TIP3    H2 4687   1.750   2.242   0.837  0.5648 -0.7951 -0.7533
 1561TIP3   OH2 4688   5.141   1.145   2.701 -0.4138 -0.0431 -0.5435
 1561TIP3    H1 4689   5.129   1.087   2.777 -0.3319 -0.5699 -0.9290
 1561TIP3    H2 4690   5.137   1.086   2.625 -0.7728  0.5189 -0.9638
 1562TIP3   OH2 4691   4.139   5.553   0.028 -0.7150 -0.6249 -0.7524
 1562TIP3    H1 4692   4.112   5.477   0.078  0.2130 -0.7152 -0.3592
 1562TIP3    H2 4693   4.193   5.604   0.088 -0.2782 -0.3049 -1.3950
 1563TIP3   OH2 4694   2.088   2.604   2.291  0.2903  0.0483 -0.0548
 1563TIP3    H1 4695   2.068   2.583   2.382 -1.6856  0.8385 -0.2592
 1563TIP3    H2 4696   2.184   2.603   2.287  0.4299  0.0922  2.0481
 1564TIP3   OH2 4697   4.763   4.674   2.470  0.4213  0.0260  0.0303
 1564TIP3    H1 4698   4.698   4.611   2.439  0.6825  0.3151 -1.1408
 1564TIP3    H2 4699   4.737   4.757   2.432 -0.1506  0.7492  1.8870
 1565TIP3   OH2 4700   4.588   1.208   4.251 -0.6568 -0.0874 -0.3399
 1565TIP3    H1 4701   4.496   1.234   4.257 -0.5538 -0.0622  1.6151
 1565TIP3    H2 4702   4.599   1.142   4.319  0.9219  0.4052 -0.0712
 1566TIP3   OH2 4703   0.070   3.581   2.697  0.1490  0.4995  0.1792
 1566TIP3    H1 4704   0.078   3.677   2.691  1.6027  0.4255  0.4879
 1566TIP3    H2 4705   0.110   3.549   2.616  0.0257  0.1420  0.2606
 1567TIP3   OH2 4706   2.463   0.094   0.151  0.0389 -0.3986  0.2208
 1567TIP3    H1 4707   2.534   0.155   0.175  1.4820 -2.0271  0.2607
 1567TIP3    H2 4708   2.493   0.053   0.070 -2.3047  1.0663 -1.5070
 1568TIP3   OH2 4709   2.749   1.374   2.207  0.2912  0.1089 -0.1630
 1568TIP3    H1 4710   2.657   1.362   2.227 -0.0801 -0.8158 -2.2235
 1568TIP3    H2 4711   2.793   1.304   2.256 -0.3076 -0.5871 -0.6020
 1569TIP3   OH2 4712   4.335   1.381   1.400 -0.2128  0.2054  0.1635
 1569TIP3    H1 4713   4.299   1.299   1.367  1.5896 -1.2384  1.6088
 1569TIP3    H2 4714   4.321   1.378   1.494  1.7083  0.5686  0.4929
 1570TIP3   OH2 4715   5.499   1.734   0.964 -0.5288 -0.6533  0.3572
 1570TIP3    H1 4716   5.519   1.644   0.987 -0.3467 -0.9490 -0.9057
 1570TIP3    H2 4717   5.441   1.764   1.034 -0.1114 -1.5466  1.1066
 1571TIP3   OH2 4718   1.634   0.815   1.706  0.2815 -0.4143 -0.5093
 1571TIP3    H1 4719   1.610   0.764   1.629  1.2465 -0.4283 -0.8129
 1571TIP3    H2 4720   1.564   0.797   1.769  0.5018 -1.9512 -0.6765
 1572TIP3   OH2 4721   0.569   3.301   3.993  0.2289  0.0662 -0.5371
 1572TIP3    H1 4722   0.508   3.348   3.936 -0.2306  0.6104  0.3692
 1572TIP3    H2 4723   0.549   3.209   3.980 -0.3778  0.2192 -0.7042
 1573TIP3   OH2 4724   3.252   2.112   2.370 -0.4319  0.3377  0.0211
 1573TIP3    H1 4725   3.317   2.182   2.373 -1.5426  1.5132 -1.5002
 1573TIP3    H2 4726   3.272   2.064   2.290 -1.0606  0.3381 -0.1414
 1574TIP3   OH2 4727   1.289   4.550   0.891 -0.3528 -0.4209  0.1485
 1574TIP3    H1 4728   1.322   4.491   0.959  0.5662  0.6256  0.6339
 1574TIP3    H2 4729   1.253   4.624   0.940 -1.0158 -0.3276 -0.4730
 1575TIP3   OH2 4730   4.931   5.210   2.623  0.2376  0.0325  0.0701
 1575TIP3    H1 4731   4.961   5.200   2.713  1.5810 -1.2741 -0.4865
 1575TIP3    H2 4732   5.005   5.181   2.569  0.2090  2.5902 -1.5265
 1576TIP3   OH2 4733   4.204   5.911   5.142 -0.4878 -0.0500  0.3320
 1576TIP3    H1 4734   4.268   5.862   5.193 -1.5338 -1.5855  0.2360
 1576TIP3    H2 4735   4.218   6.002   5.167  2.6352 -0.1087 -0.6784
 1577TIP3   OH2 4736   4.891   3.393   3.515  0.4090  0.4005 -0.5309
 1577TIP3    H1 4737   4.800   3.412   3.491 -0.0929  1.4126  1.8764
 1577TIP3    H2 4738   4.888   3.306   3.553  0.5227  0.2828 -0.7901
 1578TIP3   OH2 4739   1.962   0.091   5.079  0.5900  0.0453  0.3906
 1578TIP3    H1 4740   2.005   0.012   5.047  1.4001  0.5509  0.1991
 1578TIP3    H2 4741   2.016   0.121   5.152 -1.1799 -1.0303  2.2346
 1579TIP3   OH2 4742   3.235   3.607   0.997  0.4483  0.2607 -0.0057
 1579TIP3    H1 4743   3.230   3.590   0.903  2.1603  0.7139 -0.2113
 1579TIP3    H2 4744   3.144   3.622   1.023 -0.0421  0.3171 -1.6238
 1580TIP3   OH2 4745   2.926   1.214   3.900 -0.0359 -0.1882 -0.3766
 1580TIP3    H1 4746   2.977   1.159   3.959 -0.3270  0.2349  0.2801
 1580TIP3    H2 4747   2.953   1.187   3.812 -0.7773 -1.9822 -0.1079
 1581TIP3   OH2 4748   2.749   5.655   4.156 -0.3145  0.0180  0.5704
 1581TIP3    H1 4749   2.718   5.567   4.176 -0.6007 -0.4272 -1.6347
 1581TIP3    H2 4750   2.718   5.708   4.230 -0.0899 -1.6994  1.9742
 1582TIP3   OH2 4751   1.101   3.540   1.822 -0.5880  0.2143 -0.3364
 1582TIP3    H1 4752   1.012   3.576   1.816 -0.8327 -0.3997 -0.5561
 1582TIP3    H2 4753   1.093   3.469   1.886 -0.0087  0.8513  0.4517
 1583TIP3   OH2 4754   5.859   1.285   4.153 -0.6539 -0.9755 -0.0868
 1583TIP3    H1 4755   5.804   1.285   4.075  1.0041 -2.1279 -1.3257
 1583TIP3    H2 4756   5.943   1.319   4.123  0.3751 -2.5252  0.9170
 1584TIP3   OH2 4757   1.983   0.352   0.741 -0.1879 -0.1494  0.4127
 1584TIP3    H1 4758   1.928   0.409   0.796 -0.7286 -1.8706  1.7473
 1584TIP3    H2 4759   1.938   0.350   0.657 -0.7828  0.4822  0.7004
 1585TIP3   OH2 4760   2.632   4.581   1.095 -0.2466  0.0844  0.0443
 1585TIP3    H1 4761   2.541   4.605   1.078  0.0266  1.2081  0.0716
 1585TIP3    H2 4762   2.682   4.625   1.026  0.5921  2.4054  1.9938
 1586TIP3   OH2 4763   3.847   5.155   3.714 -0.0333  0.3299  0.1968
 1586TIP3    H1 4764   3.796   5.189   3.788 -0.4168 -2.6582  1.4775
 1586TIP3    H2 4765   3.787   5.093   3.671  1.3231 -0.5722 -0.4613
 1587TIP3   OH2 4766   5.483   2.219   4.123  0.3970  0.1234 -0.1316
 1587TIP3    H1 4767   5.409   2.261   4.080  0.9438  1.8263  0.5153
 1587TIP3    H2 4768   5.541   2.192   4.052  1.1565  2.6435 -0.5487
 1588TIP3   OH2 4769   4.080   4.938   2.275  0.4984  0.3044  0.2040
 1588TIP3    H1 4770   4.121   4.944   2.361  2.6190 -1.4298 -0.6224
 1588TIP3    H2 4771   4.148   4.904   2.217 -1.0055  0.9389 -2.0925
 1589TIP3   OH2 4772   3.081   3.534   2.667 -0.3403  0.0111  0.3778
 1589TIP3    H1 4773   3.125   3.576   2.742 -0.3038 -0.5204  0.6556
 1589TIP3    H2 4774   2.998   3.581   2.659 -0.7297 -0.5122  1.3063
 1590TIP3   OH2 4775   3.298   4.725   4.909  0.0034  0.5416 -0.5848
 1590TIP3    H1 4776   3.262   4.737   4.997 -1.0990 -0.1445 -0.9259
 1590TIP3    H2 4777   3.221   4.720   4.852  0.5123 -2.5046 -1.1641
 1591TIP3   OH2 4778   2.604   2.385   4.927  0.1069 -0.1066  0.1769
 1591TIP3    H1 4779   2.691   2.414   4.956  0.5214  1.1633 -2.1131
 1591TIP3    H2 4780   2.611   2.289   4.927  2.0390 -0.0337 -1.3172
 1592TIP3   OH2 4781   0.402   0.937   0.633  0.0936  0.0195 -0.1582
 1592TIP3    H1 4782   0.429   0.974   0.549  0.3937  0.4795  0.1359
 1592TIP3    H2 4783   0.385   0.845   0.614  2.2353 -0.4017 -0.3019
 1593TIP3   OH2 4784   0.719   3.499   3.030 -0.4417  0.1054 -0.3387
 1593TIP3    H1 4785   0.719   3.405   3.051  2.8466 -0.1975 -1.1519
 1593TIP3    H2 4786   0.749   3.541   3.110 -1.6148  0.4907 -0.0765
 1594TIP3   OH2 4787   5.218   3.284   0.957  0.8856  0.1688  1.4903
 1594TIP3    H1 4788   5.293   3.258   1.011  2.1198 -0.1863 -0.3210
 1594TIP3    H2 4789   5.257   3.322   0.878 -0.8474 -0.0413  0.4867
 1595TIP3   OH2 4790   5.106   5.599   2.803  0.0309 -0.2514  0.5789
 1595TIP3    H1 4791   5.123   5.586   2.896 -2.2397 -1.9327  0.8569
 1595TIP3    H2 4792   5.108   5.511   2.766  0.6776  0.3677 -0.9520
 1596TIP3   OH2 4793   0.805   2.692   2.589  0.2262  0.3827 -0.1401
 1596TIP3    H1 4794   0.860   2.616   2.609  0.2289 -0.2684 -2.4119
 1596TIP3    H2 4795   0.859   2.768   2.614  1.9328 -0.2520 -1.6556
 1597TIP3   OH2 4796   4.449   4.805   3.044 -0.2372  0.1791 -0.5769
 1597TIP3    H1 4797   4.501   4.743   2.993 -1.3274 -2.1045  0.9533
 1597TIP3    H2 4798   4.514   4.851   3.098  0.8283  2.0065 -3.1833
 1598TIP3   OH2 4799   5.212   1.870   0.133 -0.1745 -0.1841 -0.0040
 1598TIP3    H1 4800   5.274   1.821   0.079 -0.3753  0.0408 -0.4396
 1598TIP3    H2 4801   5.266   1.923   0.191  0.0461 -0.8495  0.4051
 1599TIP3   OH2 4802   3.881   1.678   2.734  0.6465  0.1293 -0.7343
 1599TIP3    H1 4803   3.818   1.606   2.728 -0.1192  0.7259 -0.1305
 1599TIP3    H2 4804   3.961   1.637   2.765  0.2897 -0.4957 -0.6073
 1600TIP3   OH2 4805   1.943   3.511   2.245  0.1447  0.0644  0.3214
 1600TIP3    H1 4806   1.888   3.469   2.179  2.9573 -0.6922 -1.7771
 1600TIP3    H2 4807   1.929   3.604   2.232 -0.0130 -0.0991 -0.7764
 1601TIP3   OH2 4808   2.823   2.559   3.083 -0.2758  0.2164 -0.2398
 1601TIP3    H1 4809   2.770   2.481   3.102  0.3542  0.4655  3.0159
 1601TIP3    H2 4810   2.911   2.525   3.069 -0.4249  0.2002 -1.2708
 1602TIP3   OH2 4811   6.188   2.246   3.533  0.3207 -0.4586  0.0244
 1602TIP3    H1 4812   6.155   2.320   3.482 -1.5285  0.1933  1.9966
 1602TIP3    H2 4813   6.172   2.169   3.478 -0.7399  0.2895 -0.7482
 1603TIP3   OH2 4814   1.649   1.993   5.054  0.0495 -0.7776 -0.8474
 1603TIP3    H1 4815   1.582   2.049   5.092  1.1962 -0.4608  0.8227
 1603TIP3    H2 4816   1.667   1.927   5.122 -0.5641 -2.6051 -2.3743
 1604TIP3   OH2 4817   1.999   0.188   2.098  0.2794 -0.2575  0.0448
 1604TIP3    H1 4818   1.998   0.222   2.188 -0.6117  0.1136 -0.0892
 1604TIP3    H2 4819   2.031   0.262   2.045  0.8150 -0.4799  0.0526
 1605TIP3   OH2 4820   3.422   0.163   5.194  0.7187 -0.1585  0.0037
 1605TIP3    H1 4821   3.432   0.250   5.155  1.6444  0.7399  2.1003
 1605TIP3    H2 4822   3.342   0.128   5.154  0.3907  1.5903 -0.9830
 1606TIP3   OH2 4823   5.729   2.094   1.520  0.4899  0.2439  0.2462
 1606TIP3    H1 4824   5.787   2.156   1.564  0.6824  0.3426 -0.1403
 1606TIP3    H2 4825   5.658   2.079   1.583 -0.1312  1.6941 -0.0463
 1607TIP3   OH2 4826   1.173   1.325   3.581 -0.2366  0.1930 -0.2189
 1607TIP3    H1 4827   1.154   1.233   3.596  0.1485  0.1756  0.2196
 1607TIP3    H2 4828   1.088   1.366   3.567 -0.3241 -0.4329 -1.6814
 1608TIP3   OH2 4829   4.575   2.896   0.739  0.3635 -0.5743  0.4388
 1608TIP3    H1 4830   4.614   2.870   0.823  2.0808 -2.7128 -0.9101
 1608TIP3    H2 4831   4.577   2.816   0.687 -0.3684  0.7741 -1.7718
 1609TIP3   OH2 4832   3.934   0.388   3.243 -0.0827 -0.3377 -0.6217
 1609TIP3    H1 4833   3.877   0.331   3.295 -2.4614  0.8356 -1.8147
 1609TIP3    H2 4834   4.003   0.414   3.304 -0.4835 -2.2394  0.7417
 1610TIP3   OH2 4835   3.669   1.406   4.686 -0.4357 -0.2991  0.1117
 1610TIP3    H1 4836   3.731   1.479   4.680 -0.0376 -0.7437 -2.1973
 1610TIP3    H2 4837   3.588   1.446   4.719  0.3106  0.8073  0.6740
 1611TIP3   OH2 4838   3.192   5.618   1.279  0.2940  0.0770  0.0249
 1611TIP3    H1 4839   3.215   5.699   1.234 -0.0172  0.4564  0.5425
 1611TIP3    H2 4840   3.157   5.562   1.209  1.7205 -0.1084 -0.5755
 1612TIP3   OH2 4841   1.352   5.825   1.517  0.4880 -0.6023 -0.3687
 1612TIP3    H1 4842   1.346   5.754   1.581  0.7331 -0.2871  0.0084
 1612TIP3    H2 4843   1.295   5.798   1.445 -0.2597 -0.6821  0.2514
 1613TIP3   OH2 4844   4.418   4.709   3.891  0.3472 -0.1135 -0.1455
 1613TIP3    H1 4845   4.390   4.790   3.935  1.8734  0.4767 -0.1826
 1613TIP3    H2 4846   4.504   4.690   3.929  1.0745 -0.3808 -1.8311
 1614TIP3   OH2 4847   2.375   4.827   4.414 -0.5934 -0.7236 -0.1925
 1614TIP3    H1 4848   2.313   4.890   4.450 -1.0650 -1.1966 -0.1642
 1614TIP3    H2 4849   2.320   4.758   4.378 -0.0860 -1.0084 -0.4262
 1615TIP3   OH2 4850   4.155   1.210   4.706  0.3079 -0.0135  0.9074
 1615TIP3    H1 4851   4.147   1.115   4.696 -0.0418  0.2053 -1.5475
 1615TIP3    H2 4852   4.199   1.222   4.790 -0.1493 -2.3138  1.5369
 1616TIP3   OH2 4853   4.503   0.771   1.472  0.0603  0.9346  0.2681
 1616TIP3    H1 4854   4.480   0.852   1.427 -0.9194 -0.7058 -2.3800
 1616TIP3    H2 4855   4.542   0.716   1.405 -0.4195 -1.2526  1.6829
 1617TIP3   OH2 4856   2.814   3.912   3.634 -0.5379 -0.0951  0.1839
 1617TIP3    H1 4857   2.831   4.003   3.610 -0.9196 -0.3429 -1.1142
 1617TIP3    H2 4858   2.757   3.917   3.711 -1.0956  0.7742 -0.2743
 1618TIP3   OH2 4859   2.602   3.310   3.682  0.1315 -0.2945 -0.4088
 1618TIP3    H1 4860   2.606   3.385   3.742  1.8364 -0.4366 -0.2845
 1618TIP3    H2 4861   2.668   3.250   3.715 -0.7352 -1.5691 -0.9159
 1619TIP3   OH2 4862   4.080   4.171   3.637  0.0111  0.0130  0.0905
 1619TIP3    H1 4863   4.057   4.083   3.607  1.7547 -2.3340  4.6112
 1619TIP3    H2 4864   3.997   4.208   3.666 -0.6522 -0.3824 -1.2033
 1620TIP3   OH2 4865   2.389   1.859   2.477 -0.3668 -0.2390  0.4953
 1620TIP3    H1 4866   2.436   1.930   2.522  0.3320 -0.6574  0.4471
 1620TIP3    H2 4867   2.304   1.897   2.456  0.6281  1.2073 -1.1927
 1621TIP3   OH2 4868   0.568   0.547   4.771  0.4240 -0.0127  0.1934
 1621TIP3    H1 4869   0.558   0.489   4.847 -0.1409 -0.1827 -0.0051
 1621TIP3    H2 4870   0.539   0.493   4.696  2.4402 -0.3954 -0.3793
 1622TIP3   OH2 4871   3.951   3.921   4.414  0.0031 -0.2515  0.2334
 1622TIP3    H1 4872   4.028   3.947   4.464  0.7080  0.9525 -1.4076
 1622TIP3    H2 4873   3.877   3.956   4.465  0.6431  0.2374  0.8415
 1623TIP3   OH2 4874   4.929   2.437   0.497  0.1681  0.3943  0.0018
 1623TIP3    H1 4875   4.929   2.523   0.539  0.1527  0.2513  0.3027
 1623TIP3    H2 4876   4.840   2.425   0.465 -0.8679 -0.9650  3.0341
 1624TIP3   OH2 4877   6.051   0.271   1.508  0.5485  0.3772 -0.2140
 1624TIP3    H1 4878   5.976   0.273   1.449  1.7643 -1.2928 -1.9435
 1624TIP3    H2 4879   6.102   0.349   1.485  0.0400  0.7726 -0.0034
 1625TIP3   OH2 4880   5.196   4.157   1.107 -0.2812 -0.4039 -0.2636
 1625TIP3    H1 4881   5.259   4.225   1.128  1.7042 -2.2489  0.0768
 1625TIP3    H2 4882   5.123   4.204   1.066  0.0729  2.1177  1.7660
 1626TIP3   OH2 4883   3.050   3.457   4.270  0.0163 -0.2474  0.2041
 1626TIP3    H1 4884   3.140   3.438   4.294  0.3372  0.4615 -0.3929
 1626TIP3    H2 4885   3.004   3.373   4.280  0.8714 -0.7674 -0.0808
 1627TIP3   OH2 4886   3.807   5.698   1.354 -0.2204 -0.2797 -0.0781
 1627TIP3    H1 4887   3.895   5.724   1.327  0.0877 -1.1356  0.0811
 1627TIP3    H2 4888   3.806   5.603   1.347 -1.3578 -0.2420 -0.7353
 1628TIP3   OH2 4889   4.569   2.068   4.779  0.2786  0.2424 -0.1951
 1628TIP3    H1 4890   4.567   2.105   4.867  1.3936 -0.7008  0.2586
 1628TIP3    H2 4891   4.612   2.135   4.726 -0.4319  0.8288 -0.0422
 1629TIP3   OH2 4892   3.571   5.443   1.946  0.3698  0.3933 -0.3763
 1629TIP3    H1 4893   3.513   5.519   1.938 -1.2161 -0.2138  3.2048
 1629TIP3    H2 4894   3.575   5.406   1.858 -5.3946  0.0762 -0.8947
 1630TIP3   OH2 4895   5.069   4.633   0.062 -0.3794  0.3448 -0.5089
 1630TIP3    H1 4896   5.039   4.656  -0.026 -0.4086  1.9078 -0.1048
 1630TIP3    H2 4897   5.124   4.555   0.048  0.5605  1.2280 -2.0872
 1631TIP3   OH2 4898   6.197   3.717   3.043 -0.3332 -0.2157  0.2449
 1631TIP3    H1 4899   6.241   3.690   3.123  0.1890  0.5093  0.2046
 1631TIP3    H2 4900   6.209   3.643   2.983  0.4897 -0.1875  0.3662
 1632TIP3   OH2 4901   2.665   5.902   3.864  0.2586  0.0821 -0.3375
 1632TIP3    H1 4902   2.609   5.837   3.822 -0.3020 -0.3196  0.9919
 1632TIP3    H2 4903   2.660   5.978   3.806 -0.8290 -0.3115 -0.7990
 1633TIP3   OH2 4904   3.961   3.723   2.773  0.3294  0.0771  0.1193
 1633TIP3    H1 4905   4.000   3.773   2.845  0.2960  1.3709 -0.7321
 1633TIP3    H2 4906   4.035   3.679   2.731  0.3163 -0.9198  1.0887
 1634TIP3   OH2 4907   3.958   5.133   2.518  0.1887  0.0631  0.8043
 1634TIP3    H1 4908   3.999   5.168   2.596  0.6806  2.4406 -0.4249
 1634TIP3    H2 4909   4.024   5.074   2.480  2.0935  2.8132 -0.4408
 1635TIP3   OH2 4910   5.408   1.477   4.672 -0.5378  0.3010  0.2054
 1635TIP3    H1 4911   5.447   1.438   4.594 -0.5792  0.1090  0.2805
 1635TIP3    H2 4912   5.318   1.495   4.647 -1.3752 -2.3142  1.0677
 1636TIP3   OH2 4913   0.233   2.242   3.325 -0.2305  0.2075  0.4628
 1636TIP3    H1 4914   0.179   2.269   3.251  0.1183 -0.0099  0.1216
 1636TIP3    H2 4915   0.322   2.269   3.301 -0.1691  0.4689  0.9693
 1637TIP3   OH2 4916   2.972   0.764   4.009  0.3791 -0.3276 -0.2092
 1637TIP3    H1 4917   2.930   0.764   4.096  1.0610  1.6466  0.1620
 1637TIP3    H2 4918   3.003   0.674   3.998  0.1257 -0.6661  1.5296
 1638TIP3   OH2 4919   6.300   1.270   0.712  0.0346  0.0012 -0.2019
 1638TIP3    H1 4920   6.318   1.225   0.795 -1.0432 -2.0708 -1.0069
 1638TIP3    H2 4921   6.259   1.352   0.737 -1.1082 -0.9892  1.3474
 1639TIP3   OH2 4922   2.328   0.189   1.643 -0.7557 -0.5138 -0.2503
 1639TIP3    H1 4923   2.252   0.247   1.630 -1.2832 -1.6054 -2.4584
 1639TIP3    H2 4924   2.299   0.129   1.712  0.1031  2.1740  2.7164
 1640TIP3   OH2 4925   1.497   4.852   3.840  0.0828  0.0305  0.1440
 1640TIP3    H1 4926   1.556   4.922   3.811  0.4640 -0.1067  0.5708
 1640TIP3    H2 4927   1.412   4.877   3.805  0.4255  0.1281 -0.6601
 1641TIP3   OH2 4928   0.246   5.173   2.722 -0.2793 -0.1968 -0.1182
 1641TIP3    H1 4929   0.215   5.247   2.670 -0.3629 -0.0134  0.1902
 1641TIP3    H2 4930   0.304   5.125   2.663 -1.4841 -0.8000 -0.8694
 1642TIP3   OH2 4931   1.943   3.183   4.893 -0.0691  0.0086 -0.0240
 1642TIP3    H1 4932   2.024   3.156   4.850 -1.1050 -3.0437 -0.3338
 1642TIP3    H2 4933   1.877   3.179   4.823 -0.9751 -0.5488  0.8263
 1643TIP3   OH2 4934   5.269   4.193   3.025  0.3338  0.7835 -0.3075
 1643TIP3    H1 4935   5.181   4.158   3.038  0.4202  0.2935 -0.9679
 1643TIP3    H2 4936   5.279   4.259   3.093 -0.0580 -0.0616  0.5880
 1644TIP3   OH2 4937   2.534   2.404   4.572  0.2710  0.2098  0.3267
 1644TIP3    H1 4938   2.460   2.431   4.627  0.6405  0.8659  0.5197
 1644TIP3    H2 4939   2.540   2.309   4.583 -0.7512  0.1063  0.0410
 1645TIP3   OH2 4940   3.454   4.824   3.492  0.8554 -0.0787  0.5956
 1645TIP3    H1 4941   3.509   4.750   3.468  0.0024 -0.9526  1.2291
 1645TIP3    H2 4942   3.373   4.811   3.443  0.9353  0.7914  0.2192
 1646TIP3   OH2 4943   5.856   1.801   4.537  0.4499 -0.5968 -0.3289
 1646TIP3    H1 4944   5.878   1.858   4.463 -1.6096 -0.6796 -1.0683
 1646TIP3    H2 4945   5.928   1.737   4.540  1.1051  0.0427 -1.5856
 1647TIP3   OH2 4946   1.996  -0.015   1.507 -0.3217 -0.6358  0.9590
 1647TIP3    H1 4947   2.043   0.042   1.446 -0.9321 -1.8480 -0.7439
 1647TIP3    H2 4948   1.972   0.041   1.580  0.3669  0.9133  0.0372
 1648TIP3   OH2 4949   1.563   1.424   3.430  0.2214 -0.6785 -0.2506
 1648TIP3    H1 4950   1.574   1.462   3.342  1.3187  0.4025  0.3214
 1648TIP3    H2 4951   1.644   1.377   3.447  1.2425  1.4813  1.2598
 1649TIP3   OH2 4952   3.091   0.345   0.635 -0.3701  0.2446 -0.5345
 1649TIP3    H1 4953   3.123   0.395   0.561  0.0925  0.8848  0.0795
 1649TIP3    H2 4954   3.042   0.408   0.687  0.0704  0.0359  0.1554
 1650TIP3   OH2 4955   1.659   0.943   0.361 -0.3771 -0.3007 -0.1452
 1650TIP3    H1 4956   1.725   0.917   0.425  0.1038  0.0631 -0.4954
 1650TIP3    H2 4957   1.609   1.012   0.405  0.1596  0.1790 -0.2768
 1651TIP3   OH2 4958   1.029   0.606   4.137 -0.3697 -0.1588  0.0617
 1651TIP3    H1 4959   0.988   0.665   4.200  1.6152  0.8843  0.4643
 1651TIP3    H2 4960   1.043   0.660   4.060  1.0005 -0.2122  0.2498
 1652TIP3   OH2 4961   2.497   2.481   4.059 -0.0384 -0.2431 -0.5615
 1652TIP3    H1 4962   2.419   2.506   4.009 -1.3778  0.2200  1.6295
 1652TIP3    H2 4963   2.524   2.397   4.021 -1.5362 -0.3578 -1.4553
 1653TIP3   OH2 4964   3.581   2.975   5.100  0.1002  0.1144 -0.0999
 1653TIP3    H1 4965   3.562   2.948   5.190 -0.3423  0.3175 -0.1313
 1653TIP3    H2 4966   3.613   2.896   5.057  0.6682  0.0993  0.3347
 1654TIP3   OH2 4967   1.090   3.015   1.483 -0.3687 -0.5309 -0.1937
 1654TIP3    H1 4968   1.093   3.101   1.525  1.1231  0.0090 -1.3245
 1654TIP3    H2 4969   1.014   2.971   1.523 -1.8211  1.6829 -0.3421
 1655TIP3   OH2 4970   2.932   1.387   4.619 -0.2935  0.2797  0.2537
 1655TIP3    H1 4971   3.026   1.385   4.600 -0.3188  0.7670  0.0692
 1655TIP3    H2 4972   2.897   1.309   4.576  0.1512 -0.3708  1.0331
 1656TIP3   OH2 4973   6.288   4.036   3.695  0.0400  0.0288 -0.1297
 1656TIP3    H1 4974   6.343   4.109   3.666  0.0190 -0.3740 -1.2726
 1656TIP3    H2 4975   6.350   3.968   3.720  0.0619 -0.0028 -0.2684
 1657TIP3   OH2 4976   2.648   1.052   3.146 -0.1847 -0.5219 -0.1917
 1657TIP3    H1 4977   2.707   1.111   3.100  2.0742 -2.3858  0.1344
 1657TIP3    H2 4978   2.585   1.024   3.079 -0.0493  0.6322 -0.8343
 1658TIP3   OH2 4979   1.895   4.875   2.129  0.0412  0.3622 -0.3428
 1658TIP3    H1 4980   1.824   4.886   2.193  0.1104 -0.3413 -0.1327
 1658TIP3    H2 4981   1.957   4.816   2.173 -1.2908 -2.6275 -2.1154
 1659TIP3   OH2 4982   2.363   2.410   0.128 -0.0377 -0.5344  0.2268
 1659TIP3    H1 4983   2.424   2.372   0.191  0.6145  0.3122  0.1186
 1659TIP3    H2 4984   2.415   2.474   0.079 -1.0384  0.3242  0.2402
 1660TIP3   OH2 4985   3.224   4.291   4.176  0.5824 -0.4514  0.4535
 1660TIP3    H1 4986   3.305   4.240   4.170  0.1540 -1.0434 -0.5710
 1660TIP3    H2 4987   3.155   4.231   4.147 -0.1513  0.2203  0.7587
 1661TIP3   OH2 4988   3.657   3.099   2.973 -0.0598  0.7471 -0.1313
 1661TIP3    H1 4989   3.578   3.152   2.983 -1.0472 -0.8672  1.2627
 1661TIP3    H2 4990   3.728   3.156   3.001 -1.2527  0.9103  2.9854
 1662TIP3   OH2 4991   3.674   2.295   4.869 -0.1167  0.4475 -0.1070
 1662TIP3    H1 4992   3.654   2.205   4.896 -0.5894  0.3512 -0.7462
 1662TIP3    H2 4993   3.691   2.288   4.775  1.1254  0.8254  0.0708
 1663TIP3   OH2 4994   1.961   0.911   1.255  0.0296  0.0861  0.3939
 1663TIP3    H1 4995   1.995   0.873   1.337  1.6642 -0.6643 -0.5819
 1663TIP3    H2 4996   1.999   0.856   1.186  0.4669  2.0303 -0.9700
 1664TIP3   OH2 4997   6.148   4.150   0.541 -0.3674 -0.3127  0.2839
 1664TIP3    H1 4998   6.079   4.123   0.479  0.3502 -0.7551 -0.3432
 1664TIP3    H2 4999   6.212   4.078   0.538 -0.4313 -0.4647  1.7375
 1665TIP3   OH2 5000   1.295   2.498   5.053 -0.2294  0.3617 -0.1572
 1665TIP3    H1 5001   1.221   2.447   5.022 -0.1168  0.8163 -1.2162
 1665TIP3    H2 5002   1.353   2.506   4.977  0.2789  1.1282  0.2873
 1666TIP3   OH2 5003   4.606   4.683   4.137  0.4742  0.2106  0.4100
 1666TIP3    H1 5004   4.637   4.624   4.069 -0.6476 -0.5055  0.5005
 1666TIP3    H2 5005   4.662   4.760   4.129  1.1318 -0.3452 -0.5341
 1667TIP3   OH2 5006   3.648   4.803   3.740 -0.3944  0.4131  0.0252
 1667TIP3    H1 5007   3.670   4.832   3.829  2.0762  0.0201 -0.4096
 1667TIP3    H2 5008   3.659   4.881   3.686 -0.4242  0.2823 -0.1710
 1668TIP3   OH2 5009   3.095   5.034   3.154  0.1724  0.2851  0.1606
 1668TIP3    H1 5010   3.003   5.057   3.166  0.2699 -0.2016  2.3245
 1668TIP3    H2 5011   3.143   5.103   3.201  0.8763  0.1231 -0.3092
 1669TIP3   OH2 5012   4.403   1.399   4.886  0.4218 -0.7747  0.1794
 1669TIP3    H1 5013   4.356   1.377   4.966 -1.6467  0.7068 -0.5471
 1669TIP3    H2 5014   4.492   1.366   4.900  0.6876  1.0986  3.8167
 1670TIP3   OH2 5015   1.291   3.886   3.119  0.1110 -0.2307  0.2161
 1670TIP3    H1 5016   1.374   3.876   3.072  0.3985 -1.5163  0.9078
 1670TIP3    H2 5017   1.298   3.971   3.163 -0.0943  0.8998 -1.8468
 1671TIP3   OH2 5018   3.848   0.048   2.930  0.2374  0.5961 -0.0885
 1671TIP3    H1 5019   3.902  -0.021   2.892 -0.5625  0.3892 -0.8776
 1671TIP3    H2 5020   3.862   0.124   2.873 -0.6247  0.4167 -0.5440
 1672TIP3   OH2 5021   2.002   5.482   5.084  0.0432  0.2301  0.1308
 1672TIP3    H1 5022   2.013   5.559   5.140  2.8147  0.4910 -0.6571
 1672TIP3    H2 5023   1.907   5.472   5.076 -0.4212  1.8507  2.5358
 1673TIP3   OH2 5024   1.297   3.195   0.095  0.2286  0.3051  0.2389
 1673TIP3    H1 5025   1.206   3.216   0.119  0.1084 -0.9994  0.9942
 1673TIP3    H2 5026   1.302   3.100   0.099  1.0800  0.1921 -1.8755
 1674TIP3   OH2 5027   5.470   0.153   2.805  0.0109  0.1017  0.0230
 1674TIP3    H1 5028   5.549   0.140   2.752 -0.0071 -0.8450  0.2138
 1674TIP3    H2 5029   5.502   0.190   2.887 -0.0074  2.0744 -0.7912
 1675TIP3   OH2 5030   1.667   2.608   1.337  0.1378 -0.0210  0.2631
 1675TIP3    H1 5031   1.679   2.643   1.249 -0.3351 -0.6104 -0.0516
 1675TIP3    H2 5032   1.713   2.669   1.395  2.4501 -0.8501 -0.6016
 1676TIP3   OH2 5033   4.178   3.583   2.618 -0.3543 -0.4334 -0.2909
 1676TIP3    H1 5034   4.256   3.627   2.654 -0.8634  1.4881 -1.4170
 1676TIP3    H2 5035   4.203   3.490   2.616  1.4565 -0.0255  0.4884
 1677TIP3   OH2 5036   5.296   5.331   3.306 -0.3165 -0.2240  0.1176
 1677TIP3    H1 5037   5.201   5.336   3.305 -0.2974  0.5469 -1.9785
 1677TIP3    H2 5038   5.316   5.238   3.314 -1.2388 -0.3866  0.5762
 1678TIP3   OH2 5039   1.923   1.344   5.087 -0.0477 -0.1366  0.2981
 1678TIP3    H1 5040   1.998   1.403   5.097 -1.6449  2.1367 -0.1808
 1678TIP3    H2 5041   1.851   1.402   5.062 -1.2120 -2.6168 -2.8495
 1679TIP3   OH2 5042   6.236   0.765   1.224 -0.2497 -0.0725 -0.3160
 1679TIP3    H1 5043   6.318   0.808   1.246  0.7403 -0.6912 -2.4561
 1679TIP3    H2 5044   6.236   0.685   1.276  0.0283  0.3976  0.4151
 1680TIP3   OH2 5045   1.746   0.669   4.887  0.7230 -0.2738  0.0971
 1680TIP3    H1 5046   1.796   0.749   4.871 -0.0853  0.2366  0.0728
 1680TIP3    H2 5047   1.709   0.681   4.975 -1.5440  0.5788 -0.8950
 1681TIP3   OH2 5048   3.230   5.196   4.249 -0.1206  0.1090 -0.7898
 1681TIP3    H1 5049   3.252   5.135   4.320 -1.5101  0.8687  0.3515
 1681TIP3    H2 5050   3.162   5.150   4.199  1.1277 -0.5850 -1.9016
 1682TIP3   OH2 5051   0.632   2.533   2.394 -0.2446 -0.0570 -0.3549
 1682TIP3    H1 5052   0.668   2.609   2.440  0.8584  0.8478 -2.5610
 1682TIP3    H2 5053   0.702   2.504   2.337 -1.6609 -0.8551 -1.7701
 1683TIP3   OH2 5054   2.577   0.039   2.872  0.1674 -0.6501 -0.0148
 1683TIP3    H1 5055   2.484   0.056   2.854  0.1661  0.3133  0.7958
 1683TIP3    H2 5056   2.587   0.062   2.964  0.9863 -1.7919  0.2020
 1684TIP3   OH2 5057   5.857   1.952   4.757  0.1551 -0.8167  0.1233
 1684TIP3    H1 5058   5.825   2.037   4.726  1.6113 -0.6893 -1.1330
 1684TIP3    H2 5059   5.849   1.894   4.681  0.9309 -1.2977  0.3955
 1685TIP3   OH2 5060   5.228   4.874   3.448 -0.0978 -0.3072  0.6021
 1685TIP3    H1 5061   5.146   4.920   3.466  0.5411  1.1142  0.0083
 1685TIP3    H2 5062   5.225   4.852   3.355  0.2087 -0.2064  0.5646
 1686TIP3   OH2 5063   4.283   5.277   1.149  0.4343 -0.1192 -0.4190
 1686TIP3    H1 5064   4.254   5.351   1.096  0.6409  1.1436  1.1357
 1686TIP3    H2 5065   4.300   5.207   1.086  1.6762  1.5964 -2.0960
 1687TIP3   OH2 5066   3.607   2.058   4.958  0.2719  0.6851 -0.2020
 1687TIP3    H1 5067   3.582   2.021   4.873  2.1567  1.8725 -1.3416
 1687TIP3    H2 5068   3.668   1.993   4.995  0.2112  0.6208 -0.2152
 1688TIP3   OH2 5069   5.554   2.200   0.135 -0.3000  0.2004  0.0727
 1688TIP3    H1 5070   5.561   2.294   0.152 -0.6821 -0.0926  2.2211
 1688TIP3    H2 5071   5.602   2.186   0.054  0.1938  2.1705 -0.0260
 1689TIP3   OH2 5072   1.451   3.504   4.574  0.0817 -0.8424 -0.1495
 1689TIP3    H1 5073   1.378   3.479   4.517  0.0290 -1.7993  0.3164
 1689TIP3    H2 5074   1.413   3.566   4.636 -0.0594 -0.4520 -0.6195
 1690TIP3   OH2 5075   0.485   1.760   0.526  0.5749  0.0597 -0.0121
 1690TIP3    H1 5076   0.476   1.672   0.561  1.2097 -0.2832 -0.6737
 1690TIP3    H2 5077   0.432   1.761   0.446 -0.5804  0.7272  0.7345
 1691TIP3   OH2 5078   2.016   4.305   4.464 -0.1177 -0.1934 -0.1846
 1691TIP3    H1 5079   1.982   4.382   4.419 -2.1435 -0.5996  0.5647
 1691TIP3    H2 5080   2.065   4.340   4.538  0.1644  0.3826 -0.6328
 1692TIP3   OH2 5081   3.078   2.857   1.879  0.4929 -0.4446  0.3295
 1692TIP3    H1 5082   3.062   2.879   1.788 -1.2086 -1.4974  0.3409
 1692TIP3    H2 5083   3.137   2.925   1.910  1.2046 -0.1425 -1.5750
 1693TIP3   OH2 5084   5.106   1.231   0.101  0.7716 -0.0488 -0.8018
 1693TIP3    H1 5085   5.165   1.259   0.170 -1.0780  1.1078  0.4158
 1693TIP3    H2 5086   5.081   1.312   0.056  2.4828 -0.8360 -3.3892
 1694TIP3   OH2 5087   0.773   1.494   0.581 -0.1839 -0.5345 -0.3388
 1694TIP3    H1 5088   0.753   1.532   0.495 -2.2054 -1.4494 -0.3148
 1694TIP3    H2 5089   0.832   1.422   0.561 -0.0149 -0.2613 -0.8669
 1695TIP3   OH2 5090   5.107   4.160   4.750 -0.1556  0.0062  0.4166
 1695TIP3    H1 5091   5.135   4.241   4.708  0.2723 -0.0425  0.6053
 1695TIP3    H2 5092   5.125   4.173   4.843 -1.0933  0.1133  0.6007
 1696TIP3   OH2 5093   4.874   0.765   0.699 -0.0103  0.2390 -0.3172
 1696TIP3    H1 5094   4.921   0.719   0.629  2.1805  0.7932  0.7039
 1696TIP3    H2 5095   4.877   0.857   0.673  0.5025  0.4063  0.3119
 1697TIP3   OH2 5096   2.306   2.580   4.669 -0.5376 -0.3172 -0.8087
 1697TIP3    H1 5097   2.258   2.591   4.587 -3.6304  1.6301  1.0751
 1697TIP3    H2 5098   2.255   2.517   4.719  0.7680 -0.7519  0.0379
 1698TIP3   OH2 5099   1.374   5.053   2.104  0.2668  0.5468  0.1049
 1698TIP3    H1 5100   1.290   5.086   2.071  0.0348  0.2669  0.4085
 1698TIP3    H2 5101   1.383   5.094   2.190 -0.3678 -0.7095  0.7983
 1699TIP3   OH2 5102   2.750   3.916   0.494  0.3940  0.2137  0.3929
 1699TIP3    H1 5103   2.736   3.877   0.580 -0.8506  1.1625  0.6383
 1699TIP3    H2 5104   2.799   3.996   0.511 -1.1506  1.1899  0.4087
 1700TIP3   OH2 5105   6.000   5.890   2.407  0.3245 -0.0260  0.3905
 1700TIP3    H1 5106   6.044   5.968   2.373 -0.3496 -0.0081 -0.4847
 1700TIP3    H2 5107   5.941   5.922   2.474 -0.0328  0.2389 -0.0451
 1701TIP3   OH2 5108   2.169   1.640   1.195  0.1337 -0.2245 -0.0542
 1701TIP3    H1 5109   2.213   1.725   1.183 -1.1773  0.4526 -0.2759
 1701TIP3    H2 5110   2.139   1.616   1.107 -0.2534 -0.4842  0.1466
 1702TIP3   OH2 5111   3.288   4.671   3.840  0.7126  0.0671  0.7481
 1702TIP3    H1 5112   3.353   4.618   3.887  1.9946  1.7023  0.8923
 1702TIP3    H2 5113   3.338   4.744   3.804 -0.9864  1.1288  0.4496
 1703TIP3   OH2 5114   4.296   3.626   4.718  0.2302 -0.0200  0.2748
 1703TIP3    H1 5115   4.346   3.640   4.638  1.9656 -1.9110  0.9374
 1703TIP3    H2 5116   4.348   3.669   4.787 -0.6068  0.5300  0.5777
 1704TIP3   OH2 5117   3.785   2.244   4.583  0.3306 -0.6112  0.4448
 1704TIP3    H1 5118   3.810   2.152   4.586  1.2503 -0.4449 -0.9638
 1704TIP3    H2 5119   3.802   2.270   4.492 -2.6709  0.1932 -0.0140
 1705TIP3   OH2 5120   0.215   2.489   3.672  0.3511  0.1106  0.2992
 1705TIP3    H1 5121   0.196   2.403   3.635  1.9389  0.2916 -1.0396
 1705TIP3    H2 5122   0.156   2.496   3.747 -1.3547 -1.2324 -0.8387
 1706TIP3   OH2 5123   2.329   5.255   3.427 -0.1428  0.3295  0.1149
 1706TIP3    H1 5124   2.269   5.321   3.461 -1.2859  0.2254 -1.5850
 1706TIP3    H2 5125   2.370   5.217   3.505 -1.2614  1.3573  1.2429
 1707TIP3   OH2 5126   6.312   3.629   0.768 -0.3943  0.2630  0.1554
 1707TIP3    H1 5127   6.306   3.700   0.832 -1.3542  0.0177  0.3592
 1707TIP3    H2 5128   6.241   3.647   0.706 -0.7395 -0.5959  0.2931
 1708TIP3   OH2 5129   3.297   2.541   2.090 -0.2254  0.2192 -0.4952
 1708TIP3    H1 5130   3.372   2.517   2.035 -0.1490 -0.1305 -0.2407
 1708TIP3    H2 5131   3.248   2.460   2.101  0.3989  0.0124  0.9340
 1709TIP3   OH2 5132   3.628   2.105   2.513 -0.3703  0.2773  0.6241
 1709TIP3    H1 5133   3.582   2.049   2.576 -0.6788 -0.2203 -0.0271
 1709TIP3    H2 5134   3.674   2.043   2.455 -1.8419  0.5966 -0.9772
 1710TIP3   OH2 5135   4.180   1.223   3.704  0.0343 -0.3165 -0.4692
 1710TIP3    H1 5136   4.087   1.202   3.709 -0.0186  0.0530  0.1949
 1710TIP3    H2 5137   4.222   1.160   3.762 -0.0101  0.6762  0.6818
 1711TIP3   OH2 5138   5.167   2.791   3.562 -0.3608  0.2062 -0.2282
 1711TIP3    H1 5139   5.128   2.724   3.506 -1.7398  1.5335 -0.9230
 1711TIP3    H2 5140   5.221   2.843   3.503  0.4212 -0.0512  0.2414
 1712TIP3   OH2 5141   4.294   0.106   1.279 -0.3318  0.1958 -0.2501
 1712TIP3    H1 5142   4.206   0.087   1.245 -0.8025 -0.4698  1.2719
 1712TIP3    H2 5143   4.351   0.044   1.234 -0.7402  0.1464 -0.7130
 1713TIP3   OH2 5144   4.745   5.904   2.299 -0.4014 -0.8562 -0.3455
 1713TIP3    H1 5145   4.792   5.915   2.216 -0.9815 -0.0465 -0.5775
 1713TIP3    H2 5146   4.814   5.892   2.364  0.0812 -0.8994 -0.8567
 1714TIP3   OH2 5147   5.998   2.166   1.331 -0.0061  0.1288  0.4665
 1714TIP3    H1 5148   6.032   2.133   1.415 -1.9083 -0.3567  1.1006
 1714TIP3    H2 5149   6.067   2.148   1.268  1.6417  0.8289  1.9758
 1715TIP3   OH2 5150   6.234   1.824   4.363  0.4107 -0.9659 -0.3557
 1715TIP3    H1 5151   6.172   1.867   4.422  0.0251 -0.6348 -1.0024
 1715TIP3    H2 5152   6.211   1.731   4.369 -1.5403 -0.6805 -2.1381
 1716TIP3   OH2 5153   5.491   4.888   2.120  0.3069 -0.0081 -0.5403
 1716TIP3    H1 5154   5.515   4.896   2.028  0.1556  1.8443 -0.4571
 1716TIP3    H2 5155   5.574   4.895   2.168  0.2617  0.1173 -0.4818
 1717TIP3   OH2 5156   1.064   3.841   3.372 -0.1801  0.3410  0.0548
 1717TIP3    H1 5157   1.106   3.927   3.363 -1.0289  0.8852  1.0047
 1717TIP3    H2 5158   1.112   3.799   3.444  0.2856 -0.0169 -0.4623
 1718TIP3   OH2 5159   2.591   2.333   1.534  0.0632 -0.2032 -0.3879
 1718TIP3    H1 5160   2.562   2.298   1.618  1.6126  0.2424  0.3538
 1718TIP3    H2 5161   2.627   2.419   1.555  3.0577 -1.1998 -1.0107
 1719TIP3   OH2 5162   1.048   3.842   1.667 -0.0456 -0.2722  0.5465
 1719TIP3    H1 5163   1.007   3.920   1.705 -0.9618 -0.3696 -0.2097
 1719TIP3    H2 5164   0.975   3.790   1.634  0.6770 -0.3827 -0.9632
 1720TIP3   OH2 5165   1.922   4.742   0.941  0.2724  0.1812 -0.5382
 1720TIP3    H1 5166   1.841   4.781   0.975  0.4093 -1.4371  1.8736
 1720TIP3    H2 5167   1.983   4.815   0.936 -0.0488  0.7068  1.9646
 1721TIP3   OH2 5168   0.093   1.797   3.068 -0.2035  0.1975 -0.0931
 1721TIP3    H1 5169   0.032   1.808   3.140  0.9831  1.3494  0.7686
 1721TIP3    H2 5170   0.044   1.824   2.990 -1.2496 -0.3521  0.3537
 1722TIP3   OH2 5171   1.102   1.129   3.974  0.1607  0.1530  0.2006
 1722TIP3    H1 5172   1.082   1.157   3.884 -0.7311  2.2636  0.9893
 1722TIP3    H2 5173   1.086   1.034   3.973 -2.0955  0.4594 -1.3065
 1723TIP3   OH2 5174   0.390   0.594   2.143 -0.3508  0.1427  0.2928
 1723TIP3    H1 5175   0.405   0.579   2.050  1.1525  1.8041  0.2072
 1723TIP3    H2 5176   0.352   0.512   2.175  0.6533 -1.0687 -1.4449
 1724TIP3   OH2 5177   5.217   0.054   3.948  0.5679 -0.2947  0.4162
 1724TIP3    H1 5178   5.274   0.020   3.879  1.2247  1.4192  0.0799
 1724TIP3    H2 5179   5.136   0.004   3.939  0.6557 -0.1524 -1.5682
 1725TIP3   OH2 5180   1.459   5.579   2.558  0.7076 -0.1721  0.0074
 1725TIP3    H1 5181   1.428   5.668   2.577  1.5388  0.2968 -0.7580
 1725TIP3    H2 5182   1.379   5.530   2.539  0.2446  0.4308  0.3291
 1726TIP3   OH2 5183   3.738   5.302   1.538  0.6096 -0.1035  0.0991
 1726TIP3    H1 5184   3.808   5.290   1.602  0.6169  0.7959  0.2714
 1726TIP3    H2 5185   3.685   5.373   1.574 -0.4870 -0.8647  0.0467
 1727TIP3   OH2 5186   4.129   0.102   5.053  0.3012  0.4216  0.1434
 1727TIP3    H1 5187   4.219   0.104   5.021 -0.7609  2.1278 -3.1259
 1727TIP3    H2 5188   4.111   0.192   5.080 -0.7039  0.3363 -0.2117
 1728TIP3   OH2 5189   3.731   2.426   3.026  0.3534  0.2467  0.4644
 1728TIP3    H1 5190   3.733   2.500   3.087 -1.3600 -0.4518  1.4409
 1728TIP3    H2 5191   3.765   2.461   2.944 -3.0082  2.9818  0.0197
 1729TIP3   OH2 5192   3.416   4.471   4.044 -0.0762  0.2702 -0.0336
 1729TIP3    H1 5193   3.336   4.458   4.096 -0.1953  1.6312  0.1635
 1729TIP3    H2 5194   3.481   4.502   4.107  0.3176  0.1442 -0.3724
 1730TIP3   OH2 5195   4.102   2.340   3.788  0.4153 -0.4682  0.4333
 1730TIP3    H1 5196   4.128   2.432   3.776  3.2083 -1.0557  1.1471
 1730TIP3    H2 5197   4.162   2.291   3.730 -0.6088 -1.8826  0.5285
 1731TIP3   OH2 5198   3.075   3.857   3.915  0.3073 -0.1120  0.0077
 1731TIP3    H1 5199   3.132   3.874   3.839  0.8011  0.6921  0.5448
 1731TIP3    H2 5200   3.051   3.765   3.906  0.5787 -0.1037 -0.9834
 1732TIP3   OH2 5201   3.805   0.244   2.725  0.0938 -0.1652  0.1420
 1732TIP3    H1 5202   3.734   0.181   2.707 -0.3694 -0.0492  1.4280
 1732TIP3    H2 5203   3.763   0.330   2.715  0.3673 -0.0794 -0.2620
 1733TIP3   OH2 5204   2.059   1.754   0.414  0.3715 -0.0545 -0.1055
 1733TIP3    H1 5205   2.045   1.685   0.348 -3.7764 -0.8559  1.3078
 1733TIP3    H2 5206   2.023   1.718   0.494 -0.4964  3.1748  1.1011
 1734TIP3   OH2 5207   2.714   3.898   1.637  0.4099  0.0470 -0.4384
 1734TIP3    H1 5208   2.707   3.920   1.544 -1.6308  1.3069 -0.0419
 1734TIP3    H2 5209   2.712   3.802   1.639  1.2880 -0.0270 -1.7152
 1735TIP3   OH2 5210   1.912   1.819   3.642  0.2212 -0.3562  0.0363
 1735TIP3    H1 5211   1.926   1.904   3.683 -1.8024  1.1761 -2.2143
 1735TIP3    H2 5212   1.884   1.762   3.714  1.7953  0.7740  1.6192
 1736TIP3   OH2 5213   2.132   0.826   1.864  0.2650 -0.8086 -0.5346
 1736TIP3    H1 5214   2.143   0.920   1.846  0.0733 -0.6848 -0.0279
 1736TIP3    H2 5215   2.160   0.783   1.784 -1.5691 -0.2391 -1.5353
 1737TIP3   OH2 5216   1.886   2.182   2.709  0.6356  0.0959  0.3757
 1737TIP3    H1 5217   1.845   2.261   2.743  0.9477  0.0835  0.7877
 1737TIP3    H2 5218   1.980   2.197   2.721  0.7701  0.1860 -0.6824
 1738TIP3   OH2 5219   6.195   5.004   2.238 -0.5812  0.4997  0.1780
 1738TIP3    H1 5220   6.129   5.021   2.305  0.3554 -0.8769  1.5303
 1738TIP3    H2 5221   6.184   4.912   2.215  0.3524  0.4510 -0.1418
 1739TIP3   OH2 5222   5.907   4.921   1.975 -0.3963 -0.0911  0.5285
 1739TIP3    H1 5223   5.839   4.987   1.986  0.1490  0.5175  0.3606
 1739TIP3    H2 5224   5.973   4.943   2.041  0.6626  0.6895 -0.7401
 1740TIP3   OH2 5225   4.101   4.707   5.162  0.6129  0.0387  0.2152
 1740TIP3    H1 5226   4.048   4.770   5.114  1.8407  0.7675 -0.2384
 1740TIP3    H2 5227   4.112   4.634   5.101  1.1153  0.4170 -0.1636
 1741TIP3   OH2 5228   1.720   2.406   4.105 -0.2248 -0.1130 -0.5246
 1741TIP3    H1 5229   1.751   2.319   4.081  1.1160 -0.2982  1.6240
 1741TIP3    H2 5230   1.644   2.390   4.161 -0.3977  0.1216 -0.6905
 1742TIP3   OH2 5231   2.547   1.525   2.737  0.9153 -0.4851 -0.0155
 1742TIP3    H1 5232   2.591   1.608   2.758  0.2103  0.2524 -1.2845
 1742TIP3    H2 5233   2.548   1.476   2.819  1.1473  0.8702  0.8379
 1743TIP3   OH2 5234   1.847   3.897   3.355 -0.4097  0.0852 -0.3332
 1743TIP3    H1 5235   1.934   3.936   3.347 -0.5940  1.1011  1.9019
 1743TIP3    H2 5236   1.864   3.806   3.379 -0.0117 -0.7008 -3.1635
 1744TIP3   OH2 5237   5.365   4.466   2.423 -0.1545  0.5227 -0.2859
 1744TIP3    H1 5238   5.445   4.509   2.391  1.7566 -0.5727  2.5883
 1744TIP3    H2 5239   5.371   4.377   2.389  1.2407 -0.2803  1.8473
 1745TIP3   OH2 5240   2.011   5.439   1.025  0.5194 -0.5332  0.0821
 1745TIP3    H1 5241   2.060   5.461   1.104  0.4945 -0.1755  0.0030
 1745TIP3    H2 5242   1.946   5.509   1.018 -0.1763 -1.1458  0.3292
 1746TIP3   OH2 5243   4.284   5.809   3.654  0.3427 -0.0991  0.5186
 1746TIP3    H1 5244   4.262   5.808   3.747 -0.9436  0.4984  0.2467
 1746TIP3    H2 5245   4.291   5.717   3.630  2.1804 -0.2615  1.5128
 1747TIP3   OH2 5246   2.793   3.042   4.915  0.5794  0.1453  0.4528
 1747TIP3    H1 5247   2.848   2.966   4.935 -0.1841 -0.2850  0.9547
 1747TIP3    H2 5248   2.759   3.024   4.827 -1.1598 -1.0820  1.3124
 1748TIP3   OH2 5249   3.988   5.430   3.944  0.0753  0.0014  0.3883
 1748TIP3    H1 5250   3.912   5.448   3.889  1.3962  2.1364 -0.8856
 1748TIP3    H2 5251   3.970   5.344   3.982 -1.8213 -0.6936 -1.8178
 1749TIP3   OH2 5252   2.894   5.906   4.734 -0.3812 -0.3505 -0.4211
 1749TIP3    H1 5253   2.830   5.922   4.803 -0.8445 -1.1930 -0.6296
 1749TIP3    H2 5254   2.978   5.929   4.772 -0.7112 -0.1121  0.1727
 1750TIP3   OH2 5255   5.592   2.878   4.812 -0.3509  0.0649  0.3264
 1750TIP3    H1 5256   5.534   2.835   4.749 -1.3122 -0.5954  1.6064
 1750TIP3    H2 5257   5.677   2.882   4.768 -1.4089  1.4254 -1.7833
 1751TIP3   OH2 5258   2.305   4.333   3.827 -0.0745  0.7387 -0.4219
 1751TIP3    H1 5259   2.251   4.337   3.748  0.5987 -0.3861 -0.9756
 1751TIP3    H2 5260   2.268   4.260   3.877  0.3929  0.5026 -0.4098
 1752TIP3   OH2 5261   1.103   1.950   0.237  0.2751 -0.1555 -0.2667
 1752TIP3    H1 5262   1.099   1.949   0.141 -2.5879 -0.4673 -0.2307
 1752TIP3    H2 5263   1.113   2.043   0.260  1.1611 -0.0979 -0.8358
 1753TIP3   OH2 5264   1.699   0.387   3.786  0.4789  0.0829  0.1222
 1753TIP3    H1 5265   1.684   0.472   3.826 -0.3371 -0.0598  0.1374
 1753TIP3    H2 5266   1.695   0.404   3.691  1.2037  0.2061  0.1030
 1754TIP3   OH2 5267   4.439   0.129   5.049 -0.4117 -0.2585 -0.2688
 1754TIP3    H1 5268   4.468   0.114   4.959  0.0448  1.5227 -0.4643
 1754TIP3    H2 5269   4.506   0.187   5.085 -1.8617  1.0612  0.4148
 1755TIP3   OH2 5270   3.520   5.862   0.445  0.0612  0.2639 -0.1973
 1755TIP3    H1 5271   3.519   5.852   0.540 -1.2755  2.4828  0.0894
 1755TIP3    H2 5272   3.586   5.929   0.428 -2.2968  2.7256 -0.3658
 1756TIP3   OH2 5273   0.700   2.807   4.267 -0.4681 -0.3145  0.2435
 1756TIP3    H1 5274   0.670   2.733   4.214  0.3077 -0.6733  0.3050
 1756TIP3    H2 5275   0.652   2.798   4.349 -1.2369 -0.0891 -0.1626
 1757TIP3   OH2 5276   0.025   3.422   3.824  0.4384  0.1645  0.3919
 1757TIP3    H1 5277   0.080   3.344   3.823 -0.1601 -0.2807 -0.8352
 1757TIP3    H2 5278  -0.062   3.390   3.801 -0.0146  1.0736  0.7751
 1758TIP3   OH2 5279   5.763   0.491   2.451 -0.0200 -0.6173 -0.4816
 1758TIP3    H1 5280   5.689   0.465   2.507  0.0535 -1.7877 -0.8921
 1758TIP3    H2 5281   5.840   0.468   2.501  0.0716  0.0342 -0.3128
 1759TIP3   OH2 5282   3.716   5.801   2.628  0.2917 -0.2540  0.2952
 1759TIP3    H1 5283   3.755   5.885   2.603 -0.8435  0.4949  0.9651
 1759TIP3    H2 5284   3.776   5.765   2.692  0.8174  0.0203 -0.0358
 1760TIP3   OH2 5285   3.725   0.635   0.312  0.3024 -0.0638 -0.1371
 1760TIP3    H1 5286   3.819   0.618   0.302  0.1220 -0.3628 -1.6049
 1760TIP3    H2 5287   3.708   0.624   0.405  1.5186 -1.0804 -0.0154
 1761TIP3   OH2 5288   4.463   1.309   2.746 -0.3116  0.5421  0.7101
 1761TIP3    H1 5289   4.548   1.350   2.730 -0.3849 -0.0551 -1.4585
 1761TIP3    H2 5290   4.485   1.217   2.764 -0.4324  0.6845  1.6869
 1762TIP3   OH2 5291   4.897   2.328   2.215  0.1195 -0.3303 -0.2600
 1762TIP3    H1 5292   4.986   2.295   2.228  0.4004  1.0170  1.5989
 1762TIP3    H2 5293   4.852   2.258   2.168  2.1851 -0.9787 -1.4197
 1763TIP3   OH2 5294   5.602   3.941   2.251 -0.4238  0.4633  0.1772
 1763TIP3    H1 5295   5.609   3.918   2.343  0.2598  0.3756  0.1063
 1763TIP3    H2 5296   5.683   3.988   2.231  0.7424 -1.8584 -1.0378
 1764TIP3   OH2 5297   0.857   1.343   3.820 -0.4639  0.5115 -0.4437
 1764TIP3    H1 5298   0.797   1.389   3.879 -1.4748 -0.6143 -0.5492
 1764TIP3    H2 5299   0.841   1.250   3.838  0.3896  0.1757 -1.3468
 1765TIP3   OH2 5300   2.060   2.998   3.958 -0.5390  0.0395 -0.2629
 1765TIP3    H1 5301   1.969   3.015   3.933 -0.0823  1.1936 -1.2836
 1765TIP3    H2 5302   2.055   2.958   4.045 -2.0153 -0.0766 -0.3775
 1766TIP3   OH2 5303   6.318   2.508   3.869  0.7451 -0.3455  0.0809
 1766TIP3    H1 5304   6.272   2.431   3.903  0.7137 -0.2259  0.3063
 1766TIP3    H2 5305   6.281   2.520   3.781  1.8258 -1.5060 -0.5770
 1767TIP3   OH2 5306   0.161   2.222   0.451 -0.2517 -0.3904 -0.5862
 1767TIP3    H1 5307   0.211   2.215   0.369  2.0263  1.3641  0.5653
 1767TIP3    H2 5308   0.089   2.281   0.430 -0.9101 -1.5811 -1.8250
 1768TIP3   OH2 5309   2.990   2.022   3.844  0.0257  0.3027  0.2830
 1768TIP3    H1 5310   2.984   2.113   3.872 -0.4143  0.4674 -0.3168
 1768TIP3    H2 5311   2.900   1.990   3.844  0.2976 -0.5476  1.7710
 1769TIP3   OH2 5312   3.059   4.845   3.540 -0.0381 -0.1013  0.0647
 1769TIP3    H1 5313   3.148   4.853   3.507  0.2511 -1.0048  0.5945
 1769TIP3    H2 5314   3.009   4.811   3.465  0.1250  0.1235 -0.1472
 1770TIP3   OH2 5315   3.075   1.038   4.047 -0.4235 -0.1857 -0.4362
 1770TIP3    H1 5316   3.034   1.058   4.131 -0.3754  0.0163 -0.4592
 1770TIP3    H2 5317   3.067   0.943   4.038 -1.9238 -0.0376 -0.9701
 1771TIP3   OH2 5318   5.988   5.781   3.997  0.8094  0.0062 -0.1151
 1771TIP3    H1 5319   5.906   5.826   3.977  0.7472  0.0117  0.1527
 1771TIP3    H2 5320   5.980   5.696   3.954 -0.4505 -1.0483  2.0707
 1772TIP3   OH2 5321   5.436   5.924   4.241  0.7134  0.3222  0.3749
 1772TIP3    H1 5322   5.368   5.914   4.308 -1.2691 -1.7986 -1.7230
 1772TIP3    H2 5323   5.494   5.849   4.255  1.3155  0.8597  0.7731
 1773TIP3   OH2 5324   0.359   2.782   1.295  0.0150  0.4838 -0.0046
 1773TIP3    H1 5325   0.449   2.751   1.297  0.4203  1.6738  1.9075
 1773TIP3    H2 5326   0.314   2.729   1.361  0.1257  2.1077  1.4405
 1774TIP3   OH2 5327   6.021   3.181   2.389  0.3436 -0.4955 -0.2023
 1774TIP3    H1 5328   5.955   3.244   2.361  0.1106 -1.2567 -1.4208
 1774TIP3    H2 5329   6.030   3.121   2.315 -0.2028 -2.5141  1.2879
 1775TIP3   OH2 5330   3.705   3.906   4.156 -0.5371  0.3242 -0.5455
 1775TIP3    H1 5331   3.709   4.001   4.161 -1.4694  0.3156  1.5222
 1775TIP3    H2 5332   3.673   3.879   4.243 -1.5725 -1.7871 -1.5180
 1776TIP3   OH2 5333   5.391   1.401   1.410 -0.0172 -0.4672 -0.3515
 1776TIP3    H1 5334   5.458   1.403   1.478  0.4139 -0.3637 -0.7787
 1776TIP3    H2 5335   5.350   1.487   1.414 -1.3408 -1.1077  1.1016
 1777TIP3   OH2 5336   1.920   2.525   0.988 -0.0408  0.1360  0.1546
 1777TIP3    H1 5337   1.876   2.609   1.003  0.3554  0.0836  1.8319
 1777TIP3    H2 5338   1.923   2.484   1.075  1.7578 -0.6311 -0.2296
 1778TIP3   OH2 5339   3.700   5.477   3.424 -0.1474  0.0159 -0.0717
 1778TIP3    H1 5340   3.659   5.550   3.470 -0.4506  0.8963 -1.6633
 1778TIP3    H2 5341   3.794   5.489   3.438 -0.2325  0.2783  0.2867
 1779TIP3   OH2 5342   0.317   5.660   2.956 -0.0573 -0.0217 -0.3491
 1779TIP3    H1 5343   0.313   5.711   3.037  2.1689 -1.0923  0.5226
 1779TIP3    H2 5344   0.261   5.584   2.973 -0.1485  0.1014 -0.0914
 1780TIP3   OH2 5345   1.152   2.784   2.667  0.0756 -0.3424 -0.0619
 1780TIP3    H1 5346   1.236   2.830   2.662 -1.0574  1.7095 -3.1303
 1780TIP3    H2 5347   1.099   2.837   2.726 -0.2592  0.6384 -1.2110
 1781TIP3   OH2 5348   1.877   5.381   2.107 -0.1858 -0.1138 -0.3480
 1781TIP3    H1 5349   1.884   5.389   2.202 -2.6637  0.1675 -0.1294
 1781TIP3    H2 5350   1.811   5.446   2.082 -0.4657 -1.0071 -2.0954
 1782TIP3   OH2 5351   2.905   2.902   0.413 -0.0495 -0.1026 -0.6228
 1782TIP3    H1 5352   2.830   2.887   0.470  1.3021 -1.4034  0.9436
 1782TIP3    H2 5353   2.979   2.861   0.460  1.3217 -0.3799 -2.8687
 1783TIP3   OH2 5354   4.309   3.420   0.804  0.0000 -0.1166  0.0966
 1783TIP3    H1 5355   4.323   3.332   0.840  2.2057 -0.4674 -1.4688
 1783TIP3    H2 5356   4.384   3.435   0.746 -1.9243  1.5598 -2.1289
 1784TIP3   OH2 5357   1.789   3.275   1.029  0.4296 -0.1590 -0.5345
 1784TIP3    H1 5358   1.693   3.283   1.027  0.3082  0.0228  2.1018
 1784TIP3    H2 5359   1.821   3.363   1.006 -0.0931  0.1647 -0.0551
 1785TIP3   OH2 5360   2.432   4.968   4.127 -0.0581  0.1351 -0.1223
 1785TIP3    H1 5361   2.462   4.907   4.060  1.3840 -0.0512  0.6472
 1785TIP3    H2 5362   2.387   4.913   4.191 -0.1479  0.1113 -0.2053
 1786TIP3   OH2 5363   4.398   3.365   0.285 -0.0961 -0.2927  0.1437
 1786TIP3    H1 5364   4.480   3.405   0.313 -0.0332 -0.5547  0.3391
 1786TIP3    H2 5365   4.382   3.400   0.197  0.0498  0.0177  0.2415
 1787TIP3   OH2 5366   6.041   0.339   0.267 -0.0189 -0.3133 -0.3698
 1787TIP3    H1 5367   6.033   0.263   0.324 -3.0924  0.2803  0.1727
 1787TIP3    H2 5368   6.019   0.414   0.323 -1.6026  0.4539 -1.9171
 1788TIP3   OH2 5369   5.193   0.449   0.363  0.4070  0.0782  0.2977
 1788TIP3    H1 5370   5.219   0.524   0.417 -0.9414  1.2825 -0.6420
 1788TIP3    H2 5371   5.125   0.406   0.415 -0.0322  0.5247  0.1001
 1789TIP3   OH2 5372   5.241   2.000   3.262  0.1327  0.1470 -0.1179
 1789TIP3    H1 5373   5.208   1.993   3.172 -0.4421 -0.1690  0.1171
 1789TIP3    H2 5374   5.184   2.064   3.304  0.7362  0.6983 -0.1239
 1790TIP3   OH2 5375   3.927   1.653   0.225  0.1794 -0.2126  0.0788
 1790TIP3    H1 5376   3.923   1.748   0.239  0.1599  0.1822 -2.2400
 1790TIP3    H2 5377   3.849   1.619   0.269 -0.7813  1.0683 -0.5639
 1791TIP3   OH2 5378   2.568   2.270   3.431  0.3192  0.2274 -0.4665
 1791TIP3    H1 5379   2.501   2.336   3.413  0.9773  0.9406 -0.3394
 1791TIP3    H2 5380   2.542   2.194   3.379  0.4691  1.1544 -1.9236
 1792TIP3   OH2 5381   5.820   1.078   2.915  0.2424  0.2697  0.0233
 1792TIP3    H1 5382   5.879   1.042   2.849 -0.6082 -1.1056 -0.0270
 1792TIP3    H2 5383   5.733   1.046   2.890 -0.7625  3.1112 -0.5441
 1793TIP3   OH2 5384   5.122   0.708   3.122  0.0892 -0.4070 -0.5749
 1793TIP3    H1 5385   5.040   0.707   3.073 -1.1297  1.7572  1.2524
 1793TIP3    H2 5386   5.188   0.733   3.057 -0.8774 -0.8182 -1.7698
 1794TIP3   OH2 5387   5.594   1.732   4.267  0.0498  0.1131 -0.4279
 1794TIP3    H1 5388   5.584   1.694   4.179  1.8946  1.5855 -1.3476
 1794TIP3    H2 5389   5.523   1.796   4.273  1.2245  1.6313 -1.8332
 1795TIP3   OH2 5390   5.902   5.808   1.975 -0.1144 -0.1680 -0.0100
 1795TIP3    H1 5391   5.913   5.903   1.982  0.0103 -0.1864  0.0574
 1795TIP3    H2 5392   5.810   5.795   1.954 -0.2401 -0.0555  0.4789
 1796TIP3   OH2 5393   3.211   3.797   2.416 -0.5453 -0.6682  0.3245
 1796TIP3    H1 5394   3.274   3.760   2.478 -2.1560 -1.9532  1.2836
 1796TIP3    H2 5395   3.225   3.748   2.335  3.7775  3.1062 -1.6777
 1797TIP3   OH2 5396   2.501   0.067   4.275  0.7126  0.3899 -0.2045
 1797TIP3    H1 5397   2.430   0.131   4.272  1.2736  1.0035 -1.1435
 1797TIP3    H2 5398   2.462  -0.010   4.317 -1.1487 -0.0344 -2.4688
 1798TIP3   OH2 5399   4.283   4.603   2.027  0.2235  0.1587  0.0738
 1798TIP3    H1 5400   4.253   4.549   1.954 -0.9989  1.0440 -0.1170
 1798TIP3    H2 5401   4.267   4.550   2.105 -0.7333  0.1359 -0.1257
 1799TIP3   OH2 5402   1.888   5.159   4.426  0.4247  0.4236 -0.5493
 1799TIP3    H1 5403   1.923   5.215   4.357  2.0274  1.3891  0.9765
 1799TIP3    H2 5404   1.797   5.187   4.435  0.4220  0.8400 -1.6791
 1800TIP3   OH2 5405   3.626   4.723   0.499 -0.1127  0.6538 -0.4149
 1800TIP3    H1 5406   3.556   4.778   0.535 -1.6545 -2.1565  1.2445
 1800TIP3    H2 5407   3.581   4.665   0.438  0.7824 -1.0318  0.4690
 1801TIP3   OH2 5408   0.668   0.574   2.718 -0.6488  0.3004  0.0598
 1801TIP3    H1 5409   0.605   0.514   2.678 -0.3517  0.2916 -0.3989
 1801TIP3    H2 5410   0.737   0.518   2.753 -1.7408  0.1692  2.1485
 1802TIP3   OH2 5411   1.760   2.760   4.333  0.4265 -0.1178  0.5181
 1802TIP3    H1 5412   1.746   2.821   4.406 -3.0475  1.4129 -1.1972
 1802TIP3    H2 5413   1.747   2.674   4.372  0.0724  0.5596  1.9965
 1803TIP3   OH2 5414   3.040   2.689   2.724  0.1387 -0.0586  0.4437
 1803TIP3    H1 5415   3.089   2.771   2.725  0.2801 -0.1051 -0.9353
 1803TIP3    H2 5416   3.051   2.653   2.812  1.0015  0.8628  0.7243
 1804TIP3   OH2 5417   2.729   3.061   2.826 -0.2680 -0.0498 -0.4657
 1804TIP3    H1 5418   2.749   2.970   2.803 -1.3708 -0.0653 -1.4743
 1804TIP3    H2 5419   2.718   3.105   2.742  0.3206  1.0457  0.0128
 1805TIP3   OH2 5420   4.356   1.706   2.959  0.1910  0.0662 -0.7488
 1805TIP3    H1 5421   4.391   1.704   2.870  0.7172 -1.0721 -0.5417
 1805TIP3    H2 5422   4.380   1.621   2.995  1.5811  1.1427  1.0729
 1806TIP3   OH2 5423   5.555   0.546   3.029  0.9217 -0.1260  0.2596
 1806TIP3    H1 5424   5.586   0.516   3.114  1.6876  0.7164  0.2985
 1806TIP3    H2 5425   5.630   0.537   2.971  0.3654 -0.8171 -0.3702
 1807TIP3   OH2 5426   1.016   2.326   0.506 -0.5125  0.2468 -0.5642
 1807TIP3    H1 5427   1.032   2.245   0.554 -0.1678  1.3590  1.3212
 1807TIP3    H2 5428   1.042   2.307   0.416 -0.3330 -1.6774 -0.1321
 1808TIP3   OH2 5429   6.215   0.446   1.950 -0.3175  0.2820 -0.8470
 1808TIP3    H1 5430   6.293   0.468   1.899  0.9461  0.8866  1.2447
 1808TIP3    H2 5431   6.200   0.353   1.931  1.1063  0.0715 -1.0636
 1809TIP3   OH2 5432   2.430   3.279   3.188 -0.0285 -0.2315 -0.0138
 1809TIP3    H1 5433   2.443   3.326   3.270  2.5512  0.4009 -0.6899
 1809TIP3    H2 5434   2.503   3.217   3.184 -1.5200 -2.0503 -0.6911
 1810TIP3   OH2 5435   0.307   0.732   0.948  0.2133  0.0411  0.2685
 1810TIP3    H1 5436   0.317   0.783   1.028  0.9355  1.3658 -0.6253
 1810TIP3    H2 5437   0.346   0.647   0.968  1.6790  0.8367  0.8809
 1811TIP3   OH2 5438   0.607   4.979   3.765 -0.0034 -0.3411  0.1875
 1811TIP3    H1 5439   0.667   4.911   3.795  0.7159  0.0510 -0.3395
 1811TIP3    H2 5440   0.559   5.005   3.844 -2.8217 -3.8412 -0.1216
 1812TIP3   OH2 5441   2.072   2.113   5.194 -0.1811 -0.1021  0.0202
 1812TIP3    H1 5442   2.059   2.151   5.107  0.9708 -0.0787 -0.1531
 1812TIP3    H2 5443   1.993   2.060   5.209 -0.5346  0.1478 -0.9033
 1813TIP3   OH2 5444   0.141   3.717   3.482 -0.5953 -0.4527  0.2452
 1813TIP3    H1 5445   0.125   3.769   3.561 -0.6056 -1.4571  0.9192
 1813TIP3    H2 5446   0.136   3.626   3.512 -1.4237 -0.8570 -1.0788
 1814TIP3   OH2 5447   4.070   4.136   4.707  0.1256  0.1066 -0.3632
 1814TIP3    H1 5448   4.116   4.219   4.724 -1.5757  0.7700  1.2547
 1814TIP3    H2 5449   4.111   4.073   4.766  0.1941  0.2482 -0.2586
 1815TIP3   OH2 5450   2.552   1.103   1.118  0.1609  0.5070  0.3049
 1815TIP3    H1 5451   2.641   1.069   1.104  0.5635  1.8692 -0.5706
 1815TIP3    H2 5452   2.506   1.081   1.037 -0.6721 -1.1999  1.1870
 1816TIP3   OH2 5453   4.336   0.461   0.953 -0.4445 -0.0462 -0.2330
 1816TIP3    H1 5454   4.342   0.365   0.948 -1.3490 -0.1889  0.8989
 1816TIP3    H2 5455   4.273   0.477   1.024 -0.4448  1.3880 -0.5310
 1817TIP3   OH2 5456   3.308   2.512   0.628  0.2673  0.2732  0.1834
 1817TIP3    H1 5457   3.259   2.579   0.675  0.2749  0.5243 -0.1608
 1817TIP3    H2 5458   3.399   2.527   0.652  0.2027 -0.0508  0.6458
 1818TIP3   OH2 5459   3.151   1.115   1.243 -0.4085  0.4052  0.0646
 1818TIP3    H1 5460   3.126   1.204   1.220 -0.5358  0.0987 -1.0299
 1818TIP3    H2 5461   3.141   1.111   1.338 -1.8645  1.1169 -0.0337
 1819TIP3   OH2 5462   5.252   3.342   4.245  0.1995  0.1321 -0.1657
 1819TIP3    H1 5463   5.227   3.413   4.185 -0.8027  1.9532  2.2043
 1819TIP3    H2 5464   5.342   3.362   4.271 -0.6903  1.8234  1.9786
 1820TIP3   OH2 5465   4.058   3.013   4.080  0.1542  0.2275  0.1524
 1820TIP3    H1 5466   4.100   3.033   3.996  0.3764  0.9653  0.4274
 1820TIP3    H2 5467   4.027   2.923   4.071 -0.1616  0.4244 -0.8628
 1821TIP3   OH2 5468   1.522   3.883   2.964 -0.0930  0.6971 -0.0641
 1821TIP3    H1 5469   1.583   3.817   2.997 -2.1368 -0.3901  1.8637
 1821TIP3    H2 5470   1.489   3.846   2.882  1.6908  1.2570 -1.0745
 1822TIP3   OH2 5471   0.336   1.974   4.707 -0.2210 -0.0507 -0.1334
 1822TIP3    H1 5472   0.412   1.939   4.754 -0.0451  0.8463  0.2674
 1822TIP3    H2 5473   0.263   1.921   4.738  0.0302 -0.0310  0.5033
 1823TIP3   OH2 5474   4.613   2.783   4.728 -0.0710  0.0780  0.0128
 1823TIP3    H1 5475   4.525   2.796   4.763 -0.0318  0.1803  0.0742
 1823TIP3    H2 5476   4.662   2.859   4.758 -0.1972  0.4837 -0.7836
 1824TIP3   OH2 5477   3.566   4.301   0.549  0.2855 -0.6478 -0.4176
 1824TIP3    H1 5478   3.638   4.273   0.493  2.6600 -0.7053  2.4497
 1824TIP3    H2 5479   3.573   4.247   0.628 -1.8203  0.5563  0.6991
 1825TIP3   OH2 5480   3.637   0.060   2.280  0.7654 -0.4436  0.1605
 1825TIP3    H1 5481   3.666   0.026   2.195  0.1104 -0.4660 -0.0555
 1825TIP3    H2 5482   3.713   0.107   2.313  1.2244 -0.9270 -0.1738
 1826TIP3   OH2 5483   2.002   3.553   3.224  0.1159 -0.3020  0.1621
 1826TIP3    H1 5484   2.078   3.610   3.240 -0.0903  0.2862 -0.8402
 1826TIP3    H2 5485   1.946   3.565   3.301 -0.4684  1.7917 -0.5149
 1827TIP3   OH2 5486   1.858   2.145   4.047 -0.3724  0.1490 -0.0010
 1827TIP3    H1 5487   1.895   2.083   3.984  0.6936  0.1047  0.6392
 1827TIP3    H2 5488   1.873   2.104   4.132 -1.3618  0.4310  0.3282
 1828TIP3   OH2 5489   3.580   5.586   0.275 -0.1026 -0.0147 -0.3354
 1828TIP3    H1 5490   3.509   5.541   0.321 -1.1169  1.3724 -0.5020
 1828TIP3    H2 5491   3.594   5.666   0.325 -0.4176  0.9572 -1.7631
 1829TIP3   OH2 5492   3.757   0.416   5.158 -0.1309 -0.3070 -0.1974
 1829TIP3    H1 5493   3.697   0.481   5.195  2.9869  2.7517 -0.0303
 1829TIP3    H2 5494   3.744   0.424   5.063  0.0997  0.4703 -0.1697
 1830TIP3   OH2 5495   3.469   0.650   4.982 -0.3073 -0.1636  0.3290
 1830TIP3    H1 5496   3.443   0.693   4.901  1.7234 -0.4509 -0.5158
 1830TIP3    H2 5497   3.537   0.707   5.019 -0.2700 -0.7224  1.1419
 1831TIP3   OH2 5498   3.065   0.654   3.675  0.4428 -0.1676  0.3822
 1831TIP3    H1 5499   3.130   0.722   3.693  1.4373 -1.1449  0.5768
 1831TIP3    H2 5500   3.085   0.585   3.738 -0.9385 -0.4021  0.5960
 1832TIP3   OH2 5501   2.379   3.257   4.179 -0.1731 -0.0821 -0.1798
 1832TIP3    H1 5502   2.316   3.286   4.245  0.5807 -2.8595  1.9654
 1832TIP3    H2 5503   2.361   3.312   4.103 -1.4860  2.9362  2.1042
 1833TIP3   OH2 5504   3.109   5.715   0.329 -0.0022 -0.1742  0.7350
 1833TIP3    H1 5505   3.045   5.712   0.257  0.8593 -1.7948 -0.0265
 1833TIP3    H2 5506   3.168   5.786   0.305  0.0160 -0.4093  0.0450
 1834TIP3   OH2 5507   2.618   5.265   0.982 -0.0767  0.1043 -0.7280
 1834TIP3    H1 5508   2.695   5.226   0.941  0.3032 -0.3769  0.4119
 1834TIP3    H2 5509   2.631   5.250   1.075 -1.0208  0.9969 -0.4443
 1835TIP3   OH2 5510   1.392   4.105   0.088 -0.6475 -0.3451  0.2110
 1835TIP3    H1 5511   1.391   4.062   0.002  0.3533 -2.3204  1.1186
 1835TIP3    H2 5512   1.465   4.064   0.134  2.1533  4.1387  0.3672
 1836TIP3   OH2 5513   4.373   2.569   1.121 -0.0371  0.1305 -0.1245
 1836TIP3    H1 5514   4.385   2.562   1.215 -2.9755 -0.5840  0.2916
 1836TIP3    H2 5515   4.305   2.635   1.110  1.5376  1.5990 -1.9271
 1837TIP3   OH2 5516   1.552   0.284   5.049 -0.2744 -0.1262  0.0669
 1837TIP3    H1 5517   1.607   0.274   5.126  2.0634 -1.3010 -1.6418
 1837TIP3    H2 5518   1.483   0.218   5.059  1.1384 -1.6112  0.2487
 1838TIP3   OH2 5519   1.158   0.413   2.560  0.5306  0.4022 -0.6179
 1838TIP3    H1 5520   1.203   0.411   2.645 -0.6468  2.3068  0.1233
 1838TIP3    H2 5521   1.134   0.322   2.543 -0.4641  0.1372  1.8207
 1839TIP3   OH2 5522   1.726   3.885   1.892 -0.4828 -0.3158 -0.1937
 1839TIP3    H1 5523   1.709   3.945   1.820 -2.1877 -0.2806  0.1930
 1839TIP3    H2 5524   1.684   3.803   1.867 -1.1515 -0.2867  0.7673
 1840TIP3   OH2 5525   4.075   1.443   2.518  0.1428 -0.1462 -0.4332
 1840TIP3    H1 5526   4.052   1.471   2.607  1.2776 -2.4222  0.6709
 1840TIP3    H2 5527   4.006   1.382   2.493  2.2085 -3.3046  0.9742
 1841TIP3   OH2 5528   4.563   4.978   5.019 -0.3613 -0.2853 -0.1700
 1841TIP3    H1 5529   4.470   4.957   5.023 -0.2016 -1.4920 -1.8727
 1841TIP3    H2 5530   4.569   5.048   4.954 -0.0693 -0.3420 -0.2058
 1842TIP3   OH2 5531   1.252   2.428   0.616 -0.7327 -0.5133 -0.0519
 1842TIP3    H1 5532   1.310   2.355   0.637 -1.7192 -0.5818  2.8997
 1842TIP3    H2 5533   1.175   2.388   0.576 -0.0257 -0.7372 -1.2187
 1843TIP3   OH2 5534   1.521   2.149   3.228  0.3758 -0.3541 -0.1706
 1843TIP3    H1 5535   1.428   2.160   3.208  0.1336 -1.5008  0.2152
 1843TIP3    H2 5536   1.526   2.063   3.271  1.7404 -0.7163 -0.9901
 1844TIP3   OH2 5537   1.286   1.085   3.178 -0.4925 -0.8208 -0.2938
 1844TIP3    H1 5538   1.330   1.082   3.093 -0.9566 -0.5037 -0.5518
 1844TIP3    H2 5539   1.357   1.085   3.242  0.1100  2.8757 -0.7428
 1845TIP3   OH2 5540   0.570  -0.007   4.946  0.7354  0.7946 -0.2448
 1845TIP3    H1 5541   0.483   0.023   4.920  0.0498 -0.4372  0.5378
 1845TIP3    H2 5542   0.587   0.039   5.028  0.3412  0.2341  0.1613
 1846TIP3   OH2 5543   2.368   4.576   0.154  0.1783 -0.1078 -0.1199
 1846TIP3    H1 5544   2.309   4.645   0.124  0.3358 -0.0048 -0.1944
 1846TIP3    H2 5545   2.329   4.495   0.121  1.4619  0.1445 -2.4775
 1847TIP3   OH2 5546   2.116   0.961   3.265 -0.0647 -0.0086 -0.5538
 1847TIP3    H1 5547   2.102   0.880   3.314  0.7029  0.2787  0.1643
 1847TIP3    H2 5548   2.029   1.000   3.258 -0.3370 -0.5520 -0.3050
 1848TIP3   OH2 5549   0.392   4.001   4.241 -0.0116 -0.2105  0.3538
 1848TIP3    H1 5550   0.387   4.092   4.268 -0.2378 -0.9692  3.1813
 1848TIP3    H2 5551   0.479   3.972   4.268 -0.5877 -1.2683  1.1717
 1849TIP3   OH2 5552   0.717   4.777   1.587 -0.0072 -0.3735 -0.8300
 1849TIP3    H1 5553   0.664   4.841   1.636 -0.0169 -0.1739 -1.1007
 1849TIP3    H2 5554   0.674   4.693   1.604  0.7569 -0.5117  0.5956
 1850TIP3   OH2 5555   0.321   4.449   1.083  0.4022 -0.0670  0.5772
 1850TIP3    H1 5556   0.331   4.365   1.039  0.1042 -0.1919  0.7501
 1850TIP3    H2 5557   0.276   4.429   1.165 -2.6818  0.6430 -0.7967
 1851TIP3   OH2 5558   1.993   1.028   2.078 -0.6411 -0.0036  0.5273
 1851TIP3    H1 5559   1.977   0.946   2.124  2.1355  0.4066  2.5253
 1851TIP3    H2 5560   1.981   1.096   2.144  0.5522  0.8837 -0.1127
 1852TIP3   OH2 5561   0.291   0.791   2.509 -0.5352 -0.1791  0.5432
 1852TIP3    H1 5562   0.264   0.778   2.600 -0.8970 -0.3408  0.4138
 1852TIP3    H2 5563   0.342   0.872   2.511 -1.0257  0.1314  0.7982
 1853TIP3   OH2 5564   2.846   4.027   4.210 -0.2832  0.4815 -0.3831
 1853TIP3    H1 5565   2.862   3.972   4.287 -0.0541  1.4576  0.2797
 1853TIP3    H2 5566   2.785   3.976   4.157  0.1619 -0.5466  0.0647
 1854TIP3   OH2 5567   3.097   1.092   2.143 -0.1769  0.1542  0.3475
 1854TIP3    H1 5568   3.179   1.049   2.169  0.0736  0.5065  0.1431
 1854TIP3    H2 5569   3.080   1.156   2.212 -0.0713  0.3544  0.1886
 1855TIP3   OH2 5570   0.388   4.628   1.377  0.0910  0.3396 -0.1703
 1855TIP3    H1 5571   0.426   4.669   1.299  0.6400 -1.3340 -0.8252
 1855TIP3    H2 5572   0.356   4.702   1.429 -0.8416  1.4913 -2.2397
 1856TIP3   OH2 5573   1.491   1.639   0.742 -0.1481 -0.3619  0.7497
 1856TIP3    H1 5574   1.493   1.683   0.657 -0.7392 -1.3023  0.2394
 1856TIP3    H2 5575   1.555   1.687   0.795  1.5348 -0.8519 -0.7580
 1857TIP3   OH2 5576   1.414   0.626   4.745  0.0908  0.0533  0.0399
 1857TIP3    H1 5577   1.473   0.635   4.670 -1.7954 -0.0707 -1.5348
 1857TIP3    H2 5578   1.451   0.554   4.796  0.2123 -1.4224 -2.0041
 1858TIP3   OH2 5579   5.010   1.192   1.996  0.0580 -0.0110  0.4401
 1858TIP3    H1 5580   4.924   1.210   2.035  0.0603 -1.2176  1.0759
 1858TIP3    H2 5581   4.992   1.177   1.904 -0.3252  0.3594  0.4504
 1859TIP3   OH2 5582   0.634   4.029   0.193 -0.4225  0.1818  0.8224
 1859TIP3    H1 5583   0.693   4.029   0.117  0.6259 -0.5464  1.6112
 1859TIP3    H2 5584   0.577   3.954   0.178  0.2520 -0.3953  1.0947
 1860TIP3   OH2 5585   2.702   0.420   0.537 -0.2746  0.3755 -1.1133
 1860TIP3    H1 5586   2.652   0.463   0.468 -0.7271  2.6155  0.5037
 1860TIP3    H2 5587   2.791   0.452   0.526 -0.4530  1.1562 -0.3800
 1861TIP3   OH2 5588   2.892   1.103   4.746  0.0348  0.2009  0.5581
 1861TIP3    H1 5589   2.878   1.170   4.813 -0.0090 -1.3448  2.1833
 1861TIP3    H2 5590   2.886   1.020   4.794  0.8016 -0.9556 -1.2374
 1862TIP3   OH2 5591   1.367   5.947   0.650  0.1879  0.3502 -0.1354
 1862TIP3    H1 5592   1.304   5.933   0.721 -0.8188  1.8857 -0.6788
 1862TIP3    H2 5593   1.314   5.971   0.575  1.4205  1.8366 -0.5830
 1863TIP3   OH2 5594   4.911   0.274   4.839 -0.0741 -0.2700  0.6758
 1863TIP3    H1 5595   4.869   0.236   4.916  0.1309 -0.4896  0.6815
 1863TIP3    H2 5596   4.955   0.200   4.797 -0.1711 -0.1489  0.3572
 1864TIP3   OH2 5597   4.863   2.270   4.354  0.3143 -0.2880 -0.2137
 1864TIP3    H1 5598   4.828   2.339   4.298  0.6627  0.0989  0.0406
 1864TIP3    H2 5599   4.932   2.230   4.302 -0.8089 -1.3849 -0.9151
 1865TIP3   OH2 5600   0.693   1.985   0.233 -0.2090  0.6191  0.1941
 1865TIP3    H1 5601   0.762   1.935   0.276  0.7966  2.2177  0.5274
 1865TIP3    H2 5602   0.654   2.038   0.303 -1.5154  0.0417 -0.0709
 1866TIP3   OH2 5603   2.862   5.002   2.731  0.2191 -0.0664  0.1967
 1866TIP3    H1 5604   2.794   4.989   2.665 -1.1523 -1.1063  1.7263
 1866TIP3    H2 5605   2.899   5.088   2.710 -1.8878  0.7580 -0.4335
 1867TIP3   OH2 5606   2.526   2.117   2.523 -0.0393  0.1988  0.2562
 1867TIP3    H1 5607   2.604   2.088   2.477 -0.7686 -0.9472 -0.3089
 1867TIP3    H2 5608   2.516   2.209   2.498  0.6019  0.0892 -0.4243
 1868TIP3   OH2 5609   0.992   4.192   0.333 -0.2731  0.7177  0.1493
 1868TIP3    H1 5610   1.072   4.239   0.356 -0.5974  2.0776 -1.2855
 1868TIP3    H2 5611   0.922   4.243   0.373 -0.5647  0.9286 -0.6097
 1869TIP3   OH2 5612   1.776   4.857   1.875  0.6623 -0.1342 -0.2415
 1869TIP3    H1 5613   1.805   4.825   1.961 -1.9990  0.3844  0.9725
 1869TIP3    H2 5614   1.682   4.869   1.886  0.4670  1.2674 -2.8605
 1870TIP3   OH2 5615   5.449   4.232   2.266  0.2842  0.2738  0.1158
 1870TIP3    H1 5616   5.542   4.251   2.257  0.5079 -1.1081 -0.9044
 1870TIP3    H2 5617   5.445   4.156   2.325 -0.3151  1.1296  1.2319
 1871TIP3   OH2 5618   4.535   5.324   2.646 -0.1448  0.2753  0.1615
 1871TIP3    H1 5619   4.530   5.384   2.721 -1.4534  0.5307 -0.1036
 1871TIP3    H2 5620   4.482   5.249   2.673 -0.7457  0.4351 -0.5633
 1872TIP3   OH2 5621   3.021   1.277   1.914 -0.2145 -0.1325 -0.3590
 1872TIP3    H1 5622   3.021   1.223   1.993  0.2145 -0.1645 -0.3746
 1872TIP3    H2 5623   3.080   1.349   1.936 -1.1519  0.5985 -0.1650
 1873TIP3   OH2 5624   3.428   1.706   1.500  0.3181 -0.0590 -0.1486
 1873TIP3    H1 5625   3.448   1.649   1.575 -1.1208 -1.8686 -1.0708
 1873TIP3    H2 5626   3.459   1.793   1.527  3.1950 -1.3418  1.0818
 1874TIP3   OH2 5627   2.363   1.446   3.932  0.3497 -0.4225  0.0095
 1874TIP3    H1 5628   2.426   1.383   3.966  1.8580  0.2434 -1.4142
 1874TIP3    H2 5629   2.342   1.414   3.844  1.7847  1.3896 -1.0764
 1875TIP3   OH2 5630   1.027   2.064   0.627  0.2583  0.4883 -0.6893
 1875TIP3    H1 5631   1.065   2.069   0.715 -0.9147  0.3038 -0.1407
 1875TIP3    H2 5632   1.055   1.979   0.594  0.6211  0.5124 -0.4517
 1876TIP3   OH2 5633   3.618   4.780   4.019 -0.0451  0.2958 -0.1190
 1876TIP3    H1 5634   3.673   4.817   4.088 -0.1985 -1.0649  0.7785
 1876TIP3    H2 5635   3.530   4.775   4.057 -0.2559  0.0543 -0.6158
 1877TIP3   OH2 5636   0.848   5.065   4.324  0.1679  0.0494  0.4236
 1877TIP3    H1 5637   0.776   5.045   4.263 -1.1290 -0.9326  2.1601
 1877TIP3    H2 5638   0.832   5.155   4.351 -0.7953 -0.3300  1.2097
 1878TIP3   OH2 5639   3.969   5.617   1.065 -0.1974 -0.1623 -0.1663
 1878TIP3    H1 5640   3.896   5.556   1.075  1.0531 -1.7701 -0.4941
 1878TIP3    H2 5641   3.945   5.671   0.990 -0.7032 -1.2184 -0.7963
 1879TIP3   OH2 5642   3.616   2.201   1.976 -0.8239  0.0384 -0.6845
 1879TIP3    H1 5643   3.628   2.293   1.954 -2.2627  0.1050 -1.2528
 1879TIP3    H2 5644   3.567   2.164   1.903 -0.0912 -1.2394 -0.5722
 1880TIP3   OH2 5645   1.181   3.061   3.509  0.0308 -0.5491  0.0274
 1880TIP3    H1 5646   1.214   3.137   3.556 -1.3838 -0.5584  1.0847
 1880TIP3    H2 5647   1.227   2.987   3.547  1.8316 -0.2447 -1.3829
 1881TIP3   OH2 5648   2.262   4.545   2.355  0.0441  0.3893 -0.2445
 1881TIP3    H1 5649   2.337   4.588   2.315 -0.1491  1.4262  0.4805
 1881TIP3    H2 5650   2.262   4.575   2.446 -1.7626  1.1503 -0.4473
 1882TIP3   OH2 5651   4.953   2.468   3.920 -0.3978  0.1217  0.1086
 1882TIP3    H1 5652   4.940   2.375   3.901 -0.2914  0.0580  0.3477
 1882TIP3    H2 5653   5.027   2.493   3.865  1.0037 -0.4721  1.6562
 1883TIP3   OH2 5654   0.880   5.267   3.063 -0.3186  0.5051 -0.2322
 1883TIP3    H1 5655   0.844   5.356   3.071  1.2678  1.1800 -0.3509
 1883TIP3    H2 5656   0.924   5.267   2.978  0.8889  0.0516  0.3857
 1884TIP3   OH2 5657   4.517   1.841   0.240  0.6515  0.0719  0.7101
 1884TIP3    H1 5658   4.482   1.782   0.307 -0.5026  0.9900  0.9613
 1884TIP3    H2 5659   4.601   1.870   0.274  0.0556  0.5645  1.8171
 1885TIP3   OH2 5660   4.780   0.333   4.572 -0.6623  0.3651 -0.4516
 1885TIP3    H1 5661   4.725   0.405   4.600  2.0774  2.6273 -0.4071
 1885TIP3    H2 5662   4.808   0.291   4.654 -0.3829  0.7649 -0.3423
 1886TIP3   OH2 5663   6.186   3.032   3.796  0.2848 -0.4801  0.5419
 1886TIP3    H1 5664   6.147   2.944   3.801  1.5331 -1.0090  1.5875
 1886TIP3    H2 5665   6.124   3.088   3.844 -0.7715 -0.6630 -0.5594
 1887TIP3   OH2 5666   4.176   5.356   4.823 -0.0346  0.2556  0.2031
 1887TIP3    H1 5667   4.268   5.345   4.848 -0.0301 -1.6175 -0.4408
 1887TIP3    H2 5668   4.127   5.341   4.905  0.2132  0.7981  0.4512
 1888TIP3   OH2 5669   6.288   1.808   0.762  0.3081  0.4340  0.0787
 1888TIP3    H1 5670   6.193   1.818   0.755  0.2394 -0.1812  0.0148
 1888TIP3    H2 5671   6.302   1.779   0.852  0.4732  0.8838  0.1999
 1889TIP3   OH2 5672   2.279   3.713   3.748 -0.1238  0.4761 -0.0330
 1889TIP3    H1 5673   2.186   3.695   3.763 -0.5522  1.0250 -1.7501
 1889TIP3    H2 5674   2.296   3.675   3.662  0.9922  1.2725 -0.1766
 1890TIP3   OH2 5675   3.489   5.502   4.780  0.0869 -0.4497  0.2430
 1890TIP3    H1 5676   3.525   5.557   4.710  0.4175 -0.9563  0.0092
 1890TIP3    H2 5677   3.562   5.446   4.807 -0.5568 -1.6147 -0.3638
 1891TIP3   OH2 5678   1.636  -0.029   0.225  0.4322  0.0251  0.0235
 1891TIP3    H1 5679   1.729  -0.031   0.245  0.9387 -2.0599 -2.1332
 1891TIP3    H2 5680   1.614   0.064   0.223  2.6060  0.5956 -0.0347
 1892TIP3   OH2 5681   6.284   5.847   2.006 -0.8766  0.4117  0.3650
 1892TIP3    H1 5682   6.284   5.756   1.973  0.9529  0.6414 -0.3952
 1892TIP3    H2 5683   6.196   5.878   1.988 -1.2145 -0.8834 -0.3877
 1893TIP3   OH2 5684   5.868   0.152   1.241  0.2391  0.0170  0.7233
 1893TIP3    H1 5685   5.956   0.115   1.232  0.8695  0.5571  3.7690
 1893TIP3    H2 5686   5.809   0.076   1.237  1.1459 -0.8066  2.1935
 1894TIP3   OH2 5687   2.168   5.014   2.987 -0.2303 -0.5333  0.8951
 1894TIP3    H1 5688   2.116   5.008   3.068  0.6907  0.7364  1.6115
 1894TIP3    H2 5689   2.173   5.108   2.969  1.3191 -0.6683  0.5131
 1895TIP3   OH2 5690   1.380   4.403   1.112  0.0477 -0.0074 -0.4309
 1895TIP3    H1 5691   1.310   4.424   1.175 -2.3596 -1.1465 -2.5167
 1895TIP3    H2 5692   1.386   4.308   1.114 -0.0890 -0.0664 -1.8900
 1896TIP3   OH2 5693   0.735   1.239   0.801  0.6992  0.2514  0.0205
 1896TIP3    H1 5694   0.788   1.161   0.787 -0.4848 -0.5098 -0.4810
 1896TIP3    H2 5695   0.670   1.236   0.730 -1.5173 -0.2032  1.9355
 1897TIP3   OH2 5696   4.689   1.982   0.758  0.6172  1.0148 -0.1515
 1897TIP3    H1 5697   4.614   1.949   0.808  0.8932  0.0818 -0.3361
 1897TIP3    H2 5698   4.760   1.986   0.822  1.0792 -0.5695 -0.5315
 1898TIP3   OH2 5699   1.190   3.499   1.577  0.7383  0.0375 -0.1397
 1898TIP3    H1 5700   1.172   3.535   1.663 -0.7285  0.6764 -0.6772
 1898TIP3    H2 5701   1.264   3.550   1.544 -1.1489  2.5774 -0.7975
 1899TIP3   OH2 5702   2.305   0.720   1.664  0.0960  0.0885  0.9736
 1899TIP3    H1 5703   2.368   0.770   1.611 -2.2160  1.8653 -0.2955
 1899TIP3    H2 5704   2.290   0.640   1.613 -0.6748  0.9185 -0.1700
 1900TIP3   OH2 5705   4.989   0.673   2.159 -0.4300 -0.0377 -0.2751
 1900TIP3    H1 5706   4.958   0.583   2.156 -3.1883  0.8345 -0.9392
 1900TIP3    H2 5707   4.935   0.714   2.227 -1.4090  1.7874 -2.0432
 1901TIP3   OH2 5708   1.710   0.477   2.600 -0.2496  0.0732 -0.0116
 1901TIP3    H1 5709   1.668   0.553   2.560 -0.2170  0.5682  0.8508
 1901TIP3    H2 5710   1.638   0.417   2.619 -0.2546 -0.1883 -0.8597
 1902TIP3   OH2 5711   0.812   2.503   0.035  0.4061 -0.3310 -0.4355
 1902TIP3    H1 5712   0.799   2.537   0.124 -0.0361  0.7611 -0.9007
 1902TIP3    H2 5713   0.877   2.561  -0.004  0.1668 -0.4562 -1.0275
 1903TIP3   OH2 5714   2.311   0.805   3.781  0.5261 -0.0833  0.1005
 1903TIP3    H1 5715   2.369   0.858   3.835  0.8088 -1.8526  1.6274
 1903TIP3    H2 5716   2.296   0.858   3.703 -0.5481  2.9926  2.1895
 1904TIP3   OH2 5717   2.097  -0.019   4.402  0.3050 -0.9732  0.0832
 1904TIP3    H1 5718   2.006  -0.042   4.380  0.7780 -1.1039 -1.9708
 1904TIP3    H2 5719   2.091   0.071   4.436 -0.3666  0.1352 -2.6651
 1905TIP3   OH2 5720   3.810   5.411   1.297  0.3462  0.0460  0.3532
 1905TIP3    H1 5721   3.891   5.383   1.254 -0.0032 -0.3838 -0.0360
 1905TIP3    H2 5722   3.799   5.351   1.371 -0.0604 -0.4594 -0.1009
 1906TIP3   OH2 5723   2.516   1.445   1.722 -0.0664  0.1627  0.4676
 1906TIP3    H1 5724   2.559   1.525   1.755 -0.9847  0.7458  0.2841
 1906TIP3    H2 5725   2.489   1.398   1.801 -0.2984  0.4730  0.5773
 1907TIP3   OH2 5726   3.419   0.380   1.007  0.0492  0.2191 -0.7236
 1907TIP3    H1 5727   3.411   0.306   0.948 -0.8549  0.1216 -0.5054
 1907TIP3    H2 5728   3.477   0.350   1.076 -0.4353 -0.3506 -0.5527
 1908TIP3   OH2 5729   2.651   5.645   0.833 -0.0914 -0.0455  0.8810
 1908TIP3    H1 5730   2.616   5.731   0.812 -0.7230 -0.5771 -0.3389
 1908TIP3    H2 5731   2.722   5.631   0.771 -0.4108 -0.6612  0.6468
 1909TIP3   OH2 5732   2.744   5.502   3.144 -0.2106  0.3834  0.2547
 1909TIP3    H1 5733   2.679   5.537   3.083  1.3881  0.0330 -1.7532
 1909TIP3    H2 5734   2.694   5.445   3.202 -1.6673 -0.1076 -1.4068
 1910TIP3   OH2 5735   1.832   3.658   0.276 -0.1932 -0.0828  0.4834
 1910TIP3    H1 5736   1.854   3.749   0.256  2.3432 -0.9279 -1.0161
 1910TIP3    H2 5737   1.835   3.613   0.192  1.2540 -2.0108  1.4872
 1911TIP3   OH2 5738   1.550   5.205   0.911  0.6693  0.0132 -0.0192
 1911TIP3    H1 5739   1.525   5.291   0.877  0.1088 -0.0283  0.2674
 1911TIP3    H2 5740   1.598   5.223   0.991  0.0850  0.0458  0.3266
 1912TIP3   OH2 5741   1.813   3.420   1.484 -0.3239 -0.1881  0.0952
 1912TIP3    H1 5742   1.769   3.503   1.500 -0.0143 -0.1395  0.7209
 1912TIP3    H2 5743   1.903   3.444   1.461 -0.6691 -0.2673 -1.4937
 1913TIP3   OH2 5744   0.314   4.357   4.717 -0.6369  0.2902 -0.2252
 1913TIP3    H1 5745   0.299   4.443   4.758 -0.5001  0.2164 -0.0229
 1913TIP3    H2 5746   0.264   4.362   4.635  0.5183  1.0863 -0.9069
 1914TIP3   OH2 5747   3.595   2.960   1.530  0.2375 -0.6339  0.2154
 1914TIP3    H1 5748   3.523   3.021   1.512  0.6130  0.2680  1.6072
 1914TIP3    H2 5749   3.598   2.902   1.454 -0.3531  0.8790 -0.9936
 1915TIP3   OH2 5750   1.900   1.926   1.037 -0.5080  0.4645 -0.1493
 1915TIP3    H1 5751   1.867   2.002   0.989  0.8012  1.5451  0.5854
 1915TIP3    H2 5752   1.905   1.956   1.128  1.3848 -0.0029 -0.0674
 1916TIP3   OH2 5753   3.879   3.273   1.924 -0.2258 -0.0266 -0.4883
 1916TIP3    H1 5754   3.809   3.220   1.886 -0.4114 -0.0607 -0.1076
 1916TIP3    H2 5755   3.871   3.258   2.019  1.7019 -1.8107 -0.5362
 1917TIP3   OH2 5756   2.155   3.234   3.178  0.6003  0.6335 -0.1501
 1917TIP3    H1 5757   2.235   3.234   3.231  0.4685  0.6895  0.0498
 1917TIP3    H2 5758   2.168   3.307   3.117  1.5908 -0.6153 -1.4867
 1918TIP3   OH2 5759   5.191   0.814   0.217  0.1227 -0.5040 -0.3520
 1918TIP3    H1 5760   5.258   0.755   0.182  0.8195  0.2615 -0.3502
 1918TIP3    H2 5761   5.116   0.802   0.159 -0.3735 -2.6361  0.6490
 1919TIP3   OH2 5762   2.128   2.853   2.210 -0.6356 -0.0165 -0.2301
 1919TIP3    H1 5763   2.216   2.849   2.247  0.0020 -1.1588 -1.7335
 1919TIP3    H2 5764   2.089   2.768   2.232 -1.6943  0.7955  1.1328
 1920TIP3   OH2 5765   3.522   4.692   4.432 -0.6565  0.2657 -0.0522
 1920TIP3    H1 5766   3.470   4.710   4.511 -1.2261  0.8721 -0.5601
 1920TIP3    H2 5767   3.461   4.704   4.360  0.3434  1.7264 -0.7108
 1921TIP3   OH2 5768   4.045   0.937   2.995  0.8332  0.3275  0.0540
 1921TIP3    H1 5769   4.100   0.906   2.922  1.2641  0.9009  0.1290
 1921TIP3    H2 5770   4.065   0.877   3.067 -0.5538 -1.0572 -0.6446
 1922TIP3   OH2 5771   1.236   0.292   0.865  0.2300  0.7228 -0.6326
 1922TIP3    H1 5772   1.239   0.327   0.954  1.0525 -1.0989  0.1099
 1922TIP3    H2 5773   1.143   0.271   0.850  0.4067 -1.5916  0.9626
 1923TIP3   OH2 5774   5.932   0.787   2.142 -0.3649  0.3026 -0.3493
 1923TIP3    H1 5775   5.883   0.809   2.222  0.8226 -1.1396  0.8388
 1923TIP3    H2 5776   6.007   0.847   2.144 -0.4948  0.4721 -0.5513
 1924TIP3   OH2 5777   5.230   1.162   4.745 -0.3251 -0.1140 -0.1974
 1924TIP3    H1 5778   5.270   1.222   4.808  1.4613 -2.5834  1.2130
 1924TIP3    H2 5779   5.139   1.155   4.774  0.0431  0.1037  1.0738
 1925TIP3   OH2 5780   5.533   5.007   0.014 -0.0983 -0.2687 -0.2279
 1925TIP3    H1 5781   5.574   5.049  -0.061 -0.4378 -0.9838 -0.8371
 1925TIP3    H2 5782   5.598   5.010   0.083  0.0565  0.8010 -0.4129
 1926TIP3   OH2 5783   3.138   5.985   4.822  0.0198  0.4571  0.4635
 1926TIP3    H1 5784   3.214   5.946   4.778 -2.3226 -1.9681 -1.8056
 1926TIP3    H2 5785   3.153   5.969   4.915  2.1166 -0.1713  0.0712
 1927TIP3   OH2 5786   4.729   5.875   4.572  0.0472 -0.0407 -0.2718
 1927TIP3    H1 5787   4.646   5.915   4.544 -0.2232 -1.3393 -1.4270
 1927TIP3    H2 5788   4.741   5.907   4.662 -0.9519  1.3194 -0.5744
 1928TIP3   OH2 5789   5.081   3.559   3.429 -0.5485 -0.4105  0.2473
 1928TIP3    H1 5790   5.000   3.510   3.445  0.5379 -2.6501 -0.6194
 1928TIP3    H2 5791   5.143   3.525   3.493 -0.3694  1.6243  1.2201
 1929TIP3   OH2 5792   6.188   4.224   0.069 -0.2311  0.0446  0.4453
 1929TIP3    H1 5793   6.138   4.165   0.012  0.3435  0.1602 -0.1927
 1929TIP3    H2 5794   6.224   4.166   0.136 -0.5571 -0.1611  0.4464
 1930TIP3   OH2 5795   3.098   3.554   1.861  0.2446  0.3340  0.3092
 1930TIP3    H1 5796   3.098   3.511   1.947 -1.5374 -0.6376 -0.1255
 1930TIP3    H2 5797   3.056   3.639   1.877 -1.9919 -0.6545  0.1119
 1931TIP3   OH2 5798   2.663   3.840   3.158  0.4658  0.4040 -0.2168
 1931TIP3    H1 5799   2.672   3.748   3.181 -0.0624 -0.0875 -1.8899
 1931TIP3    H2 5800   2.649   3.884   3.242  2.0227 -0.8415  0.7487
 1932TIP3   OH2 5801   0.894   2.890   0.263  0.2607  0.3926 -0.1128
 1932TIP3    H1 5802   0.916   2.806   0.304 -0.9504  0.1044 -0.0244
 1932TIP3    H2 5803   0.928   2.883   0.174  0.8644  0.1224  0.1298
 1933TIP3   OH2 5804   4.126   0.009   2.312 -0.2197 -0.3406 -0.1502
 1933TIP3    H1 5805   4.192   0.060   2.265  0.7689 -0.3017  1.2187
 1933TIP3    H2 5806   4.068   0.075   2.351 -0.3741 -0.3332 -0.3956
 1934TIP3   OH2 5807   0.040   4.846   1.921  0.7785 -0.4223 -0.2315
 1934TIP3    H1 5808  -0.036   4.804   1.883  1.3508 -0.7652 -1.0210
 1934TIP3    H2 5809   0.050   4.806   2.007 -0.3803  0.1849  0.2052
 1935TIP3   OH2 5810   2.535   4.048   2.399  0.3486 -0.3428 -0.2416
 1935TIP3    H1 5811   2.628   4.023   2.407  0.1858 -0.7111  0.6621
 1935TIP3    H2 5812   2.495   3.974   2.353  0.4153 -0.3992 -0.2095
 1936TIP3   OH2 5813   3.394   5.214   1.793  0.0307 -0.5936  0.5832
 1936TIP3    H1 5814   3.461   5.170   1.845  1.0753 -0.0054 -0.2303
 1936TIP3    H2 5815   3.399   5.172   1.707 -0.2084 -0.1187  0.3379
 1937TIP3   OH2 5816   5.927   3.547   2.087  0.0148  0.6151  0.5794
 1937TIP3    H1 5817   5.947   3.490   2.161  0.0044 -0.9950 -0.6243
 1937TIP3    H2 5818   5.849   3.595   2.115 -1.6845 -1.9883  0.6142
 1938TIP3   OH2 5819   6.117   0.491   4.139 -0.2862  0.5018  0.3349
 1938TIP3    H1 5820   6.041   0.451   4.098  0.6934  0.3965 -1.4949
 1938TIP3    H2 5821   6.165   0.418   4.179 -0.4496  0.3808  0.3094
 1939TIP3   OH2 5822   2.339   2.227   4.223 -0.3776  0.0754  0.1538
 1939TIP3    H1 5823   2.288   2.248   4.301 -1.2863  1.2736 -0.7367
 1939TIP3    H2 5824   2.283   2.251   4.150  0.5620 -0.7679 -0.8869
 1940TIP3   OH2 5825   3.151   5.445   4.466 -0.4055  0.0798  0.5673
 1940TIP3    H1 5826   3.246   5.435   4.458 -0.5108 -1.0981  0.6277
 1940TIP3    H2 5827   3.139   5.535   4.495  0.7579 -0.0983  1.6826
 1941TIP3   OH2 5828   2.262   1.205   3.797 -0.2625 -0.3452 -0.2481
 1941TIP3    H1 5829   2.337   1.191   3.855 -0.6275  0.4943  0.4549
 1941TIP3    H2 5830   2.300   1.208   3.709  0.8417  2.1024  0.2338
 1942TIP3   OH2 5831   2.333   2.262   2.654 -0.2489  0.3090  0.2702
 1942TIP3    H1 5832   2.403   2.326   2.660 -0.8976  1.4048 -2.2038
 1942TIP3    H2 5833   2.375   2.183   2.618  0.4505 -0.5780  2.8381
 1943TIP3   OH2 5834   4.033   5.730   4.413 -0.4629  0.0825 -0.4426
 1943TIP3    H1 5835   4.036   5.657   4.476 -0.5060  0.1948 -0.3096
 1943TIP3    H2 5836   4.030   5.687   4.327 -0.8965 -0.0751 -0.3517
 1944TIP3   OH2 5837   5.725   3.744   2.776  0.1773  0.0439  0.5287
 1944TIP3    H1 5838   5.673   3.818   2.809  1.9777  1.2794  0.7524
 1944TIP3    H2 5839   5.746   3.692   2.853 -0.2381 -0.1395  0.5191
 1945TIP3   OH2 5840   6.044   2.687   0.285  0.3738  0.3767  0.2125
 1945TIP3    H1 5841   6.060   2.608   0.233  3.6739  2.0897 -1.7615
 1945TIP3    H2 5842   6.077   2.666   0.372 -0.9844 -1.1288  0.3874
 1946TIP3   OH2 5843   1.479   2.969   1.063  0.7918 -0.2198 -0.4217
 1946TIP3    H1 5844   1.531   2.968   0.983  1.0550  0.9858 -0.2839
 1946TIP3    H2 5845   1.435   2.884   1.064  1.4801 -0.6091 -1.3777
 1947TIP3   OH2 5846   1.991   0.189   1.773  0.6786  0.1337 -0.4947
 1947TIP3    H1 5847   1.898   0.213   1.770  0.4688 -0.6189 -0.3682
 1947TIP3    H2 5848   2.034   0.263   1.816 -0.1275 -0.2564  1.0615
 1948TIP3   OH2 5849   2.399   3.805   1.129  0.5818  0.0816 -0.0389
 1948TIP3    H1 5850   2.335   3.872   1.150 -1.0747 -1.1909 -0.8196
 1948TIP3    H2 5851   2.384   3.785   1.037  0.8095 -1.5446  0.2396
 1949TIP3   OH2 5852   1.808   4.588   1.998  0.0466  0.6708  0.4125
 1949TIP3    H1 5853   1.740   4.587   1.931  0.0063  0.4871  0.4570
 1949TIP3    H2 5854   1.832   4.496   2.010 -1.7201  0.3891  2.4635
 1950TIP3   OH2 5855   0.151   5.223   0.551  0.1111  0.1945 -0.4202
 1950TIP3    H1 5856   0.231   5.213   0.498 -0.2107 -0.7010 -0.7481
 1950TIP3    H2 5857   0.183   5.258   0.634  0.8426 -0.0794 -0.5720
 1951TIP3   OH2 5858   3.225   0.752   1.414  0.1005 -0.1561  0.3844
 1951TIP3    H1 5859   3.298   0.698   1.384 -0.5027 -0.9763  0.3556
 1951TIP3    H2 5860   3.164   0.690   1.453 -0.4715  0.5494  0.6312
 1952TIP3   OH2 5861   3.549   4.261   0.004 -0.1059  0.2269 -0.1455
 1952TIP3    H1 5862   3.459   4.285   0.026 -0.1193 -0.5208  0.6507
 1952TIP3    H2 5863   3.599   4.341   0.019 -0.6416  0.6845 -0.7060
 1953TIP3   OH2 5864   0.683   3.827   1.344 -0.0712  0.1609 -0.0825
 1953TIP3    H1 5865   0.609   3.839   1.403 -0.3455  0.0977 -0.4061
 1953TIP3    H2 5866   0.651   3.766   1.277  0.1948  0.3237 -0.3624
 1954TIP3   OH2 5867   3.804   3.054   4.676 -0.5500  0.3924  0.3642
 1954TIP3    H1 5868   3.820   2.960   4.673 -1.0709  0.3308 -1.2187
 1954TIP3    H2 5869   3.880   3.093   4.631 -0.6325  0.6936  0.4821
 1955TIP3   OH2 5870   0.714   1.385   4.250 -0.8378  0.0310 -0.1764
 1955TIP3    H1 5871   0.715   1.428   4.165 -0.7103 -0.5376 -0.4673
 1955TIP3    H2 5872   0.689   1.454   4.312 -2.8364  0.0210 -0.9000
 1956TIP3   OH2 5873   5.186   1.388   2.087 -0.4631 -0.2524 -0.4546
 1956TIP3    H1 5874   5.154   1.379   2.177 -2.8594  0.7215 -1.1153
 1956TIP3    H2 5875   5.121   1.342   2.034  1.3620 -1.5678 -1.6897
 1957TIP3   OH2 5876   5.791   2.248   4.709  0.3707  0.0011 -0.0262
 1957TIP3    H1 5877   5.715   2.189   4.707  0.2784  0.0843  0.8311
 1957TIP3    H2 5878   5.773   2.312   4.640  0.0033 -0.3999 -0.3106
 1958TIP3   OH2 5879   4.846   5.079   3.420 -0.4318  0.3681  0.0927
 1958TIP3    H1 5880   4.810   5.039   3.341  1.1655 -0.7532 -0.1029
 1958TIP3    H2 5881   4.785   5.150   3.440 -1.1234  0.3920 -1.8732
 1959TIP3   OH2 5882   2.736   5.419   4.876  0.0644 -0.0104  0.1956
 1959TIP3    H1 5883   2.831   5.408   4.866 -0.3033 -1.5727 -2.4843
 1959TIP3    H2 5884   2.704   5.428   4.787 -2.3270  0.8221  1.0662
 1960TIP3   OH2 5885   0.410   3.406   3.715 -0.3069 -0.4363  0.1429
 1960TIP3    H1 5886   0.503   3.387   3.706 -0.6133 -1.6204 -0.7605
 1960TIP3    H2 5887   0.398   3.489   3.670  0.4599  0.2089  1.0860
 1961TIP3   OH2 5888   5.216   2.034   2.646  0.1623  0.3688 -0.1046
 1961TIP3    H1 5889   5.252   2.013   2.560 -0.4106  0.5166 -0.3824
 1961TIP3    H2 5890   5.204   1.949   2.689  0.2713  0.2846 -0.2432
 1962TIP3   OH2 5891   4.000   4.931   5.027  0.8290  0.4411 -0.4199
 1962TIP3    H1 5892   3.912   4.965   5.045  0.3682 -0.5669 -0.7069
 1962TIP3    H2 5893   4.010   4.941   4.932 -0.1771 -2.1239 -0.8751
 1963TIP3   OH2 5894   2.414   3.956   1.469  0.2985  0.8424  0.1852
 1963TIP3    H1 5895   2.472   4.011   1.417 -0.0996 -0.2450 -1.4901
 1963TIP3    H2 5896   2.344   3.931   1.408 -0.1031 -0.6165  1.2008
 1964TIP3   OH2 5897   1.646   4.052   0.291 -0.3782  1.0032  0.7483
 1964TIP3    H1 5898   1.613   4.137   0.322 -1.6568  0.6500  0.3843
 1964TIP3    H2 5899   1.650   3.998   0.370 -1.7912  0.7047  0.6466
 1965TIP3   OH2 5900   0.618   1.923   2.752 -0.0500  0.5087  0.0024
 1965TIP3    H1 5901   0.608   1.931   2.657 -1.1665 -0.0624  0.0491
 1965TIP3    H2 5902   0.712   1.929   2.767  0.1740  0.2098 -1.1797
 1966TIP3   OH2 5903   0.881   0.467   0.834 -0.4746  0.0935 -0.2100
 1966TIP3    H1 5904   0.796   0.430   0.811 -1.7489  2.2115  0.7834
 1966TIP3    H2 5905   0.940   0.438   0.764 -1.6654 -2.4711 -0.2660
 1967TIP3   OH2 5906   3.602   0.103   4.994  0.1342 -0.2003 -0.3501
 1967TIP3    H1 5907   3.573   0.103   5.085 -0.2008  1.3196 -0.4354
 1967TIP3    H2 5908   3.525   0.077   4.944 -0.2498  0.8746 -0.3380
 1968TIP3   OH2 5909   5.286   4.557   1.667  0.2724  0.0153 -0.3981
 1968TIP3    H1 5910   5.326   4.495   1.729  2.1826  1.0995 -0.4520
 1968TIP3    H2 5911   5.285   4.640   1.714 -0.8726  0.2795 -0.8576
 1969TIP3   OH2 5912  -0.016   0.698   2.092 -0.0940  0.1756  0.2141
 1969TIP3    H1 5913   0.045   0.735   2.156  0.8815 -1.1213  0.0803
 1969TIP3    H2 5914   0.019   0.610   2.074 -1.6669 -0.3571 -0.3517
 1970TIP3   OH2 5915   4.440   0.715   0.867  0.4615 -0.5284  0.2019
 1970TIP3    H1 5916   4.354   0.722   0.909  0.1065 -0.3399 -0.5433
 1970TIP3    H2 5917   4.449   0.622   0.846  0.0228 -0.3970 -0.5785
 1971TIP3   OH2 5918   3.184   4.627   1.458 -0.0642  0.4163  0.0799
 1971TIP3    H1 5919   3.198   4.538   1.427  0.9640  0.4842  0.3168
 1971TIP3    H2 5920   3.114   4.662   1.403  1.2356  0.3055 -1.7161
 1972TIP3   OH2 5921   6.067   3.170   0.687 -0.4480 -0.4261  0.2683
 1972TIP3    H1 5922   6.110   3.094   0.648  0.3063 -0.6767  1.5140
 1972TIP3    H2 5923   6.139   3.232   0.703 -1.1248  0.8492 -1.3071
 1973TIP3   OH2 5924   2.933   3.201   4.241  0.1844  0.4375 -0.1178
 1973TIP3    H1 5925   2.918   3.163   4.327  1.3204  0.0201 -0.0934
 1973TIP3    H2 5926   2.848   3.196   4.198  0.0102 -0.9825  0.3434
 1974TIP3   OH2 5927   2.705   0.171   1.791 -0.5491 -0.1753  0.1208
 1974TIP3    H1 5928   2.650   0.189   1.714  0.5323  1.8741 -0.2558
 1974TIP3    H2 5929   2.644   0.172   1.865 -1.4982 -1.4342 -0.6032
 1975TIP3   OH2 5930   3.921   1.335   4.901  0.0045 -0.0080  0.1670
 1975TIP3    H1 5931   3.982   1.265   4.925 -0.6317 -1.1075 -1.2182
 1975TIP3    H2 5932   3.931   1.344   4.807  0.9473  2.6971  0.4462
 1976TIP3   OH2 5933   5.974   1.752   1.172  0.8013  0.3795 -0.1026
 1976TIP3    H1 5934   5.933   1.754   1.086  1.1121  1.0156 -0.2441
 1976TIP3    H2 5935   5.920   1.811   1.225 -0.6020 -1.5386  0.7191
 1977TIP3   OH2 5936   3.811   5.962   2.907 -0.3282 -0.6168  0.1899
 1977TIP3    H1 5937   3.716   5.954   2.893 -0.4135 -0.8900  0.8740
 1977TIP3    H2 5938   3.847   5.879   2.876 -0.4328 -0.9165  0.8432
 1978TIP3   OH2 5939   1.270   5.214   3.834  0.1692  0.4215 -0.0840
 1978TIP3    H1 5940   1.177   5.215   3.813  0.1592 -0.3965 -0.1151
 1978TIP3    H2 5941   1.274   5.204   3.929  0.2263  2.3579  0.1455
 1979TIP3   OH2 5942   5.182   2.987   3.122 -0.3274 -0.4669  0.1334
 1979TIP3    H1 5943   5.091   3.011   3.104 -0.6019  0.6046  2.5078
 1979TIP3    H2 5944   5.233   3.051   3.073 -0.8121 -1.1213 -1.2794
 1980TIP3   OH2 5945   4.591   4.237   4.009  0.0868  0.9101  0.0986
 1980TIP3    H1 5946   4.501   4.270   4.008 -0.6729 -1.0438 -0.2633
 1980TIP3    H2 5947   4.589   4.162   3.950  1.8401  0.4978  0.5259
 1981TIP3   OH2 5948   1.743   3.394   2.083  0.2913 -0.3804  0.5248
 1981TIP3    H1 5949   1.707   3.324   2.137  0.0887 -0.6740  0.0146
 1981TIP3    H2 5950   1.741   3.360   1.994  1.0493 -0.0727  0.3812
 1982TIP3   OH2 5951   1.241   5.426   2.494  0.5547 -0.2166  0.6583
 1982TIP3    H1 5952   1.210   5.473   2.416  2.2094 -0.6861 -0.3427
 1982TIP3    H2 5953   1.173   5.361   2.512  1.0019 -1.4461 -1.6482
 1983TIP3   OH2 5954   4.769   3.531   0.743  0.0626 -0.2100  0.3153
 1983TIP3    H1 5955   4.741   3.549   0.832 -1.2353 -1.1136  0.1195
 1983TIP3    H2 5956   4.728   3.599   0.690 -2.2996 -1.7991 -0.0322
 1984TIP3   OH2 5957   3.826   0.920   2.389 -0.1252  0.3330 -0.1202
 1984TIP3    H1 5958   3.780   0.968   2.458  1.1277  1.5533 -0.0710
 1984TIP3    H2 5959   3.864   0.844   2.433 -0.6058  0.2790  0.2067
 1985TIP3   OH2 5960   2.818   4.994   4.193  0.9283 -0.2014 -0.0263
 1985TIP3    H1 5961   2.748   4.932   4.215  0.3168  1.2001  2.4673
 1985TIP3    H2 5962   2.772   5.077   4.180  1.7629 -0.1050 -2.8408
 1986TIP3   OH2 5963   5.318   4.895   0.606  0.5162  0.6168  0.0131
 1986TIP3    H1 5964   5.383   4.828   0.627 -0.2255 -0.6500 -1.5294
 1986TIP3    H2 5965   5.364   4.956   0.549  0.7652  0.5440  0.1358
 1987TIP3   OH2 5966   4.305   4.333   3.496 -0.5270 -0.3292  0.5493
 1987TIP3    H1 5967   4.255   4.414   3.488 -1.9108 -1.2395 -0.4966
 1987TIP3    H2 5968   4.238   4.264   3.502  0.6100 -1.4763  0.5076
 1988TIP3   OH2 5969   5.682   4.696   3.297  0.5886  0.3220  0.1749
 1988TIP3    H1 5970   5.658   4.730   3.211  1.3297 -1.4422 -0.7728
 1988TIP3    H2 5971   5.723   4.611   3.279  0.7382 -0.1008  2.2718
 1989TIP3   OH2 5972   5.498   3.781   0.824 -0.3070 -0.0569  0.2247
 1989TIP3    H1 5973   5.488   3.855   0.884 -0.9889  1.7348 -1.9617
 1989TIP3    H2 5974   5.441   3.713   0.860  0.2186  0.5059  2.2137
 1990TIP3   OH2 5975   1.295   0.831   1.353  0.4553 -0.0768  0.0001
 1990TIP3    H1 5976   1.306   0.910   1.406 -0.1585  0.3471 -0.4803
 1990TIP3    H2 5977   1.339   0.851   1.271  2.4521 -1.1828  0.7370
 1991TIP3   OH2 5978   4.072   2.578   0.049 -0.1006 -0.3409 -0.2419
 1991TIP3    H1 5979   4.019   2.639   0.100  0.9190 -0.9560  1.6815
 1991TIP3    H2 5980   4.148   2.560   0.105  1.8902  0.1033 -2.6339
 1992TIP3   OH2 5981   6.068   3.039   1.365  0.0429  0.1141 -0.1854
 1992TIP3    H1 5982   6.115   2.994   1.435 -0.3386  0.4969  0.3195
 1992TIP3    H2 5983   6.113   3.124   1.356  1.1468 -0.5700 -1.5450
 1993TIP3   OH2 5984   4.363   5.646   0.199  0.2757 -0.0044 -0.5016
 1993TIP3    H1 5985   4.324   5.597   0.272  1.1980  0.1001  0.0797
 1993TIP3    H2 5986   4.315   5.729   0.197 -1.1837 -0.8144 -1.3781
 1994TIP3   OH2 5987   4.954   2.666   1.551 -1.0953 -0.1439 -0.0796
 1994TIP3    H1 5988   5.012   2.663   1.627 -2.1040  0.8200  0.7631
 1994TIP3    H2 5989   4.948   2.575   1.521 -1.1099 -0.6327  1.3360
 1995TIP3   OH2 5990   2.599   4.736   3.000  0.2413 -0.0223 -0.0148
 1995TIP3    H1 5991   2.678   4.685   3.018  0.2411 -0.6400 -1.5870
 1995TIP3    H2 5992   2.544   4.723   3.077  1.4301 -0.0353  0.8622
 1996TIP3   OH2 5993   4.949   2.472   1.945 -0.0094 -0.4687 -0.1033
 1996TIP3    H1 5994   4.950   2.558   1.988  0.6289 -0.2579 -0.5346
 1996TIP3    H2 5995   4.959   2.410   2.017  0.1700 -0.1532  0.1483
 1997TIP3   OH2 5996   1.473   5.073   4.034 -0.4333 -0.1156 -0.1749
 1997TIP3    H1 5997   1.515   5.134   4.095 -0.5735 -0.2550  0.0612
 1997TIP3    H2 5998   1.539   5.005   4.020 -0.1826  0.2224 -0.6360
 1998TIP3   OH2 5999   6.104   1.216   2.782  0.1076 -0.5377  0.8447
 1998TIP3    H1 6000   6.024   1.267   2.771  0.8060  0.5326  0.5141
 1998TIP3    H2 6001   6.075   1.125   2.786 -1.3528 -0.0280  3.4410
 1999TIP3   OH2 6002   2.417   0.584   2.243 -0.0268 -0.3852 -0.2679
 1999TIP3    H1 6003   2.467   0.587   2.161 -0.5052  0.3860 -0.5440
 1999TIP3    H2 6004   2.358   0.509   2.233 -1.9738  1.2547 -1.7836
 2000TIP3   OH2 6005   4.471   4.098   3.264  0.3202 -0.2830  0.0250
 2000TIP3    H1 6006   4.459   4.031   3.332 -1.3179 -0.0995 -0.0612
 2000TIP3    H2 6007   4.552   4.072   3.221 -1.6609 -4.0289 -1.9700
 2001TIP3   OH2 6008   0.522   4.554   2.938  0.2410 -0.4000 -0.2821
 2001TIP3    H1 6009   0.480   4.468   2.928 -0.2024 -0.3009  0.6081
 2001TIP3    H2 6010   0.531   4.565   3.033  0.3481  0.5095 -0.3916
 2002TIP3   OH2 6011   0.633   4.100   3.177  0.3151  0.4664  0.1231
 2002TIP3    H1 6012   0.597   4.128   3.261  1.2098 -0.1587  0.7415
 2002TIP3    H2 6013   0.629   4.178   3.122  1.5746  1.4963  1.3989
 2003TIP3   OH2 6014   1.404   4.946   4.949 -0.2069 -0.2038  0.2940
 2003TIP3    H1 6015   1.335   5.011   4.936  1.9846  2.0451 -1.0398
 2003TIP3    H2 6016   1.440   4.967   5.036  0.9985  0.9653 -0.4504
 2004TIP3   OH2 6017   4.897   5.452   1.219 -0.2473  0.2191  0.2143
 2004TIP3    H1 6018   4.886   5.382   1.155 -0.4804  0.7750 -0.3600
 2004TIP3    H2 6019   4.991   5.451   1.240 -0.1013  0.2675 -0.4107
 2005TIP3   OH2 6020   2.860   5.406   0.196 -0.0315 -0.1199 -0.2607
 2005TIP3    H1 6021   2.792   5.435   0.256 -0.2657 -0.5800 -0.2974
 2005TIP3    H2 6022   2.814   5.351   0.132  0.5234 -1.2517  0.2895
 2006TIP3   OH2 6023   3.245   4.088   4.660  0.0674 -0.7886 -0.3616
 2006TIP3    H1 6024   3.325   4.130   4.690 -0.2236  0.1275 -0.8563
 2006TIP3    H2 6025   3.238   4.009   4.714  0.8188 -0.4089  0.3043
 2007TIP3   OH2 6026   2.835   2.527   2.491 -0.3887  0.5682  0.3802
 2007TIP3    H1 6027   2.901   2.495   2.430  1.0553  1.3229  1.4978
 2007TIP3    H2 6028   2.804   2.609   2.453  0.1087  0.7603  0.3872
 2008TIP3   OH2 6029   5.418   5.116   3.105 -0.8649  0.5961  0.3206
 2008TIP3    H1 6030   5.459   5.040   3.063 -0.0466  0.7529  0.8215
 2008TIP3    H2 6031   5.487   5.154   3.160 -1.3569  1.5292  0.3114
 2009TIP3   OH2 6032   4.107   0.752   4.247 -0.2972 -0.5084 -0.6347
 2009TIP3    H1 6033   4.142   0.818   4.306 -1.3113  1.0196 -1.6854
 2009TIP3    H2 6034   4.184   0.721   4.198  0.3316 -0.8493  0.5176
 2010TIP3   OH2 6035   1.240   1.256   2.302  0.0634 -0.4081  0.0388
 2010TIP3    H1 6036   1.285   1.261   2.218  1.3859  0.8040  0.7594
 2010TIP3    H2 6037   1.289   1.188   2.350 -1.1489 -1.6268 -0.3984
 2011TIP3   OH2 6038   5.164   2.591   3.783 -0.2210 -0.0726  0.1550
 2011TIP3    H1 6039   5.181   2.667   3.728  2.0344 -0.6383 -0.0374
 2011TIP3    H2 6040   5.240   2.586   3.841 -0.7240 -1.6869  0.7363
 2012TIP3   OH2 6041   0.890   2.246   0.018  0.1095  0.0137  0.8378
 2012TIP3    H1 6042   0.854   2.335   0.012 -1.8767 -0.8152 -0.3171
 2012TIP3    H2 6043   0.814   2.189   0.016  1.4141 -1.8046  0.0769
 2013TIP3   OH2 6044   3.852   1.260   2.483  0.7168  0.7928  0.0742
 2013TIP3    H1 6045   3.849   1.202   2.407  1.0877  0.5971  0.2058
 2013TIP3    H2 6046   3.902   1.211   2.549 -0.3918  0.5598  0.7843
 2014TIP3   OH2 6047   3.890   2.964   2.508  0.3943 -1.4594  0.4391
 2014TIP3    H1 6048   3.829   2.918   2.566 -1.2518 -0.0944 -0.1005
 2014TIP3    H2 6049   3.840   2.974   2.426  0.4494  1.6438  0.6775
 2015TIP3   OH2 6050   4.048   1.362   1.103 -0.2259  0.1853  1.0181
 2015TIP3    H1 6051   3.990   1.337   1.030  1.6879 -1.5158 -0.0286
 2015TIP3    H2 6052   4.026   1.299   1.172 -0.1508  0.0241  0.8969
 2016TIP3   OH2 6053   2.994   2.145   2.477 -0.7107  0.4466  0.2593
 2016TIP3    H1 6054   3.005   2.134   2.572  1.9574  0.7224  0.0368
 2016TIP3    H2 6055   3.083   2.149   2.442 -1.6205  1.3142 -2.1761
 2017TIP3   OH2 6056   2.107   0.096   3.129 -0.3100 -0.2142  0.0735
 2017TIP3    H1 6057   2.044   0.133   3.191 -1.0023 -2.0594  0.5360
 2017TIP3    H2 6058   2.077   0.007   3.115  2.2042 -1.1821  0.2907
 2018TIP3   OH2 6059   3.861   5.064   1.745 -0.0219 -0.2556  0.4860
 2018TIP3    H1 6060   3.867   5.139   1.804 -0.6081 -0.0018  0.2309
 2018TIP3    H2 6061   3.768   5.040   1.745 -0.0609 -0.1630 -0.4345
 2019TIP3   OH2 6062   1.738   0.649   2.882 -0.2643  0.0994 -0.3939
 2019TIP3    H1 6063   1.792   0.655   2.804 -1.6272  0.1423 -1.3723
 2019TIP3    H2 6064   1.681   0.574   2.866 -0.7770  0.2981  0.4287
 2020TIP3   OH2 6065   0.520   0.037   0.480 -0.0373  0.1720 -0.1872
 2020TIP3    H1 6066   0.552   0.125   0.500 -0.4761  0.3317 -0.1953
 2020TIP3    H2 6067   0.585   0.001   0.420  0.6273  0.1541  0.5261
 2021TIP3   OH2 6068   6.024   3.822   2.388  0.7323  0.8142  0.0613
 2021TIP3    H1 6069   6.016   3.900   2.443  2.0501  0.6856  0.4603
 2021TIP3    H2 6070   5.983   3.752   2.440  1.4802  0.8060  0.6444
 2022TIP3   OH2 6071   3.131   1.764   0.966  0.0283 -0.4738  0.0037
 2022TIP3    H1 6072   3.093   1.835   1.019 -0.9689  0.9446 -2.4353
 2022TIP3    H2 6073   3.056   1.728   0.919  0.9166 -1.5411 -0.6167
 2023TIP3   OH2 6074   4.724   3.290   0.898  0.1726 -0.2476  0.1708
 2023TIP3    H1 6075   4.742   3.336   0.816 -1.1256 -1.3005 -0.7504
 2023TIP3    H2 6076   4.807   3.248   0.920  1.4179  2.4085  1.0465
 2024TIP3   OH2 6077   5.294   2.845   1.939  0.1021 -0.3802  0.0814
 2024TIP3    H1 6078   5.272   2.809   1.853  0.4316 -1.2987  0.3584
 2024TIP3    H2 6079   5.252   2.930   1.942 -0.7876 -0.7807 -0.5937
 2025TIP3   OH2 6080   0.493   3.134   3.512 -0.9076 -0.0815 -0.5255
 2025TIP3    H1 6081   0.462   3.160   3.425  0.0681 -0.8721 -1.1267
 2025TIP3    H2 6082   0.566   3.194   3.530 -0.6522 -0.3702 -0.5759
 2026TIP3   OH2 6083   1.406   4.735   0.582 -0.4221  0.2065  0.1139
 2026TIP3    H1 6084   1.478   4.724   0.643 -0.4434  0.2484  0.1468
 2026TIP3    H2 6085   1.380   4.827   0.592  0.7417  0.7201 -1.2484
 2027TIP3   OH2 6086   2.343   5.863   3.218 -0.8529  0.5523 -0.2984
 2027TIP3    H1 6087   2.325   5.809   3.141 -0.7112  0.2278 -0.1079
 2027TIP3    H2 6088   2.435   5.886   3.211 -0.1172 -1.6108  1.0576
 2028TIP3   OH2 6089   1.674   3.956   3.655 -0.1305  1.0365  0.0213
 2028TIP3    H1 6090   1.748   3.962   3.594 -0.6140 -0.1408 -0.7035
 2028TIP3    H2 6091   1.710   3.916   3.733 -0.0647  0.1448 -0.4585
 2029TIP3   OH2 6092   6.066   2.048   2.698  0.3342 -0.3258  0.2618
 2029TIP3    H1 6093   6.019   2.034   2.616  0.0730 -0.0601  0.3635
 2029TIP3    H2 6094   6.092   2.140   2.695  1.2255 -0.5850  0.0136
 2030TIP3   OH2 6095   2.710   5.754   1.843 -0.2321 -0.2715  0.0371
 2030TIP3    H1 6096   2.742   5.784   1.758 -0.9917  0.7648  0.1026
 2030TIP3    H2 6097   2.771   5.685   1.868  1.2983  0.8923 -0.3419
 2031TIP3   OH2 6098   5.125   4.150   3.473  0.0698  0.1339 -0.6363
 2031TIP3    H1 6099   5.209   4.111   3.500 -0.1419  0.9944  1.5058
 2031TIP3    H2 6100   5.078   4.079   3.430  1.0761 -0.9759  0.0227
 2032TIP3   OH2 6101   1.238   2.183   2.725 -0.0859 -0.1830 -0.0308
 2032TIP3    H1 6102   1.221   2.111   2.664  0.4816 -0.4173  0.0833
 2032TIP3    H2 6103   1.333   2.182   2.738 -0.0025  0.9619 -0.4865
 2033TIP3   OH2 6104   1.348   2.710   1.065 -0.2279  0.3714  0.0873
 2033TIP3    H1 6105   1.344   2.713   1.161  0.9707 -1.1701  0.2097
 2033TIP3    H2 6106   1.394   2.629   1.045 -0.3737  0.7176 -1.8087
 2034TIP3   OH2 6107   2.019   3.447   0.128  0.4545 -1.0023 -0.1852
 2034TIP3    H1 6108   2.060   3.517   0.078  0.4571 -1.0052 -0.1872
 2034TIP3    H2 6109   2.075   3.436   0.205  0.6470 -1.2340 -0.3549
 2035TIP3   OH2 6110   1.235   3.534   0.780 -0.2644 -0.0535  0.2566
 2035TIP3    H1 6111   1.207   3.447   0.750 -3.0127  0.8675 -0.1349
 2035TIP3    H2 6112   1.183   3.551   0.858 -0.4960  1.6194 -0.2134
 2036TIP3   OH2 6113   3.243   3.361   3.922 -0.2732 -0.2655 -0.4078
 2036TIP3    H1 6114   3.193   3.281   3.904  1.1514 -0.8045 -2.3310
 2036TIP3    H2 6115   3.324   3.330   3.961  0.6116  0.1206 -1.8604
 2037TIP3   OH2 6116   0.161   5.017   4.601  1.1053  0.3631  0.0154
 2037TIP3    H1 6117   0.224   5.047   4.667  0.0294  2.0887  0.3388
 2037TIP3    H2 6118   0.110   4.950   4.646  0.5086  1.3845  0.9264
 2038TIP3   OH2 6119   3.159   0.512   4.275  0.3102 -0.1802  0.2039
 2038TIP3    H1 6120   3.106   0.503   4.196 -0.7141 -1.3491  0.9760
 2038TIP3    H2 6121   3.147   0.603   4.302  0.0221  0.0084 -0.5455
 2039TIP3   OH2 6122   5.796   0.873   2.356  0.3746 -0.3643 -0.4267
 2039TIP3    H1 6123   5.761   0.833   2.436  2.7012 -3.0977 -0.6003
 2039TIP3    H2 6124   5.814   0.964   2.380  0.0891 -0.8558  1.8574
 2040TIP3   OH2 6125   5.819   3.256   4.686  0.5507  0.3900 -0.0510
 2040TIP3    H1 6126   5.817   3.322   4.617 -2.8724  0.6761  0.1653
 2040TIP3    H2 6127   5.891   3.197   4.662 -0.2125  0.7326 -3.6016
 2041TIP3   OH2 6128   0.270   4.264   2.301  0.7620  0.1014 -0.2477
 2041TIP3    H1 6129   0.197   4.222   2.346  1.2811 -0.8764 -0.3031
 2041TIP3    H2 6130   0.271   4.353   2.337 -0.8640  0.3634 -0.7322
 2042TIP3   OH2 6131   5.279   1.697   1.930 -0.2622  0.2082 -0.2280
 2042TIP3    H1 6132   5.284   1.601   1.926 -1.2189  0.1859 -1.2912
 2042TIP3    H2 6133   5.254   1.724   1.842  0.9685  1.5317 -0.2055
 2043TIP3   OH2 6134   5.401   0.576   4.772 -0.3700  0.0131  0.5363
 2043TIP3    H1 6135   5.368   0.578   4.862 -0.1663 -0.2417  0.6167
 2043TIP3    H2 6136   5.351   0.505   4.731 -0.2531 -0.0654  0.5305
 2044TIP3   OH2 6137   3.424   0.464   4.709  0.3985 -0.0644  0.3665
 2044TIP3    H1 6138   3.443   0.380   4.668  0.9597 -0.3512  1.1982
 2044TIP3    H2 6139   3.398   0.442   4.798 -0.3309  0.5860  0.3261
 2045TIP3   OH2 6140   4.636   5.553   5.128  0.4218 -0.0011  0.2762
 2045TIP3    H1 6141   4.684   5.615   5.184 -0.0088 -0.2514  0.9374
 2045TIP3    H2 6142   4.635   5.595   5.042 -0.9161  1.5326  0.9791
 2046TIP3   OH2 6143   1.136   5.947   4.013  0.7996 -0.0848 -0.1827
 2046TIP3    H1 6144   1.122   5.868   4.064 -0.7289 -1.1046 -2.0644
 2046TIP3    H2 6145   1.149   5.916   3.924  0.3532  1.7788 -0.9371
 2047TIP3   OH2 6146   3.979   5.156   2.154  0.8459 -0.2175  0.5686
 2047TIP3    H1 6147   4.022   5.161   2.068  0.4899  0.7153  0.4310
 2047TIP3    H2 6148   4.017   5.078   2.195  0.1065 -1.4176 -0.9212
 2048TIP3   OH2 6149   1.618   4.998   3.608  0.4629  0.1179 -0.2641
 2048TIP3    H1 6150   1.526   5.023   3.611  0.4980  0.1428  1.6040
 2048TIP3    H2 6151   1.616   4.903   3.594  0.1940  0.2119 -0.9296
 2049TIP3   OH2 6152   4.635   1.279   0.926  0.0544 -0.1897  0.0717
 2049TIP3    H1 6153   4.639   1.266   1.020 -1.9730 -1.1170  0.0705
 2049TIP3    H2 6154   4.556   1.234   0.898  0.7090 -0.1243 -2.1236
 2050TIP3   OH2 6155   0.273   1.340   0.546  0.2114 -0.0972 -0.0595
 2050TIP3    H1 6156   0.339   1.360   0.613  0.0009 -0.3626  0.2341
 2050TIP3    H2 6157   0.199   1.396   0.568 -0.5261 -1.4162  0.9958
 2051TIP3   OH2 6158   4.021   3.606   3.580  0.2528 -0.1638  0.0422
 2051TIP3    H1 6159   3.993   3.532   3.527  1.0269  0.2411 -0.9694
 2051TIP3    H2 6160   4.048   3.568   3.663 -0.2861 -0.8936 -0.1074
 2052TIP3   OH2 6161   1.302   2.312   4.793 -0.1067 -0.8408 -0.1348
 2052TIP3    H1 6162   1.316   2.395   4.749 -0.0612 -0.6856  0.1657
 2052TIP3    H2 6163   1.389   2.288   4.826 -0.2858 -0.5375  0.5882
 2053TIP3   OH2 6164   0.650   2.343   3.440 -0.6276 -0.1127 -0.1734
 2053TIP3    H1 6165   0.622   2.354   3.349 -0.4941 -0.0904 -0.2126
 2053TIP3    H2 6166   0.644   2.248   3.455  1.6412 -0.4395 -0.9706
 2054TIP3   OH2 6167   3.936   2.462   3.427 -0.2168 -0.1255 -0.6697
 2054TIP3    H1 6168   3.960   2.434   3.515 -1.2074 -0.0740 -0.3695
 2054TIP3    H2 6169   3.860   2.519   3.440 -0.6397 -0.4601 -1.5941
 2055TIP3   OH2 6170   0.488   1.650   0.223  0.0090 -0.1164  0.4202
 2055TIP3    H1 6171   0.483   1.735   0.180 -0.6770  0.3529  1.3977
 2055TIP3    H2 6172   0.397   1.625   0.238  0.2241 -0.1156  1.8656
 2056TIP3   OH2 6173   5.938   5.133   4.397 -0.5219 -0.4632  0.0823
 2056TIP3    H1 6174   6.009   5.177   4.349 -1.2726  0.8871  0.1396
 2056TIP3    H2 6175   5.860   5.185   4.376 -2.0328 -3.3192 -1.9645
 2057TIP3   OH2 6176   4.773   2.557   1.282  0.1063  0.1515 -0.4276
 2057TIP3    H1 6177   4.701   2.553   1.345  1.0086 -1.5644  0.5931
 2057TIP3    H2 6178   4.852   2.543   1.336  0.9436 -0.9250 -1.8614
 2058TIP3   OH2 6179   5.478   5.377   0.225 -0.4013  1.0136 -0.0433
 2058TIP3    H1 6180   5.569   5.371   0.196 -0.0352 -3.5183  1.2900
 2058TIP3    H2 6181   5.484   5.397   0.319 -0.6913 -0.0059  0.2065
 2059TIP3   OH2 6182   6.254   3.542   5.009 -0.1324  0.0676  0.6280
 2059TIP3    H1 6183   6.212   3.495   4.936  0.7184  1.4310 -0.7889
 2059TIP3    H2 6184   6.347   3.520   5.002  0.1305  1.1495  0.5561
 2060TIP3   OH2 6185   3.861   0.349   1.836  0.1077 -0.8772  0.1364
 2060TIP3    H1 6186   3.842   0.286   1.906  2.6233  1.0840  2.8066
 2060TIP3    H2 6187   3.953   0.336   1.816  0.4169  1.1818  0.0051
 2061TIP3   OH2 6188   0.800   0.517   1.708 -0.0203  0.6246  0.0598
 2061TIP3    H1 6189   0.800   0.584   1.639 -0.0965  0.3713 -0.1892
 2061TIP3    H2 6190   0.846   0.558   1.781  1.5736  0.2961 -0.7177
 2062TIP3   OH2 6191   1.660   0.695   0.681 -0.4998  0.3074 -0.7275
 2062TIP3    H1 6192   1.718   0.681   0.605 -0.6384  1.8870 -1.1604
 2062TIP3    H2 6193   1.596   0.759   0.650 -0.9379  0.5013  0.5490
 2063TIP3   OH2 6194   1.635   0.718   2.515  0.4106 -0.4761  0.5344
 2063TIP3    H1 6195   1.672   0.804   2.492  0.0644 -0.1123  1.2874
 2063TIP3    H2 6196   1.608   0.680   2.432 -1.5822  1.1337  0.3556
 2064TIP3   OH2 6197   3.914   5.788   0.279 -0.1817 -0.0143 -0.4829
 2064TIP3    H1 6198   3.907   5.693   0.266 -1.2723  0.2864 -2.4296
 2064TIP3    H2 6199   3.908   5.800   0.374 -0.4035 -1.8571 -0.2323
 2065TIP3   OH2 6200   0.441   4.268   0.185 -0.4690 -0.5620  0.1252
 2065TIP3    H1 6201   0.374   4.202   0.205  1.0947 -1.6306  2.3524
 2065TIP3    H2 6202   0.520   4.234   0.226  1.6939  0.2587 -3.0720
 2066TIP3   OH2 6203   3.194   1.619   1.603  0.0489  0.5725 -0.2916
 2066TIP3    H1 6204   3.253   1.656   1.537  2.0288  0.7329  1.4723
 2066TIP3    H2 6205   3.238   1.540   1.633 -1.0648  0.2186  0.4721
 2067TIP3   OH2 6206   2.090   0.193   1.364 -0.1478  0.3451  0.1844
 2067TIP3    H1 6207   2.167   0.219   1.314 -0.2315 -0.3861 -0.3305
 2067TIP3    H2 6208   2.016   0.232   1.318 -0.0976  1.0249  0.6635
 2068TIP3   OH2 6209   5.532   1.166   3.631  0.1621 -1.0654 -0.3446
 2068TIP3    H1 6210   5.624   1.177   3.651 -0.1115  1.9863 -0.3697
 2068TIP3    H2 6211   5.501   1.101   3.695  1.8317 -0.4670  1.1486
 2069TIP3   OH2 6212   5.358   2.058   2.874  0.5375  0.2638  0.5648
 2069TIP3    H1 6213   5.293   2.054   2.944  1.2438  1.9869  1.3897
 2069TIP3    H2 6214   5.307   2.049   2.794 -0.8736  2.2511  1.1452
 2070TIP3   OH2 6215   1.287   2.868   0.540  0.4620  0.5901 -0.2686
 2070TIP3    H1 6216   1.220   2.911   0.593  0.8699 -0.9803  1.6587
 2070TIP3    H2 6217   1.318   2.795   0.595  0.9844 -1.1215 -2.6745
 2071TIP3   OH2 6218   0.578   1.611   2.174  0.4813  0.3629  0.8844
 2071TIP3    H1 6219   0.571   1.520   2.145  4.6595 -0.2965  1.2460
 2071TIP3    H2 6220   0.558   1.662   2.096 -0.0027 -0.9364  0.1196
 2072TIP3   OH2 6221   4.363   1.161   2.162 -0.1593  0.1669  0.1780
 2072TIP3    H1 6222   4.332   1.076   2.193 -1.2291  1.4535  3.0020
 2072TIP3    H2 6223   4.419   1.194   2.233  2.6022  0.7038 -2.0315
 2073TIP3   OH2 6224   1.810   1.491   2.096  0.6403 -0.7907  0.1729
 2073TIP3    H1 6225   1.886   1.550   2.095 -0.9951  1.4103 -1.0041
 2073TIP3    H2 6226   1.812   1.448   2.010 -0.0874  0.1577 -0.3258
 2074TIP3   OH2 6227   2.117   1.533   5.094 -0.1707  0.6312 -0.4841
 2074TIP3    H1 6228   2.174   1.568   5.163  0.0397  0.6917 -0.6875
 2074TIP3    H2 6229   2.118   1.600   5.026 -0.6079  0.7023 -0.4267
 2075TIP3   OH2 6230   6.107   1.111   0.549 -0.2050 -0.0644  0.3004
 2075TIP3    H1 6231   6.065   1.167   0.484 -0.6027  1.1636  1.5540
 2075TIP3    H2 6232   6.151   1.172   0.608  2.2625 -1.2603 -0.1956
 2076TIP3   OH2 6233   1.092   5.253   3.585 -0.1345  0.9289 -0.6100
 2076TIP3    H1 6234   1.102   5.176   3.529 -0.2977  2.2259 -2.5401
 2076TIP3    H2 6235   1.173   5.302   3.573 -0.1065  1.1613  0.4539
 2077TIP3   OH2 6236   6.254   4.725   4.286 -0.0173  0.0975  0.0974
 2077TIP3    H1 6237   6.328   4.784   4.299  0.5220 -0.2901 -1.0884
 2077TIP3    H2 6238   6.221   4.746   4.199 -1.0582 -0.0233  0.4405
 2078TIP3   OH2 6239   4.935   2.137   2.898  0.1117  0.9396 -0.0888
 2078TIP3    H1 6240   4.924   2.213   2.953 -0.4865  0.9604 -0.2284
 2078TIP3    H2 6241   4.850   2.125   2.855  0.0940  0.0161  0.1659
 2079TIP3   OH2 6242   1.263   5.921   1.822  0.1329 -0.1186 -0.1775
 2079TIP3    H1 6243   1.201   5.856   1.791 -1.2454  1.2443 -0.3809
 2079TIP3    H2 6244   1.252   5.921   1.917  0.8894 -0.8841 -0.0739
 2080TIP3   OH2 6245   5.441   2.385   2.738 -0.2728 -0.0536 -0.3665
 2080TIP3    H1 6246   5.502   2.354   2.805  0.8486  3.4301  0.4318
 2080TIP3    H2 6247   5.354   2.367   2.775  0.3101 -0.3674  0.9171
 2081TIP3   OH2 6248   5.481   0.040   0.965 -0.7371 -0.1403 -0.6120
 2081TIP3    H1 6249   5.408   0.096   0.939  0.1164  1.0585 -0.5225
 2081TIP3    H2 6250   5.559   0.090   0.941  0.0858 -1.8631 -1.7318
 2082TIP3   OH2 6251   2.259   0.356   0.858 -0.1426 -0.3437  0.0485
 2082TIP3    H1 6252   2.167   0.336   0.842 -0.6335  0.8247  1.2242
 2082TIP3    H2 6253   2.297   0.364   0.771 -1.7689  1.7750 -0.5521
 2083TIP3   OH2 6254   5.658   3.145   4.475 -0.3536 -0.0518  0.4729
 2083TIP3    H1 6255   5.729   3.083   4.458 -0.0191  0.4607 -0.0242
 2083TIP3    H2 6256   5.684   3.188   4.556  0.7659  1.3150 -0.5612
 2084TIP3   OH2 6257   0.376   3.249   3.249 -0.0568 -0.6092  0.2396
 2084TIP3    H1 6258   0.286   3.266   3.276 -0.0391 -2.0037  1.2933
 2084TIP3    H2 6259   0.395   3.318   3.185 -1.1702  0.9617  1.5063
 2085TIP3   OH2 6260   5.464   5.445   4.584  0.9140  0.0962 -0.5158
 2085TIP3    H1 6261   5.434   5.436   4.494  2.1663  1.6358 -1.1148
 2085TIP3    H2 6262   5.480   5.538   4.596  0.3292  0.0001  1.4711
 2086TIP3   OH2 6263   4.303   5.518   2.936 -0.2056 -0.0967  0.2756
 2086TIP3    H1 6264   4.398   5.519   2.934 -0.1189 -1.0832  2.0230
 2086TIP3    H2 6265   4.277   5.610   2.935  0.7746  0.1856  0.2027
 2087TIP3   OH2 6266   4.516   3.307   1.670 -0.0622  0.3217 -0.0439
 2087TIP3    H1 6267   4.449   3.374   1.687  0.2448  0.8121 -0.7152
 2087TIP3    H2 6268   4.568   3.344   1.599  0.9684 -0.0232  0.5142
 2088TIP3   OH2 6269   5.639   4.748   1.066 -0.5089  0.4317 -0.3420
 2088TIP3    H1 6270   5.649   4.782   1.155 -0.1791 -1.7625  0.5436
 2088TIP3    H2 6271   5.727   4.720   1.042 -0.6784  0.6144 -1.1932
 2089TIP3   OH2 6272   4.541   0.589   0.372 -0.1130 -0.4729 -0.0383
 2089TIP3    H1 6273   4.547   0.555   0.461  2.1197  0.7659  0.3543
 2089TIP3    H2 6274   4.601   0.533   0.321  0.5573  0.3759 -0.2054
 2090TIP3   OH2 6275   0.932   2.927   2.797 -0.2219  0.1016 -0.3810
 2090TIP3    H1 6276   0.882   2.989   2.743 -3.1535 -1.9500 -0.2526
 2090TIP3    H2 6277   0.879   2.916   2.876 -0.1440 -2.9018 -0.6225
 2091TIP3   OH2 6278   3.960   1.699   3.600 -0.2539  0.1826 -0.4260
 2091TIP3    H1 6279   4.021   1.678   3.530  1.8748 -0.3138  1.4540
 2091TIP3    H2 6280   3.987   1.786   3.631 -0.2881 -0.1661  0.6313
 2092TIP3   OH2 6281   0.057   1.887   1.093 -0.6461  0.2004 -0.1897
 2092TIP3    H1 6282   0.065   1.940   1.013  1.1123  3.0864  1.7160
 2092TIP3    H2 6283   0.130   1.826   1.088 -0.2929  0.6392 -0.6092
 2093TIP3   OH2 6284   2.902   3.722   2.759 -0.3721 -0.1356  0.0036
 2093TIP3    H1 6285   2.910   3.803   2.808  2.9045 -0.0707 -0.3616
 2093TIP3    H2 6286   2.917   3.747   2.668 -0.7140 -0.9786 -0.2963
 2094TIP3   OH2 6287   0.922   2.123   3.026  0.0233 -0.2246 -0.2834
 2094TIP3    H1 6288   0.879   2.083   2.950 -1.5545  1.7619 -0.5266
 2094TIP3    H2 6289   0.917   2.217   3.010  2.9552  0.1726  0.5903
 2095TIP3   OH2 6290   1.739   5.268   3.099  0.2053  0.3050 -0.5388
 2095TIP3    H1 6291   1.825   5.307   3.114  0.6162  0.6864 -3.2805
 2095TIP3    H2 6292   1.749   5.219   3.017 -2.3432  0.8727 -1.2887
 2096TIP3   OH2 6293   5.351   0.439   2.888  0.0454 -0.4050  0.3788
 2096TIP3    H1 6294   5.420   0.460   2.950 -0.1016 -0.7906  0.6779
 2096TIP3    H2 6295   5.289   0.511   2.895  0.2655 -0.2108  0.3308
 2097TIP3   OH2 6296   4.419   1.606   0.401  0.1714  0.4670  0.3591
 2097TIP3    H1 6297   4.332   1.616   0.363  0.2324 -2.8976 -1.0353
 2097TIP3    H2 6298   4.403   1.579   0.491 -0.2888 -0.4737  0.0105
 2098TIP3   OH2 6299   3.898   5.840   3.366 -0.3022 -0.3054  0.5223
 2098TIP3    H1 6300   3.922   5.932   3.376 -0.3492 -0.3133  0.7007
 2098TIP3    H2 6301   3.816   5.842   3.316 -0.4562 -0.2385  0.7777
 2099TIP3   OH2 6302   5.388   3.940   2.799 -0.2877  0.4003 -0.0770
 2099TIP3    H1 6303   5.346   3.915   2.882 -0.7727  1.6324  0.0647
 2099TIP3    H2 6304   5.464   3.992   2.825 -0.8472  1.3967 -0.4065
 2100TIP3   OH2 6305   5.138   0.430   4.040  0.5202 -0.0674 -0.1120
 2100TIP3    H1 6306   5.215   0.381   4.009  0.1917 -0.5793 -0.1219
 2100TIP3    H2 6307   5.110   0.384   4.119  2.0080  1.8657  1.6694
 2101TIP3   OH2 6308   5.431   2.551   1.851 -0.0186  0.5760  0.4592
 2101TIP3    H1 6309   5.341   2.554   1.819  0.8316 -0.9422 -2.4324
 2101TIP3    H2 6310   5.428   2.493   1.927 -1.4361  0.2346  0.1687
 2102TIP3   OH2 6311   3.402   5.440   0.412  0.1722  0.2173 -0.2331
 2102TIP3    H1 6312   3.335   5.429   0.344  0.0178  0.8768 -0.1959
 2102TIP3    H2 6313   3.362   5.497   0.477  1.6604  3.0365 -1.5606
 2103TIP3   OH2 6314   4.467   0.709   3.453 -0.2795  0.1270  0.5322
 2103TIP3    H1 6315   4.492   0.666   3.535  1.0375  0.2419  0.2172
 2103TIP3    H2 6316   4.479   0.803   3.470  0.9154  0.1011 -0.0604
 2104TIP3   OH2 6317   1.204   1.701   0.197  0.2134  0.3599  0.2933
 2104TIP3    H1 6318   1.134   1.688   0.133 -2.2523 -1.6138  3.0649
 2104TIP3    H2 6319   1.180   1.782   0.243 -0.5698 -0.4810  1.4522
 2105TIP3   OH2 6320   5.301   3.602   3.920 -0.5310  0.0437  0.1276
 2105TIP3    H1 6321   5.366   3.650   3.869 -0.4403  0.5868  0.7425
 2105TIP3    H2 6322   5.304   3.513   3.885  1.8144 -0.4233  1.3096
 2106TIP3   OH2 6323   0.424   0.727   4.604  0.0050  0.0494  0.2753
 2106TIP3    H1 6324   0.479   0.683   4.669  1.2030  0.4947 -0.4068
 2106TIP3    H2 6325   0.348   0.670   4.595  0.4126 -0.6650  1.1284
 2107TIP3   OH2 6326   5.727   1.887   3.829  0.0316  0.6999 -0.1997
 2107TIP3    H1 6327   5.752   1.815   3.887  0.5658  2.7402  2.3167
 2107TIP3    H2 6328   5.639   1.864   3.799  1.1533 -2.1756 -1.6333
 2108TIP3   OH2 6329   2.867   1.649   0.439  0.0715  0.2218  0.0522
 2108TIP3    H1 6330   2.835   1.604   0.517 -0.4610 -0.9776 -0.8262
 2108TIP3    H2 6331   2.790   1.659   0.384  0.2292  2.0063  0.0929
 2109TIP3   OH2 6332   2.446   3.407   1.054 -0.2346  0.2989 -0.1563
 2109TIP3    H1 6333   2.366   3.355   1.064 -1.4847  2.2821  0.7111
 2109TIP3    H2 6334   2.443   3.470   1.126  0.9264  1.8912 -1.4351
 2110TIP3   OH2 6335   4.589   4.791   4.485 -0.2806  0.3413  0.0581
 2110TIP3    H1 6336   4.532   4.770   4.411  0.2676  0.3369 -0.3686
 2110TIP3    H2 6337   4.659   4.726   4.481  0.1268  0.7637  0.1644
 2111TIP3   OH2 6338   4.834   5.641   4.641  0.0728 -0.4622 -0.2627
 2111TIP3    H1 6339   4.783   5.717   4.616  1.4669  0.9132  0.8881
 2111TIP3    H2 6340   4.831   5.584   4.564 -1.9231  0.2028 -0.7422
 2112TIP3   OH2 6341   5.947   5.109   1.341 -0.0345 -0.7738 -0.2102
 2112TIP3    H1 6342   5.903   5.024   1.331 -0.5558 -0.4254 -1.0096
 2112TIP3    H2 6343   5.974   5.132   1.252 -1.1454  0.5407 -0.2337
 2113TIP3   OH2 6344   2.423   1.829   4.216 -0.2238 -0.2559  0.7009
 2113TIP3    H1 6345   2.459   1.900   4.270 -0.5777  1.5272 -1.3125
 2113TIP3    H2 6346   2.334   1.817   4.248 -0.4341  0.7893  0.5467
 2114TIP3   OH2 6347   4.475   4.971   1.737  0.1429  0.0348  0.5820
 2114TIP3    H1 6348   4.542   4.917   1.778  1.0997  0.8410  0.1396
 2114TIP3    H2 6349   4.468   4.937   1.648 -0.4688 -0.4205  0.7988
 2115TIP3   OH2 6350   0.871   2.872   2.004  0.3759  0.3059 -0.5375
 2115TIP3    H1 6351   0.823   2.815   2.064 -0.9915  0.5827 -1.3210
 2115TIP3    H2 6352   0.918   2.812   1.947 -0.0533 -0.0140 -0.5610
 2116TIP3   OH2 6353   4.257   5.896   0.255 -0.4143  0.0470 -0.0346
 2116TIP3    H1 6354   4.311   5.975   0.257  0.6052 -0.6211  2.0457
 2116TIP3    H2 6355   4.171   5.926   0.225  0.6154  1.4541 -1.7476
 2117TIP3   OH2 6356   5.579   0.806   3.102 -0.3938  0.4091 -0.5842
 2117TIP3    H1 6357   5.673   0.821   3.092 -0.4325  1.5071  0.3828
 2117TIP3    H2 6358   5.561   0.726   3.053  0.7756  0.9803 -2.0135
 2118TIP3   OH2 6359   4.432   2.635   1.362  0.3061 -0.1653 -0.0636
 2118TIP3    H1 6360   4.474   2.606   1.443 -1.7145 -0.6816  0.8588
 2118TIP3    H2 6361   4.342   2.654   1.387  0.1996  1.9264 -1.7451
 2119TIP3   OH2 6362   5.021   5.186   4.260  0.5569  0.0029 -0.2022
 2119TIP3    H1 6363   5.022   5.275   4.225 -1.1981  0.0387 -0.2119
 2119TIP3    H2 6364   5.096   5.144   4.218  1.2249  1.3636 -0.4517
 2120TIP3   OH2 6365   3.486   1.801   4.676  0.0602  0.3180  0.0844
 2120TIP3    H1 6366   3.475   1.896   4.676  1.0830  0.4689 -1.3128
 2120TIP3    H2 6367   3.508   1.780   4.585 -0.0283 -1.2406  0.4083
 2121TIP3   OH2 6368   2.920   0.176   2.462  0.0986  0.0261 -0.1476
 2121TIP3    H1 6369   2.867   0.138   2.532 -1.6602 -0.2072 -1.5336
 2121TIP3    H2 6370   2.978   0.237   2.506 -0.7695 -0.3028  1.5415
 2122TIP3   OH2 6371   4.245   2.787   1.509 -0.3328  0.0457  0.0391
 2122TIP3    H1 6372   4.154   2.773   1.535 -0.8297  0.3213 -1.4501
 2122TIP3    H2 6373   4.286   2.828   1.585 -0.9930 -1.6232  1.3789
 2123TIP3   OH2 6374   4.048   3.505   1.295  0.3293  0.6246 -0.3539
 2123TIP3    H1 6375   4.014   3.443   1.359 -0.8804  1.6064  0.0068
 2123TIP3    H2 6376   4.101   3.452   1.236 -1.3535 -0.9241 -0.5855
 2124TIP3   OH2 6377   1.581   4.603   2.257 -0.3359  0.0306  0.4358
 2124TIP3    H1 6378   1.574   4.630   2.166 -2.4992  0.2493  0.6282
 2124TIP3    H2 6379   1.581   4.507   2.254  0.8176  0.0252  0.1595
 2125TIP3   OH2 6380   2.348   4.204   2.245 -0.2633  0.5060 -0.3208
 2125TIP3    H1 6381   2.300   4.174   2.168 -0.6250  0.2545 -0.0019
 2125TIP3    H2 6382   2.421   4.142   2.253 -0.7132  0.0076  0.0334
 2126TIP3   OH2 6383   5.789   0.843   1.316  0.3436 -1.0151 -0.4483
 2126TIP3    H1 6384   5.816   0.917   1.370 -0.3921 -1.0242 -0.0549
 2126TIP3    H2 6385   5.733   0.882   1.249 -0.5140 -1.2816  0.1043
 2127TIP3   OH2 6386   1.981   5.134   0.148 -0.1169  0.6718  0.3549
 2127TIP3    H1 6387   1.997   5.131   0.242 -1.8355 -0.1184  0.6478
 2127TIP3    H2 6388   1.996   5.226   0.124 -0.1214  0.9779  1.4738
 2128TIP3   OH2 6389   4.310   3.524   3.504 -0.3438  0.1409 -0.2691
 2128TIP3    H1 6390   4.365   3.553   3.431 -1.7198 -0.2372 -1.5027
 2128TIP3    H2 6391   4.245   3.593   3.515 -1.9347 -1.0907 -1.3965
 2129TIP3   OH2 6392   3.752   5.826   4.787 -0.3233  0.2347  0.0983
 2129TIP3    H1 6393   3.826   5.854   4.842 -0.8509  2.9447 -0.4315
 2129TIP3    H2 6394   3.703   5.907   4.771 -2.2980 -1.1580 -1.2293
 2130TIP3   OH2 6395   2.738   4.690   1.646 -0.5463  0.2674  0.2767
 2130TIP3    H1 6396   2.743   4.595   1.649 -2.2740  0.0806 -0.8306
 2130TIP3    H2 6397   2.669   4.708   1.582  0.4769  2.2952 -0.3517
 2131TIP3   OH2 6398   2.102   4.531   4.842 -0.1682  0.2041 -0.2783
 2131TIP3    H1 6399   2.149   4.448   4.843  1.2360  0.9434 -1.0302
 2131TIP3    H2 6400   2.078   4.544   4.751 -0.1590  0.7300 -0.2098
 2132TIP3   OH2 6401   1.679   2.377   0.758  0.0784  0.4985 -0.0126
 2132TIP3    H1 6402   1.648   2.331   0.680  1.5062  0.8824 -0.8506
 2132TIP3    H2 6403   1.601   2.421   0.792 -0.6264  0.1367 -1.0811
 2133TIP3   OH2 6404   6.197   0.381   3.823  0.2523  0.3578 -0.0462
 2133TIP3    H1 6405   6.249   0.410   3.748 -0.7073 -1.6119 -1.5714
 2133TIP3    H2 6406   6.116   0.349   3.784 -0.8000  0.4265  1.9830
 2134TIP3   OH2 6407   4.886   4.470   2.012  0.2172  0.6245 -0.1864
 2134TIP3    H1 6408   4.810   4.525   2.030 -2.1031 -1.2150 -3.4022
 2134TIP3    H2 6409   4.913   4.438   2.098 -2.4205  1.6243  1.1349
 2135TIP3   OH2 6410   4.610   4.652   1.138  0.3615  0.4047  0.4699
 2135TIP3    H1 6411   4.557   4.728   1.117  1.0561  0.8726  0.3548
 2135TIP3    H2 6412   4.698   4.676   1.110  0.6540 -0.3106  0.7445
 2136TIP3   OH2 6413   3.874   4.145   2.235  0.4702  0.3677  0.0870
 2136TIP3    H1 6414   3.865   4.092   2.314  0.9204  0.7368  0.3863
 2136TIP3    H2 6415   3.789   4.137   2.191  0.9839 -1.7866 -0.6380
 2137TIP3   OH2 6416   4.294   0.759   3.268 -0.8286  0.0252  0.0485
 2137TIP3    H1 6417   4.371   0.735   3.320 -1.5748 -2.1202  0.2871
 2137TIP3    H2 6418   4.239   0.809   3.328 -0.0500  0.7835  0.1508
 2138TIP3   OH2 6419   3.347   0.883   3.915 -0.0275  0.3779 -0.0945
 2138TIP3    H1 6420   3.346   0.965   3.965 -0.2594  0.5216 -0.3364
 2138TIP3    H2 6421   3.299   0.821   3.970  0.7321  0.2123  0.4083
 2139TIP3   OH2 6422   1.100   1.483   2.973  0.1680  0.1169  0.4608
 2139TIP3    H1 6423   1.127   1.466   2.882 -1.6174 -0.7632  0.0514
 2139TIP3    H2 6424   1.011   1.450   2.978 -0.8945  2.8255  1.7329
 2140TIP3   OH2 6425   1.676   0.896   4.647 -0.2968 -0.3241  0.1861
 2140TIP3    H1 6426   1.724   0.924   4.726  0.5874  0.9218 -0.7564
 2140TIP3    H2 6427   1.591   0.938   4.656  0.1964  0.7735 -0.0464
 2141TIP3   OH2 6428   0.321   5.844   2.464 -0.0109 -0.1583  0.3067
 2141TIP3    H1 6429   0.348   5.843   2.372 -2.3143 -2.4283 -0.4560
 2141TIP3    H2 6430   0.403   5.847   2.513  1.2747  1.1269 -1.7750
 2142TIP3   OH2 6431   5.437   5.201   0.653 -0.2222  0.1901 -0.1935
 2142TIP3    H1 6432   5.399   5.187   0.567 -1.0726 -2.5837  0.5318
 2142TIP3    H2 6433   5.364   5.230   0.708  0.2379  1.5909 -0.2865
 2143TIP3   OH2 6434   1.814   2.245   2.450 -0.0761 -0.5740  0.2089
 2143TIP3    H1 6435   1.905   2.246   2.420  0.1171  0.4734  0.7869
 2143TIP3    H2 6436   1.814   2.181   2.522  0.2127 -0.5266  0.2517
 2144TIP3   OH2 6437   4.907   2.075   4.908  0.1675  0.3075  0.1719
 2144TIP3    H1 6438   4.997   2.052   4.932  0.0373 -0.4045  0.0103
 2144TIP3    H2 6439   4.906   2.072   4.812  0.0650  0.6966  0.1592
 2145TIP3   OH2 6440   0.886   1.821   3.409  0.4191  0.2721 -0.2474
 2145TIP3    H1 6441   0.812   1.881   3.418 -1.0506 -1.7096  2.5413
 2145TIP3    H2 6442   0.948   1.867   3.353 -1.8962  3.0157 -0.8029
 2146TIP3   OH2 6443   4.942   3.110   3.030 -0.1613  0.5848  0.8403
 2146TIP3    H1 6444   4.972   3.192   3.069  0.3166 -0.9180  3.9472
 2146TIP3    H2 6445   4.847   3.118   3.027 -0.0482  2.1409 -1.3039
 2147TIP3   OH2 6446   2.331   1.177   4.485 -0.4793 -0.5666 -0.6482
 2147TIP3    H1 6447   2.256   1.211   4.534 -0.0947 -2.0877  1.1220
 2147TIP3    H2 6448   2.367   1.108   4.541  1.2097 -1.0576 -2.2300
 2148TIP3   OH2 6449   4.953   4.632   3.475  0.5636  0.1562 -0.9711
 2148TIP3    H1 6450   4.879   4.672   3.428 -0.8028 -1.2399 -0.1032
 2148TIP3    H2 6451   4.979   4.699   3.538 -0.7979  0.2466 -0.4612
 2149TIP3   OH2 6452   0.336   1.688   4.788  0.0949 -0.2934 -0.1713
 2149TIP3    H1 6453   0.241   1.683   4.802  0.0292 -0.2998 -0.5947
 2149TIP3    H2 6454   0.364   1.597   4.781  0.0927 -0.2877 -0.2669
 2150TIP3   OH2 6455   5.113   0.613   0.897 -0.1680 -0.2804 -0.2124
 2150TIP3    H1 6456   5.185   0.610   0.834 -1.1867 -1.4175 -1.3590
 2150TIP3    H2 6457   5.117   0.530   0.943 -0.0955  0.1011  0.4917
 2151TIP3   OH2 6458   0.227   5.439   3.892  0.0772  0.1064 -0.5338
 2151TIP3    H1 6459   0.319   5.462   3.879  0.4378 -1.3646 -0.7171
 2151TIP3    H2 6460   0.208   5.376   3.823 -1.1827  0.6416 -0.7064
 2152TIP3   OH2 6461   5.526   3.758   1.895  0.4946 -0.0849  0.2715
 2152TIP3    H1 6462   5.507   3.834   1.840  0.3381 -0.8241 -0.7400
 2152TIP3    H2 6463   5.459   3.694   1.870  0.8946 -0.7144  0.7800
 2153TIP3   OH2 6464   3.081   2.995   1.394 -0.3296 -0.2147 -0.0028
 2153TIP3    H1 6465   2.991   2.980   1.422 -0.6250  2.0485  0.4861
 2153TIP3    H2 6466   3.134   2.935   1.447 -1.4174 -0.5173  0.7656
 2154TIP3   OH2 6467   2.557   5.604   2.982 -0.4359 -0.2193 -0.8488
 2154TIP3    H1 6468   2.493   5.596   2.912 -2.3536 -1.0579  0.8726
 2154TIP3    H2 6469   2.561   5.698   3.000  1.2392  0.1896 -3.0100
 2155TIP3   OH2 6470   3.351   0.153   2.768 -0.1173 -0.2045 -0.1917
 2155TIP3    H1 6471   3.427   0.107   2.804 -0.1617 -0.5357 -0.5166
 2155TIP3    H2 6472   3.283   0.141   2.834 -0.1711 -0.7373 -0.3371
 2156TIP3   OH2 6473   0.004   4.429   2.099  0.4153 -0.1573  0.1531
 2156TIP3    H1 6474   0.043   4.516   2.090  0.6242 -0.2455  0.2192
 2156TIP3    H2 6475  -0.036   4.430   2.186 -0.2620  0.1450 -0.1444
 2157TIP3   OH2 6476   0.778   1.022   3.162 -0.2581  0.7739 -0.0711
 2157TIP3    H1 6477   0.727   0.944   3.185 -0.1063  0.8957  0.7169
 2157TIP3    H2 6478   0.862   0.987   3.131  0.4879  0.6244  1.9586
 2158TIP3   OH2 6479   4.155   2.674   2.556  0.2805 -0.6096 -0.5772
 2158TIP3    H1 6480   4.156   2.584   2.589  0.1764  0.0246  1.2561
 2158TIP3    H2 6481   4.071   2.681   2.511  0.2355 -1.3899 -0.6409
 2159TIP3   OH2 6482   1.132   4.235   4.074  0.0742 -0.4511  0.4800
 2159TIP3    H1 6483   1.084   4.318   4.071  0.9143  0.0263 -1.9004
 2159TIP3    H2 6484   1.066   4.168   4.055 -0.0236  0.0233 -0.9375
 2160TIP3   OH2 6485   6.051   1.526   2.310 -0.3090 -0.0128 -0.1357
 2160TIP3    H1 6486   6.134   1.537   2.263 -0.4331  0.2722 -0.2897
 2160TIP3    H2 6487   6.077   1.496   2.398 -0.1312 -1.5479 -0.6821
 2161TIP3   OH2 6488   0.758   0.857   2.178  0.2347 -0.3017 -0.4394
 2161TIP3    H1 6489   0.728   0.917   2.246  0.3236 -0.0167 -0.6484
 2161TIP3    H2 6490   0.793   0.914   2.110  1.5628 -0.6348 -0.0570
 2162TIP3   OH2 6491   4.507   3.724   2.105  0.6954 -0.4906  0.3855
 2162TIP3    H1 6492   4.425   3.701   2.147  0.9095  0.6247  1.5089
 2162TIP3    H2 6493   4.497   3.817   2.083  0.6388 -0.9962 -2.0105
 2163TIP3   OH2 6494   3.748   1.797   3.388 -0.2745  0.4282 -0.6323
 2163TIP3    H1 6495   3.800   1.731   3.343  0.5032 -0.7574  1.8341
 2163TIP3    H2 6496   3.783   1.881   3.357  1.2425 -0.3274 -1.0565
 2164TIP3   OH2 6497   0.347   5.305   2.274  0.1240  0.0541  0.2631
 2164TIP3    H1 6498   0.336   5.383   2.328  1.7411 -0.7130  1.8240
 2164TIP3    H2 6499   0.441   5.302   2.255  0.1501 -1.6377  0.4768
 2165TIP3   OH2 6500   1.595   5.607   3.703 -0.2653  0.0891  0.2231
 2165TIP3    H1 6501   1.622   5.553   3.629  1.3981  1.2899 -0.1137
 2165TIP3    H2 6502   1.521   5.560   3.742  1.4821 -2.7760  0.3739
 2166TIP3   OH2 6503   2.806   4.029   2.443 -0.0032  0.5273 -0.0989
 2166TIP3    H1 6504   2.886   4.021   2.391  1.5600  1.8610  1.9383
 2166TIP3    H2 6505   2.837   4.037   2.533 -2.4811  0.7254  0.8057
 2167TIP3   OH2 6506   5.606   0.469   4.632  0.0605 -0.8990 -0.4629
 2167TIP3    H1 6507   5.547   0.490   4.705 -0.2541 -2.8339 -0.1133
 2167TIP3    H2 6508   5.673   0.412   4.671  0.1345 -1.6163 -1.5867
 2168TIP3   OH2 6509   3.920   3.161   1.184 -0.4010 -0.4025  0.2724
 2168TIP3    H1 6510   3.856   3.222   1.220 -0.7094  0.5974 -1.8465
 2168TIP3    H2 6511   3.996   3.216   1.164  0.4470 -1.2574  1.0160
 2169TIP3   OH2 6512   0.241   3.524   3.959 -0.2639  0.4161  0.2954
 2169TIP3    H1 6513   0.251   3.478   3.876  0.1330 -0.8580  1.0249
 2169TIP3    H2 6514   0.150   3.510   3.984 -0.5285  1.2437 -0.1584
 2170TIP3   OH2 6515   0.513   0.023   3.475 -0.3197 -0.5853 -0.3960
 2170TIP3    H1 6516   0.495   0.115   3.496 -0.0751 -0.4883 -0.5958
 2170TIP3    H2 6517   0.434  -0.007   3.430 -1.4466 -1.2052  1.8346
 2171TIP3   OH2 6518   2.595   4.579   0.004 -0.3023 -0.7573 -0.1708
 2171TIP3    H1 6519   2.535   4.549   0.073 -0.0161  1.1849  1.0025
 2171TIP3    H2 6520   2.664   4.512   0.002  0.7524  0.0394  2.9163
 2172TIP3   OH2 6521   1.191   5.717   4.258 -0.0874 -0.1347  0.2375
 2172TIP3    H1 6522   1.240   5.697   4.178  0.8294  1.1632  0.4351
 2172TIP3    H2 6523   1.101   5.694   4.238  0.5388 -2.5498 -0.1735
 2173TIP3   OH2 6524   5.760   0.471   1.615 -0.2700 -0.0650 -0.3393
 2173TIP3    H1 6525   5.847   0.445   1.646  0.1585  2.8758  1.2397
 2173TIP3    H2 6526   5.714   0.388   1.601  2.5400 -1.6917 -0.5803
 2174TIP3   OH2 6527   3.488   0.299   3.537 -0.1923  0.6177 -0.0030
 2174TIP3    H1 6528   3.465   0.386   3.569 -1.4786  0.0523  0.6920
 2174TIP3    H2 6529   3.569   0.277   3.584 -0.3194  1.0951  0.4552
 2175TIP3   OH2 6530   2.853   4.673   4.566 -0.5379  0.1006  0.1625
 2175TIP3    H1 6531   2.871   4.706   4.478 -1.0720  0.4775  0.1892
 2175TIP3    H2 6532   2.872   4.580   4.561  3.1474  0.6641  0.6504
 2176TIP3   OH2 6533   5.874   4.516   4.893  0.0659  0.1592  0.5207
 2176TIP3    H1 6534   5.934   4.444   4.908  0.9004  0.4816 -1.0415
 2176TIP3    H2 6535   5.920   4.574   4.831 -0.6115  1.9867  1.6367
 2177TIP3   OH2 6536   4.897   4.319   0.507  0.5905  0.5024 -0.5018
 2177TIP3    H1 6537   4.855   4.267   0.438 -0.4011 -0.0319  0.4481
 2177TIP3    H2 6538   4.931   4.254   0.568  1.2682  0.9628 -0.3864
 2178TIP3   OH2 6539   5.545   4.030   4.247 -0.0662 -0.2692  0.4271
 2178TIP3    H1 6540   5.532   4.092   4.318 -2.0418 -0.0854 -0.0576
 2178TIP3    H2 6541   5.510   3.947   4.279 -0.1122 -0.4210 -0.0002
 2179TIP3   OH2 6542   3.657   3.456   1.843  0.3093 -0.0931 -0.4795
 2179TIP3    H1 6543   3.726   3.391   1.826  0.5180 -0.3772  1.1879
 2179TIP3    H2 6544   3.576   3.414   1.814  0.5395 -0.8172 -0.1115
 2180TIP3   OH2 6545   3.422   5.499   3.361  1.0212  0.4471  0.0372
 2180TIP3    H1 6546   3.405   5.560   3.432  1.0553 -2.4475  2.7721
 2180TIP3    H2 6547   3.517   5.493   3.355  1.0256 -0.0886  0.5336
 2181TIP3   OH2 6548   5.890   4.819   1.224 -0.1503 -0.4119  0.1178
 2181TIP3    H1 6549   5.983   4.801   1.230 -0.0485 -0.8559 -2.1100
 2181TIP3    H2 6550   5.851   4.768   1.295  1.4781  2.0121  3.0112
 2182TIP3   OH2 6551   6.088   1.145   3.404  0.0323 -0.3695  0.2141
 2182TIP3    H1 6552   6.139   1.067   3.381  1.1416  0.3037  0.3059
 2182TIP3    H2 6553   6.032   1.160   3.328  1.0921 -0.2411 -0.5617
 2183TIP3   OH2 6554   1.757   5.259   1.825  0.0507 -0.0546 -0.2805
 2183TIP3    H1 6555   1.722   5.196   1.888  0.8077 -1.0721 -0.8376
 2183TIP3    H2 6556   1.829   5.213   1.783 -1.7254 -0.2608 -3.4360
 2184TIP3   OH2 6557   1.184   4.328   3.183 -0.1825 -0.3532  0.1169
 2184TIP3    H1 6558   1.277   4.329   3.162 -0.1645 -0.1258  0.1924
 2184TIP3    H2 6559   1.179   4.288   3.270 -0.2524 -1.2454 -0.2913
 2185TIP3   OH2 6560   3.761   1.933   0.247  0.6301 -0.0812 -0.1490
 2185TIP3    H1 6561   3.802   1.971   0.169 -0.8372  1.4498 -0.2345
 2185TIP3    H2 6562   3.681   1.891   0.213 -0.0343  0.6249  0.4981
 2186TIP3   OH2 6563   3.207   4.151   2.115 -0.1151  0.5259 -0.2564
 2186TIP3    H1 6564   3.148   4.089   2.073  0.2153 -0.5229  0.7948
 2186TIP3    H2 6565   3.257   4.099   2.178 -1.2206  2.1480  2.1088
 2187TIP3   OH2 6566   2.604   1.242   3.714 -0.5108  0.1622  0.0951
 2187TIP3    H1 6567   2.672   1.201   3.660 -0.7986  0.7013 -0.7017
 2187TIP3    H2 6568   2.648   1.313   3.760 -0.2738 -0.2716  0.5474
 2188TIP3   OH2 6569   5.345   5.096   4.905 -0.7592  0.1654 -0.2350
 2188TIP3    H1 6570   5.369   5.186   4.882 -0.5574  0.3824  0.7504
 2188TIP3    H2 6571   5.408   5.042   4.858 -2.2659  0.3888 -2.6375
 2189TIP3   OH2 6572   4.560   4.066   4.872  0.0002 -0.1653  0.5518
 2189TIP3    H1 6573   4.621   4.127   4.831  0.6047 -0.6462  0.7339
 2189TIP3    H2 6574   4.525   4.114   4.948 -0.1589  0.2530  0.2186
 2190TIP3   OH2 6575   4.790   1.831   1.641 -0.1611  0.5483  0.1581
 2190TIP3    H1 6576   4.760   1.742   1.661  0.9298 -0.1566 -1.1424
 2190TIP3    H2 6577   4.800   1.832   1.545  1.8560  1.3881  0.3179
 2191TIP3   OH2 6578   2.109   2.867   0.455 -0.4028 -0.7655  0.2512
 2191TIP3    H1 6579   2.067   2.953   0.464  1.8757  0.3288  1.0800
 2191TIP3    H2 6580   2.125   2.839   0.545  3.5523  0.4570  0.1017
 2192TIP3   OH2 6581   1.281   5.407   0.945 -0.0376  0.1453 -0.4680
 2192TIP3    H1 6582   1.207   5.465   0.962  0.6534  1.7510 -2.4548
 2192TIP3    H2 6583   1.347   5.433   1.010 -0.9409 -0.8411  0.8824
 2193TIP3   OH2 6584   4.916   0.113   2.128  0.3727  0.0002 -0.4934
 2193TIP3    H1 6585   4.862   0.187   2.100  2.2912  1.5374 -0.3642
 2193TIP3    H2 6586   4.948   0.075   2.046  0.3849  0.0882 -0.5292
 2194TIP3   OH2 6587   1.767   1.759   4.235 -0.8844 -0.8474 -0.0648
 2194TIP3    H1 6588   1.735   1.674   4.204 -1.5435 -0.0821 -1.6471
 2194TIP3    H2 6589   1.845   1.776   4.183 -0.9216 -0.3699  0.0265
 2195TIP3   OH2 6590   3.297   2.216   4.852  0.3580  0.0293 -0.6262
 2195TIP3    H1 6591   3.289   2.213   4.948  0.8278  1.0322 -0.5468
 2195TIP3    H2 6592   3.275   2.306   4.829 -0.2005 -0.3242 -1.5140
 2196TIP3   OH2 6593   5.082   5.163   1.957 -0.2671  0.4572  0.0938
 2196TIP3    H1 6594   5.025   5.228   1.999 -2.2976 -0.8031 -0.5417
 2196TIP3    H2 6595   5.055   5.163   1.866  2.5402  1.5515 -0.8445
 2197TIP3   OH2 6596   6.266   4.707   0.888  0.2265 -0.0390 -0.2510
 2197TIP3    H1 6597   6.287   4.775   0.951  0.2740  0.0994 -0.4169
 2197TIP3    H2 6598   6.241   4.754   0.809 -1.7462 -0.1524  0.2534
 2198TIP3   OH2 6599   2.857   4.192   3.654 -0.0685 -0.8698  0.0038
 2198TIP3    H1 6600   2.799   4.268   3.658 -0.6755 -1.3651  1.5377
 2198TIP3    H2 6601   2.898   4.190   3.740  0.8991 -1.5616 -0.4636
 2199TIP3   OH2 6602   0.325   3.372   1.598  0.3172  0.1798  0.0756
 2199TIP3    H1 6603   0.283   3.366   1.512  1.6051 -1.3711 -0.5076
 2199TIP3    H2 6604   0.253   3.386   1.659 -0.6065  1.5478 -1.2626
 2200TIP3   OH2 6605   3.492   3.442   0.202  0.1729 -0.6011 -0.2602
 2200TIP3    H1 6606   3.483   3.508   0.271  3.0609 -0.0809 -0.2558
 2200TIP3    H2 6607   3.489   3.359   0.248  0.4110 -0.3222  0.2666
 2201TIP3   OH2 6608   2.159   1.360   1.141  0.4895  0.4102 -0.1098
 2201TIP3    H1 6609   2.147   1.411   1.221  1.2890  0.1923  0.1475
 2201TIP3    H2 6610   2.162   1.269   1.170  0.4781  0.3113 -0.4176
 2202TIP3   OH2 6611   3.752   0.477   3.665  0.1338 -0.1329  0.2493
 2202TIP3    H1 6612   3.800   0.395   3.672  0.4587 -0.0025 -0.3742
 2202TIP3    H2 6613   3.785   0.531   3.737 -0.1396 -0.5665  0.7123
 2203TIP3   OH2 6614   1.057   5.064   4.051  0.3243  0.4784  0.5890
 2203TIP3    H1 6615   0.985   5.084   4.111  0.0939  0.1939  0.4075
 2203TIP3    H2 6616   1.026   5.093   3.966  0.7614  1.1405  0.6410
 2204TIP3   OH2 6617   4.381   3.390   3.732 -0.2450 -0.0178  0.0786
 2204TIP3    H1 6618   4.337   3.308   3.710  0.5305 -0.0504 -1.4446
 2204TIP3    H2 6619   4.381   3.440   3.650  0.2200  1.0728  0.7256
 2205TIP3   OH2 6620   2.304   2.310   3.883 -0.5536 -0.8761 -0.2485
 2205TIP3    H1 6621   2.269   2.226   3.854 -1.7113  0.2393 -2.3117
 2205TIP3    H2 6622   2.231   2.352   3.929 -0.1672 -0.7421  0.2565
 2206TIP3   OH2 6623   4.690   3.699   0.947 -0.1295 -0.2369 -0.3869
 2206TIP3    H1 6624   4.641   3.651   1.014 -0.4711  0.1533 -0.3554
 2206TIP3    H2 6625   4.777   3.709   0.984 -0.3028 -0.0668 -0.0179
 2207TIP3   OH2 6626   3.506   1.877   0.182 -0.6507  0.1892 -0.1889
 2207TIP3    H1 6627   3.437   1.811   0.188 -0.7493  0.3096 -0.0009
 2207TIP3    H2 6628   3.464   1.958   0.207 -0.0306 -0.0101  1.6343
 2208TIP3   OH2 6629   2.681   4.244   3.969  0.0498  0.0012 -0.1166
 2208TIP3    H1 6630   2.767   4.207   3.950  0.8690  0.2662  2.6399
 2208TIP3    H2 6631   2.621   4.169   3.961  0.7861 -0.5865 -0.3024
 2209TIP3   OH2 6632   4.174   0.839   0.851 -0.2574 -0.1103 -0.3066
 2209TIP3    H1 6633   4.183   0.920   0.901  4.2730 -1.2011  1.1289
 2209TIP3    H2 6634   4.208   0.862   0.764 -0.4850 -0.1014 -0.3931
 2210TIP3   OH2 6635   0.125   1.517   3.758  0.0306 -0.2126 -0.3358
 2210TIP3    H1 6636   0.189   1.509   3.828  0.3253 -1.2600 -0.7114
 2210TIP3    H2 6637   0.177   1.518   3.678 -0.2489  1.6959 -0.5460
 2211TIP3   OH2 6638   4.697   3.274   3.897 -0.5348 -0.0635 -0.1754
 2211TIP3    H1 6639   4.752   3.352   3.896  0.4175 -0.6978  0.3509
 2211TIP3    H2 6640   4.615   3.302   3.936  0.1367  0.4696  0.9032
 2212TIP3   OH2 6641   4.512   3.744   0.187  0.1078  0.2327  0.2718
 2212TIP3    H1 6642   4.445   3.700   0.240 -0.5867 -0.2398 -0.9728
 2212TIP3    H2 6643   4.478   3.741   0.098  0.5888  2.3087 -0.0201
 2213TIP3   OH2 6644   3.329   2.911   0.098  0.9347 -0.2158  0.2677
 2213TIP3    H1 6645   3.237   2.900   0.074  0.4204  0.1854  1.8986
 2213TIP3    H2 6646   3.377   2.860   0.034 -0.3757  0.1118 -1.0397
 2214TIP3   OH2 6647   0.278   2.714   1.793  0.0494 -0.6257  0.8389
 2214TIP3    H1 6648   0.360   2.681   1.829  0.5367 -1.9104 -1.2916
 2214TIP3    H2 6649   0.305   2.779   1.727 -0.6490 -0.8509  0.3191
 2215TIP3   OH2 6650   3.083   2.637   0.779 -0.0601 -0.1369  0.0775
 2215TIP3    H1 6651   3.146   2.679   0.838 -1.0692 -0.0668  1.1481
 2215TIP3    H2 6652   3.008   2.618   0.835 -0.8453 -0.5542 -1.0928
 2216TIP3   OH2 6653   1.344   3.822   0.516 -0.0201 -0.3628  0.4709
 2216TIP3    H1 6654   1.261   3.799   0.559 -0.6934  1.9907  0.5588
 2216TIP3    H2 6655   1.326   3.812   0.423 -0.2232 -0.4390  0.5174
 2217TIP3   OH2 6656   3.744   1.726   1.724  0.4375 -0.4986 -0.8888
 2217TIP3    H1 6657   3.754   1.690   1.636  3.3733 -1.3840 -0.3045
 2217TIP3    H2 6658   3.804   1.674   1.778 -1.0097  0.2531  1.5795
 2218TIP3   OH2 6659   5.118   1.111   0.574 -0.3327 -0.2454  0.1376
 2218TIP3    H1 6660   5.169   1.065   0.508 -2.2873 -3.2312  0.4949
 2218TIP3    H2 6661   5.151   1.078   0.657 -1.0606 -0.2057  0.4505
 2219TIP3   OH2 6662   5.968   3.234   3.377 -0.1949  0.2206 -0.0274
 2219TIP3    H1 6663   5.911   3.192   3.441  1.5955  0.6860  1.9833
 2219TIP3    H2 6664   6.033   3.168   3.356 -0.3744  0.3026 -0.8797
 2220TIP3   OH2 6665   4.997   3.584   4.801 -0.1252  0.3026  0.2204
 2220TIP3    H1 6666   4.928   3.601   4.737 -0.8594  1.6901  1.3021
 2220TIP3    H2 6667   4.962   3.512   4.855  0.4622 -0.8123 -0.8465
 2221TIP3   OH2 6668   5.493   3.383   2.133 -0.1835  0.3688  0.3287
 2221TIP3    H1 6669   5.415   3.400   2.080  0.0481 -0.3121 -0.2376
 2221TIP3    H2 6670   5.544   3.320   2.082 -0.1997 -0.7021  1.5875
 2222TIP3   OH2 6671   0.894   4.496   2.357  0.2304  0.3454 -0.0567
 2222TIP3    H1 6672   0.858   4.578   2.390  0.5848 -0.1908  1.8241
 2222TIP3    H2 6673   0.846   4.428   2.404  1.1961 -0.4634 -0.1919
 2223TIP3   OH2 6674   0.317   1.230   3.395  0.0412  0.3710  0.2975
 2223TIP3    H1 6675   0.329   1.172   3.470 -0.6231  2.5277  2.2022
 2223TIP3    H2 6676   0.241   1.194   3.348 -0.7165  0.0035  1.7498
 2224TIP3   OH2 6677   5.516   1.073   0.054 -0.0184  0.4196 -0.2170
 2224TIP3    H1 6678   5.466   1.020  -0.008 -1.1828  0.9165  0.2662
 2224TIP3    H2 6679   5.587   1.109   0.002  0.4619 -1.1181 -0.6946
 2225TIP3   OH2 6680   2.639   4.823   4.361  0.0655  0.4015 -0.0890
 2225TIP3    H1 6681   2.649   4.732   4.334  0.2688 -0.2845  2.1498
 2225TIP3    H2 6682   2.545   4.834   4.378  0.1356  0.4035  0.3066
 2226TIP3   OH2 6683   6.164   4.980   3.839 -0.2226 -0.8470 -0.0681
 2226TIP3    H1 6684   6.182   4.938   3.755 -0.0486  0.7407 -0.8716
 2226TIP3    H2 6685   6.102   5.050   3.818  1.2489  0.7860  0.7473
 2227TIP3   OH2 6686   6.291   5.676   1.204  0.0193  0.8338 -0.1000
 2227TIP3    H1 6687   6.210   5.722   1.227 -0.4267 -0.8050  1.8886
 2227TIP3    H2 6688   6.356   5.711   1.265  0.4796  1.1037 -0.7332
 2228TIP3   OH2 6689   1.034   5.324   0.132  0.8775 -0.3331 -0.4104
 2228TIP3    H1 6690   1.037   5.399   0.072  0.2893  1.9767  2.2511
 2228TIP3    H2 6691   1.125   5.311   0.158  0.8269  0.5202  0.2604
 2229TIP3   OH2 6692   3.867   1.421   2.941 -0.4925 -0.4487  0.2408
 2229TIP3    H1 6693   3.838   1.411   2.850  0.5297  1.7598 -0.3977
 2229TIP3    H2 6694   3.924   1.346   2.956  1.9912  0.7506 -2.1332
 2230TIP3   OH2 6695   2.260   3.558   2.039 -0.5067  0.6005  0.2522
 2230TIP3    H1 6696   2.216   3.483   2.080 -1.3884  0.6720 -0.5262
 2230TIP3    H2 6697   2.219   3.565   1.953  0.0276  1.5828  0.0712
 2231TIP3   OH2 6698   0.556   3.234   4.781 -1.1281  0.3861 -0.5742
 2231TIP3    H1 6699   0.471   3.259   4.744 -0.6400  0.8333 -1.4189
 2231TIP3    H2 6700   0.613   3.222   4.705  0.3290  2.8681 -0.0032
 2232TIP3   OH2 6701   5.577   0.996   2.751  0.1786 -0.0315  0.2208
 2232TIP3    H1 6702   5.631   0.949   2.687 -0.4220  0.5934 -0.7561
 2232TIP3    H2 6703   5.542   1.071   2.704  0.4410  0.9548  1.5322
 2233TIP3   OH2 6704   1.049   1.533   1.759  0.2446  0.2618 -0.0106
 2233TIP3    H1 6705   0.987   1.597   1.792  1.6396  0.8550  1.6007
 2233TIP3    H2 6706   1.103   1.581   1.696 -0.9425 -0.2818 -1.4969
 2234TIP3   OH2 6707   5.467   2.179   4.627  0.3598  0.1282  0.1110
 2234TIP3    H1 6708   5.537   2.123   4.595  1.0583  1.2366 -0.3729
 2234TIP3    H2 6709   5.470   2.256   4.570  0.3908  1.3108  1.6403
 2235TIP3   OH2 6710   5.352   0.797   0.757  0.2150 -0.4160  0.1084
 2235TIP3    H1 6711   5.423   0.834   0.811 -0.6292 -0.3500  1.2069
 2235TIP3    H2 6712   5.288   0.868   0.750 -0.9902 -1.3140  1.4379
 2236TIP3   OH2 6713   5.423   4.965   1.281  0.1108 -0.6608 -0.3909
 2236TIP3    H1 6714   5.372   4.981   1.202 -0.5230 -1.9042 -0.2525
 2236TIP3    H2 6715   5.501   5.020   1.271 -0.5403  0.1273 -1.2944
 2237TIP3   OH2 6716   4.753   0.982   4.171 -0.0073  0.1434  0.5740
 2237TIP3    H1 6717   4.711   0.917   4.116  1.7367 -0.4038 -0.1847
 2237TIP3    H2 6718   4.736   1.066   4.128  0.6094 -0.1928 -0.3427
 2238TIP3   OH2 6719   2.247   2.422   3.174  0.1592 -0.2937  0.1356
 2238TIP3    H1 6720   2.187   2.479   3.126  0.4201  0.2479  0.4488
 2238TIP3    H2 6721   2.333   2.438   3.135  0.4664  0.5516  1.1290
 2239TIP3   OH2 6722   5.805   3.573   0.200  0.2672  0.0720  0.2421
 2239TIP3    H1 6723   5.740   3.520   0.247 -1.5056  0.3570 -1.7739
 2239TIP3    H2 6724   5.810   3.654   0.251 -0.8818 -0.0015  0.5074
 2240TIP3   OH2 6725   0.883   5.557   5.072 -0.1211 -0.0809 -0.0874
 2240TIP3    H1 6726   0.809   5.543   5.131  1.5767 -2.1658  1.7165
 2240TIP3    H2 6727   0.879   5.484   5.010  0.2409 -0.0348 -0.1688
 2241TIP3   OH2 6728   4.347   5.348   1.852  0.0152  0.4589  0.2399
 2241TIP3    H1 6729   4.427   5.323   1.806 -0.6788 -0.7494 -0.3740
 2241TIP3    H2 6730   4.376   5.379   1.937  1.1356  0.0523  0.0198
 2242TIP3   OH2 6731   3.598   5.065   2.208 -0.3656 -0.0545  0.7366
 2242TIP3    H1 6732   3.654   5.141   2.219 -1.8132  1.2975 -0.7785
 2242TIP3    H2 6733   3.599   5.022   2.294  2.2427  0.3616  0.9964
 2243TIP3   OH2 6734   0.754   5.344   3.778  0.1027 -0.4484  0.3591
 2243TIP3    H1 6735   0.690   5.393   3.727 -0.6420 -0.3122  1.3990
 2243TIP3    H2 6736   0.830   5.403   3.782 -0.6484  0.4977  1.2874
 2244TIP3   OH2 6737   0.549   0.390   0.116  0.1725 -0.0226  0.5302
 2244TIP3    H1 6738   0.604   0.383   0.194  1.0804  0.6647 -0.0269
 2244TIP3    H2 6739   0.596   0.338   0.050 -0.3881 -0.2842  0.3344
 2245TIP3   OH2 6740   1.862   2.469   4.354 -0.4410 -0.3988 -0.0150
 2245TIP3    H1 6741   1.943   2.517   4.371 -0.3552 -0.6899  0.4212
 2245TIP3    H2 6742   1.845   2.483   4.260  1.3616 -2.1925 -0.6828
 2246TIP3   OH2 6743   2.847   1.047   1.696  0.1239  0.5947  0.1226
 2246TIP3    H1 6744   2.831   1.009   1.609  2.0330  1.0375 -0.4788
 2246TIP3    H2 6745   2.762   1.077   1.725 -0.6089  0.2356 -1.5102
 2247TIP3   OH2 6746   4.838   3.908   0.564  0.0478  0.1784  0.2297
 2247TIP3    H1 6747   4.854   3.981   0.504 -1.8766 -0.7855 -1.5797
 2247TIP3    H2 6748   4.848   3.830   0.510 -0.3578 -0.8034  1.5212
 2248TIP3   OH2 6749   2.962   1.629   0.794 -0.2637  0.4730  0.3015
 2248TIP3    H1 6750   3.017   1.588   0.727 -0.5645  1.5053 -0.6090
 2248TIP3    H2 6751   2.873   1.605   0.771 -0.2754 -0.5552  1.3296
 2249TIP3   OH2 6752   5.739   0.117   2.105 -0.0344  0.1549 -0.3055
 2249TIP3    H1 6753   5.810   0.064   2.142 -1.3707 -2.6232 -1.4612
 2249TIP3    H2 6754   5.667   0.107   2.168 -0.1875  1.0133 -0.3287
 2250TIP3   OH2 6755   6.287   3.128   3.065  0.2152 -0.0607  0.3039
 2250TIP3    H1 6756   6.331   3.196   3.013  0.6841 -1.8218 -1.7509
 2250TIP3    H2 6757   6.229   3.084   3.002 -0.1290 -1.5156  1.5873
 2251TIP3   OH2 6758   6.029   2.509   1.987 -0.3317  0.1824  0.8389
 2251TIP3    H1 6759   5.968   2.437   2.000 -1.9693  1.2897 -0.3409
 2251TIP3    H2 6760   6.045   2.511   1.893  2.2218 -0.5685  1.1801
 2252TIP3   OH2 6761   3.939   4.907   1.060  0.0512 -0.3142  0.1852
 2252TIP3    H1 6762   4.011   4.961   1.028  0.3492 -2.1953 -2.6241
 2252TIP3    H2 6763   3.979   4.845   1.120 -0.0237  1.3171  2.0419
 2253TIP3   OH2 6764   4.245   3.720   0.299  0.4447  0.0959 -0.2641
 2253TIP3    H1 6765   4.194   3.770   0.235 -0.1672  0.6444  0.6232
 2253TIP3    H2 6766   4.284   3.786   0.356 -1.2205 -0.3847  1.5693
 2254TIP3   OH2 6767   0.306   0.171   0.983  0.5780 -0.4338  0.0052
 2254TIP3    H1 6768   0.340   0.086   1.012  1.2268 -0.0908  0.2783
 2254TIP3    H2 6769   0.300   0.223   1.063 -2.1064 -0.9558  0.2320
 2255TIP3   OH2 6770   1.435   4.869   1.598  0.5001 -0.3994  0.2222
 2255TIP3    H1 6771   1.476   4.940   1.646 -0.3438  1.3924 -1.5569
 2255TIP3    H2 6772   1.395   4.814   1.665  4.8610 -1.8115  2.0295
 2256TIP3   OH2 6773   4.322   0.784   0.386  0.5285 -0.0314 -1.0646
 2256TIP3    H1 6774   4.327   0.816   0.296  1.4558  0.5980 -0.8034
 2256TIP3    H2 6775   4.377   0.706   0.387 -0.1330 -0.5040 -1.2301
 2257TIP3   OH2 6776   6.355   1.647   0.203  0.4511 -0.4077 -0.0768
 2257TIP3    H1 6777   6.378   1.621   0.114  1.1319 -0.6839  0.1758
 2257TIP3    H2 6778   6.260   1.653   0.203  0.5055  1.1933 -1.2652
 2258TIP3   OH2 6779   4.950   1.483   3.869 -0.3881  0.0159 -0.3408
 2258TIP3    H1 6780   4.893   1.415   3.832  0.2962 -1.2854  0.8936
 2258TIP3    H2 6781   4.903   1.513   3.947  1.1518 -2.1392  1.5656
 2259TIP3   OH2 6782   1.663   4.213   3.508 -0.3622  0.1649  0.4421
 2259TIP3    H1 6783   1.662   4.240   3.599  0.8403 -0.4851  0.6601
 2259TIP3    H2 6784   1.745   4.166   3.497 -0.2481  0.6446 -1.0999
 2260TIP3   OH2 6785   3.670   4.780   1.038 -1.2181 -0.4975  0.3505
 2260TIP3    H1 6786   3.679   4.745   1.126  2.3070 -1.7284 -0.3395
 2260TIP3    H2 6787   3.750   4.832   1.025 -1.0797 -1.2553 -2.4390
 2261TIP3   OH2 6788   1.024   0.355   0.623  0.3814 -0.0170 -0.5041
 2261TIP3    H1 6789   0.974   0.289   0.575  0.0620  0.1361 -0.3886
 2261TIP3    H2 6790   1.114   0.322   0.622 -0.0741 -1.5231  1.3146
 2262TIP3   OH2 6791   3.028   0.493   4.044  0.1426  0.3992 -0.6195
 2262TIP3    H1 6792   2.956   0.450   3.998  0.0937 -0.1981  0.0100
 2262TIP3    H2 6793   3.102   0.487   3.983  0.5902 -2.0165  0.0392
 2263TIP3   OH2 6794   1.108   2.884   4.976 -0.2790 -0.4964  0.3487
 2263TIP3    H1 6795   1.076   2.881   4.886 -0.4260  1.3191  0.3059
 2263TIP3    H2 6796   1.202   2.869   4.968  0.0018  1.2987 -0.3426
 2264TIP3   OH2 6797   3.829   3.790   4.694 -0.0694 -0.4684  0.2404
 2264TIP3    H1 6798   3.894   3.744   4.748  0.2886 -1.0053 -0.6256
 2264TIP3    H2 6799   3.769   3.721   4.665 -0.5713 -0.0991  0.3887
 2265TIP3   OH2 6800   3.154   0.189   3.751  0.3894  0.0533 -0.1372
 2265TIP3    H1 6801   3.207   0.119   3.713 -0.2296  0.3787 -1.6851
 2265TIP3    H2 6802   3.067   0.150   3.763  0.5781 -0.0493  1.0112
 2266TIP3   OH2 6803   4.222   1.216   2.499 -0.2454 -0.1704  0.2132
 2266TIP3    H1 6804   4.182   1.303   2.505  0.3190  0.0268  1.4692
 2266TIP3    H2 6805   4.309   1.233   2.463  0.1892 -0.0884  1.2676
 2267TIP3   OH2 6806   1.875   1.688   2.585 -0.6578  0.5009 -0.3297
 2267TIP3    H1 6807   1.899   1.777   2.612 -0.8577  0.3006  0.5414
 2267TIP3    H2 6808   1.958   1.639   2.589 -0.5512  0.6415 -0.7916
 2268TIP3   OH2 6809   2.199   0.761   1.034 -0.3701 -0.2705 -0.5634
 2268TIP3    H1 6810   2.285   0.778   1.074 -0.1732  1.4380 -1.6131
 2268TIP3    H2 6811   2.159   0.696   1.092  0.5352  0.9110  1.5376
 2269TIP3   OH2 6812   4.521   2.130   1.236 -0.5709  0.4900 -0.0160
 2269TIP3    H1 6813   4.615   2.140   1.224 -0.6680  0.4018 -0.9212
 2269TIP3    H2 6814   4.506   2.149   1.328  0.1643  1.8324 -0.1484
 2270TIP3   OH2 6815   0.629   5.183   1.362  0.3508  0.0978 -0.1696
 2270TIP3    H1 6816   0.703   5.124   1.378  0.5206 -0.0746 -1.4923
 2270TIP3    H2 6817   0.552   5.130   1.383  0.5401 -0.2509 -0.3434
 2271TIP3   OH2 6818   5.967   2.126   2.125  0.3896 -0.8025  0.2802
 2271TIP3    H1 6819   6.049   2.159   2.088 -0.8230 -0.7587 -2.6622
 2271TIP3    H2 6820   5.933   2.198   2.179  1.7051 -0.4080  0.6005
 2272TIP3   OH2 6821   2.496   1.181   1.625  0.1788  0.3971 -0.2921
 2272TIP3    H1 6822   2.554   1.155   1.555  1.3599  0.0897  0.7640
 2272TIP3    H2 6823   2.554   1.206   1.697 -0.9794  1.5463  0.2805
 2273TIP3   OH2 6824   3.930   3.283   2.207  0.3872 -0.5731 -0.1931
 2273TIP3    H1 6825   3.957   3.245   2.291  2.7440  3.2625  1.0334
 2273TIP3    H2 6826   3.836   3.299   2.217  0.7459  0.4678  2.0808
 2274TIP3   OH2 6827   4.265   1.586   3.911  0.1725  0.4367  0.2623
 2274TIP3    H1 6828   4.311   1.643   3.849  0.8030 -0.5705 -0.2293
 2274TIP3    H2 6829   4.217   1.646   3.968 -0.5964  1.3785 -1.3174
 2275TIP3   OH2 6830   4.228   4.446   2.277 -0.6795  0.0250  0.1875
 2275TIP3    H1 6831   4.210   4.366   2.326 -2.4364 -0.5509 -1.2748
 2275TIP3    H2 6832   4.188   4.516   2.328 -0.5191 -0.2419  0.6848
 2276TIP3   OH2 6833   5.603   4.568   0.183  0.2731  0.4780  0.0031
 2276TIP3    H1 6834   5.596   4.564   0.087 -0.3157 -0.8755  0.0862
 2276TIP3    H2 6835   5.529   4.622   0.210 -0.4522 -0.3742 -0.2225
 2277TIP3   OH2 6836   0.906   0.588   3.717  0.1450 -0.1678 -0.4588
 2277TIP3    H1 6837   0.897   0.651   3.645 -0.5146 -0.6371 -0.7985
 2277TIP3    H2 6838   0.991   0.547   3.703  0.2849  0.1740 -0.6243
 2278TIP3   OH2 6839   1.007   2.517   3.115 -0.5158  0.6459 -1.1981
 2278TIP3    H1 6840   1.075   2.497   3.051  0.2412 -0.2773 -0.1498
 2278TIP3    H2 6841   0.934   2.460   3.092  0.1297 -0.4143 -0.6454
 2279TIP3   OH2 6842   0.154   3.817   2.606 -0.5686  0.1465 -0.9437
 2279TIP3    H1 6843   0.219   3.885   2.623  0.2252 -0.2488 -2.2391
 2279TIP3    H2 6844   0.150   3.811   2.511 -1.5251 -0.7822 -0.8666
 2280TIP3   OH2 6845   1.950   5.097   2.676  0.6588  0.5402 -0.2345
 2280TIP3    H1 6846   2.011   5.162   2.640  1.3485 -0.9429 -1.9173
 2280TIP3    H2 6847   1.982   5.013   2.642 -0.5560 -0.6354  1.3612
 2281TIP3   OH2 6848   4.452   1.067   4.517  0.1626  0.6626  0.3725
 2281TIP3    H1 6849   4.375   1.098   4.470 -0.6359  2.3706  2.6288
 2281TIP3    H2 6850   4.474   1.138   4.577  0.4359 -1.7188  3.3535
 2282TIP3   OH2 6851   0.161   2.434   1.575 -0.0539  0.4280 -0.5290
 2282TIP3    H1 6852   0.165   2.346   1.537 -0.7102 -0.3033  1.0108
 2282TIP3    H2 6853   0.089   2.430   1.638  0.5748  1.7693  0.3295
 2283TIP3   OH2 6854   1.751   1.639   0.374  0.6099 -0.4629  0.3153
 2283TIP3    H1 6855   1.669   1.640   0.324  0.7445 -0.2889  0.1014
 2283TIP3    H2 6856   1.818   1.613   0.311  0.4500 -2.5719  0.9039
 2284TIP3   OH2 6857   2.658   0.472   1.450 -0.0222 -0.1530  0.3715
 2284TIP3    H1 6858   2.670   0.496   1.542 -0.4329  1.1892  0.1010
 2284TIP3    H2 6859   2.672   0.377   1.448  0.6868 -0.1048  1.6936
 2285TIP3   OH2 6860   4.389   1.596   0.694  0.0709 -0.4183  0.5271
 2285TIP3    H1 6861   4.349   1.631   0.774  0.1369 -0.0598  0.4060
 2285TIP3    H2 6862   4.482   1.594   0.713  0.1748  0.4264  0.1847
 2286TIP3   OH2 6863   3.582   1.297   1.190  0.1174  0.4912  0.1293
 2286TIP3    H1 6864   3.534   1.351   1.252  0.5729  0.0695  0.8746
 2286TIP3    H2 6865   3.515   1.257   1.134 -0.5030 -0.8166  1.7387
 2287TIP3   OH2 6866   4.144   4.515   0.272 -0.2109  0.4112 -0.1931
 2287TIP3    H1 6867   4.117   4.478   0.356 -0.4379  1.6703  0.3160
 2287TIP3    H2 6868   4.227   4.472   0.252 -0.4188 -0.2825  0.4173
 2288TIP3   OH2 6869   2.496   4.998   5.034  0.3537  0.5841 -0.0191
 2288TIP3    H1 6870   2.411   4.959   5.014  1.2032 -1.3175 -0.1258
 2288TIP3    H2 6871   2.505   5.070   4.971  0.0054 -0.9524 -1.9012
 2289TIP3   OH2 6872   1.746   4.106   1.709  0.3073 -0.0408 -0.4846
 2289TIP3    H1 6873   1.664   4.141   1.674  1.9022  2.8002 -1.7186
 2289TIP3    H2 6874   1.770   4.166   1.780 -0.6571 -3.2594  2.9094
 2290TIP3   OH2 6875   1.158   1.899   2.615  0.2001  0.4359  0.3381
 2290TIP3    H1 6876   1.083   1.891   2.557  0.9900 -0.0431 -0.6559
 2290TIP3    H2 6877   1.215   1.826   2.590 -0.0546 -0.6478  2.6910
 2291TIP3   OH2 6878   2.071   4.126   2.408 -1.0497 -0.8396 -0.5159
 2291TIP3    H1 6879   1.977   4.141   2.417 -0.9845 -0.8588  0.2823
 2291TIP3    H2 6880   2.077   4.038   2.370 -1.3529 -1.6229  1.1432
 2292TIP3   OH2 6881   4.097   3.173   1.777  0.3485  0.2314  0.0051
 2292TIP3    H1 6882   4.009   3.204   1.796  0.4997  1.1422 -0.7337
 2292TIP3    H2 6883   4.146   3.189   1.858  0.3552  1.7189 -0.2695
 2293TIP3   OH2 6884   2.418   4.414   0.820 -0.3338 -0.6113  0.3258
 2293TIP3    H1 6885   2.351   4.472   0.783 -1.3374 -2.0110 -0.1269
 2293TIP3    H2 6886   2.481   4.402   0.750 -1.1455 -1.5941 -0.2590
 2294TIP3   OH2 6887   0.057   0.209   0.846  0.2218 -0.1914 -0.0300
 2294TIP3    H1 6888   0.019   0.196   0.933  0.0187  1.5469  0.1869
 2294TIP3    H2 6889   0.141   0.164   0.849 -0.0040 -0.5606  0.9036
 2295TIP3   OH2 6890   3.913   0.751   1.067 -0.2655 -0.7582  0.1771
 2295TIP3    H1 6891   3.843   0.690   1.091 -2.9867  2.2491  0.6508
 2295TIP3    H2 6892   3.886   0.786   0.982  3.0226 -2.4911 -1.8092
 2296TIP3   OH2 6893   0.634   5.419   2.803 -0.0986  0.0393 -0.0029
 2296TIP3    H1 6894   0.544   5.410   2.834 -0.3207  1.3102 -0.2557
 2296TIP3    H2 6895   0.640   5.355   2.731 -1.5585  1.5679 -1.5877
 2297TIP3   OH2 6896   2.670   2.934   4.375 -0.1904  0.5515 -0.2158
 2297TIP3    H1 6897   2.642   3.013   4.329  1.9311  0.8380 -1.0886
 2297TIP3    H2 6898   2.724   2.887   4.312  0.7804 -0.2637  1.1776
 2298TIP3   OH2 6899   1.502   0.781   1.946 -0.2958  0.4550 -0.1077
 2298TIP3    H1 6900   1.409   0.795   1.964 -0.4272  1.8754 -1.6808
 2298TIP3    H2 6901   1.548   0.838   2.008 -0.5370  0.9078 -0.3437
 2299TIP3   OH2 6902   6.281   2.816   2.732 -0.1612 -0.6503  0.4617
 2299TIP3    H1 6903   6.259   2.758   2.804  1.3565 -1.3161  0.4235
 2299TIP3    H2 6904   6.222   2.891   2.743 -2.3831 -2.2634  0.3420
 2300TIP3   OH2 6905   4.069   5.335   0.149  0.3945 -0.2462  0.5159
 2300TIP3    H1 6906   4.101   5.251   0.117 -1.6147 -1.0895  0.5113
 2300TIP3    H2 6907   4.055   5.321   0.242 -1.0063 -0.3229  0.3181
 2301TIP3   OH2 6908   0.991   5.387   0.792  0.1011 -0.3905 -0.6963
 2301TIP3    H1 6909   0.933   5.413   0.863 -2.2356  0.3063 -2.7075
 2301TIP3    H2 6910   1.055   5.458   0.786  0.5488 -0.6250  0.8500
 2302TIP3   OH2 6911   4.046   3.655   4.849  0.4512 -0.3995 -0.2246
 2302TIP3    H1 6912   4.108   3.623   4.782  0.9997 -0.4949  0.3226
 2302TIP3    H2 6913   3.974   3.593   4.846 -0.1235  0.2919 -1.5955
 2303TIP3   OH2 6914   0.988   0.640   4.611  0.3040  0.5554 -0.1977
 2303TIP3    H1 6915   0.954   0.670   4.527 -0.8245 -0.3470 -0.1048
 2303TIP3    H2 6916   0.963   0.709   4.673 -1.2243  0.0363 -0.1803
 2304TIP3   OH2 6917   4.437   3.718   1.721  0.0206  0.0638  0.1392
 2304TIP3    H1 6918   4.348   3.688   1.740  0.0064 -1.7517 -2.3137
 2304TIP3    H2 6919   4.426   3.807   1.689 -0.8812 -0.0408  0.1363
 2305TIP3   OH2 6920   4.935   0.955   1.523  0.1983  0.1653 -0.2577
 2305TIP3    H1 6921   4.902   0.967   1.434 -1.5853  1.3103  0.5122
 2305TIP3    H2 6922   4.861   0.917   1.571  1.5571 -1.7463  0.4640
 2306TIP3   OH2 6923   3.377   1.718   0.564  0.4562 -0.6545  0.0420
 2306TIP3    H1 6924   3.288   1.684   0.569  0.2637 -0.0537  1.2191
 2306TIP3    H2 6925   3.401   1.735   0.655  0.8420  1.5008 -0.4028
 2307TIP3   OH2 6926   4.965   2.743   1.226 -0.1086 -0.4168  0.5273
 2307TIP3    H1 6927   4.877   2.707   1.223 -0.0661 -0.6283  1.5704
 2307TIP3    H2 6928   5.022   2.666   1.233  0.1640 -0.2796 -0.0659
 2308TIP3   OH2 6929   1.272   2.635   4.322 -0.0181  0.0415  0.0673
 2308TIP3    H1 6930   1.309   2.662   4.407 -0.2515  0.6962 -0.0329
 2308TIP3    H2 6931   1.282   2.712   4.266  1.6825 -0.9110 -1.0285
 2309TIP3   OH2 6932   4.764   4.568   0.885 -0.0414  0.3958 -0.0938
 2309TIP3    H1 6933   4.701   4.496   0.882 -0.8486  1.0986 -0.1104
 2309TIP3    H2 6934   4.810   4.556   0.968 -1.1484  0.6759  0.5825
 2310TIP3   OH2 6935   3.345   5.928   2.188  0.3932  0.1969 -0.2293
 2310TIP3    H1 6936   3.291   6.003   2.212 -1.6343 -1.4408  0.6951
 2310TIP3    H2 6937   3.288   5.874   2.132  1.2534 -1.3191  0.2810
 2311TIP3   OH2 6938   0.335   1.667   3.017  0.0098  0.5481  0.3807
 2311TIP3    H1 6939   0.249   1.708   3.026 -0.6089 -0.1163 -1.8197
 2311TIP3    H2 6940   0.319   1.575   3.038  0.2722  0.4985  0.3574
 2312TIP3   OH2 6941   3.118   5.925   1.739  0.2264 -0.2119  0.3625
 2312TIP3    H1 6942   3.138   5.832   1.751  2.3733 -0.0224 -1.1940
 2312TIP3    H2 6943   3.140   5.943   1.647 -1.8518  1.4657  0.1048
 2313TIP3   OH2 6944   5.259   3.275   0.155  0.2744  0.2199 -0.3240
 2313TIP3    H1 6945   5.251   3.214   0.082 -0.3257 -0.3563  0.2077
 2313TIP3    H2 6946   5.169   3.293   0.182  0.4628  1.0527 -0.2339
 2314TIP3   OH2 6947   4.742   2.993   4.839 -0.4802 -0.1797  0.6258
 2314TIP3    H1 6948   4.805   2.921   4.851 -0.9746 -0.4322  1.9609
 2314TIP3    H2 6949   4.757   3.050   4.915 -0.3921  0.9116 -0.1950
 2315TIP3   OH2 6950   1.796   1.314   3.516 -0.4319  0.2375 -0.3529
 2315TIP3    H1 6951   1.885   1.348   3.519 -0.9169  1.5463 -0.1677
 2315TIP3    H2 6952   1.804   1.228   3.473  0.9945  0.0151  0.2987
 2316TIP3   OH2 6953   2.508   0.853   1.488  0.1959  0.6284  0.1285
 2316TIP3    H1 6954   2.535   0.934   1.445  0.0697  0.4711 -0.2485
 2316TIP3    H2 6955   2.558   0.851   1.569  1.2477  0.3820 -0.5149
 2317TIP3   OH2 6956   1.880   0.312   4.949  0.2696 -0.0566 -0.0317
 2317TIP3    H1 6957   1.903   0.242   5.009  1.6234  0.5646  0.2120
 2317TIP3    H2 6958   1.794   0.342   4.978 -1.6788 -3.3357 -1.7692
 2318TIP3   OH2 6959   2.369   0.057   0.568  0.2472 -0.0205  0.5697
 2318TIP3    H1 6960   2.297   0.071   0.630  0.0668  0.1258  0.3249
 2318TIP3    H2 6961   2.436   0.012   0.620 -1.2213 -3.0133  0.0822
 2319TIP3   OH2 6962   4.007   0.257   1.139  0.4876 -0.5200 -0.1289
 2319TIP3    H1 6963   3.915   0.268   1.115  1.2173  2.2797 -2.1430
 2319TIP3    H2 6964   4.014   0.296   1.227 -0.0054  0.6324 -0.5860
 2320TIP3   OH2 6965   3.670   4.508   0.136  0.0660 -0.6361  0.1646
 2320TIP3    H1 6966   3.595   4.515   0.194 -0.5569 -0.1252 -0.6787
 2320TIP3    H2 6967   3.740   4.473   0.191 -0.8991 -1.5188  0.8522
 2321TIP3   OH2 6968   4.817   1.446   1.709  0.0967  0.5000  0.5969
 2321TIP3    H1 6969   4.895   1.484   1.748  0.4338 -0.3096  0.7261
 2321TIP3    H2 6970   4.814   1.356   1.743  0.2038 -0.1114 -0.9338
 2322TIP3   OH2 6971   0.869   0.846   1.279 -0.1649  0.1132  0.4960
 2322TIP3    H1 6972   0.820   0.811   1.205  0.5376  1.6773 -0.7753
 2322TIP3    H2 6973   0.823   0.927   1.301 -0.4423 -0.3921  1.8902
 2323TIP3   OH2 6974   2.247   0.324   1.172  0.2248  0.0421  0.2202
 2323TIP3    H1 6975   2.201   0.361   1.097  0.3756 -0.5392 -0.1579
 2323TIP3    H2 6976   2.332   0.369   1.173 -0.2844  1.0571  0.8713
 2324TIP3   OH2 6977   1.016   4.814   2.962 -0.6047  0.2084  0.2902
 2324TIP3    H1 6978   1.009   4.857   2.876 -1.2192 -0.1705  0.1392
 2324TIP3    H2 6979   0.941   4.754   2.964 -0.2659 -0.2014  0.8605
 2325TIP3   OH2 6980   4.152   0.861   3.486 -0.0847  0.3277  0.2790
 2325TIP3    H1 6981   4.112   0.834   3.569 -0.8263  0.6457  0.0341
 2325TIP3    H2 6982   4.108   0.943   3.465  1.1571  1.0179  0.3193
 2326TIP3   OH2 6983   1.575   1.087   2.630 -0.0154  0.0498  0.1979
 2326TIP3    H1 6984   1.507   1.102   2.564  0.0748 -0.2623  0.0364
 2326TIP3    H2 6985   1.574   1.167   2.683  0.2257  0.5025 -0.4566
 2327TIP3   OH2 6986   0.235   5.865   4.400 -0.2607  0.0026 -0.2299
 2327TIP3    H1 6987   0.147   5.901   4.388 -0.1092  0.1372 -1.0054
 2327TIP3    H2 6988   0.238   5.838   4.492 -1.0499  0.1586 -0.1517
 2328TIP3   OH2 6989   2.861   3.293   5.131 -0.3834 -0.1241  0.2577
 2328TIP3    H1 6990   2.808   3.281   5.053  1.1565 -1.1237 -0.6750
 2328TIP3    H2 6991   2.870   3.206   5.169  1.3997 -0.1734 -0.1762
 2329TIP3   OH2 6992   0.872   5.936   2.272 -0.5217 -0.2384 -0.2557
 2329TIP3    H1 6993   0.814   5.993   2.322 -0.3696 -2.0608  2.2058
 2329TIP3    H2 6994   0.955   5.983   2.267 -0.2999 -0.2988  2.0146
 2330TIP3   OH2 6995   4.809   4.468   0.125  0.0621 -0.2970  0.0321
 2330TIP3    H1 6996   4.894   4.506   0.147 -0.2458  0.4192  0.0181
 2330TIP3    H2 6997   4.748   4.541   0.131 -0.3827 -0.5607 -1.0005
 2331TIP3   OH2 6998   5.906   4.192   4.114  0.0469  0.0684 -0.2706
 2331TIP3    H1 6999   5.924   4.100   4.137 -2.6308 -0.7769 -1.1529
 2331TIP3    H2 7000   5.885   4.189   4.021  0.5326  1.7047 -0.4531
 2332TIP3   OH2 7001   1.267   5.642   2.850  0.1038  0.1600  0.5123
 2332TIP3    H1 7002   1.336   5.632   2.915  0.8347 -0.2222 -0.2952
 2332TIP3    H2 7003   1.212   5.565   2.862  1.1215 -0.7290 -0.3248
 2333TIP3   OH2 7004   5.311   0.685   0.510 -0.3341  0.1015 -0.1800
 2333TIP3    H1 7005   5.320   0.741   0.587  0.5719  0.0466 -0.2300
 2333TIP3    H2 7006   5.265   0.739   0.446 -1.1712  0.1177  0.4187
 2334TIP3   OH2 7007   4.650   4.015   3.856  0.0106  0.4344 -0.5758
 2334TIP3    H1 7008   4.693   4.016   3.771 -0.1016 -1.2745 -0.6964
 2334TIP3    H2 7009   4.565   3.973   3.840  0.0768 -0.0982  0.4070
 2335TIP3   OH2 7010   4.310   0.898   5.041  0.4366 -0.1691  0.3025
 2335TIP3    H1 7011   4.246   0.909   5.112  0.6963  0.2483  0.4727
 2335TIP3    H2 7012   4.354   0.816   5.063  1.0822  0.3675  1.0872
 2336TIP3   OH2 7013   0.667   0.297   4.206  0.1805  0.2257 -0.0542
 2336TIP3    H1 7014   0.579   0.331   4.189  0.4686  1.4044  0.6566
 2336TIP3    H2 7015   0.702   0.278   4.119 -1.2865 -1.7362 -0.2896
 2337TIP3   OH2 7016   5.297   1.221   4.478  0.3074  0.3456 -0.0442
 2337TIP3    H1 7017   5.335   1.138   4.508  1.5383  0.8957 -0.0220
 2337TIP3    H2 7018   5.221   1.195   4.426  0.5566 -0.7906  0.1284
 2338TIP3   OH2 7019   0.253   0.341   2.209  0.6773 -0.2526 -0.3846
 2338TIP3    H1 7020   0.236   0.274   2.144  0.0041 -2.3931  1.8268
 2338TIP3    H2 7021   0.166   0.369   2.238  0.9586  0.9109 -0.6263
 2339TIP3   OH2 7022   0.954   0.180   1.889  0.1679  0.5581 -0.1786
 2339TIP3    H1 7023   1.012   0.129   1.946 -2.1204 -1.5796  0.4079
 2339TIP3    H2 7024   0.922   0.251   1.945 -0.9545 -0.6945  0.8355
 2340TIP3   OH2 7025   2.382   4.935   3.163 -0.3057 -0.1507 -0.3515
 2340TIP3    H1 7026   2.303   4.940   3.110  0.6664 -0.4547 -1.8701
 2340TIP3    H2 7027   2.400   4.841   3.170 -0.6596 -0.1427  0.9102
 2341TIP3   OH2 7028   4.965   4.742   4.835 -0.0527 -0.1455  0.1485
 2341TIP3    H1 7029   4.938   4.691   4.759  2.9429 -0.0455 -1.1134
 2341TIP3    H2 7030   4.982   4.830   4.801 -0.3015  0.3764  1.2939
 2342TIP3   OH2 7031   3.070   5.676   5.085 -0.3026 -0.3012 -0.5480
 2342TIP3    H1 7032   3.069   5.771   5.075  0.6001  0.0046  1.7312
 2342TIP3    H2 7033   3.135   5.646   5.022 -1.7444  0.3607 -2.4674
 2343TIP3   OH2 7034   5.539   0.407   3.271  0.6654  0.0524 -0.5367
 2343TIP3    H1 7035   5.445   0.420   3.281  0.4162 -1.1964 -0.9853
 2343TIP3    H2 7036   5.576   0.433   3.355 -0.1949 -0.3047 -0.0279
 2344TIP3   OH2 7037   1.051   3.550   2.164 -0.2319 -0.1299  0.7139
 2344TIP3    H1 7038   1.021   3.469   2.206  0.1788 -0.4810  0.3402
 2344TIP3    H2 7039   1.146   3.540   2.158  0.0003  0.9807  1.9331
 2345TIP3   OH2 7040   3.291   4.370   0.043  0.0080 -0.5031 -0.3856
 2345TIP3    H1 7041   3.291   4.458   0.006 -1.2781 -0.6177 -0.6940
 2345TIP3    H2 7042   3.199   4.348   0.053  0.2491 -2.6042 -2.1877
 2346TIP3   OH2 7043   1.601   5.442   1.723 -0.7362 -0.4178 -0.7453
 2346TIP3    H1 7044   1.669   5.382   1.753 -0.2010 -0.1133 -1.3134
 2346TIP3    H2 7045   1.521   5.411   1.765  0.0236  0.2256  1.3191
 2347TIP3   OH2 7046   5.812   4.501   2.913  0.4509  0.7411 -0.9032
 2347TIP3    H1 7047   5.781   4.420   2.873  3.2708 -0.5133 -0.7984
 2347TIP3    H2 7048   5.777   4.570   2.856 -1.7097 -0.5038 -1.2062
 2348TIP3   OH2 7049   3.470   4.098   3.096 -0.5107 -0.3230  0.0128
 2348TIP3    H1 7050   3.533   4.029   3.117  0.4743  0.3299 -0.7572
 2348TIP3    H2 7051   3.471   4.156   3.172  0.4918  0.1623 -0.3530
 2349TIP3   OH2 7052   0.351   1.803   5.037  0.1599 -0.2631  0.6063
 2349TIP3    H1 7053   0.400   1.723   5.057 -0.2283 -0.5641  0.3672
 2349TIP3    H2 7054   0.304   1.783   4.956  0.0352  0.1981  0.5605
 2350TIP3   OH2 7055   6.157   4.783   1.281  0.0277 -0.0680 -0.4139
 2350TIP3    H1 7056   6.194   4.789   1.369 -1.9304 -0.4001  0.4865
 2350TIP3    H2 7057   6.199   4.705   1.243  0.0333 -0.6145  0.6695
 2351TIP3   OH2 7058   1.021   2.272   4.828  0.2910  0.4874  0.1977
 2351TIP3    H1 7059   1.111   2.301   4.815  1.1696 -2.2890 -0.5004
 2351TIP3    H2 7060   1.028   2.180   4.851 -2.3313  0.5354  1.5632
 2352TIP3   OH2 7061   3.188   1.776   4.784  0.2994  0.1102  0.2870
 2352TIP3    H1 7062   3.273   1.820   4.782 -0.8809  2.7537  2.4069
 2352TIP3    H2 7063   3.198   1.707   4.851  0.9998 -0.2308 -0.1532
 2353TIP3   OH2 7064   2.413   3.944   4.761 -0.2896  0.5016 -0.0243
 2353TIP3    H1 7065   2.437   4.008   4.693  3.6207 -0.0251  0.6123
 2353TIP3    H2 7066   2.414   3.860   4.715 -0.3790  0.4162  0.1335
 2354TIP3   OH2 7067   0.634   2.402   1.155 -0.0021 -0.1654 -0.0938
 2354TIP3    H1 7068   0.676   2.316   1.146  0.6331  0.0101  0.9931
 2354TIP3    H2 7069   0.567   2.403   1.087 -1.5134 -2.3976  1.2265
 2355TIP3   OH2 7070   0.402   2.756   0.984  0.2471  0.3547 -0.3525
 2355TIP3    H1 7071   0.383   2.844   0.953 -1.3344  0.2725  0.3235
 2355TIP3    H2 7072   0.319   2.709   0.980  0.8809 -0.8731  0.0806
 2356TIP3   OH2 7073   1.028   1.254   2.135  0.2439  0.1782 -0.3010
 2356TIP3    H1 7074   1.046   1.347   2.125 -1.4405  0.6744  0.8550
 2356TIP3    H2 7075   1.069   1.231   2.219 -0.9559  0.3553  0.3502
 2357TIP3   OH2 7076   3.620   4.542   0.689 -0.4865  0.2567 -0.5145
 2357TIP3    H1 7077   3.631   4.601   0.614 -1.4142 -0.8355 -1.5631
 2357TIP3    H2 7078   3.589   4.460   0.650 -2.1472  0.0178  1.1870
 2358TIP3   OH2 7079   4.244   2.030   3.289  0.6836  0.4635  0.0653
 2358TIP3    H1 7080   4.212   2.042   3.200  0.0563 -1.3934 -0.0030
 2358TIP3    H2 7081   4.181   2.077   3.344  0.2529  0.4119 -0.3792
 2359TIP3   OH2 7082   1.529   2.287   2.208 -0.4719  0.5912  0.0470
 2359TIP3    H1 7083   1.559   2.204   2.244  1.2949  1.9212  1.9062
 2359TIP3    H2 7084   1.470   2.322   2.274  2.4697  2.8707  1.7536
 2360TIP3   OH2 7085   2.790   0.067   1.257  0.0428 -0.5383 -0.1598
 2360TIP3    H1 7086   2.860   0.121   1.221  0.9848 -1.1678  0.6673
 2360TIP3    H2 7087   2.780  -0.005   1.195 -0.9912  0.3625 -1.0949
 2361TIP3   OH2 7088   2.633   3.209   4.622 -0.3445  0.0779 -0.2904
 2361TIP3    H1 7089   2.673   3.172   4.543  1.7332  0.8531  0.3465
 2361TIP3    H2 7090   2.550   3.247   4.591  1.2474  2.0080 -2.5231
 2362TIP3   OH2 7091   4.683   1.796   2.233 -0.1576  0.0641  0.2862
 2362TIP3    H1 7092   4.699   1.725   2.171  0.1837 -0.4399  0.9390
 2362TIP3    H2 7093   4.764   1.804   2.282 -1.1316 -1.0963  2.2082
 2363TIP3   OH2 7094   2.692   2.794   3.107 -0.1057  0.7741 -0.0739
 2363TIP3    H1 7095   2.645   2.762   3.183  0.6500  1.6626  0.8002
 2363TIP3    H2 7096   2.741   2.718   3.075 -2.2928 -0.2347 -1.1854
 2364TIP3   OH2 7097   0.014   3.893   0.499  0.3935  0.1197 -0.4235
 2364TIP3    H1 7098   0.062   3.918   0.578 -1.1567  1.2767  0.2169
 2364TIP3    H2 7099  -0.030   3.812   0.522  1.0799 -0.3129 -0.6099
 2365TIP3   OH2 7100   3.604   4.410   2.022 -0.0684  0.0100  0.2440
 2365TIP3    H1 7101   3.607   4.315   2.031  1.1482  0.0816  0.8255
 2365TIP3    H2 7102   3.669   4.442   2.084  1.3313  1.0966 -1.6517
 2366TIP3   OH2 7103   3.802   5.532   0.692 -0.6298  0.0211  0.5282
 2366TIP3    H1 7104   3.757   5.448   0.680 -2.0779  0.8318  0.0050
 2366TIP3    H2 7105   3.737   5.587   0.736  0.4477  0.7529  1.2216
 2367TIP3   OH2 7106   4.748   4.207   2.253  0.6317  0.0757 -0.4247
 2367TIP3    H1 7107   4.780   4.272   2.316  1.7419  0.0830 -0.9740
 2367TIP3    H2 7108   4.693   4.258   2.193  0.3015  0.2327  0.0053
 2368TIP3   OH2 7109   3.605   4.287   3.936  0.1410 -0.1207  0.1483
 2368TIP3    H1 7110   3.673   4.355   3.933 -0.5365  0.5565 -0.4350
 2368TIP3    H2 7111   3.526   4.335   3.962 -0.3115 -0.7209 -0.1108
 2369TIP3   OH2 7112   1.034   5.509   2.954 -0.0999  0.5072  0.6682
 2369TIP3    H1 7113   0.959   5.558   2.920 -0.5783 -0.6271  0.0279
 2369TIP3    H2 7114   1.035   5.428   2.903  0.0699 -0.5974  2.3561
 2370TIP3   OH2 7115   0.788   1.127   3.430 -0.0356 -0.0643 -0.1889
 2370TIP3    H1 7116   0.801   1.113   3.337  1.9155 -0.8149  0.1360
 2370TIP3    H2 7117   0.771   1.039   3.465  0.2991  0.0570  0.2880
 2371TIP3   OH2 7118  -0.006   4.452   2.412 -0.3405 -0.6532 -0.2834
 2371TIP3    H1 7119  -0.034   4.373   2.457  0.3859 -0.6320  0.2162
 2371TIP3    H2 7120   0.085   4.464   2.438 -0.1149 -0.2633 -1.2315
 2372TIP3   OH2 7121   3.881   2.298   2.185 -0.2027 -0.0757  0.2353
 2372TIP3    H1 7122   3.968   2.263   2.163  0.6392  1.3408  1.1626
 2372TIP3    H2 7123   3.854   2.248   2.262 -0.9616 -1.6204 -0.9760
 2373TIP3   OH2 7124   5.796   1.088   0.033 -0.3100 -0.0654  0.0526
 2373TIP3    H1 7125   5.817   1.076  -0.060 -0.2782  1.5706 -0.1743
 2373TIP3    H2 7126   5.828   1.008   0.075  1.2271 -0.0960 -1.0987
 2374TIP3   OH2 7127   3.734   2.786   1.945 -0.1367 -0.1010 -0.5367
 2374TIP3    H1 7128   3.783   2.850   1.893 -0.9943 -0.5916 -2.0021
 2374TIP3    H2 7129   3.798   2.720   1.969  0.1392 -0.2219 -1.5718
 2375TIP3   OH2 7130   4.248   5.510   3.573  0.1167  0.2926 -0.2013
 2375TIP3    H1 7131   4.212   5.464   3.496 -1.4509 -1.6406  1.5594
 2375TIP3    H2 7132   4.282   5.440   3.628 -0.2920  1.4611  1.6009
 2376TIP3   OH2 7133   4.390   0.212   1.640  0.2935  0.4186 -0.1485
 2376TIP3    H1 7134   4.419   0.121   1.629 -0.7748  0.1396 -0.8495
 2376TIP3    H2 7135   4.403   0.230   1.733  0.2701 -0.5552  0.0537
 2377TIP3   OH2 7136   0.584   5.757   2.954 -0.1580  0.3815 -0.0555
 2377TIP3    H1 7137   0.565   5.848   2.930 -3.1972 -1.0452 -4.3287
 2377TIP3    H2 7138   0.499   5.717   2.965  1.1234 -1.8836  2.5727
 2378TIP3   OH2 7139   3.422   1.449   1.621 -0.1500 -0.5942 -0.2140
 2378TIP3    H1 7140   3.512   1.425   1.643  0.0026  0.0303 -0.1418
 2378TIP3    H2 7141   3.369   1.377   1.655  0.0993  0.1842  1.9476
 2379TIP3   OH2 7142   3.108   5.815   2.843  0.4630 -0.0453  0.5440
 2379TIP3    H1 7143   3.174   5.822   2.773  0.4764 -0.5993  0.4965
 2379TIP3    H2 7144   3.115   5.724   2.873  0.0633  0.0346  0.8793
 2380TIP3   OH2 7145   3.738   4.905   4.842 -0.4960  0.6796 -0.2910
 2380TIP3    H1 7146   3.765   4.903   4.751 -1.5928  1.5058 -0.6583
 2380TIP3    H2 7147   3.671   4.973   4.846 -0.2620  0.8610  1.1932
 2381TIP3   OH2 7148   0.105   1.870   4.902 -0.0236  0.0806 -0.1219
 2381TIP3    H1 7149   0.100   1.792   4.957  0.7955 -0.3628 -0.6556
 2381TIP3    H2 7150   0.096   1.943   4.964 -1.6477 -0.4297  0.2728
 2382TIP3   OH2 7151   4.314   1.756   3.272  0.1784  0.4843 -0.1386
 2382TIP3    H1 7152   4.260   1.825   3.310  0.1899 -0.3106  1.3907
 2382TIP3    H2 7153   4.293   1.759   3.178 -3.1721 -0.3228  0.4460
 2383TIP3   OH2 7154   6.292   3.339   1.591 -0.9992 -0.1265 -0.3342
 2383TIP3    H1 7155   6.222   3.319   1.654 -1.4783  2.6701  0.1421
 2383TIP3    H2 7156   6.246   3.373   1.514 -0.3970 -3.2326 -2.2179
 2384TIP3   OH2 7157   5.252   1.426   2.830  0.1233 -0.4805  0.0495
 2384TIP3    H1 7158   5.215   1.339   2.817 -1.9295  0.4225 -0.5611
 2384TIP3    H2 7159   5.264   1.460   2.742  0.7098 -0.0577  0.2895
 2385TIP3   OH2 7160   1.296   0.539   3.324  0.0458  0.0170  0.2165
 2385TIP3    H1 7161   1.354   0.506   3.393 -0.1544  0.0652  0.4107
 2385TIP3    H2 7162   1.327   0.629   3.309  0.2164 -0.0601  0.1015
 2386TIP3   OH2 7163   3.285   5.145   1.201 -0.0669 -0.3641  0.0220
 2386TIP3    H1 7164   3.329   5.077   1.149  0.7792 -0.0378  0.2969
 2386TIP3    H2 7165   3.351   5.175   1.263 -0.3745  0.8316 -0.1956
 2387TIP3   OH2 7166   5.839   3.926   1.419  0.4173 -0.3834  0.5992
 2387TIP3    H1 7167   5.904   3.856   1.412  1.0671  0.3987 -2.0669
 2387TIP3    H2 7168   5.776   3.908   1.349 -0.7119  0.4324  1.3689
 2388TIP3   OH2 7169   3.736   5.600   2.408 -0.2270  0.0950 -0.2308
 2388TIP3    H1 7170   3.697   5.660   2.473  1.3607  0.6273  0.2835
 2388TIP3    H2 7171   3.738   5.515   2.453 -0.7930  0.0551 -0.2718
 2389TIP3   OH2 7172   2.703   2.614   3.404  0.6108  0.0742  0.0825
 2389TIP3    H1 7173   2.790   2.577   3.422  0.3459  0.7946  3.4671
 2389TIP3    H2 7174   2.643   2.560   3.455 -0.7642  0.5118 -1.0249
 2390TIP3   OH2 7175   2.068   0.502   3.547 -0.0966 -0.1054 -0.5605
 2390TIP3    H1 7176   2.024   0.545   3.619 -0.1468 -1.3076  0.1489
 2390TIP3    H2 7177   2.075   0.410   3.574  0.3465 -0.4747 -1.8531
 2391TIP3   OH2 7178   1.543   5.766   0.793 -0.8070  0.2826  0.7001
 2391TIP3    H1 7179   1.491   5.823   0.736 -1.6523  0.9988  2.1209
 2391TIP3    H2 7180   1.601   5.827   0.840  0.3342 -0.3617  0.1590
 2392TIP3   OH2 7181   3.970   4.762   4.375  0.0094  0.0029  0.2278
 2392TIP3    H1 7182   4.044   4.747   4.316  0.0649  0.2621  0.2292
 2392TIP3    H2 7183   4.006   4.814   4.447 -0.2413  0.3946  0.0750
 2393TIP3   OH2 7184   0.974   4.827   4.845 -0.3291 -0.0119  0.4324
 2393TIP3    H1 7185   1.042   4.761   4.861  0.4094  0.6518  0.0689
 2393TIP3    H2 7186   0.962   4.869   4.930  0.9601  1.0240  0.1342
 2394TIP3   OH2 7187   1.548   4.143   2.973  0.3073 -0.2724 -1.0913
 2394TIP3    H1 7188   1.533   4.049   2.977 -2.0261 -0.0990 -3.0296
 2394TIP3    H2 7189   1.596   4.156   2.891  2.4927  0.1149  0.1809
 2395TIP3   OH2 7190   1.886   4.496   3.629  0.1647  0.2561  0.5013
 2395TIP3    H1 7191   1.953   4.476   3.563  0.1457  1.7993 -0.0162
 2395TIP3    H2 7192   1.926   4.470   3.712  0.5769 -0.7764  0.0112
 2396TIP3   OH2 7193   2.735   1.555   1.861  0.0706 -0.1681  0.0765
 2396TIP3    H1 7194   2.782   1.523   1.938  0.2107 -0.5995 -0.1846
 2396TIP3    H2 7195   2.803   1.572   1.797 -0.1486 -1.1688 -0.4384
 2397TIP3   OH2 7196   0.256   0.392   3.870 -0.2449 -0.2303 -0.9241
 2397TIP3    H1 7197   0.228   0.306   3.836  1.2189 -0.8314 -0.6929
 2397TIP3    H2 7198   0.187   0.416   3.932  0.1877 -2.1177  0.3909
 2398TIP3   OH2 7199   3.612   3.503   3.053  0.2192  0.1361  0.4028
 2398TIP3    H1 7200   3.574   3.550   2.978  0.0571  2.2700  1.7413
 2398TIP3    H2 7201   3.704   3.526   3.052  0.3198 -0.2485  0.5784
 2399TIP3   OH2 7202   5.812   4.716   3.788  0.7860  0.6826 -0.6327
 2399TIP3    H1 7203   5.827   4.704   3.695 -0.7560  2.1715 -1.1168
 2399TIP3    H2 7204   5.840   4.633   3.828  1.5012  0.0417 -2.3834
 2400TIP3   OH2 7205   4.957   0.420   3.107  0.1167  0.0643 -0.0851
 2400TIP3    H1 7206   4.973   0.496   3.052 -1.7972  1.0155  0.5770
 2400TIP3    H2 7207   4.952   0.455   3.196  2.3852 -1.3324  0.6653
 2401TIP3   OH2 7208   3.919   1.161   0.846  0.0872 -0.5471  0.5963
 2401TIP3    H1 7209   3.902   1.190   0.757  2.9395  0.0033  0.1511
 2401TIP3    H2 7210   3.859   1.086   0.858  0.5388 -1.4822 -2.2460
 2402TIP3   OH2 7211   1.471   2.194   0.356  0.2081 -0.1173 -0.0727
 2402TIP3    H1 7212   1.515   2.279   0.359  0.4409 -0.2618  1.3799
 2402TIP3    H2 7213   1.478   2.167   0.265  0.7662  1.0893 -0.4124
 2403TIP3   OH2 7214   3.669   0.206   0.304  0.0527  0.1442  0.9016
 2403TIP3    H1 7215   3.645   0.250   0.385 -1.5010 -0.0139  0.5570
 2403TIP3    H2 7216   3.630   0.260   0.235  1.5145  0.3915  0.2229
 2404TIP3   OH2 7217   0.439   4.213   3.751 -0.3623  0.3548  0.0447
 2404TIP3    H1 7218   0.381   4.224   3.826  0.9429 -0.6750  1.2516
 2404TIP3    H2 7219   0.526   4.200   3.789  0.4403  0.4471 -1.6702
 2405TIP3   OH2 7220   3.246   4.460   4.815  0.1992 -0.5681 -0.0435
 2405TIP3    H1 7221   3.299   4.391   4.854  2.8385 -0.0347 -2.3679
 2405TIP3    H2 7222   3.307   4.534   4.806 -1.8966  1.2798  0.2307
 2406TIP3   OH2 7223   6.161   0.052   3.063 -0.1044  0.5711 -0.3718
 2406TIP3    H1 7224   6.121   0.068   3.149 -0.4203 -2.5315  0.1506
 2406TIP3    H2 7225   6.087   0.057   3.002 -0.5632 -0.8334  0.0404
 2407TIP3   OH2 7226   2.619   5.469   0.334 -0.5376  0.0288 -0.1251
 2407TIP3    H1 7227   2.595   5.560   0.350 -3.1652 -0.5413 -0.3751
 2407TIP3    H2 7228   2.559   5.418   0.389 -0.5505 -1.5913 -1.5500
 2408TIP3   OH2 7229   0.389   2.126   2.635  0.3417  0.1891  0.2251
 2408TIP3    H1 7230   0.437   2.082   2.565  1.6268 -0.0854  1.2281
 2408TIP3    H2 7231   0.426   2.089   2.716  0.0414  1.6418  1.0594
 2409TIP3   OH2 7232   2.912   3.723   0.701 -0.0094  0.6258  0.0813
 2409TIP3    H1 7233   2.998   3.717   0.657 -0.2895  0.1922 -0.4255
 2409TIP3    H2 7234   2.900   3.636   0.741  0.1155  0.9275  0.7893
 2410TIP3   OH2 7235   5.264   3.485   4.822  0.6064 -0.5745  0.0935
 2410TIP3    H1 7236   5.179   3.507   4.783  1.1240 -1.6274 -1.7349
 2410TIP3    H2 7237   5.269   3.540   4.900 -1.5236 -0.1052 -0.0291
 2411TIP3   OH2 7238   1.971   0.941   0.196  0.2442 -0.4936  0.2870
 2411TIP3    H1 7239   1.996   0.885   0.123 -1.1546  0.6816 -1.1463
 2411TIP3    H2 7240   1.876   0.931   0.204  0.2227  0.2672  1.2096
 2412TIP3   OH2 7241   6.263   4.078   4.308 -0.7570  0.1491 -0.5460
 2412TIP3    H1 7242   6.267   4.148   4.242 -1.1426  1.1393  0.4524
 2412TIP3    H2 7243   6.180   4.033   4.290 -0.5094 -0.0741 -1.1903
 2413TIP3   OH2 7244   2.188   0.421   0.389 -0.3450  0.2063 -0.2808
 2413TIP3    H1 7245   2.099   0.448   0.367 -0.8963 -0.8688  0.5431
 2413TIP3    H2 7246   2.199   0.337   0.344  0.2347  0.2973 -0.3166
 2414TIP3   OH2 7247   4.044   4.035   2.564 -0.0174 -0.2506 -0.1894
 2414TIP3    H1 7248   3.980   3.995   2.622  0.7417 -1.2597 -0.0071
 2414TIP3    H2 7249   4.115   4.063   2.622 -0.4014  1.0930 -0.3562
 2415TIP3   OH2 7250   0.139   2.609   0.973 -0.0439  0.4307  0.4271
 2415TIP3    H1 7251   0.052   2.645   0.961 -1.5487 -2.7101  0.9373
 2415TIP3    H2 7252   0.133   2.558   1.054  0.4609 -4.3800 -2.2040
 2416TIP3   OH2 7253   2.500   2.623   0.949 -0.0462 -0.4799 -0.3855
 2416TIP3    H1 7254   2.461   2.536   0.951 -1.6728  0.2031 -0.6953
 2416TIP3    H2 7255   2.504   2.646   0.856  0.1857 -0.1491 -0.2959
 2417TIP3   OH2 7256   4.169   1.097   0.951 -0.4298 -0.3052 -0.0924
 2417TIP3    H1 7257   4.216   1.176   0.925 -0.4187 -0.3847 -0.3165
 2417TIP3    H2 7258   4.078   1.113   0.923 -0.5995 -0.0357  0.5864
 2418TIP3   OH2 7259   1.305   1.982   1.431 -0.2715  0.5183 -0.6243
 2418TIP3    H1 7260   1.310   1.887   1.421 -0.9067  0.5186 -0.9453
 2418TIP3    H2 7261   1.374   2.002   1.495  0.4489 -0.0476 -1.2061
 2419TIP3   OH2 7262   5.602   5.618   0.049 -0.2188 -0.8884  0.7185
 2419TIP3    H1 7263   5.683   5.651   0.011 -1.1877  0.2907 -0.4271
 2419TIP3    H2 7264   5.570   5.690   0.104  0.1195 -1.8154  2.1791
 2420TIP3   OH2 7265   5.268   1.386   4.922 -0.1378 -0.4243  0.3605
 2420TIP3    H1 7266   5.279   1.465   4.868  0.3685 -0.3438  0.5713
 2420TIP3    H2 7267   5.176   1.387   4.948  0.0503  0.5515  1.0593
 2421TIP3   OH2 7268   0.690   3.934   2.808  0.2223  0.5087 -0.1993
 2421TIP3    H1 7269   0.729   3.850   2.784  0.8318  0.4267  1.0529
 2421TIP3    H2 7270   0.732   3.959   2.889 -1.5235  0.9711  0.6218
 2422TIP3   OH2 7271   0.147   4.264  -0.036  0.2288  0.0740 -0.3963
 2422TIP3    H1 7272   0.116   4.304   0.045 -1.4649 -0.3226 -0.8079
 2422TIP3    H2 7273   0.213   4.201  -0.007  0.5610  0.8313  0.5509
 2423TIP3   OH2 7274   4.567   4.143   2.916 -0.3814 -0.5085 -0.5857
 2423TIP3    H1 7275   4.616   4.061   2.923  1.2813 -0.1528 -4.7727
 2423TIP3    H2 7276   4.485   4.117   2.872 -0.5386 -0.1397 -0.5083
 2424TIP3   OH2 7277   0.716   4.700   3.560 -0.2180 -0.4276 -0.2594
 2424TIP3    H1 7278   0.706   4.780   3.507 -0.3474 -0.2976 -0.0398
 2424TIP3    H2 7279   0.675   4.631   3.509 -1.5068 -0.0607  0.2548
 2425TIP3   OH2 7280   5.228   3.128   1.905 -0.1705  0.6331  0.0325
 2425TIP3    H1 7281   5.189   3.198   1.959 -1.7098 -1.3940  1.7565
 2425TIP3    H2 7282   5.197   3.147   1.817 -2.5347  0.8987  0.8341
 2426TIP3   OH2 7283   5.118   4.528   4.383  0.0038  0.4867 -0.0942
 2426TIP3    H1 7284   5.151   4.493   4.467  1.5168  1.0090 -0.4367
 2426TIP3    H2 7285   5.091   4.450   4.334 -1.6467  0.2275  1.1558
 2427TIP3   OH2 7286   1.286   4.744   1.799  0.1729 -0.0289  0.2988
 2427TIP3    H1 7287   1.220   4.791   1.850 -0.4855 -1.8654  1.2295
 2427TIP3    H2 7288   1.258   4.653   1.803  1.5941 -0.5686 -1.1428
 2428TIP3   OH2 7289   1.780   2.644   0.114 -0.3425 -0.5210 -0.0340
 2428TIP3    H1 7290   1.866   2.660   0.074 -0.8409  0.8469 -0.6346
 2428TIP3    H2 7291   1.793   2.665   0.206  0.3150 -1.7319  0.1663
 2429TIP3   OH2 7292   2.952   0.295   4.311 -0.4080  0.3824  0.2362
 2429TIP3    H1 7293   2.985   0.220   4.261 -2.9684  0.9370 -2.5591
 2429TIP3    H2 7294   3.008   0.368   4.286  0.4300 -0.0261  0.8850
 2430TIP3   OH2 7295   3.947   1.088   3.679  0.0463 -0.1455 -0.1612
 2430TIP3    H1 7296   3.869   1.121   3.635  0.1972  1.1095  0.4873
 2430TIP3    H2 7297   3.929   0.995   3.693 -1.1108  0.0180 -0.4793
 2431TIP3   OH2 7298   2.775   3.951   1.356 -0.2242  0.0274 -0.0674
 2431TIP3    H1 7299   2.739   3.943   1.267 -1.0788 -1.4642  0.3700
 2431TIP3    H2 7300   2.859   3.995   1.344  0.0886 -0.9167 -1.7288
 2432TIP3   OH2 7301   4.667   0.559   3.316 -0.0730 -0.4740 -0.4164
 2432TIP3    H1 7302   4.745   0.587   3.363  0.5863 -1.2244 -1.0296
 2432TIP3    H2 7303   4.600   0.622   3.340  0.2390 -0.8335  1.5118
 2433TIP3   OH2 7304   2.392   2.671   0.347  0.9043  0.1175  0.4973
 2433TIP3    H1 7305   2.488   2.664   0.353  0.9138  0.0411  0.2586
 2433TIP3    H2 7306   2.359   2.602   0.404  0.9938 -0.2460  0.1104
 2434TIP3   OH2 7307   3.331   1.124   0.825 -0.3689 -0.2196 -0.4300
 2434TIP3    H1 7308   3.325   1.087   0.737  0.6038 -1.0274 -0.1794
 2434TIP3    H2 7309   3.296   1.055   0.882 -1.5950  0.5491 -0.2230
 2435TIP3   OH2 7310   0.502   4.529   0.412 -0.1338 -0.0712 -0.2947
 2435TIP3    H1 7311   0.586   4.492   0.382  1.0571  2.0095  0.3060
 2435TIP3    H2 7312   0.471   4.581   0.339  0.6613  1.6063  0.5182
 2436TIP3   OH2 7313   5.146   3.782   4.358  0.1070  0.2887  0.5891
 2436TIP3    H1 7314   5.120   3.700   4.400 -1.3627  0.1227 -0.5587
 2436TIP3    H2 7315   5.117   3.851   4.419 -1.5297  0.0336  0.1601
 2437TIP3   OH2 7316   3.967   3.922   3.591 -0.4942 -0.1093 -0.0336
 2437TIP3    H1 7317   4.016   3.840   3.588  1.2176  0.8370  0.5700
 2437TIP3    H2 7318   3.899   3.907   3.656  0.2885 -0.8048  0.6599
 2438TIP3   OH2 7319   3.273   3.398   5.070  0.2806 -0.0582 -0.3850
 2438TIP3    H1 7320   3.240   3.410   4.981  0.9242 -0.8458 -0.7407
 2438TIP3    H2 7321   3.238   3.314   5.098 -3.2334  1.8419  1.6498
 2439TIP3   OH2 7322   0.882   4.738   1.073  0.6484 -0.3932 -0.0409
 2439TIP3    H1 7323   0.925   4.659   1.104  1.6385 -0.7403 -2.0924
 2439TIP3    H2 7324   0.934   4.810   1.109  1.7295 -0.7706 -0.8005
 2440TIP3   OH2 7325   4.763   0.819   5.090 -0.4142  0.9897 -0.1397
 2440TIP3    H1 7326   4.703   0.851   5.023  0.4159  0.4869 -1.1519
 2440TIP3    H2 7327   4.806   0.897   5.124 -1.5636  1.3482  0.5405
 2441TIP3   OH2 7328   4.514   5.815   3.425 -0.5802 -0.9343  0.4795
 2441TIP3    H1 7329   4.509   5.730   3.468 -0.9751  0.1607  2.7519
 2441TIP3    H2 7330   4.475   5.876   3.488  1.1348  1.1866 -0.3844
 2442TIP3   OH2 7331   3.459   3.936   2.626  0.7156  0.0163 -0.0604
 2442TIP3    H1 7332   3.392   3.902   2.685  0.4048 -1.1283 -1.0387
 2442TIP3    H2 7333   3.463   3.873   2.554  1.8746  0.7844 -0.7153
 2443TIP3   OH2 7334   4.803   3.003   2.094 -0.0094  0.6652  0.1631
 2443TIP3    H1 7335   4.785   2.913   2.066  0.5350  0.6338 -0.0952
 2443TIP3    H2 7336   4.742   3.056   2.043 -1.2413  0.3563  1.2418
 2444TIP3   OH2 7337   3.641   1.311   1.918 -0.5211  0.1804 -0.0271
 2444TIP3    H1 7338   3.684   1.225   1.921 -0.8309  0.0045 -0.4729
 2444TIP3    H2 7339   3.659   1.343   1.830 -0.0840  0.7495  0.2648
 2445TIP3   OH2 7340   1.054   2.840   2.421  0.1424 -0.1869  0.1498
 2445TIP3    H1 7341   1.069   2.807   2.509  0.6301  0.2428  0.2341
 2445TIP3    H2 7342   1.071   2.934   2.427  0.5067 -0.2050 -0.4681
 2446TIP3   OH2 7343   0.423   0.935   1.485  0.4857 -0.3523 -0.1766
 2446TIP3    H1 7344   0.445   0.897   1.400 -1.3481 -1.8103 -0.0722
 2446TIP3    H2 7345   0.506   0.968   1.519  1.1842  0.6106 -2.6702
 2447TIP3   OH2 7346   1.297   4.495   2.012  0.2454  0.0016 -0.3529
 2447TIP3    H1 7347   1.315   4.401   2.018 -0.1904 -0.1279 -0.9844
 2447TIP3    H2 7348   1.224   4.501   1.950  0.3831  0.7697 -0.4435
 2448TIP3   OH2 7349   1.576   0.662   1.201 -0.1432 -0.4021  0.2391
 2448TIP3    H1 7350   1.617   0.584   1.164  0.8456  0.1759  0.0801
 2448TIP3    H2 7351   1.506   0.684   1.139 -0.2102 -0.9565  0.1088
 2449TIP3   OH2 7352   5.383   3.796   2.435  0.5575  0.1650  0.4701
 2449TIP3    H1 7353   5.333   3.756   2.505  0.9042 -1.7434 -0.3119
 2449TIP3    H2 7354   5.450   3.731   2.413  0.7307  0.8839 -1.3100
 2450TIP3   OH2 7355   5.292   1.562   4.263 -0.1520  0.3646 -0.2214
 2450TIP3    H1 7356   5.363   1.531   4.206 -1.7140 -2.3303 -0.8540
 2450TIP3    H2 7357   5.229   1.602   4.203 -0.0429  1.0283  0.1026
 2451TIP3   OH2 7358   4.023   4.058   0.485  0.2488  0.3363  0.0487
 2451TIP3    H1 7359   4.050   4.010   0.563  1.9482  0.5205 -0.3866
 2451TIP3    H2 7360   4.072   4.140   0.489  0.8644  0.0890 -1.5130
 2452TIP3   OH2 7361   5.051   3.578   2.410  0.5809 -0.0423  0.3294
 2452TIP3    H1 7362   5.117   3.603   2.476 -0.3800  1.5284  0.7517
 2452TIP3    H2 7363   5.046   3.483   2.416  1.0527 -0.0006  2.0225
 2453TIP3   OH2 7364   4.850   5.532   1.550  0.4133  0.2286 -0.5230
 2453TIP3    H1 7365   4.801   5.556   1.628 -1.2998 -2.2849 -0.6994
 2453TIP3    H2 7366   4.825   5.598   1.485  0.9506  1.6713  0.6752
 2454TIP3   OH2 7367   0.240   0.656   3.538 -0.3977 -0.7216  0.5176
 2454TIP3    H1 7368   0.330   0.631   3.559  0.4545  0.2078 -1.6677
 2454TIP3    H2 7369   0.201   0.680   3.622  2.0422  0.7825  1.3224
 2455TIP3   OH2 7370   4.981   5.551   0.758 -0.1360 -0.0676  0.2844
 2455TIP3    H1 7371   5.000   5.459   0.775  0.0605  0.4512  3.6977
 2455TIP3    H2 7372   4.887   5.553   0.736 -0.7717 -0.9473  2.6285
 2456TIP3   OH2 7373   6.284   3.537   0.377 -0.3679  0.6209  0.0875
 2456TIP3    H1 7374   6.232   3.516   0.300  1.2231  2.2116 -1.5215
 2456TIP3    H2 7375   6.349   3.466   0.382  0.0332  0.9294 -0.5599
 2457TIP3   OH2 7376   1.696   2.121   4.811 -0.6971 -0.7390 -0.0954
 2457TIP3    H1 7377   1.617   2.143   4.762 -0.3707 -0.0998 -0.3559
 2457TIP3    H2 7378   1.666   2.073   4.888 -1.3551 -0.1864 -0.0121
 2458TIP3   OH2 7379   0.199   3.321   0.315 -0.4400  0.1562  0.1618
 2458TIP3    H1 7380   0.152   3.264   0.254  0.7899 -1.7421  0.9049
 2458TIP3    H2 7381   0.291   3.299   0.303 -0.0882  0.3812  2.0623
 2459TIP3   OH2 7382   3.799   2.539   1.594 -0.0016  0.3846  0.1784
 2459TIP3    H1 7383   3.738   2.578   1.656 -1.3784 -2.0883  0.5382
 2459TIP3    H2 7384   3.827   2.458   1.637  0.6051 -0.3829 -1.5786
 2460TIP3   OH2 7385   1.323   3.662   1.887  0.2305 -0.3536  0.2848
 2460TIP3    H1 7386   1.340   3.636   1.978  0.4958  1.3915  0.7579
 2460TIP3    H2 7387   1.235   3.628   1.869 -0.8577  1.3501  2.0498
 2461TIP3   OH2 7388   2.984   1.025   4.321  0.5844  0.5757  0.1925
 2461TIP3    H1 7389   2.953   0.947   4.367 -2.6028  1.3840 -0.2955
 2461TIP3    H2 7390   2.926   1.095   4.351  1.9976  2.3257 -0.9384
 2462TIP3   OH2 7391   6.034   1.104   4.746 -0.4546  0.2998 -0.1370
 2462TIP3    H1 7392   6.068   1.074   4.830  2.6477  1.4606 -0.8580
 2462TIP3    H2 7393   5.976   1.177   4.767  0.5869  0.8224  0.9925
 2463TIP3   OH2 7394   1.455   2.241   2.911 -0.3658  0.3996  0.4871
 2463TIP3    H1 7395   1.430   2.330   2.935  1.2855  0.7983  0.8611
 2463TIP3    H2 7396   1.550   2.245   2.899  0.1010 -1.7515  2.6025
 2464TIP3   OH2 7397   2.553   3.916   2.892 -0.0750 -0.3561 -0.3991
 2464TIP3    H1 7398   2.591   3.896   2.977 -2.7799 -1.4226  0.6611
 2464TIP3    H2 7399   2.553   3.833   2.845 -0.0153 -0.1115 -0.8396
 2465TIP3   OH2 7400   0.579   3.931   0.786  0.4318 -0.5237  0.1868
 2465TIP3    H1 7401   0.584   3.984   0.865 -1.1629  0.8752 -0.6018
 2465TIP3    H2 7402   0.509   3.868   0.804 -1.0688  0.8490 -0.6680
 2466TIP3   OH2 7403   2.348   0.398   3.162  0.3479  0.6481 -0.2463
 2466TIP3    H1 7404   2.444   0.400   3.152  0.4350  0.5552  0.5228
 2466TIP3    H2 7405   2.334   0.371   3.253 -0.4278 -0.5875 -0.7083
 2467TIP3   OH2 7406   6.008   2.346   1.096 -0.0119 -0.3368 -0.3549
 2467TIP3    H1 7407   6.023   2.282   1.165  1.4385  0.3465  0.0082
 2467TIP3    H2 7408   6.095   2.380   1.076 -0.4977  0.0438 -1.9851
 2468TIP3   OH2 7409   0.489   2.055   4.473 -0.5882  0.3538  0.6781
 2468TIP3    H1 7410   0.412   2.031   4.524  0.0542 -1.4029  0.9029
 2468TIP3    H2 7411   0.477   2.147   4.453 -2.8306  0.0837  0.5496
 2469TIP3   OH2 7412   5.342   4.275   4.481  0.0400 -0.6540 -0.0624
 2469TIP3    H1 7413   5.433   4.281   4.452 -0.4354  1.0101 -1.3580
 2469TIP3    H2 7414   5.347   4.271   4.576  1.4701 -0.7011 -0.1225
 2470TIP3   OH2 7415   1.055   3.489   0.498  0.0719  0.4735  0.2413
 2470TIP3    H1 7416   1.071   3.410   0.551 -0.7041 -1.6112 -2.4173
 2470TIP3    H2 7417   1.135   3.499   0.446 -0.0993  1.0630  0.0881
 2471TIP3   OH2 7418   1.540   0.245   0.196  0.1050  0.0221 -0.1060
 2471TIP3    H1 7419   1.554   0.249   0.101  1.1633 -1.7644 -0.0664
 2471TIP3    H2 7420   1.555   0.334   0.226  0.7121  0.4178 -1.5084
 2472TIP3   OH2 7421   2.100   1.818   2.893 -0.2482 -0.3172  0.5588
 2472TIP3    H1 7422   2.013   1.854   2.912 -0.5977 -0.5559 -0.5529
 2472TIP3    H2 7423   2.084   1.731   2.859  0.4547 -0.5231  0.7301
 2473TIP3   OH2 7424   4.320   5.502   4.232 -0.3233  0.3424  0.6611
 2473TIP3    H1 7425   4.404   5.500   4.279  0.9236  0.0048 -1.4446
 2473TIP3    H2 7426   4.345   5.508   4.140 -2.6654  1.4331  0.0451
 2474TIP3   OH2 7427   6.295   0.829   4.609 -0.3547 -0.4739  0.1197
 2474TIP3    H1 7428   6.263   0.813   4.698 -2.9553  0.1869 -0.6236
 2474TIP3    H2 7429   6.303   0.924   4.604 -0.6211 -0.4775 -0.4643
 2475TIP3   OH2 7430   4.351   5.235   3.715  0.0241  0.4474  0.2035
 2475TIP3    H1 7431   4.295   5.161   3.692 -0.7495  0.7600  1.0306
 2475TIP3    H2 7432   4.430   5.195   3.750  0.0707  0.0059 -0.3911
 2476TIP3   OH2 7433   0.042   3.082   4.365 -0.0815  0.0383 -0.6089
 2476TIP3    H1 7434   0.114   3.076   4.302 -1.3005  1.8194 -2.2904
 2476TIP3    H2 7435   0.032   3.176   4.381 -0.0211 -0.3361  2.0905
 2477TIP3   OH2 7436   2.924   5.621   1.347  0.2530 -0.5934 -0.3658
 2477TIP3    H1 7437   3.020   5.621   1.351  0.3046 -0.7541 -1.2784
 2477TIP3    H2 7438   2.904   5.566   1.270 -0.5341  0.2095 -0.7456
 2478TIP3   OH2 7439   2.562   4.881   1.809  0.2324 -0.1043  0.4078
 2478TIP3    H1 7440   2.638   4.896   1.754 -0.0509 -2.8168 -0.8565
 2478TIP3    H2 7441   2.597   4.844   1.890  0.3195 -0.4219  0.2237
 2479TIP3   OH2 7442   0.852   5.360   2.017  0.6325  0.1216  0.3665
 2479TIP3    H1 7443   0.808   5.296   1.961  1.2450 -0.7234  0.8194
 2479TIP3    H2 7444   0.796   5.368   2.094 -1.8625  3.5830 -1.5116
 2480TIP3   OH2 7445   1.367   5.815   2.652  0.0089  0.0861  0.5416
 2480TIP3    H1 7446   1.319   5.762   2.716 -0.4474 -2.2940 -1.6176
 2480TIP3    H2 7447   1.299   5.846   2.591  0.5915  1.1598  0.4166
 2481TIP3   OH2 7448   4.580   4.251   0.051 -0.1552  0.0057 -0.4173
 2481TIP3    H1 7449   4.561   4.157   0.043  1.4221 -0.4309  0.5655
 2481TIP3    H2 7450   4.625   4.259   0.135 -0.0621  1.6245 -0.5945
 2482TIP3   OH2 7451   3.169   1.832   3.729  0.9004 -0.0812 -0.4190
 2482TIP3    H1 7452   3.112   1.768   3.773 -1.1257  0.3313 -2.2395
 2482TIP3    H2 7453   3.126   1.916   3.744  2.9677  0.8070  1.0386
 2483TIP3   OH2 7454   4.276   4.291   3.163 -0.0315  0.2010 -0.4772
 2483TIP3    H1 7455   4.289   4.262   3.073  0.1350  1.6382 -0.9425
 2483TIP3    H2 7456   4.342   4.244   3.214  1.0462  0.6923 -1.3948
 2484TIP3   OH2 7457   1.809   4.717   1.498 -0.4756 -0.0632  0.7177
 2484TIP3    H1 7458   1.771   4.799   1.529 -1.9246  0.1238 -1.3263
 2484TIP3    H2 7459   1.903   4.732   1.499 -0.6632  1.2609  1.2875
 2485TIP3   OH2 7460   2.845   0.935   1.459  0.0154  0.0888  0.3191
 2485TIP3    H1 7461   2.853   0.841   1.442  1.3497  0.0572  0.9707
 2485TIP3    H2 7462   2.779   0.965   1.397  0.6904 -1.0075 -0.9876
 2486TIP3   OH2 7463   0.401   4.597   3.614  0.1217 -0.7909  0.4511
 2486TIP3    H1 7464   0.386   4.506   3.588  1.8186 -1.0006  0.1068
 2486TIP3    H2 7465   0.399   4.595   3.710 -1.5408 -0.8421  0.4557
 2487TIP3   OH2 7466   0.150   3.885   4.241  0.3366  0.8476  0.1308
 2487TIP3    H1 7467   0.228   3.939   4.230  0.4490  0.4215 -1.2362
 2487TIP3    H2 7468   0.078   3.943   4.217  0.5476  0.0576 -2.6208
 2488TIP3   OH2 7469   2.579   4.371   0.574 -0.2799  0.1226  0.1735
 2488TIP3    H1 7470   2.487   4.361   0.550 -0.4416  0.1434  0.7781
 2488TIP3    H2 7471   2.614   4.433   0.510 -0.9264  0.8795  0.5474
 2489TIP3   OH2 7472   0.715   5.927   3.446  0.4070  0.2943  0.4687
 2489TIP3    H1 7473   0.745   5.836   3.447  0.6061  0.3459 -0.1820
 2489TIP3    H2 7474   0.703   5.947   3.353  0.5976  1.0122  0.5926
 2490TIP3   OH2 7475   1.760   0.501   4.671  0.3402  0.1657 -0.2546
 2490TIP3    H1 7476   1.691   0.438   4.687  1.1351 -0.6462  0.0351
 2490TIP3    H2 7477   1.732   0.580   4.717 -0.8295  0.1618 -0.9198
 2491TIP3   OH2 7478   5.780   5.952   2.549  0.3107  0.2996 -0.3219
 2491TIP3    H1 7479   5.759   5.864   2.582  0.2982  0.9946  1.6690
 2491TIP3    H2 7480   5.732   6.011   2.608 -1.5555  1.6337 -3.0028
 2492TIP3   OH2 7481   4.825   5.441   2.739 -0.3354 -0.0326 -0.1119
 2492TIP3    H1 7482   4.841   5.368   2.679  0.7759 -0.4353  0.6381
 2492TIP3    H2 7483   4.829   5.401   2.827 -1.0740  0.6986  0.2711
 2493TIP3   OH2 7484   0.595   2.631   0.521  0.0201  0.4494  0.1467
 2493TIP3    H1 7485   0.591   2.535   0.513  2.5742  0.3699 -1.5473
 2493TIP3    H2 7486   0.588   2.647   0.615  0.0292 -1.4610  0.5235
 2494TIP3   OH2 7487   2.149   5.512   0.055  0.1777  0.3036  0.9265
 2494TIP3    H1 7488   2.223   5.562   0.018  0.5198 -0.3244  0.7477
 2494TIP3    H2 7489   2.188   5.464   0.128 -0.6016  1.9440  2.4948
 2495TIP3   OH2 7490   6.135   3.657   0.561  0.1975  0.8091  0.1849
 2495TIP3    H1 7491   6.070   3.587   0.560 -0.0756  1.0507  0.6824
 2495TIP3    H2 7492   6.198   3.631   0.494 -0.8239  0.9671 -0.8809
 2496TIP3   OH2 7493   5.576   0.498   4.352  0.2138  0.0446 -0.3093
 2496TIP3    H1 7494   5.512   0.432   4.328  1.0683 -1.2732  0.8792
 2496TIP3    H2 7495   5.582   0.493   4.448 -0.8470  2.9717  0.0320
 2497TIP3   OH2 7496   2.176   5.833   0.259  1.1344  0.2129  0.7906
 2497TIP3    H1 7497   2.228   5.802   0.333  2.0382 -0.3724 -0.0544
 2497TIP3    H2 7498   2.109   5.766   0.246  0.8487  0.4175  1.2017
 2498TIP3   OH2 7499   5.420   1.721   3.231 -0.4186  0.7522  0.4931
 2498TIP3    H1 7500   5.335   1.738   3.192 -1.0619 -2.5330  0.1353
 2498TIP3    H2 7501   5.406   1.645   3.288  2.3203 -0.2514  0.0130
 2499TIP3   OH2 7502   3.446   0.298   2.541  0.0160  0.1175  0.4922
 2499TIP3    H1 7503   3.503   0.370   2.566 -1.7167  1.0115  2.0932
 2499TIP3    H2 7504   3.416   0.260   2.624 -0.7291 -1.1246 -0.3018
 2500TIP3   OH2 7505   2.944   1.369   2.532  0.4245  0.0310  0.4746
 2500TIP3    H1 7506   2.967   1.302   2.466  0.9061 -0.0689  0.7366
 2500TIP3    H2 7507   2.850   1.358   2.545 -0.3690  2.0665 -2.4429
 2501TIP3   OH2 7508   3.678   0.946   0.620 -0.4735 -0.3394  0.5988
 2501TIP3    H1 7509   3.609   0.906   0.567  1.3248 -3.5846  0.4215
 2501TIP3    H2 7510   3.696   1.030   0.578 -2.1789 -0.8233 -1.1985
 2502TIP3   OH2 7511   4.974   5.827   3.756  0.3817 -0.4884  0.1068
 2502TIP3    H1 7512   4.959   5.821   3.662  0.3445  0.1547  0.0654
 2502TIP3    H2 7513   5.037   5.899   3.766  0.9952 -1.0643  0.5190
 2503TIP3   OH2 7514   2.519   2.220   2.096  0.1641 -0.1457 -1.1974
 2503TIP3    H1 7515   2.435   2.220   2.143  0.6746  0.8471 -0.2256
 2503TIP3    H2 7516   2.543   2.312   2.091  2.0027 -0.4871  0.0824
 2504TIP3   OH2 7517   2.589   3.329   3.414 -0.0590  0.0693  0.2050
 2504TIP3    H1 7518   2.569   3.312   3.506 -0.8133  0.5808  0.1476
 2504TIP3    H2 7519   2.657   3.266   3.392  2.2953  1.8674  1.9068
 2505TIP3   OH2 7520   3.853   4.672   0.322 -0.5660 -0.6324  0.5465
 2505TIP3    H1 7521   3.901   4.613   0.379 -3.7099 -3.8922  0.1663
 2505TIP3    H2 7522   3.798   4.724   0.381  0.0827 -0.1563  0.7352
 2506TIP3   OH2 7523   3.833   1.339   3.223  0.5442  0.4044  0.3003
 2506TIP3    H1 7524   3.844   1.368   3.133  1.6337  3.0285  1.1916
 2506TIP3    H2 7525   3.739   1.350   3.240 -0.1761 -2.5084 -1.1726
 2507TIP3   OH2 7526   2.881   4.441   1.149  0.3759 -0.3321 -0.2707
 2507TIP3    H1 7527   2.916   4.428   1.237  2.3472 -0.3369 -1.0001
 2507TIP3    H2 7528   2.815   4.510   1.159 -0.3466 -1.2147  1.3856
 2508TIP3   OH2 7529   5.660   0.610   3.757  0.1119 -0.2488 -0.3222
 2508TIP3    H1 7530   5.677   0.613   3.663 -0.4784  0.4172 -0.4146
 2508TIP3    H2 7531   5.636   0.519   3.774 -3.3470  0.2903 -1.4779
 2509TIP3   OH2 7532   5.646   3.198   1.552  0.3934  0.1948 -0.5678
 2509TIP3    H1 7533   5.658   3.224   1.643 -0.4883  1.4324 -0.7715
 2509TIP3    H2 7534   5.698   3.119   1.542 -0.5723 -0.7472  1.3713
 2510TIP3   OH2 7535   6.223   0.149   2.250 -0.0554 -0.2922  0.2641
 2510TIP3    H1 7536   6.298   0.145   2.191 -0.5079 -1.4620 -0.2585
 2510TIP3    H2 7537   6.194   0.058   2.259  0.0642 -0.1827  2.3955
 2511TIP3   OH2 7538   3.827   2.058   0.528 -0.0997  0.1417 -0.2418
 2511TIP3    H1 7539   3.787   2.112   0.460  0.7183 -0.4842 -1.2673
 2511TIP3    H2 7540   3.774   1.978   0.529 -0.5425  0.4409  0.3707
 2512TIP3   OH2 7541   1.473   5.562   4.652 -0.3116  0.2171  0.3747
 2512TIP3    H1 7542   1.557   5.608   4.647 -0.4883  0.5320  0.2708
 2512TIP3    H2 7543   1.411   5.621   4.610 -0.8376  0.5833  1.6177
 2513TIP3   OH2 7544   2.750   4.572   4.278  0.4981  0.3321  0.1435
 2513TIP3    H1 7545   2.801   4.497   4.309 -1.6154 -1.3062 -0.1052
 2513TIP3    H2 7546   2.751   4.564   4.183  0.3572  0.6923  0.1111
 2514TIP3   OH2 7547   4.497   0.229   0.364  0.5844  0.5194  0.2952
 2514TIP3    H1 7548   4.558   0.157   0.349  0.5423  0.7206 -0.9790
 2514TIP3    H2 7549   4.518   0.293   0.297 -0.0548  1.2494  0.7694
 2515TIP3   OH2 7550   6.075   4.239   3.550 -0.2966 -0.2023  0.1143
 2515TIP3    H1 7551   6.030   4.318   3.518 -0.4386 -0.0132  0.7621
 2515TIP3    H2 7552   6.135   4.216   3.480  1.3639  1.7814  0.7814
 2516TIP3   OH2 7553   5.604   1.195   4.687  0.2234 -0.2872 -0.1622
 2516TIP3    H1 7554   5.554   1.116   4.708 -2.5260  1.5015  0.5773
 2516TIP3    H2 7555   5.650   1.217   4.768 -0.6007 -0.0634  0.2515
 2517TIP3   OH2 7556   0.024   3.573   0.019 -0.4482 -0.5139  0.4866
 2517TIP3    H1 7557   0.058   3.637   0.081 -0.8888 -1.0897  1.3421
 2517TIP3    H2 7558   0.101   3.541  -0.027 -0.3184  1.4364 -0.7885
 2518TIP3   OH2 7559   5.314   0.439   4.252 -0.3982  0.2658  0.1829
 2518TIP3    H1 7560   5.257   0.512   4.277  2.2218  2.0447  1.4656
 2518TIP3    H2 7561   5.270   0.361   4.288 -2.1971  1.4619  0.7185
 2519TIP3   OH2 7562   3.583   1.279   4.429  0.3069  0.3278  0.4197
 2519TIP3    H1 7563   3.601   1.315   4.516 -1.0113 -1.1875  1.3876
 2519TIP3    H2 7564   3.516   1.337   4.392 -0.4807 -0.0311  1.2185
 2520TIP3   OH2 7565   3.902   3.147   3.146 -0.2001  0.3177 -0.3787
 2520TIP3    H1 7566   3.975   3.113   3.199 -0.5263 -0.0040 -0.1316
 2520TIP3    H2 7567   3.824   3.126   3.197 -0.5640 -0.5071 -1.2386
 2521TIP3   OH2 7568   4.358   4.393   3.914  0.2601 -0.3751 -0.2528
 2521TIP3    H1 7569   4.380   4.485   3.924  0.0876 -0.2956 -0.6066
 2521TIP3    H2 7570   4.265   4.392   3.891  0.6819 -0.5336 -2.0948
 2522TIP3   OH2 7571   5.172   4.025   0.115  0.5408  0.1297 -0.1345
 2522TIP3    H1 7572   5.129   4.111   0.116 -0.0840 -0.1110 -2.1455
 2522TIP3    H2 7573   5.163   3.995   0.024  1.7492 -1.5680  0.2684
 2523TIP3   OH2 7574   2.337   2.493   5.005  0.0216  0.1289 -0.0032
 2523TIP3    H1 7575   2.421   2.477   4.962 -0.6244  0.7715 -1.6200
 2523TIP3    H2 7576   2.337   2.586   5.026 -0.0235 -0.0039  0.5979
 2524TIP3   OH2 7577   0.378   0.337   0.357 -0.3954  0.5176  0.1543
 2524TIP3    H1 7578   0.351   0.425   0.329  1.1969  0.4464 -1.8444
 2524TIP3    H2 7579   0.330   0.278   0.299 -1.4775  0.0310  1.5110
 2525TIP3   OH2 7580   1.237   0.740   0.756  0.7346 -0.3311  0.4710
 2525TIP3    H1 7581   1.238   0.833   0.732  2.0584  0.1635  2.1942
 2525TIP3    H2 7582   1.234   0.693   0.673 -0.1519  1.2528 -0.4202
 2526TIP3   OH2 7583   5.420   3.819   4.378  0.1917 -0.7198 -0.3654
 2526TIP3    H1 7584   5.444   3.779   4.462 -0.7893 -1.3999 -0.4023
 2526TIP3    H2 7585   5.325   3.823   4.379  0.1952 -0.1211 -1.1764
 2527TIP3   OH2 7586   6.294   3.013   0.840  0.0482 -0.7987  0.0332
 2527TIP3    H1 7587   6.275   2.928   0.880 -2.7571 -0.4764 -0.3933
 2527TIP3    H2 7588   6.265   3.003   0.750  1.2018  0.1513 -0.4585
 2528TIP3   OH2 7589   2.522   3.912   0.115  0.0736 -0.5370  0.5448
 2528TIP3    H1 7590   2.601   3.911   0.062 -1.7834  1.1615 -2.5960
 2528TIP3    H2 7591   2.538   3.980   0.181  1.5083 -0.7746  0.4523
 2529TIP3   OH2 7592   1.930   3.449   2.965  0.0588  0.4298 -0.0363
 2529TIP3    H1 7593   1.963   3.485   3.048 -1.2733  0.7770  0.3669
 2529TIP3    H2 7594   1.933   3.524   2.905  1.1191  0.1533 -0.3514
 2530TIP3   OH2 7595   5.364   3.193   4.861 -0.0873  0.2997  0.1086
 2530TIP3    H1 7596   5.456   3.174   4.876 -0.1318  1.5799  2.6691
 2530TIP3    H2 7597   5.362   3.279   4.819 -0.1160 -0.5443 -1.6845
 2531TIP3   OH2 7598   1.786   4.981   1.627 -0.4365 -0.4770  0.2407
 2531TIP3    H1 7599   1.767   4.926   1.703 -2.3485  0.8268  0.7876
 2531TIP3    H2 7600   1.872   5.020   1.645 -0.6257 -0.6124  1.4846
 2532TIP3   OH2 7601   1.256   4.242   1.719 -0.3762 -0.3144 -0.6300
 2532TIP3    H1 7602   1.350   4.220   1.723 -0.5940 -1.1879 -0.0070
 2532TIP3    H2 7603   1.222   4.217   1.805 -0.9525  1.1520 -0.4074
 2533TIP3   OH2 7604   4.279   4.973   5.079  0.0639 -0.2622  0.1803
 2533TIP3    H1 7605   4.276   4.940   5.169 -2.2195  0.7949  0.5655
 2533TIP3    H2 7606   4.190   4.958   5.045  0.2839  1.2654 -1.1658
 2534TIP3   OH2 7607   4.709   4.724   3.759 -0.0373 -0.1784  0.1956
 2534TIP3    H1 7608   4.655   4.803   3.772  0.5363  0.1614  0.5384
 2534TIP3    H2 7609   4.795   4.758   3.733  0.0474 -0.7163 -0.2410
 2535TIP3   OH2 7610   3.648   3.640   0.866 -0.0194 -0.4189 -0.0283
 2535TIP3    H1 7611   3.699   3.593   0.933 -0.6357 -0.5930  0.3281
 2535TIP3    H2 7612   3.712   3.659   0.797  1.0762  1.3496  1.3592
 2536TIP3   OH2 7613   0.616   2.287   1.424  0.1458 -0.7292 -0.0145
 2536TIP3    H1 7614   0.674   2.334   1.484  1.9241 -2.8978  0.1028
 2536TIP3    H2 7615   0.608   2.344   1.348 -0.2137  1.0267  1.2763
 2537TIP3   OH2 7616   3.687   0.334   4.878  0.0932  0.4333 -0.2197
 2537TIP3    H1 7617   3.679   0.245   4.910  1.7921  0.6970  1.0338
 2537TIP3    H2 7618   3.753   0.329   4.808 -0.0098  0.6647 -0.3359
 2538TIP3   OH2 7619   1.673   0.923   1.206 -0.5511  0.1615 -0.0863
 2538TIP3    H1 7620   1.763   0.910   1.233 -0.1471 -1.0535 -1.8188
 2538TIP3    H2 7621   1.638   0.835   1.194 -1.8245  0.6157  0.0950
 2539TIP3   OH2 7622   0.918   2.562   4.605 -0.2213  0.0226  0.5728
 2539TIP3    H1 7623   0.868   2.481   4.620 -0.4979 -0.0536 -0.6887
 2539TIP3    H2 7624   0.852   2.630   4.597 -0.4404 -0.4468 -3.6595
 2540TIP3   OH2 7625   1.274   4.166   1.192  0.0578  0.0269 -0.3051
 2540TIP3    H1 7626   1.219   4.140   1.266 -0.5143  0.0206 -0.7267
 2540TIP3    H2 7627   1.219   4.155   1.115  0.2426  1.1595 -0.6308
 2541TIP3   OH2 7628   4.086   3.163   2.427  0.1386  0.8281 -0.2232
 2541TIP3    H1 7629   4.032   3.091   2.460  0.1784  0.5397 -0.7741
 2541TIP3    H2 7630   4.105   3.216   2.504 -0.6017  0.7152  0.0486
 2542TIP3   OH2 7631   4.149   5.089   2.786  0.0070 -0.2942 -0.7124
 2542TIP3    H1 7632   4.171   5.001   2.815  0.5132 -0.1548 -0.6762
 2542TIP3    H2 7633   4.223   5.143   2.814 -0.7313  0.3194  0.1229
 2543TIP3   OH2 7634   3.786   3.799   2.170 -0.1301  0.5472  0.1729
 2543TIP3    H1 7635   3.802   3.824   2.261 -0.4606 -0.5477  0.5469
 2543TIP3    H2 7636   3.784   3.704   2.172  0.1553  0.5069 -1.0416
 2544TIP3   OH2 7637   4.753   0.352   0.514  0.1180 -0.1255  1.2797
 2544TIP3    H1 7638   4.680   0.326   0.570 -1.9391 -0.4985 -1.3595
 2544TIP3    H2 7639   4.789   0.269   0.483  0.3227  0.0924  0.9343
 2545TIP3   OH2 7640   5.273   2.786   1.672  0.4288  0.1137  0.1282
 2545TIP3    H1 7641   5.276   2.713   1.611 -1.8256 -0.4805  0.6530
 2545TIP3    H2 7642   5.240   2.860   1.620 -2.3490 -0.6089  0.7088
 2546TIP3   OH2 7643   5.627   1.525   1.077 -0.2459 -0.9375  0.4197
 2546TIP3    H1 7644   5.698   1.588   1.065 -0.6828 -0.5543 -0.2118
 2546TIP3    H2 7645   5.615   1.520   1.172 -0.2429 -0.0160  0.4787
 2547TIP3   OH2 7646   0.204   5.337   3.371 -0.4218  0.1680 -0.0197
 2547TIP3    H1 7647   0.188   5.250   3.336 -1.2365  0.0906  0.5019
 2547TIP3    H2 7648   0.117   5.375   3.381 -0.1508  0.6006  0.8336
 2548TIP3   OH2 7649   4.160   4.755   0.132  0.2376 -0.1160 -0.6607
 2548TIP3    H1 7650   4.162   4.679   0.190 -1.2464 -1.2095 -1.9728
 2548TIP3    H2 7651   4.067   4.770   0.114  0.2801  3.2041  1.0022
 2549TIP3   OH2 7652   0.154   4.702   0.152 -0.2908  0.7878  0.6739
 2549TIP3    H1 7653   0.059   4.710   0.157 -0.3136  1.7341 -0.6656
 2549TIP3    H2 7654   0.185   4.737   0.236 -1.0851  1.5015  0.6878
 2550TIP3   OH2 7655   0.349   1.413   1.001  0.2895  0.7242  0.2889
 2550TIP3    H1 7656   0.437   1.429   0.966  0.5231 -1.9915 -0.6443
 2550TIP3    H2 7657   0.336   1.319   0.989 -1.9118  0.6651  2.4138
 2551TIP3   OH2 7658   0.519   5.314   1.701  0.1794  0.5063 -0.6478
 2551TIP3    H1 7659   0.462   5.304   1.625 -1.5987  0.8929  0.5710
 2551TIP3    H2 7660   0.474   5.267   1.771  1.6665  0.3363  0.2422
 2552TIP3   OH2 7661   5.585   1.333   2.642  0.0179 -0.1603 -0.1286
 2552TIP3    H1 7662   5.582   1.399   2.573  0.5123  0.2203  0.2036
 2552TIP3    H2 7663   5.569   1.382   2.723 -2.1976 -0.8305 -0.0849
 2553TIP3   OH2 7664   4.769   1.916   0.345 -0.0036  0.3267 -0.0681
 2553TIP3    H1 7665   4.803   1.998   0.382 -0.3133 -0.3241  1.7906
 2553TIP3    H2 7666   4.833   1.850   0.369 -1.1509 -0.4375  1.0299
 2554TIP3   OH2 7667   4.902   3.338   0.566 -0.5158  0.5451  0.6385
 2554TIP3    H1 7668   4.870   3.388   0.640 -0.6005  0.7949  0.4368
 2554TIP3    H2 7669   4.837   3.352   0.497 -0.6307  0.0116  0.6362
 2555TIP3   OH2 7670   2.249   2.162   1.193 -0.0392  0.3865  0.1224
 2555TIP3    H1 7671   2.309   2.190   1.262  1.8634  0.6671 -1.5262
 2555TIP3    H2 7672   2.215   2.244   1.157 -3.1473  0.2285  2.3318
 2556TIP3   OH2 7673   1.164   4.669   4.295  0.5479 -0.7848 -0.2926
 2556TIP3    H1 7674   1.178   4.707   4.382  1.6461  0.3257 -0.9117
 2556TIP3    H2 7675   1.209   4.584   4.299 -0.4015 -1.2701  0.5619
 2557TIP3   OH2 7676   3.023   5.160   0.496  0.1883  0.3089  0.0760
 2557TIP3    H1 7677   3.027   5.160   0.400  0.8313 -0.3893  0.0857
 2557TIP3    H2 7678   2.954   5.222   0.518 -1.2948 -0.9133 -0.8966
 2558TIP3   OH2 7679   2.584   2.561   2.233  0.4030  0.1001 -0.5098
 2558TIP3    H1 7680   2.611   2.641   2.278  0.5070 -0.1881 -0.0474
 2558TIP3    H2 7681   2.662   2.532   2.185  1.0479 -0.8764  1.0361
 2559TIP3   OH2 7682   2.261   5.193   4.082 -0.7930  0.2322  0.2931
 2559TIP3    H1 7683   2.336   5.133   4.077 -0.2630  1.0004 -2.2360
 2559TIP3    H2 7684   2.195   5.153   4.026 -1.4092  0.7322  0.6550
 2560TIP3   OH2 7685   0.494   4.495   5.146 -0.8429 -0.2393  0.0122
 2560TIP3    H1 7686   0.404   4.527   5.132 -0.7381  0.1957  0.3137
 2560TIP3    H2 7687   0.516   4.525   5.234 -1.0130 -1.8164  0.6070
 2561TIP3   OH2 7688   4.224   4.247   2.476  0.2981  0.1087 -0.5742
 2561TIP3    H1 7689   4.144   4.213   2.515  0.8282 -0.4957  0.0043
 2561TIP3    H2 7690   4.284   4.173   2.474  1.7402  1.1166  1.4149
 2562TIP3   OH2 7691   2.152   0.703   3.379  0.4735 -0.2525  0.2560
 2562TIP3    H1 7692   2.142   0.632   3.442  0.6092  0.0121  0.5731
 2562TIP3    H2 7693   2.241   0.735   3.391 -0.0549  0.9370  1.1309
 2563TIP3   OH2 7694   5.376   2.171   1.381 -0.3295 -0.1984  0.0979
 2563TIP3    H1 7695   5.387   2.091   1.432  1.7877 -0.4463 -0.6058
 2563TIP3    H2 7696   5.408   2.241   1.438 -1.6771  0.0923  0.5186
 2564TIP3   OH2 7697   2.851   1.222   1.421  0.0648 -0.4308  0.2997
 2564TIP3    H1 7698   2.880   1.248   1.509  1.3715  0.9443 -0.4773
 2564TIP3    H2 7699   2.901   1.143   1.402  0.6367 -0.0916  0.3653
 2565TIP3   OH2 7700   2.728   1.863   3.880  1.1298  0.0523  0.3095
 2565TIP3    H1 7701   2.701   1.798   3.815  5.9626 -0.9196 -1.0957
 2565TIP3    H2 7702   2.698   1.946   3.844 -1.1682 -0.8971 -0.1810
 2566TIP3   OH2 7703   0.473   5.105   4.568  0.8438 -0.2706 -0.3207
 2566TIP3    H1 7704   0.544   5.043   4.556  1.0408  0.1959 -1.6500
 2566TIP3    H2 7705   0.431   5.111   4.483 -0.0393  0.3806  0.1415
 2567TIP3   OH2 7706   5.014   4.089   3.010  0.6163  0.0312  0.5313
 2567TIP3    H1 7707   4.985   4.136   2.932  0.0606 -2.5493 -0.8983
 2567TIP3    H2 7708   4.935   4.047   3.044  1.3579 -1.1887  0.8043
 2568TIP3   OH2 7709   5.715   5.394   0.135  0.2671 -0.0526 -0.0866
 2568TIP3    H1 7710   5.754   5.436   0.212  0.4154  0.2942 -0.3510
 2568TIP3    H2 7711   5.680   5.466   0.083 -0.2273 -0.3164 -0.1341
 2569TIP3   OH2 7712   2.462   2.968   0.698 -0.3921 -0.4625 -0.0325
 2569TIP3    H1 7713   2.428   2.919   0.773 -1.4717 -0.7910 -0.7170
 2569TIP3    H2 7714   2.436   3.059   0.715  1.4010 -0.1021  1.1159
 2570TIP3   OH2 7715   2.682   5.382   4.142  0.0230 -0.3934  0.7511
 2570TIP3    H1 7716   2.653   5.322   4.074 -1.1265  0.4297  0.4900
 2570TIP3    H2 7717   2.723   5.326   4.208  0.9709 -1.2319 -0.4896
 2571TIP3   OH2 7718   1.091   5.155   2.096  0.6026 -0.2314 -0.5233
 2571TIP3    H1 7719   1.056   5.164   2.185 -0.2588 -1.1874 -0.7389
 2571TIP3    H2 7720   1.043   5.221   2.045  0.0611 -0.6440 -0.5535
 2572TIP3   OH2 7721   0.863   1.039   3.821 -0.5162 -0.0842 -0.1049
 2572TIP3    H1 7722   0.932   1.067   3.761 -1.1063  0.4387 -0.5547
 2572TIP3    H2 7723   0.833   0.955   3.786  1.8938 -1.8821  1.7682
 2573TIP3   OH2 7724   5.964   3.784   3.931  0.2938 -0.0088  0.0479
 2573TIP3    H1 7725   5.873   3.787   3.958  0.1959 -2.5740  0.2013
 2573TIP3    H2 7726   5.963   3.738   3.847  1.4218  0.1614 -0.0786
 2574TIP3   OH2 7727   4.506   3.871   0.750  0.0767 -0.4828  0.1665
 2574TIP3    H1 7728   4.541   3.814   0.681 -0.7140 -0.5412 -0.1997
 2574TIP3    H2 7729   4.484   3.811   0.821  0.8753 -0.4250  0.4685
 2575TIP3   OH2 7730   3.125   1.727   2.047 -0.6390  0.1708 -0.4703
 2575TIP3    H1 7731   3.035   1.753   2.026 -0.4116  1.4905  0.1241
 2575TIP3    H2 7732   3.149   1.782   2.121  0.7054 -0.1014 -0.6854
 2576TIP3   OH2 7733   0.734   0.812   3.330  0.0997 -0.3461 -0.2749
 2576TIP3    H1 7734   0.664   0.825   3.394  0.3611  2.1315 -0.3905
 2576TIP3    H2 7735   0.708   0.734   3.281 -2.5286  0.3985 -0.2123
 2577TIP3   OH2 7736   3.792   2.947   2.253 -0.4443 -0.2883  0.4473
 2577TIP3    H1 7737   3.736   3.008   2.204 -1.5192 -0.7570  1.0570
 2577TIP3    H2 7738   3.739   2.868   2.263 -0.0136 -0.4309  1.8182
 2578TIP3   OH2 7739   5.822   0.759   0.069  0.1339  0.1934  0.3880
 2578TIP3    H1 7740   5.904   0.807   0.052 -0.1036  0.7973  0.9408
 2578TIP3    H2 7741   5.783   0.803   0.144 -1.4916  0.9152 -0.8232
 2579TIP3   OH2 7742   1.809   5.857   0.337  0.6570 -0.1039 -0.1800
 2579TIP3    H1 7743   1.720   5.893   0.328 -0.1711 -1.9989 -0.0299
 2579TIP3    H2 7744   1.851   5.914   0.402 -0.6391  0.4929  0.1780
 2580TIP3   OH2 7745   6.225   0.284   4.313 -0.1354  0.0627 -0.8264
 2580TIP3    H1 7746   6.167   0.210   4.332  2.3037 -1.8929 -0.4648
 2580TIP3    H2 7747   6.244   0.322   4.399  2.3114 -1.9502 -0.3784
 2581TIP3   OH2 7748   6.196   5.826   3.054  0.4049 -0.0878 -0.3055
 2581TIP3    H1 7749   6.114   5.874   3.041  0.7325  0.5933  0.0894
 2581TIP3    H2 7750   6.174   5.760   3.119  0.2655  0.3743  0.1290
 2582TIP3   OH2 7751   2.933   4.869   2.337 -0.1636  0.4243 -0.3736
 2582TIP3    H1 7752   2.987   4.829   2.269  0.5087 -2.2844  1.5829
 2582TIP3    H2 7753   2.984   4.860   2.417 -0.2390  4.8931  0.4117
 2583TIP3   OH2 7754   2.309   1.629   2.795  0.0584 -0.2245  0.3374
 2583TIP3    H1 7755   2.334   1.651   2.884 -0.2845 -4.2029  1.5885
 2583TIP3    H2 7756   2.381   1.575   2.762  0.5839  1.8039 -2.2467
 2584TIP3   OH2 7757   0.568   2.159   3.780  0.1775  0.1387 -0.5054
 2584TIP3    H1 7758   0.522   2.172   3.697 -0.6431  0.6807  0.0237
 2584TIP3    H2 7759   0.501   2.125   3.839  0.7608 -0.2526 -0.0589
 2585TIP3   OH2 7760   1.572   5.456   2.328  0.0600 -0.3010  0.6295
 2585TIP3    H1 7761   1.541   5.488   2.413 -1.1202 -0.8934  0.4392
 2585TIP3    H2 7762   1.639   5.519   2.301  1.9222 -1.1578  2.9017
 2586TIP3   OH2 7763   1.856   2.787   0.743  0.3212 -0.2685  0.1232
 2586TIP3    H1 7764   1.927   2.848   0.764  1.4500 -1.3488 -0.4006
 2586TIP3    H2 7765   1.889   2.739   0.667 -0.8706 -0.9827  0.0450
 2587TIP3   OH2 7766   4.300   3.470   2.015 -0.1342  0.2186  0.0252
 2587TIP3    H1 7767   4.322   3.507   2.101 -1.7894 -0.1606  0.6437
 2587TIP3    H2 7768   4.374   3.412   1.994  1.1092  1.5987  0.3787
 2588TIP3   OH2 7769   1.504   2.716   0.073  0.1554 -0.2043 -0.3575
 2588TIP3    H1 7770   1.474   2.662  -0.001  0.4723 -0.9268  0.0268
 2588TIP3    H2 7771   1.599   2.709   0.071  0.1423 -1.1858  0.7802
 2589TIP3   OH2 7772   5.807   1.630   0.253 -0.2542 -0.3709  0.6540
 2589TIP3    H1 7773   5.738   1.669   0.308 -1.4012 -1.8545  0.3278
 2589TIP3    H2 7774   5.769   1.630   0.165  0.2708 -0.9670  0.4226
 2590TIP3   OH2 7775   0.956   4.248   1.207  0.0246  0.5963 -0.5398
 2590TIP3    H1 7776   0.980   4.174   1.263  0.1864  0.8233 -0.3074
 2590TIP3    H2 7777   0.991   4.224   1.121  1.3755  1.0474 -0.1467
 2591TIP3   OH2 7778   0.643   1.982   3.421  0.6082  0.2334  0.2731
 2591TIP3    H1 7779   0.609   1.929   3.493  3.4097 -1.1906  0.7084
 2591TIP3    H2 7780   0.607   1.941   3.342 -0.5930  0.3257  0.7612
 2592TIP3   OH2 7781   0.034   3.522   1.014 -0.2769 -0.4090 -0.0387
 2592TIP3    H1 7782   0.019   3.521   0.919  0.8974 -0.8376 -0.2314
 2592TIP3    H2 7783   0.031   3.615   1.038 -0.0359 -0.2556 -0.5899
 2593TIP3   OH2 7784   1.677   4.815   1.065  0.2865  0.0520 -0.5854
 2593TIP3    H1 7785   1.662   4.725   1.092  0.3120  0.1751 -0.1622
 2593TIP3    H2 7786   1.606   4.865   1.106  1.0688  0.4334  0.3387
 2594TIP3   OH2 7787   5.632   3.526   3.728 -0.3985  0.7153 -0.5762
 2594TIP3    H1 7788   5.710   3.567   3.690  0.5457 -1.1131 -0.7073
 2594TIP3    H2 7789   5.594   3.594   3.784  1.8143  1.3714  0.2386
 2595TIP3   OH2 7790   1.078   4.947   3.499  0.3968  0.2974 -0.1399
 2595TIP3    H1 7791   1.040   4.885   3.561 -2.2162  1.2426 -0.6840
 2595TIP3    H2 7792   1.080   4.899   3.416 -0.6762  0.5952 -0.3451
 2596TIP3   OH2 7793   1.356   1.732   1.006 -0.3708 -0.1039  0.1375
 2596TIP3    H1 7794   1.411   1.798   1.047 -1.2803  1.6814 -1.3411
 2596TIP3    H2 7795   1.400   1.712   0.923  0.2065 -1.8834  0.8093
 2597TIP3   OH2 7796   3.440   4.991   3.198 -0.3164 -0.1994  0.4890
 2597TIP3    H1 7797   3.477   4.903   3.196 -0.0481 -0.0817 -0.5185
 2597TIP3    H2 7798   3.361   4.983   3.250  0.4058 -0.7504  1.5446
 2598TIP3   OH2 7799   0.548   4.625   1.107 -0.5491 -0.3211  0.1508
 2598TIP3    H1 7800   0.492   4.552   1.133 -0.7999  0.0913  0.7835
 2598TIP3    H2 7801   0.613   4.631   1.178 -0.1181 -0.3628 -0.2383
 2599TIP3   OH2 7802   4.598   0.933   4.909  0.0158  0.0436 -0.4026
 2599TIP3    H1 7803   4.601   0.868   4.839 -2.3604  0.8186 -1.2826
 2599TIP3    H2 7804   4.506   0.940   4.932  0.5051  1.3527  1.3798
 2600TIP3   OH2 7805   3.066   4.037   2.358  0.0531 -0.0482 -0.3858
 2600TIP3    H1 7806   3.131   4.097   2.395 -0.0447 -1.1933  1.8392
 2600TIP3    H2 7807   3.107   3.950   2.365 -1.3806 -0.7065  0.3784
 2601TIP3   OH2 7808   1.615   2.861   4.099 -0.2607 -0.4880  0.0562
 2601TIP3    H1 7809   1.620   2.861   4.194 -0.0716 -1.4924  0.0570
 2601TIP3    H2 7810   1.663   2.782   4.072 -0.3442 -0.2371 -0.8646
 2602TIP3   OH2 7811   4.135   2.951   3.371  0.1311  0.0911 -0.0954
 2602TIP3    H1 7812   4.120   2.864   3.407 -0.0680  0.3948  0.5810
 2602TIP3    H2 7813   4.125   3.010   3.446  1.1841  0.6175 -0.3514
 2603TIP3   OH2 7814   5.386   3.567   4.568  0.4664  0.1445 -0.0056
 2603TIP3    H1 7815   5.431   3.506   4.509  0.5606 -1.2267  1.4364
 2603TIP3    H2 7816   5.295   3.539   4.567  0.3540  0.5001  0.0574
 2604TIP3   OH2 7817   5.007   2.523   4.492  0.5859 -0.0916  0.1540
 2604TIP3    H1 7818   4.977   2.434   4.477  1.6018 -0.2840 -0.9487
 2604TIP3    H2 7819   4.944   2.578   4.445  0.0642 -0.2252  0.6827
 2605TIP3   OH2 7820   0.632   3.519   4.718  0.3347  0.0333  1.0888
 2605TIP3    H1 7821   0.552   3.541   4.764 -0.6028 -4.2451  1.9977
 2605TIP3    H2 7822   0.637   3.423   4.724  3.3435 -0.2789 -2.5528
 2606TIP3   OH2 7823   1.743   0.381   1.849  0.1073  0.5503 -0.5883
 2606TIP3    H1 7824   1.648   0.386   1.864  0.2231  0.0739  0.4137
 2606TIP3    H2 7825   1.780   0.437   1.917  0.6440 -1.2853  0.6971
 2607TIP3   OH2 7826   4.151   5.437   1.429  0.3097  0.0399 -0.5350
 2607TIP3    H1 7827   4.076   5.402   1.381 -0.0929 -0.5328  0.5019
 2607TIP3    H2 7828   4.191   5.361   1.470  0.1067  0.6355  0.7978
 2608TIP3   OH2 7829   2.746   1.589   0.103 -0.0419 -0.1939 -0.2407
 2608TIP3    H1 7830   2.686   1.609   0.175  0.9050 -0.0383  0.5213
 2608TIP3    H2 7831   2.737   1.662   0.043  0.5080  0.6172  0.6267
 2609TIP3   OH2 7832   5.586   1.067   4.219 -0.1350  0.1771  0.3257
 2609TIP3    H1 7833   5.595   1.130   4.289 -1.2782 -1.4478  2.0336
 2609TIP3    H2 7834   5.676   1.046   4.193  0.2918  1.0071  1.1018
 2610TIP3   OH2 7835   0.355   4.078   4.682  0.1544  0.1171 -0.4775
 2610TIP3    H1 7836   0.346   4.168   4.713 -0.1021  0.6917 -2.1230
 2610TIP3    H2 7837   0.277   4.063   4.629  0.1573 -1.1159 -0.1654
 2611TIP3   OH2 7838   3.065   3.905   2.063 -0.0971  0.4118 -0.2595
 2611TIP3    H1 7839   2.984   3.913   2.113  0.0940 -0.0460  0.1219
 2611TIP3    H2 7840   3.117   3.840   2.110  1.5452  2.4699  0.9432
 2612TIP3   OH2 7841   4.654   4.388   3.296  0.0047 -0.1513 -0.2115
 2612TIP3    H1 7842   4.736   4.344   3.317  0.3937  0.6087 -0.0721
 2612TIP3    H2 7843   4.639   4.368   3.203  1.2674  1.1022 -0.7282
 2613TIP3   OH2 7844   1.991   1.935   2.632  0.9297 -0.3348 -0.3692
 2613TIP3    H1 7845   1.961   2.026   2.637  0.4024 -0.5725  1.8710
 2613TIP3    H2 7846   2.044   1.923   2.710  1.8559 -1.6862 -1.1575
 2614TIP3   OH2 7847   3.850   2.162   4.306  0.2366 -0.2277 -0.5091
 2614TIP3    H1 7848   3.852   2.255   4.285  3.4667  0.1408  0.8760
 2614TIP3    H2 7849   3.759   2.137   4.292 -0.1590  2.3206 -4.0888
 2615TIP3   OH2 7850   1.220   3.799   0.903 -0.3465 -0.0392 -0.2369
 2615TIP3    H1 7851   1.127   3.822   0.910 -0.1481  0.9993 -0.8388
 2615TIP3    H2 7852   1.222   3.722   0.845 -0.9204 -0.8726  0.8098
 2616TIP3   OH2 7853   2.791   1.207   4.443  0.1654 -0.3846  0.2848
 2616TIP3    H1 7854   2.708   1.222   4.400  0.1079  1.6633  0.9883
 2616TIP3    H2 7855   2.770   1.153   4.519 -0.4244 -0.3847  0.1213
 2617TIP3   OH2 7856   5.353   2.930   5.077 -0.0391 -0.3162  0.4104
 2617TIP3    H1 7857   5.417   2.899   5.013  0.2906 -1.3586  1.2224
 2617TIP3    H2 7858   5.383   3.019   5.099  0.6869 -0.5019  0.2099
 2618TIP3   OH2 7859   5.227   4.797   1.808  0.2305  0.2867  0.0143
 2618TIP3    H1 7860   5.170   4.774   1.881 -1.3376 -0.1399 -1.2729
 2618TIP3    H2 7861   5.168   4.831   1.741  1.5853  0.5102 -1.1269
 2619TIP3   OH2 7862   1.958   3.969   2.010 -0.1055 -0.7997 -0.1595
 2619TIP3    H1 7863   1.926   4.058   2.024  1.0849 -0.4439  0.4778
 2619TIP3    H2 7864   1.893   3.929   1.954 -1.6223 -0.1173  1.0397
 2620TIP3   OH2 7865   6.244   2.636   1.538  0.7600 -0.2400  0.2110
 2620TIP3    H1 7866   6.223   2.570   1.472  0.0729  1.0801 -0.9514
 2620TIP3    H2 7867   6.332   2.612   1.568  0.9564 -1.0769 -0.9400
 2621TIP3   OH2 7868   4.945   2.080   1.439 -0.2835  0.5077  0.0753
 2621TIP3    H1 7869   4.896   1.997   1.441  0.5593  0.0099  0.6037
 2621TIP3    H2 7870   5.021   2.061   1.384  0.2827  0.7095  0.7742
 2622TIP3   OH2 7871   3.511   4.517   4.972  0.3646  0.0600  0.5447
 2622TIP3    H1 7872   3.590   4.568   4.991  0.0769  0.7532 -0.0647
 2622TIP3    H2 7873   3.442   4.583   4.963  0.3074 -0.2363 -2.0448
 2623TIP3   OH2 7874   0.295   3.135   1.869  0.2056  0.1492 -0.1741
 2623TIP3    H1 7875   0.232   3.206   1.863 -0.8409 -0.7142  0.2786
 2623TIP3    H2 7876   0.377   3.172   1.837 -1.0925  0.5494 -3.3393
 2624TIP3   OH2 7877   6.093   2.691   0.585 -0.2495  0.1359  0.6620
 2624TIP3    H1 7878   6.008   2.734   0.577  0.9156  2.4122 -0.1126
 2624TIP3    H2 7879   6.078   2.620   0.648 -2.3061  1.5514  1.8674
 2625TIP3   OH2 7880   6.284   0.340   4.584  0.2533  0.5971  0.3583
 2625TIP3    H1 7881   6.257   0.432   4.573 -1.2876  0.0833 -0.4649
 2625TIP3    H2 7882   6.238   0.311   4.662  1.1904  0.6639  0.9474
 2626TIP3   OH2 7883   0.871   3.192   2.698 -0.2711 -0.0735  0.8792
 2626TIP3    H1 7884   0.776   3.201   2.692 -0.1539  0.8809  0.1393
 2626TIP3    H2 7885   0.905   3.243   2.624  0.8397  0.2460  1.5820
 2627TIP3   OH2 7886   2.428   1.738   1.838 -0.3083  0.2511  0.1707
 2627TIP3    H1 7887   2.356   1.801   1.849 -0.0530  1.1734 -2.6248
 2627TIP3    H2 7888   2.429   1.718   1.744  2.4866 -0.4801  0.2527
 2628TIP3   OH2 7889   1.373   0.168   4.113 -0.2427  0.4848  0.2363
 2628TIP3    H1 7890   1.330   0.084   4.130  0.0991  0.0979 -0.7179
 2628TIP3    H2 7891   1.314   0.233   4.149  0.2775 -0.2351  2.5324
 2629TIP3   OH2 7892   2.558   0.961   0.369  0.4429 -0.3670 -0.4413
 2629TIP3    H1 7893   2.624   0.916   0.317  1.4041  0.4616  0.0412
 2629TIP3    H2 7894   2.602   0.983   0.451  0.1688  1.8311 -0.8122
 2630TIP3   OH2 7895   2.480   4.041   1.752 -0.4321  0.6449 -0.1520
 2630TIP3    H1 7896   2.483   4.134   1.727  0.4866  1.1352  1.6174
 2630TIP3    H2 7897   2.542   3.999   1.693 -2.0170  0.8213 -2.0562
 2631TIP3   OH2 7898   0.772   5.649   1.407  0.1512  0.2244 -0.0139
 2631TIP3    H1 7899   0.724   5.642   1.490  2.1877  0.6928  1.2748
 2631TIP3    H2 7900   0.752   5.567   1.361 -0.4479 -0.3711  1.2468
 2632TIP3   OH2 7901   2.146   5.729   2.303  0.4595 -0.5673  0.5525
 2632TIP3    H1 7902   2.174   5.725   2.211 -0.4441 -1.9927  0.3204
 2632TIP3    H2 7903   2.121   5.821   2.316  0.9758 -0.2595 -0.4920
 2633TIP3   OH2 7904   0.889   2.312   2.309 -0.1840  0.0168  0.1215
 2633TIP3    H1 7905   0.975   2.277   2.329  0.2281  0.6983 -0.4455
 2633TIP3    H2 7906   0.829   2.257   2.360  0.5838 -0.3821  0.6160
 2634TIP3   OH2 7907   0.840   2.920   3.075 -0.4153  0.2165  0.2850
 2634TIP3    H1 7908   0.856   2.852   3.140 -0.5765 -0.7053 -0.6046
 2634TIP3    H2 7909   0.746   2.916   3.058 -0.1255 -0.8219 -1.3027
 2635TIP3   OH2 7910   5.404   5.681   3.945  0.3991 -0.4909  0.2221
 2635TIP3    H1 7911   5.410   5.770   3.910 -0.3904  0.9513  3.3958
 2635TIP3    H2 7912   5.487   5.640   3.921  2.1431  2.1804  1.2467
 2636TIP3   OH2 7913   0.235   1.739   0.373 -0.2825  0.2786 -0.2359
 2636TIP3    H1 7914   0.183   1.689   0.310 -1.3446  1.0851 -0.0119
 2636TIP3    H2 7915   0.226   1.830   0.345  2.0227  0.3804 -0.9227
 2637TIP3   OH2 7916   5.649   3.013   3.717  0.3928  0.1307  0.3055
 2637TIP3    H1 7917   5.657   3.016   3.812  1.8511 -0.4551  0.2223
 2637TIP3    H2 7918   5.571   2.961   3.701  0.7361 -0.6869  1.1821
 2638TIP3   OH2 7919   5.025   4.431   3.862 -0.1321  0.0074  0.1079
 2638TIP3    H1 7920   4.976   4.366   3.912 -0.6770  0.5833  0.3356
 2638TIP3    H2 7921   5.003   4.412   3.771  0.6549 -0.8753  0.0868
 2639TIP3   OH2 7922   4.324   2.442   2.083  0.5018  0.3041  0.3925
 2639TIP3    H1 7923   4.331   2.374   2.149  1.8359 -0.2127 -0.2545
 2639TIP3    H2 7924   4.414   2.472   2.069 -0.0370  2.1142  0.5661
 2640TIP3   OH2 7925   2.591   4.054   0.330  0.0410  0.3904 -0.1311
 2640TIP3    H1 7926   2.636   3.979   0.369  0.6652  1.1653  0.6765
 2640TIP3    H2 7927   2.524   4.077   0.394 -1.4017 -0.6075 -1.2196
 2641TIP3   OH2 7928   2.001   5.926   0.806  0.0883  0.0236 -0.2886
 2641TIP3    H1 7929   2.010   5.859   0.874 -2.7568  2.2685  2.5966
 2641TIP3    H2 7930   1.928   5.896   0.752  1.0366 -0.7562 -1.1972
 2642TIP3   OH2 7931   4.046   2.466   1.220 -0.5327 -0.0625 -0.2185
 2642TIP3    H1 7932   4.059   2.416   1.139 -0.1790  0.9402 -0.7997
 2642TIP3    H2 7933   3.954   2.450   1.243 -0.9920  0.5777 -1.4903
 2643TIP3   OH2 7934   1.984   3.560   2.535 -0.2150 -0.1533  0.6504
 2643TIP3    H1 7935   1.981   3.573   2.441  1.0489 -0.6641  0.5280
 2643TIP3    H2 7936   1.899   3.522   2.557 -0.3650 -0.4022 -0.3287
 2644TIP3   OH2 7937   4.759   1.270   2.705 -0.3344  0.3097 -0.0802
 2644TIP3    H1 7938   4.834   1.327   2.719  0.3614 -0.9376  1.5745
 2644TIP3    H2 7939   4.789   1.183   2.730 -2.2732 -0.2582  0.4765
 2645TIP3   OH2 7940   6.063   4.291   4.888 -0.0404  0.6396  0.2685
 2645TIP3    H1 7941   6.094   4.235   4.959 -0.0625  0.9067  0.4909
 2645TIP3    H2 7942   6.133   4.288   4.822 -0.8853 -1.2383 -0.6225
 2646TIP3   OH2 7943   3.801   5.359   2.533 -0.2638 -0.0866  0.3898
 2646TIP3    H1 7944   3.740   5.305   2.582  0.1778 -0.4286  0.5729
 2646TIP3    H2 7945   3.877   5.302   2.518 -0.4879 -0.0634 -0.8987
 2647TIP3   OH2 7946   2.416   3.695   4.618  0.0355 -0.7101 -0.7006
 2647TIP3    H1 7947   2.434   3.624   4.680 -2.5848 -1.3492 -0.5486
 2647TIP3    H2 7948   2.406   3.651   4.534  0.0373 -0.2964 -0.9180
 2648TIP3   OH2 7949   3.322   1.644   3.231 -0.0630 -1.0705  0.2371
 2648TIP3    H1 7950   3.340   1.699   3.155 -0.0730 -0.2462  0.8182
 2648TIP3    H2 7951   3.391   1.667   3.294 -0.7093 -0.9262  0.8988
 2649TIP3   OH2 7952   2.793   4.192   0.988 -0.3472  0.1362 -0.1995
 2649TIP3    H1 7953   2.742   4.120   0.951 -0.4108  0.6965 -1.2536
 2649TIP3    H2 7954   2.727   4.254   1.020 -0.3214  0.3676 -0.5861
 2650TIP3   OH2 7955   5.559   1.273   4.416 -0.3666  0.0629  0.2217
 2650TIP3    H1 7956   5.584   1.246   4.504  0.4671 -2.0721 -0.5887
 2650TIP3    H2 7957   5.464   1.278   4.418 -0.3293  0.5155  1.3499
 2651TIP3   OH2 7958   5.619   1.986   5.165  0.0900  0.1832 -0.0291
 2651TIP3    H1 7959   5.647   1.933   5.090 -2.7077 -0.9576 -0.3695
 2651TIP3    H2 7960   5.624   2.076   5.134  0.9792 -0.1184 -0.8331
 2652TIP3   OH2 7961   1.720   0.967   0.905  0.0779  0.3457  0.0751
 2652TIP3    H1 7962   1.799   0.914   0.890 -0.3547 -0.3401  0.1615
 2652TIP3    H2 7963   1.687   0.936   0.989 -1.7520 -1.3110 -1.1656
 2653TIP3   OH2 7964   2.657   4.662   2.718 -0.4239  0.1368  0.0995
 2653TIP3    H1 7965   2.628   4.723   2.786 -0.1089 -0.7040  0.9993
 2653TIP3    H2 7966   2.679   4.582   2.765  0.8233 -0.1154 -0.8711
 2654TIP3   OH2 7967   5.513   3.015   2.131  0.2286 -0.2828 -0.0220
 2654TIP3    H1 7968   5.525   2.930   2.089  0.0856 -0.7694  0.8937
 2654TIP3    H2 7969   5.568   3.075   2.080 -2.1599 -0.1894 -2.7543
 2655TIP3   OH2 7970   0.152   5.519   0.974 -0.3754 -0.4670  0.1330
 2655TIP3    H1 7971   0.229   5.475   1.010  0.2608  0.1728 -0.4272
 2655TIP3    H2 7972   0.126   5.581   1.041  1.8642  1.9966 -1.0857
 2656TIP3   OH2 7973   3.017   1.733   4.554  0.0833  0.5745  0.1838
 2656TIP3    H1 7974   3.074   1.728   4.630  0.8277 -0.4085 -0.4136
 2656TIP3    H2 7975   2.928   1.739   4.591  0.4775  0.9215  1.1122
 2657TIP3   OH2 7976   4.548   1.287   4.634 -0.3886  0.2967  0.1108
 2657TIP3    H1 7977   4.616   1.351   4.613 -0.5258  0.2244 -0.6109
 2657TIP3    H2 7978   4.553   1.276   4.728  0.6414  0.2365  0.0572
 2658TIP3   OH2 7979   5.919   0.265   0.038  0.3786 -0.1285 -0.2069
 2658TIP3    H1 7980   5.949   0.287   0.126 -0.8310  0.5060  0.0748
 2658TIP3    H2 7981   5.931   0.170   0.031 -0.9431 -0.4459  1.2318
 2659TIP3   OH2 7982   0.368   5.086   3.912  0.4592  0.2928 -0.0425
 2659TIP3    H1 7983   0.327   5.125   3.834 -3.5866  0.8132  2.0833
 2659TIP3    H2 7984   0.412   5.159   3.955  0.3280  0.6093 -0.4385
 2660TIP3   OH2 7985   4.397   1.600   4.710  0.2131 -0.8676 -0.5392
 2660TIP3    H1 7986   4.392   1.528   4.773  0.6300 -1.4848 -1.1892
 2660TIP3    H2 7987   4.490   1.614   4.697  0.1347 -0.9755 -1.2577
 2661TIP3   OH2 7988   2.495   3.086   1.124  0.0255  0.2972  0.2032
 2661TIP3    H1 7989   2.451   3.039   1.053  0.3442 -0.1106  0.2717
 2661TIP3    H2 7990   2.492   3.178   1.097 -1.8464  0.4299  0.7389
 2662TIP3   OH2 7991   4.339   2.340   0.594 -0.2223  0.2588 -0.0035
 2662TIP3    H1 7992   4.428   2.335   0.627 -0.5451 -2.3015  0.7284
 2662TIP3    H2 7993   4.348   2.331   0.499  0.4057  2.6206 -0.2151
 2663TIP3   OH2 7994   0.946   4.456   3.236  0.1201 -0.5752 -0.1104
 2663TIP3    H1 7995   0.981   4.520   3.298 -1.1457 -1.2906  1.3972
 2663TIP3    H2 7996   1.024   4.415   3.199  0.9161  0.3347  0.4942
 2664TIP3   OH2 7997   1.448   5.552   4.317 -0.0710 -0.5588  0.3957
 2664TIP3    H1 7998   1.456   5.496   4.394 -1.1620 -0.1337  0.8323
 2664TIP3    H2 7999   1.389   5.622   4.344 -1.1972 -0.8810 -1.0785
 2665TIP3   OH2 8000   2.316   5.144   2.448 -0.1968 -0.1655 -0.5752
 2665TIP3    H1 8001   2.354   5.232   2.448  0.0501 -0.2539  0.3105
 2665TIP3    H2 8002   2.371   5.094   2.509 -1.7247 -0.2836  0.8094
 2666TIP3   OH2 8003   2.636   5.019   3.293  0.7593  0.2845  0.2472
 2666TIP3    H1 8004   2.701   5.010   3.224  0.5575 -1.1257  0.2240
 2666TIP3    H2 8005   2.553   4.994   3.252  0.8297 -1.8918  1.2978
 2667TIP3   OH2 8006   3.118   1.496   2.945 -0.2950  0.0006 -0.0758
 2667TIP3    H1 8007   3.110   1.505   3.040 -0.5327 -0.3124 -0.0628
 2667TIP3    H2 8008   3.027   1.490   2.914 -0.2028 -0.4940 -0.2597
 2668TIP3   OH2 8009   4.439   5.700   4.582  0.2593 -0.4618  0.6248
 2668TIP3    H1 8010   4.344   5.704   4.575  0.2797 -1.9951 -1.0563
 2668TIP3    H2 8011   4.457   5.727   4.672 -1.4858  3.2022  0.0944
 2669TIP3   OH2 8012   4.079   0.301   4.595 -0.8097  0.3372  0.2591
 2669TIP3    H1 8013   4.113   0.321   4.508  0.1351 -1.3380  0.2056
 2669TIP3    H2 8014   4.008   0.239   4.580  1.2780 -2.4053  0.7152
 2670TIP3   OH2 8015   0.065   1.058   1.239 -0.2568  0.0692 -0.4705
 2670TIP3    H1 8016   0.074   0.996   1.312  0.0020  1.8183  1.0805
 2670TIP3    H2 8017  -0.016   1.105   1.258 -0.0707  0.6948 -1.2072
 2671TIP3   OH2 8018   0.350   1.156   1.893 -0.1025 -0.2670 -0.1158
 2671TIP3    H1 8019   0.306   1.083   1.936  0.9300  0.7542  2.9254
 2671TIP3    H2 8020   0.426   1.117   1.851  0.0632 -1.0309  0.8720
 2672TIP3   OH2 8021   5.442   0.679   0.233 -0.2931  0.4184  0.4465
 2672TIP3    H1 8022   5.438   0.597   0.183  3.6412  1.8479 -2.7694
 2672TIP3    H2 8023   5.512   0.664   0.297 -0.0877  0.9752  0.3573
 2673TIP3   OH2 8024   3.315   2.351   1.562 -0.1341  0.0663 -0.0076
 2673TIP3    H1 8025   3.303   2.426   1.621  2.5391  0.1358  0.6103
 2673TIP3    H2 8026   3.227   2.323   1.539 -1.2650  1.0007  2.8073
 2674TIP3   OH2 8027   1.003   0.892   0.669 -0.2090  0.6116 -0.6422
 2674TIP3    H1 8028   1.009   0.962   0.734  1.5946  0.7283 -0.8852
 2674TIP3    H2 8029   0.971   0.935   0.590  2.9791  1.7640 -1.4690
 2675TIP3   OH2 8030   0.268   1.214   2.263 -0.0307 -0.6029 -0.0994
 2675TIP3    H1 8031   0.194   1.249   2.214  0.4295 -0.7219 -0.8961
 2675TIP3    H2 8032   0.302   1.289   2.312 -0.4770 -0.4728  0.0131
 2676TIP3   OH2 8033   4.663   5.668   2.376 -0.1853  0.3853 -0.4046
 2676TIP3    H1 8034   4.744   5.649   2.423 -0.3402 -0.2119 -0.3784
 2676TIP3    H2 8035   4.676   5.756   2.341  0.2266  0.5389  0.1241
 2677TIP3   OH2 8036   0.744   3.772   4.905 -0.2131  0.4872  0.0070
 2677TIP3    H1 8037   0.837   3.775   4.882 -0.1270  0.2742  0.3184
 2677TIP3    H2 8038   0.734   3.691   4.954 -0.6346  0.3413 -0.3191
 2678TIP3   OH2 8039   1.675   0.154   4.498 -0.4481 -0.1011 -0.1120
 2678TIP3    H1 8040   1.584   0.126   4.509 -0.5170  0.4352  0.7676
 2678TIP3    H2 8041   1.670   0.227   4.435 -0.4114 -1.1800 -1.4074
 2679TIP3   OH2 8042   0.791   1.761   0.678  0.4054 -0.1111  0.4052
 2679TIP3    H1 8043   0.786   1.668   0.653  0.8375 -0.3448  1.1479
 2679TIP3    H2 8044   0.872   1.792   0.638  0.2341 -0.0399  0.1127
 2680TIP3   OH2 8045   6.298   5.246   4.618 -0.2537 -0.5767 -0.2535
 2680TIP3    H1 8046   6.233   5.177   4.628  1.2188 -1.8612  0.8122
 2680TIP3    H2 8047   6.353   5.217   4.546  0.3060 -0.4785  0.1277
 2681TIP3   OH2 8048   2.400   5.118   3.656 -0.1791 -0.3355  0.1166
 2681TIP3    H1 8049   2.360   5.042   3.614 -1.8440  0.6363 -0.1768
 2681TIP3    H2 8050   2.494   5.102   3.652 -0.4224 -1.5766 -1.4776
 2682TIP3   OH2 8051   3.909   1.872   3.067  0.0956 -0.4471  0.0658
 2682TIP3    H1 8052   3.882   1.803   3.128 -0.7674 -0.5069 -0.3712
 2682TIP3    H2 8053   3.836   1.879   3.005  0.8060 -0.1338 -0.7422
 2683TIP3   OH2 8054   2.525   3.059   4.839  0.2887  0.1333 -0.4562
 2683TIP3    H1 8055   2.498   2.972   4.812  1.7475 -0.5307  0.1350
 2683TIP3    H2 8056   2.577   3.092   4.765  0.0358  0.3735 -0.5316
 2684TIP3   OH2 8057   1.193   4.362   3.755  0.2513  0.2620 -0.1379
 2684TIP3    H1 8058   1.108   4.364   3.799  0.1332 -1.0252 -0.2495
 2684TIP3    H2 8059   1.254   4.401   3.817 -0.0376 -0.8798  0.9014
 2685TIP3   OH2 8060   0.057   1.039   4.346 -0.6987  0.0402  0.1370
 2685TIP3    H1 8061   0.050   1.096   4.422  0.7981  0.8874 -0.3380
 2685TIP3    H2 8062   0.149   1.044   4.319 -0.6125 -2.1963 -0.2298
 2686TIP3   OH2 8063   1.447   1.362   1.547  0.2457  0.3710  0.2908
 2686TIP3    H1 8064   1.429   1.415   1.468 -1.1422 -0.1510  0.2177
 2686TIP3    H2 8065   1.541   1.347   1.545  0.4339  1.4925 -0.5501
 2687TIP3   OH2 8066   1.017   0.543   2.828  0.1831 -0.8992  0.0421
 2687TIP3    H1 8067   1.097   0.502   2.796 -0.8157 -1.4487 -1.9346
 2687TIP3    H2 8068   1.045   0.626   2.866  1.6372 -0.8254 -1.1188
 2688TIP3   OH2 8069   3.473   2.067   4.703  0.4424  0.3202  0.1111
 2688TIP3    H1 8070   3.462   2.111   4.619  1.8223  1.8293  0.6663
 2688TIP3    H2 8071   3.422   2.120   4.765  1.0978  0.4243  0.5711
 2689TIP3   OH2 8072   2.292   5.207   0.048  0.3265 -0.1108  0.3763
 2689TIP3    H1 8073   2.274   5.242  -0.039 -1.0009 -0.7780  0.3675
 2689TIP3    H2 8074   2.345   5.129   0.032  0.4273 -0.0049  0.1947
 2690TIP3   OH2 8075   1.348   3.008   3.298 -0.1587  0.1769 -0.1308
 2690TIP3    H1 8076   1.269   3.040   3.342 -0.9924 -1.3941 -0.3872
 2690TIP3    H2 8077   1.419   3.061   3.334 -1.3126  1.5864  0.1608
 2691TIP3   OH2 8078   2.441   4.449   2.986 -0.4195 -0.3764  0.2369
 2691TIP3    H1 8079   2.493   4.419   3.060  0.1103 -2.0463 -0.7536
 2691TIP3    H2 8080   2.497   4.433   2.910 -1.6967 -0.5662 -0.6879
 2692TIP3   OH2 8081   4.346   0.662   4.102  0.3233  0.2598 -0.2155
 2692TIP3    H1 8082   4.409   0.734   4.107 -0.6015  1.0024  1.8359
 2692TIP3    H2 8083   4.398   0.583   4.115  0.8396  0.8778  1.7458
 2693TIP3   OH2 8084   1.018   2.472   1.193 -0.1917  0.3606  0.4496
 2693TIP3    H1 8085   0.973   2.411   1.135 -0.0216  1.0896 -0.4630
 2693TIP3    H2 8086   0.971   2.555   1.183  0.4555  0.7536  0.5827
 2694TIP3   OH2 8087   1.426   3.644   1.487  0.2842  0.0177  0.1071
 2694TIP3    H1 8088   1.423   3.719   1.546  0.2983  0.2269 -0.1577
 2694TIP3    H2 8089   1.515   3.644   1.453  0.2415 -0.0340 -0.0051
 2695TIP3   OH2 8090   5.093   4.430   3.318  0.2924 -0.4738 -0.1438
 2695TIP3    H1 8091   5.053   4.513   3.344  1.3154 -0.2535  0.7836
 2695TIP3    H2 8092   5.019   4.373   3.299 -0.4353  0.5363 -0.4528
 2696TIP3   OH2 8093   4.282   5.624   0.595  0.0038  0.3945  0.6147
 2696TIP3    H1 8094   4.216   5.661   0.653  1.8709  0.0459  3.1963
 2696TIP3    H2 8095   4.325   5.699   0.555  0.4893  0.8648  1.9364
 2697TIP3   OH2 8096   1.542   3.259   0.722  0.1651  0.5099 -0.0507
 2697TIP3    H1 8097   1.611   3.209   0.678 -0.2320 -0.4000  0.3379
 2697TIP3    H2 8098   1.548   3.231   0.814 -1.6792 -0.7364 -0.2604
 2698TIP3   OH2 8099   4.815   4.909   2.930 -0.2633  0.1309 -0.0615
 2698TIP3    H1 8100   4.752   4.888   2.861 -0.5400  1.3220 -0.2032
 2698TIP3    H2 8101   4.855   4.991   2.901  0.3188  0.1284  0.7218
 2699TIP3   OH2 8102   3.896   0.631   4.123 -0.3182 -0.2463 -0.4568
 2699TIP3    H1 8103   3.949   0.698   4.167 -2.0486  0.6577  0.3260
 2699TIP3    H2 8104   3.836   0.600   4.190  0.2561 -2.4441 -0.8790
 2700TIP3   OH2 8105   4.602   3.986   2.055 -0.4202 -0.7679  0.3643
 2700TIP3    H1 8106   4.539   4.053   2.079 -1.2737 -1.4357  0.0545
 2700TIP3    H2 8107   4.662   3.981   2.129 -0.1331  0.5553  0.2481
 2701TIP3   OH2 8108   3.921   5.765   0.576  0.0546 -0.2097  0.1617
 2701TIP3    H1 8109   3.907   5.679   0.617  0.1294 -0.3926 -0.1893
 2701TIP3    H2 8110   3.890   5.828   0.641 -3.0757 -0.5787 -0.7904
 2702TIP3   OH2 8111   2.664   1.744   0.973 -0.3620  0.3650 -0.5472
 2702TIP3    H1 8112   2.705   1.770   0.890  2.0752  0.3957  0.5767
 2702TIP3    H2 8113   2.668   1.648   0.972 -2.4255  0.2329 -1.3888
 2703TIP3   OH2 8114   5.511   2.445   3.670 -1.0449 -0.4731 -0.0455
 2703TIP3    H1 8115   5.521   2.538   3.647 -2.3125 -0.1865  0.4465
 2703TIP3    H2 8116   5.506   2.401   3.585  1.2978 -0.3397 -0.2960
 2704TIP3   OH2 8117   5.951   5.989   1.696 -0.0188  0.3359  0.2826
 2704TIP3    H1 8118   5.916   5.900   1.694 -0.4958  0.5211  0.1640
 2704TIP3    H2 8119   5.989   5.998   1.783 -1.2811  0.4964  0.8463
 2705TIP3   OH2 8120   1.303   5.775   0.256  0.3700  0.3777  0.5925
 2705TIP3    H1 8121   1.286   5.702   0.316  1.3332  2.0694  3.0942
 2705TIP3    H2 8122   1.216   5.814   0.243  0.3508  1.0971  2.5067
 2706TIP3   OH2 8123   0.736   1.000   2.424  0.0529  0.3228 -0.1529
 2706TIP3    H1 8124   0.749   0.933   2.492 -0.5781 -0.8016 -1.1056
 2706TIP3    H2 8125   0.808   1.062   2.437 -1.0372  1.1558  2.6819
 2707TIP3   OH2 8126   0.189   2.901   1.947 -0.2794 -0.1407 -0.1288
 2707TIP3    H1 8127   0.224   2.837   1.885  0.1528  0.2458 -0.2897
 2707TIP3    H2 8128   0.238   2.981   1.929  0.9305 -0.4001  1.7178
 2708TIP3   OH2 8129   0.209   2.487   4.528 -0.0387 -0.0260  0.3742
 2708TIP3    H1 8130   0.219   2.444   4.613 -0.6395 -0.5595  0.1879
 2708TIP3    H2 8131   0.121   2.525   4.531  0.2578  0.6809  0.3017
 2709TIP3   OH2 8132   3.784   2.875   3.823 -0.3463 -0.4619  0.5477
 2709TIP3    H1 8133   3.745   2.877   3.736 -0.7236 -1.9707  0.6595
 2709TIP3    H2 8134   3.831   2.958   3.830  0.7023 -0.8274 -1.5509
 2710TIP3   OH2 8135   3.120   2.560   2.479  0.3177  0.1929 -0.3508
 2710TIP3    H1 8136   3.166   2.478   2.497 -0.7520 -0.3996 -0.2254
 2710TIP3    H2 8137   3.087   2.588   2.564  0.9727  0.9480 -0.3363
 2711TIP3   OH2 8138   1.351   1.057   2.446 -0.2986  0.5491  0.1698
 2711TIP3    H1 8139   1.409   1.005   2.390 -0.3680  0.6775 -0.0216
 2711TIP3    H2 8140   1.273   1.003   2.456 -1.0297  1.2784 -1.3335
 2712TIP3   OH2 8141   1.025   4.376   4.995 -0.0144  0.6849  0.5642
 2712TIP3    H1 8142   0.991   4.426   4.921 -0.3800  0.1793  0.3842
 2712TIP3    H2 8143   0.974   4.406   5.070 -1.7736 -0.9598  0.0869
 2713TIP3   OH2 8144   3.757   4.525   3.936 -0.1435 -0.0998  0.6248
 2713TIP3    H1 8145   3.841   4.567   3.952  0.7837 -0.3596 -2.8024
 2713TIP3    H2 8146   3.695   4.597   3.926  0.9693  0.5799 -2.7816
 2714TIP3   OH2 8147   3.227   5.406   2.268  0.3070 -0.0683 -0.5760
 2714TIP3    H1 8148   3.158   5.351   2.232  0.9431 -0.7646 -0.7614
 2714TIP3    H2 8149   3.304   5.386   2.214  0.8672  0.0669  0.1561
 2715TIP3   OH2 8150   0.856   4.508   4.773  0.1048 -0.3816  0.4564
 2715TIP3    H1 8151   0.851   4.477   4.683  2.6239 -2.4287  0.9173
 2715TIP3    H2 8152   0.801   4.446   4.822 -0.7383  0.3419  0.4541
 2716TIP3   OH2 8153   4.529   2.414   0.223 -0.8168 -1.4066  0.1520
 2716TIP3    H1 8154   4.554   2.454   0.140 -0.0812 -0.6298  0.7299
 2716TIP3    H2 8155   4.567   2.326   0.220 -0.5459 -1.2795 -0.2113
 2717TIP3   OH2 8156   1.172   4.416   2.444  0.4899 -0.0832  0.3199
 2717TIP3    H1 8157   1.194   4.492   2.389  2.4330  1.2093  2.6765
 2717TIP3    H2 8158   1.097   4.445   2.496  0.0157 -0.5019 -0.1302
 2718TIP3   OH2 8159   2.736   1.617   3.168  0.4832  0.4084 -0.4851
 2718TIP3    H1 8160   2.655   1.653   3.203  1.6530  2.0156  0.6842
 2718TIP3    H2 8161   2.728   1.522   3.182 -1.1365  0.5435 -0.3333
 2719TIP3   OH2 8162   0.107   2.106   0.925  0.1167  0.0773 -0.3514
 2719TIP3    H1 8163   0.177   2.098   0.990  0.2721  0.6616 -0.4426
 2719TIP3    H2 8164   0.153   2.125   0.843 -0.0510 -0.9771 -0.7119
 2720TIP3   OH2 8165   3.252   1.046   3.290 -0.3855  0.3104  0.4140
 2720TIP3    H1 8166   3.160   1.046   3.315 -0.7580  0.3317 -0.8602
 2720TIP3    H2 8167   3.269   0.956   3.263  0.0539  0.2409  0.9069
 2721TIP3   OH2 8168   6.065   2.535   1.721  0.0229  0.4922 -0.4839
 2721TIP3    H1 8169   6.052   2.526   1.626 -2.6334  1.5291 -0.3211
 2721TIP3    H2 8170   6.140   2.594   1.729  0.6863 -0.0950 -1.9091
 2722TIP3   OH2 8171   5.119   3.172   4.457 -0.4897  0.0508  1.3020
 2722TIP3    H1 8172   5.180   3.232   4.413 -2.0819  0.9626  0.2261
 2722TIP3    H2 8173   5.034   3.217   4.454 -1.8196 -2.3136  0.2394
 2723TIP3   OH2 8174   5.974   0.576   3.482 -0.0316 -0.1754 -0.4094
 2723TIP3    H1 8175   6.034   0.614   3.546 -1.1022  2.4848 -0.8582
 2723TIP3    H2 8176   5.922   0.513   3.532  0.4652  0.4128  0.8783
 2724TIP3   OH2 8177   3.933   2.614   4.924 -0.4759  0.3803  0.4023
 2724TIP3    H1 8178   3.988   2.647   4.995 -0.4214 -0.2638  0.6627
 2724TIP3    H2 8179   3.995   2.568   4.866  0.1935  3.9077 -2.0554
 2725TIP3   OH2 8180   3.513   3.209   0.366  0.6757  0.3453  1.3152
 2725TIP3    H1 8181   3.494   3.199   0.459  0.3899 -0.9748  1.1393
 2725TIP3    H2 8182   3.565   3.132   0.344 -1.2051 -0.6080 -0.0919
 2726TIP3   OH2 8183   3.474   2.948   3.311 -0.4084  0.1517  0.1211
 2726TIP3    H1 8184   3.403   2.899   3.352  1.9346 -0.8020  3.4775
 2726TIP3    H2 8185   3.471   3.035   3.351 -0.1202  0.3599 -0.2931
 2727TIP3   OH2 8186   0.863   0.372   4.691  0.2928 -0.7346 -0.2843
 2727TIP3    H1 8187   0.902   0.459   4.699 -0.0731 -0.5562 -0.4256
 2727TIP3    H2 8188   0.844   0.363   4.598  1.4561 -1.4661 -0.4787
 2728TIP3   OH2 8189   4.465   5.226   1.395  0.5224 -0.2974  0.1524
 2728TIP3    H1 8190   4.410   5.231   1.317  2.0646 -1.4608 -1.0506
 2728TIP3    H2 8191   4.543   5.277   1.373  1.5186 -1.6481  0.4411
 2729TIP3   OH2 8192   2.875   4.850   5.092 -0.2065  0.4409  0.4439
 2729TIP3    H1 8193   2.849   4.936   5.127 -1.1066  0.3720 -0.0177
 2729TIP3    H2 8194   2.892   4.865   4.999 -1.8528 -0.1373  0.0072
 2730TIP3   OH2 8195   3.029   2.896   0.651  0.1105  0.3450 -0.0818
 2730TIP3    H1 8196   3.058   2.811   0.683  1.8651  0.4796 -1.1905
 2730TIP3    H2 8197   3.104   2.930   0.602 -1.3164  1.5721 -1.5013
 2731TIP3   OH2 8198   2.338   1.685   0.413  0.1181 -0.6112 -0.4898
 2731TIP3    H1 8199   2.246   1.710   0.401  0.4649  0.3868 -1.2135
 2731TIP3    H2 8200   2.334   1.599   0.454 -1.1555  0.2301  1.2921
 2732TIP3   OH2 8201   2.680   1.362   2.580  0.2747  0.0769  0.3080
 2732TIP3    H1 8202   2.635   1.278   2.591  0.5652 -0.2252 -0.6864
 2732TIP3    H2 8203   2.622   1.426   2.622 -0.0723 -0.5809  0.8564
 2733TIP3   OH2 8204   3.429   5.379   4.130  0.3261 -0.1776 -0.4108
 2733TIP3    H1 8205   3.465   5.290   4.121 -0.3766 -0.6782  1.2955
 2733TIP3    H2 8206   3.374   5.375   4.209 -1.9664  1.0443 -1.8403
 2734TIP3   OH2 8207   1.416   0.189   1.941  0.4128  0.7691 -0.3029
 2734TIP3    H1 8208   1.413   0.124   1.870 -0.4434 -0.0530  0.4509
 2734TIP3    H2 8209   1.327   0.224   1.945 -0.1327 -0.6620  1.6462
 2735TIP3   OH2 8210   0.186   5.475   4.535 -0.2447  0.6631 -0.1074
 2735TIP3    H1 8211   0.164   5.566   4.555 -1.6181  0.5948 -1.1275
 2735TIP3    H2 8212   0.134   5.424   4.597  0.2694  0.5621  0.2440
 2736TIP3   OH2 8213   2.314   5.159   1.435  0.9054 -0.1889 -0.1491
 2736TIP3    H1 8214   2.226   5.131   1.410  0.9579  0.5836 -1.2739
 2736TIP3    H2 8215   2.365   5.153   1.354  1.3340  1.4550 -0.0279
 2737TIP3   OH2 8216   0.045   1.479   2.932  0.2474 -0.1414  0.0198
 2737TIP3    H1 8217   0.014   1.533   2.859 -2.1617 -0.6139  0.6112
 2737TIP3    H2 8218   0.068   1.541   3.001 -0.9907  0.1928  0.1408
 2738TIP3   OH2 8219   1.243   0.803   2.895 -0.0356 -0.3745  0.2582
 2738TIP3    H1 8220   1.332   0.829   2.869 -0.2753 -0.3077 -0.5206
 2738TIP3    H2 8221   1.256   0.727   2.951  0.4455 -1.3777 -1.1603
 2739TIP3   OH2 8222   0.735   5.515   3.042  0.7263  0.2958  0.0925
 2739TIP3    H1 8223   0.702   5.498   2.954  1.5748  2.4428 -0.7175
 2739TIP3    H2 8224   0.659   5.544   3.091  0.2372 -0.9624  0.1167
 2740TIP3   OH2 8225   5.596   0.688   5.155 -0.0201  0.3580  0.2773
 2740TIP3    H1 8226   5.528   0.631   5.119 -0.4179  0.0808  1.4224
 2740TIP3    H2 8227   5.655   0.629   5.202  1.6407  0.4487 -1.5353
 2741TIP3   OH2 8228   3.674   3.661   0.141  0.3175  0.5627  0.1484
 2741TIP3    H1 8229   3.758   3.630   0.174 -0.8335  1.1208  4.1503
 2741TIP3    H2 8230   3.618   3.584   0.142 -0.1560  0.9000  1.2185
 2742TIP3   OH2 8231   4.397   0.312   1.926  0.3874 -0.1864 -0.2256
 2742TIP3    H1 8232   4.357   0.399   1.925  0.8065  0.0114 -0.0303
 2742TIP3    H2 8233   4.376   0.278   2.013 -0.1723 -0.4730 -0.4645
 2743TIP3   OH2 8234   0.471   3.588   1.540  0.4779  0.5480  0.5067
 2743TIP3    H1 8235   0.404   3.520   1.544  0.5123  0.4225 -0.6018
 2743TIP3    H2 8236   0.537   3.562   1.605  0.5590 -0.5554  0.0027
 2744TIP3   OH2 8237   1.675   0.674   3.284 -0.3901 -0.3928  0.6125
 2744TIP3    H1 8238   1.692   0.582   3.262 -0.7421 -0.3115 -0.0208
 2744TIP3    H2 8239   1.755   0.719   3.256 -0.5895 -0.3788  0.0427
 2745TIP3   OH2 8240   2.772   5.540   1.607 -0.0419  0.1962  0.0512
 2745TIP3    H1 8241   2.834   5.553   1.679 -0.5742 -0.0728  0.5690
 2745TIP3    H2 8242   2.786   5.615   1.549  0.2043  0.5635  0.5791
 2746TIP3   OH2 8243   1.721   4.985   2.343 -0.7900  0.0015 -0.6499
 2746TIP3    H1 8244   1.731   5.059   2.402  2.8187 -0.9146  0.1855
 2746TIP3    H2 8245   1.671   4.920   2.392 -0.6530  0.4788  0.1227
 2747TIP3   OH2 8246   0.034   0.249   2.981  0.2312  0.2533 -0.2830
 2747TIP3    H1 8247   0.044   0.194   3.059  1.8598  0.9570  0.0525
 2747TIP3    H2 8248   0.056   0.191   2.908  1.9257  0.4169  0.0657
 2748TIP3   OH2 8249   5.743   2.218   5.022  0.0046 -0.1147 -0.4957
 2748TIP3    H1 8250   5.800   2.216   4.945  2.1318 -4.2715  0.8895
 2748TIP3    H2 8251   5.794   2.265   5.088 -0.1013 -0.0013 -0.4941
 2749TIP3   OH2 8252   4.611   0.876   0.697  0.9766  0.4328 -0.3889
 2749TIP3    H1 8253   4.686   0.817   0.691  1.7182  1.4060 -0.8583
 2749TIP3    H2 8254   4.543   0.823   0.739  1.8829 -0.4954 -0.0404
 2750TIP3   OH2 8255   0.245   4.051   0.224 -0.1538  0.5768 -0.0441
 2750TIP3    H1 8256   0.279   4.031   0.311 -0.8157  0.7280  0.2582
 2750TIP3    H2 8257   0.154   4.076   0.239  0.0449  1.7724 -0.6367
 2751TIP3   OH2 8258   1.924   2.037   1.295  0.4152 -0.3468  0.4838
 2751TIP3    H1 8259   1.835   2.060   1.324  0.4893 -0.2056  0.6032
 2751TIP3    H2 8260   1.944   1.956   1.342  0.2121 -0.5757  0.1814
 2752TIP3   OH2 8261   0.047   2.760   3.952  0.5912 -0.2848  0.0843
 2752TIP3    H1 8262   0.018   2.669   3.947  1.1854 -0.6488  2.2934
 2752TIP3    H2 8263  -0.026   2.807   3.991  0.6028  0.0417 -0.2764
 2753TIP3   OH2 8264   4.940   3.970   3.367  0.1219 -0.4200 -0.1250
 2753TIP3    H1 8265   5.000   3.897   3.350 -0.0204 -0.6245  0.2300
 2753TIP3    H2 8266   4.868   3.957   3.306 -0.3062 -1.0513  0.5042
 2754TIP3   OH2 8267   5.833   0.690   4.830 -0.4898  0.3132  0.0211
 2754TIP3    H1 8268   5.806   0.609   4.874 -0.7002  0.3422 -0.0566
 2754TIP3    H2 8269   5.752   0.739   4.819 -0.7063 -0.3748 -1.8256
 2755TIP3   OH2 8270   2.065   0.125   2.710 -0.5074  0.6178  0.5442
 2755TIP3    H1 8271   2.138   0.077   2.749  0.3030  0.4821 -1.0431
 2755TIP3    H2 8272   1.997   0.060   2.697  0.1946  0.0797 -0.6227
 2756TIP3   OH2 8273   4.428   1.428   4.091  0.6419 -0.3465 -0.3680
 2756TIP3    H1 8274   4.435   1.467   4.179  0.6984 -0.3701 -0.3618
 2756TIP3    H2 8275   4.357   1.477   4.049  0.8159 -0.1310 -0.4137
 2757TIP3   OH2 8276   4.431   5.277   4.844  1.0348 -0.2983  0.4278
 2757TIP3    H1 8277   4.493   5.347   4.821 -1.2812  2.5125  2.0936
 2757TIP3    H2 8278   4.446   5.261   4.937 -0.8463  0.6492  0.9390
 2758TIP3   OH2 8279   2.807   2.433   0.813 -0.2627 -0.2232 -0.4131
 2758TIP3    H1 8280   2.754   2.363   0.850  0.5927 -0.7132 -0.0810
 2758TIP3    H2 8281   2.858   2.467   0.887 -0.4710  0.5798 -0.6216
 2759TIP3   OH2 8282   5.163   3.833   3.653  0.3484 -0.5045  0.1761
 2759TIP3    H1 8283   5.198   3.759   3.604  1.8699 -0.4057  1.0385
 2759TIP3    H2 8284   5.228   3.902   3.642  0.9481 -0.5942  2.5497
 2760TIP3   OH2 8285   2.458   1.356   3.498  0.2352  0.0825 -0.2864
 2760TIP3    H1 8286   2.497   1.294   3.559  0.2787  0.3571 -0.0353
 2760TIP3    H2 8287   2.374   1.317   3.475 -0.5501  0.7676  1.2571
 2761TIP3   OH2 8288   3.143   3.654   5.108 -0.1759 -0.1835 -0.6198
 2761TIP3    H1 8289   3.209   3.586   5.089  0.0160  0.4847 -2.5245
 2761TIP3    H2 8290   3.061   3.618   5.073  0.0426  0.7835 -2.1880
 2762TIP3   OH2 8291   2.704   4.466   4.748  0.1260 -0.3480  0.6410
 2762TIP3    H1 8292   2.784   4.482   4.697  0.0048 -0.1754  0.5044
 2762TIP3    H2 8293   2.735   4.454   4.838  0.2252  0.5863  0.7380
 2763TIP3   OH2 8294   3.508   2.544   4.835 -0.1546 -0.2661 -0.3770
 2763TIP3    H1 8295   3.552   2.463   4.861  1.1021  0.3359 -0.5982
 2763TIP3    H2 8296   3.555   2.573   4.758 -0.3348  0.8954 -0.0614
 2764TIP3   OH2 8297   3.737   0.523   4.306 -0.0556  0.4836 -0.8064
 2764TIP3    H1 8298   3.665   0.465   4.284  1.0829 -0.4388 -2.2664
 2764TIP3    H2 8299   3.729   0.536   4.401 -2.3390  0.7473 -0.9760
 2765TIP3   OH2 8300   5.871   0.767   1.609  0.3203  0.1154 -0.4150
 2765TIP3    H1 8301   5.827   0.684   1.594  1.8984 -0.6109 -1.3594
 2765TIP3    H2 8302   5.957   0.756   1.567  1.0873  1.7322  0.6398
 2766TIP3   OH2 8303   1.654   0.069   4.167 -0.2707 -0.0064 -0.3627
 2766TIP3    H1 8304   1.705   0.077   4.087 -0.3629  0.7982 -0.3489
 2766TIP3    H2 8305   1.567   0.103   4.144 -0.3397  0.0968  0.0364
 2767TIP3   OH2 8306   3.846   2.410   4.233  0.1235  0.1724 -0.6282
 2767TIP3    H1 8307   3.874   2.488   4.280 -2.9372  1.2695 -0.3761
 2767TIP3    H2 8308   3.874   2.425   4.143  2.2344  0.0667 -0.0435
 2768TIP3   OH2 8309   0.490   2.284   3.210  0.4705  0.1322 -0.0067
 2768TIP3    H1 8310   0.479   2.264   3.117 -3.0787 -0.6644  0.4376
 2768TIP3    H2 8311   0.515   2.376   3.212  1.2276  0.0048 -1.7263
 2769TIP3   OH2 8312   2.589   0.577   2.525 -0.3578  0.0311  0.4834
 2769TIP3    H1 8313   2.555   0.489   2.542  0.2502 -0.3540 -0.2371
 2769TIP3    H2 8314   2.677   0.562   2.489 -1.2763  0.8027 -2.3171
 2770TIP3   OH2 8315   3.104   4.062   4.099  0.2153 -0.0205 -0.2303
 2770TIP3    H1 8316   3.088   3.994   4.034  0.7902 -0.8111  0.4276
 2770TIP3    H2 8317   3.023   4.066   4.149  0.6315 -1.2359  0.6058
 2771TIP3   OH2 8318   5.561   5.938   4.815 -0.0483  0.1241 -0.4616
 2771TIP3    H1 8319   5.490   5.966   4.757  0.7056  1.8616 -0.6240
 2771TIP3    H2 8320   5.633   5.917   4.756  0.3239  0.7019 -0.2268
 2772TIP3   OH2 8321   6.218   3.262   3.657 -0.2837 -0.3476 -0.6709
 2772TIP3    H1 8322   6.138   3.253   3.605  1.5811 -2.8936 -3.5225
 2772TIP3    H2 8323   6.225   3.179   3.704  1.4387 -0.9711 -1.9005
 2773TIP3   OH2 8324   4.497   5.495   2.229 -0.1299 -0.3107 -0.3885
 2773TIP3    H1 8325   4.534   5.457   2.309  0.2790 -3.1819 -1.8060
 2773TIP3    H2 8326   4.551   5.571   2.211  0.0260  0.1805  1.8042
 2774TIP3   OH2 8327   5.036   1.781   0.344 -0.0578  0.1233  0.0651
 2774TIP3    H1 8328   5.118   1.781   0.295 -0.2260  0.2567 -0.2180
 2774TIP3    H2 8329   5.047   1.849   0.410  0.5674 -0.7498  0.8887
 2775TIP3   OH2 8330   0.824   3.560   1.910 -1.2006 -0.1915  0.8671
 2775TIP3    H1 8331   0.852   3.616   1.982  2.5923 -1.7927  0.8414
 2775TIP3    H2 8332   0.825   3.471   1.945 -0.6081 -0.8744 -0.7456
 2776TIP3   OH2 8333   1.634   3.158   2.222 -0.5376  0.3796  0.2855
 2776TIP3    H1 8334   1.626   3.073   2.179  1.3201  1.0072 -1.5136
 2776TIP3    H2 8335   1.683   3.139   2.302 -0.3717 -0.2881  0.0370
 2777TIP3   OH2 8336   5.646   1.213   3.984  0.4021 -0.3214 -0.2120
 2777TIP3    H1 8337   5.587   1.148   4.022  1.1891 -0.9393 -0.0026
 2777TIP3    H2 8338   5.700   1.163   3.922  1.8606 -0.1473  0.8657
 2778TIP3   OH2 8339   1.970   1.671   3.402  0.2584 -0.3540  0.8119
 2778TIP3    H1 8340   1.925   1.724   3.468  0.9956  0.9828  0.2979
 2778TIP3    H2 8341   1.901   1.641   3.344 -0.0859  1.1153  0.4115
 2779TIP3   OH2 8342   5.375   2.037   0.271  0.2622  0.1744  0.3747
 2779TIP3    H1 8343   5.394   2.044   0.365 -0.7130  1.3546  0.5226
 2779TIP3    H2 8344   5.440   2.093   0.229  0.4147  0.0110  0.3945
 2780TIP3   OH2 8345   5.126   4.894   2.799 -0.9094 -0.2732  0.7738
 2780TIP3    H1 8346   5.088   4.893   2.711  1.9346 -0.4721 -0.5640
 2780TIP3    H2 8347   5.114   4.984   2.829 -0.2182  0.3355 -0.6625
 2781TIP3   OH2 8348   2.077   2.296   2.361 -0.3034  0.3027 -0.1473
 2781TIP3    H1 8349   2.073   2.355   2.437  1.0758 -0.5538  0.6197
 2781TIP3    H2 8350   2.149   2.330   2.309  1.3336 -1.3566  0.9213
 2782TIP3   OH2 8351   2.545   1.240   4.319  0.3107 -0.0265  0.0801
 2782TIP3    H1 8352   2.525   1.152   4.289  0.0052  0.2761 -0.6210
 2782TIP3    H2 8353   2.477   1.260   4.383 -0.4544  0.2220 -0.7909
 2783TIP3   OH2 8354   0.113   0.544   1.821 -0.0571 -0.0322 -0.0732
 2783TIP3    H1 8355   0.190   0.493   1.847  0.3034  2.1995  4.1253
 2783TIP3    H2 8356   0.149   0.616   1.769  0.3940 -0.2460 -0.0659
 2784TIP3   OH2 8357   3.521   4.143   2.427  0.1566 -0.6765 -0.0773
 2784TIP3    H1 8358   3.468   4.217   2.458 -1.4511 -1.6176 -0.4400
 2784TIP3    H2 8359   3.495   4.070   2.483  1.9780 -0.9213  0.5032
 2785TIP3   OH2 8360   2.403   4.083   4.007  0.1249 -0.2869  0.1162
 2785TIP3    H1 8361   2.405   4.025   4.082 -0.0183  1.1687  1.2991
 2785TIP3    H2 8362   2.315   4.072   3.970  0.0120 -0.6287  0.4753
 2786TIP3   OH2 8363   5.045   3.370   3.969  0.0641 -0.0621  0.3393
 2786TIP3    H1 8364   5.015   3.334   4.052 -1.7820 -1.3189 -0.8024
 2786TIP3    H2 8365   4.968   3.409   3.929  0.6547 -0.3965 -1.2326
 2787TIP3   OH2 8366   1.740   4.524   1.705 -0.1242 -0.8489 -0.2156
 2787TIP3    H1 8367   1.781   4.600   1.663  0.0759 -1.3851 -1.0232
 2787TIP3    H2 8368   1.756   4.452   1.644 -0.9148 -1.3967  0.2064
 2788TIP3   OH2 8369   5.250   2.764   2.771  0.5091  0.2972 -0.3034
 2788TIP3    H1 8370   5.231   2.831   2.705 -0.8197  1.1429  0.8686
 2788TIP3    H2 8371   5.331   2.793   2.812 -0.6044  1.8485  0.9226
 2789TIP3   OH2 8372   2.418   4.084   0.561 -0.2322 -0.8489  0.4161
 2789TIP3    H1 8373   2.368   4.166   0.558 -1.1411 -1.4089 -1.9875
 2789TIP3    H2 8374   2.408   4.053   0.651 -1.0221  0.9649  1.0028
 2790TIP3   OH2 8375   5.931   3.661   2.597  0.2025 -0.5264 -0.3799
 2790TIP3    H1 8376   5.967   3.572   2.602 -1.7167 -1.6095 -3.2717
 2790TIP3    H2 8377   5.849   3.657   2.647  1.3999  0.4915  1.8138
 2791TIP3   OH2 8378   1.453   4.645   1.434  0.4490  0.4765 -0.0024
 2791TIP3    H1 8379   1.397   4.589   1.488 -0.3533  0.8804 -0.4031
 2791TIP3    H2 8380   1.457   4.728   1.483  0.1185  0.6815 -0.3221
 2792TIP3   OH2 8381   1.291   5.658   1.273  0.0073 -0.7319  0.3466
 2792TIP3    H1 8382   1.284   5.582   1.331  2.5131 -1.2739  0.0854
 2792TIP3    H2 8383   1.369   5.640   1.220 -1.5078  0.2815 -2.4392
 2793TIP3   OH2 8384   4.461   5.857   0.485  0.0728  0.1484  0.4314
 2793TIP3    H1 8385   4.495   5.946   0.496  1.9295 -0.5021  0.4485
 2793TIP3    H2 8386   4.451   5.846   0.391 -0.3041  0.4167  0.4385
 2794TIP3   OH2 8387   4.711   4.645   2.106 -0.4968  0.9158 -0.7722
 2794TIP3    H1 8388   4.618   4.644   2.128 -0.7521  0.2102 -1.8361
 2794TIP3    H2 8389   4.748   4.712   2.163 -1.4269  0.3405  0.5640
 2795TIP3   OH2 8390   0.599   1.439   0.912 -0.0235  0.2873  0.3193
 2795TIP3    H1 8391   0.645   1.360   0.882 -0.8651 -0.7045  1.5211
 2795TIP3    H2 8392   0.644   1.461   0.994  0.0636  0.9445  0.0978
 2796TIP3   OH2 8393   3.534   0.219   4.616  0.0985  0.6789 -0.3065
 2796TIP3    H1 8394   3.510   0.214   4.524 -0.5642 -1.0176 -0.0710
 2796TIP3    H2 8395   3.628   0.203   4.618 -0.0215 -0.0988 -0.6323
 2797TIP3   OH2 8396   2.816   0.076   2.717 -0.1434 -0.2225  0.0844
 2797TIP3    H1 8397   2.759   0.145   2.750 -0.4520 -0.9178  1.0535
 2797TIP3    H2 8398   2.763  -0.004   2.721 -0.1753 -0.3798 -2.0593
 2798TIP3   OH2 8399   0.131   0.849   2.284 -0.1028  0.4505 -0.1476
 2798TIP3    H1 8400   0.082   0.919   2.328 -2.9529 -1.3414 -0.2339
 2798TIP3    H2 8401   0.205   0.833   2.342  0.9547  3.7828 -0.3646
 2799TIP3   OH2 8402   0.985   1.047   4.503  0.3507 -0.0168 -0.5044
 2799TIP3    H1 8403   0.961   0.990   4.576 -2.4824  1.0674 -0.4527
 2799TIP3    H2 8404   0.937   1.129   4.520  0.5077  0.6763 -2.9621
 2800TIP3   OH2 8405   0.906   0.421   0.140  0.1583  0.1811  0.2844
 2800TIP3    H1 8406   0.867   0.368   0.070 -1.4335  1.0215  0.4845
 2800TIP3    H2 8407   0.911   0.509   0.103 -1.1628  0.7422  1.3487
 2801TIP3   OH2 8408   0.618   1.707   2.435 -0.1486 -0.2924 -0.0422
 2801TIP3    H1 8409   0.609   1.654   2.355 -0.6935 -0.0093 -0.1743
 2801TIP3    H2 8410   0.662   1.649   2.497  0.4575 -0.4555 -0.6061
 2802TIP3   OH2 8411   0.417   5.933   0.758 -0.4057 -0.5064  0.6972
 2802TIP3    H1 8412   0.380   5.980   0.833  0.5225 -0.9499  1.4544
 2802TIP3    H2 8413   0.439   5.846   0.793 -0.8641 -1.0614 -0.3480
 2803TIP3   OH2 8414   0.980   2.505   0.706 -0.1652 -0.4043  0.4074
 2803TIP3    H1 8415   0.992   2.449   0.783 -0.7988 -0.0933  0.7416
 2803TIP3    H2 8416   0.993   2.447   0.631  0.1714 -0.7737  0.7496
 2804TIP3   OH2 8417   3.014   5.874   0.750  0.0318 -0.2780 -0.0374
 2804TIP3    H1 8418   3.097   5.841   0.715  0.6085 -1.2275  2.0319
 2804TIP3    H2 8419   3.040   5.945   0.809 -0.8477  0.9216 -1.0454
 2805TIP3   OH2 8420   3.199   2.274   2.127  0.3590  0.3156 -0.8982
 2805TIP3    H1 8421   3.279   2.252   2.175  0.7513  1.8620 -0.8022
 2805TIP3    H2 8422   3.193   2.207   2.059  0.2014 -1.4865  0.8055
 2806TIP3   OH2 8423   6.191   2.232   4.870 -0.2689 -0.1701 -0.0098
 2806TIP3    H1 8424   6.163   2.306   4.923  0.3672  1.4084 -1.7611
 2806TIP3    H2 8425   6.121   2.168   4.878 -1.1787  0.9251  0.9759
 2807TIP3   OH2 8426   3.901   5.101   0.129  0.4472 -0.0715  0.1632
 2807TIP3    H1 8427   3.864   5.164   0.067  0.0323 -0.9825 -0.5375
 2807TIP3    H2 8428   3.905   5.149   0.212  0.5689  1.0169 -0.4495
 2808TIP3   OH2 8429   4.123   1.840   1.610 -0.2748  0.4407 -0.3606
 2808TIP3    H1 8430   4.089   1.927   1.631  0.2752  0.4453  0.5815
 2808TIP3    H2 8431   4.068   1.780   1.660 -1.9573  0.0323 -2.5264
 2809TIP3   OH2 8432   0.927   0.073   3.721  0.1209  0.3901  0.6013
 2809TIP3    H1 8433   1.009   0.115   3.747  0.6111  0.2961 -0.7022
 2809TIP3    H2 8434   0.896   0.124   3.646 -1.2649  0.6998  1.3633
 2810TIP3   OH2 8435   3.916   5.052   0.592  0.1942 -0.3787  0.5042
 2810TIP3    H1 8436   3.964   5.099   0.659  0.6221 -1.3271  0.8760
 2810TIP3    H2 8437   3.848   5.004   0.640  0.1471 -0.6181  0.2029
 2811TIP3   OH2 8438   2.822   4.827   4.819 -0.1292 -0.3399  0.3720
 2811TIP3    H1 8439   2.733   4.797   4.838  0.9505 -4.4224 -0.0601
 2811TIP3    H2 8440   2.846   4.781   4.738  2.1834  1.0964  0.1549
 2812TIP3   OH2 8441   1.568   2.318   3.552  0.1046  0.0092 -0.0189
 2812TIP3    H1 8442   1.480   2.291   3.528 -0.2798  0.8981  0.3722
 2812TIP3    H2 8443   1.599   2.370   3.477  0.4312 -0.5642 -0.2949
 2813TIP3   OH2 8444   2.130   4.933   0.591 -0.4367  0.4132  1.0336
 2813TIP3    H1 8445   2.124   4.838   0.606 -3.9484  0.5270  1.2086
 2813TIP3    H2 8446   2.061   4.952   0.528  0.0854  2.9051  1.1098
 2814TIP3   OH2 8447   4.800   3.745   2.864 -0.1442  0.0854  0.2033
 2814TIP3    H1 8448   4.770   3.791   2.786 -1.8042  0.1661  0.8563
 2814TIP3    H2 8449   4.772   3.800   2.937  1.2526 -0.0638  0.8910
 2815TIP3   OH2 8450   1.535   0.838   2.838 -0.1940  0.5995 -0.0738
 2815TIP3    H1 8451   1.553   0.854   2.746 -1.4339 -0.5530 -0.5437
 2815TIP3    H2 8452   1.604   0.778   2.866  0.0113  0.7108 -0.3399
 2816TIP3   OH2 8453   5.465   4.466   2.935  0.3950  0.3424  0.6926
 2816TIP3    H1 8454   5.444   4.398   2.999  0.8263  2.2433  3.0058
 2816TIP3    H2 8455   5.398   4.532   2.948  0.1471  0.5279 -1.3105
 2817TIP3   OH2 8456   1.477   1.616   0.240  0.1756  0.5389  0.0330
 2817TIP3    H1 8457   1.384   1.638   0.249  0.0748  0.4989 -0.7720
 2817TIP3    H2 8458   1.481   1.523   0.260 -0.3059  0.0709 -1.8159
 2818TIP3   OH2 8459   2.371   4.591   1.036 -0.6130  0.0957  0.1139
 2818TIP3    H1 8460   2.312   4.543   0.977  1.7953  0.0254 -2.4153
 2818TIP3    H2 8461   2.375   4.679   1.000 -1.6438  1.0691  2.2162
 2819TIP3   OH2 8462   0.834   1.656   1.903  0.2790  0.2324 -0.0727
 2819TIP3    H1 8463   0.904   1.699   1.952 -1.0609  0.3105  1.8893
 2819TIP3    H2 8464   0.790   1.601   1.967 -1.4188  0.1353 -1.2454
 2820TIP3   OH2 8465   2.530   4.829   4.695 -0.2631 -0.0724 -0.0017
 2820TIP3    H1 8466   2.553   4.758   4.636  0.4322  1.1372 -1.2508
 2820TIP3    H2 8467   2.446   4.803   4.733 -0.7793 -0.8680 -1.5969
 2821TIP3   OH2 8468   3.004   3.717   1.069  0.7963  0.4411 -1.2230
 2821TIP3    H1 8469   2.950   3.795   1.065  0.3742  0.1031 -2.8720
 2821TIP3    H2 8470   2.984   3.678   1.154 -0.3764  1.1492 -1.1542
 2822TIP3   OH2 8471   3.051   2.048   4.391 -0.7533  0.1567  0.2364
 2822TIP3    H1 8472   2.973   2.003   4.423 -1.8623  0.5364 -1.7113
 2822TIP3    H2 8473   3.035   2.057   4.297  0.9013  1.7415  0.0628
 2823TIP3   OH2 8474   1.978   5.818   3.935  0.5418  0.5326 -0.1008
 2823TIP3    H1 8475   2.055   5.789   3.983  0.0254  0.0512  0.4490
 2823TIP3    H2 8476   1.953   5.742   3.882 -0.6936 -0.0064  1.1875
 2824TIP3   OH2 8477   0.721   4.055   4.267 -0.4779 -0.1198 -0.2455
 2824TIP3    H1 8478   0.731   4.149   4.249 -0.1859 -0.0900  0.0604
 2824TIP3    H2 8479   0.676   4.052   4.351 -0.7803 -0.2567 -0.4104
 2825TIP3   OH2 8480   2.920   1.098   2.819 -0.1199 -0.2492 -0.5192
 2825TIP3    H1 8481   2.995   1.102   2.878 -0.0785 -1.5470 -0.4354
 2825TIP3    H2 8482   2.954   1.054   2.741 -1.0678 -2.0619  0.0324
 2826TIP3   OH2 8483   2.180   1.054   0.946 -0.7541  0.3706 -0.1862
 2826TIP3    H1 8484   2.100   1.092   0.984  0.0027 -0.0257  1.9474
 2826TIP3    H2 8485   2.163   0.960   0.944 -1.0711  0.4329 -1.6460
 2827TIP3   OH2 8486   3.130   1.577   0.523  0.0759 -0.4305 -0.8908
 2827TIP3    H1 8487   3.126   1.484   0.500  0.1232 -0.7485  0.2988
 2827TIP3    H2 8488   3.050   1.614   0.486 -0.0783 -1.0059 -1.1506
 2828TIP3   OH2 8489   6.297   0.983   0.095 -0.9061  0.3865 -0.4764
 2828TIP3    H1 8490   6.335   0.911   0.145 -3.9205 -1.0773 -0.0911
 2828TIP3    H2 8491   6.290   1.054   0.158  0.7986  0.6294 -0.4954
 2829TIP3   OH2 8492   2.431   3.064   1.649 -0.2573  0.2671  0.2488
 2829TIP3    H1 8493   2.452   3.147   1.606 -1.0697  0.1956 -0.2960
 2829TIP3    H2 8494   2.435   2.999   1.579  1.3342 -0.3292  0.8473
 2830TIP3   OH2 8495   1.585   4.633   0.375 -0.5867  0.1796 -0.1742
 2830TIP3    H1 8496   1.510   4.672   0.331  0.6121  3.0314  0.0748
 2830TIP3    H2 8497   1.553   4.611   0.463 -1.8147 -1.3358 -0.9599
 2831TIP3   OH2 8498   3.329   0.838   3.106 -0.0115 -0.3025 -0.6641
 2831TIP3    H1 8499   3.320   0.891   3.027 -0.0831  0.3290 -0.2458
 2831TIP3    H2 8500   3.280   0.758   3.088  0.6896 -0.5307 -1.5716
 2832TIP3   OH2 8501   0.140   5.587   4.862 -1.0835  0.1327 -0.0515
 2832TIP3    H1 8502   0.053   5.599   4.898 -0.3438 -0.7127  2.2366
 2832TIP3    H2 8503   0.151   5.492   4.857 -0.5733  0.2334 -1.0800
 2833TIP3   OH2 8504   1.204   1.870   2.929  0.3247 -0.3011 -0.8091
 2833TIP3    H1 8505   1.189   1.896   2.838  0.5745 -1.6933 -1.2757
 2833TIP3    H2 8506   1.117   1.846   2.962  0.1104  0.9662 -0.4110
 2834TIP3   OH2 8507   4.182   0.516   1.158 -0.2946 -0.1601 -0.1862
 2834TIP3    H1 8508   4.149   0.434   1.195 -2.7756  0.3722 -0.9708
 2834TIP3    H2 8509   4.163   0.581   1.225  2.0670 -0.2006  0.6190
 2835TIP3   OH2 8510   0.080   1.094   0.530 -0.2826  0.6431  0.0408
 2835TIP3    H1 8511   0.141   1.168   0.520 -1.2848  1.4791 -0.1099
 2835TIP3    H2 8512   0.001   1.133   0.567 -0.4745 -0.5506  0.9397
 2836TIP3   OH2 8513   0.938   1.200   2.794  0.7133  0.5455 -0.4690
 2836TIP3    H1 8514   0.863   1.240   2.836  1.8560  2.8586 -0.4726
 2836TIP3    H2 8515   0.978   1.145   2.862 -0.0259  0.5982  0.0168
 2837TIP3   OH2 8516   0.171   3.352   4.236  0.0351  0.1592  0.3472
 2837TIP3    H1 8517   0.114   3.350   4.313 -0.9260  1.3678 -0.2978
 2837TIP3    H2 8518   0.227   3.428   4.248  1.0170 -0.5785  0.6011
 2838TIP3   OH2 8519   3.915   1.915   1.215 -0.3604  0.5471  0.8432
 2838TIP3    H1 8520   3.909   2.004   1.251 -0.5014  0.8951 -0.0199
 2838TIP3    H2 8521   3.914   1.927   1.120  0.0772 -0.3529  0.7122
 2839TIP3   OH2 8522   3.765   5.241   2.292  0.3662 -0.7330 -0.1665
 2839TIP3    H1 8523   3.851   5.206   2.266  1.2122  1.3329 -0.3816
 2839TIP3    H2 8524   3.784   5.296   2.368 -0.2367  1.9709 -1.8641
 2840TIP3   OH2 8525   6.091   5.209   4.983  0.1757 -0.3424  0.9410
 2840TIP3    H1 8526   6.185   5.217   4.997  0.3073  0.0697 -0.1417
 2840TIP3    H2 8527   6.082   5.141   4.916 -0.2984 -0.3444  1.0015
 2841TIP3   OH2 8528   3.717   4.028   2.659 -0.0631  0.2719 -0.0094
 2841TIP3    H1 8529   3.625   4.011   2.640 -0.2594 -0.3078  1.3357
 2841TIP3    H2 8530   3.716   4.081   2.738  0.7545 -0.3258  0.4226
 2842TIP3   OH2 8531   0.910   3.312   4.120  0.1496  0.4584 -0.0307
 2842TIP3    H1 8532   0.888   3.292   4.029 -0.8666  2.0738 -0.1834
 2842TIP3    H2 8533   1.002   3.336   4.118  0.8309 -1.8998 -0.1763
 2843TIP3   OH2 8534   5.634   2.777   3.279 -0.6444 -0.2426  0.0175
 2843TIP3    H1 8535   5.548   2.747   3.248  0.4245 -1.2895 -2.2182
 2843TIP3    H2 8536   5.640   2.867   3.247 -0.5874 -0.4618 -0.6164
 2844TIP3   OH2 8537   0.047   0.204   3.288 -0.7892 -0.5498 -0.0137
 2844TIP3    H1 8538  -0.006   0.244   3.357  0.9356  1.4066  0.2971
 2844TIP3    H2 8539   0.118   0.159   3.335  1.5898  2.5107 -0.3301
 2845TIP3   OH2 8540   4.898   5.924   3.018 -0.6136 -0.2496  0.1242
 2845TIP3    H1 8541   4.842   5.999   2.999  2.8656  2.6647  0.1598
 2845TIP3    H2 8542   4.888   5.867   2.942 -0.4894  2.2768 -1.9423
 2846TIP3   OH2 8543  -0.004   5.817   0.238 -0.1861 -0.6260 -0.7415
 2846TIP3    H1 8544   0.013   5.771   0.320  0.3436 -1.1470 -1.1309
 2846TIP3    H2 8545   0.012   5.909   0.258  1.1626 -0.8782 -0.5578
 2847TIP3   OH2 8546   1.534   5.862   3.442  0.8121 -0.0513  0.0963
 2847TIP3    H1 8547   1.618   5.817   3.455  0.9158 -0.1552 -0.8701
 2847TIP3    H2 8548   1.509   5.890   3.530  2.1957  0.5846  0.3176
 2848TIP3   OH2 8549   3.380   2.761   1.360  0.0911  0.1834 -0.4799
 2848TIP3    H1 8550   3.354   2.824   1.428  1.6027 -1.3800  1.6662
 2848TIP3    H2 8551   3.451   2.804   1.313  1.2898  0.0408  1.1410
 2849TIP3   OH2 8552   2.776   0.662   5.007 -0.6742 -0.6785  0.1944
 2849TIP3    H1 8553   2.813   0.574   5.017 -0.0099 -0.2907  1.3270
 2849TIP3    H2 8554   2.739   0.682   5.094  2.0901  1.4411  1.0102
 2850TIP3   OH2 8555   4.736   0.245   1.574  0.3001 -0.2068 -0.3085
 2850TIP3    H1 8556   4.688   0.269   1.654 -1.3459  0.3155 -1.3911
 2850TIP3    H2 8557   4.733   0.324   1.520  3.5783  0.2831  0.0481
 2851TIP3   OH2 8558   5.628   1.582   2.542 -0.1385 -0.3167 -0.3708
 2851TIP3    H1 8559   5.629   1.573   2.447 -2.0020 -0.5432 -0.3954
 2851TIP3    H2 8560   5.716   1.612   2.564  0.2118  0.0864 -2.1940
 2852TIP3   OH2 8561   1.618   4.962   4.747  0.9848  0.0392  0.2424
 2852TIP3    H1 8562   1.533   4.986   4.785  0.2430 -2.9250  0.7570
 2852TIP3    H2 8563   1.674   4.943   4.822  0.6424 -2.3236 -0.0183
 2853TIP3   OH2 8564   5.498   4.695   0.698  0.3622  0.4647 -0.1945
 2853TIP3    H1 8565   5.533   4.640   0.628 -1.6595 -2.5586  0.9447
 2853TIP3    H2 8566   5.574   4.739   0.735  1.9492 -0.5741 -2.0475
 2854TIP3   OH2 8567   1.370   4.093   4.251 -0.0586  0.3320 -0.2533
 2854TIP3    H1 8568   1.306   4.072   4.319 -0.5231  2.3893  0.0012
 2854TIP3    H2 8569   1.337   4.048   4.172  0.0600 -1.4154  0.6356
 2855TIP3   OH2 8570   5.663   3.236   2.548 -0.2667 -0.5811  0.4594
 2855TIP3    H1 8571   5.682   3.184   2.470 -0.4586 -0.3058  0.2250
 2855TIP3    H2 8572   5.574   3.267   2.534 -0.5508 -1.0864  1.1088
 2856TIP3   OH2 8573   1.073   5.736   1.750 -0.1472 -0.4928  0.4891
 2856TIP3    H1 8574   1.016   5.804   1.714 -1.3003 -2.1173 -0.9635
 2856TIP3    H2 8575   1.015   5.680   1.801  0.6099 -0.8815  0.9459
 2857TIP3   OH2 8576   0.231   4.891   0.810  0.2543  0.1046  0.5276
 2857TIP3    H1 8577   0.266   4.969   0.853  2.0488 -0.8787  0.9762
 2857TIP3    H2 8578   0.222   4.827   0.881 -3.8079  0.6288  0.6874
 2858TIP3   OH2 8579   4.581   3.462   0.042 -0.1983  0.4405  0.8239
 2858TIP3    H1 8580   4.617   3.460   0.131  0.2110  0.9453  0.6775
 2858TIP3    H2 8581   4.607   3.547   0.007 -0.2254  0.1894  0.1653
 2859TIP3   OH2 8582   5.683   5.846   4.371 -0.2238  0.6395 -0.3641
 2859TIP3    H1 8583   5.662   5.769   4.425 -1.7151  0.0989 -1.6578
 2859TIP3    H2 8584   5.766   5.823   4.329 -0.8056 -0.4147 -0.9758
 2860TIP3   OH2 8585   3.241   3.928   3.681 -0.2458 -0.1005 -0.0214
 2860TIP3    H1 8586   3.265   3.963   3.595 -0.0957  1.5509  0.6550
 2860TIP3    H2 8587   3.279   3.990   3.743 -0.3725 -1.2539  1.2448
 2861TIP3   OH2 8588   5.429   2.329   3.432 -0.5218  0.2011  0.1092
 2861TIP3    H1 8589   5.347   2.347   3.387 -0.3380 -1.3898 -0.9314
 2861TIP3    H2 8590   5.496   2.329   3.363  0.5959  2.5807  1.0716
 2862TIP3   OH2 8591   0.885   2.982   0.541 -0.5244 -0.4647 -0.2803
 2862TIP3    H1 8592   0.885   2.951   0.450  1.6873 -2.0744  0.1773
 2862TIP3    H2 8593   0.867   2.904   0.593  2.1061 -0.4459  0.7909
 2863TIP3   OH2 8594   1.526   4.095   1.284 -0.6269  0.0553 -0.0638
 2863TIP3    H1 8595   1.589   4.034   1.324  0.0456  1.7537  1.6128
 2863TIP3    H2 8596   1.440   4.055   1.301 -0.1303 -1.1407 -0.2955
 2864TIP3   OH2 8597   6.253   5.287   1.634  0.2829  0.0441  0.1370
 2864TIP3    H1 8598   6.319   5.338   1.681  1.2645 -1.6136  0.6591
 2864TIP3    H2 8599   6.263   5.313   1.543  0.8024  0.7394  0.3827
 2865TIP3   OH2 8600   5.962   5.096   0.495 -0.0810 -0.2831 -0.2645
 2865TIP3    H1 8601   5.943   5.186   0.523 -0.2936 -0.2742 -0.4296
 2865TIP3    H2 8602   6.055   5.083   0.514  0.3699  0.5305 -1.7119
 2866TIP3   OH2 8603   6.207   2.882   4.463  0.1735  0.2615 -0.1639
 2866TIP3    H1 8604   6.276   2.937   4.427  0.8377  0.3881  1.2097
 2866TIP3    H2 8605   6.128   2.936   4.460  0.0165 -0.0194 -2.0973
 2867TIP3   OH2 8606   3.535   5.451   3.777 -0.5896  0.2830  0.0162
 2867TIP3    H1 8607   3.483   5.518   3.822  0.4551  1.0488  0.1228
 2867TIP3    H2 8608   3.624   5.487   3.774  0.0630 -1.1886  0.2740
 2868TIP3   OH2 8609   5.927   2.242   1.646 -0.2190  0.0457 -0.0004
 2868TIP3    H1 8610   5.983   2.168   1.623  0.1240  0.4608 -0.5638
 2868TIP3    H2 8611   5.971   2.318   1.606 -0.6493  0.5235  0.4184
 2869TIP3   OH2 8612   6.231   3.989   2.658  0.5224 -0.3977 -0.1947
 2869TIP3    H1 8613   6.276   3.973   2.741  0.7449  0.2442 -0.1837
 2869TIP3    H2 8614   6.298   3.974   2.591  0.8092  0.6658 -0.1734
 2870TIP3   OH2 8615   4.893   1.082   0.169  0.0670 -0.4721  0.0373
 2870TIP3    H1 8616   4.820   1.143   0.180 -0.6027 -1.3421  0.5930
 2870TIP3    H2 8617   4.962   1.134   0.129 -0.1038  0.9293  1.4394
 2871TIP3   OH2 8618   0.668   0.521   3.825 -0.2815 -0.0836 -0.2532
 2871TIP3    H1 8619   0.757   0.519   3.790 -0.3650 -1.7690 -0.4475
 2871TIP3    H2 8620   0.673   0.583   3.898  1.1480 -0.4426 -0.0062
 2872TIP3   OH2 8621   4.479   1.262   2.397  0.2786  0.5820 -0.0937
 2872TIP3    H1 8622   4.512   1.352   2.392  2.1901 -0.0211  0.6649
 2872TIP3    H2 8623   4.558   1.209   2.407 -0.6199 -1.4122 -2.6642
 2873TIP3   OH2 8624   4.392   3.380   1.398 -0.7435  1.2395 -0.1141
 2873TIP3    H1 8625   4.431   3.409   1.316 -2.7647  0.9009 -1.2657
 2873TIP3    H2 8626   4.412   3.449   1.461  0.6742  1.5953 -0.9315
 2874TIP3   OH2 8627   0.337   1.836   1.308 -0.3427  0.0919 -0.0486
 2874TIP3    H1 8628   0.384   1.758   1.278  1.4053  0.6083  1.2118
 2874TIP3    H2 8629   0.404   1.891   1.348 -1.9459  1.1131  1.3872
 2875TIP3   OH2 8630   5.672   4.203   1.275  0.1214 -0.0742  0.0277
 2875TIP3    H1 8631   5.670   4.264   1.349  2.1254  0.8801 -0.6330
 2875TIP3    H2 8632   5.750   4.150   1.290 -1.2168 -2.1104  0.2330
 2876TIP3   OH2 8633   0.032   4.560   3.630  0.5383 -0.1415  0.0029
 2876TIP3    H1 8634   0.081   4.573   3.711  0.6670 -1.5652  0.1945
 2876TIP3    H2 8635   0.024   4.647   3.591 -0.8472  0.8161  2.2754
 2877TIP3   OH2 8636   2.871   5.119   4.832 -0.3898  0.1327  0.0148
 2877TIP3    H1 8637   2.939   5.052   4.822 -0.5720 -0.2338  1.1014
 2877TIP3    H2 8638   2.919   5.202   4.832  0.0920 -0.1366  1.0495
 2878TIP3   OH2 8639   0.128   4.403   0.219  0.1338 -0.1065  0.3697
 2878TIP3    H1 8640   0.139   4.476   0.279  0.5250 -1.0579  1.4868
 2878TIP3    H2 8641   0.037   4.375   0.230  0.1180 -0.0925  0.2815
 2879TIP3   OH2 8642   3.161   0.876   1.669  0.2851  0.1777 -0.1486
 2879TIP3    H1 8643   3.220   0.844   1.600  0.7183  0.3692  0.1306
 2879TIP3    H2 8644   3.122   0.955   1.632  0.9650  0.6121  0.0489
 2880TIP3   OH2 8645   3.232   1.484   1.949  0.4156  0.5329 -0.2203
 2880TIP3    H1 8646   3.230   1.553   2.015 -0.4054 -0.8825  1.3271
 2880TIP3    H2 8647   3.182   1.519   1.875 -0.5255  1.3732  0.7822
 2881TIP3   OH2 8648   5.752   2.910   2.000 -0.3278 -0.4968 -0.0889
 2881TIP3    H1 8649   5.683   2.847   2.018 -0.3592 -0.5498 -0.3893
 2881TIP3    H2 8650   5.833   2.861   2.013 -0.3262 -1.2971 -2.5805
 2882TIP3   OH2 8651   1.040   2.506   1.511  0.2524  0.2315  0.8324
 2882TIP3    H1 8652   1.124   2.477   1.547 -0.2851  0.0735  2.0027
 2882TIP3    H2 8653   1.055   2.508   1.417  0.8511 -2.2307  0.7889
 2883TIP3   OH2 8654   3.606   1.295   4.107  0.5567 -0.6411 -0.8537
 2883TIP3    H1 8655   3.565   1.319   4.190  1.4277 -0.5832 -0.4285
 2883TIP3    H2 8656   3.664   1.222   4.130 -0.4321 -1.7413 -1.7232
 2884TIP3   OH2 8657   3.607   3.496   3.326  0.2852  0.2843  0.2126
 2884TIP3    H1 8658   3.635   3.583   3.356  1.0648  0.5546 -1.2103
 2884TIP3    H2 8659   3.589   3.508   3.233 -2.2135 -0.4845  0.5447
 2885TIP3   OH2 8660   0.793   1.632   3.623  0.1924  0.2372  0.1705
 2885TIP3    H1 8661   0.715   1.576   3.628  0.7126 -0.4204  1.3590
 2885TIP3    H2 8662   0.798   1.673   3.709  1.2871  0.0871  0.1835
 2886TIP3   OH2 8663   3.234   4.433   3.544 -0.1634  0.1077 -0.0889
 2886TIP3    H1 8664   3.303   4.395   3.599  1.4757  0.1011 -2.0344
 2886TIP3    H2 8665   3.164   4.367   3.545 -0.1511  0.0436  1.7918
 2887TIP3   OH2 8666   2.174   4.053   0.301  0.3955  0.0757 -0.0194
 2887TIP3    H1 8667   2.131   4.071   0.385  0.2726  0.6277 -0.1940
 2887TIP3    H2 8668   2.236   3.983   0.319  0.4286  0.2530  0.5510
 2888TIP3   OH2 8669   0.647   0.345   0.745 -0.2487 -0.1352  0.1361
 2888TIP3    H1 8670   0.632   0.328   0.652 -3.2485  0.0190  0.5058
 2888TIP3    H2 8671   0.590   0.420   0.766  0.2835 -0.2184  2.1163
 2889TIP3   OH2 8672   2.661   4.405   3.149 -0.4910  0.6379  0.2302
 2889TIP3    H1 8673   2.711   4.449   3.218 -0.3974  0.4280  0.2980
 2889TIP3    H2 8674   2.724   4.391   3.079 -0.8831  1.9890 -0.4234
 2890TIP3   OH2 8675   4.736   4.789   3.384  0.0807 -0.2693 -0.3225
 2890TIP3    H1 8676   4.694   4.857   3.438  0.1813 -0.8263  0.4743
 2890TIP3    H2 8677   4.712   4.812   3.294 -1.8109 -0.4667  0.0813
 2891TIP3   OH2 8678   3.889   2.643   2.417 -0.0303 -0.0657 -0.4440
 2891TIP3    H1 8679   3.958   2.632   2.351 -1.5043 -1.1221 -1.9150
 2891TIP3    H2 8680   3.809   2.651   2.366 -1.0670  0.6543  1.2246
 2892TIP3   OH2 8681   5.221   5.334   0.825  0.1480 -0.1871  0.5571
 2892TIP3    H1 8682   5.133   5.306   0.854 -0.4961 -0.0460 -1.1664
 2892TIP3    H2 8683   5.208   5.422   0.791  0.3949 -1.0733 -2.0650
 2893TIP3   OH2 8684   3.102   0.962   5.038  0.5547  0.7154  0.4836
 2893TIP3    H1 8685   3.019   0.936   5.000  0.9562  1.6889 -1.1359
 2893TIP3    H2 8686   3.132   0.884   5.085 -1.0535  0.2244  0.7469
 2894TIP3   OH2 8687   1.669   1.466   1.410  0.0013 -0.4099 -0.8244
 2894TIP3    H1 8688   1.685   1.525   1.337  0.2631  0.1043 -0.3523
 2894TIP3    H2 8689   1.753   1.458   1.454 -0.1236 -0.8273 -0.6518
 2895TIP3   OH2 8690   5.122   3.273   4.980 -0.4595 -0.0364  0.2710
 2895TIP3    H1 8691   5.209   3.279   4.940 -0.3157  0.4842  0.6405
 2895TIP3    H2 8692   5.113   3.181   5.004 -1.0527 -0.6290 -2.0068
 2896TIP3   OH2 8693   1.498   3.277   1.033  0.1582  0.2354 -0.0077
 2896TIP3    H1 8694   1.420   3.331   1.036  0.8766  1.4069  3.7665
 2896TIP3    H2 8695   1.476   3.201   1.088  1.0139 -0.4986 -0.6471
 2897TIP3   OH2 8696   3.053   4.725   2.075 -0.1788 -0.0477 -0.1268
 2897TIP3    H1 8697   3.028   4.818   2.073  1.1395  0.3328 -0.3205
 2897TIP3    H2 8698   3.071   4.704   1.983 -0.9944 -0.6579 -0.1515
 2898TIP3   OH2 8699   6.270   2.411   1.053 -0.7610  0.3015 -0.0897
 2898TIP3    H1 8700   6.332   2.340   1.041  0.0397  1.2246 -1.6336
 2898TIP3    H2 8701   6.271   2.428   1.147  0.3578 -0.5429  0.0676
 2899TIP3   OH2 8702   3.264   4.430   3.099  0.1441 -0.4585 -0.1111
 2899TIP3    H1 8703   3.293   4.455   3.012  0.4308 -0.1962  0.0556
 2899TIP3    H2 8704   3.213   4.350   3.086 -1.5623  0.6995 -0.7523
 2900TIP3   OH2 8705   1.319   4.886   2.343 -0.5683 -0.3796 -0.2491
 2900TIP3    H1 8706   1.285   4.956   2.287 -1.3658  0.0100  0.6948
 2900TIP3    H2 8707   1.254   4.877   2.412  1.5006  0.7986  1.9847
 2901TIP3   OH2 8708   3.130   0.135   5.107 -0.0891 -0.7177  0.4479
 2901TIP3    H1 8709   3.084   0.052   5.119  0.2089 -1.0283 -0.4603
 2901TIP3    H2 8710   3.123   0.153   5.013 -1.7028  1.1962  0.8698
 2902TIP3   OH2 8711   5.017   0.969   5.143  0.1096 -0.6225 -0.1348
 2902TIP3    H1 8712   5.073   1.046   5.152 -0.4597 -0.3571  1.2987
 2902TIP3    H2 8713   5.077   0.895   5.148  0.3479 -0.3512  1.7252
 2903TIP3   OH2 8714   0.405   5.682   2.201  0.1363 -0.2904  0.4886
 2903TIP3    H1 8715   0.440   5.619   2.138 -1.8648 -0.4162 -0.5734
 2903TIP3    H2 8716   0.377   5.629   2.276  0.7491 -0.3607  0.6726
 2904TIP3   OH2 8717   4.826   1.014   3.723  0.0331 -0.3049  0.1836
 2904TIP3    H1 8718   4.847   1.107   3.720 -0.9296 -0.0487  0.8827
 2904TIP3    H2 8719   4.871   0.982   3.801  1.1966 -0.6635 -0.6081
 2905TIP3   OH2 8720   2.363   1.623   4.455  0.4522  0.7560 -0.1370
 2905TIP3    H1 8721   2.285   1.679   4.451 -0.9737 -1.1023  0.1368
 2905TIP3    H2 8722   2.366   1.580   4.369  0.0330 -0.5831  0.4852
 2906TIP3   OH2 8723   4.067   2.470   2.853  0.0312  0.2725  0.3913
 2906TIP3    H1 8724   3.985   2.481   2.806 -0.5707 -1.6193  0.9140
 2906TIP3    H2 8725   4.101   2.559   2.863 -1.4196  1.0000 -0.7353
 2907TIP3   OH2 8726   2.627   1.874   2.652 -0.2894 -0.1082 -0.0759
 2907TIP3    H1 8727   2.563   1.829   2.596 -0.0277  0.4153 -0.8094
 2907TIP3    H2 8728   2.672   1.935   2.593 -0.2950  0.7595  0.7999
 2908TIP3   OH2 8729   6.099   4.904   3.599 -0.2289  0.9003 -0.0660
 2908TIP3    H1 8730   6.088   4.952   3.517 -0.1137  0.5754 -0.2738
 2908TIP3    H2 8731   6.156   4.830   3.577  0.5052  1.2888  0.4956
 2909TIP3   OH2 8732   3.515   1.353   5.072 -0.1741  0.8072  0.0906
 2909TIP3    H1 8733   3.494   1.271   5.028 -0.5984  1.1679 -0.3802
 2909TIP3    H2 8734   3.436   1.375   5.121  0.3562  0.3054  1.2114
 2910TIP3   OH2 8735   5.229   0.909   4.940 -0.4532 -0.5426  0.0731
 2910TIP3    H1 8736   5.295   0.975   4.919 -1.0422  0.8842  2.4850
 2910TIP3    H2 8737   5.154   0.933   4.886  0.1363 -0.7682 -0.8953
 2911TIP3   OH2 8738   4.414   5.382   0.106  0.2527 -0.4241 -0.4108
 2911TIP3    H1 8739   4.441   5.410   0.018 -0.7580 -1.1394 -0.9714
 2911TIP3    H2 8740   4.369   5.458   0.143 -0.3282 -0.4820 -0.9736
 2912TIP3   OH2 8741   0.357   2.022   3.196  0.2309  0.0813 -0.0958
 2912TIP3    H1 8742   0.343   1.946   3.253  0.3703  1.4003  1.8075
 2912TIP3    H2 8743   0.309   2.093   3.239 -0.0933  1.0398 -1.9430
 2913TIP3   OH2 8744   0.500   1.379   2.376 -0.0541  0.3009  0.0808
 2913TIP3    H1 8745   0.479   1.458   2.326 -0.0595 -0.4326 -1.1149
 2913TIP3    H2 8746   0.595   1.369   2.367  0.1419  0.8474  1.2956
 2914TIP3   OH2 8747   0.584   1.362   0.267  0.1804 -0.0889 -0.1786
 2914TIP3    H1 8748   0.500   1.377   0.224 -0.3449 -0.0650  0.8191
 2914TIP3    H2 8749   0.624   1.449   0.273 -0.5158  0.1737  0.9007
 2915TIP3   OH2 8750   4.751   1.320   1.293 -0.3554  0.0530  0.4138
 2915TIP3    H1 8751   4.796   1.397   1.258  1.7132 -1.0150  0.5573
 2915TIP3    H2 8752   4.663   1.324   1.256  0.4663  1.1600 -1.5411
 2916TIP3   OH2 8753   2.259   1.039   2.432  0.3318  0.3122 -0.0707
 2916TIP3    H1 8754   2.168   1.056   2.457 -0.5426  0.0755 -2.7946
 2916TIP3    H2 8755   2.273   0.947   2.453 -0.2963  0.1674 -0.2692
 2917TIP3   OH2 8756   4.205   0.909   4.799 -0.0135  0.2815 -0.6057
 2917TIP3    H1 8757   4.249   0.911   4.884  1.8850  0.6536 -1.5401
 2917TIP3    H2 8758   4.146   0.834   4.804  0.1435  0.2334  0.9899
 2918TIP3   OH2 8759   2.447   5.380   2.444 -0.2005 -0.3999  0.1938
 2918TIP3    H1 8760   2.467   5.391   2.351 -0.8660  0.1888  0.1027
 2918TIP3    H2 8761   2.375   5.442   2.460  0.0287 -0.3609  1.1404
 2919TIP3   OH2 8762   0.978   2.648   1.860 -0.4529  0.0690 -0.1594
 2919TIP3    H1 8763   0.927   2.569   1.878  0.5623 -0.5535  0.0665
 2919TIP3    H2 8764   1.064   2.615   1.832 -0.3709  1.0807 -1.1636
 2920TIP3   OH2 8765   6.114   2.594   3.585 -0.6850 -0.5733 -0.0746
 2920TIP3    H1 8766   6.188   2.632   3.538 -2.0036  0.6374 -1.2883
 2920TIP3    H2 8767   6.068   2.541   3.520 -1.0913 -0.9964  0.5479
 2921TIP3   OH2 8768   2.515   3.316   0.242 -0.3878 -0.0876 -0.1164
 2921TIP3    H1 8769   2.528   3.359   0.157 -2.3331 -0.8277 -0.8430
 2921TIP3    H2 8770   2.452   3.247   0.224 -0.0416 -0.9386  1.7507
 2922TIP3   OH2 8771   5.811   1.105   3.779  0.6690 -0.2337 -0.0182
 2922TIP3    H1 8772   5.816   1.014   3.752 -0.7336 -0.1012 -0.8595
 2922TIP3    H2 8773   5.873   1.151   3.723  0.6161 -0.5288 -0.3214
 2923TIP3   OH2 8774   2.982   5.022   2.026 -0.0663 -0.2927 -0.0607
 2923TIP3    H1 8775   2.928   5.059   2.096  0.3622  1.0779 -0.4288
 2923TIP3    H2 8776   3.070   5.055   2.044 -0.1115  0.8332 -1.7326
 2924TIP3   OH2 8777   1.118   1.739   4.703 -0.2234  0.2899 -0.4762
 2924TIP3    H1 8778   1.025   1.747   4.681 -0.1595  1.4216 -0.3687
 2924TIP3    H2 8779   1.151   1.673   4.641 -1.2641 -0.7719  0.0419
 2925TIP3   OH2 8780   3.484   5.309   1.029  0.2511  0.2153 -0.0300
 2925TIP3    H1 8781   3.454   5.227   1.067 -0.5374  0.2067 -0.6376
 2925TIP3    H2 8782   3.449   5.377   1.087  1.3042  0.1190  0.7396
 2926TIP3   OH2 8783   5.963   0.822   4.574  0.1178  0.3249  0.2267
 2926TIP3    H1 8784   5.981   0.804   4.666  0.2252 -2.0056 -0.1864
 2926TIP3    H2 8785   5.927   0.911   4.574  0.4627  0.5381  2.4474
 2927TIP3   OH2 8786   0.175   3.112   1.003 -0.2155 -0.3122  0.1968
 2927TIP3    H1 8787   0.193   3.056   1.078 -0.2823 -1.9216 -0.9332
 2927TIP3    H2 8788   0.091   3.082   0.970  0.4209 -0.5638 -1.2959
 2928TIP3   OH2 8789   4.862   1.022   0.565 -0.0056  0.1520 -0.2016
 2928TIP3    H1 8790   4.886   0.951   0.505 -1.0112 -1.8446  1.5972
 2928TIP3    H2 8791   4.943   1.071   0.578  1.2471 -1.8608 -0.0195
 2929TIP3   OH2 8792   6.050   2.929   2.236 -0.4880  0.6313 -0.5440
 2929TIP3    H1 8793   6.016   2.878   2.162 -2.7682 -2.1671  2.0992
 2929TIP3    H2 8794   6.144   2.911   2.237 -1.1083 -3.6842  0.0655
 2930TIP3   OH2 8795   0.826   2.701   1.553 -0.2954 -0.5164  0.0166
 2930TIP3    H1 8796   0.891   2.631   1.540 -0.8003 -0.7010 -1.7892
 2930TIP3    H2 8797   0.815   2.739   1.467 -1.9787  0.0753  0.4618
 2931TIP3   OH2 8798   4.163   5.734   0.836 -0.0300  0.4214  0.7607
 2931TIP3    H1 8799   4.102   5.799   0.871 -1.5161 -0.6166  0.1788
 2931TIP3    H2 8800   4.236   5.786   0.802 -1.4504  1.8786 -0.2447
 2932TIP3   OH2 8801   4.439   3.140   0.688 -0.0864  0.0066 -0.1886
 2932TIP3    H1 8802   4.442   3.170   0.779  0.6296 -0.0144 -0.1990
 2932TIP3    H2 8803   4.498   3.064   0.685  2.0101  1.5520 -1.1978
 2933TIP3   OH2 8804   5.766   0.182   3.436  0.0538  0.8790 -0.7257
 2933TIP3    H1 8805   5.696   0.144   3.382  0.8139 -2.0562  0.1799
 2933TIP3    H2 8806   5.847   0.144   3.401  0.6561 -0.3404  1.7654
 2934TIP3   OH2 8807   5.202   2.961   4.327 -0.1704 -0.4552  0.0525
 2934TIP3    H1 8808   5.292   2.985   4.303 -0.4017 -0.3985 -0.7989
 2934TIP3    H2 8809   5.165   3.041   4.363 -0.0303 -0.3431 -0.0490
 2935TIP3   OH2 8810   5.864   1.056   0.686  0.2180 -0.9081  0.6603
 2935TIP3    H1 8811   5.866   1.100   0.771 -1.1242  0.0613  0.2337
 2935TIP3    H2 8812   5.940   1.091   0.640 -1.3434  1.8942 -0.0364
 2936TIP3   OH2 8813   5.075   0.350   1.309  0.0406 -0.4799  0.5019
 2936TIP3    H1 8814   5.100   0.308   1.391 -1.4632  0.1152  1.2923
 2936TIP3    H2 8815   4.994   0.396   1.329 -1.5673 -2.0825 -1.8532
 2937TIP3   OH2 8816   3.679   3.827   0.597 -0.2542 -0.5799 -0.1230
 2937TIP3    H1 8817   3.664   3.874   0.515  1.4840  0.6960  0.2399
 2937TIP3    H2 8818   3.644   3.885   0.665  0.8509 -0.3180  0.2410
 2938TIP3   OH2 8819   4.650   2.836   4.109 -0.0797 -0.1025  0.1280
 2938TIP3    H1 8820   4.615   2.782   4.038 -0.4216 -0.0722  0.2670
 2938TIP3    H2 8821   4.744   2.818   4.110  0.1899  1.0526 -1.3353
 2939TIP3   OH2 8822   2.330   4.728   1.988  0.3008 -0.0678 -0.3697
 2939TIP3    H1 8823   2.235   4.711   1.990  0.4148 -0.7000  0.1839
 2939TIP3    H2 8824   2.365   4.672   2.057  1.1894 -0.5619 -1.1909
 2940TIP3   OH2 8825   1.487   2.185   5.137  0.0559  0.4619  0.0491
 2940TIP3    H1 8826   1.487   2.231   5.221 -2.8323 -0.5590  0.7229
 2940TIP3    H2 8827   1.435   2.240   5.079 -1.2754 -0.6761  0.1198
 2941TIP3   OH2 8828   1.954   4.182   0.176  0.0157 -0.3882  0.5992
 2941TIP3    H1 8829   1.897   4.206   0.248  0.0037  0.9156  0.1944
 2941TIP3    H2 8830   2.034   4.149   0.218 -0.6511 -1.3033  1.1687
 2942TIP3   OH2 8831   1.256   5.523   0.430 -0.7334  0.2853 -0.0191
 2942TIP3    H1 8832   1.249   5.454   0.364  0.4772  0.0812  0.0529
 2942TIP3    H2 8833   1.264   5.476   0.513  0.0730  0.5079  0.0305
 2943TIP3   OH2 8834   3.806   4.225   3.625 -0.3013 -0.1124  0.0406
 2943TIP3    H1 8835   3.728   4.170   3.624 -0.8991  0.7023  0.2079
 2943TIP3    H2 8836   3.773   4.313   3.643  0.4290  0.5898 -1.7743
 2944TIP3   OH2 8837   0.939   0.089   3.306 -0.0965 -0.2486 -0.3033
 2944TIP3    H1 8838   0.941   0.055   3.216  0.9976 -0.3769 -0.2413
 2944TIP3    H2 8839   0.996   0.165   3.303  0.6572 -0.7745  0.4923
 2945TIP3   OH2 8840   5.071   4.907   1.585 -0.0448 -0.5761 -0.4983
 2945TIP3    H1 8841   5.137   4.854   1.541  0.3320  0.2757 -0.9769
 2945TIP3    H2 8842   5.015   4.940   1.514  0.4445  0.6355 -0.3510
 2946TIP3   OH2 8843   4.229   4.409   5.195  0.4162  0.5340  0.0704
 2946TIP3    H1 8844   4.191   4.413   5.108 -0.9494  0.1208  0.6168
 2946TIP3    H2 8845   4.291   4.336   5.191 -0.5380 -0.2766 -0.2374
 2947TIP3   OH2 8846   5.805   1.633   1.840 -0.0086 -0.4160 -0.0146
 2947TIP3    H1 8847   5.782   1.684   1.762  1.1750 -0.3289 -0.3225
 2947TIP3    H2 8848   5.774   1.544   1.821 -1.9427  0.1015  0.4579
 2948TIP3   OH2 8849   2.327   0.066   2.093 -0.0959  0.0767  0.2390
 2948TIP3    H1 8850   2.255   0.062   2.156 -1.3798  2.9329 -0.8811
 2948TIP3    H2 8851   2.284   0.074   2.008  1.5800 -0.4081 -0.6991
 2949TIP3   OH2 8852   3.404   3.024   2.614  0.0965  0.3355  0.5473
 2949TIP3    H1 8853   3.404   3.062   2.702 -0.1857  0.3072  0.5605
 2949TIP3    H2 8854   3.311   3.013   2.593  0.0899 -2.7871  1.5976
 2950TIP3   OH2 8855   4.489   0.564   1.227 -0.0718 -0.1476 -0.3843
 2950TIP3    H1 8856   4.498   0.520   1.142  0.2341 -1.5245  0.3281
 2950TIP3    H2 8857   4.468   0.493   1.288  0.7764  0.6508  0.8776
 2951TIP3   OH2 8858   1.126   2.904   0.792  0.3059  0.4255 -0.2619
 2951TIP3    H1 8859   1.040   2.866   0.775  0.7855 -0.5601 -0.6022
 2951TIP3    H2 8860   1.133   2.904   0.887  0.7370 -1.4924 -0.2358
 2952TIP3   OH2 8861   0.053   1.088   2.387  0.0163 -0.0414 -0.3681
 2952TIP3    H1 8862   0.133   1.099   2.336 -0.0447  2.0192 -0.0891
 2952TIP3    H2 8863   0.063   1.148   2.461 -1.7524  0.2392 -0.3147
 2953TIP3   OH2 8864   3.434   4.392   4.468  0.0652 -0.1107  0.1444
 2953TIP3    H1 8865   3.495   4.416   4.537  0.4509  1.6115 -0.7549
 2953TIP3    H2 8866   3.490   4.369   4.393 -0.3719  0.4949 -0.3734
 2954TIP3   OH2 8867   0.938   3.181   1.259 -0.3525 -0.2177  0.6905
 2954TIP3    H1 8868   0.852   3.197   1.297  0.0778 -1.4610  2.3143
 2954TIP3    H2 8869   0.976   3.112   1.314  0.1851 -2.4924 -2.2698
 2955TIP3   OH2 8870   0.526   5.296   4.065 -0.4199  0.3041 -0.4659
 2955TIP3    H1 8871   0.530   5.391   4.068  0.2465  0.2652  1.9094
 2955TIP3    H2 8872   0.617   5.268   4.050 -0.6899  0.0140 -1.7000
 2956TIP3   OH2 8873   1.633   1.502   2.641 -0.5178 -0.0687  0.4151
 2956TIP3    H1 8874   1.709   1.508   2.583 -0.0767 -0.3984  0.9462
 2956TIP3    H2 8875   1.650   1.566   2.710 -0.5295 -0.4162  0.7472
 2957TIP3   OH2 8876   1.113   0.833   1.159 -0.1023 -0.3080  0.1558
 2957TIP3    H1 8877   1.036   0.848   1.214 -1.4290  0.2256 -1.7532
 2957TIP3    H2 8878   1.089   0.761   1.101  1.8470 -1.9244  1.2128
 2958TIP3   OH2 8879  -0.009   0.678   2.471  0.0875 -0.1170 -0.0671
 2958TIP3    H1 8880   0.047   0.725   2.409 -0.3889 -0.1616 -0.5435
 2958TIP3    H2 8881   0.046   0.664   2.548  0.2737  1.1524  0.0652
 2959TIP3   OH2 8882   6.036   3.322   1.415  0.2368 -0.4514  0.3490
 2959TIP3    H1 8883   5.952   3.345   1.455 -0.3728  1.3805 -1.8069
 2959TIP3    H2 8884   6.018   3.314   1.322  2.4672  0.1372 -0.2070
 2960TIP3   OH2 8885   4.789   2.767   2.620  0.9499 -0.2777 -0.3335
 2960TIP3    H1 8886   4.785   2.675   2.648 -0.5411 -0.2849 -0.4490
 2960TIP3    H2 8887   4.820   2.814   2.697 -1.0463 -0.5585  0.7279
 2961TIP3   OH2 8888   1.579   3.660   3.641  0.3009  0.3419 -0.2894
 2961TIP3    H1 8889   1.574   3.582   3.698  1.0877  0.3751 -0.1578
 2961TIP3    H2 8890   1.564   3.733   3.700  0.0518  0.3145 -0.3202
 2962TIP3   OH2 8891   0.266   2.899   2.217 -0.5660  0.2505  0.0665
 2962TIP3    H1 8892   0.231   2.903   2.128  0.7083  2.7864 -0.3963
 2962TIP3    H2 8893   0.350   2.854   2.207  0.1328  1.5721 -0.2714
 2963TIP3   OH2 8894   3.155   0.105   0.276 -0.2591  0.2910 -0.8835
 2963TIP3    H1 8895   3.114   0.018   0.271  0.6163 -0.2649  0.7124
 2963TIP3    H2 8896   3.214   0.108   0.201  0.2077 -0.7913 -0.5890
 2964TIP3   OH2 8897   3.041   5.291   0.015  0.1478  0.1195  0.1137
 2964TIP3    H1 8898   3.014   5.314  -0.074 -0.3340 -0.0261  0.2176
 2964TIP3    H2 8899   2.978   5.335   0.071 -0.7024 -1.2905  0.3249
 2965TIP3   OH2 8900   2.150   2.849   1.098 -0.1003  0.0129  0.1182
 2965TIP3    H1 8901   2.184   2.901   1.170 -1.6440  1.3726 -0.0737
 2965TIP3    H2 8902   2.127   2.765   1.137 -1.0859  0.7911  1.2749
 2966TIP3   OH2 8903   6.312   0.549   0.880  0.1562  0.2829  0.1076
 2966TIP3    H1 8904   6.368   0.472   0.892  0.9973  0.8438 -0.1283
 2966TIP3    H2 8905   6.234   0.531   0.933  0.1157 -0.9470 -0.3365
 2967TIP3   OH2 8906   2.182   4.910   4.801  0.1913  0.1750  0.0958
 2967TIP3    H1 8907   2.233   4.834   4.829  0.1526  0.1322  0.0505
 2967TIP3    H2 8908   2.099   4.873   4.772 -1.0356  0.4815  2.9163
 2968TIP3   OH2 8909   3.049   3.864   4.342 -0.1862 -0.2227 -0.1467
 2968TIP3    H1 8910   3.115   3.828   4.282  1.3122 -2.4130  2.5997
 2968TIP3    H2 8911   3.082   3.952   4.363  1.0802 -0.7089  0.0184
 2969TIP3   OH2 8912   5.025   0.510   4.934  0.2940  0.0997  0.0002
 2969TIP3    H1 8913   4.981   0.562   4.866 -0.6681  1.8910  1.8863
 2969TIP3    H2 8914   5.018   0.420   4.904 -1.3726  0.6979 -1.5915
 2970TIP3   OH2 8915   2.019   1.564   3.058  0.2404  0.2816 -0.2680
 2970TIP3    H1 8916   2.060   1.484   3.090 -0.3213  0.1231  0.0700
 2970TIP3    H2 8917   1.940   1.574   3.113 -1.7371 -0.9567 -2.6702
 2971TIP3   OH2 8918   4.164   3.992   1.240 -0.0478 -0.4999  0.5046
 2971TIP3    H1 8919   4.165   3.900   1.268  1.1030 -0.5687  0.2943
 2971TIP3    H2 8920   4.194   4.041   1.316 -1.2091 -0.2190  0.8025
 2972TIP3   OH2 8921   1.306   3.644   3.227 -0.2904 -0.6411 -0.6822
 2972TIP3    H1 8922   1.367   3.608   3.162 -0.5290 -0.5697 -0.9476
 2972TIP3    H2 8923   1.290   3.733   3.198  1.6546  0.3123  0.9273
 2973TIP3   OH2 8924   4.462   5.849   3.165  0.4472 -0.7220 -0.3102
 2973TIP3    H1 8925   4.477   5.822   3.255  1.3237  1.6293  0.3078
 2973TIP3    H2 8926   4.367   5.858   3.158  0.4971  2.0334  1.3789
 2974TIP3   OH2 8927   4.639   3.041   1.532 -0.0874 -0.6455 -0.2598
 2974TIP3    H1 8928   4.642   3.056   1.438  0.9466 -1.1215 -0.3182
 2974TIP3    H2 8929   4.577   3.106   1.565 -0.6000 -0.6037 -1.2865
 2975TIP3   OH2 8930   2.611   2.105   4.964  0.1201 -0.1205  0.2162
 2975TIP3    H1 8931   2.673   2.038   4.990 -1.1792 -1.0396  1.1083
 2975TIP3    H2 8932   2.566   2.129   5.046 -0.8569  0.3315 -0.4253
 2976TIP3   OH2 8933   5.836   3.436   1.593 -0.2496  0.8246  0.1855
 2976TIP3    H1 8934   5.898   3.445   1.665  0.5611 -3.5136  0.3135
 2976TIP3    H2 8935   5.751   3.455   1.631  0.2043 -1.0014  2.2919
 2977TIP3   OH2 8936   1.324   3.952   1.879 -0.0500 -0.0037  0.6959
 2977TIP3    H1 8937   1.317   3.963   1.784 -2.3096 -0.9420  0.7138
 2977TIP3    H2 8938   1.333   3.858   1.892  1.9930  0.2184  1.3994
 2978TIP3   OH2 8939   4.350   3.119   4.512 -0.2253 -0.2114 -0.2268
 2978TIP3    H1 8940   4.439   3.129   4.477 -0.2300  0.7945  0.0125
 2978TIP3    H2 8941   4.323   3.209   4.533 -0.5724 -0.6805  1.4889
 2979TIP3   OH2 8942   0.429   3.634   3.577 -0.0943  0.1485 -0.8666
 2979TIP3    H1 8943   0.378   3.665   3.502 -0.3275  1.9687 -0.0155
 2979TIP3    H2 8944   0.520   3.638   3.547 -0.3000 -1.2841 -1.7614
 2980TIP3   OH2 8945   0.596   4.325   4.884 -0.3210 -0.5997  0.1817
 2980TIP3    H1 8946   0.560   4.384   4.950  0.3694 -0.0515  0.0732
 2980TIP3    H2 8947   0.574   4.237   4.916  0.7374 -0.3892  1.5875
 2981TIP3   OH2 8948   1.494   4.984   2.664 -0.0717  0.0533  0.2281
 2981TIP3    H1 8949   1.400   4.990   2.684 -0.3850  2.7530 -1.4405
 2981TIP3    H2 8950   1.510   4.890   2.652 -2.8143 -0.4161 -0.5037
 2982TIP3   OH2 8951   5.048   1.586   4.839 -0.4417 -0.0473 -0.2778
 2982TIP3    H1 8952   5.066   1.666   4.889 -1.0812 -0.0360 -0.0607
 2982TIP3    H2 8953   5.007   1.617   4.758 -2.2530 -0.2455  0.5389
 2983TIP3   OH2 8954   3.792   0.777   2.096  0.1538  0.3199  0.1823
 2983TIP3    H1 8955   3.856   0.707   2.113 -0.3473  0.1153  1.3055
 2983TIP3    H2 8956   3.777   0.817   2.181 -0.2408  1.2276 -0.3029
 2984TIP3   OH2 8957   4.901   2.848   0.397  0.3556  0.2792  0.4665
 2984TIP3    H1 8958   4.905   2.938   0.364 -0.7151  0.5390  1.0186
 2984TIP3    H2 8959   4.845   2.802   0.335 -0.0398  0.2838  0.8146
 2985TIP3   OH2 8960   5.171   4.896   5.097 -0.4128  0.1148  0.5762
 2985TIP3    H1 8961   5.163   4.831   5.166 -0.1642 -0.2197  0.2900
 2985TIP3    H2 8962   5.087   4.893   5.051  0.3325 -1.5124 -0.7580
 2986TIP3   OH2 8963   3.706   5.361   0.164  0.4329 -0.0889 -0.0741
 2986TIP3    H1 8964   3.769   5.391   0.097 -0.7660  0.6317 -0.9161
 2986TIP3    H2 8965   3.662   5.441   0.193  0.9953 -0.3744  1.6942
 2987TIP3   OH2 8966   0.113   3.305   3.271  0.3002  0.0559  0.3775
 2987TIP3    H1 8967   0.056   3.334   3.343  0.0078  1.5640 -0.4193
 2987TIP3    H2 8968   0.054   3.258   3.212 -0.1310  1.5047 -0.3827
 2988TIP3   OH2 8969   6.150   1.205   4.254  0.4012 -0.1477 -0.1927
 2988TIP3    H1 8970   6.216   1.140   4.279  0.3261 -1.5015 -3.1049
 2988TIP3    H2 8971   6.083   1.197   4.322  0.3759 -3.1844 -0.4178
 2989TIP3   OH2 8972   0.524   1.829   0.834  0.1246  0.7092 -0.1034
 2989TIP3    H1 8973   0.588   1.895   0.864  1.5689 -1.0709  0.9834
 2989TIP3    H2 8974   0.563   1.794   0.754  0.1239  0.1499  0.1412
 2990TIP3   OH2 8975   6.146   5.903   0.556  0.5216  0.3189 -0.2522
 2990TIP3    H1 8976   6.168   5.951   0.476  0.3500 -0.5109 -0.8109
 2990TIP3    H2 8977   6.229   5.897   0.604  1.7103 -2.8640 -2.3802
 2991TIP3   OH2 8978   3.457   5.665   2.268 -0.0469  0.2082  0.1541
 2991TIP3    H1 8979   3.546   5.697   2.250  0.4643 -0.7791  0.7783
 2991TIP3    H2 8980   3.400   5.736   2.243  0.8647  0.4525 -1.3455
 2992TIP3   OH2 8981   6.065   5.909   1.040  0.0792 -0.2752  0.1322
 2992TIP3    H1 8982   5.971   5.919   1.024  0.3310  1.5002 -0.5586
 2992TIP3    H2 8983   6.071   5.884   1.132 -1.0981 -1.4353 -0.0761
 2993TIP3   OH2 8984   2.463   2.048   4.370 -0.1613  0.6955  0.2590
 2993TIP3    H1 8985   2.408   2.117   4.333  0.9824  1.5727  0.1340
 2993TIP3    H2 8986   2.546   2.092   4.391  0.4492 -0.5511  0.5701
 2994TIP3   OH2 8987   1.852   5.345   2.393 -0.0847 -0.0617  0.1735
 2994TIP3    H1 8988   1.897   5.288   2.456  1.5322 -2.1850 -2.6848
 2994TIP3    H2 8989   1.764   5.309   2.386 -0.6215  0.7921  1.7873
 2995TIP3   OH2 8990   4.019   0.358   1.382 -0.2334 -0.3236  0.0151
 2995TIP3    H1 8991   4.018   0.281   1.439 -1.8840  0.8646  1.7431
 2995TIP3    H2 8992   4.068   0.424   1.432 -1.7383  0.7564  0.1277
 2996TIP3   OH2 8993   2.785   2.452   2.060 -0.2569  0.1082 -0.0035
 2996TIP3    H1 8994   2.853   2.493   2.008 -0.4325  0.5940  0.1483
 2996TIP3    H2 8995   2.830   2.383   2.108  0.5329  1.6820  1.6114
 2997TIP3   OH2 8996   4.239   0.131   4.339 -0.7057 -0.4957  0.7742
 2997TIP3    H1 8997   4.150   0.155   4.314 -0.7450  1.3600  2.4491
 2997TIP3    H2 8998   4.274   0.210   4.379  2.8933  0.0221 -2.7360
 2998TIP3   OH2 8999   3.505   4.280   1.280  0.3438 -0.4074  0.2615
 2998TIP3    H1 9000   3.468   4.297   1.367 -0.8900 -1.0434 -0.1060
 2998TIP3    H2 9001   3.579   4.222   1.296  0.6488  0.1573  0.9498
 2999TIP3   OH2 9002   3.833   3.687   4.384  0.4634  0.0672  0.2717
 2999TIP3    H1 9003   3.886   3.766   4.379  0.1164  0.2512 -3.5661
 2999TIP3    H2 9004   3.896   3.615   4.374  0.4624  0.0237  0.5715
 3000TIP3   OH2 9005   1.157   3.254   1.066  0.1817  0.1671 -0.2560
 3000TIP3    H1 9006   1.205   3.187   1.114 -1.2396 -1.4383 -0.9935
 3000TIP3    H2 9007   1.065   3.239   1.086 -0.4348 -0.1439 -2.8505
 3001TIP3   OH2 9008   4.162   0.909   1.148  0.0041 -0.5961  0.0573
 3001TIP3    H1 9009   4.188   0.990   1.105 -0.2932 -1.5377 -2.0414
 3001TIP3    H2 9010   4.120   0.858   1.079  4.0410 -4.4171 -0.0467
 3002TIP3   OH2 9011   2.468   4.529   1.792 -0.6566 -0.3093 -0.4869
 3002TIP3    H1 9012   2.411   4.550   1.866 -0.4340  1.3813 -0.7644
 3002TIP3    H2 9013   2.518   4.609   1.776  1.9635 -1.7728 -0.1614
 3003TIP3   OH2 9014   5.921   5.431   2.600 -0.5342  0.5351 -0.2658
 3003TIP3    H1 9015   5.901   5.430   2.506 -2.8242  0.0645  0.1606
 3003TIP3    H2 9016   5.981   5.359   2.613 -1.2096 -0.2256 -1.2011
 3004TIP3   OH2 9017   1.319   4.461   3.978  0.0554 -0.1931  0.0806
 3004TIP3    H1 9018   1.278   4.473   4.064 -1.8857 -4.3533  0.0235
 3004TIP3    H2 9019   1.394   4.405   3.996  0.9643  0.7337 -0.7475
 3005TIP3   OH2 9020   0.808   5.061   2.330  0.2970  0.3681 -0.0604
 3005TIP3    H1 9021   0.748   5.112   2.277  0.2727  1.0704  0.6204
 3005TIP3    H2 9022   0.883   5.120   2.345 -0.0989  0.5404  1.4271
 3006TIP3   OH2 9023   4.737   4.889   2.245  0.0136  0.2890 -0.2628
 3006TIP3    H1 9024   4.651   4.928   2.227 -0.9468 -1.5860  0.0564
 3006TIP3    H2 9025   4.799   4.948   2.202 -1.4297  1.6123 -0.6320
 3007TIP3   OH2 9026   3.618   1.142   0.848 -0.1520 -0.5633 -0.1383
 3007TIP3    H1 9027   3.526   1.127   0.826  0.0667 -0.1097 -1.4992
 3007TIP3    H2 9028   3.651   1.196   0.776  1.0686 -0.3470  0.5578
 3008TIP3   OH2 9029   1.282   0.694   1.604  0.2784  0.1170 -0.4977
 3008TIP3    H1 9030   1.294   0.727   1.515  0.1973 -3.7164 -2.1243
 3008TIP3    H2 9031   1.187   0.696   1.617  0.2208 -0.2019 -0.8667
 3009TIP3   OH2 9032   3.061   0.867   3.444  0.2278  0.3816 -0.1814
 3009TIP3    H1 9033   3.142   0.877   3.495 -0.5718  0.9063  1.0293
 3009TIP3    H2 9034   3.021   0.787   3.477 -0.3385  0.7721  0.1045
 3010TIP3   OH2 9035   1.020   5.803   0.273  0.2874  0.0966 -0.3009
 3010TIP3    H1 9036   0.947   5.788   0.213 -0.6721 -0.4750  0.9806
 3010TIP3    H2 9037   0.985   5.786   0.360  1.3663  1.9167  0.5654
 3011TIP3   OH2 9038   1.616   2.010   0.554  0.5943  0.1631 -0.2980
 3011TIP3    H1 9039   1.600   2.067   0.479  0.8728  0.9221  0.2023
 3011TIP3    H2 9040   1.586   1.924   0.526  1.3379  0.2778 -1.5280
 3012TIP3   OH2 9041   4.442   4.841   0.781 -0.2457 -0.1166 -0.8564
 3012TIP3    H1 9042   4.358   4.875   0.811 -0.6754 -1.3330 -0.6073
 3012TIP3    H2 9043   4.454   4.878   0.694 -0.9846  0.1671 -0.8417
 3013TIP3   OH2 9044   3.683   5.262   3.910 -0.1202  0.1688  0.2662
 3013TIP3    H1 9045   3.626   5.321   3.862  0.2867  0.7171  0.4509
 3013TIP3    H2 9046   3.634   5.239   3.989 -0.2468  0.3123  0.2277
 3014TIP3   OH2 9047   2.256   5.344   5.127  0.0941  0.0894  0.2858
 3014TIP3    H1 9048   2.172   5.390   5.134  1.0238  2.3494 -1.7363
 3014TIP3    H2 9049   2.240   5.275   5.062 -0.0446  1.0221 -0.6999
 3015TIP3   OH2 9050   6.236   4.169   1.737  0.4706  0.1702 -0.2609
 3015TIP3    H1 9051   6.190   4.121   1.805 -1.5307  1.6927 -0.4312
 3015TIP3    H2 9052   6.215   4.123   1.656  0.1509  0.2195 -0.2072
 3016TIP3   OH2 9053   0.710   0.255   3.339 -0.3653  0.0728  0.1200
 3016TIP3    H1 9054   0.763   0.179   3.313 -0.0478  0.6891 -1.1073
 3016TIP3    H2 9055   0.619   0.224   3.334 -0.2478 -0.1595 -0.6121
 3017TIP3   OH2 9056   3.492   4.931   1.625  0.0530  0.3819  0.4045
 3017TIP3    H1 9057   3.574   4.961   1.586  0.4794  0.1880  1.1186
 3017TIP3    H2 9058   3.466   4.857   1.571 -0.2558  1.1374 -0.5063
 3018TIP3   OH2 9059   1.432   5.904   3.195  0.2592 -0.5659  0.2371
 3018TIP3    H1 9060   1.370   5.976   3.202 -1.3815 -1.9726  0.7632
 3018TIP3    H2 9061   1.439   5.870   3.283  3.5711  0.8937  0.6987
 3019TIP3   OH2 9062   1.527   2.995   0.126 -0.4195 -0.0737  0.1614
 3019TIP3    H1 9063   1.509   2.901   0.134  0.4250 -0.1362  1.5349
 3019TIP3    H2 9064   1.548   3.024   0.214  1.9330  0.8756 -0.6222
 3020TIP3   OH2 9065   4.564   5.490   2.886  0.1239  0.5940  0.0865
 3020TIP3    H1 9066   4.592   5.506   2.976 -1.4290  1.9765  0.3709
 3020TIP3    H2 9067   4.599   5.564   2.836  0.4147  0.1816 -0.3377
 3021TIP3   OH2 9068   3.290   1.956   4.451  0.2379  0.2075  0.2009
 3021TIP3    H1 9069   3.203   1.962   4.411  0.5986  1.0324 -0.4885
 3021TIP3    H2 9070   3.274   1.970   4.545 -0.4142 -0.0321  0.1328
 3022TIP3   OH2 9071   4.252   0.532   3.060  0.4253  0.1701 -0.2508
 3022TIP3    H1 9072   4.237   0.585   2.982 -0.8242  0.9114  0.4618
 3022TIP3    H2 9073   4.253   0.596   3.132  0.3791 -0.6204  0.4645
 3023TIP3   OH2 9074   4.400   2.319   3.942  0.0630  0.8596 -0.3611
 3023TIP3    H1 9075   4.323   2.265   3.924  0.0180  0.6495  0.4485
 3023TIP3    H2 9076   4.378   2.404   3.903  0.0099  0.4067 -1.3722
 3024TIP3   OH2 9077   2.268   1.287   2.965 -0.2622 -0.4020 -0.4232
 3024TIP3    H1 9078   2.260   1.295   2.870  1.4516 -0.2239 -0.5861
 3024TIP3    H2 9079   2.344   1.341   2.987 -1.4429  0.6779  1.2438
 3025TIP3   OH2 9080   3.273   5.915   3.045  0.0195 -0.5272  0.1661
 3025TIP3    H1 9081   3.221   5.884   2.971 -1.0476  0.6941  0.3751
 3025TIP3    H2 9082   3.260   5.849   3.113 -1.0451 -0.3801  0.1160
 3026TIP3   OH2 9083   3.302   0.604   2.190 -0.3322 -0.4365  0.3657
 3026TIP3    H1 9084   3.229   0.580   2.132  0.7028 -0.3231 -1.0119
 3026TIP3    H2 9085   3.358   0.660   2.137  1.3353 -1.3975  1.0381
 3027TIP3   OH2 9086   4.540   4.105   1.532  0.4170  0.4181  0.6519
 3027TIP3    H1 9087   4.484   4.060   1.596 -0.2601 -0.8158 -0.7409
 3027TIP3    H2 9088   4.570   4.035   1.473 -0.3004  1.7106 -1.3511
 3028TIP3   OH2 9089   1.813   4.714   3.282 -0.1930 -0.3230  0.1800
 3028TIP3    H1 9090   1.765   4.796   3.282 -0.2736 -0.3662 -0.3181
 3028TIP3    H2 9091   1.897   4.734   3.323  0.1414  0.2177 -0.7472
 3029TIP3   OH2 9092   5.529   1.406   4.149  0.4064 -1.3279  0.2371
 3029TIP3    H1 9093   5.568   1.351   4.081  1.4381 -0.8153  0.3836
 3029TIP3    H2 9094   5.570   1.375   4.230 -0.2168 -1.4077  0.5215
 3030TIP3   OH2 9095   1.037   5.611   1.484 -0.0414  0.4408  1.2101
 3030TIP3    H1 9096   1.053   5.651   1.570  0.0964 -1.0970  1.9422
 3030TIP3    H2 9097   0.950   5.641   1.459  0.3721  1.8191  1.3292
 3031TIP3   OH2 9098   5.898   1.426   2.875 -0.4163  0.0917 -0.9832
 3031TIP3    H1 9099   5.950   1.395   2.950  1.0259  0.5454 -1.7510
 3031TIP3    H2 9100   5.808   1.402   2.897  0.1001 -0.7251  0.4134
 3032TIP3   OH2 9101   1.657   0.409   3.259 -0.2179 -0.1541 -0.2678
 3032TIP3    H1 9102   1.564   0.409   3.237 -0.0423  1.2259 -1.1096
 3032TIP3    H2 9103   1.698   0.361   3.187 -0.0876  0.8647 -0.8881
 3033TIP3   OH2 9104   4.711   5.050   0.609 -0.5497  0.3775  0.5743
 3033TIP3    H1 9105   4.742   4.990   0.677 -0.2890  0.1568  0.2634
 3033TIP3    H2 9106   4.618   5.028   0.598 -0.1453 -0.9318 -0.5131
 3034TIP3   OH2 9107   5.443   5.563   2.575 -0.3733  0.2272 -0.5716
 3034TIP3    H1 9108   5.380   5.492   2.566  0.6220 -0.8410  0.5021
 3034TIP3    H2 9109   5.439   5.609   2.491 -1.0707 -1.0746 -1.2860
 3035TIP3   OH2 9110   0.802   2.383   4.962 -0.0875 -0.4673  0.2750
 3035TIP3    H1 9111   0.883   2.348   4.924  0.8796  0.4103  1.4601
 3035TIP3    H2 9112   0.821   2.475   4.979 -0.8830 -0.5553  1.7755
 3036TIP3   OH2 9113   5.047   1.904   1.875 -0.2755  0.4457  0.4429
 3036TIP3    H1 9114   4.960   1.915   1.915  0.1548  1.4947  1.1202
 3036TIP3    H2 9115   5.096   1.981   1.903  1.3369 -0.8356  1.2703
 3037TIP3   OH2 9116   3.606   1.050   3.864  0.3308  0.1052  0.0694
 3037TIP3    H1 9117   3.519   1.073   3.832  0.6568  0.4401 -0.6095
 3037TIP3    H2 9118   3.636   1.128   3.910 -0.7589 -0.8987  2.6438
 3038TIP3   OH2 9119   4.883   5.628   2.526  0.7398 -0.6767 -0.3707
 3038TIP3    H1 9120   4.865   5.590   2.612 -2.2084  0.7415 -0.2199
 3038TIP3    H2 9121   4.901   5.720   2.544 -0.6602 -0.1907 -1.2546
 3039TIP3   OH2 9122   2.235   4.617   4.324  0.4323  0.1612  0.0777
 3039TIP3    H1 9123   2.198   4.644   4.240 -2.4286 -1.0391  0.8235
 3039TIP3    H2 9124   2.242   4.521   4.317 -0.2542  0.0033  1.3492
 3040TIP3   OH2 9125   2.345   4.415   4.959  0.4594 -0.0558  0.8447
 3040TIP3    H1 9126   2.389   4.496   4.982  0.1031 -0.0366  1.4794
 3040TIP3    H2 9127   2.365   4.402   4.866  0.8805  0.5226  0.8530
 3041TIP3   OH2 9128   5.581   3.483   1.695  0.3740  0.5476 -0.2275
 3041TIP3    H1 9129   5.494   3.515   1.719  0.1202  0.0046 -0.3998
 3041TIP3    H2 9130   5.578   3.477   1.600 -0.8092 -3.2169 -0.1121
 3042TIP3   OH2 9131   1.763   5.575   4.249 -0.0343 -0.0567 -0.1601
 3042TIP3    H1 9132   1.705   5.540   4.316 -2.3188  0.5012 -1.7289
 3042TIP3    H2 9133   1.707   5.632   4.196  2.2008  1.2977 -1.1997
 3043TIP3   OH2 9134   6.253   4.637   4.887 -0.6912 -0.1000  0.0492
 3043TIP3    H1 9135   6.339   4.602   4.867 -0.6223 -0.8082  1.4317
 3043TIP3    H2 9136   6.216   4.575   4.951 -2.1519  0.2752 -0.3905
 3044TIP3   OH2 9137   0.141   1.100   3.188  0.1367  0.6247  0.7975
 3044TIP3    H1 9138   0.107   1.155   3.118 -0.3811 -0.8493 -0.1759
 3044TIP3    H2 9139   0.229   1.075   3.160 -1.3687 -3.1011 -1.4354
 3045TIP3   OH2 9140   5.976   1.825   1.968 -0.2686 -0.4656  0.3741
 3045TIP3    H1 9141   5.924   1.767   1.911 -1.1007  0.7029 -0.0964
 3045TIP3    H2 9142   5.933   1.821   2.053  1.6167 -3.0794  1.3322
 3046TIP3   OH2 9143   2.732   0.305   3.636 -0.5390  0.1384 -0.0898
 3046TIP3    H1 9144   2.674   0.381   3.630  0.3035  0.7944 -0.0078
 3046TIP3    H2 9145   2.807   0.328   3.582 -0.2303 -0.6029  0.0161
 3047TIP3   OH2 9146   0.587   5.143   1.086 -0.0808 -0.1950  0.4716
 3047TIP3    H1 9147   0.632   5.064   1.055  1.9527  0.9928  0.2093
 3047TIP3    H2 9148   0.632   5.165   1.168 -0.1729  1.0290  0.2103
 3048TIP3   OH2 9149   4.751   5.653   4.088  0.1117  0.6980 -0.0230
 3048TIP3    H1 9150   4.673   5.690   4.047  1.6936  1.5476 -2.4595
 3048TIP3    H2 9151   4.824   5.699   4.047  1.9495 -0.6674  1.5408
 3049TIP3   OH2 9152   5.467   4.527   2.055 -0.3880  0.1760 -0.4131
 3049TIP3    H1 9153   5.398   4.476   2.096  0.7948 -0.6187  0.6822
 3049TIP3    H2 9154   5.495   4.589   2.123 -1.1818  1.6973 -1.4257
 3050TIP3   OH2 9155   0.766   4.729   3.064 -0.1791  0.0739 -0.7892
 3050TIP3    H1 9156   0.707   4.674   3.115 -0.9585  0.4453 -1.2687
 3050TIP3    H2 9157   0.750   4.818   3.097  0.7922  0.0607 -0.2775
 3051TIP3   OH2 9158   5.264   4.779   2.238 -0.0919 -0.2410  0.0715
 3051TIP3    H1 9159   5.330   4.789   2.169  1.6157  0.2497  1.7047
 3051TIP3    H2 9160   5.226   4.866   2.247  1.5497  0.3810  1.4882
 3052TIP3   OH2 9161   2.370   1.012   5.144 -0.1504  0.3820 -0.7286
 3052TIP3    H1 9162   2.290   1.065   5.145 -0.4352 -0.0417 -0.6270
 3052TIP3    H2 9163   2.353   0.945   5.078  0.0507  0.1801 -0.5757
 3053TIP3   OH2 9164   3.244   0.547   1.706 -0.1333 -0.0099 -0.1347
 3053TIP3    H1 9165   3.317   0.543   1.644 -0.6041  2.5058 -0.9519
 3053TIP3    H2 9166   3.281   0.518   1.789  2.0245  1.7872 -0.3809
 3054TIP3   OH2 9167   4.277   1.393   4.527 -0.2582  0.4211 -0.0495
 3054TIP3    H1 9168   4.355   1.429   4.569 -1.3465  0.3652  2.1771
 3054TIP3    H2 9169   4.223   1.363   4.600 -2.1305 -0.0245 -1.5557
 3055TIP3   OH2 9170   2.626   3.144  -0.003 -0.0129 -0.7220 -0.2556
 3055TIP3    H1 9171   2.556   3.173   0.055  1.5526  0.4950  1.1327
 3055TIP3    H2 9172   2.680   3.086   0.051  0.4443 -1.1095 -1.0940
 3056TIP3   OH2 9173   3.200   0.966   1.001 -0.0675 -0.1191  0.1881
 3056TIP3    H1 9174   3.153   0.888   1.030  0.6635 -0.7825 -0.3774
 3056TIP3    H2 9175   3.180   1.032   1.068 -3.0950  0.1335 -0.8291
 3057TIP3   OH2 9176   5.762   2.595   1.708 -0.0733 -0.1883 -0.3667
 3057TIP3    H1 9177   5.845   2.569   1.748 -0.4577 -0.3307  0.3418
 3057TIP3    H2 9178   5.779   2.684   1.675  0.0996  0.1373  0.5666
 3058TIP3   OH2 9179   2.969   1.781   0.149 -0.3088 -0.0595 -0.0883
 3058TIP3    H1 9180   2.937   1.864   0.185  0.3964  0.6408 -1.0492
 3058TIP3    H2 9181   2.890   1.727   0.139 -0.7177  0.3357  0.9195
 3059TIP3   OH2 9182   1.866   3.397   5.048 -0.3492  0.2365  0.6313
 3059TIP3    H1 9183   1.802   3.336   5.086 -0.0708 -0.5004 -0.0659
 3059TIP3    H2 9184   1.933   3.340   5.010 -1.0278  0.9232 -1.7053
 3060TIP3   OH2 9185   0.516   1.789   4.588  0.1097  0.0782  0.9813
 3060TIP3    H1 9186   0.459   1.749   4.654 -0.7939  1.6083  1.1806
 3060TIP3    H2 9187   0.563   1.857   4.635  1.1014 -0.2715  0.5098
 3061TIP3   OH2 9188   0.315   0.908   2.973 -0.1990  0.3741 -0.0147
 3061TIP3    H1 9189   0.369   0.983   2.997  0.6233 -0.3778  0.5056
 3061TIP3    H2 9190   0.278   0.932   2.888  1.0164  0.8703 -0.4251
 3062TIP3   OH2 9191   3.524   0.180   1.170  0.1580 -0.6996 -0.0972
 3062TIP3    H1 9192   3.533   0.162   1.264  0.5939  0.4281  0.0973
 3062TIP3    H2 9193   3.470   0.109   1.137 -0.5839 -0.7507  1.1466
 3063TIP3   OH2 9194   0.270   2.216   0.193  0.3414  0.2974 -0.3449
 3063TIP3    H1 9195   0.359   2.252   0.198  0.1104  1.0367 -1.2108
 3063TIP3    H2 9196   0.227   2.269   0.126 -1.1189  0.7287  0.8835
 3064TIP3   OH2 9197   4.057   3.061   1.519 -0.4559  0.5417 -0.2799
 3064TIP3    H1 9198   4.075   3.068   1.612 -2.7100  1.0683  0.1766
 3064TIP3    H2 9199   4.095   3.141   1.481  0.0953  0.5304  0.2422
 3065TIP3   OH2 9200   6.189   3.506   2.835  0.3345 -0.1326 -0.2885
 3065TIP3    H1 9201   6.209   3.412   2.834 -0.4262 -0.2996 -0.8802
 3065TIP3    H2 9202   6.243   3.542   2.764 -0.4435 -0.3727 -1.0260
 3066TIP3   OH2 9203   2.245   3.778   4.041 -0.0781  0.2699 -0.1356
 3066TIP3    H1 9204   2.337   3.780   4.069  0.3002  1.1343 -1.3586
 3066TIP3    H2 9205   2.249   3.759   3.948 -1.2066 -0.5746 -0.0315
 3067TIP3   OH2 9206   4.810   0.909   4.420 -0.1476  0.0759 -0.0419
 3067TIP3    H1 9207   4.855   0.980   4.467  1.3012  0.0970 -1.3816
 3067TIP3    H2 9208   4.776   0.949   4.341 -1.6156 -0.2019  0.4119
 3068TIP3   OH2 9209   4.151   4.484   2.774  0.4176 -0.1852  0.5177
 3068TIP3    H1 9210   4.208   4.543   2.724  2.2406 -1.3733  1.1015
 3068TIP3    H2 9211   4.101   4.542   2.831 -0.1951  1.0262 -1.1881
 3069TIP3   OH2 9212   2.738   2.749   0.797  0.1452 -0.9182  0.0952
 3069TIP3    H1 9213   2.802   2.788   0.855  0.5954 -0.5180 -0.6613
 3069TIP3    H2 9214   2.694   2.683   0.851  0.5795 -0.5836  0.8695
 3070TIP3   OH2 9215   4.091   4.496   0.937  0.2810  0.3130  0.1530
 3070TIP3    H1 9216   4.029   4.567   0.922  0.5428  0.7118  0.8667
 3070TIP3    H2 9217   4.109   4.460   0.851  0.4341  1.3699 -0.2650
 3071TIP3   OH2 9218   2.756   2.939   1.675  0.5948  0.3133  0.3662
 3071TIP3    H1 9219   2.765   3.033   1.657 -1.2759  0.4608  0.0294
 3071TIP3    H2 9220   2.791   2.896   1.597  0.8299  0.7476  0.2283
 3072TIP3   OH2 9221   1.974   3.479   1.839 -0.3111  0.3972 -0.5355
 3072TIP3    H1 9222   2.013   3.565   1.820 -0.0236  0.0160 -1.7637
 3072TIP3    H2 9223   2.010   3.422   1.771  2.5461 -1.6439  2.4110
 3073TIP3   OH2 9224   5.678   4.212   2.553  0.4482  0.4729  0.5434
 3073TIP3    H1 9225   5.618   4.141   2.527  1.2401 -0.0655  0.1354
 3073TIP3    H2 9226   5.718   4.241   2.471  0.0936  1.4348  0.7051
 3074TIP3   OH2 9227   0.885   3.898   3.573 -0.3067 -0.5621  0.8290
 3074TIP3    H1 9228   0.930   3.880   3.490 -4.4569 -0.8410 -1.6531
 3074TIP3    H2 9229   0.863   3.991   3.569  0.9723 -0.1271  2.5865
 3075TIP3   OH2 9230   3.813   2.278   3.259 -0.5221 -0.4518  0.0870
 3075TIP3    H1 9231   3.858   2.346   3.309  0.7957 -0.6977 -0.6936
 3075TIP3    H2 9232   3.807   2.314   3.170  1.7170 -1.9359 -0.7541
 3076TIP3   OH2 9233   2.915   0.729   2.684 -0.1155  0.3778  0.2762
 3076TIP3    H1 9234   2.868   0.714   2.766 -1.5513 -0.7854 -0.7111
 3076TIP3    H2 9235   2.900   0.821   2.663  1.3165  1.0399  1.9064
 3077TIP3   OH2 9236   0.614   4.465   2.674 -0.1002 -0.0989  0.2115
 3077TIP3    H1 9237   0.655   4.457   2.588  0.4057  2.5768  0.1181
 3077TIP3    H2 9238   0.685   4.490   2.733 -0.8844  0.7821  0.8252
 3078TIP3   OH2 9239   3.633   0.651   2.352  0.1281 -0.5386 -0.7854
 3078TIP3    H1 9240   3.656   0.563   2.322  0.4006 -0.4641 -0.8026
 3078TIP3    H2 9241   3.704   0.675   2.411 -0.5640 -0.8057  0.1756
 3079TIP3   OH2 9242   4.844   2.723   4.326 -0.5575  0.4660  0.2145
 3079TIP3    H1 9243   4.796   2.644   4.300  1.1885 -0.4461 -0.3375
 3079TIP3    H2 9244   4.787   2.766   4.390 -1.8841 -0.8158 -0.0617
 3080TIP3   OH2 9245   6.077   3.710   4.274  0.1994  0.5704  0.3315
 3080TIP3    H1 9246   6.089   3.689   4.367 -0.4470  1.2545  0.5743
 3080TIP3    H2 9247   6.149   3.664   4.230  0.4093  0.0972  1.1473
 3081TIP3   OH2 9248   3.764   2.419   1.336 -0.6294  0.5591 -0.2644
 3081TIP3    H1 9249   3.763   2.464   1.420  0.7592  0.9654 -0.4283
 3081TIP3    H2 9250   3.690   2.455   1.288 -1.5355  0.2019  0.8283
 3082TIP3   OH2 9251   4.686   1.569   1.508 -0.6671  0.7322  0.1414
 3082TIP3    H1 9252   4.671   1.510   1.434 -3.5998  1.2105  0.2253
 3082TIP3    H2 9253   4.739   1.518   1.569 -2.1909 -1.4673 -0.2548
 3083TIP3   OH2 9254   0.468   0.214   3.087  0.4763  0.0227 -0.2963
 3083TIP3    H1 9255   0.420   0.147   3.038  0.5900 -0.1831 -0.1291
 3083TIP3    H2 9256   0.403   0.248   3.150  0.9993 -1.4928  1.1445
 3084TIP3   OH2 9257   1.593   1.198   0.755  0.4973 -0.0632  0.2073
 3084TIP3    H1 9258   1.576   1.238   0.840 -1.2420  0.5915 -0.4068
 3084TIP3    H2 9259   1.646   1.121   0.776  1.6178  1.0390  1.6824
 3085TIP3   OH2 9260   2.835   5.542   2.165 -0.3967  0.6876 -0.9411
 3085TIP3    H1 9261   2.817   5.453   2.196  1.3154  0.7075  0.2813
 3085TIP3    H2 9262   2.776   5.597   2.216 -1.1784  0.2940 -1.4078
 3086TIP3   OH2 9263   5.738   3.094   2.316  0.2965  0.1377  0.0540
 3086TIP3    H1 9264   5.673   3.055   2.256  0.4909  0.1436 -0.1632
 3086TIP3    H2 9265   5.806   3.027   2.322  0.0113 -0.0977  0.7173
 3087TIP3   OH2 9266   1.258   2.333   1.644 -0.0115 -0.2823 -0.1955
 3087TIP3    H1 9267   1.284   2.248   1.679 -2.6804 -1.0185  0.2359
 3087TIP3    H2 9268   1.257   2.391   1.720  2.6904  0.4885 -0.6258
 3088TIP3   OH2 9269   4.639   2.663   3.864  0.0535  0.6001  0.0362
 3088TIP3    H1 9270   4.710   2.599   3.852 -0.1193  0.4171 -0.0306
 3088TIP3    H2 9271   4.625   2.700   3.777 -1.2438 -0.7719 -0.3802
 3089TIP3   OH2 9272   5.258   5.613   0.696  0.4439  0.4584 -0.1194
 3089TIP3    H1 9273   5.213   5.633   0.778  0.7544 -0.2243  0.2205
 3089TIP3    H2 9274   5.340   5.663   0.700  1.0718 -0.5873  0.5893
 3090TIP3   OH2 9275   3.777   4.641   4.545  0.1021 -0.2863  0.3202
 3090TIP3    H1 9276   3.840   4.687   4.489 -0.1854 -0.5904 -0.2629
 3090TIP3    H2 9277   3.691   4.665   4.510 -0.0446 -1.7070 -0.3749
 3091TIP3   OH2 9278   0.229   0.557   0.692 -0.3407 -0.4842 -0.0502
 3091TIP3    H1 9279   0.287   0.487   0.722 -0.3567 -0.3539  0.2862
 3091TIP3    H2 9280   0.169   0.513   0.631 -0.3998 -0.7818  0.2198
 3092TIP3   OH2 9281   4.927   3.973   1.980  0.1766  0.4536 -0.3466
 3092TIP3    H1 9282   4.879   3.910   2.033  1.8004 -0.5232  0.0212
 3092TIP3    H2 9283   4.996   4.005   2.037  0.1171  1.6775 -0.9288
 3093TIP3   OH2 9284   1.517   2.222   4.613 -0.3445  0.3296  0.2623
 3093TIP3    H1 9285   1.575   2.298   4.609  0.0518 -0.0116 -1.0902
 3093TIP3    H2 9286   1.437   2.254   4.653  0.5715  0.9429  1.6811
 3094TIP3   OH2 9287   3.745   1.544   0.635  0.2156  0.3481  0.2996
 3094TIP3    H1 9288   3.706   1.493   0.707  1.4867  0.8029  1.3446
 3094TIP3    H2 9289   3.759   1.631   0.672  0.0270  0.8675 -0.8114
 3095TIP3   OH2 9290   3.840   5.584   3.080  0.2520 -0.0159  0.8785
 3095TIP3    H1 9291   3.831   5.489   3.071 -0.5781 -0.1937  3.0228
 3095TIP3    H2 9292   3.760   5.611   3.125  0.7531  1.6228  0.8369
 3096TIP3   OH2 9293   1.278   1.130   4.987 -0.1079  0.3881 -0.1066
 3096TIP3    H1 9294   1.311   1.172   5.067  0.7803  1.9477 -1.2261
 3096TIP3    H2 9295   1.332   1.168   4.917 -0.9704 -0.8158 -1.4631
 3097TIP3   OH2 9296   3.068   4.536   2.790  0.3386 -0.4025 -0.0795
 3097TIP3    H1 9297   3.152   4.527   2.745 -0.4563  0.1516 -1.7547
 3097TIP3    H2 9298   3.038   4.624   2.768 -0.7820 -0.6690  0.2888
 3098TIP3   OH2 9299   2.105   1.562   0.641 -0.4945 -0.3631 -0.4591
 3098TIP3    H1 9300   2.060   1.483   0.610 -1.4670 -1.0384  2.4279
 3098TIP3    H2 9301   2.164   1.531   0.710  0.5854  1.2227 -0.6116
 3099TIP3   OH2 9302   2.436   5.264   2.771  0.1527 -0.4423 -0.0992
 3099TIP3    H1 9303   2.504   5.294   2.832 -0.5314 -0.5294  0.7202
 3099TIP3    H2 9304   2.484   5.213   2.706  1.0493  0.6411 -0.3128
 3100TIP3   OH2 9305   4.757   5.171   2.119  0.1352  0.1710 -0.6819
 3100TIP3    H1 9306   4.739   5.135   2.032 -0.1097  2.6305 -1.7357
 3100TIP3    H2 9307   4.831   5.230   2.106  2.2163 -1.7722  1.4858
 3101TIP3   OH2 9308   3.300   4.870   1.810 -0.0008 -0.6273  0.6660
 3101TIP3    H1 9309   3.360   4.894   1.739 -1.4812  1.7683  0.1213
 3101TIP3    H2 9310   3.289   4.950   1.861 -2.1410 -1.1863  1.1763
 3102TIP3   OH2 9311   2.113   2.946   3.380  0.2976  0.4000  0.0291
 3102TIP3    H1 9312   2.181   2.976   3.320 -1.0951  0.4466 -1.5991
 3102TIP3    H2 9313   2.047   2.905   3.324 -1.8154  1.8275  1.3061
 3103TIP3   OH2 9314   4.375   2.036   4.094  0.3652  0.3276  0.0831
 3103TIP3    H1 9315   4.291   2.068   4.060  1.6495  2.4795 -1.3603
 3103TIP3    H2 9316   4.356   2.006   4.183 -1.8836  0.8838 -0.1548
 3104TIP3   OH2 9317   3.219   3.515   4.646  0.5051 -0.2663 -0.0143
 3104TIP3    H1 9318   3.142   3.557   4.608  0.4223 -0.4615 -0.0625
 3104TIP3    H2 9319   3.292   3.549   4.595  0.5437  0.6076  0.6067
 3105TIP3   OH2 9320   3.110   0.493   1.462 -0.3881  0.8934 -0.1000
 3105TIP3    H1 9321   3.133   0.405   1.433 -1.5890  0.7166 -0.6014
 3105TIP3    H2 9322   3.161   0.507   1.542  0.7049  0.2122 -0.6585
 3106TIP3   OH2 9323   4.750   1.864   5.034 -0.2820  0.3910  0.1904
 3106TIP3    H1 9324   4.685   1.921   5.074 -0.2090 -1.0082  2.4818
 3106TIP3    H2 9325   4.812   1.924   4.993 -3.1668  1.7782 -2.6099
 3107TIP3   OH2 9326   0.599   4.545   1.688 -0.1593 -0.2180  0.0671
 3107TIP3    H1 9327   0.526   4.569   1.746  0.1885 -0.3430  0.5674
 3107TIP3    H2 9328   0.633   4.464   1.726 -0.7825 -1.0540 -1.1097
 3108TIP3   OH2 9329   5.830   0.309   4.738 -0.2721 -0.1214  1.0055
 3108TIP3    H1 9330   5.861   0.320   4.828  1.6900  0.1145  0.3316
 3108TIP3    H2 9331   5.890   0.360   4.685 -1.6457  0.0843 -0.4313
 3109TIP3   OH2 9332   1.449   2.325   1.451 -0.2460 -0.2265  0.4969
 3109TIP3    H1 9333   1.533   2.344   1.494 -0.5393 -0.7764  1.3467
 3109TIP3    H2 9334   1.386   2.319   1.523 -0.7483 -1.2173 -0.0055
 3110TIP3   OH2 9335   4.152   4.494   3.310 -0.1553 -0.0137  0.1201
 3110TIP3    H1 9336   4.184   4.429   3.247  0.0083  1.1174 -0.9998
 3110TIP3    H2 9337   4.210   4.569   3.300 -0.6632  0.5232  1.0177
 3111TIP3   OH2 9338   1.480   0.459   0.858 -0.4044  0.4891 -0.5277
 3111TIP3    H1 9339   1.397   0.413   0.864 -0.1512 -0.3259 -2.5606
 3111TIP3    H2 9340   1.458   0.550   0.878 -1.4592  0.0321  0.5351
 3112TIP3   OH2 9341   5.024   0.416   4.573 -0.5127  0.1336  0.3323
 3112TIP3    H1 9342   5.007   0.502   4.611  1.6057  0.6782  0.1788
 3112TIP3    H2 9343   4.940   0.390   4.534 -1.2202  2.0863  0.4371
 3113TIP3   OH2 9344   2.177   1.809   4.308 -0.0549  0.1351  0.2023
 3113TIP3    H1 9345   2.109   1.801   4.241  1.1522  0.8530 -1.1764
 3113TIP3    H2 9346   2.132   1.845   4.384 -1.3303 -0.0119 -0.4573
 3114TIP3   OH2 9347   4.471   2.263   2.278 -0.0906 -0.1955 -0.0535
 3114TIP3    H1 9348   4.555   2.220   2.264  0.0593 -0.7548  2.2858
 3114TIP3    H2 9349   4.420   2.201   2.330 -1.9378  0.1917 -1.3009
 3115TIP3   OH2 9350   0.837   4.645   0.016  0.3275 -0.0784  1.2120
 3115TIP3    H1 9351   0.835   4.683  -0.072 -0.7693 -0.6602  0.9669
 3115TIP3    H2 9352   0.818   4.718   0.074 -0.8014 -0.0410  0.8172
 3116TIP3   OH2 9353   5.584   5.523   0.433 -0.0085  0.1746 -0.1433
 3116TIP3    H1 9354   5.644   5.564   0.495  0.2786 -1.3689  0.6564
 3116TIP3    H2 9355   5.510   5.583   0.427  0.3092  0.7124  1.1117
 3117TIP3   OH2 9356   5.663   0.087   2.609  0.3312  0.9541  0.0126
 3117TIP3    H1 9357   5.756   0.090   2.587  0.4758 -0.2169  0.3739
 3117TIP3    H2 9358   5.650  -0.001   2.644 -0.8747  1.1729  0.1533
 3118TIP3   OH2 9359   0.975   5.091   3.789  0.2461  0.2430 -1.1471
 3118TIP3    H1 9360   0.970   5.001   3.756  0.4715  0.1706 -0.9824
 3118TIP3    H2 9361   0.975   5.145   3.710  0.7493  0.0723 -1.2665
 3119TIP3   OH2 9362   4.672   1.527   0.785 -0.3998  0.0762 -0.3847
 3119TIP3    H1 9363   4.765   1.550   0.777 -0.0863 -0.7420  0.7408
 3119TIP3    H2 9364   4.671   1.444   0.831 -1.6833 -0.2442 -0.9438
 3120TIP3   OH2 9365   0.164   4.340   4.504  0.4808  0.5128 -0.7439
 3120TIP3    H1 9366   0.123   4.263   4.544  0.9367  0.6663  0.0262
 3120TIP3    H2 9367   0.096   4.408   4.507  0.1926  0.2480 -1.1159
 3121TIP3   OH2 9368   4.331   5.867   1.329  0.1961 -0.1703  0.0663
 3121TIP3    H1 9369   4.361   5.870   1.239  4.2967 -1.3294  1.1886
 3121TIP3    H2 9370   4.349   5.777   1.358 -1.9792 -0.1448  1.8004
 3122TIP3   OH2 9371   1.281   3.778   0.226 -0.5440  0.0974 -0.2504
 3122TIP3    H1 9372   1.194   3.786   0.187 -0.8112  0.2205  0.3551
 3122TIP3    H2 9373   1.338   3.753   0.153 -0.8928  1.0391 -0.8617
 3123TIP3   OH2 9374   1.773   2.599   3.016 -0.2220  0.1397 -0.4877
 3123TIP3    H1 9375   1.679   2.596   3.035 -1.0385  1.4848 -3.7015
 3123TIP3    H2 9376   1.790   2.692   2.997  1.7195 -0.1279 -0.2222
 3124TIP3   OH2 9377   0.574   5.224   3.148  0.1652 -0.3117  0.0632
 3124TIP3    H1 9378   0.488   5.263   3.131  0.6976  0.6413 -0.5352
 3124TIP3    H2 9379   0.610   5.278   3.218  0.4226 -0.4829  0.0600
 3125TIP3   OH2 9380   2.347   1.027   4.794  0.5904  0.0023 -0.1024
 3125TIP3    H1 9381   2.319   1.117   4.808  0.7672  0.5988 -3.0230
 3125TIP3    H2 9382   2.265   0.977   4.788  0.4876 -0.0145  1.2409
 3126TIP3   OH2 9383   4.315   2.366   2.958 -0.3182 -0.1200 -0.7200
 3126TIP3    H1 9384   4.325   2.281   2.917  0.4701  0.3588 -1.5630
 3126TIP3    H2 9385   4.243   2.408   2.912 -2.2102 -1.1384  1.1563
 3127TIP3   OH2 9386   1.601   3.674   1.793  0.3400 -0.6278  0.1655
 3127TIP3    H1 9387   1.511   3.660   1.824  0.4915  0.3715  1.1174
 3127TIP3    H2 9388   1.636   3.586   1.781 -1.6100 -1.1346 -2.8773
 3128TIP3   OH2 9389   3.267   0.220   1.664 -0.3293 -0.1955  0.2194
 3128TIP3    H1 9390   3.306   0.140   1.699  2.0106  0.7281 -0.1333
 3128TIP3    H2 9391   3.306   0.290   1.716  0.5689  0.9701 -1.9360
 3129TIP3   OH2 9392   3.952   0.811   1.882  0.4920 -0.6015 -0.1401
 3129TIP3    H1 9393   3.886   0.810   1.951  0.3621  0.1929 -0.2422
 3129TIP3    H2 9394   3.930   0.736   1.827  0.3444 -0.9902  0.4364
 3130TIP3   OH2 9395   5.419   0.293   0.341  0.1370 -0.4045  0.1396
 3130TIP3    H1 9396   5.457   0.305   0.428  0.5760  3.1784 -0.3844
 3130TIP3    H2 9397   5.340   0.346   0.342 -0.1367 -0.7411 -1.4752
 3131TIP3   OH2 9398   3.406   3.343   1.683  0.6821 -0.4326 -0.6349
 3131TIP3    H1 9399   3.356   3.401   1.625 -0.2638  1.1230  1.6176
 3131TIP3    H2 9400   3.425   3.266   1.629 -0.8141  0.5915 -2.7493
 3132TIP3   OH2 9401   3.163   2.297   2.824  0.0518 -0.4464  0.3911
 3132TIP3    H1 9402   3.164   2.320   2.731 -0.4214  0.3639  0.5715
 3132TIP3    H2 9403   3.238   2.239   2.836 -1.3062 -2.6118 -0.9958
 3133TIP3   OH2 9404   0.636   5.917   4.399  0.0761 -0.5627  0.0781
 3133TIP3    H1 9405   0.586   5.930   4.318 -1.8429 -1.1268  1.1217
 3133TIP3    H2 9406   0.580   5.954   4.468  1.0966 -1.2396  1.3045
 3134TIP3   OH2 9407   4.911   2.202   3.767 -0.0490 -0.1141 -0.2127
 3134TIP3    H1 9408   4.843   2.222   3.703  1.2843  0.8557 -1.3960
 3134TIP3    H2 9409   4.960   2.130   3.728 -1.2715 -1.8735  1.3445
 3135TIP3   OH2 9410   3.530   5.682   4.556  0.0311  0.1319  0.4789
 3135TIP3    H1 9411   3.614   5.637   4.554  0.6973  1.3289  0.5426
 3135TIP3    H2 9412   3.535   5.745   4.484 -0.6586  0.4695  0.7192
 3136TIP3   OH2 9413   1.272   2.663   0.257  0.0222  0.7336 -0.0496
 3136TIP3    H1 9414   1.350   2.713   0.235  1.1418 -1.0100 -0.1966
 3136TIP3    H2 9415   1.276   2.586   0.200 -1.4755  0.2998  0.3951
 3137TIP3   OH2 9416   2.024   4.267   3.245 -0.7859 -0.1588  0.0894
 3137TIP3    H1 9417   1.946   4.321   3.245 -0.5304  0.2501  1.4690
 3137TIP3    H2 9418   2.063   4.280   3.332  0.1525 -1.2977 -0.1253
 3138TIP3   OH2 9419   0.209   3.931   1.009 -0.9953  0.6320  0.6649
 3138TIP3    H1 9420   0.132   3.875   1.018 -1.2345  1.0017  0.9911
 3138TIP3    H2 9421   0.261   3.914   1.087 -0.4577 -0.0372  0.1699
 3139TIP3   OH2 9422   1.787   4.776   0.259  0.4141  0.3856 -0.6531
 3139TIP3    H1 9423   1.717   4.731   0.306  1.2068 -0.1954 -0.0029
 3139TIP3    H2 9424   1.751   4.791   0.172 -1.6491  2.8236  0.4803
 3140TIP3   OH2 9425   3.808   0.164   4.626 -0.4583  0.2064 -0.0321
 3140TIP3    H1 9426   3.805   0.095   4.560 -0.2961  1.0806 -0.9741
 3140TIP3    H2 9427   3.859   0.126   4.698 -0.3811 -0.6582 -0.5297
 3141TIP3   OH2 9428   4.114   1.338  -0.008  0.3381  0.5004  0.4403
 3141TIP3    H1 9429   4.085   1.428   0.009 -0.6175  0.2286  0.2570
 3141TIP3    H2 9430   4.051   1.283   0.037 -1.1269 -0.1770 -2.2170
 3142TIP3   OH2 9431   4.375   4.863   1.499  0.3405  0.1607 -0.5249
 3142TIP3    H1 9432   4.421   4.790   1.458 -0.7315 -0.3273 -0.8824
 3142TIP3    H2 9433   4.301   4.823   1.544  0.0416  0.9723 -0.2710
 3143TIP3   OH2 9434   6.181   5.711   1.599 -0.0180  0.1787  0.5889
 3143TIP3    H1 9435   6.196   5.805   1.584 -1.5719  0.2897 -0.4837
 3143TIP3    H2 9436   6.086   5.703   1.610 -0.0022 -1.3782 -0.1525
 3144TIP3   OH2 9437   4.222   2.276   5.123  0.1811  0.7012 -0.1557
 3144TIP3    H1 9438   4.178   2.323   5.052  1.0912 -0.6183 -1.6547
 3144TIP3    H2 9439   4.220   2.184   5.095  1.1954  0.2515  1.1976
 3145TIP3   OH2 9440   5.846   3.315   4.977 -0.0649  0.5552 -0.4952
 3145TIP3    H1 9441   5.839   3.222   5.000  1.1210  0.6164  0.1978
 3145TIP3    H2 9442   5.844   3.316   4.881  0.1692 -0.2046 -0.5174
 3146TIP3   OH2 9443   4.916   1.157   1.745  0.4824 -0.9807  0.7342
 3146TIP3    H1 9444   4.938   1.119   1.660 -0.9036 -0.8578  0.2905
 3146TIP3    H2 9445   4.821   1.149   1.751  0.3952  0.3632  1.6109
 3147TIP3   OH2 9446   5.275   4.531   0.695  0.3386 -0.2374  0.0326
 3147TIP3    H1 9447   5.324   4.613   0.691 -0.6823  0.3742 -0.2615
 3147TIP3    H2 9448   5.236   4.530   0.782 -2.0550  1.0614 -0.9280
 3148TIP3   OH2 9449   6.272   1.136   1.928 -0.3634 -0.4765  0.2448
 3148TIP3    H1 9450   6.206   1.193   1.887  0.3598  0.6767  0.6105
 3148TIP3    H2 9451   6.341   1.197   1.955  1.6453 -1.8066 -1.5871
 3149TIP3   OH2 9452   3.039   3.037   3.003 -0.1971  0.5350 -0.4610
 3149TIP3    H1 9453   2.950   3.031   3.039 -1.3319 -1.7972 -3.2638
 3149TIP3    H2 9454   3.088   2.968   3.048 -0.8702 -0.5880 -1.3873
 3150TIP3   OH2 9455   5.372   0.896   1.449 -0.0773 -0.5703 -0.0670
 3150TIP3    H1 9456   5.312   0.967   1.472 -0.2924 -1.3985  2.0758
 3150TIP3    H2 9457   5.417   0.875   1.530  1.6106 -1.4056 -1.1702
 3151TIP3   OH2 9458   5.307   1.302   3.993 -0.3215 -0.3617  0.2884
 3151TIP3    H1 9459   5.281   1.387   3.960 -1.0761 -0.9207 -0.5971
 3151TIP3    H2 9460   5.340   1.319   4.081  1.0090  1.0558 -0.4368
 3152TIP3   OH2 9461   0.439   3.435   3.055  0.3245 -0.0703  0.1897
 3152TIP3    H1 9462   0.365   3.470   3.004  0.1661 -1.6226 -0.7188
 3152TIP3    H2 9463   0.514   3.486   3.025 -0.0103  0.0030 -0.5629
 3153TIP3   OH2 9464   6.198   3.397   3.389  0.2450 -0.4155 -0.3121
 3153TIP3    H1 9465   6.127   3.333   3.378  1.7859 -1.8820 -2.5570
 3153TIP3    H2 9466   6.236   3.375   3.474 -1.9419  0.4481  0.9824
 3154TIP3   OH2 9467   3.867   2.782   4.699  0.3074 -0.2574 -0.2763
 3154TIP3    H1 9468   3.901   2.751   4.783  0.2536  0.9282  0.1884
 3154TIP3    H2 9469   3.835   2.702   4.656 -0.2190 -0.7935  1.0694
 3155TIP3   OH2 9470   3.537   1.295   2.313  0.7830  0.2510  0.0002
 3155TIP3    H1 9471   3.537   1.384   2.350  1.7969  0.7825 -1.2195
 3155TIP3    H2 9472   3.624   1.285   2.274 -0.0565 -0.4690 -1.7635
 3156TIP3   OH2 9473   4.574   5.150   4.189 -0.1833 -0.4267  0.0655
 3156TIP3    H1 9474   4.631   5.227   4.188 -0.4656 -0.2156  0.1377
 3156TIP3    H2 9475   4.546   5.141   4.280 -1.6867  0.5351 -0.2675
 3157TIP3   OH2 9476   5.888   4.029   4.382 -0.6305 -0.0290  0.4131
 3157TIP3    H1 9477   5.813   3.970   4.381 -1.4524  0.9472  1.1076
 3157TIP3    H2 9478   5.849   4.117   4.387  0.5286  0.6185 -1.1186
 3158TIP3   OH2 9479   2.904   4.901   1.393 -0.5499 -0.3698  0.4789
 3158TIP3    H1 9480   2.819   4.862   1.415 -0.4634 -0.3327  0.8783
 3158TIP3    H2 9481   2.930   4.856   1.312 -0.3848 -1.2517  1.0104
 3159TIP3   OH2 9482   5.763   5.880   3.894 -0.3979 -0.1021 -0.3319
 3159TIP3    H1 9483   5.770   5.899   3.801  1.1175  1.0792 -0.0363
 3159TIP3    H2 9484   5.679   5.916   3.920 -1.1639 -1.0928 -1.3617
 3160TIP3   OH2 9485   4.685   1.810   2.808  0.1294 -0.0951  0.4404
 3160TIP3    H1 9486   4.711   1.728   2.850  1.1896 -1.3770 -2.4101
 3160TIP3    H2 9487   4.766   1.844   2.770 -1.1143 -0.6830 -3.0927
 3161TIP3   OH2 9488   0.364   5.124   0.390 -0.5728  0.1225 -0.1241
 3161TIP3    H1 9489   0.457   5.099   0.396 -0.6186 -0.6922 -2.2076
 3161TIP3    H2 9490   0.359   5.182   0.314 -1.7467  0.4555  0.1798
 3162TIP3   OH2 9491   4.884   3.533   4.230  0.1952 -0.6762  0.0523
 3162TIP3    H1 9492   4.976   3.532   4.204  0.1136  0.2446 -0.3133
 3162TIP3    H2 9493   4.861   3.626   4.232 -1.4828 -0.9449 -2.5721
 3163TIP3   OH2 9494   5.900   0.327   4.110  0.2890 -0.5132  0.4910
 3163TIP3    H1 9495   5.885   0.311   4.203  0.1408  1.7384  0.9252
 3163TIP3    H2 9496   5.822   0.374   4.081  0.3057 -1.2404 -0.8165
 3164TIP3   OH2 9497   6.073   0.654   0.681  0.4993 -0.1423  0.0084
 3164TIP3    H1 9498   6.166   0.663   0.659  0.4323  0.1428 -0.1765
 3164TIP3    H2 9499   6.072   0.618   0.769  0.7661 -2.7164 -0.9771
 3165TIP3   OH2 9500   1.190   1.501   4.578  0.0677  0.0541  0.4745
 3165TIP3    H1 9501   1.147   1.415   4.583  0.0671 -0.0308 -0.7505
 3165TIP3    H2 9502   1.282   1.483   4.595 -0.0430 -0.0694  0.9758
 3166TIP3   OH2 9503   5.643   1.689   3.062 -0.6419 -0.7544 -0.2756
 3166TIP3    H1 9504   5.564   1.689   3.116 -0.3636 -1.3894  0.1501
 3166TIP3    H2 9505   5.644   1.775   3.021 -0.0003  0.4231  2.0096
 3167TIP3   OH2 9506   3.716   4.719   5.005  0.1726 -0.6245 -0.3158
 3167TIP3    H1 9507   3.801   4.677   4.997  0.9710  0.7842  0.4607
 3167TIP3    H2 9508   3.719   4.792   4.943  0.3487  0.6559  1.1168
 3168TIP3   OH2 9509   5.147   0.725   3.399 -0.1577  0.5194 -0.2979
 3168TIP3    H1 9510   5.146   0.727   3.303 -0.4507  1.8574 -0.2819
 3168TIP3    H2 9511   5.202   0.800   3.424  2.0322 -1.2503  0.5744
 3169TIP3   OH2 9512   2.190   1.270   1.876  0.0866 -0.0413  0.3726
 3169TIP3    H1 9513   2.163   1.266   1.967  2.5656  0.8213  1.2239
 3169TIP3    H2 9514   2.223   1.183   1.856  1.9178  0.4169  1.1732
 3170TIP3   OH2 9515   2.824   0.866   2.376 -0.1184  0.3756 -0.0956
 3170TIP3    H1 9516   2.844   0.801   2.309  0.0339  0.9653 -0.6434
 3170TIP3    H2 9517   2.728   0.867   2.382 -0.1026 -0.2311  0.2588
 3171TIP3   OH2 9518   5.629   5.379   2.740 -0.0643  0.2809  0.5721
 3171TIP3    H1 9519   5.553   5.376   2.798 -1.2511 -0.1227 -0.9162
 3171TIP3    H2 9520   5.612   5.455   2.684  1.6901  1.4379  1.5420
 3172TIP3   OH2 9521   5.345  -0.003   1.471 -0.7693 -0.1638  0.0294
 3172TIP3    H1 9522   5.393  -0.052   1.404  0.3154  0.7321  0.1253
 3172TIP3    H2 9523   5.330   0.083   1.432 -2.1156 -0.3402  0.1000
 3173TIP3   OH2 9524   4.002   2.139   0.748  0.4193 -0.8041 -0.5639
 3173TIP3    H1 9525   3.938   2.108   0.683 -0.3334 -2.1843  0.7825
 3173TIP3    H2 9526   4.087   2.128   0.705 -0.1261 -0.2929 -1.8435
 3174TIP3   OH2 9527   2.107   1.900   0.155  0.4476 -0.3679 -0.1049
 3174TIP3    H1 9528   2.070   1.829   0.103  1.0403 -0.6877 -0.0954
 3174TIP3    H2 9529   2.119   1.863   0.242  1.8966 -0.6493 -0.4008
 3175TIP3   OH2 9530   4.577   3.719   0.555 -0.6312  0.4361 -0.0263
 3175TIP3    H1 9531   4.662   3.740   0.517 -1.1251  2.2815 -0.2156
 3175TIP3    H2 9532   4.567   3.625   0.542  2.8166 -0.5913  2.9474
 3176TIP3   OH2 9533   3.707   5.203   4.503  0.2317  0.5761 -0.2735
 3176TIP3    H1 9534   3.689   5.271   4.438  0.8507  0.7557 -0.2536
 3176TIP3    H2 9535   3.800   5.186   4.495 -0.2788 -2.0494 -2.0720
 3177TIP3   OH2 9536   5.255   4.889  -0.013  0.0593  0.1612  0.1162
 3177TIP3    H1 9537   5.346   4.915   0.003 -0.8287  2.9191  1.3773
 3177TIP3    H2 9538   5.228   4.843   0.067  0.4506 -1.1019 -0.4588
 3178TIP3   OH2 9539   0.691   3.371   3.699  0.0795 -0.1506 -0.5200
 3178TIP3    H1 9540   0.710   3.302   3.762 -2.5163 -0.7690 -0.3323
 3178TIP3    H2 9541   0.733   3.341   3.618  2.4049  0.0801  0.4927
 3179TIP3   OH2 9542   1.155   5.478   3.205 -0.2202  0.6920  0.0635
 3179TIP3    H1 9543   1.107   5.486   3.122  0.0837  1.0073 -0.0861
 3179TIP3    H2 9544   1.245   5.505   3.183  0.0008  0.2022  0.3609
 3180TIP3   OH2 9545   2.531   0.296   2.489 -0.3435 -0.5072 -0.5509
 3180TIP3    H1 9546   2.456   0.238   2.473 -0.7587 -0.7694  1.9122
 3180TIP3    H2 9547   2.583   0.291   2.409 -1.7162 -2.2299 -1.4068
 3181TIP3   OH2 9548   2.521   5.450   3.553  0.0335  0.0535  0.1047
 3181TIP3    H1 9549   2.466   5.444   3.631 -0.6670 -1.2564 -0.4616
 3181TIP3    H2 9550   2.557   5.539   3.556  2.3471 -0.7547  3.4821
 3182TIP3   OH2 9551   5.318   3.590   2.930  0.3856 -0.0692  0.1192
 3182TIP3    H1 9552   5.245   3.530   2.917  0.1296  0.2531  0.0370
 3182TIP3    H2 9553   5.395   3.542   2.901  0.1469 -0.2615 -0.1995
 3183TIP3   OH2 9554   2.243   2.576   1.187 -0.4812 -0.0213 -0.5562
 3183TIP3    H1 9555   2.330   2.580   1.227  0.7284  1.8075 -3.1348
 3183TIP3    H2 9556   2.242   2.492   1.141 -0.0308  0.0152 -0.6368
 3184TIP3   OH2 9557   3.557   5.654   3.117 -0.1304  0.2177 -0.3681
 3184TIP3    H1 9558   3.464   5.672   3.133 -0.7606 -2.0057 -1.1626
 3184TIP3    H2 9559   3.575   5.695   3.032 -1.2912 -1.8553 -1.7164
 3185TIP3   OH2 9560   5.911   4.811   3.138 -0.1396 -0.0653 -0.1154
 3185TIP3    H1 9561   5.816   4.814   3.135 -0.2584 -2.3674 -2.8106
 3185TIP3    H2 9562   5.939   4.862   3.061  0.8589  0.7135  0.7219
 3186TIP3   OH2 9563   1.646  -0.001   3.403 -0.3447  0.1325 -0.9281
 3186TIP3    H1 9564   1.613  -0.024   3.316 -1.2793 -0.0754 -0.5278
 3186TIP3    H2 9565   1.589   0.070   3.433 -0.3484 -0.1335 -0.2810
 3187TIP3   OH2 9566   5.838   0.377   3.624  0.5785  0.3308 -0.0038
 3187TIP3    H1 9567   5.810   0.312   3.559  2.6748  0.0641 -0.7111
 3187TIP3    H2 9568   5.768   0.377   3.689 -1.5117  0.4096 -2.0873
 3188TIP3   OH2 9569   3.500   2.138   3.430  0.4761  0.1332 -0.2258
 3188TIP3    H1 9570   3.517   2.233   3.429 -1.8278  0.6218  0.6989
 3188TIP3    H2 9571   3.445   2.124   3.507  0.5044 -1.9317 -0.5223
 3189TIP3   OH2 9572   4.173   1.195   4.971 -0.0808  0.4692 -0.3392
 3189TIP3    H1 9573   4.221   1.226   5.048 -0.9311  1.2620 -0.1077
 3189TIP3    H2 9574   4.116   1.126   5.004  0.3828  0.0133 -0.4822
 3190TIP3   OH2 9575   1.294   5.284   0.260 -0.4217 -0.1630 -0.2298
 3190TIP3    H1 9576   1.315   5.196   0.292  0.6585  0.8042  1.9779
 3190TIP3    H2 9577   1.374   5.313   0.214 -0.6486 -0.2041 -0.6528
 3191TIP3   OH2 9578   0.289   1.408   3.086 -0.3524 -0.1847  0.7670
 3191TIP3    H1 9579   0.218   1.391   3.025  1.0335 -2.1732 -0.4167
 3191TIP3    H2 9580   0.251   1.393   3.172 -1.3360 -1.3319  0.1552
 3192TIP3   OH2 9581   5.356   4.416   3.194 -0.1185 -0.5476  0.1800
 3192TIP3    H1 9582   5.427   4.428   3.257  0.2088  0.1264 -0.3031
 3192TIP3    H2 9583   5.276   4.435   3.244  0.1542  0.2044  0.3392
 3193TIP3   OH2 9584   2.220   2.687   3.587  0.3535 -0.0373 -1.0127
 3193TIP3    H1 9585   2.152   2.743   3.624  1.8944 -0.5342  3.1286
 3193TIP3    H2 9586   2.296   2.745   3.577  0.9861 -0.6292  0.1402
 3194TIP3   OH2 9587   2.277   3.637   0.901  0.7560 -0.2043  0.0670
 3194TIP3    H1 9588   2.351   3.613   0.846  1.0719 -0.4549  0.5911
 3194TIP3    H2 9589   2.216   3.564   0.891  0.5343  0.0419 -0.4313
 3195TIP3   OH2 9590   4.109   3.931   0.714  0.3994 -0.1223 -0.0553
 3195TIP3    H1 9591   4.031   3.928   0.769  1.7869  1.3034  2.1161
 3195TIP3    H2 9592   4.159   3.854   0.741  0.8577  0.3115  0.3459
 3196TIP3   OH2 9593   4.346   4.349   2.881 -0.1932 -0.0679  0.5590
 3196TIP3    H1 9594   4.283   4.405   2.835 -0.7678  0.0554  1.4682
 3196TIP3    H2 9595   4.319   4.260   2.860  0.9373 -0.0615 -1.1857
 3197TIP3   OH2 9596   3.192   5.484   3.999 -0.4619 -0.2772  0.4437
 3197TIP3    H1 9597   3.267   5.464   4.055 -0.2503  0.8889  0.6130
 3197TIP3    H2 9598   3.116   5.449   4.045 -0.0722 -1.1573  0.4408
 3198TIP3   OH2 9599   1.213   2.928   0.186 -0.1380 -0.4401  0.3171
 3198TIP3    H1 9600   1.198   2.977   0.267 -0.5376 -0.4328  0.2403
 3198TIP3    H2 9601   1.221   2.837   0.214 -0.1756 -0.4252  0.3763
 3199TIP3   OH2 9602   5.134   1.494   1.766 -0.5143  0.4397 -0.2296
 3199TIP3    H1 9603   5.175   1.416   1.728  0.9736  0.8209  0.5144
 3199TIP3    H2 9604   5.125   1.555   1.693 -0.5497  0.0280 -0.5718
 3200TIP3   OH2 9605   1.271   4.632   2.263 -0.3149 -0.3041 -0.6241
 3200TIP3    H1 9606   1.323   4.600   2.189 -0.8837 -0.0034 -1.1631
 3200TIP3    H2 9607   1.316   4.711   2.291  1.1566 -1.5713  0.7791
 3201TIP3   OH2 9608   0.751   3.879   1.847 -0.2719  0.0589  0.2938
 3201TIP3    H1 9609   0.804   3.800   1.856  1.0934  0.9034 -0.1186
 3201TIP3    H2 9610   0.800   3.946   1.895 -1.1290  0.7922  0.1631
 3202TIP3   OH2 9611   4.616   0.388   0.168  0.3363  0.3839  0.3000
 3202TIP3    H1 9612   4.612   0.473   0.124 -2.0016 -0.6950 -1.7546
 3202TIP3    H2 9613   4.709   0.364   0.163  0.6848  1.8046 -1.0754
 3203TIP3   OH2 9614   0.183   0.790   3.193  0.2279  0.1803  0.0087
 3203TIP3    H1 9615   0.192   0.824   3.104  1.3456 -1.7082 -0.6574
 3203TIP3    H2 9616   0.089   0.775   3.202  0.1858 -0.5172 -1.2491
 3204TIP3   OH2 9617   2.826   2.195   2.846  0.7233  0.1668 -0.8467
 3204TIP3    H1 9618   2.917   2.170   2.830  1.0784  0.8665  0.0077
 3204TIP3    H2 9619   2.817   2.281   2.805 -0.4133 -1.0928 -3.5266
 3205TIP3   OH2 9620   2.125   1.302   4.615  0.1801 -0.9311  0.1776
 3205TIP3    H1 9621   2.051   1.257   4.656 -0.4925 -0.3476 -0.3696
 3205TIP3    H2 9622   2.088   1.383   4.580  0.7337 -1.3583 -1.4935
 3206TIP3   OH2 9623   5.769   4.260   2.806  0.1069  0.0624 -0.0414
 3206TIP3    H1 9624   5.739   4.248   2.716  0.3653  0.4191 -0.1780
 3206TIP3    H2 9625   5.747   4.178   2.850  0.0632 -0.1490 -0.4540
 3207TIP3   OH2 9626   2.147   1.547   1.775 -0.0432  0.1475  0.0354
 3207TIP3    H1 9627   2.140   1.452   1.790  1.8019 -0.0689 -0.2185
 3207TIP3    H2 9628   2.241   1.565   1.784 -0.2172  1.7533 -1.0854
 3208TIP3   OH2 9629   4.581   2.883   4.450  0.0674  0.4420  0.7617
 3208TIP3    H1 9630   4.596   2.869   4.543 -0.5897 -0.5503  0.7331
 3208TIP3    H2 9631   4.607   2.973   4.435  0.1724  0.6181  1.9077
 3209TIP3   OH2 9632   4.582   1.132   0.374 -0.6824 -0.1364  0.0998
 3209TIP3    H1 9633   4.616   1.161   0.289  0.1036 -0.0950  0.4240
 3209TIP3    H2 9634   4.486   1.139   0.365 -0.5794  3.1929  0.3682
 3210TIP3   OH2 9635   3.381   2.236   1.806 -0.2988  0.2569 -0.7186
 3210TIP3    H1 9636   3.384   2.260   1.714 -1.3004  0.1965 -0.7774
 3210TIP3    H2 9637   3.309   2.173   1.813 -0.2876  0.3186  0.1190
 3211TIP3   OH2 9638   5.533   5.580   1.309  0.1133 -0.4380  0.1211
 3211TIP3    H1 9639   5.486   5.566   1.227 -2.6411 -0.9333  1.6517
 3211TIP3    H2 9640   5.624   5.558   1.289 -0.4071 -0.2839 -2.8249
 3212TIP3   OH2 9641   3.291   0.426   0.169 -0.0130  0.4010 -0.3752
 3212TIP3    H1 9642   3.362   0.443   0.231 -0.5856  0.7326  0.1889
 3212TIP3    H2 9643   3.276   0.511   0.127  1.1511 -0.0598 -1.8193
 3213TIP3   OH2 9644   0.694   2.214   4.110  0.1856 -0.2993  0.0316
 3213TIP3    H1 9645   0.764   2.249   4.165 -0.3269  0.5761  0.1462
 3213TIP3    H2 9646   0.671   2.286   4.052 -0.7040 -0.5384  0.0766
 3214TIP3   OH2 9647   0.465   4.555   4.206  0.3694 -0.1015  0.0195
 3214TIP3    H1 9648   0.375   4.583   4.225 -1.1667 -3.5180 -1.3021
 3214TIP3    H2 9649   0.509   4.556   4.291 -1.0463  1.2168  0.7855
 3215TIP3   OH2 9650   4.216   0.728   4.552  0.0877  0.3396  0.3034
 3215TIP3    H1 9651   4.127   0.693   4.551 -0.2898  1.2094  1.6325
 3215TIP3    H2 9652   4.206   0.821   4.535  1.1260 -0.0926 -3.6096
 3216TIP3   OH2 9653   3.631   4.525   3.387 -0.1357  0.2709 -0.1857
 3216TIP3    H1 9654   3.639   4.521   3.482 -0.2096 -3.7349 -0.1767
 3216TIP3    H2 9655   3.720   4.539   3.356  0.2113 -0.3542  0.4882
 3217TIP3   OH2 9656   1.044   0.537   3.213  0.1278 -0.1777 -0.1166
 3217TIP3    H1 9657   1.118   0.516   3.271  0.8827  0.9101 -0.6505
 3217TIP3    H2 9658   1.084   0.549   3.127 -0.6638  0.5322 -0.3967
 3218TIP3   OH2 9659   4.577   2.575   2.022  0.4291  0.2309 -0.0857
 3218TIP3    H1 9660   4.584   2.579   2.117  0.0735  1.0411 -0.0864
 3218TIP3    H2 9661   4.639   2.642   1.991 -0.2154  0.6892 -0.3884
 3219TIP3   OH2 9662   4.092   2.601   3.742 -0.1580 -0.0580 -0.0892
 3219TIP3    H1 9663   4.112   2.645   3.659  2.7573 -0.3164  0.3545
 3219TIP3    H2 9664   4.143   2.650   3.808 -1.3206 -0.6900  1.3492
 3220TIP3   OH2 9665   4.868   3.681   4.581 -0.2418  0.2305  0.1643
 3220TIP3    H1 9666   4.811   3.608   4.556 -0.4456  0.6655 -0.6724
 3220TIP3    H2 9667   4.808   3.754   4.595  0.1433  0.8707 -1.3826
 3221TIP3   OH2 9668   2.108   5.274   2.563 -0.7024 -0.3957 -0.2144
 3221TIP3    H1 9669   2.139   5.358   2.527  0.5692 -0.4059  0.7883
 3221TIP3    H2 9670   2.171   5.210   2.530 -0.5792 -0.6697  0.5486
 3222TIP3   OH2 9671   3.429   2.234   0.563 -0.1516  0.7335 -0.8829
 3222TIP3    H1 9672   3.437   2.231   0.467 -1.5383  1.8197 -1.0658
 3222TIP3    H2 9673   3.416   2.326   0.583  0.1403  0.5172  0.3713
 3223TIP3   OH2 9674   4.267   2.813   3.783 -0.1653  0.0804 -0.4411
 3223TIP3    H1 9675   4.300   2.862   3.858  2.4065  0.6400 -1.8098
 3223TIP3    H2 9676   4.249   2.879   3.716  0.7865 -0.5817 -1.4013
 3224TIP3   OH2 9677   4.180   5.376   4.419  0.4695 -0.4102  0.4799
 3224TIP3    H1 9678   4.252   5.353   4.478  1.3966  0.6681 -0.1906
 3224TIP3    H2 9679   4.223   5.409   4.340 -0.7567 -1.7146 -0.7812
 3225TIP3   OH2 9680   2.426   5.212   3.159 -0.8580 -0.1837 -0.1292
 3225TIP3    H1 9681   2.397   5.248   3.243  0.0976  0.0929  0.0894
 3225TIP3    H2 9682   2.415   5.118   3.168  0.9856 -0.3414  1.0202
 3226TIP3   OH2 9683   3.339   1.284   3.213 -0.1427  0.0659  0.2559
 3226TIP3    H1 9684   3.271   1.318   3.271 -1.4182  0.0292 -1.1415
 3226TIP3    H2 9685   3.314   1.193   3.197  0.1931  0.0692 -0.3378
 3227TIP3   OH2 9686   0.446   4.929   2.744 -0.2882  0.0491 -0.6646
 3227TIP3    H1 9687   0.472   4.925   2.836  0.4517  0.2536 -0.8575
 3227TIP3    H2 9688   0.521   4.971   2.700  0.0267 -1.4311 -1.6070
 3228TIP3   OH2 9689   1.754   3.830   3.874  0.2664 -0.0259 -0.2789
 3228TIP3    H1 9690   1.773   3.892   3.944  0.5385 -0.0953 -0.2874
 3228TIP3    H2 9691   1.834   3.777   3.867  0.2337 -0.0316 -0.6245
 3229TIP3   OH2 9692   3.230   1.228   2.705 -0.2309  0.1680 -0.0001
 3229TIP3    H1 9693   3.176   1.286   2.652  0.6825  1.7854  0.7515
 3229TIP3    H2 9694   3.294   1.192   2.643  2.2703  3.7659  0.1685
 3230TIP3   OH2 9695   2.229   2.687   0.684  0.2819  0.8030  0.0756
 3230TIP3    H1 9696   2.282   2.635   0.624  2.7340  1.0720  1.8512
 3230TIP3    H2 9697   2.160   2.628   0.713  0.9385 -0.3312 -0.6205
 3231TIP3   OH2 9698   1.744   2.025   0.262 -0.9730 -0.4998 -0.2430
 3231TIP3    H1 9699   1.792   2.081   0.200  1.0188 -0.0662  1.5473
 3231TIP3    H2 9700   1.733   1.942   0.216 -0.0846 -0.0158 -1.4035
 3232TIP3   OH2 9701   0.377   5.438   3.546 -0.0138 -0.3015  0.8277
 3232TIP3    H1 9702   0.467   5.433   3.513 -0.4870  1.2990 -0.8473
 3232TIP3    H2 9703   0.325   5.396   3.478 -0.8665  1.8189  0.1025
 3233TIP3   OH2 9704   4.399   3.660   3.750 -0.3088  0.0372 -0.0624
 3233TIP3    H1 9705   4.473   3.693   3.699 -1.4672  2.4718 -0.3305
 3233TIP3    H2 9706   4.407   3.564   3.745  1.5542  0.2136 -1.9034
 3234TIP3   OH2 9707   2.507   5.440   0.078 -0.3441 -0.0895  0.5037
 3234TIP3    H1 9708   2.565   5.453   0.154 -0.1760  0.1044  0.3438
 3234TIP3    H2 9709   2.519   5.348   0.055  0.4037  0.1066  0.0716
 3235TIP3   OH2 9710   4.014   2.612   3.135  0.4463  0.1015  0.5968
 3235TIP3    H1 9711   3.937   2.654   3.098 -0.4983 -0.7165  1.5952
 3235TIP3    H2 9712   3.984   2.525   3.162  1.8281 -0.4077  0.5822
 3236TIP3   OH2 9713   3.605   1.871   0.519  0.8946 -0.3734 -0.1119
 3236TIP3    H1 9714   3.533   1.813   0.544  2.0111 -1.5010  0.6184
 3236TIP3    H2 9715   3.602   1.874   0.424 -1.4994  1.4448 -0.0461
 3237TIP3   OH2 9716   2.762   3.020   2.316 -0.5501 -0.8965 -0.5451
 3237TIP3    H1 9717   2.836   2.985   2.265  0.9887  0.5994  0.5546
 3237TIP3    H2 9718   2.733   3.096   2.266 -1.9291 -1.9143 -1.3784
 3238TIP3   OH2 9719   3.672   3.241   2.278  0.1169 -0.5933 -0.1181
 3238TIP3    H1 9720   3.640   3.329   2.299  1.7716 -0.0319  0.2128
 3238TIP3    H2 9721   3.599   3.183   2.299 -0.4375  0.5553  1.2840
 3239TIP3   OH2 9722   0.212   0.134   3.802  0.6359  0.0638 -0.2308
 3239TIP3    H1 9723   0.137   0.081   3.829  1.0521 -1.1635 -1.3711
 3239TIP3    H2 9724   0.280   0.114   3.865  1.0847 -1.5299 -1.1756
 3240TIP3   OH2 9725   6.136   0.735   4.244 -0.1977  0.1906 -0.2870
 3240TIP3    H1 9726   6.125   0.650   4.200 -0.8250  0.7322 -1.2165
 3240TIP3    H2 9727   6.118   0.800   4.176  0.9238  1.0883  0.2483
 3241TIP3   OH2 9728   4.679   1.253   0.128  0.1044 -0.2049 -0.2901
 3241TIP3    H1 9729   4.669   1.348   0.134  0.9823 -0.1716  0.8824
 3241TIP3    H2 9730   4.669   1.234   0.035  0.2534  1.0710 -0.5840
 3242TIP3   OH2 9731   2.383   4.182   5.139 -0.3627 -0.0262 -0.3369
 3242TIP3    H1 9732   2.420   4.123   5.205  0.4578  0.5940 -0.2351
 3242TIP3    H2 9733   2.452   4.247   5.123 -1.1151  0.6907 -0.7249
 3243TIP3   OH2 9734  -0.006   5.519   1.782 -0.2865  0.3663 -0.0259
 3243TIP3    H1 9735   0.056   5.549   1.849 -1.2617  0.1560  1.0022
 3243TIP3    H2 9736  -0.020   5.596   1.727 -0.3800  0.9181  0.7424
 3244TIP3   OH2 9737   3.360   2.015   4.159  0.0689  0.5406  0.3356
 3244TIP3    H1 9738   3.299   2.070   4.109  1.0599  0.5165 -0.9699
 3244TIP3    H2 9739   3.310   1.936   4.178 -0.8358  1.1847  0.7757
 3245TIP3   OH2 9740   3.443   4.952   1.069 -0.2531  0.4112 -0.7662
 3245TIP3    H1 9741   3.534   4.920   1.067 -0.3066 -0.0658  1.6043
 3245TIP3    H2 9742   3.410   4.924   1.154 -2.9986 -0.3551 -1.9607
 3246TIP3   OH2 9743   5.288   0.258   3.604  0.0758 -0.2426 -0.2769
 3246TIP3    H1 9744   5.219   0.196   3.629  0.1251 -0.5327 -0.8412
 3246TIP3    H2 9745   5.246   0.344   3.610 -0.0741 -0.3526  0.2476
 3247TIP3   OH2 9746   1.935   3.016   2.099 -0.4524 -0.3523 -0.1515
 3247TIP3    H1 9747   2.010   2.969   2.136 -1.1340 -3.1462 -1.9857
 3247TIP3    H2 9748   1.859   2.981   2.145 -1.0405 -1.7235 -2.0133
 3248TIP3   OH2 9749   0.313   2.547   2.942 -0.9003 -0.0867 -0.0444
 3248TIP3    H1 9750   0.242   2.508   2.891 -1.5781  0.8625  0.1490
 3248TIP3    H2 9751   0.287   2.638   2.952  0.2960  0.2426  0.1396
 3249TIP3   OH2 9752   3.894   3.288   4.306  0.4558 -0.0185  0.1043
 3249TIP3    H1 9753   3.960   3.314   4.241  0.1444  0.2679 -0.1023
 3249TIP3    H2 9754   3.865   3.202   4.276  0.1395  0.2190 -0.2732
 3250TIP3   OH2 9755   0.503   1.473   0.671  0.0959  0.0941  0.6620
 3250TIP3    H1 9756   0.583   1.451   0.624  0.3189 -0.3603  1.2379
 3250TIP3    H2 9757   0.532   1.491   0.761 -0.6534 -2.1073  1.4204
 3251TIP3   OH2 9758   5.658   1.003   5.028 -0.2143 -0.5781  0.0945
 3251TIP3    H1 9759   5.705   0.933   5.074  0.6702 -0.9043 -1.2419
 3251TIP3    H2 9760   5.605   0.957   4.963 -1.1962 -0.1062  0.5403
 3252TIP3   OH2 9761   5.402   3.784   4.735 -0.2517  0.5942 -0.2060
 3252TIP3    H1 9762   5.432   3.712   4.680  0.2511  1.6949 -1.4376
 3252TIP3    H2 9763   5.482   3.827   4.765 -0.5085 -0.1413  1.6517
 3253TIP3   OH2 9764   2.911   2.619   1.691  0.1080 -0.5361  0.1427
 3253TIP3    H1 9765   2.915   2.581   1.779  1.2308  0.0203  0.3491
 3253TIP3    H2 9766   3.003   2.629   1.665 -0.2093 -1.3164 -1.3694
 3254TIP3   OH2 9767   2.271   5.743   3.845  0.8772  0.3100  0.5851
 3254TIP3    H1 9768   2.264   5.833   3.816 -1.2545  0.2327  0.7128
 3254TIP3    H2 9769   2.270   5.748   3.941 -1.1776  0.1082  0.6241
 3255TIP3   OH2 9770   3.824   1.579   3.844  0.4204 -0.0501 -0.3061
 3255TIP3    H1 9771   3.865   1.587   3.758  2.1435  0.2017  0.4928
 3255TIP3    H2 9772   3.841   1.663   3.887  1.0905 -0.7604  0.8823
 3256TIP3   OH2 9773   0.388   4.875   2.417  0.2660 -0.1944  0.9085
 3256TIP3    H1 9774   0.435   4.838   2.342 -1.6218  0.0570 -0.4552
 3256TIP3    H2 9775   0.413   4.819   2.490 -0.4077 -2.5709 -0.5639
 3257TIP3   OH2 9776   1.470   4.362   3.133 -0.1047 -0.3672  0.0691
 3257TIP3    H1 9777   1.498   4.279   3.095 -1.8082 -0.9171 -0.0568
 3257TIP3    H2 9778   1.512   4.429   3.079  2.1131 -1.0733  0.7712
 3258TIP3   OH2 9779   3.663   3.980   3.251 -0.2738 -0.0984  0.3669
 3258TIP3    H1 9780   3.693   4.064   3.285 -0.8305  0.5964 -0.8206
 3258TIP3    H2 9781   3.736   3.948   3.198 -0.8158  0.6151 -0.8382
 3259TIP3   OH2 9782   5.579   1.593   4.854  0.0145 -0.7079 -0.1508
 3259TIP3    H1 9783   5.574   1.532   4.928  0.0527 -2.2820 -1.4024
 3259TIP3    H2 9784   5.537   1.546   4.781  1.5197  0.0772 -1.5839
 3260TIP3   OH2 9785   4.015   4.232   2.886  0.0570 -0.0442 -0.9260
 3260TIP3    H1 9786   4.054   4.315   2.856 -0.3516  0.0361 -1.2460
 3260TIP3    H2 9787   4.076   4.165   2.856  1.5034  0.2557  1.1727
 3261TIP3   OH2 9788   3.506   2.995   0.576  0.1407  0.1841  0.0018
 3261TIP3    H1 9789   3.566   2.993   0.501  0.4602  0.5095  0.2430
 3261TIP3    H2 9790   3.561   3.026   0.649  0.2653 -1.6850  0.7493
 3262TIP3   OH2 9791   1.463   3.509   0.661  0.1447  0.0010 -0.2800
 3262TIP3    H1 9792   1.381   3.520   0.708  0.4695  0.9525  0.0960
 3262TIP3    H2 9793   1.485   3.417   0.670 -0.8039 -0.2280 -0.2597
 3263TIP3   OH2 9794   5.415   0.326   0.960  0.2134 -0.0168 -0.1913
 3263TIP3    H1 9795   5.332   0.352   1.001  0.6650  0.9823  0.1104
 3263TIP3    H2 9796   5.482   0.349   1.024  0.9187  1.3695 -1.3580
 3264TIP3   OH2 9797   2.350   1.936   4.675  0.4758 -0.0521 -0.0295
 3264TIP3    H1 9798   2.354   1.851   4.630  1.2983 -0.3859  0.6568
 3264TIP3    H2 9799   2.403   1.994   4.620  0.7293 -0.2310  0.0232
 3265TIP3   OH2 9800   3.748   1.132   2.231 -0.3524  0.0433 -0.0680
 3265TIP3    H1 9801   3.775   1.134   2.139 -1.9960 -0.1228 -0.5832
 3265TIP3    H2 9802   3.774   1.045   2.262  1.4278  0.5704  0.0551
 3266TIP3   OH2 9803   0.231   4.593   3.215 -0.3086  0.0875 -0.3093
 3266TIP3    H1 9804   0.198   4.505   3.228  0.9514 -0.4222 -0.4194
 3266TIP3    H2 9805   0.153   4.649   3.219 -1.0912 -0.9941 -0.0201
 3267TIP3   OH2 9806   5.719   3.144   1.164  0.5134 -0.7889 -0.5529
 3267TIP3    H1 9807   5.746   3.144   1.072  1.8811 -0.2267 -0.1654
 3267TIP3    H2 9808   5.764   3.070   1.203  1.3098 -0.0223  0.0302
 3268TIP3   OH2 9809   4.552   3.407   2.084 -0.1908  0.0467  0.7536
 3268TIP3    H1 9810   4.615   3.476   2.104  1.0470 -0.9705  0.5127
 3268TIP3    H2 9811   4.604   3.339   2.041 -1.5934 -0.5354 -0.0886
 3269TIP3   OH2 9812   1.782   4.386   0.583 -0.0883 -0.5656 -0.0768
 3269TIP3    H1 9813   1.726   4.344   0.647  0.4621 -1.9750 -0.4752
 3269TIP3    H2 9814   1.812   4.466   0.625 -1.3365 -0.4566  0.6320
 3270TIP3   OH2 9815   0.534   2.374   0.768  0.1325  0.5037 -0.6005
 3270TIP3    H1 9816   0.445   2.341   0.758  0.2063 -0.8666  2.2110
 3270TIP3    H2 9817   0.589   2.307   0.726 -0.0518  0.0222 -0.0932
 3271TIP3   OH2 9818   4.782   0.329   2.882  0.4057 -0.5187 -0.7637
 3271TIP3    H1 9819   4.810   0.287   2.963  0.1730  0.7873  0.0131
 3271TIP3    H2 9820   4.863   0.352   2.837  0.5788  0.4539  0.0111
 3272TIP3   OH2 9821   3.108   4.731   5.146 -0.1683  0.3695  0.3026
 3272TIP3    H1 9822   3.124   4.824   5.162 -1.2405  0.2385  2.4439
 3272TIP3    H2 9823   3.014   4.720   5.160  0.0969 -1.1872  1.0501
 3273TIP3   OH2 9824   5.340   4.401   0.051 -0.0731 -0.1092  0.0527
 3273TIP3    H1 9825   5.374   4.417   0.140 -0.3417 -1.0242  0.3348
 3273TIP3    H2 9826   5.314   4.309   0.052 -1.4866  0.2663 -0.5212
 3274TIP3   OH2 9827   4.668   2.548   4.585  0.0368 -0.0597 -0.7074
 3274TIP3    H1 9828   4.645   2.628   4.632  0.4335 -0.1612 -0.3317
 3274TIP3    H2 9829   4.595   2.534   4.524 -2.2767 -1.8117  2.2071
 3275TIP3   OH2 9830   4.953   4.202   0.106 -0.2843  0.7785 -0.1523
 3275TIP3    H1 9831   4.904   4.281   0.130 -1.7023  0.0672 -0.5686
 3275TIP3    H2 9832   4.923   4.136   0.169 -2.5680 -0.5984 -2.4799
 3276TIP3   OH2 9833   3.260   0.913   3.609 -0.1267 -0.0022  0.1189
 3276TIP3    H1 9834   3.332   0.872   3.561 -0.0262  0.1372  0.1506
 3276TIP3    H2 9835   3.291   0.919   3.699  0.2626  1.0590 -0.0699
 3277TIP3   OH2 9836   4.280   4.744   3.238  0.7166 -0.3220 -0.0236
 3277TIP3    H1 9837   4.314   4.771   3.153  2.1328  0.3880  0.7244
 3277TIP3    H2 9838   4.357   4.710   3.284  0.2459  0.5055  1.4258
 3278TIP3   OH2 9839   5.783   2.085   1.205 -0.9178  0.5289  0.1141
 3278TIP3    H1 9840   5.765   1.999   1.243 -1.6900  0.1798 -0.9668
 3278TIP3    H2 9841   5.837   2.130   1.270 -0.8420 -0.6213  0.8747
 3279TIP3   OH2 9842   4.042   5.240   1.279  0.1664  0.4633  0.0347
 3279TIP3    H1 9843   4.130   5.224   1.245  0.0560  0.9960 -0.5102
 3279TIP3    H2 9844   4.029   5.171   1.345  1.1915  0.6933  0.5014
 3280TIP3   OH2 9845   2.702   3.339   0.929  0.4996  0.0012 -0.3253
 3280TIP3    H1 9846   2.760   3.414   0.940  1.2433 -0.4766 -0.8185
 3280TIP3    H2 9847   2.623   3.362   0.977  0.5232  1.2976 -0.8669
 3281TIP3   OH2 9848   5.542   2.814   1.721 -0.2803 -0.2696  0.2614
 3281TIP3    H1 9849   5.582   2.728   1.724 -0.3233 -0.2811  0.6352
 3281TIP3    H2 9850   5.448   2.797   1.722 -0.3282 -0.2754 -1.6202
 3282TIP3   OH2 9851   1.077   0.695   2.025 -0.7175  0.8884 -0.3833
 3282TIP3    H1 9852   0.996   0.665   2.066 -0.3560 -1.2928 -1.1278
 3282TIP3    H2 9853   1.051   0.720   1.936 -0.6967  0.9686 -0.3670
 3283TIP3   OH2 9854   4.824   1.061   2.305 -0.0068  0.4159  0.3218
 3283TIP3    H1 9855   4.781   1.091   2.385 -1.8689  0.4850 -0.6441
 3283TIP3    H2 9856   4.762   0.998   2.268  0.9807  0.1366 -0.9007
 3284TIP3   OH2 9857   3.429   5.366   4.511  0.3619  0.0338 -0.1380
 3284TIP3    H1 9858   3.429   5.428   4.584  1.6031  0.8091 -0.7569
 3284TIP3    H2 9859   3.492   5.403   4.448 -0.7435 -0.5418 -1.6483
 3285TIP3   OH2 9860   1.261   0.449   1.974 -0.6628  0.1484 -0.8362
 3285TIP3    H1 9861   1.233   0.425   2.063  1.2318  1.0140  0.0743
 3285TIP3    H2 9862   1.214   0.530   1.955 -1.0615 -0.0281 -0.5999
 3286TIP3   OH2 9863   6.317   3.620   3.271 -0.4371 -0.0951  0.4602
 3286TIP3    H1 9864   6.373   3.665   3.335 -0.1459  1.0092 -0.5312
 3286TIP3    H2 9865   6.309   3.531   3.305 -0.1365  0.4034  1.9272
 3287TIP3   OH2 9866   6.209   2.784   0.951 -0.1874 -0.4413 -0.1657
 3287TIP3    H1 9867   6.214   2.810   1.043 -1.2735  1.2699 -0.5460
 3287TIP3    H2 9868   6.128   2.734   0.944 -0.5288  0.1213 -0.3261
 3288TIP3   OH2 9869   0.149   5.334   4.791  0.5287 -0.2417  0.4933
 3288TIP3    H1 9870   0.215   5.268   4.809  0.1142 -1.4632 -2.0231
 3288TIP3    H2 9871   0.077   5.286   4.751  0.0612  1.6581 -1.1293
 3289TIP3   OH2 9872   5.381   0.446   1.947  0.3781  0.0374 -0.2349
 3289TIP3    H1 9873   5.383   0.357   1.912  0.3547 -0.1798  0.3128
 3289TIP3    H2 9874   5.298   0.452   1.994 -0.4986  0.9591 -1.8386
 3290TIP3   OH2 9875   6.192   2.552   4.201  0.2153 -0.1847 -0.5542
 3290TIP3    H1 9876   6.234   2.584   4.281 -0.3687 -0.3292 -0.1843
 3290TIP3    H2 9877   6.126   2.618   4.180  0.5892  0.0195 -1.1089
 3291TIP3   OH2 9878   3.540   1.272   0.419  0.3731 -0.1204 -0.6973
 3291TIP3    H1 9879   3.548   1.256   0.325 -0.4024 -1.9520 -0.4868
 3291TIP3    H2 9880   3.523   1.366   0.425 -2.2833 -0.3276 -2.6298
 3292TIP3   OH2 9881   4.711   4.263   3.558  0.8420 -0.2880 -0.3596
 3292TIP3    H1 9882   4.741   4.172   3.553  3.0526  0.2631  1.2451
 3292TIP3    H2 9883   4.790   4.313   3.579 -0.6389  1.7553  0.6779
 3293TIP3   OH2 9884   1.769   5.578   2.608 -0.1401 -0.0947 -0.0469
 3293TIP3    H1 9885   1.716   5.652   2.577  2.5380  1.8041 -0.4527
 3293TIP3    H2 9886   1.803   5.538   2.529  0.3263 -0.2768  0.2426
 3294TIP3   OH2 9887   2.808   4.423   2.453  0.4332 -0.0741 -0.1445
 3294TIP3    H1 9888   2.729   4.478   2.453  0.4308 -0.0699  0.4458
 3294TIP3    H2 9889   2.821   4.401   2.361  0.4600  0.9462 -0.4042
 3295TIP3   OH2 9890   2.530   1.731   3.756 -0.4468  0.1284 -0.2636
 3295TIP3    H1 9891   2.499   1.739   3.666 -0.3752  1.6016 -0.1945
 3295TIP3    H2 9892   2.504   1.643   3.784  0.3181 -0.6883 -1.9956
 3296TIP3   OH2 9893   4.136   4.762   0.587  0.3802  0.0526 -0.8296
 3296TIP3    H1 9894   4.179   4.776   0.503  1.1657 -0.5275 -0.5255
 3296TIP3    H2 9895   4.117   4.850   0.619 -0.6249  0.2766 -1.9548
 3297TIP3   OH2 9896   2.463   2.778   4.425  0.5168 -0.4948 -0.1155
 3297TIP3    H1 9897   2.530   2.841   4.397 -2.2396  1.7488 -2.2785
 3297TIP3    H2 9898   2.497   2.693   4.395  1.2460  0.8833 -3.7709
 3298TIP3   OH2 9899   4.253  -0.007   3.357  0.1550 -0.0022 -0.4187
 3298TIP3    H1 9900   4.306  -0.045   3.287 -1.2894  1.2579 -2.3382
 3298TIP3    H2 9901   4.265   0.088   3.346 -3.2246  0.4263 -1.7450
 3299TIP3   OH2 9902   6.102   1.216   3.673 -0.1260 -0.2811 -0.4108
 3299TIP3    H1 9903   6.078   1.204   3.581 -0.0293 -0.1695 -0.4514
 3299TIP3    H2 9904   6.148   1.300   3.675 -1.2415  0.3324 -0.0487
 3300TIP3   OH2 9905   2.710   2.071   0.072  0.4555  0.0663 -0.6557
 3300TIP3    H1 9906   2.762   2.104  -0.001 -0.8355  0.1235 -1.5851
 3300TIP3    H2 9907   2.693   1.979   0.049  3.7411 -1.3614  1.7390
 3301TIP3   OH2 9908   1.920   4.161   3.626  0.4369  0.1452 -0.0893
 3301TIP3    H1 9909   1.997   4.215   3.604  0.9645 -0.9054 -0.9204
 3301TIP3    H2 9910   1.954   4.095   3.686  0.2028 -0.3395 -0.4827
 3302TIP3   OH2 9911   2.715   4.554   3.746 -0.1040  0.5635  0.2224
 3302TIP3    H1 9912   2.805   4.552   3.714  0.0353 -0.6700  0.6407
 3302TIP3    H2 9913   2.664   4.587   3.672  0.5473  0.2576 -0.3782
 3303TIP3   OH2 9914   5.388   5.317   2.374 -0.4419 -0.2182 -0.2167
 3303TIP3    H1 9915   5.359   5.349   2.289  0.1484 -0.0300 -0.3517
 3303TIP3    H2 9916   5.309   5.284   2.416 -0.8574  0.3252 -0.5591
 3304TIP3   OH2 9917   5.721   2.853   4.244 -0.3148  0.0689 -0.3524
 3304TIP3    H1 9918   5.646   2.887   4.293 -1.1993  0.0630 -1.6213
 3304TIP3    H2 9919   5.795   2.906   4.273 -0.7725 -0.0162  1.0448
 3305TIP3   OH2 9920   0.080   3.655   4.349 -0.1237  0.3542 -0.0591
 3305TIP3    H1 9921   0.109   3.744   4.329  0.3223  0.4582  0.9545
 3305TIP3    H2 9922   0.005   3.666   4.407 -0.0473  0.0757  0.0984
 3306TIP3   OH2 9923   4.825   3.074   2.487 -0.3519 -0.3965  0.8757
 3306TIP3    H1 9924   4.821   3.106   2.397  0.7071  1.4700  1.4572
 3306TIP3    H2 9925   4.736   3.087   2.521  0.0859  2.2805  1.1604
 3307TIP3   OH2 9926   5.347   4.367   1.854  0.3861  0.0025 -0.1557
 3307TIP3    H1 9927   5.387   4.404   1.933  0.4960 -0.3639 -0.0375
 3307TIP3    H2 9928   5.284   4.303   1.887  1.0437 -0.7721 -0.3747
 3308TIP3   OH2 9929   0.106   0.433   3.635  0.1226  0.3439 -0.6738
 3308TIP3    H1 9930   0.174   0.408   3.697  0.8363 -2.7368 -2.5262
 3308TIP3    H2 9931   0.153   0.476   3.563 -0.0969 -0.2561 -1.1832
 3309TIP3   OH2 9932   3.139   1.514   4.977  0.2580  0.2551 -0.7811
 3309TIP3    H1 9933   3.158   1.475   5.062  1.2747  1.5112 -0.3897
 3309TIP3    H2 9934   3.211   1.487   4.920 -0.1769 -0.2046 -1.1236
 3310TIP3   OH2 9935   0.725   3.518   5.047  0.5723 -0.1801 -0.2125
 3310TIP3    H1 9936   0.807   3.507   5.095  0.4329  0.2221  0.1214
 3310TIP3    H2 9937   0.726   3.448   4.981  0.0762 -1.6959  1.3107
 3311TIP3   OH2 9938   2.634   1.077   0.587 -0.1188 -0.1403 -0.3191
 3311TIP3    H1 9939   2.569   1.137   0.625 -1.2294 -0.4922 -1.5744
 3311TIP3    H2 9940   2.709   1.133   0.567  0.3967  0.1135  2.0186
 3312TIP3   OH2 9941   2.168   5.260   4.379 -0.0655 -0.7431  0.6932
 3312TIP3    H1 9942   2.161   5.233   4.287  0.3546 -0.7480  0.6584
 3312TIP3    H2 9943   2.119   5.342   4.384  2.3074  0.8413 -0.2217
 3313TIP3   OH2 9944   1.143   0.388   4.950  0.3003  0.2655  1.0137
 3313TIP3    H1 9945   1.163   0.463   5.006 -0.6332  0.8881  0.5326
 3313TIP3    H2 9946   1.125   0.317   5.012  1.1684  0.4343  1.4714
 3314TIP3   OH2 9947   3.650   5.011   3.561 -0.5012  0.1330  0.0248
 3314TIP3    H1 9948   3.577   4.949   3.560 -1.0493  0.7511 -2.0889
 3314TIP3    H2 9949   3.670   5.027   3.469  1.1656  1.3260  0.5462
 3315TIP3   OH2 9950   1.321   3.219   3.663 -0.1096 -0.7322 -0.0993
 3315TIP3    H1 9951   1.302   3.311   3.681  1.6679 -0.5405  1.0590
 3315TIP3    H2 9952   1.404   3.219   3.616  0.5422 -1.7636  0.9726
 3316TIP3   OH2 9953   5.137   4.177   5.039 -0.4143  0.1144 -0.0070
 3316TIP3    H1 9954   5.226   4.152   5.061 -1.0914 -2.4069  0.1151
 3316TIP3    H2 9955   5.113   4.242   5.105  0.6461 -0.6927  1.1982
 3317TIP3   OH2 9956   0.369   5.648   4.258 -0.4903 -0.3312  0.3547
 3317TIP3    H1 9957   0.316   5.716   4.300 -2.7335 -0.9381 -1.3540
 3317TIP3    H2 9958   0.310   5.574   4.246  0.9645 -1.3564 -0.9355
 3318TIP3   OH2 9959   2.744   3.307   3.972  0.0885 -0.2478  0.0387
 3318TIP3    H1 9960   2.823   3.293   3.919 -0.6310  1.0328 -1.4570
 3318TIP3    H2 9961   2.719   3.398   3.954 -2.8355 -1.1700 -1.1587
 3319TIP3   OH2 9962   1.932   0.313   2.855 -0.0425  0.1375 -0.0085
 3319TIP3    H1 9963   1.971   0.244   2.801  1.6050  1.1410 -0.1751
 3319TIP3    H2 9964   1.853   0.340   2.807  0.9106  0.4034 -1.5068
 3320TIP3   OH2 9965   2.159   4.707   3.857  0.0930  0.3068  0.3703
 3320TIP3    H1 9966   2.160   4.794   3.898  1.5707  0.0900  0.8400
 3320TIP3    H2 9967   2.093   4.658   3.906 -0.2065  0.9288  0.5990
 3321TIP3   OH2 9968   3.609   5.817   3.336 -0.2938 -0.1280  0.0691
 3321TIP3    H1 9969   3.614   5.749   3.268 -0.2443 -0.5888  0.5275
 3321TIP3    H2 9970   3.593   5.898   3.287  0.0755 -0.4002 -0.5187
 3322TIP3   OH2 9971   6.326   0.704   5.114  0.0546  0.0244 -0.2795
 3322TIP3    H1 9972   6.306   0.660   5.031 -1.8290 -0.7605  0.5330
 3322TIP3    H2 9973   6.317   0.797   5.094  0.9541 -0.0765 -1.2604
 3323TIP3   OH2 9974   3.406   2.762   0.766 -0.4326  0.0528  0.5675
 3323TIP3    H1 9975   3.432   2.802   0.683  1.0748 -1.2637  0.3642
 3323TIP3    H2 9976   3.397   2.836   0.827 -0.6823  0.9446 -0.5302
 3324TIP3   OH2 9977   1.012   3.256   4.448  0.3289  0.4217  0.1574
 3324TIP3    H1 9978   0.930   3.271   4.495  0.3234 -2.6227  1.3413
 3324TIP3    H2 9979   0.986   3.205   4.371  0.9305  0.8500 -0.3307
 3325TIP3   OH2 9980   4.635   0.826   0.189 -0.2640 -0.0947 -0.3132
 3325TIP3    H1 9981   4.618   0.790   0.275 -1.2919  0.2272 -0.3639
 3325TIP3    H2 9982   4.562   0.887   0.174 -0.2830 -0.3928 -1.5355
 3326TIP3   OH2 9983   0.188   4.053   1.553 -0.0618  0.2423  0.8294
 3326TIP3    H1 9984   0.266   4.059   1.608  0.9754  0.3280 -0.6028
 3326TIP3    H2 9985   0.134   3.986   1.595  0.8532  0.0707  1.7626
 3327TIP3   OH2 9986   0.903   3.760   2.117 -0.5549  0.0319  0.0499
 3327TIP3    H1 9987   0.935   3.834   2.169 -0.7182 -0.8758  1.4907
 3327TIP3    H2 9988   0.961   3.688   2.140  0.8930  0.1489 -2.8739
 3328TIP3   OH2 9989   2.345   0.536   1.891 -0.0958 -0.4613  0.4516
 3328TIP3    H1 9990   2.429   0.539   1.937  0.8036 -1.5553 -1.0291
 3328TIP3    H2 9991   2.358   0.588   1.812 -1.5971  1.3363  1.2964
 3329TIP3   OH2 9992   4.760   5.088   1.863 -0.3612  0.0783  0.0191
 3329TIP3    H1 9993   4.828   5.088   1.796 -0.0912 -0.4125  0.2863
 3329TIP3    H2 9994   4.716   5.003   1.853 -2.1376  1.0834 -1.3381
 3330TIP3   OH2 9995   1.299   3.513   0.361  0.3837  0.5795  0.5678
 3330TIP3    H1 9996   1.346   3.534   0.441  0.5044  1.9269  0.1741
 3330TIP3    H2 9997   1.297   3.595   0.312 -2.6930  0.7180  0.7047
 3331TIP3   OH2 9998   4.369   3.685   4.084 -0.6969 -0.2508  0.1205
 3331TIP3    H1 9999   4.420   3.731   4.017 -1.2068 -0.5933 -0.5300
 3331TIP3    H210000   4.303   3.748   4.111  0.3081  0.3355  1.2681
 3332TIP3   OH210001   1.639   1.021   1.514 -0.1545 -0.2237 -0.0091
 3332TIP3    H110002   1.674   0.939   1.479  0.2345  0.1266 -0.4605
 3332TIP3    H210003   1.614   1.001   1.604 -0.3374 -0.9143 -0.2057
 3333TIP3   OH210004   1.332   5.498   3.774 -0.2755  0.5497 -0.5336
 3333TIP3    H110005   1.342   5.480   3.681  0.4688 -1.3992 -0.1126
 3333TIP3    H210006   1.338   5.412   3.816 -3.2703  1.0247  1.1152
 3334TIP3   OH210007   4.180   1.306   0.746 -0.5186  0.5963 -0.0068
 3334TIP3    H110008   4.168   1.231   0.687  1.1380  0.1512  0.2006
 3334TIP3    H210009   4.208   1.377   0.688 -0.4896  0.6168  0.0331
 3335TIP3   OH210010   4.484   1.536   4.376  0.0685 -0.0013  0.4910
 3335TIP3    H110011   4.550   1.502   4.436  0.8030  0.6815  0.0937
 3335TIP3    H210012   4.503   1.630   4.369 -0.2283  0.0024 -0.5136
 3336TIP3   OH210013   4.426   4.331   4.900  0.4841 -0.2740  0.0369
 3336TIP3    H110014   4.514   4.340   4.863  0.6385  0.1340  0.4871
 3336TIP3    H210015   4.440   4.286   4.983  0.2458 -0.3808  0.0175
 3337TIP3   OH210016   0.228   3.085   4.137  0.3904  0.0548 -0.5340
 3337TIP3    H110017   0.223   3.181   4.147  0.5937  0.3226 -2.5731
 3337TIP3    H210018   0.315   3.069   4.101  0.7885 -1.0482  0.8470
 3338TIP3   OH210019   3.458   1.514   4.323  0.3960 -0.3074 -0.4703
 3338TIP3    H110020   3.363   1.527   4.330  0.3700  0.0494 -1.3543
 3338TIP3    H210021   3.496   1.599   4.346  0.5126 -0.4954  0.0418
 3339TIP3   OH210022   4.320   1.839   0.031  0.0554  0.6052  0.1748
 3339TIP3    H110023   4.355   1.907  -0.028  0.2886  1.1046  0.8816
 3339TIP3    H210024   4.383   1.836   0.103  0.3832 -0.7950 -0.1295
 3340TIP3   OH210025   1.331   1.644   3.007  0.2156  0.4588 -0.6174
 3340TIP3    H110026   1.283   1.566   2.978  0.3476  0.8002 -1.7828
 3340TIP3    H210027   1.292   1.716   2.958  0.8764  0.9649 -0.4133
 3341TIP3   OH210028   2.367   0.800   0.481  0.1205 -0.2156 -0.4274
 3341TIP3    H110029   2.372   0.818   0.575  1.6073 -2.4347 -0.0192
 3341TIP3    H210030   2.423   0.866   0.441  1.3089 -0.6240  0.4975
 3342TIP3   OH210031   2.872   5.250   2.439 -0.2272  0.5085  0.4118
 3342TIP3    H110032   2.943   5.260   2.503  1.1356  0.9694 -1.0915
 3342TIP3    H210033   2.808   5.316   2.464 -0.4775 -0.3742  2.2190
 3343TIP3   OH210034   5.790   3.728   1.761  0.2810  0.1452 -0.4263
 3343TIP3    H110035   5.707   3.726   1.714  0.2763  0.4036 -0.4304
 3343TIP3    H210036   5.767   3.712   1.852  0.2771 -0.2388 -0.4925
 3344TIP3   OH210037   4.820   4.315   2.490  0.4299 -0.0117  0.6183
 3344TIP3    H110038   4.891   4.310   2.554 -0.1557  1.0104  1.3688
 3344TIP3    H210039   4.742   4.335   2.542 -0.2526 -0.2028 -0.3026
 3345TIP3   OH210040   5.754   5.217   4.765 -0.0101 -0.0363 -0.5204
 3345TIP3    H110041   5.774   5.234   4.673  2.0395  1.5153  0.1208
 3345TIP3    H210042   5.830   5.168   4.796 -0.9333 -1.0150  0.2487
 3346TIP3   OH210043   3.519   4.300   0.989 -0.1304 -0.0832  0.3388
 3346TIP3    H110044   3.447   4.362   0.988  1.0479  1.3491 -0.9541
 3346TIP3    H210045   3.525   4.271   1.080 -2.1590 -0.0873  0.5134
 3347TIP3   OH210046   4.162   5.040   4.815  0.1727 -0.3055 -0.9004
 3347TIP3    H110047   4.242   4.993   4.839 -0.2364 -0.1718  0.8707
 3347TIP3    H210048   4.182   5.132   4.831 -0.2832 -0.2587 -0.5795
 3348TIP3   OH210049   4.992   5.147   2.902 -0.0107 -0.1854 -0.2786
 3348TIP3    H110050   4.961   5.235   2.925  0.1094 -0.3985  0.7361
 3348TIP3    H210051   5.047   5.121   2.976  1.1692 -0.5259 -1.2561
 3349TIP3   OH210052   6.190   4.082   0.870 -1.1273 -0.2427  0.1794
 3349TIP3    H110053   6.170   3.991   0.891  0.3531 -0.2167  1.9269
 3349TIP3    H210054   6.167   4.131   0.949 -2.5420  1.0512 -0.9609
 3350TIP3   OH210055   2.544   1.521   4.618 -0.1664  0.8524 -0.1435
 3350TIP3    H110056   2.470   1.549   4.564 -1.0489  0.3224  0.7377
 3350TIP3    H210057   2.513   1.439   4.658  1.6810 -0.5074 -1.3482
 3351TIP3   OH210058   0.595   1.264   3.308 -0.4061  0.0517  0.0287
 3351TIP3    H110059   0.501   1.271   3.320 -0.3852  0.6258 -0.1172
 3351TIP3    H210060   0.625   1.213   3.384 -0.6415  1.1487  0.8772
 3352TIP3   OH210061   3.919   4.838   3.601 -0.7311  0.5052  0.6364
 3352TIP3    H110062   3.976   4.868   3.672 -1.4966  1.9492  0.6810
 3352TIP3    H210063   3.843   4.800   3.645 -0.0598 -1.0156  0.5715
 3353TIP3   OH210064   5.617   1.058   0.502 -0.1902 -0.2387 -0.4014
 3353TIP3    H110065   5.687   1.062   0.567  0.2675 -1.0339 -0.8427
 3353TIP3    H210066   5.658   1.087   0.420 -0.0986 -1.6528 -0.8800
 3354TIP3   OH210067   4.467   4.957   0.539  0.6585  0.0660 -0.0391
 3354TIP3    H110068   4.385   4.986   0.499  0.5600  0.6255  0.5522
 3354TIP3    H210069   4.491   4.878   0.491  0.4476  0.6211 -1.0870
 3355TIP3   OH210070   2.669   2.122   3.820  0.0471 -0.2390  0.4136
 3355TIP3    H110071   2.654   2.141   3.913  0.2443  0.7685  0.2533
 3355TIP3    H210072   2.626   2.194   3.773  0.1397 -0.6181 -0.2616
 3356TIP3   OH210073   4.928   3.139   1.406  0.2301 -0.7013  0.5925
 3356TIP3    H110074   5.015   3.101   1.394  0.8279  0.8249 -0.1333
 3356TIP3    H210075   4.882   3.122   1.324  0.1886 -0.6227  0.5993
 3357TIP3   OH210076   6.214   1.562   4.366  0.0239  0.4201  0.5281
 3357TIP3    H110077   6.308   1.564   4.386  0.0442 -0.5326  0.6006
 3357TIP3    H210078   6.175   1.514   4.439 -0.5242  0.7975  0.4893
 3358TIP3   OH210079   4.166   4.113   5.080  0.1003 -0.4128  0.6202
 3358TIP3    H110080   4.255   4.135   5.107 -0.2246 -0.0079  1.4371
 3358TIP3    H210081   4.176   4.061   5.001  0.9922  1.2340 -0.3922
 3359TIP3   OH210082   2.684   3.187   2.121 -0.8162 -0.7168 -0.0326
 3359TIP3    H110083   2.651   3.110   2.074 -1.0816 -0.4374 -0.3055
 3359TIP3    H210084   2.747   3.226   2.060 -1.2198 -0.3084 -0.1986
 3360TIP3   OH210085   3.004   5.386   4.844 -0.0798  0.0076  0.2102
 3360TIP3    H110086   3.072   5.425   4.898  0.9223 -0.8014 -0.4270
 3360TIP3    H210087   3.021   5.419   4.756 -0.8054  0.1642  0.1198
 3361TIP3   OH210088   3.962   0.591   1.673  0.0560  0.3594  0.6031
 3361TIP3    H110089   4.037   0.540   1.643  1.2799  2.8343 -0.8600
 3361TIP3    H210090   3.899   0.525   1.703  0.7322 -2.1692 -2.8502
 3362TIP3   OH210091   5.348   2.627   1.446 -0.5078 -0.1671  0.4248
 3362TIP3    H110092   5.390   2.627   1.360  0.1469 -0.7821  0.7308
 3362TIP3    H210093   5.421   2.619   1.508 -1.0864 -1.4816  0.9713
 3363TIP3   OH210094   5.920   4.552   1.603  0.2727  0.2632 -0.3363
 3363TIP3    H110095   5.894   4.473   1.650  0.7139 -0.0811 -0.6622
 3363TIP3    H210096   5.915   4.622   1.668 -1.1240  0.1515 -0.2972
 3364TIP3   OH210097   4.823   5.198   4.503 -0.3094 -0.1577  0.1767
 3364TIP3    H110098   4.903   5.173   4.455 -0.3202 -1.5479  0.8285
 3364TIP3    H210099   4.822   5.293   4.499  1.4168 -0.1031  0.1860
 3365TIP3   OH210100   1.198   1.039   0.234  0.0649  0.1130 -0.6178
 3365TIP3    H110101   1.239   1.116   0.195 -0.0958 -0.0552 -1.1256
 3365TIP3    H210102   1.141   1.004   0.166 -0.8039  0.2392  0.0258
 3366TIP3   OH210103   5.248   3.709   2.017 -0.8223 -0.3496  0.2279
 3366TIP3    H110104   5.242   3.765   1.940  1.5196 -1.3056 -0.7416
 3366TIP3    H210105   5.280   3.767   2.087 -0.7427  0.0435 -0.1301
 3367TIP3   OH210106   1.378   0.823   3.471 -0.2014  0.7044 -0.1811
 3367TIP3    H110107   1.426   0.889   3.422  0.2757 -0.0752 -0.7899
 3367TIP3    H210108   1.444   0.781   3.526 -0.5613  0.9364  0.4441
 3368TIP3   OH210109   3.166   5.459   0.288 -0.7206  0.7384  0.4660
 3368TIP3    H110110   3.103   5.394   0.320 -0.6623  1.1134  1.3898
 3368TIP3    H210111   3.128   5.543   0.312  0.2706  0.9611  1.3363
 3369TIP3   OH210112   1.349   5.389   3.512  0.1904  0.0131 -0.0200
 3369TIP3    H110113   1.432   5.370   3.468  0.1106  0.7795 -0.5240
 3369TIP3    H210114   1.324   5.476   3.481 -1.0608 -0.4072 -0.2650
 3370TIP3   OH210115   4.132   5.357   3.386 -0.2552  0.8739 -0.5576
 3370TIP3    H110116   4.079   5.279   3.370 -1.0340  1.4186 -0.6949
 3370TIP3    H210117   4.135   5.402   3.302  1.3700  0.2960 -0.8371
 3371TIP3   OH210118   0.104   4.822   2.464 -0.0742  0.1665  0.3994
 3371TIP3    H110119   0.063   4.885   2.524 -0.8652  1.0697 -1.0425
 3371TIP3    H210120   0.184   4.866   2.434 -0.6319  0.5015 -0.6187
 3372TIP3   OH210121   3.380   4.960   3.741 -0.2847 -0.2114  0.6850
 3372TIP3    H110122   3.432   4.916   3.675 -1.9797  0.5756 -1.2768
 3372TIP3    H210123   3.373   5.051   3.711 -2.1442 -0.1189  1.2322
 3373TIP3   OH210124   0.234   3.278   0.612 -0.4348  0.2111 -0.0186
 3373TIP3    H110125   0.197   3.295   0.526 -1.3544 -1.5968 -0.0352
 3373TIP3    H210126   0.292   3.202   0.599 -1.3312 -0.7099  1.0763
 3374TIP3   OH210127   3.554   1.220   0.147  0.1795  0.3812  0.1413
 3374TIP3    H110128   3.548   1.276   0.069 -0.0286  0.1567 -0.0054
 3374TIP3    H210129   3.531   1.132   0.115  1.9164 -0.0745  0.0566
 3375TIP3   OH210130   5.580   0.244   3.032 -0.4264 -0.1517  0.0049
 3375TIP3    H110131   5.553   0.278   3.118  0.0552 -1.0803  0.5496
 3375TIP3    H210132   5.642   0.309   2.999 -1.4112  0.7450 -0.1364
 3376TIP3   OH210133   3.192   3.197  -0.022 -0.6160  0.0609  0.2251
 3376TIP3    H110134   3.159   3.259   0.042  1.2755  0.3238  0.9837
 3376TIP3    H210135   3.239   3.131   0.029 -1.0377 -1.0139 -0.7139
 3377TIP3   OH210136   1.180   1.226   1.142 -0.1178  0.0294  0.4464
 3377TIP3    H110137   1.226   1.267   1.068  0.1643  0.0032  0.6079
 3377TIP3    H210138   1.091   1.213   1.110  0.6393 -2.5100 -0.8908
 3378TIP3   OH210139   5.939   0.016   0.713 -0.1002  0.2873  0.3692
 3378TIP3    H110140   5.845  -0.001   0.705 -0.1726  0.8335 -0.0215
 3378TIP3    H210141   5.944   0.110   0.734  0.3561  0.2488  0.4424
 3379TIP3   OH210142   4.701   0.044   0.311 -0.2750 -0.2808  0.3217
 3379TIP3    H110143   4.707   0.036   0.216 -0.6204  2.4256 -0.0113
 3379TIP3    H210144   4.780   0.001   0.344 -0.5711 -2.0214 -1.0811
 3380TIP3   OH210145   4.182   2.487   4.873  0.4156 -0.0237  0.0597
 3380TIP3    H110146   4.144   2.423   4.813  1.5871 -1.1878  0.5231
 3380TIP3    H210147   4.270   2.455   4.890  0.5519  0.9806  1.3958
 3381TIP3   OH210148   2.709   2.642   4.182  0.1517 -0.2695 -0.1727
 3381TIP3    H110149   2.624   2.611   4.150 -0.8117  0.7422  1.2279
 3381TIP3    H210150   2.712   2.612   4.273  0.9959  0.2769 -0.0136
 3382TIP3   OH210151   3.464   4.599   1.822  0.1141 -0.5525 -0.1911
 3382TIP3    H110152   3.519   4.534   1.866 -1.4776 -1.6791  0.2551
 3382TIP3    H210153   3.491   4.683   1.860 -0.6060 -1.3895  2.4413
 3383TIP3   OH210154   2.656   1.720   1.468 -0.2281  0.1161  0.1739
 3383TIP3    H110155   2.694   1.786   1.411  0.0057  0.4851  0.7434
 3383TIP3    H210156   2.678   1.637   1.427  3.0703  0.1740  1.5015
 3384TIP3   OH210157   5.745   5.312   4.289  0.1088 -0.3124 -0.4575
 3384TIP3    H110158   5.722   5.353   4.373  1.9987 -0.3404  0.1283
 3384TIP3    H210159   5.690   5.235   4.284 -1.4896  0.7716 -0.2220
 3385TIP3   OH210160   3.826   1.855   1.485 -0.3367  0.3932  0.0355
 3385TIP3    H110161   3.865   1.904   1.557 -0.8069  1.8062 -0.6400
 3385TIP3    H210162   3.866   1.892   1.407 -0.7241 -0.2963 -0.4958
 3386TIP3   OH210163   4.318   5.250   2.986 -0.4875 -0.1491 -0.8811
 3386TIP3    H110164   4.280   5.325   2.940 -0.6719  0.1257 -0.2879
 3386TIP3    H210165   4.269   5.245   3.068  0.8220  0.2858 -0.0446
 3387TIP3   OH210166   6.289   3.460   2.109 -0.6360 -0.2136  0.1997
 3387TIP3    H110167   6.221   3.506   2.158 -0.5812 -0.8199  0.8636
 3387TIP3    H210168   6.249   3.376   2.085 -0.0311 -0.7178  0.8881
 3388TIP3   OH210169   3.116   5.653   1.821  0.1210 -0.2237 -0.3821
 3388TIP3    H110170   3.156   5.581   1.772  2.0094 -0.0445  0.7665
 3388TIP3    H210171   3.033   5.618   1.852  0.5032 -1.5330 -0.7639
 3389TIP3   OH210172   3.791   3.409   2.676 -0.0135  0.6113  0.5564
 3389TIP3    H110173   3.719   3.346   2.669 -0.7339  1.5756 -1.7290
 3389TIP3    H210174   3.831   3.391   2.761 -0.6097 -2.4311  0.2823
 3390TIP3   OH210175   3.708   4.057   1.233  0.8688  0.1969 -0.1731
 3390TIP3    H110176   3.764   4.079   1.159  3.2308  0.0532  1.4755
 3390TIP3    H210177   3.731   3.966   1.255 -0.0293  0.1214  0.5632
 3391TIP3   OH210178   0.867   0.599   2.166 -0.1465  0.5074 -0.2245
 3391TIP3    H110179   0.836   0.689   2.174 -3.1220 -0.4279  0.1051
 3391TIP3    H210180   0.831   0.554   2.243  1.3158 -0.9886 -0.3349
 3392TIP3   OH210181   6.290   1.549   2.160  0.1897 -0.4165 -0.6801
 3392TIP3    H110182   6.293   1.643   2.138 -2.2219 -0.2770 -0.6883
 3392TIP3    H210183   6.359   1.537   2.225  0.3435  1.4240 -0.4554
 3393TIP3   OH210184   5.080   5.602   3.493 -0.2027 -0.1090 -0.0460
 3393TIP3    H110185   5.173   5.620   3.476 -0.2389 -1.4854 -1.9743
 3393TIP3    H210186   5.037   5.687   3.484  0.4729  0.0398 -2.3499
 3394TIP3   OH210187   6.052   1.202   2.283  0.4759  0.5248 -0.5301
 3394TIP3    H110188   6.089   1.141   2.219  1.1525 -1.0995  1.2990
 3394TIP3    H210189   6.128   1.249   2.317  0.5318 -0.5618  0.9620
 3395TIP3   OH210190   5.336   4.666   4.027 -0.4450 -0.2656 -0.1117
 3395TIP3    H110191   5.406   4.690   3.967 -0.2336  1.5390  0.7903
 3395TIP3    H210192   5.259   4.653   3.972 -0.7597  3.2465 -0.7370
 3396TIP3   OH210193   3.861   2.685   4.256  0.4275 -0.1111  0.1566
 3396TIP3    H110194   3.848   2.761   4.313 -0.9782  0.0602 -0.3388
 3396TIP3    H210195   3.900   2.722   4.177 -0.6335  0.2040 -0.2493
 3397TIP3   OH210196   4.860   3.917   1.226  0.2084 -0.5793 -0.3572
 3397TIP3    H110197   4.802   3.975   1.176  0.5115 -0.5091 -0.6257
 3397TIP3    H210198   4.848   3.831   1.187  0.3512 -0.5484 -0.4676
 3398TIP3   OH210199   0.052   1.168   0.968 -0.2518  0.4342  0.0153
 3398TIP3    H110200   0.087   1.099   0.911 -1.0149  1.0171 -1.2019
 3398TIP3    H210201   0.068   1.136   1.057  1.7266 -0.1264 -0.4975
 3399TIP3   OH210202   4.545   4.173   2.451  0.0391  0.1027 -0.0615
 3399TIP3    H110203   4.627   4.187   2.404  0.7992  1.1586  1.4987
 3399TIP3    H210204   4.541   4.244   2.515 -0.2397 -1.9924  2.3998
 3400TIP3   OH210205   2.973   1.967   1.070  0.2489  0.7113 -0.1173
 3400TIP3    H110206   2.919   1.916   1.010  1.0727 -1.5234  0.9205
 3400TIP3    H210207   2.981   2.053   1.029 -0.5181 -0.2384 -2.3934
 3401TIP3   OH210208   3.919   3.901   0.267  0.0789 -0.1688 -0.1823
 3401TIP3    H110209   3.988   3.907   0.200  1.1673 -0.5646  0.8654
 3401TIP3    H210210   3.955   3.948   0.342 -0.0560 -1.8020  0.9577
 3402TIP3   OH210211   2.968   5.334   0.783  0.1535  0.2979  0.4698
 3402TIP3    H110212   2.893   5.327   0.725 -0.3729  0.5730  1.1128
 3402TIP3    H210213   2.995   5.243   0.799 -0.1262  0.1952  0.3487
 3403TIP3   OH210214   0.738   4.946   2.581  0.0447  0.5985 -0.0989
 3403TIP3    H110215   0.763   5.006   2.511  2.4483 -0.4051 -0.1935
 3403TIP3    H210216   0.787   4.866   2.562  0.5151  0.1833  2.5666
 3404TIP3   OH210217   4.690   2.191   3.526  0.0032 -0.0393 -0.0358
 3404TIP3    H110218   4.750   2.253   3.483  2.0646 -2.0140 -0.1919
 3404TIP3    H210219   4.605   2.208   3.486  1.4161 -0.4450 -3.5167
 3405TIP3   OH210220   0.840   1.943   3.671 -0.2973  0.0219 -0.1565
 3405TIP3    H110221   0.848   1.879   3.601  0.8566  0.0557 -0.0723
 3405TIP3    H210222   0.869   1.897   3.749  1.1205  0.7799 -0.1903
 3406TIP3   OH210223   0.532   4.318   0.651  0.0244  0.2291 -0.4043
 3406TIP3    H110224   0.488   4.270   0.722  0.3749  0.3036 -0.1348
 3406TIP3    H210225   0.563   4.250   0.591 -1.4227  0.2065 -1.1862
 3407TIP3   OH210226   3.492   0.327   0.572  0.0357 -0.0093 -0.3848
 3407TIP3    H110227   3.518   0.318   0.664 -0.6332  1.8510  0.0229
 3407TIP3    H210228   3.421   0.264   0.561  0.9413 -1.1450 -0.0080
 3408TIP3   OH210229   2.975   1.509   1.298  0.5038 -0.0517  0.6501
 3408TIP3    H110230   2.891   1.467   1.318  1.5562 -1.5499  2.2880
 3408TIP3    H210231   2.988   1.570   1.370  2.0635 -1.8932  2.0249
 3409TIP3   OH210232   1.185   2.123   0.900  0.2453 -0.3873  0.6932
 3409TIP3    H110233   1.203   2.094   0.990  0.5083  1.0001  1.1098
 3409TIP3    H210234   1.269   2.155   0.868 -0.2251  0.8340  0.6247
 3410TIP3   OH210235   5.973   1.852   0.365  0.4079 -0.2700  0.1420
 3410TIP3    H110236   5.903   1.859   0.300 -0.4180 -2.4358  0.7053
 3410TIP3    H210237   5.927   1.846   0.449  1.2901 -0.8588  0.6024
 3411TIP3   OH210238   4.881   1.594   4.400 -0.1232 -0.4556 -0.5567
 3411TIP3    H110239   4.891   1.509   4.355 -0.9259 -0.2432 -1.1554
 3411TIP3    H210240   4.795   1.589   4.441 -0.3249  0.1943 -0.8913
 3412TIP3   OH210241   6.008   3.461   0.882  0.4007  0.0064  0.4365
 3412TIP3    H110242   5.972   3.467   0.793  0.7814 -0.0169  0.2802
 3412TIP3    H210243   6.088   3.409   0.872  0.7183  0.4382  0.7068
 3413TIP3   OH210244   0.813   2.225   4.402 -0.7275  0.2118  0.2631
 3413TIP3    H110245   0.797   2.295   4.339 -1.3574 -0.2694 -0.1270
 3413TIP3    H210246   0.788   2.262   4.486  0.0958  0.8506  0.2406
 3414TIP3   OH210247   3.731   1.043   4.170 -0.8700 -0.3808 -0.1882
 3414TIP3    H110248   3.716   0.990   4.249 -0.4268  1.2797  1.0679
 3414TIP3    H210249   3.789   0.990   4.116  2.0395 -0.0814  2.3523
 3415TIP3   OH210250   3.933   4.650   1.491 -0.4558 -0.1195  0.2456
 3415TIP3    H110251   3.874   4.667   1.565  0.0912  0.8207  0.4918
 3415TIP3    H210252   4.016   4.692   1.517 -0.0989 -0.2386 -0.6738
 3416TIP3   OH210253   2.664   5.810   5.190 -0.2967 -0.0016  0.5329
 3416TIP3    H110254   2.742   5.773   5.147  0.0484 -0.2107  1.3319
 3416TIP3    H210255   2.593   5.751   5.165 -0.3700  0.6031 -0.8193
 3417TIP3   OH210256   0.187   5.000   5.017  0.3389  0.0645  0.0037
 3417TIP3    H110257   0.209   4.942   4.944  0.7645 -1.3454  1.1889
 3417TIP3    H210258   0.271   5.038   5.043  0.0310  1.4453 -0.9077
 3418TIP3   OH210259   5.207   2.786   2.483 -0.4175 -0.4824  0.2757
 3418TIP3    H110260   5.143   2.715   2.494  0.3213 -1.0458  1.0980
 3418TIP3    H210261   5.164   2.848   2.424 -0.2706 -2.6026 -2.2333
 3419TIP3   OH210262   4.259   2.100   0.686  0.4006 -0.2058  0.8211
 3419TIP3    H110263   4.266   2.064   0.597 -0.3525 -0.5605  0.9020
 3419TIP3    H210264   4.292   2.190   0.678  1.4288 -0.5956  0.4258
 3420TIP3   OH210265   2.861   1.121   5.033 -0.6615  0.0261  0.1004
 3420TIP3    H110266   2.884   1.167   5.114  1.5300  0.0118 -0.4404
 3420TIP3    H210267   2.826   1.037   5.062  1.0196 -0.3973  1.0837
 3421TIP3   OH210268   5.732   5.099   3.207 -0.1502  0.2329 -0.1817
 3421TIP3    H110269   5.693   5.031   3.262 -0.2940  0.4978  0.0459
 3421TIP3    H210270   5.725   5.179   3.259 -0.6586  0.5713 -0.7564
 3422TIP3   OH210271   2.519   0.552   3.692  0.2755  0.0505 -0.1370
 3422TIP3    H110272   2.454   0.506   3.744 -0.1408  0.9839  0.1988
 3422TIP3    H210273   2.560   0.613   3.753  0.9721 -0.0293 -0.5139
 3423TIP3   OH210274   0.897   2.197   3.593 -0.0436 -0.7159 -0.6873
 3423TIP3    H110275   0.851   2.117   3.615 -0.8020 -0.5136 -1.4851
 3423TIP3    H210276   0.900   2.198   3.498 -1.0036  0.7170 -0.7307
 3424TIP3   OH210277   5.728   4.569   4.522  0.0391 -0.3540  0.2430
 3424TIP3    H110278   5.665   4.640   4.527 -0.3499 -0.5736 -1.2901
 3424TIP3    H210279   5.714   4.529   4.436  1.1541 -1.4415  0.5320
 3425TIP3   OH210280   5.790   2.445   2.595 -0.8916  0.0248  0.9974
 3425TIP3    H110281   5.715   2.505   2.601  0.4621  1.6830  2.6485
 3425TIP3    H210282   5.772   2.377   2.659 -1.1981  0.1605  1.0563
 3426TIP3   OH210283   4.206   3.233   4.231 -0.1808 -0.3205 -0.3404
 3426TIP3    H110284   4.194   3.159   4.290  2.2933 -0.1061  0.5581
 3426TIP3    H210285   4.164   3.206   4.149  2.5291 -3.7380 -0.8128
 3427TIP3   OH210286   1.228   4.298   0.408  0.4137  0.6891 -0.1138
 3427TIP3    H110287   1.234   4.373   0.468  2.4125  0.1384  0.4605
 3427TIP3    H210288   1.285   4.232   0.447 -1.8410 -1.4604 -0.2414
 3428TIP3   OH210289   0.502   1.115   2.163 -0.4463 -0.1715  0.4807
 3428TIP3    H110290   0.416   1.125   2.204 -0.9977  2.7214 -1.1025
 3428TIP3    H210291   0.488   1.053   2.092 -0.9340 -0.6122  0.9553
 3429TIP3   OH210292   2.971   0.275   2.095  0.5495 -0.2894 -0.4376
 3429TIP3    H110293   3.022   0.250   2.171  2.9729  4.1600 -0.2345
 3429TIP3    H210294   2.983   0.204   2.032  1.5586 -2.3437  1.9450
 3430TIP3   OH210295   4.931   1.838   2.358  0.4243 -0.4892 -0.3367
 3430TIP3    H110296   4.962   1.928   2.360 -1.5729  0.2448 -0.4985
 3430TIP3    H210297   4.992   1.792   2.299  1.7083  0.6196  0.0761
 3431TIP3   OH210298   0.652   1.300   1.647 -0.3958 -0.4694 -0.0075
 3431TIP3    H110299   0.707   1.348   1.585 -0.9729 -0.9931 -0.9477
 3431TIP3    H210300   0.684   1.328   1.733  0.8151 -0.1774 -0.5231
 3432TIP3   OH210301   4.509   1.317   1.178 -0.8093 -0.9374 -0.4376
 3432TIP3    H110302   4.443   1.343   1.242  1.9054  1.9351  1.5093
 3432TIP3    H210303   4.463   1.319   1.094 -3.6340 -1.2343  0.9651
 3433TIP3   OH210304   1.546   1.528   3.150 -0.2517 -0.5009 -0.5414
 3433TIP3    H110305   1.467   1.543   3.099  0.4910 -0.2865 -1.6607
 3433TIP3    H210306   1.574   1.439   3.127 -1.7451 -1.7700  2.0943
 3434TIP3   OH210307   3.672   1.918   3.668 -0.3063 -0.5327 -0.1807
 3434TIP3    H110308   3.609   1.852   3.694  0.7605 -1.1826  0.8502
 3434TIP3    H210309   3.719   1.878   3.594 -0.2394 -0.5904 -0.1080
 3435TIP3   OH210310   0.520   2.858   2.159  0.0112  0.5615  0.0196
 3435TIP3    H110311   0.523   2.903   2.075 -1.7343 -0.9016 -0.9199
 3435TIP3    H210312   0.601   2.808   2.163  0.4529  1.2304 -0.4415
 3436TIP3   OH210313   1.933   5.138   4.700  0.2454 -0.0073  0.3524
 3436TIP3    H110314   1.898   5.051   4.714 -0.1413  0.0148 -0.4167
 3436TIP3    H210315   1.947   5.144   4.605 -2.7479  1.8670 -0.0969
 3437TIP3   OH210316   2.736   3.240   1.224 -0.3222  0.1160  0.1990
 3437TIP3    H110317   2.820   3.282   1.203 -0.0449 -0.3231  0.4244
 3437TIP3    H210318   2.728   3.168   1.161 -0.8982  0.6173 -0.3243
 3438TIP3   OH210319   4.780   3.125   5.081  0.3985  0.1108 -0.3965
 3438TIP3    H110320   4.742   3.212   5.097 -1.9742 -1.3109  2.7914
 3438TIP3    H210321   4.838   3.110   5.156 -0.8132 -1.7813  0.2298
 3439TIP3   OH210322   3.124   0.650   0.948 -0.6588 -0.8287  0.2465
 3439TIP3    H110323   3.117   0.695   1.032 -0.5718 -0.3296 -0.0151
 3439TIP3    H210324   3.141   0.558   0.972 -1.5841 -0.8660  0.7842
 3440TIP3   OH210325   0.496   2.232   4.869  0.8361 -0.2262  0.4191
 3440TIP3    H110326   0.524   2.315   4.832  0.8935  0.2041  1.3963
 3440TIP3    H210327   0.402   2.229   4.854  0.8114  0.0819  0.5273
 3441TIP3   OH210328   4.084   4.355   1.163 -0.3284  0.3640  0.4310
 3441TIP3    H110329   4.175   4.325   1.167 -0.8522 -1.8897 -1.7890
 3441TIP3    H210330   4.079   4.407   1.083 -1.2447 -0.7580 -0.2772
 3442TIP3   OH210331   1.883   4.634   0.664  0.0562  0.5667  0.2756
 3442TIP3    H110332   1.971   4.655   0.632 -0.4419  0.2256 -1.4073
 3442TIP3    H210333   1.872   4.689   0.742  1.8486  0.4170  0.6611
 3443TIP3   OH210334   1.330   1.977   0.477 -0.0774  0.0107  0.6876
 3443TIP3    H110335   1.332   2.030   0.557 -2.1757  1.0922  0.1000
 3443TIP3    H210336   1.358   2.037   0.408 -0.0274 -0.3776  0.3687
 3444TIP3   OH210337   4.320   3.488   0.055  0.0608  0.4211 -0.2564
 3444TIP3    H110338   4.413   3.504   0.039  0.6975 -3.5312 -1.3955
 3444TIP3    H210339   4.276   3.526  -0.021  0.6934  1.9213  0.0699
 3445TIP3   OH210340   1.266   2.196   3.119 -1.1256  1.0129  0.0146
 3445TIP3    H110341   1.297   2.230   3.035 -0.2248  0.2946  0.0362
 3445TIP3    H210342   1.205   2.126   3.096 -0.5569  0.5318 -0.0562
 3446TIP3   OH210343   4.172   5.777   2.981 -0.7615 -0.4974  0.0812
 3446TIP3    H110344   4.178   5.811   2.892  1.7919 -1.5618 -0.2462
 3446TIP3    H210345   4.145   5.852   3.034  0.5929  0.9607 -1.1987
 3447TIP3   OH210346   5.843   0.001   0.161 -0.0054  0.0395 -0.1691
 3447TIP3    H110347   5.895  -0.040   0.231  2.8936  1.7604 -1.1508
 3447TIP3    H210348   5.782   0.058   0.207 -1.9614 -2.8309  1.0798
 3448TIP3   OH210349   5.568   0.598   0.480 -0.4574 -0.2873 -0.0828
 3448TIP3    H110350   5.622   0.605   0.559  0.0295 -1.1199 -0.3287
 3448TIP3    H210351   5.481   0.624   0.508  0.1756  1.7689  0.1706
 3449TIP3   OH210352   6.013   4.694   4.740 -0.0728 -0.0464 -0.2130
 3449TIP3    H110353   6.107   4.688   4.757  0.4518 -1.6072 -3.0724
 3449TIP3    H210354   6.005   4.706   4.646 -2.7547 -0.7318 -0.1788
 3450TIP3   OH210355   1.916   0.823   2.245  0.8760 -0.2342 -0.4749
 3450TIP3    H110356   1.936   0.730   2.242  0.9329 -0.2556  0.4027
 3450TIP3    H210357   1.925   0.847   2.337 -1.0130  0.2214 -0.3744
 3451TIP3   OH210358   2.324   0.165   3.881  0.2108  0.3157 -0.3498
 3451TIP3    H110359   2.245   0.215   3.901 -0.9030 -1.4854 -0.0743
 3451TIP3    H210360   2.396   0.226   3.899 -0.9536  0.9074  2.8704
 3452TIP3   OH210361   3.777   5.609   4.588 -0.1742 -0.3342  0.0405
 3452TIP3    H110362   3.798   5.694   4.628 -0.6097 -0.3909  0.3905
 3452TIP3    H210363   3.862   5.567   4.576  0.2278  0.9232 -1.8781
 3453TIP3   OH210364   4.201   2.338   4.226  0.0913  0.2794 -0.2765
 3453TIP3    H110365   4.274   2.305   4.173 -0.6836  1.1104 -1.9593
 3453TIP3    H210366   4.126   2.285   4.200  0.0253 -0.5080  1.3739
 3454TIP3   OH210367   2.676   1.399   0.415 -0.3617  0.1651  0.4333
 3454TIP3    H110368   2.682   1.447   0.498  0.6581 -0.2114  0.5834
 3454TIP3    H210369   2.732   1.322   0.427  1.9796  1.4308 -1.4969
 3455TIP3   OH210370   3.852   4.443   1.303  0.0642  0.2990 -0.0692
 3455TIP3    H110371   3.828   4.451   1.211 -0.5497  1.4200  0.1645
 3455TIP3    H210372   3.930   4.386   1.303 -0.1839 -0.0673 -1.2246
 3456TIP3   OH210373   3.932   2.290   1.528  0.5670  0.6693 -0.1193
 3456TIP3    H110374   3.870   2.292   1.455  0.3875  1.3557  0.0493
 3456TIP3    H210375   4.018   2.285   1.485  0.5372  2.2334 -0.4328
 3457TIP3   OH210376   1.047   3.013   1.832 -0.3385 -0.3078  0.1498
 3457TIP3    H110377   0.972   3.002   1.773 -1.2816 -3.1708  1.6928
 3457TIP3    H210378   1.011   2.998   1.919  1.7835 -0.4468  1.0477
 3458TIP3   OH210379   2.549   0.165   1.213  0.9269 -0.3229  0.1256
 3458TIP3    H110380   2.644   0.158   1.223  1.0926  2.1109  1.0476
 3458TIP3    H210381   2.513   0.130   1.295  1.1352 -0.0006  0.3604
 3459TIP3   OH210382   0.266   0.051   4.591 -0.3195 -0.1372  0.3952
 3459TIP3    H110383   0.256   0.131   4.540  2.4530  1.4519  2.1405
 3459TIP3    H210384   0.177   0.013   4.594 -1.3642  1.9015 -1.9214
 3460TIP3   OH210385   1.833   0.399   1.590  0.1509 -0.5471  0.8591
 3460TIP3    H110386   1.816   0.490   1.565 -0.5909 -1.1601 -1.0380
 3460TIP3    H210387   1.793   0.390   1.676 -0.5016  0.7059  0.7125
 3461TIP3   OH210388   1.638   2.123   1.348 -0.4895  0.2284  0.0988
 3461TIP3    H110389   1.681   2.201   1.383 -0.4987  0.2051  0.1621
 3461TIP3    H210390   1.553   2.154   1.317 -0.5906  0.1991  0.3434
 3462TIP3   OH210391   1.596   1.797   4.733  0.3834  0.0367 -0.2253
 3462TIP3    H110392   1.547   1.853   4.792  0.1071 -0.0549 -0.3668
 3462TIP3    H210393   1.590   1.841   4.648  1.9975  0.9401  0.0798
 3463TIP3   OH210394   3.787   3.338   0.132 -1.0391 -0.0057  0.4482
 3463TIP3    H110395   3.722   3.292   0.186 -2.3513  2.1565  0.8213
 3463TIP3    H210396   3.822   3.406   0.190  1.2740 -0.8054  0.1007
 3464TIP3   OH210397   0.569   4.794   0.200 -0.1382  0.7806 -0.2374
 3464TIP3    H110398   0.664   4.802   0.194 -0.1269  0.9602  0.1335
 3464TIP3    H210399   0.550   4.706   0.167  0.1678  0.7081 -0.2243
 3465TIP3   OH210400   4.099   1.783   4.032  0.3614  0.3142 -0.3663
 3465TIP3    H110401   4.059   1.850   3.976  0.8797  1.1040  0.1993
 3465TIP3    H210402   4.110   1.825   4.116  0.9000 -0.4238 -0.0571
 3466TIP3   OH210403   5.532   2.754   2.042 -1.1164 -0.4362  0.2792
 3466TIP3    H110404   5.447   2.786   2.011 -0.8705  0.6884  0.6926
 3466TIP3    H210405   5.554   2.681   1.984 -0.7270  1.4860 -2.1460
 3467TIP3   OH210406   2.457   4.309   1.634  0.3371 -0.2773  0.2072
 3467TIP3    H110407   2.476   4.358   1.714  2.1129 -0.9547  0.2444
 3467TIP3    H210408   2.526   4.334   1.573 -0.5039 -0.4197 -0.8459
 3468TIP3   OH210409   0.150   0.085   3.538 -0.2011 -0.1353  0.0036
 3468TIP3    H110410   0.173   0.141   3.612  0.8063  0.0777 -0.4551
 3468TIP3    H210411   0.108   0.009   3.578  1.7933 -0.8040  0.9594
 3469TIP3   OH210412   4.648   3.537   2.801 -0.2200 -0.0539  0.2955
 3469TIP3    H110413   4.709   3.608   2.820  0.3505 -0.5752  0.4517
 3469TIP3    H210414   4.665   3.471   2.869 -0.5375 -0.4690 -0.0155
 3470TIP3   OH210415   6.111   4.602   3.878 -0.4565  0.2781 -0.2189
 3470TIP3    H110416   6.102   4.508   3.892 -0.8674  0.1201 -1.4247
 3470TIP3    H210417   6.103   4.613   3.783  1.9778  1.2749 -0.3710
 3471TIP3   OH210418   4.109   0.389   0.661 -0.3697 -0.0929  0.0779
 3471TIP3    H110419   4.016   0.402   0.644 -0.7591 -1.4401  0.9829
 3471TIP3    H210420   4.113   0.361   0.752  0.9789  0.3374  0.1813
 3472TIP3   OH210421   0.244   3.840   2.982 -0.0306 -0.2969  0.3195
 3472TIP3    H110422   0.315   3.901   2.965 -0.0638 -0.4793 -0.5195
 3472TIP3    H210423   0.256   3.814   3.074  0.9015 -0.2238  0.2248
 3473TIP3   OH210424   5.871   3.973   2.190  0.0460 -0.2260  0.2934
 3473TIP3    H110425   5.904   4.024   2.116 -0.2041  0.2783  0.5266
 3473TIP3    H210426   5.950   3.939   2.233  0.2835  0.9169  0.8070
 3474TIP3   OH210427   0.040   1.162   3.945 -0.1364  0.0759 -0.0976
 3474TIP3    H110428   0.106   1.163   4.014 -0.1039  0.7166 -0.1314
 3474TIP3    H210429  -0.018   1.236   3.965 -1.1046 -0.7312  0.1782
 3475TIP3   OH210430   2.477   2.800   1.749 -0.5349  0.8568  0.6185
 3475TIP3    H110431   2.545   2.862   1.723  0.0014 -0.3593 -1.0407
 3475TIP3    H210432   2.416   2.799   1.675  0.6920 -2.2369 -0.5433
 3476TIP3   OH210433   3.740   5.341   3.163  0.1134 -0.3987  0.4466
 3476TIP3    H110434   3.726   5.411   3.227  1.6411  0.1052  0.2724
 3476TIP3    H210435   3.742   5.261   3.215  0.5115 -0.0775  0.9337
 3477TIP3   OH210436   3.120   0.153   3.409 -0.7299  0.0526  0.4043
 3477TIP3    H110437   3.096   0.189   3.323 -0.9991  0.9658  0.8592
 3477TIP3    H210438   3.054   0.187   3.469 -0.4931 -0.5181  0.9999
 3478TIP3   OH210439   0.873   5.454   1.032  0.0178 -0.2778  0.2491
 3478TIP3    H110440   0.892   5.373   1.080 -0.3548 -0.1733  0.5762
 3478TIP3    H210441   0.928   5.521   1.075  0.3469 -0.3602 -0.0392
 3479TIP3   OH210442   2.523   5.581   4.007  0.8023 -0.8219  0.5013
 3479TIP3    H110443   2.610   5.555   4.036  2.0030  1.1985 -1.0199
 3479TIP3    H210444   2.504   5.661   4.054  0.0744 -0.8514  0.2767
 3480TIP3   OH210445   5.247   0.686   2.848 -0.3259 -0.0147 -0.1071
 3480TIP3    H110446   5.164   0.703   2.804 -0.7087 -0.4655  0.4264
 3480TIP3    H210447   5.314   0.719   2.787 -0.9641  2.6260  0.4814
 3481TIP3   OH210448   0.410   0.197   1.926 -0.2095 -0.0245  0.1020
 3481TIP3    H110449   0.492   0.198   1.976 -1.0406 -0.6164  1.5410
 3481TIP3    H210450   0.402   0.107   1.895 -0.7552 -0.1902  0.7234
 3482TIP3   OH210451   3.569   3.818   4.826  0.1976  0.1745  0.4092
 3482TIP3    H110452   3.643   3.875   4.807 -0.3207  0.3334 -1.2161
 3482TIP3    H210453   3.505   3.874   4.869 -0.3865  0.9193 -1.3477
 3483TIP3   OH210454   4.242   0.972   2.604 -0.2822  0.5116  0.5151
 3483TIP3    H110455   4.332   0.945   2.624 -0.8921 -1.1179  1.2314
 3483TIP3    H210456   4.251   1.062   2.572  1.6969  0.0333 -0.4259
 3484TIP3   OH210457   4.129   4.835   4.137 -0.2369 -0.0203 -0.5956
 3484TIP3    H110458   4.219   4.868   4.141 -0.2662 -0.0502  2.1336
 3484TIP3    H210459   4.078   4.907   4.099  0.9238 -0.0576 -2.3058
 3485TIP3   OH210460   2.638   5.827   0.107  0.2340  0.8483  0.0498
 3485TIP3    H110461   2.604   5.766   0.174  0.1370 -0.1676 -0.8965
 3485TIP3    H210462   2.731   5.808   0.103 -0.0993 -0.7080 -1.6532
 3486TIP3   OH210463   4.551   4.358   2.139 -0.6741  0.1223 -0.4357
 3486TIP3    H110464   4.565   4.379   2.047  2.5921 -1.6835 -0.5158
 3486TIP3    H210465   4.504   4.274   2.138 -2.5773  1.1273 -0.3285
 3487TIP3   OH210466   4.466   0.196   0.963 -0.0381  0.0912  0.1772
 3487TIP3    H110467   4.528   0.216   1.033 -0.5480 -0.9345  0.9439
 3487TIP3    H210468   4.495   0.111   0.929 -1.0891 -0.4737  0.6480
 3488TIP3   OH210469   2.187   1.994   2.369  0.0536  0.4033  0.4405
 3488TIP3    H110470   2.216   2.040   2.290 -1.0003 -1.1336 -0.9098
 3488TIP3    H210471   2.103   2.033   2.390 -0.9398 -0.9267 -0.8266
 3489TIP3   OH210472   2.496   1.381   0.734  0.4147  0.0135  0.6094
 3489TIP3    H110473   2.456   1.391   0.648  1.7436 -1.2869 -0.2147
 3489TIP3    H210474   2.435   1.326   0.783  0.6405 -1.0354 -0.2579
 3490TIP3   OH210475   4.617   1.217   4.897  0.3995  0.5676  0.4065
 3490TIP3    H110476   4.667   1.240   4.975  1.7073 -0.1512 -0.1874
 3490TIP3    H210477   4.646   1.128   4.874  1.3680  1.3890 -1.8774
 3491TIP3   OH210478   4.085   2.341   0.414 -0.8247 -0.6290  0.1486
 3491TIP3    H110479   4.028   2.265   0.406 -1.2259 -0.3045 -0.0916
 3491TIP3    H210480   4.049   2.392   0.486 -1.1182 -0.1845 -0.3129
 3492TIP3   OH210481   1.295  -0.014   3.283  0.4698  0.3407  0.1527
 3492TIP3    H110482   1.273  -0.026   3.191 -0.0560  1.8979  0.0555
 3492TIP3    H210483   1.368   0.047   3.283  0.7565  0.0102  0.7653
 3493TIP3   OH210484   0.253   2.636   5.111  0.1816 -0.2320  0.7469
 3493TIP3    H110485   0.283   2.722   5.140 -0.8111 -0.1724  1.6335
 3493TIP3    H210486   0.284   2.575   5.177  1.6241 -0.7074 -0.3130
 3494TIP3   OH210487   5.721   3.863   0.354 -0.1103  0.2188 -0.3812
 3494TIP3    H110488   5.677   3.862   0.439  0.9664 -1.2521  0.2142
 3494TIP3    H210489   5.702   3.950   0.318 -1.7002  0.3929  0.7529
 3495TIP3   OH210490   0.983   4.398   2.107 -0.3051 -0.2584  0.0586
 3495TIP3    H110491   1.037   4.321   2.122  1.2076  1.0437  1.7213
 3495TIP3    H210492   0.984   4.445   2.190 -0.4817  1.9701 -1.1170
 3496TIP3   OH210493   1.682   1.096   5.047  0.2958  0.6048 -0.0120
 3496TIP3    H110494   1.738   1.163   5.089  0.2914  0.6665 -0.1038
 3496TIP3    H210495   1.597   1.139   5.037  0.3649  0.6731 -0.3066
 3497TIP3   OH210496   5.123   5.661   0.958 -0.2874 -0.8801  0.3544
 3497TIP3    H110497   5.057   5.644   0.891  0.8446  0.5030 -1.1833
 3497TIP3    H210498   5.073   5.689   1.035 -1.5709 -1.8392 -0.0824
 3498TIP3   OH210499   4.518   1.924   3.290  0.1594 -0.0418 -0.2062
 3498TIP3    H110500   4.454   1.994   3.296  0.4038  0.2672 -1.0300
 3498TIP3    H210501   4.467   1.845   3.271 -0.2189 -0.3054  1.7407
 3499TIP3   OH210502   4.503   3.242   3.234 -0.2315  0.3365  0.3673
 3499TIP3    H110503   4.465   3.205   3.155 -0.7436  1.2159  0.1923
 3499TIP3    H210504   4.590   3.202   3.240 -0.3341 -0.0203 -0.4329
 3500TIP3   OH210505   1.642   5.790   4.683 -0.1311  0.3819  0.2421
 3500TIP3    H110506   1.560   5.829   4.652 -0.1392  0.6619  0.6179
 3500TIP3    H210507   1.649   5.816   4.774 -0.4944 -1.0957  0.7159
 3501TIP3   OH210508   0.825   4.979   1.317  0.0837  0.1301  0.3569
 3501TIP3    H110509   0.775   4.901   1.292 -0.4847  0.6832 -0.2575
 3501TIP3    H210510   0.834   4.971   1.412  0.2679 -0.8188  0.2720
 3502TIP3   OH210511   3.167   0.638   2.832 -0.1282 -0.3046 -0.0322
 3502TIP3    H110512   3.084   0.679   2.805 -0.5097 -0.0308  1.4519
 3502TIP3    H210513   3.234   0.690   2.789 -0.7080 -0.0093 -0.6011
 3503TIP3   OH210514   0.877   1.543   1.259 -0.5292 -0.4343  0.5929
 3503TIP3    H110515   0.889   1.490   1.338 -1.1815  0.4692  1.3309
 3503TIP3    H210516   0.965   1.552   1.222  0.5714  2.4369  3.4393
 3504TIP3   OH210517   2.661   1.952   3.017 -0.3725 -0.2109  0.0111
 3504TIP3    H110518   2.590   1.932   2.955  0.5437 -1.3131 -0.7248
 3504TIP3    H210519   2.732   1.986   2.961  0.7574 -1.9696  0.3262
 3505TIP3   OH210520   5.974   3.009   4.101 -0.1822 -0.2817  0.3615
 3505TIP3    H110521   6.017   3.082   4.057 -0.1565 -0.7589 -0.4401
 3505TIP3    H210522   5.979   3.029   4.194 -1.6632  1.5657  0.0992
 3506TIP3   OH210523   2.389   5.693   1.839 -0.2740 -0.2800  0.2964
 3506TIP3    H110524   2.377   5.776   1.793 -1.3226 -0.0054  1.0189
 3506TIP3    H210525   2.463   5.708   1.897  2.0055 -1.0795 -2.2256
 3507TIP3   OH210526   5.720   5.539   4.142 -0.2287 -0.1405 -0.0986
 3507TIP3    H110527   5.719   5.444   4.159  1.9397 -0.2298 -0.2924
 3507TIP3    H210528   5.802   5.570   4.180 -1.9246  2.1141  2.0050
 3508TIP3   OH210529   1.500   4.332   2.142  0.2293  0.5959  0.5225
 3508TIP3    H110530   1.468   4.281   2.217 -1.7522  1.9784  0.6886
 3508TIP3    H210531   1.587   4.296   2.125 -0.0837 -1.1485  2.1760
 3509TIP3   OH210532   2.409   0.504   4.407  0.2808 -0.0527 -0.4938
 3509TIP3    H110533   2.390   0.490   4.499 -0.5980  0.2436 -0.6171
 3509TIP3    H210534   2.342   0.567   4.378  0.4870 -0.2116 -1.3482
 3510TIP3   OH210535   1.099   3.209   2.879  0.6912  0.2024 -0.1659
 3510TIP3    H110536   1.098   3.116   2.858  0.2686  0.0398  0.5605
 3510TIP3    H210537   1.016   3.242   2.844  0.7502  0.2672 -0.2454
 3511TIP3   OH210538   1.383   3.540   4.178 -0.0215 -0.0712  0.6571
 3511TIP3    H110539   1.446   3.596   4.224  0.8771 -0.5829  0.0836
 3511TIP3    H210540   1.437   3.482   4.125 -0.9855 -0.5970  0.2234
 3512TIP3   OH210541   2.565   4.506   0.332  0.7451  0.2367  0.3998
 3512TIP3    H110542   2.488   4.474   0.286  0.9541  1.3079 -0.7599
 3512TIP3    H210543   2.558   4.602   0.328  2.0933  0.3608  0.3023
 3513TIP3   OH210544   0.756   0.855   2.653 -0.2779 -0.1810  0.5730
 3513TIP3    H110545   0.710   0.771   2.644  0.6062 -0.5686 -0.4999
 3513TIP3    H210546   0.848   0.831   2.662  0.1249  0.7092 -0.9725
 3514TIP3   OH210547   3.066   3.466   4.876  0.0196  0.0671  0.2065
 3514TIP3    H110548   3.100   3.526   4.809  0.9590 -0.5782  0.0912
 3514TIP3    H210549   2.996   3.515   4.919 -0.1450  0.7357 -0.8055
 3515TIP3   OH210550   2.742   0.615   2.238 -0.1593 -0.4570  0.2762
 3515TIP3    H110551   2.649   0.600   2.254 -0.5644  0.4271 -1.0936
 3515TIP3    H210552   2.786   0.562   2.305 -1.6173 -1.3251  0.6076
 3516TIP3   OH210553   6.327   0.019   3.924  0.1754 -0.2036 -0.6455
 3516TIP3    H110554   6.254  -0.040   3.906  0.0279 -0.0754 -0.4726
 3516TIP3    H210555   6.331   0.024   4.019 -0.5031  0.9128 -0.6536
 3517TIP3   OH210556   4.918   4.343   1.358  0.1387  0.5358 -0.0933
 3517TIP3    H110557   4.933   4.248   1.359  2.5083  0.8167 -1.1170
 3517TIP3    H210558   4.963   4.374   1.437 -2.9673  0.6167  1.7802
 3518TIP3   OH210559   1.362   1.103   3.808  0.0373 -0.9139 -0.2285
 3518TIP3    H110560   1.301   1.053   3.754  0.8626 -1.3811 -0.7498
 3518TIP3    H210561   1.447   1.092   3.765  0.5582 -0.5733  0.6825
 3519TIP3   OH210562   5.086   5.725   4.631  0.0873 -0.4960  0.0060
 3519TIP3    H110563   5.006   5.673   4.632  0.5310 -1.1909  0.3907
 3519TIP3    H210564   5.061   5.809   4.671 -0.8803 -0.0053 -1.5291
 3520TIP3   OH210565   6.135   2.529   0.804  0.2609  0.4536  0.3146
 3520TIP3    H110566   6.096   2.442   0.812  1.7325 -0.3442 -0.5957
 3520TIP3    H210567   6.215   2.524   0.856  0.1737  1.3933  0.5543
 3521TIP3   OH210568   4.416   2.937   3.364  0.5953 -0.4377  0.6689
 3521TIP3    H110569   4.322   2.958   3.363  0.0621 -2.6246  0.4759
 3521TIP3    H210570   4.457   3.014   3.404 -0.8385  2.1341 -2.3866
 3522TIP3   OH210571   3.874   4.349   0.745 -0.2964  0.4666 -0.1316
 3522TIP3    H110572   3.801   4.289   0.729 -0.0105  0.1190 -0.1436
 3522TIP3    H210573   3.934   4.299   0.801  0.9643 -0.0359 -1.8588
 3523TIP3   OH210574   5.537   5.056   5.155  0.4219  0.1841 -0.4168
 3523TIP3    H110575   5.571   4.973   5.188  0.5416 -0.6933 -2.5868
 3523TIP3    H210576   5.614   5.110   5.140  0.4851  0.0209 -0.6836
 3524TIP3   OH210577   4.734   0.718   2.289 -0.1013  0.1909  0.2369
 3524TIP3    H110578   4.690   0.800   2.266 -2.4763 -1.2543 -0.7446
 3524TIP3    H210579   4.687   0.651   2.240  2.2375 -1.7117  0.4389
 3525TIP3   OH210580   2.869   5.740   3.193 -0.1922 -0.3162  0.1502
 3525TIP3    H110581   2.859   5.649   3.164 -2.4676  0.1964 -0.8438
 3525TIP3    H210582   2.945   5.738   3.251  0.0202 -2.7856 -0.1126
 3526TIP3   OH210583   2.283   5.475   4.162 -0.2552 -0.2942  0.7471
 3526TIP3    H110584   2.285   5.379   4.158 -2.4599 -0.3914  0.5357
 3526TIP3    H210585   2.367   5.503   4.126 -0.5424 -2.1236 -1.5509
 3527TIP3   OH210586   0.121   0.524   4.256 -0.1848 -0.2281 -0.1272
 3527TIP3    H110587   0.094   0.465   4.186 -0.5615 -0.1719 -0.0299
 3527TIP3    H210588   0.055   0.512   4.324  0.1600 -0.2575  0.2052
 3528TIP3   OH210589   1.138   5.297   4.678  0.0365 -0.7352 -0.5931
 3528TIP3    H110590   1.085   5.225   4.644 -0.2467  0.5448 -3.0608
 3528TIP3    H210591   1.075   5.367   4.697  0.3632 -0.8966  1.2380
 3529TIP3   OH210592   5.885   2.363   2.353  0.0838 -1.1372 -0.0193
 3529TIP3    H110593   5.843   2.389   2.436 -0.6260  1.2024 -1.0311
 3529TIP3    H210594   5.977   2.351   2.376  0.6833  3.1408  0.5432
 3530TIP3   OH210595   3.483   1.776   3.397 -0.0788 -0.5712 -0.3155
 3530TIP3    H110596   3.571   1.809   3.378 -0.5977  1.8641  1.0897
 3530TIP3    H210597   3.426   1.851   3.382 -1.6927 -1.5446  0.6993
 3531TIP3   OH210598   4.710   5.918   4.225  0.1188  0.7160  0.9757
 3531TIP3    H110599   4.750   5.837   4.192  0.3895  1.5038 -0.7663
 3531TIP3    H210600   4.780   5.960   4.276 -0.4535 -0.7532  3.0602
 3532TIP3   OH210601   0.216   4.748   1.701 -0.4508 -0.6600  0.0919
 3532TIP3    H110602   0.197   4.801   1.779  0.6596  1.2593 -0.8751
 3532TIP3    H210603   0.225   4.659   1.735 -1.4991 -0.1296  1.9273
 3533TIP3   OH210604   2.726   2.039   2.160  0.1143  0.4606 -0.1048
 3533TIP3    H110605   2.659   2.105   2.146 -0.3199 -0.1005 -0.7373
 3533TIP3    H210606   2.688   1.958   2.125  0.8420 -0.0117  0.1656
 3534TIP3   OH210607   3.526   5.884   0.710 -0.3932 -0.2663 -0.3805
 3534TIP3    H110608   3.474   5.945   0.762 -2.3425 -0.2186 -2.2559
 3534TIP3    H210609   3.543   5.811   0.769  0.7744  1.4024  1.4602
 3535TIP3   OH210610   3.524   2.584   2.562  0.2520 -0.0922  0.1196
 3535TIP3    H110611   3.579   2.506   2.565 -0.6672 -0.7301  1.2298
 3535TIP3    H210612   3.490   2.593   2.651 -0.9346  0.6363 -0.3828
 3536TIP3   OH210613   3.803   3.950   1.953  0.1005  0.4043  0.3385
 3536TIP3    H110614   3.777   3.885   1.887  2.2857  0.0662 -0.2468
 3536TIP3    H210615   3.806   3.900   2.035  0.9965 -0.0546  0.0312
 3537TIP3   OH210616   2.576   2.174   1.756 -0.3593 -0.6221 -0.3962
 3537TIP3    H110617   2.645   2.150   1.818  0.2583 -0.6352 -1.0726
 3537TIP3    H210618   2.558   2.094   1.707 -0.7296 -0.5691 -0.3533
 3538TIP3   OH210619   0.349   3.360   2.391  0.2419 -0.2821 -0.2798
 3538TIP3    H110620   0.439   3.344   2.363 -0.2415 -1.2280 -1.3561
 3538TIP3    H210621   0.343   3.319   2.477  0.5611 -1.1512 -0.6631
 3539TIP3   OH210622   5.392   5.551   1.047 -0.2482 -0.3204  0.8612
 3539TIP3    H110623   5.416   5.486   0.982 -0.6893 -0.4138  0.7832
 3539TIP3    H210624   5.302   5.575   1.024 -0.0175  0.4714  0.7635
 3540TIP3   OH210625   4.746   3.790   4.293  0.5401  0.1773  0.1682
 3540TIP3    H110626   4.756   3.811   4.200 -1.3261 -0.7569 -0.3015
 3540TIP3    H210627   4.661   3.829   4.316  0.5000 -0.4917  1.1919
 3541TIP3   OH210628   3.651   0.454   2.653  0.4436  0.2553  0.3294
 3541TIP3    H110629   3.575   0.455   2.712 -1.3864  0.4873 -1.9179
 3541TIP3    H210630   3.674   0.546   2.642 -1.6112  0.5855 -2.1110
 3542TIP3   OH210631   1.514   3.329   3.951 -0.0384 -0.3164 -0.1235
 3542TIP3    H110632   1.451   3.258   3.960  0.6436 -0.8580  0.5258
 3542TIP3    H210633   1.582   3.309   4.016 -0.1764  1.2805  0.5636
 3543TIP3   OH210634   2.663   0.757   0.202  0.0711  0.0970 -0.1773
 3543TIP3    H110635   2.727   0.699   0.161 -1.1283 -0.6851 -0.9978
 3543TIP3    H210636   2.616   0.796   0.128 -0.1711  0.9343  0.4054
 3544TIP3   OH210637   2.561   1.823   4.493 -0.5081 -0.2266 -0.5127
 3544TIP3    H110638   2.501   1.884   4.452 -0.3549  0.2897  0.0224
 3544TIP3    H210639   2.519   1.737   4.483 -0.9632  0.0316 -0.8140
 3545TIP3   OH210640   4.341   2.326   4.576 -0.1525  0.4247 -0.3178
 3545TIP3    H110641   4.381   2.305   4.660  1.2505  1.2242 -0.7573
 3545TIP3    H210642   4.298   2.244   4.550 -0.9532  0.2732  1.3238
 3546TIP3   OH210643   2.468   2.521   1.377 -0.0883  0.0726 -0.5116
 3546TIP3    H110644   2.555   2.559   1.389 -0.2517 -0.0173  1.1352
 3546TIP3    H210645   2.476   2.430   1.405 -0.6737  0.0178 -0.4966
 3547TIP3   OH210646   3.091   3.331   3.409 -0.3503 -0.1309 -0.2292
 3547TIP3    H110647   3.093   3.249   3.458 -0.1504 -0.9017 -1.4822
 3547TIP3    H210648   3.180   3.341   3.375 -0.1155  1.1057  0.6810
 3548TIP3   OH210649   1.366   5.335   4.477 -0.0676 -0.2113 -0.1454
 3548TIP3    H110650   1.366   5.391   4.555  0.6625  2.8253 -2.1224
 3548TIP3    H210651   1.281   5.292   4.478 -1.1337  1.7519  1.0411
 3549TIP3   OH210652   6.182   5.166   2.007 -0.0640  0.3150  0.1678
 3549TIP3    H110653   6.171   5.089   2.063  0.4443 -0.1135 -0.3005
 3549TIP3    H210654   6.211   5.235   2.067 -0.2124  0.0559  0.5437
 3550TIP3   OH210655   1.187   3.110   2.435  0.0635 -0.1290  0.2742
 3550TIP3    H110656   1.241   3.070   2.367  0.1715 -1.8003  1.2792
 3550TIP3    H210657   1.251   3.140   2.501 -0.0647  1.0840 -0.1226
 3551TIP3   OH210658   5.978   2.478   1.450 -0.2114 -0.1790  0.5090
 3551TIP3    H110659   6.016   2.408   1.396 -0.9888 -1.6411  1.7738
 3551TIP3    H210660   5.883   2.462   1.447 -0.2959 -0.1606  2.0753
 3552TIP3   OH210661   0.589   2.637   0.798  0.4019 -0.2210  0.0248
 3552TIP3    H110662   0.512   2.664   0.848  0.1111  0.7702 -0.9230
 3552TIP3    H210663   0.580   2.542   0.789 -1.4237  0.0060 -1.1858
 3553TIP3   OH210664   4.808   2.445   4.159  0.0135  0.1547 -0.3818
 3553TIP3    H110665   4.848   2.455   4.073 -0.4455  0.3634 -0.5754
 3553TIP3    H210666   4.719   2.413   4.141 -0.5136  1.3639 -0.0547
 3554TIP3   OH210667   0.648   2.960   1.443 -0.0038 -0.4142 -0.2804
 3554TIP3    H110668   0.577   3.021   1.459 -1.4458 -1.5909 -1.8060
 3554TIP3    H210669   0.657   2.957   1.348  2.0749 -0.3588 -0.1388
 3555TIP3   OH210670   2.805   2.831   2.713  0.2490  0.5347  0.2025
 3555TIP3    H110671   2.738   2.814   2.647 -0.7766  0.1785  1.3084
 3555TIP3    H210672   2.873   2.766   2.695 -1.6669 -2.0718  1.6761
 3556TIP3   OH210673   5.491   1.431   0.134  0.1579 -0.3072  0.0317
 3556TIP3    H110674   5.532   1.414   0.049  0.3132 -0.7445  0.1892
 3556TIP3    H210675   5.435   1.355   0.150  0.6537 -0.5544  0.6321
 3557TIP3   OH210676   3.490   5.580   5.048  0.4286  0.0089  0.1714
 3557TIP3    H110677   3.486   5.531   4.966 -0.1171  0.7525 -0.2642
 3557TIP3    H210678   3.484   5.672   5.021 -0.5729  0.2324  1.0981
 3558TIP3   OH210679   3.669   5.290   0.661 -0.5196  0.2788 -0.1919
 3558TIP3    H110680   3.655   5.212   0.714 -2.5556  0.8613  0.1975
 3558TIP3    H210681   3.660   5.260   0.570 -1.7765  0.1375 -0.0263
 3559TIP3   OH210682   0.541   0.924   4.477 -0.7389 -0.4495 -0.4680
 3559TIP3    H110683   0.506   0.845   4.518 -0.2883  0.3713  1.6658
 3559TIP3    H210684   0.557   0.984   4.551 -0.6182  1.4552 -1.9611
 3560TIP3   OH210685   0.218   1.490   1.387  0.1163 -0.1167  0.2522
 3560TIP3    H110686   0.273   1.453   1.457 -1.4686  1.9886  2.7878
 3560TIP3    H210687   0.280   1.539   1.333  1.2319 -0.7127  0.9307
 3561TIP3   OH210688   1.032   4.128   0.052 -0.6628 -0.4830 -0.4726
 3561TIP3    H110689   1.046   4.206  -0.001  1.2078 -1.3928 -1.3937
 3561TIP3    H210690   1.036   4.161   0.142 -2.4479  0.8437 -0.8102
 3562TIP3   OH210691   1.987   3.558   4.337 -0.3114 -0.5353 -0.0540
 3562TIP3    H110692   1.921   3.495   4.306 -0.8400  0.0457 -0.1288
 3562TIP3    H210693   1.937   3.622   4.387  0.1337  0.1740 -0.5062
 3563TIP3   OH210694   5.594   5.749   1.562 -0.4318 -0.2213  0.4834
 3563TIP3    H110695   5.673   5.795   1.536  0.0534 -0.4921  1.4648
 3563TIP3    H210696   5.577   5.688   1.489 -0.2423  0.4403 -0.1266
 3564TIP3   OH210697   3.566   4.267   5.064 -0.6029  0.5442 -0.4563
 3564TIP3    H110698   3.655   4.236   5.050 -0.9415 -0.1455 -1.1484
 3564TIP3    H210699   3.556   4.341   5.004 -0.5496  0.5177 -0.4977
 3565TIP3   OH210700   2.790   0.411   1.937  0.1429  0.0576  0.5985
 3565TIP3    H110701   2.867   0.358   1.960  0.9711  0.7697 -0.4468
 3565TIP3    H210702   2.717   0.350   1.942  1.1439 -1.4059 -1.1797
 3566TIP3   OH210703   5.631   3.141   4.891 -0.6256 -0.0417 -0.1080
 3566TIP3    H110704   5.620   3.046   4.880  1.4257 -0.7335  2.7285
 3566TIP3    H210705   5.670   3.169   4.808  1.8296 -2.3748  0.0759
 3567TIP3   OH210706   3.892   5.189   4.093 -0.0015  0.6478  0.5004
 3567TIP3    H110707   3.876   5.107   4.141  0.4740  0.3908  0.2222
 3567TIP3    H210708   3.804   5.224   4.077 -0.3165 -0.5783 -0.7153
 3568TIP3   OH210709   4.042   1.620   2.296 -0.1915 -0.4483  0.1146
 3568TIP3    H110710   3.985   1.579   2.231 -0.3674 -0.0025 -0.0227
 3568TIP3    H210711   4.034   1.565   2.374 -3.2366  1.2064  1.1405
 3569TIP3   OH210712   1.524   3.218   3.465  0.3616  0.2572  0.4195
 3569TIP3    H110713   1.616   3.194   3.455  0.2810 -0.0783  0.4943
 3569TIP3    H210714   1.520   3.308   3.433  0.6471  0.1544  0.0865
 3570TIP3   OH210715   5.766   5.306   2.060 -0.6025 -0.4789  0.0583
 3570TIP3    H110716   5.696   5.253   2.023 -0.2111 -2.2323  1.6459
 3570TIP3    H210717   5.819   5.333   1.985 -1.6033 -1.1685 -0.9215
 3571TIP3   OH210718   2.065   5.693   3.653 -0.0140  0.1760 -0.0027
 3571TIP3    H110719   1.990   5.650   3.695  0.6082 -2.4875 -1.4082
 3571TIP3    H210720   2.139   5.672   3.710  0.1186  0.2843 -0.1357
 3572TIP3   OH210721   3.795   3.524   2.120 -0.5891  0.9299 -0.7234
 3572TIP3    H110722   3.890   3.516   2.114 -0.6130  0.9303 -1.1452
 3572TIP3    H210723   3.762   3.477   2.043 -1.0783 -1.8928  1.0561
 3573TIP3   OH210724   2.296   5.873   2.908  0.0475 -0.4092 -0.1892
 3573TIP3    H110725   2.249   5.952   2.879  1.1946 -0.1619 -1.5079
 3573TIP3    H210726   2.227   5.808   2.920 -0.8859  0.6554  0.4933
 3574TIP3   OH210727   6.223   2.306   1.555  0.6643  0.1504  0.3576
 3574TIP3    H110728   6.233   2.312   1.650 -0.0200 -0.0817  0.4435
 3574TIP3    H210729   6.240   2.214   1.534 -1.2246 -0.2722  0.5121
 3575TIP3   OH210730   2.325   4.697   4.840 -0.3773 -0.3029  0.2170
 3575TIP3    H110731   2.363   4.674   4.925  0.9126 -1.4209 -0.6139
 3575TIP3    H210732   2.256   4.631   4.826 -0.6769 -0.0407  0.4391
 3576TIP3   OH210733   3.073   2.691   4.117  0.3106  0.1813 -0.3057
 3576TIP3    H110734   3.165   2.695   4.143  0.3507  2.1820 -0.6056
 3576TIP3    H210735   3.025   2.700   4.199  0.4179  1.5044 -0.3665
 3577TIP3   OH210736   5.829   1.135   2.416 -0.0246  0.1331 -0.4810
 3577TIP3    H110737   5.908   1.163   2.370 -0.8663  2.0135 -0.8872
 3577TIP3    H210738   5.832   1.181   2.500  0.7966 -2.1904  0.8589
 3578TIP3   OH210739   3.784   3.358   0.688 -0.1925  0.2337 -0.4065
 3578TIP3    H110740   3.752   3.347   0.599 -1.5049  1.4763 -0.1244
 3578TIP3    H210741   3.821   3.446   0.690  0.6317 -0.1132  0.0489
 3579TIP3   OH210742   2.322   2.348   1.766  0.0160 -0.1045  0.1147
 3579TIP3    H110743   2.409   2.321   1.794  0.5108  0.2174 -1.0589
 3579TIP3    H210744   2.262   2.304   1.826  0.9793 -0.4106  0.8648
 3580TIP3   OH210745   4.170   0.452   4.824  0.1155 -0.5789 -0.3505
 3580TIP3    H110746   4.119   0.421   4.750  2.0329 -1.9406 -1.2004
 3580TIP3    H210747   4.145   0.396   4.897 -1.2478  0.2929 -0.1149
 3581TIP3   OH210748   2.633   5.990   2.346  0.1954  0.0228 -0.0430
 3581TIP3    H110749   2.694   5.933   2.393  1.3938  0.7339 -0.6941
 3581TIP3    H210750   2.649   5.973   2.253 -1.6469 -0.8444 -0.2449
 3582TIP3   OH210751   1.204   0.718   2.301 -0.2217 -0.2778 -0.2191
 3582TIP3    H110752   1.148   0.678   2.234  0.2642 -0.3970 -0.5657
 3582TIP3    H210753   1.154   0.793   2.333 -1.1562 -1.1644  0.4482
 3583TIP3   OH210754   1.683   3.214   2.593  0.4820 -0.1764 -0.8012
 3583TIP3    H110755   1.756   3.202   2.653 -0.0680  1.0717  0.1778
 3583TIP3    H210756   1.681   3.308   2.576 -1.1658 -0.1072 -0.4279
 3584TIP3   OH210757   0.689   1.202   0.500  0.4948 -0.3904  0.3611
 3584TIP3    H110758   0.698   1.273   0.437  2.0963  0.1813  1.1683
 3584TIP3    H210759   0.598   1.174   0.491  0.0062  1.2771 -0.4881
 3585TIP3   OH210760   3.075   2.714   4.619 -0.2384 -0.3493 -0.7228
 3585TIP3    H110761   3.160   2.679   4.644 -0.2242 -2.0454 -2.8921
 3585TIP3    H210762   3.059   2.680   4.531 -2.9886  0.2315 -0.5509
 3586TIP3   OH210763   1.967   5.255   3.654 -0.3004  0.3588 -0.0101
 3586TIP3    H110764   1.906   5.324   3.679 -0.2971  0.5762 -0.5782
 3586TIP3    H210765   2.040   5.302   3.613 -1.1066 -0.0629 -2.0625
 3587TIP3   OH210766   2.940   1.914   1.900  0.1441  0.2887  0.3931
 3587TIP3    H110767   2.857   1.869   1.916 -0.4563  1.3054  0.2104
 3587TIP3    H210768   2.957   1.900   1.807  0.5715 -0.5463  0.5852
 3588TIP3   OH210769   2.150   0.612   3.111  0.2360 -0.0419  0.3266
 3588TIP3    H110770   2.190   0.529   3.139 -0.1765 -0.1227  0.6991
 3588TIP3    H210771   2.149   0.666   3.191  0.7079  0.4074  0.0324
 3589TIP3   OH210772   1.371   3.844   3.447  0.4318  0.4228  0.1365
 3589TIP3    H110773   1.338   3.787   3.378 -1.0530  1.6953 -0.2600
 3589TIP3    H210774   1.435   3.791   3.495 -1.6043 -1.8882  0.4347
 3590TIP3   OH210775   6.105   0.044   4.407  0.1969 -0.6107 -0.3615
 3590TIP3    H110776   6.026   0.034   4.460  1.9292 -1.8376  2.1587
 3590TIP3    H210777   6.131  -0.046   4.385  2.9373 -0.6215  2.2329
 3591TIP3   OH210778   0.042   4.986   2.679  1.0998  0.1683 -0.0945
 3591TIP3    H110779  -0.026   5.053   2.672  0.4708 -0.5935 -1.7563
 3591TIP3    H210780   0.118   5.033   2.713  0.0887  1.2802  0.7427
 3592TIP3   OH210781   1.851   0.277   3.115 -0.1553 -0.1925  0.0234
 3592TIP3    H110782   1.908   0.267   3.039 -0.3000 -2.6970  0.1424
 3592TIP3    H210783   1.909   0.307   3.185  0.1694  1.1627 -0.7942
 3593TIP3   OH210784   0.475   4.182   0.896 -0.2340  0.2174 -0.0930
 3593TIP3    H110785   0.394   4.143   0.931 -1.3043  0.2441 -2.3759
 3593TIP3    H210786   0.526   4.205   0.974 -2.2022 -0.2485  1.4145
 3594TIP3   OH210787   5.966   1.609   0.577 -0.2470  0.2329  0.3965
 3594TIP3    H110788   5.928   1.577   0.495 -1.2863 -0.4511  1.1262
 3594TIP3    H210789   5.909   1.681   0.604 -1.1385 -0.8562  1.5421
 3595TIP3   OH210790   4.587   4.335   1.137  0.7513 -0.1041 -0.2680
 3595TIP3    H110791   4.552   4.422   1.117 -1.5808 -0.7252  0.7782
 3595TIP3    H210792   4.598   4.334   1.232 -1.9094 -1.7538  0.1381
 3596TIP3   OH210793   2.224   0.220   4.910 -0.7122 -0.5793 -0.6530
 3596TIP3    H110794   2.152   0.161   4.932 -0.5797 -1.0606 -1.4716
 3596TIP3    H210795   2.233   0.213   4.815 -0.0271 -0.0086 -0.6404
 3597TIP3   OH210796   2.738   3.362   4.895 -0.1414  0.1446 -0.3236
 3597TIP3    H110797   2.653   3.324   4.870  0.2116 -0.9445  0.0584
 3597TIP3    H210798   2.774   3.395   4.814 -0.6229 -0.0403 -0.6199
 3598TIP3   OH210799   4.602   5.497   4.806 -0.2262 -0.4951 -0.1833
 3598TIP3    H110800   4.606   5.589   4.832 -0.6196 -0.3703 -0.5464
 3598TIP3    H210801   4.664   5.490   4.733 -0.0723 -0.5556 -0.0464
 3599TIP3   OH210802   5.669   5.056   1.189  0.5375  0.1059  0.1208
 3599TIP3    H110803   5.688   4.988   1.253 -1.1581 -0.1079  0.4487
 3599TIP3    H210804   5.729   5.039   1.117  1.2476 -0.7352  0.8925
 3600TIP3   OH210805   2.914   5.854   2.506 -0.1462 -0.0671  0.1863
 3600TIP3    H110806   3.004   5.834   2.531 -0.1275 -0.5205 -0.2194
 3600TIP3    H210807   2.861   5.790   2.553 -0.2023 -0.1960 -0.0477
 3601TIP3   OH210808   3.109   1.363   1.092  0.6779 -0.2076  0.3175
 3601TIP3    H110809   3.047   1.317   1.037  1.2514 -2.4365  1.4136
 3601TIP3    H210810   3.056   1.424   1.143 -0.6767 -2.0468  1.2181
 3602TIP3   OH210811   4.498   5.064   2.424 -0.0801 -0.5506 -0.4529
 3602TIP3    H110812   4.583   5.107   2.428  0.6938 -2.0349  0.1405
 3602TIP3    H210813   4.484   5.047   2.331  0.9214 -1.4580 -0.4560
 3603TIP3   OH210814   1.026   0.955   2.976 -0.4857 -0.9155  0.1356
 3603TIP3    H110815   1.118   0.932   2.959 -0.3667  1.6922 -4.1576
 3603TIP3    H210816   0.978   0.873   2.967  1.2693 -2.2352  1.9284
 3604TIP3   OH210817   5.973   2.671   1.012  0.1205  0.2435  0.0189
 3604TIP3    H110818   5.981   2.687   1.106 -0.8647  1.9376 -0.1453
 3604TIP3    H210819   5.952   2.578   1.005 -0.2483  0.1902  1.5015
 3605TIP3   OH210820   2.839   1.056   2.065  0.2845 -0.1339  0.1078
 3605TIP3    H110821   2.931   1.045   2.088  0.1908  0.8481  1.0354
 3605TIP3    H210822   2.796   1.074   2.149 -0.6540 -0.0024 -0.3921
 3606TIP3   OH210823   3.696   5.179   2.689  0.6341 -0.4271  0.3230
 3606TIP3    H110824   3.641   5.223   2.754  0.7211 -0.6397  0.5403
 3606TIP3    H210825   3.736   5.106   2.736  0.2577 -0.9232 -0.1110
 3607TIP3   OH210826   2.433   3.223   0.785 -0.0749  0.0642 -0.4661
 3607TIP3    H110827   2.374   3.294   0.758 -0.3609 -0.5978 -1.6646
 3607TIP3    H210828   2.415   3.211   0.878  1.0329  2.5408  0.1471
 3608TIP3   OH210829   2.684   4.928   1.085  0.2230  0.1057  0.4039
 3608TIP3    H110830   2.661   4.892   1.000  0.2134  0.3105  0.3188
 3608TIP3    H210831   2.780   4.924   1.088  0.1986 -0.3738  0.5934
 3609TIP3   OH210832   4.893   4.592   1.143 -0.1035 -0.4372  0.4419
 3609TIP3    H110833   4.967   4.653   1.138  0.0981 -0.4859  2.1948
 3609TIP3    H210834   4.931   4.512   1.180 -0.8422 -0.7966  0.4294
 3610TIP3   OH210835   2.726   4.478   1.963  0.1599 -0.0450  0.0469
 3610TIP3    H110836   2.668   4.405   1.939  1.5626 -0.7334 -1.4682
 3610TIP3    H210837   2.813   4.439   1.964  1.0778  1.7693 -1.7213
 3611TIP3   OH210838   4.786   0.092   1.333 -0.2905 -0.2271 -0.2226
 3611TIP3    H110839   4.798   0.115   1.425 -0.9747  0.7314 -0.3543
 3611TIP3    H210840   4.696   0.058   1.329  0.1918 -1.5450 -0.3092
 3612TIP3   OH210841   5.362   1.978   1.566  0.0779 -0.1419  1.1445
 3612TIP3    H110842   5.300   1.912   1.597  0.4657 -0.3967  1.3904
 3612TIP3    H210843   5.426   1.986   1.637 -0.6773  1.4512  1.6778
 3613TIP3   OH210844   3.412   3.719   4.631 -0.2875  0.2242 -0.1973
 3613TIP3    H110845   3.336   3.758   4.673 -0.7937  1.1170 -1.8543
 3613TIP3    H210846   3.484   3.736   4.691 -0.8161  2.2233 -0.0590
 3614TIP3   OH210847   4.918   5.379   2.068  0.2754  0.4494 -0.0340
 3614TIP3    H110848   4.912   5.413   2.157  0.4970  0.2553  0.0568
 3614TIP3    H210849   4.978   5.439   2.024  1.0441 -0.0862  0.2576
 3615TIP3   OH210850   4.919   3.023   3.948 -0.0056  0.0219 -0.2007
 3615TIP3    H110851   4.957   3.001   4.033 -2.0118  1.0961  1.0574
 3615TIP3    H210852   4.872   3.105   3.964  0.7456  1.0284 -2.7377
 3616TIP3   OH210853   3.097   0.221   4.579 -0.2569 -0.0572  0.0143
 3616TIP3    H110854   3.010   0.257   4.593 -0.8767 -1.5969  0.2777
 3616TIP3    H210855   3.082   0.137   4.535  1.1631  0.2315 -1.1131
 3617TIP3   OH210856   2.345   2.706   3.899 -0.1852  0.1327  0.1164
 3617TIP3    H110857   2.384   2.662   3.824 -1.8951 -0.4461 -0.4829
 3617TIP3    H210858   2.407   2.775   3.922  2.3044 -2.1487  0.7054
 3618TIP3   OH210859   1.654   2.357   1.142 -0.5714 -0.4015 -0.0452
 3618TIP3    H110860   1.600   2.434   1.158 -2.6740 -2.0387  1.3086
 3618TIP3    H210861   1.736   2.375   1.189 -1.7557  0.2962  1.8772
 3619TIP3   OH210862   3.772   5.139   1.104  0.1089 -0.9028 -0.6313
 3619TIP3    H110863   3.842   5.074   1.094  2.7312  1.5096  0.4373
 3619TIP3    H210864   3.806   5.217   1.061 -2.7449 -0.0427 -1.5339
 3620TIP3   OH210865   3.186   4.661   0.764  0.2731 -0.1980  0.1239
 3620TIP3    H110866   3.185   4.717   0.686  0.3893 -1.6290 -0.9382
 3620TIP3    H210867   3.276   4.665   0.796  0.5408 -0.5971 -0.5679
 3621TIP3   OH210868   4.944   2.699   3.110 -0.0825 -0.0224  0.0265
 3621TIP3    H110869   5.003   2.689   3.036 -0.0449 -0.2746  0.0862
 3621TIP3    H210870   4.860   2.723   3.071  0.2036  0.9439 -0.0132
 3622TIP3   OH210871   4.413   0.593   2.695  0.2537 -0.0836 -0.0042
 3622TIP3    H110872   4.451   0.670   2.737  0.8789 -0.5787  0.3565
 3622TIP3    H210873   4.477   0.568   2.628 -0.3450  0.2022 -0.7048
 3623TIP3   OH210874   5.119   2.060   3.619 -0.4468  0.0934 -0.2033
 3623TIP3    H110875   5.076   2.119   3.558  0.2947  0.6909 -0.1603
 3623TIP3    H210876   5.134   1.980   3.569  0.3356  0.6466 -0.8816
 3624TIP3   OH210877   2.901   5.751   1.011 -0.1462 -0.0823  0.2036
 3624TIP3    H110878   2.993   5.777   1.008 -0.0008 -0.6072 -0.0102
 3624TIP3    H210879   2.853   5.834   1.017  0.2368  0.3436 -1.7530
 3625TIP3   OH210880   0.393   0.473   1.859 -0.4042 -0.5082 -0.2940
 3625TIP3    H110881   0.383   0.380   1.879  0.1109 -0.4527  0.2410
 3625TIP3    H210882   0.389   0.477   1.764  2.0858 -1.4088 -0.4970
 3626TIP3   OH210883   0.828   1.495   2.847 -0.1360 -0.0848  0.5166
 3626TIP3    H110884   0.748   1.546   2.859 -0.8786 -0.9721 -0.3635
 3626TIP3    H210885   0.807   1.409   2.885  1.0854  0.2384  1.9905
 3627TIP3   OH210886   2.887   2.049   0.279  0.0342  0.4482 -0.4792
 3627TIP3    H110887   2.922   2.129   0.318 -1.5503 -0.0188  2.1185
 3627TIP3    H210888   2.813   2.079   0.226 -0.1301  0.7690 -0.0719
 3628TIP3   OH210889   0.883   2.569   2.215 -0.0992  0.3296  0.1567
 3628TIP3    H110890   0.808   2.561   2.157  0.0983  2.0720 -0.3844
 3628TIP3    H210891   0.907   2.478   2.236 -1.9248 -0.2704 -0.1737
 3629TIP3   OH210892   3.325   4.062   3.415  0.0755 -0.0194  0.1985
 3629TIP3    H110893   3.240   4.104   3.426  0.7019  1.9133 -1.6248
 3629TIP3    H210894   3.378   4.127   3.369  1.6972 -2.2001 -1.2097
 3630TIP3   OH210895   0.511   1.871   3.667 -0.0351  0.1572  0.3585
 3630TIP3    H110896   0.454   1.848   3.740 -1.3649 -0.8091 -0.9190
 3630TIP3    H210897   0.541   1.959   3.687  0.2885 -0.3763  2.4378
 3631TIP3   OH210898   2.395   5.876   1.135 -0.0320 -0.4289 -0.0823
 3631TIP3    H110899   2.464   5.815   1.160  0.8622  0.0286 -1.2979
 3631TIP3    H210900   2.340   5.826   1.074 -0.0739 -0.4400 -0.0344
 3632TIP3   OH210901   3.006   5.697   3.469  0.0806 -0.1499 -0.9960
 3632TIP3    H110902   3.027   5.710   3.561 -0.2414  1.2808 -1.0888
 3632TIP3    H210903   2.911   5.711   3.463  0.1839  0.3946 -1.6164
 3633TIP3   OH210904   5.848   4.402   0.218 -0.3548  0.1413  0.3822
 3633TIP3    H110905   5.771   4.357   0.251 -0.3972  0.9991  1.5170
 3633TIP3    H210906   5.816   4.487   0.189 -0.3946 -0.7318 -2.4012
 3634TIP3   OH210907   3.809   5.970   1.503  0.4250 -0.8064  0.1603
 3634TIP3    H110908   3.715   5.960   1.491  0.3915  0.7660 -1.2362
 3634TIP3    H210909   3.847   5.898   1.453  0.0003  0.4079 -2.0364
 3635TIP3   OH210910   2.276   0.320   2.271  0.4097 -0.4586 -0.1646
 3635TIP3    H110911   2.230   0.323   2.355  0.6518 -2.0780  0.0589
 3635TIP3    H210912   2.255   0.234   2.235  1.5076 -0.3681 -1.0889
 3636TIP3   OH210913   4.949   5.107   2.338  0.1301 -0.0161 -0.2558
 3636TIP3    H110914   4.970   5.081   2.248 -1.7737  0.1973 -0.8116
 3636TIP3    H210915   4.862   5.147   2.331  0.0043  0.1186  1.6721
 3637TIP3   OH210916   5.400   3.164   1.436  0.0046  0.2222 -0.3209
 3637TIP3    H110917   5.416   3.074   1.409 -1.3325 -0.9144  2.3155
 3637TIP3    H210918   5.474   3.186   1.492 -0.8265 -0.1157  0.9322
 3638TIP3   OH210919   1.501   1.923   3.410 -0.3277 -0.1851 -0.1050
 3638TIP3    H110920   1.564   1.875   3.464  0.3386  0.2063 -0.5241
 3638TIP3    H210921   1.450   1.974   3.473  2.9116  3.3104  0.0890
 3639TIP3   OH210922   5.753   2.772   0.889 -0.4394  0.1405  0.5410
 3639TIP3    H110923   5.685   2.707   0.868 -1.2310  1.1337 -0.0809
 3639TIP3    H210924   5.835   2.726   0.873 -0.9754 -0.3537 -1.0933
 3640TIP3   OH210925   3.088   0.668   0.268 -0.5606  0.3290  0.0328
 3640TIP3    H110926   3.140   0.737   0.309  0.3144 -0.8622  1.0307
 3640TIP3    H210927   3.134   0.649   0.186  0.7658 -0.8345  0.9852
 3641TIP3   OH210928   3.878   4.530   1.743 -0.0051  0.1558 -0.4637
 3641TIP3    H110929   3.803   4.508   1.688  0.4603  1.3457 -1.6245
 3641TIP3    H210930   3.841   4.543   1.830 -1.1649  0.7866 -1.0265
 3642TIP3   OH210931   0.624   1.991   4.780  0.5961  0.0753  0.2889
 3642TIP3    H110932   0.704   1.982   4.832 -0.4889 -2.1600  1.7358
 3642TIP3    H210933   0.579   2.066   4.818  0.8546 -0.1897  1.1439
 3643TIP3   OH210934   3.638   4.446   2.425  0.4800 -0.1809  0.0741
 3643TIP3    H110935   3.591   4.495   2.492  2.0465  0.0787  1.0481
 3643TIP3    H210936   3.601   4.475   2.342  0.1357  1.2854  0.7195
 3644TIP3   OH210937   3.750   0.433   0.770  0.5161  0.2311 -0.0923
 3644TIP3    H110938   3.731   0.340   0.764 -1.5492  0.5883  0.3506
 3644TIP3    H210939   3.833   0.437   0.819  0.2816 -1.3258  0.4966
 3645TIP3   OH210940   3.566   4.080   3.583 -0.6363  0.0730 -0.3442
 3645TIP3    H110941   3.560   3.988   3.607 -0.2970  0.0552 -0.3246
 3645TIP3    H210942   3.486   4.097   3.534 -1.9077  0.3843  1.7061
 3646TIP3   OH210943   4.442   1.879   2.371  0.3263 -0.0559 -0.4706
 3646TIP3    H110944   4.387   1.882   2.293 -0.6183  0.6725  0.2132
 3646TIP3    H210945   4.530   1.862   2.337 -0.2439 -0.8301 -1.6037
 3647TIP3   OH210946   2.738   3.048   0.962  0.0215  0.1988 -0.4731
 3647TIP3    H110947   2.721   3.133   0.922 -0.2076  1.3453  1.9177
 3647TIP3    H210948   2.659   3.028   1.012  0.5991 -0.7818  0.0805
 3648TIP3   OH210949   2.373   3.563   2.389 -0.5958 -0.2120  0.3003
 3648TIP3    H110950   2.315   3.524   2.324  0.3496  1.0441 -1.3866
 3648TIP3    H210951   2.452   3.511   2.385  0.6885  1.6868 -1.9932
 3649TIP3   OH210952   6.261   3.173   4.077 -0.1903  0.2008  0.0481
 3649TIP3    H110953   6.355   3.191   4.067  0.0353  1.1915  2.8981
 3649TIP3    H210954   6.257   3.079   4.096  0.0932 -0.0527 -1.0697
 3650TIP3   OH210955   0.717   4.424   3.445 -0.2987  0.0090  0.4259
 3650TIP3    H110956   0.785   4.395   3.384  0.2601 -3.0245  2.2538
 3650TIP3    H210957   0.636   4.422   3.393  0.3602 -0.9974 -0.6066
 3651TIP3   OH210958   6.203   1.026   3.172 -0.6330 -0.7260 -0.1462
 3651TIP3    H110959   6.217   0.931   3.174 -0.5240 -0.7052  1.1775
 3651TIP3    H210960   6.291   1.063   3.180 -0.7466 -0.5222  0.1790
 3652TIP3   OH210961   1.519   4.307   4.034 -0.6601  0.4972  0.4396
 3652TIP3    H110962   1.595   4.309   3.976 -0.9851  0.8924  0.0252
 3652TIP3    H210963   1.525   4.221   4.077 -0.4103  0.2045 -0.1644
 3653TIP3   OH210964   2.742   5.003   2.173 -0.1780 -0.2086  0.8126
 3653TIP3    H110965   2.783   4.975   2.255  0.2291 -0.8918  0.3896
 3653TIP3    H210966   2.749   4.927   2.116 -0.9135  0.0915  0.3071
 3654TIP3   OH210967   5.238   2.441   4.042  1.0353 -0.1098 -0.0756
 3654TIP3    H110968   5.298   2.466   4.112  0.9487  0.3037 -0.1454
 3654TIP3    H210969   5.156   2.484   4.063  0.5227 -1.2969  0.4248
 3655TIP3   OH210970   4.918   1.529   3.544 -0.7108 -0.5296 -0.3609
 3655TIP3    H110971   4.951   1.619   3.533 -2.0461  0.2867  1.7042
 3655TIP3    H210972   4.990   1.484   3.589 -0.2008 -0.3932 -1.0162
 3656TIP3   OH210973   2.884   3.823   0.268  0.7627 -0.2926  0.0375
 3656TIP3    H110974   2.825   3.859   0.335 -1.4414 -0.4073 -1.7132
 3656TIP3    H210975   2.865   3.729   0.267  0.1819 -0.1815 -1.2455
 3657TIP3   OH210976   5.002   5.375   3.253 -0.0707  0.2200  0.1894
 3657TIP3    H110977   5.036   5.460   3.279 -0.5272  0.5176 -0.1608
 3657TIP3    H210978   4.960   5.341   3.332 -0.6727  0.7254  0.0998
 3658TIP3   OH210979   3.644   2.722   2.229  0.1432 -0.3617  0.1762
 3658TIP3    H110980   3.618   2.630   2.234  1.1772 -0.6676  0.1393
 3658TIP3    H210981   3.655   2.739   2.136 -1.4823  0.2331  0.0646
 3659TIP3   OH210982   4.400   5.141   3.392  0.5005  0.7846  0.0437
 3659TIP3    H110983   4.317   5.167   3.432 -0.3689 -0.3084 -0.9891
 3659TIP3    H210984   4.375   5.098   3.311  1.9361 -1.5167  0.7250
 3660TIP3   OH210985   0.294   5.873   1.821  0.5061 -0.2738 -0.6180
 3660TIP3    H110986   0.221   5.935   1.824  2.8421  2.6224  1.7270
 3660TIP3    H210987   0.265   5.800   1.875 -1.5681 -0.4584 -1.8619
 3661TIP3   OH210988   0.793   5.267   3.328 -0.5480 -0.0237 -0.0714
 3661TIP3    H110989   0.814   5.225   3.245 -1.7347  0.0300 -0.4201
 3661TIP3    H210990   0.811   5.201   3.394  1.7079  0.3658 -0.2063
 3662TIP3   OH210991   1.453   3.015   1.954  0.2647 -0.5319  0.6184
 3662TIP3    H110992   1.384   2.978   1.900 -1.0637  1.4948  0.7871
 3662TIP3    H210993   1.427   2.994   2.044 -0.4885  0.6937  0.7143
 3663TIP3   OH210994   1.374   2.051   3.615 -0.0561 -0.4864  0.2282
 3663TIP3    H110995   1.283   2.074   3.635  0.3232  0.5609  0.7976
 3663TIP3    H210996   1.418   2.049   3.700  0.2510 -2.0227  0.0757
 3664TIP3   OH210997   1.226   1.233   4.514  0.4740 -0.1398 -0.3597
 3664TIP3    H110998   1.151   1.177   4.492 -0.5904  1.1815 -0.2649
 3664TIP3    H210999   1.234   1.292   4.439  0.8208  0.3415  0.0499
 3665TIP3   OH211000   3.206   3.814   0.272 -0.1060  0.1111  0.4311
 3665TIP3    H111001   3.118   3.790   0.302  0.3241 -0.6470  1.1515
 3665TIP3    H211002   3.192   3.876   0.201 -1.2120  1.8794  2.0748
 3666TIP3   OH211003   5.093   2.437   0.281  0.1355  0.5539  0.1509
 3666TIP3    H111004   5.034   2.475   0.216  0.1263 -0.0056 -0.1789
 3666TIP3    H211005   5.041   2.428   0.360 -0.7516 -1.5311 -0.6196
 3667TIP3   OH211006   1.231   3.613   3.502  0.2644  0.0558  0.1105
 3667TIP3    H111007   1.289   3.554   3.550 -1.1239 -1.1590  0.3576
 3667TIP3    H211008   1.207   3.564   3.423 -0.6541  0.3915  0.1685
 3668TIP3   OH211009   1.586   1.121   3.636  0.2578  0.0742 -0.1411
 3668TIP3    H111010   1.657   1.065   3.667 -0.7434 -0.8201  0.5886
 3668TIP3    H211011   1.600   1.205   3.680 -0.4415 -0.7984  1.8700
 3669TIP3   OH211012   1.151   3.455   4.053 -0.3535  0.1754  0.0902
 3669TIP3    H111013   1.121   3.521   3.989  0.6469  0.1045 -0.4732
 3669TIP3    H211014   1.187   3.507   4.125 -1.4705  0.2557  0.6113
 3670TIP3   OH211015   5.827   5.909   5.042  0.1510  0.1954 -0.1990
 3670TIP3    H111016   5.781   5.900   5.126  0.2909  2.4898  0.2010
 3670TIP3    H211017   5.780   5.980   4.997  0.0918 -0.9863 -2.0820
 3671TIP3   OH211018   5.799   2.407   0.394 -0.0357  0.5252  0.2204
 3671TIP3    H111019   5.879   2.416   0.342  1.9953  1.2732  3.2317
 3671TIP3    H211020   5.794   2.314   0.416 -0.2108  0.4181 -0.2649
 3672TIP3   OH211021   4.564   3.488   1.072  0.3169 -0.1238  0.2835
 3672TIP3    H111022   4.632   3.458   1.133 -1.4471  0.8708  2.9024
 3672TIP3    H211023   4.532   3.407   1.031  1.1209 -0.9193  1.1645
 3673TIP3   OH211024   1.173   2.924   1.052  0.0930  0.0320 -0.3228
 3673TIP3    H111025   1.219   2.842   1.070  0.6261  0.3347 -0.2777
 3673TIP3    H211026   1.215   2.987   1.110 -1.5871 -0.0467  1.0750
 3674TIP3   OH211027   5.415   4.258   0.680  0.2391 -0.3151  0.3301
 3674TIP3    H111028   5.509   4.277   0.684 -0.1254  2.3388 -1.3134
 3674TIP3    H211029   5.374   4.342   0.658 -2.6634 -1.1406  2.0515
 3675TIP3   OH211030   5.039   0.483   1.834 -0.0463 -0.7353 -0.1912
 3675TIP3    H111031   5.111   0.476   1.898  0.7908  1.0062 -0.9043
 3675TIP3    H211032   4.961   0.459   1.884  0.7133 -0.2999  1.2608
 3676TIP3   OH211033   1.776   3.887   2.360  0.5812 -0.6042  0.7762
 3676TIP3    H111034   1.735   3.943   2.294  1.1208 -1.2037 -0.0958
 3676TIP3    H211035   1.869   3.890   2.339  0.7865 -0.6638  1.6339
 3677TIP3   OH211036   6.169   5.401   3.097  0.7495  0.2552 -0.1489
 3677TIP3    H111037   6.184   5.306   3.089 -0.6711  0.0580 -0.7142
 3677TIP3    H211038   6.105   5.421   3.030 -1.5692  1.0116  2.1431
 3678TIP3   OH211039   3.414   5.370   0.783 -0.9564  0.1623  0.0810
 3678TIP3    H111040   3.443   5.366   0.874 -1.7338 -0.4372  0.3046
 3678TIP3    H211041   3.490   5.340   0.733 -1.0639 -1.1107  0.6415
 3679TIP3   OH211042   1.139   0.594   1.350 -0.0017  0.1853 -0.3966
 3679TIP3    H111043   1.174   0.681   1.330 -0.3031  0.2627 -0.5863
 3679TIP3    H211044   1.213   0.547   1.387  0.0108  0.7280  0.3073
 3680TIP3   OH211045   0.215   5.035   2.974 -0.1321 -0.6698  0.4788
 3680TIP3    H111046   0.227   5.066   2.884 -0.1324 -0.3198  0.5969
 3680TIP3    H211047   0.247   4.945   2.973 -0.2018 -0.6916  0.1103
 3681TIP3   OH211048   3.618   2.731   0.330  0.3781 -0.3063 -0.2263
 3681TIP3    H111049   3.660   2.694   0.253  1.7993 -0.4680  0.6002
 3681TIP3    H211050   3.643   2.674   0.402  2.5830  2.0926  1.0835
 3682TIP3   OH211051   2.959   4.754   2.663  0.2063  0.2775  0.0750
 3682TIP3    H111052   2.931   4.842   2.689 -0.6004 -0.1980  0.8797
 3682TIP3    H211053   2.878   4.704   2.655  0.6259 -0.3106 -0.7560
 3683TIP3   OH211054   5.239   5.128   2.522  0.8791 -0.4192  0.6185
 3683TIP3    H111055   5.189   5.047   2.530 -0.0523  0.2882  3.0572
 3683TIP3    H211056   5.319   5.112   2.572  0.9605 -0.0453  0.6096
 3684TIP3   OH211057   0.271   1.411   1.907  0.1537 -0.2241 -0.2206
 3684TIP3    H111058   0.281   1.332   1.854 -0.1959 -0.4641  0.0639
 3684TIP3    H211059   0.248   1.480   1.845 -1.5492 -0.7683 -0.2437
 3685TIP3   OH211060   5.519   4.704   1.533  0.5411  0.6120  0.0562
 3685TIP3    H111061   5.427   4.696   1.510  0.0012  1.0236  1.9319
 3685TIP3    H211062   5.522   4.693   1.628  2.3890  0.9127  0.0801
 3686TIP3   OH211063   1.921   4.074   1.496  0.0080  0.1511 -0.0807
 3686TIP3    H111064   1.863   4.092   1.570  0.6734  0.9680  0.2549
 3686TIP3    H211065   1.988   4.141   1.501  1.0767 -0.8713 -0.3796
 3687TIP3   OH211066   2.234   5.888   0.674  0.0584  0.0242 -0.0923
 3687TIP3    H111067   2.238   5.965   0.618 -1.7201  0.3247  0.1473
 3687TIP3    H211068   2.148   5.892   0.715  0.2957 -1.5946  0.6475
 3688TIP3   OH211069   5.554   0.405   2.278 -0.3045  0.2630 -0.4572
 3688TIP3    H111070   5.546   0.485   2.225 -1.0726 -0.3080 -1.2235
 3688TIP3    H211071   5.626   0.425   2.339  1.4464  0.5384 -2.4658
 3689TIP3   OH211072   3.894   4.820   0.090  0.2634 -0.5151  0.1011
 3689TIP3    H111073   3.890   4.913   0.111 -1.3519 -0.1266 -1.6783
 3689TIP3    H211074   3.871   4.776   0.171  0.2484  0.6550  0.7505
 3690TIP3   OH211075   5.060   4.933   2.517  0.0891  0.1601  0.6331
 3690TIP3    H111076   5.010   4.975   2.446 -0.6471 -0.4936  0.7490
 3690TIP3    H211077   5.063   4.841   2.492  1.2878  0.1850  0.6184
 3691TIP3   OH211078   0.508   4.598   3.199 -0.6105  0.8605 -0.3352
 3691TIP3    H111079   0.520   4.688   3.229 -3.3381  1.2282 -0.0711
 3691TIP3    H211080   0.417   4.578   3.222 -0.3498 -1.6451 -1.2429
 3692TIP3   OH211081   3.459   2.686   2.845 -0.3421  0.0664 -0.0855
 3692TIP3    H111082   3.458   2.599   2.883 -1.0490  0.4263  0.7506
 3692TIP3    H211083   3.432   2.744   2.916  0.4841  1.0106 -0.5246
 3693TIP3   OH211084   4.067   0.207   0.879 -0.0127  0.0476 -0.2033
 3693TIP3    H111085   4.048   0.219   0.972 -0.8126 -0.1675 -0.3288
 3693TIP3    H211086   4.100   0.118   0.872  1.4193  0.5369  0.0669
 3694TIP3   OH211087   0.730   4.603   2.054 -1.0525  0.3149 -0.1215
 3694TIP3    H111088   0.781   4.637   1.981  1.0067  0.8663  1.4693
 3694TIP3    H211089   0.724   4.508   2.037  1.3265  0.0750  0.0479
 3695TIP3   OH211090   4.272   3.232   3.496 -0.1027 -0.2453  0.4897
 3695TIP3    H111091   4.262   3.327   3.502  0.7526 -0.2164  1.7226
 3695TIP3    H211092   4.298   3.216   3.405  1.3576  0.8705  0.6740
 3696TIP3   OH211093   2.966   5.311   3.832 -0.0719 -0.4362 -0.0090
 3696TIP3    H111094   2.975   5.398   3.871  0.2778 -0.8384  0.8116
 3696TIP3    H211095   3.056   5.283   3.814 -0.2387 -0.0856 -1.5061
 3697TIP3   OH211096   2.669   0.196   2.233  0.1531  0.1874 -0.4564
 3697TIP3    H111097   2.764   0.185   2.238  0.2635  0.4387 -1.7327
 3697TIP3    H211098   2.637   0.110   2.207  0.2070  0.5253 -1.7098
 3698TIP3   OH211099   5.152   1.291   2.354 -0.1891  0.1000  0.1232
 3698TIP3    H111100   5.064   1.275   2.389 -0.1908 -0.0952  0.0290
 3698TIP3    H211101   5.187   1.204   2.336  0.3776  0.1143  1.0376
 3699TIP3   OH211102   0.897   4.133   1.969 -0.1641 -0.2999  0.4812
 3699TIP3    H111103   0.983   4.135   1.926  0.5317  1.3604  1.8226
 3699TIP3    H211104   0.915   4.096   2.056 -1.2812 -2.2250 -0.0624
 3700TIP3   OH211105   2.817   2.641   3.934  0.1397 -0.3180  0.2602
 3700TIP3    H111106   2.864   2.725   3.932  0.3764 -0.4569 -0.2556
 3700TIP3    H211107   2.785   2.634   4.024  0.3505  0.1979  0.3828
 3701TIP3   OH211108   3.262   1.991   0.744 -0.0488 -0.0691 -0.0847
 3701TIP3    H111109   3.309   1.907   0.746  1.4554  0.7299 -0.2562
 3701TIP3    H211110   3.187   1.975   0.686 -0.0053 -1.3914  0.1901
 3702TIP3   OH211111   0.357   0.878   3.989 -0.3301 -0.1732 -0.1465
 3702TIP3    H111112   0.420   0.855   4.058 -0.8509  0.0794  0.4211
 3702TIP3    H211113   0.272   0.860   4.028 -0.6181 -0.5038 -0.9109
 3703TIP3   OH211114   3.237   0.285   1.318  0.2369 -0.2043  0.0016
 3703TIP3    H111115   3.290   0.256   1.244  0.1540  0.6311 -0.3956
 3703TIP3    H211116   3.247   0.216   1.383  2.8102  0.4838  0.4417
 3704TIP3   OH211117   4.880   4.266   3.220 -0.3105 -0.0370 -0.0452
 3704TIP3    H111118   4.907   4.179   3.250  1.5748 -0.1258 -1.7812
 3704TIP3    H211119   4.913   4.272   3.130 -0.2984  2.5204  0.0531
 3705TIP3   OH211120   4.794   2.295   3.122  0.0502  0.0706 -0.2128
 3705TIP3    H111121   4.734   2.358   3.162 -0.0331  0.3107 -0.6969
 3705TIP3    H211122   4.876   2.344   3.112 -0.0316  0.1288 -0.6413
 3706TIP3   OH211123   5.352   3.716   3.466  0.0796  0.3053  0.4374
 3706TIP3    H111124   5.378   3.807   3.480 -1.5041  0.7779  0.5526
 3706TIP3    H211125   5.397   3.690   3.385  0.1917  1.3405  0.1567
 3707TIP3   OH211126   0.812   2.306   4.670  0.2915  0.1515  0.5604
 3707TIP3    H111127   0.895   2.293   4.715  1.3461 -3.0645 -1.9034
 3707TIP3    H211128   0.748   2.258   4.724  0.4487  0.7621  1.3050
 3708TIP3   OH211129   6.268   1.957   5.148  0.2493 -0.2688 -0.2574
 3708TIP3    H111130   6.204   1.973   5.078  0.4356 -0.1334 -0.3965
 3708TIP3    H211131   6.244   2.021   5.216  0.2754 -0.1745 -0.3360
 3709TIP3   OH211132   5.047   2.166   3.364  0.5493  0.0490  0.2273
 3709TIP3    H111133   5.036   2.151   3.270  0.4854 -0.4987  0.3190
 3709TIP3    H211134   5.010   2.253   3.379 -0.8759 -0.4955  0.0076
 3710TIP3   OH211135   4.507   2.668   0.603 -0.0278  0.3784 -0.3392
 3710TIP3    H111136   4.432   2.691   0.548 -0.8648 -0.1272  0.5813
 3710TIP3    H211137   4.471   2.616   0.674  1.2588 -0.2516 -0.1133
 3711TIP3   OH211138   2.909   3.112   4.516 -0.3297  0.7072 -0.0320
 3711TIP3    H111139   2.873   3.026   4.538  0.3732  0.0685 -1.2876
 3711TIP3    H211140   2.898   3.164   4.596 -1.3764 -0.3400  0.5223
 3712TIP3   OH211141   0.594   3.129   2.847 -0.0891  0.5641  0.3017
 3712TIP3    H111142   0.591   3.172   2.761 -0.6886  2.6625  1.3018
 3712TIP3    H211143   0.601   3.035   2.827 -1.8099  0.8497 -2.0631
 3713TIP3   OH211144   3.821   2.536   4.562  0.5186 -0.0297  0.2673
 3713TIP3    H111145   3.771   2.455   4.573  0.9904 -0.2567  0.7999
 3713TIP3    H211146   3.897   2.511   4.509 -0.0683  0.3758 -0.7862
 3714TIP3   OH211147   3.728   3.384   4.500 -0.2815 -0.0210 -0.7065
 3714TIP3    H111148   3.684   3.308   4.540 -1.0591  0.3304 -0.8786
 3714TIP3    H211149   3.799   3.346   4.449  0.7033 -0.5045  0.9177
 3715TIP3   OH211150   3.672   2.390   3.671  0.2802  0.0847  0.7081
 3715TIP3    H111151   3.633   2.474   3.648 -0.2764 -0.6918 -1.4123
 3715TIP3    H211152   3.655   2.380   3.765 -1.9439  1.1567  0.4765
 3716TIP3   OH211153   6.082   3.952   4.099 -0.2387 -0.3552  0.1491
 3716TIP3    H111154   6.072   3.906   4.015  1.3172 -1.4048  0.5039
 3716TIP3    H211155   6.086   3.882   4.164 -0.9191  0.4304  1.0754
 3717TIP3   OH211156   0.633   3.690   0.272 -0.4843 -0.2132  0.5511
 3717TIP3    H111157   0.539   3.674   0.265 -0.4655 -0.2408  0.3643
 3717TIP3    H211158   0.665   3.621   0.330 -0.6956  0.2205  1.1962
 3718TIP3   OH211159   0.159   3.755   2.297 -0.2127  0.5091 -0.3248
 3718TIP3    H111160   0.179   3.711   2.214 -1.7020 -0.9357  0.0405
 3718TIP3    H211161   0.080   3.806   2.279 -1.2959 -0.8123  0.4783
 3719TIP3   OH211162   4.745   4.382   4.523  0.0312 -0.5376  0.1769
 3719TIP3    H111163   4.737   4.447   4.453  1.3710  0.8274  1.2400
 3719TIP3    H211164   4.781   4.305   4.480  0.8285  0.2779 -0.6572
 3720TIP3   OH211165   4.646   4.471   0.369 -0.3833  0.2405  0.6777
 3720TIP3    H111166   4.705   4.419   0.315 -0.6960 -0.8611  1.3546
 3720TIP3    H211167   4.700   4.497   0.444  0.2801  2.4360 -0.4747
 3721TIP3   OH211168   4.081   4.275   4.452 -0.3567 -0.2251 -0.4165
 3721TIP3    H111169   4.112   4.311   4.535 -0.7300  0.7917 -0.7096
 3721TIP3    H211170   4.025   4.202   4.477  0.5709 -0.7615  0.1797
 3722TIP3   OH211171   0.476   0.981   2.438 -0.2645 -0.1919  0.6477
 3722TIP3    H111172   0.571   0.990   2.436 -0.0976 -1.7702  0.0685
 3722TIP3    H211173   0.454   0.930   2.360 -1.5098 -0.4227  1.1153
 3723TIP3   OH211174   5.154   0.076   0.442 -0.1113 -0.9037  0.2708
 3723TIP3    H111175   5.232   0.020   0.444  1.0848  0.7294  1.5589
 3723TIP3    H211176   5.158   0.127   0.523 -1.7822  0.2326 -0.2995
 3724TIP3   OH211177   1.833   1.854   2.922 -0.0811 -0.3293  0.3694
 3724TIP3    H111178   1.774   1.922   2.955  0.0189 -0.0803  0.0427
 3724TIP3    H211179   1.774   1.790   2.882 -0.0705  0.6201 -1.2415
 3725TIP3   OH211180   5.416   1.368   1.946 -0.0298 -0.1184 -0.1916
 3725TIP3    H111181   5.326   1.366   1.979  0.4886 -0.3895  1.3057
 3725TIP3    H211182   5.407   1.367   1.851 -1.6007 -0.5585 -0.0662
 3726TIP3   OH211183   2.789   4.403   0.210 -0.4803  0.7132 -0.1885
 3726TIP3    H111184   2.777   4.310   0.229  0.5999  0.4081 -0.8424
 3726TIP3    H211185   2.703   4.442   0.221 -1.1534 -0.5407 -0.7819
 3727TIP3   OH211186   2.093   0.202   3.604  0.2005  0.0072  0.5483
 3727TIP3    H111187   2.175   0.156   3.586  1.6003  2.8859 -1.1091
 3727TIP3    H211188   2.031   0.165   3.542  0.8477 -0.6510  0.2716
 3728TIP3   OH211189   1.189   2.510   2.551  0.2405 -0.3426  0.4171
 3728TIP3    H111190   1.197   2.598   2.589  1.0330  0.2696 -1.0441
 3728TIP3    H211191   1.114   2.471   2.594 -0.7242  1.4294  0.4244
 3729TIP3   OH211192   3.174   5.011   5.122  0.1593 -0.1559 -0.0212
 3729TIP3    H111193   3.133   5.092   5.152  3.0220  1.6414 -0.6308
 3729TIP3    H211194   3.156   5.007   5.028 -0.1679 -0.3746  0.0476
 3730TIP3   OH211195   5.529   0.840   3.859  0.4322  0.2045 -0.1621
 3730TIP3    H111196   5.511   0.818   3.950 -0.3328  0.9335 -0.1229
 3730TIP3    H211197   5.587   0.770   3.828 -0.5278 -0.8916  0.4294
 3731TIP3   OH211198   0.444   2.738   3.811 -0.3474  0.2631  0.3546
 3731TIP3    H111199   0.537   2.724   3.796 -0.8046 -3.1414 -0.0001
 3731TIP3    H211200   0.403   2.721   3.726 -1.5126 -1.6598  1.2352
 3732TIP3   OH211201   5.009   3.604   2.129 -0.1596 -0.2538  0.0845
 3732TIP3    H111202   5.015   3.603   2.224 -1.4304  2.1514  0.2820
 3732TIP3    H211203   5.084   3.657   2.101  1.3027 -2.4636 -0.4850
 3733TIP3   OH211204   4.579   0.801   4.040 -0.1701  0.1201 -0.2644
 3733TIP3    H111205   4.573   0.886   3.996  0.4573  0.2724 -0.0623
 3733TIP3    H211206   4.623   0.744   3.977  0.7361  0.3403  0.1542
 3734TIP3   OH211207   1.874   2.882   1.089  0.3873 -0.1871  0.0029
 3734TIP3    H111208   1.967   2.884   1.111  0.2431 -2.1700  1.0620
 3734TIP3    H211209   1.829   2.894   1.172 -0.2261 -1.9934 -0.0064
 3735TIP3   OH211210   2.536   2.539   1.898  0.1172  0.1028 -0.5999
 3735TIP3    H111211   2.609   2.507   1.952  0.1742  1.0804 -0.0827
 3735TIP3    H211212   2.574   2.549   1.811  0.0811 -1.2690 -0.7990
 3736TIP3   OH211213   1.192   5.947   1.200 -0.3428  0.0904  0.4365
 3736TIP3    H111214   1.100   5.924   1.213 -0.0605 -1.5569 -0.2490
 3736TIP3    H211215   1.241   5.875   1.240  0.6829  1.3543  1.5418
 3737TIP3   OH211216   0.421   4.397   2.061  0.0711 -0.5422 -0.0373
 3737TIP3    H111217   0.391   4.334   2.126 -0.1067 -0.2445  0.1684
 3737TIP3    H211218   0.513   4.376   2.048  0.1141 -0.5807  0.3321
 3738TIP3   OH211219   4.986   5.854   2.017 -0.4099 -0.2940 -0.1731
 3738TIP3    H111220   4.952   5.840   1.928  0.9095  0.7381 -0.8776
 3738TIP3    H211221   5.080   5.860   2.006 -0.1540 -0.8911  1.4238
 3739TIP3   OH211222   3.180   1.800   2.319  0.0526 -0.4365 -0.0134
 3739TIP3    H111223   3.085   1.800   2.332  0.1963  1.0093  1.3668
 3739TIP3    H211224   3.215   1.835   2.401  1.4624  4.0158 -2.1815
 3740TIP3   OH211225   0.541   1.284   1.340  0.4248 -0.8941 -0.2202
 3740TIP3    H111226   0.509   1.323   1.422 -0.3989  1.1172 -1.4218
 3740TIP3    H211227   0.461   1.255   1.295  0.5952  0.4349 -1.4398
 3741TIP3   OH211228   1.580   4.148   1.019 -0.2742 -0.2419 -0.2373
 3741TIP3    H111229   1.562   4.149   1.113  0.7158 -1.1110 -0.0266
 3741TIP3    H211230   1.503   4.106   0.980 -1.0224  0.7678  0.0793
 3742TIP3   OH211231   4.020   3.408   0.891 -0.0118 -0.2151  0.3015
 3742TIP3    H111232   4.112   3.415   0.864 -0.2740  0.2510 -0.5153
 3742TIP3    H211233   3.970   3.418   0.810 -0.9079  2.9160  1.0956
 3743TIP3   OH211234   3.572   0.691   0.072  0.4461 -0.0433 -0.1864
 3743TIP3    H111235   3.636   0.698   0.001 -0.0704 -0.6132 -0.7203
 3743TIP3    H211236   3.619   0.645   0.142  2.0397  3.3432  1.1926
 3744TIP3   OH211237   2.058   2.516   3.761 -0.0516 -0.4051  0.1546
 3744TIP3    H111238   1.975   2.541   3.720 -0.1992 -0.9707  0.1019
 3744TIP3    H211239   2.125   2.554   3.705 -0.2411  2.8576  1.9032
 3745TIP3   OH211240   5.479   0.202   2.439  0.0795  0.2744  0.2517
 3745TIP3    H111241   5.528   0.262   2.384  1.1649 -0.1534  0.7309
 3745TIP3    H211242   5.545   0.156   2.491 -0.8325 -0.1558  1.0830
 3746TIP3   OH211243   1.439   0.831   2.335 -0.3428  0.4020 -0.6339
 3746TIP3    H111244   1.500   0.843   2.263  1.8074 -0.2680  0.9712
 3746TIP3    H211245   1.374   0.770   2.302  1.2178 -0.7769 -1.6598
 3747TIP3   OH211246   0.236   2.914   2.762 -0.2041  0.8093 -0.3519
 3747TIP3    H111247   0.250   2.934   2.854  1.2452 -0.0663 -0.3398
 3747TIP3    H211248   0.147   2.881   2.757  0.0384 -0.0991  0.9246
 3748TIP3   OH211249   4.208   4.823   2.879 -0.3633  0.3233  0.4466
 3748TIP3    H111250   4.294   4.829   2.919  0.3926  0.6814 -1.1592
 3748TIP3    H211251   4.223   4.777   2.796 -1.8661 -0.4205  0.5543
 3749TIP3   OH211252   5.928   2.418   3.107  0.2238  0.2083  0.3361
 3749TIP3    H111253   5.949   2.469   3.029 -0.8652 -1.2168 -0.9573
 3749TIP3    H211254   5.832   2.417   3.110  0.2320 -0.8340  0.9415
 3750TIP3   OH211255   4.451   1.270   1.907 -0.3266  0.1659 -0.2409
 3750TIP3    H111256   4.458   1.360   1.938 -1.9460 -0.2262  1.4611
 3750TIP3    H211257   4.442   1.218   1.987  0.6516 -1.5464 -1.1782
 3751TIP3   OH211258   0.858   2.120   3.329 -0.5101 -0.2568 -0.6492
 3751TIP3    H111259   0.858   2.125   3.233 -1.4075  1.1956 -0.6024
 3751TIP3    H211260   0.774   2.079   3.351 -0.8731  0.5762 -0.4585
 3752TIP3   OH211261   2.163   1.648   2.541  0.0133  0.5341 -0.0034
 3752TIP3    H111262   2.216   1.651   2.621 -0.7541 -1.0869  0.6107
 3752TIP3    H211263   2.225   1.668   2.471  1.3719 -0.8799  0.7320
 3753TIP3   OH211264   3.385   5.686   1.938  0.2411 -0.8528  0.2147
 3753TIP3    H111265   3.331   5.630   1.882 -0.6661  0.6052 -0.4502
 3753TIP3    H211266   3.334   5.695   2.019 -0.7098  0.7280 -0.5079
 3754TIP3   OH211267   2.276   4.151   2.805  0.2742  0.0112 -0.3815
 3754TIP3    H111268   2.331   4.202   2.745  0.8239 -0.5973 -0.4146
 3754TIP3    H211269   2.189   4.151   2.765  0.1543  1.2479 -0.1746
 3755TIP3   OH211270   4.910   3.989   4.655  0.5081  0.7834 -0.3954
 3755TIP3    H111271   4.961   4.066   4.680  0.2033  0.1227  2.6746
 3755TIP3    H211272   4.975   3.918   4.651  0.2250  0.3878  1.2550
 3756TIP3   OH211273   0.715   5.175   1.858  0.5549 -0.1049  0.1755
 3756TIP3    H111274   0.669   5.092   1.862 -0.0181  0.2003  0.1225
 3756TIP3    H211275   0.658   5.232   1.806  1.7876 -0.2118 -1.3707
 3757TIP3   OH211276   1.096   0.891   3.251 -0.2533  0.3970 -0.4061
 3757TIP3    H111277   1.029   0.854   3.194 -0.4258 -1.8349  1.1055
 3757TIP3    H211278   1.136   0.961   3.200 -1.3294 -0.5651 -2.6819
 3758TIP3   OH211279   0.438   1.121   0.843 -0.4380 -0.2512  0.4039
 3758TIP3    H111280   0.350   1.106   0.878 -0.7302 -0.3594 -0.3577
 3758TIP3    H211281   0.442   1.067   0.764  0.3028 -0.2231  0.4134
 3759TIP3   OH211282   1.411   4.169   4.913 -0.3677  0.0821 -0.1699
 3759TIP3    H111283   1.501   4.153   4.882 -0.6096 -1.3037 -0.2163
 3759TIP3    H211284   1.364   4.088   4.892 -0.4716 -1.2087  4.1353
 3760TIP3   OH211285   5.796   5.904   4.693 -0.2055 -0.4933 -0.8454
 3760TIP3    H111286   5.833   5.894   4.781 -1.1132  1.8386 -0.1259
 3760TIP3    H211287   5.871   5.908   4.635  0.5003 -0.1225  0.0749
 3761TIP3   OH211288   4.700   1.974   4.233 -0.2249  0.6944 -0.2057
 3761TIP3    H111289   4.765   2.036   4.200 -0.0294  1.2267  1.1380
 3761TIP3    H211290   4.632   2.028   4.273 -0.2805  0.0739  0.5734
 3762TIP3   OH211291   1.380   5.285   1.286  0.3236 -0.0051  0.2919
 3762TIP3    H111292   1.286   5.302   1.290  0.0946 -1.2813  0.8777
 3762TIP3    H211293   1.410   5.300   1.376  0.4747 -0.6513  0.3515
 3763TIP3   OH211294   3.537   4.722   3.214 -0.6215 -0.0641  0.3682
 3763TIP3    H111295   3.483   4.664   3.162 -0.6883  0.4169 -0.1130
 3763TIP3    H211296   3.590   4.664   3.269 -1.2394 -0.5450  0.4565
 3764TIP3   OH211297   2.976   0.611   2.078  0.5433  0.0218  0.3091
 3764TIP3    H111298   2.991   0.527   2.036 -0.8817  0.2100 -0.6508
 3764TIP3    H211299   2.893   0.601   2.125  0.8301  0.6048  0.9665
 3765TIP3   OH211300   0.547   4.160   2.270  0.6002 -0.7384  0.0284
 3765TIP3    H111301   0.529   4.085   2.213  0.8919  0.2509 -1.4457
 3765TIP3    H211302   0.461   4.198   2.286  0.6486  0.0974 -1.4355
 3766TIP3   OH211303   3.068   2.744   3.513  0.0834 -0.1260  0.8310
 3766TIP3    H111304   3.062   2.720   3.606 -0.4481 -2.5579  0.2524
 3766TIP3    H211305   2.989   2.796   3.497 -1.3431 -2.0230  1.1981
 3767TIP3   OH211306   2.644   5.283   4.575  0.2498 -0.3069  0.7252
 3767TIP3    H111307   2.619   5.243   4.658 -0.8310 -1.2983 -0.0312
 3767TIP3    H211308   2.588   5.240   4.510  0.3304  1.1647 -0.3896
 3768TIP3   OH211309   3.384   2.997   4.314 -0.4839 -0.1723  0.4180
 3768TIP3    H111310   3.355   3.050   4.388 -3.6109 -1.1202  0.0149
 3768TIP3    H211311   3.450   2.938   4.352 -0.1465  1.0395  1.8280
 3769TIP3   OH211312   5.064   0.191   0.160  0.1183  0.6217 -0.2048
 3769TIP3    H111313   5.100   0.113   0.118 -0.4818  0.1248  0.2010
 3769TIP3    H211314   5.074   0.175   0.254  0.0673  1.0680 -0.1213
 3770TIP3   OH211315   3.853   0.141   0.740  0.3332  0.3808  0.6159
 3770TIP3    H111316   3.889   0.093   0.666 -0.9582 -1.6963  1.2430
 3770TIP3    H211317   3.929   0.173   0.788  1.2669 -1.1717  0.2262
 3771TIP3   OH211318   0.654   0.151   2.074 -0.3058  0.0197 -0.0774
 3771TIP3    H111319   0.680   0.060   2.058 -3.3726 -0.8645 -0.8667
 3771TIP3    H211320   0.689   0.172   2.160 -0.5286 -2.3806  0.6815
 3772TIP3   OH211321   2.091   3.547   5.112 -0.0349  0.0576 -0.1501
 3772TIP3    H111322   2.005   3.506   5.104  0.2442 -1.3635  2.6705
 3772TIP3    H211323   2.128   3.543   5.024 -2.4323 -0.1876 -1.2338
 3773TIP3   OH211324   2.981   4.101   0.258  0.5895 -0.2166 -0.2732
 3773TIP3    H111325   2.938   4.018   0.279  1.0774 -0.1375  1.1244
 3773TIP3    H211326   3.065   4.076   0.221  0.3931 -0.3500 -0.6327
 3774TIP3   OH211327   4.637   2.805   3.269 -0.2723 -0.0925  0.1808
 3774TIP3    H111328   4.696   2.818   3.343  1.3674  1.2089 -1.2713
 3774TIP3    H211329   4.563   2.864   3.285 -0.1219 -0.1120  0.9573
 3775TIP3   OH211330   2.950   1.632   2.419  0.5469  0.1576 -0.2060
 3775TIP3    H111331   2.960   1.541   2.446  1.2833 -0.1836 -1.5297
 3775TIP3    H211332   2.857   1.650   2.432  0.5125 -0.5629  0.6906
 3776TIP3   OH211333   5.229   5.920   1.002  0.3550  0.6449 -0.3384
 3776TIP3    H111334   5.155   5.979   0.986  0.3304 -0.0021 -3.0467
 3776TIP3    H211335   5.203   5.837   0.962  2.3721  0.3064 -1.0778
 3777TIP3   OH211336   5.026   1.176   4.060  0.2035 -0.3110  0.2115
 3777TIP3    H111337   4.943   1.203   4.021 -0.2852  1.7352  2.4422
 3777TIP3    H211338   5.090   1.191   3.991 -0.9992  0.0830 -0.8731
 3778TIP3   OH211339   3.328   3.888   0.729  0.4327  0.5057  0.3140
 3778TIP3    H111340   3.296   3.942   0.801  0.2349  1.6889 -0.6303
 3778TIP3    H211341   3.381   3.948   0.676 -1.7566  0.4609 -2.1124
 3779TIP3   OH211342   5.214   5.565   2.362  0.0838 -0.3094  0.4273
 3779TIP3    H111343   5.279   5.558   2.292 -0.0277  2.1957 -0.0124
 3779TIP3    H211344   5.134   5.530   2.324  0.2546  0.1575 -0.3915
 3780TIP3   OH211345   1.743   1.549   5.066  0.1246  0.5963  0.1077
 3780TIP3    H111346   1.686   1.563   5.141  1.0523  0.3045  0.8969
 3780TIP3    H211347   1.778   1.636   5.046 -0.1761  0.6860 -0.0382
 3781TIP3   OH211348   4.228   2.408   2.586 -0.0327  0.4160 -0.0174
 3781TIP3    H111349   4.239   2.322   2.625  0.5055  0.5198  0.0566
 3781TIP3    H211350   4.303   2.459   2.615 -0.4643  0.9861  0.1304
 3782TIP3   OH211351   4.147   3.561   3.837 -0.2303  0.4999  0.3082
 3782TIP3    H111352   4.136   3.640   3.890  0.5752  0.0485  1.1827
 3782TIP3    H211353   4.234   3.571   3.798  0.8111 -0.8757  2.1010
 3783TIP3   OH211354   2.043   3.266   1.695  0.6917  0.0946  0.2351
 3783TIP3    H111355   2.016   3.182   1.731 -0.0283  0.5517  0.8003
 3783TIP3    H211356   2.082   3.245   1.610 -0.6698 -0.6770 -0.2181
 3784TIP3   OH211357   6.009   5.212   3.717 -0.2365 -0.0591 -0.7317
 3784TIP3    H111358   6.076   5.277   3.699  1.0114 -1.0483  0.1900
 3784TIP3    H211359   5.990   5.220   3.810 -0.1544 -0.9207 -0.6293
 3785TIP3   OH211360   1.351   3.810   2.370 -0.2126 -0.6022 -0.7010
 3785TIP3    H111361   1.431   3.831   2.419 -0.0048 -0.3683 -1.1268
 3785TIP3    H211362   1.288   3.877   2.397 -0.4444 -1.1245  0.0592
 3786TIP3   OH211363   5.948   5.393   0.572  0.3905  0.3089 -0.2819
 3786TIP3    H111364   5.986   5.457   0.512  1.4483  0.3937  0.4570
 3786TIP3    H211365   6.004   5.396   0.650  0.0435 -1.0044  0.0472
 3787TIP3   OH211366   1.584   1.720   2.880 -0.4382  0.2014 -0.2638
 3787TIP3    H111367   1.517   1.683   2.938  1.5055 -0.0900  1.9674
 3787TIP3    H211368   1.567   1.814   2.881  0.0472  0.3092  1.5602
 3788TIP3   OH211369   3.449   1.168   3.678  0.0602  0.4602 -0.1459
 3788TIP3    H111370   3.452   1.081   3.637  0.9932 -0.1602  1.2005
 3788TIP3    H211371   3.540   1.195   3.685 -0.1750  1.1976  0.2004
 3789TIP3   OH211372   3.527   3.756   2.883  0.3853 -0.0862  0.3928
 3789TIP3    H111373   3.596   3.810   2.920  1.9143 -0.4072 -1.7808
 3789TIP3    H211374   3.557   3.735   2.795 -2.9960  0.6407 -1.1095
 3790TIP3   OH211375   3.312   5.577   0.951  0.8749  0.6103  0.5242
 3790TIP3    H111376   3.260   5.522   1.009 -0.2933  2.7371  1.6293
 3790TIP3    H211377   3.351   5.516   0.888  0.7910 -1.5918  2.4616
 3791TIP3   OH211378   1.920   3.117   4.301 -0.4474  0.3429 -0.1372
 3791TIP3    H111379   1.943   3.036   4.255 -0.6978  0.3009 -0.1910
 3791TIP3    H211380   1.833   3.100   4.337 -1.3053  1.2091 -1.6654
 3792TIP3   OH211381   2.401   3.162   4.467  0.2330 -0.2485  0.1419
 3792TIP3    H111382   2.379   3.118   4.385  1.5526  0.4279 -0.6041
 3792TIP3    H211383   2.332   3.136   4.527 -0.1976 -1.5925 -0.8870
 3793TIP3   OH211384   4.793   2.143   1.203 -0.2387 -0.2499  0.5171
 3793TIP3    H111385   4.812   2.234   1.223 -1.1631 -0.2757  1.5914
 3793TIP3    H211386   4.823   2.095   1.280  2.0603 -1.1173 -0.8229
 3794TIP3   OH211387   3.078   5.237   2.623  0.0364  0.3287 -0.4161
 3794TIP3    H111388   3.162   5.227   2.578  0.1101  0.7452 -0.3798
 3794TIP3    H211389   3.100   5.241   2.716 -0.0195  0.4776 -0.4091
 3795TIP3   OH211390   0.915   5.051   5.054  0.1106  0.0695 -0.0991
 3795TIP3    H111391   0.984   5.105   5.016  0.0677 -0.0853 -0.3987
 3795TIP3    H211392   0.920   5.068   5.148 -3.1610  4.5905 -0.4123
 3796TIP3   OH211393   1.685   3.125   1.761  0.2105 -0.3126 -0.4753
 3796TIP3    H111394   1.606   3.122   1.815 -0.4193  2.0280 -1.1137
 3796TIP3    H211395   1.665   3.070   1.685 -0.3198 -0.7491 -0.0199
 3797TIP3   OH211396   3.787   0.855   0.843 -0.5978 -0.3540  0.2373
 3797TIP3    H111397   3.763   0.892   0.758 -0.2044  1.8629  1.0349
 3797TIP3    H211398   3.703   0.833   0.884 -0.9100  0.6540  0.1521
 3798TIP3   OH211399   0.765   0.082   0.768 -0.2038 -0.5342  0.0869
 3798TIP3    H111400   0.772   0.177   0.769  0.9501 -0.5589  2.6799
 3798TIP3    H211401   0.677   0.064   0.801  0.1784 -0.3343  1.2672
 3799TIP3   OH211402   4.751   4.551   4.324  0.1304  0.0450  0.5749
 3799TIP3    H111403   4.797   4.634   4.328  0.2283  0.0203  0.0679
 3799TIP3    H211404   4.678   4.567   4.264  0.5719 -0.4230 -0.1087
 3800TIP3   OH211405   1.461   1.213   4.800 -0.1817  0.2605 -0.1186
 3800TIP3    H111406   1.543   1.256   4.822  0.1067  0.0942 -0.8419
 3800TIP3    H211407   1.475   1.178   4.712 -1.7168  2.0262 -1.1453
 3801TIP3   OH211408   4.331   1.662   2.555  0.6532  0.8333 -1.0533
 3801TIP3    H111409   4.368   1.728   2.497  0.0081  0.4492 -1.9310
 3801TIP3    H211410   4.331   1.582   2.503  1.4570  0.1172  0.0097
 3802TIP3   OH211411   2.190   0.051   1.864 -0.6604 -0.4792 -0.1178
 3802TIP3    H111412   2.117   0.112   1.848 -1.1017 -1.1028 -0.5061
 3802TIP3    H211413   2.154  -0.015   1.923 -0.4514 -0.8564 -0.4064
 3803TIP3   OH211414   3.229   2.243   5.132  0.5931  0.3204 -0.6325
 3803TIP3    H111415   3.295   2.290   5.182 -1.4890  3.2759 -0.4614
 3803TIP3    H211416   3.167   2.212   5.197  0.1801  0.2893 -1.0388
 3804TIP3   OH211417   1.742   0.471   3.532  0.2967  0.4939 -0.4226
 3804TIP3    H111418   1.682   0.437   3.466 -0.2381  1.3777 -0.4105
 3804TIP3    H211419   1.822   0.420   3.520 -0.1135 -0.0064 -1.1150
 3805TIP3   OH211420   5.763   5.485   1.188  0.6134  0.4147  0.1307
 3805TIP3    H111421   5.765   5.431   1.109  0.2514  2.7180 -1.5547
 3805TIP3    H211422   5.851   5.477   1.224  0.6384 -1.0706 -0.1917
 3806TIP3   OH211423   0.972   4.411   2.684 -0.1696 -0.1786  0.1953
 3806TIP3    H111424   1.001   4.322   2.668  1.0873  0.4080 -0.9985
 3806TIP3    H211425   0.917   4.405   2.762  1.9061 -1.6379  1.6571
 3807TIP3   OH211426   0.387   5.121   2.504 -0.5193 -0.7910 -0.3137
 3807TIP3    H111427   0.404   5.033   2.470  0.7700 -0.3555 -0.8815
 3807TIP3    H211428   0.370   5.173   2.426  0.1787 -0.2496 -0.1120
 3808TIP3   OH211429   3.125   1.861   3.023 -0.9273  0.2056  0.3264
 3808TIP3    H111430   3.081   1.807   3.088 -1.0062 -0.8866 -0.6092
 3808TIP3    H211431   3.119   1.811   2.941  1.4028  0.3289 -0.0007
 3809TIP3   OH211432   5.378   0.616   4.059 -0.3580  0.2271  0.7042
 3809TIP3    H111433   5.348   0.546   4.117 -3.3985  1.5694  0.9332
 3809TIP3    H211434   5.402   0.687   4.118 -1.5155  0.8750  0.4316
 3810TIP3   OH211435   4.828   1.340   4.288  0.1866  0.2518  1.0854
 3810TIP3    H111436   4.742   1.301   4.270 -0.3327  1.1386  1.5991
 3810TIP3    H211437   4.886   1.265   4.301 -0.5192 -0.3583  0.7879
 3811TIP3   OH211438   2.014   2.511   0.739 -0.8244  0.0746  0.4986
 3811TIP3    H111439   1.972   2.533   0.822 -0.6722 -0.4186  0.7125
 3811TIP3    H211440   2.019   2.416   0.739 -0.5010  0.0863  0.0833
 3812TIP3   OH211441   6.259   0.274   1.188 -0.3628  0.0379  0.3101
 3812TIP3    H111442   6.213   0.330   1.250  0.1623  0.2954  0.4709
 3812TIP3    H211443   6.349   0.305   1.190 -0.1873 -0.4454 -0.0250
 3813TIP3   OH211444   4.203   2.748   4.908  0.0279 -0.0554 -0.2311
 3813TIP3    H111445   4.219   2.796   4.826  1.5177 -0.4594 -0.2057
 3813TIP3    H211446   4.193   2.657   4.881 -2.0434  0.1136 -0.1968
 3814TIP3   OH211447   0.721   0.358   3.034  0.1892  0.4488 -0.2602
 3814TIP3    H111448   0.656   0.291   3.054  0.4032  0.2937 -0.0682
 3814TIP3    H211449   0.721   0.415   3.111  0.0017  0.6740 -0.4265
 3815TIP3   OH211450   2.299   4.040   0.789 -0.1853 -0.1167 -0.0093
 3815TIP3    H111451   2.229   3.988   0.830 -0.2698  0.8487  1.1512
 3815TIP3    H211452   2.255   4.121   0.764 -0.0801 -0.6047 -1.8867
 3816TIP3   OH211453   2.353   1.140   0.641  0.0657  0.0673  0.0306
 3816TIP3    H111454   2.369   1.094   0.723 -1.1984  1.0712  0.8912
 3816TIP3    H211455   2.274   1.101   0.606  0.5725 -0.3217 -0.7055
 3817TIP3   OH211456   1.151   3.064   3.922 -0.0755  0.2594  0.0769
 3817TIP3    H111457   1.158   3.151   3.881 -0.6140 -0.3607 -1.4302
 3817TIP3    H211458   1.208   3.068   3.998  1.0822  1.4648 -0.8099
 3818TIP3   OH211459   4.098   3.801   2.436  0.2728 -0.4308 -0.1050
 3818TIP3    H111460   4.145   3.738   2.491  2.5142 -0.5649 -2.0509
 3818TIP3    H211461   4.127   3.887   2.468 -0.7041 -0.4054  0.7773
 3819TIP3   OH211462   3.078   1.571   3.818 -0.4391 -0.3156  0.1976
 3819TIP3    H111463   3.072   1.601   3.909 -0.6745  1.9489 -0.5079
 3819TIP3    H211464   3.143   1.501   3.820  1.6869  1.5622  1.7131
 3820TIP3   OH211465   5.539   0.087   1.248 -0.3947 -0.6590 -0.4447
 3820TIP3    H111466   5.451   0.088   1.210 -0.7837 -1.4833  0.4202
 3820TIP3    H211467   5.590   0.034   1.187 -0.8868 -1.5223 -0.1243
 3821TIP3   OH211468   4.110   2.455   4.451  0.2366 -0.0784  0.2883
 3821TIP3    H111469   4.158   2.420   4.526  2.9120  1.9154 -0.3014
 3821TIP3    H211470   4.146   2.408   4.375  1.0913  1.1730 -0.1259
 3822TIP3   OH211471   4.020   5.502   4.593  0.0486 -0.4111 -0.3792
 3822TIP3    H111472   4.027   5.468   4.682  3.5708  0.1703 -0.2921
 3822TIP3    H211473   4.082   5.450   4.542 -1.1910 -0.0985 -2.3208
 3823TIP3   OH211474   4.975   1.343   4.643  0.6029 -0.3191  0.4014
 3823TIP3    H111475   4.978   1.333   4.738 -0.1848  2.2016  0.7811
 3823TIP3    H211476   5.052   1.396   4.621 -0.5879  1.3627  0.0603
 3824TIP3   OH211477   5.502   5.687   0.771 -0.7008 -0.2008 -0.3873
 3824TIP3    H111478   5.556   5.687   0.850 -1.4837  1.7059  0.2115
 3824TIP3    H211479   5.527   5.767   0.725 -1.7057 -0.2275 -1.0110
 3825TIP3   OH211480   0.660   3.774   4.583 -0.3084  0.2615 -0.5664
 3825TIP3    H111481   0.662   3.689   4.629 -1.5287 -0.0174 -0.9887
 3825TIP3    H211482   0.703   3.757   4.499 -0.6442  0.0320 -0.6927
 3826TIP3   OH211483   3.225   2.523   0.130  0.6586  0.3017  0.3637
 3826TIP3    H111484   3.300   2.557   0.179 -1.0328  0.6024  3.0097
 3826TIP3    H211485   3.158   2.590   0.141 -0.0080  0.0969 -2.0208
 3827TIP3   OH211486   5.064   3.777   3.913  0.1020 -0.1703  0.2330
 3827TIP3    H111487   5.129   3.716   3.947  0.2661  0.2260  0.6381
 3827TIP3    H211488   5.088   3.788   3.820 -0.9466 -2.0256 -0.3068
 3828TIP3   OH211489   0.118   3.166   1.444  0.1781 -0.7210 -0.1336
 3828TIP3    H111490   0.061   3.195   1.515 -0.1447 -0.2990 -0.5541
 3828TIP3    H211491   0.090   3.219   1.368 -0.0447 -1.7460 -0.7837
 3829TIP3   OH211492   4.576   1.710   4.085 -0.1496 -0.3504  0.3591
 3829TIP3    H111493   4.522   1.765   4.027  2.3592  0.9715 -0.8746
 3829TIP3    H211494   4.595   1.766   4.160 -0.6670 -0.9162  0.9272
 3830TIP3   OH211495   5.668   0.087   4.729  0.3269 -0.1002  0.1730
 3830TIP3    H111496   5.715   0.170   4.721  1.8929 -0.7794  1.6278
 3830TIP3    H211497   5.611   0.098   4.805  1.6921 -0.8120  1.3528
 3831TIP3   OH211498   0.819   5.100   1.593  0.1251 -0.5123  0.2176
 3831TIP3    H111499   0.895   5.052   1.625  0.5736  0.9509  1.4184
 3831TIP3    H211500   0.777   5.134   1.672 -1.0343 -0.1947 -0.5121
 3832TIP3   OH211501   0.210   0.180   0.209 -0.2267 -0.0174 -0.1380
 3832TIP3    H111502   0.273   0.153   0.142  0.9974  0.7050  0.6691
 3832TIP3    H211503   0.131   0.202   0.161  0.7295  0.8331 -1.3792
 3833TIP3   OH211504   5.030   4.681   2.460 -0.3560 -0.4666 -0.1298
 3833TIP3    H111505   5.064   4.638   2.381  0.3194 -1.1337  0.5086
 3833TIP3    H211506   4.935   4.675   2.450 -0.3596  1.4116 -1.9296
 3834TIP3   OH211507   2.125   2.652   4.084 -0.2352 -0.1541 -0.1154
 3834TIP3    H111508   2.188   2.690   4.023  0.8406 -1.1560  0.3275
 3834TIP3    H211509   2.110   2.563   4.051 -1.3320  0.0334 -0.1449
 3835TIP3   OH211510   0.799   1.257   4.512  1.0779 -0.0618  0.4597
 3835TIP3    H111511   0.735   1.205   4.561  0.7380  1.7915  2.0838
 3835TIP3    H211512   0.749   1.296   4.440  0.7490  0.0868  0.7683
 3836TIP3   OH211513   0.859   3.219  -0.014  0.7474  0.0086  0.5878
 3836TIP3    H111514   0.788   3.275   0.018  1.2334  0.6477  0.5811
 3836TIP3    H211515   0.931   3.236   0.046  1.5102  0.8284 -0.5102
 3837TIP3   OH211516   5.388   2.752   4.690  0.2086 -0.0774 -0.3742
 3837TIP3    H111517   5.342   2.836   4.684 -2.7101 -1.4081  1.1708
 3837TIP3    H211518   5.319   2.686   4.682  2.2373 -2.3522 -0.4496
 3838TIP3   OH211519   1.559   0.364   2.843  0.1209 -0.0944 -0.5585
 3838TIP3    H111520   1.528   0.336   2.929  0.0905  2.0644  0.1948
 3838TIP3    H211521   1.611   0.290   2.811 -0.0677 -1.0429  1.1843
 3839TIP3   OH211522   2.864   0.166   0.543 -0.0388 -0.2894  0.5623
 3839TIP3    H111523   2.820   0.246   0.513 -0.5495 -0.8108 -0.0957
 3839TIP3    H211524   2.955   0.193   0.557 -0.7087  1.0201  2.7918
 3840TIP3   OH211525   4.564   2.765   3.627 -0.3753  0.0261 -0.0194
 3840TIP3    H111526   4.644   2.797   3.585 -0.1719  0.7138  0.8704
 3840TIP3    H211527   4.507   2.741   3.554 -0.2806  1.8038 -0.7353
 3841TIP3   OH211528   5.158   2.057   1.221 -0.1592 -0.0013 -0.0060
 3841TIP3    H111529   5.120   2.118   1.157  1.4881 -1.4942 -2.6011
 3841TIP3    H211530   5.230   2.107   1.260  0.4653  0.1386 -1.2737
 3842TIP3   OH211531   0.303   5.682   1.646 -0.0104  0.2353  0.7292
 3842TIP3    H111532   0.390   5.712   1.619  0.3218 -0.5516  0.8970
 3842TIP3    H211533   0.269   5.752   1.701 -0.2305  1.3764 -0.7645
 3843TIP3   OH211534   1.031   3.154   3.204 -0.3699 -0.6260  0.5328
 3843TIP3    H111535   1.042   3.090   3.275 -0.6047 -1.5498 -0.2477
 3843TIP3    H211536   0.974   3.110   3.141 -0.7011  0.4429  0.0763
 3844TIP3   OH211537   2.064   2.393   3.998 -0.0257 -0.1480  0.4297
 3844TIP3    H111538   2.013   2.438   3.930 -0.4043 -0.9772  0.1623
 3844TIP3    H211539   2.018   2.310   4.012  2.3876 -1.9271 -1.3583
 3845TIP3   OH211540   5.736   1.585   2.300 -0.1920  0.5876 -0.2214
 3845TIP3    H111541   5.825   1.550   2.303 -0.5866 -0.3608  1.8649
 3845TIP3    H211542   5.699   1.548   2.220  0.9318  0.1259 -0.5471
 3846TIP3   OH211543   3.464   2.300   2.396  0.0347 -0.2840  0.3334
 3846TIP3    H111544   3.540   2.249   2.425  0.5635  0.1194 -0.3295
 3846TIP3    H211545   3.496   2.351   2.322 -1.4381 -1.7389 -1.3998
 3847TIP3   OH211546   3.426   1.935   1.070  0.0293  0.1082 -0.1389
 3847TIP3    H111547   3.397   1.973   0.987  0.4863  1.1379  0.1596
 3847TIP3    H211548   3.411   1.841   1.060 -1.7825  0.4183 -0.6410
 3848TIP3   OH211549  -0.001   5.851   5.013 -0.7685  0.1071 -0.0136
 3848TIP3    H111550   0.079   5.826   5.058 -0.9216 -0.2595  0.0512
 3848TIP3    H211551  -0.046   5.769   4.994 -0.7096  0.2448 -0.8290
 3849TIP3   OH211552   6.104   4.490   2.730 -0.1688 -0.0604 -0.2570
 3849TIP3    H111553   6.183   4.539   2.707 -0.4483  1.6364  2.0119
 3849TIP3    H211554   6.099   4.497   2.825 -3.2107  0.1984 -0.3425
 3850TIP3   OH211555   0.372   2.326   4.366 -0.2546  0.1296  0.3378
 3850TIP3    H111556   0.306   2.287   4.308  0.3195  0.7348 -0.7618
 3850TIP3    H211557   0.329   2.401   4.406 -0.5108 -0.0043  0.3121
 3851TIP3   OH211558   5.584   3.036   3.132  0.2486 -0.4327  0.0084
 3851TIP3    H111559   5.519   3.082   3.186  0.7267  1.7050 -1.1420
 3851TIP3    H211560   5.657   3.097   3.125  0.5752 -0.9921 -2.2967
 3852TIP3   OH211561   1.275   0.756   2.610  0.0022  0.5598  0.2991
 3852TIP3    H111562   1.311   0.677   2.650 -1.8848 -0.7219 -0.4141
 3852TIP3    H211563   1.344   0.786   2.550  0.4460 -1.0060 -0.0057
 3853TIP3   OH211564   0.785   2.454   4.228  0.1709  0.1347 -0.2713
 3853TIP3    H111565   0.739   2.502   4.158  0.3134  0.1412 -0.3621
 3853TIP3    H211566   0.878   2.461   4.204  0.1226 -1.1432 -0.8953
 3854TIP3   OH211567   2.612   5.202   2.594  0.0430  0.1942 -0.2291
 3854TIP3    H111568   2.661   5.129   2.556 -0.4315 -0.0894 -0.3028
 3854TIP3    H211569   2.569   5.243   2.519 -1.4298 -0.7623  0.0556
 3855TIP3   OH211570   1.119   2.756   2.992  0.2097  0.1652  0.1493
 3855TIP3    H111571   1.100   2.802   3.073  0.6133  3.9219 -1.6537
 3855TIP3    H211572   1.035   2.749   2.948  0.5735  2.5141 -1.0636
 3856TIP3   OH211573   4.763   5.738   1.419  0.2311  0.0092  0.2090
 3856TIP3    H111574   4.668   5.735   1.414  0.1540  1.4856  0.3555
 3856TIP3    H211575   4.783   5.826   1.453  1.6510 -0.0470 -0.4021
 3857TIP3   OH211576   0.986   0.166   4.467 -0.4386 -0.4998  0.4099
 3857TIP3    H111577   0.946   0.184   4.382 -3.1753 -0.5430  1.5963
 3857TIP3    H211578   1.018   0.251   4.496 -1.1927 -0.1106  0.1377
 3858TIP3   OH211579   6.270   4.614   3.332 -0.1724  0.2656  0.5055
 3858TIP3    H111580   6.180   4.600   3.303  0.0321 -1.1413  0.4694
 3858TIP3    H211581   6.297   4.529   3.368  1.4002  0.3995 -0.2615
 3859TIP3   OH211582   3.215   1.983   1.650  0.0492 -0.0642  0.1868
 3859TIP3    H111583   3.257   1.907   1.691  0.5881  0.2077  0.1522
 3859TIP3    H211584   3.249   1.983   1.560 -1.2253 -0.7396 -0.3271
 3860TIP3   OH211585   1.134   3.085   0.417  0.4139  0.0703 -0.0677
 3860TIP3    H111586   1.209   3.103   0.473  0.2332 -1.0032  0.5570
 3860TIP3    H211587   1.069   3.046   0.476 -0.6563  1.0078 -0.5797
 3861TIP3   OH211588   1.770   5.042   2.881  0.1565  0.3892  0.7090
 3861TIP3    H111589   1.730   4.964   2.842 -0.8866  0.5158  1.4703
 3861TIP3    H211590   1.834   5.072   2.817 -0.6606 -0.1005 -0.3548
 3862TIP3   OH211591   1.171   2.674   2.226  0.0115  0.2180 -0.3001
 3862TIP3    H111592   1.114   2.720   2.287 -0.3898  1.1086 -1.3374
 3862TIP3    H211593   1.128   2.589   2.212 -0.8050  0.6852 -0.6846
 3863TIP3   OH211594   4.923   0.899   3.951  0.1659 -0.2392  0.1347
 3863TIP3    H111595   4.976   0.822   3.972 -1.7058 -1.3386  1.1447
 3863TIP3    H211596   4.929   0.953   4.030  0.5604  0.1111 -0.1326
 3864TIP3   OH211597   0.596   3.014   2.404  0.2289  0.4525  0.1728
 3864TIP3    H111598   0.519   3.008   2.348 -0.1704  0.0603  0.7462
 3864TIP3    H211599   0.646   2.934   2.386 -0.2734 -0.0430  0.8909
 3865TIP3   OH211600   3.006   0.113   2.924 -0.0651  0.2468  0.1119
 3865TIP3    H111601   3.050   0.031   2.904 -1.1603 -0.9219  2.0742
 3865TIP3    H211602   2.953   0.132   2.846  0.9209 -0.3833 -0.7330
 3866TIP3   OH211603   3.345   5.831   2.659 -0.2324 -0.3867 -0.3039
 3866TIP3    H111604   3.296   5.879   2.592  1.4309 -0.6867 -1.8320
 3866TIP3    H211605   3.358   5.744   2.620 -1.4903 -1.4817  1.5743
 3867TIP3   OH211606   2.505   0.936   4.517 -0.1572 -0.5825  0.1803
 3867TIP3    H111607   2.481   0.894   4.600  2.9379 -0.8583  1.0418
 3867TIP3    H211608   2.596   0.961   4.528 -0.1218  0.8777 -2.5927
 3868TIP3   OH211609   1.715   5.307   4.749 -0.0725 -0.3604 -0.5645
 3868TIP3    H111610   1.749   5.218   4.751  0.1423 -0.2863  1.4452
 3868TIP3    H211611   1.790   5.362   4.727  0.1058 -0.5608 -0.4529
 3869TIP3   OH211612   4.917   3.360   4.447  0.3615  0.2645 -0.8096
 3869TIP3    H111613   4.838   3.398   4.487  2.0469  1.6319  1.4609
 3869TIP3    H211614   4.909   3.383   4.355 -1.4300  1.2087 -0.4791
 3870TIP3   OH211615   4.991   1.769   4.636 -0.5446  0.4445  0.0003
 3870TIP3    H111616   5.078   1.777   4.598  0.2763  2.1366  2.0488
 3870TIP3    H211617   4.935   1.822   4.578 -0.1125 -0.1462 -0.9781
 3871TIP3   OH211618   1.863   3.638   1.164  0.1032 -0.8888 -0.2798
 3871TIP3    H111619   1.808   3.582   1.110 -1.5824 -0.2372  0.6736
 3871TIP3    H211620   1.832   3.727   1.146  2.1353 -0.2861 -1.1035
 3872TIP3   OH211621   2.878   2.382   4.155  0.1571  0.0650 -0.2486
 3872TIP3    H111622   2.939   2.456   4.156  2.4492 -1.7346  0.5378
 3872TIP3    H211623   2.892   2.340   4.071 -0.5150  0.0164 -0.3424
 3873TIP3   OH211624   4.211   0.804   2.824 -0.7414  0.2075  0.0263
 3873TIP3    H111625   4.303   0.779   2.829 -0.6701  0.3622 -0.5156
 3873TIP3    H211626   4.203   0.853   2.742 -1.4954 -0.6401 -0.4301
 3874TIP3   OH211627   2.982   5.940   5.093  0.2527  0.1160 -0.2921
 3874TIP3    H111628   2.993   6.020   5.144 -0.3847 -1.2428  2.1657
 3874TIP3    H211629   2.890   5.941   5.067 -0.6789 -1.1780  2.4894
 3875TIP3   OH211630   5.264   1.165   1.062 -0.1310  0.1155  0.1795
 3875TIP3    H111631   5.195   1.158   1.129  0.0103 -0.2092  0.2895
 3875TIP3    H211632   5.344   1.181   1.112  0.0143 -0.3773  0.1017
 3876TIP3   OH211633   6.152   4.687   1.821  0.3566 -0.0405  0.3584
 3876TIP3    H111634   6.157   4.601   1.863 -0.8353  0.3692  1.4320
 3876TIP3    H211635   6.059   4.710   1.827  0.7285  1.4983  0.4663
 3877TIP3   OH211636   5.427   1.240   0.572  0.3486  0.4298 -0.1160
 3877TIP3    H111637   5.472   1.271   0.650  0.7687  1.4659 -0.7523
 3877TIP3    H211638   5.481   1.167   0.539  1.9100  1.9923 -1.1717
 3878TIP3   OH211639   2.503   5.835   4.096  0.4240 -0.0381 -0.0886
 3878TIP3    H111640   2.444   5.910   4.106  1.1068  0.5159 -0.1659
 3878TIP3    H211641   2.579   5.870   4.049  1.4692 -0.4010  1.2885
 3879TIP3   OH211642   3.239   1.761   0.183 -0.7538 -0.3901  0.6387
 3879TIP3    H111643   3.250   1.667   0.169 -0.5663 -0.1401 -1.1618
 3879TIP3    H211644   3.148   1.778   0.160 -0.1085  0.2411 -1.6702
 3880TIP3   OH211645   3.729   5.850   2.240 -0.2094 -0.3040 -0.3477
 3880TIP3    H111646   3.797   5.847   2.173 -1.2047 -0.6847 -1.3788
 3880TIP3    H211647   3.750   5.776   2.298  1.9779  1.3752  1.1657
 3881TIP3   OH211648   2.458   4.413   4.698  0.0363  0.1883 -0.2636
 3881TIP3    H111649   2.549   4.415   4.727  0.1586  1.6534 -0.6313
 3881TIP3    H211650   2.463   4.414   4.603 -0.3595 -0.2065 -0.2879
 3882TIP3   OH211651   3.122   2.678   1.410 -0.2196 -0.6380 -0.0985
 3882TIP3    H111652   3.216   2.695   1.419 -0.1683 -1.4988  1.2256
 3882TIP3    H211653   3.116   2.622   1.332  0.4847 -1.3943  0.3737
 3883TIP3   OH211654   3.563   0.191   0.813  0.1430  0.5853  0.3361
 3883TIP3    H111655   3.504   0.118   0.793  0.1513  0.8811 -0.8108
 3883TIP3    H211656   3.650   0.154   0.803  0.1474  0.7140 -0.1013
 3884TIP3   OH211657   5.817   2.633   0.108 -0.0519 -0.2741  0.1764
 3884TIP3    H111658   5.870   2.615   0.186 -0.5574 -0.9015  0.3776
 3884TIP3    H211659   5.769   2.552   0.092 -1.5982  0.5580  0.4925
 3885TIP3   OH211660   4.032   1.905   0.409 -0.0142 -0.3038 -0.0023
 3885TIP3    H111661   4.111   1.950   0.378  0.9250 -0.6999  1.7330
 3885TIP3    H211662   3.989   1.969   0.466  1.1063 -1.3578  2.1377
 3886TIP3   OH211663   1.767   1.647   0.647 -0.0920  0.0683  0.3030
 3886TIP3    H111664   1.769   1.729   0.696  1.1363  0.0510  0.3026
 3886TIP3    H211665   1.738   1.672   0.559 -0.9717  0.2940  0.6377
 3887TIP3   OH211666   0.611   2.585   3.552  0.3701 -0.6699 -0.0170
 3887TIP3    H111667   0.623   2.503   3.505 -0.3824  0.3323 -2.0489
 3887TIP3    H211668   0.699   2.623   3.557  0.5502 -1.0851 -0.0165
 3888TIP3   OH211669   3.162   0.803   2.000  0.4625 -0.3235 -0.0395
 3888TIP3    H111670   3.092   0.745   2.029  2.3230 -1.6076  2.2659
 3888TIP3    H211671   3.122   0.890   2.000 -1.6659 -1.2312 -0.9038
 3889TIP3   OH211672   4.444   1.178   0.639  0.2818  0.1051 -0.3217
 3889TIP3    H111673   4.385   1.227   0.583 -0.5652  1.7192  1.8511
 3889TIP3    H211674   4.391   1.151   0.713  1.6540 -0.7947  0.3858
 3890TIP3   OH211675   0.172   0.501   3.036 -0.8547 -0.2899  0.1306
 3890TIP3    H111676   0.110   0.431   3.015 -1.5903 -0.4073  2.5042
 3890TIP3    H211677   0.117   0.578   3.050 -0.6490 -0.6065  3.1691
 3891TIP3   OH211678   1.935   4.572   1.193  0.8632 -0.4641 -0.0625
 3891TIP3    H111679   1.938   4.631   1.118  0.6338  0.1241  0.3788
 3891TIP3    H211680   1.891   4.623   1.261  1.7928 -0.6929  0.7287
 3892TIP3   OH211681   0.070   1.586   5.015 -0.0747  0.1445 -0.0669
 3892TIP3    H111682   0.107   1.499   5.026 -0.8149 -0.2742 -0.7848
 3892TIP3    H211683   0.027   1.605   5.099  0.1114 -0.1675  0.0992
 3893TIP3   OH211684   3.203   5.396   1.734  0.0758 -0.2983  0.4326
 3893TIP3    H111685   3.127   5.353   1.695  0.1837 -1.1820  1.1442
 3893TIP3    H211686   3.257   5.324   1.766  2.0716  0.2311 -1.5531
 3894TIP3   OH211687   5.261   2.256   1.657  0.0184 -0.1220  0.4308
 3894TIP3    H111688   5.176   2.246   1.699  0.1593  0.7423  0.9546
 3894TIP3    H211689   5.291   2.166   1.641 -1.1671 -0.4268 -0.1423
 3895TIP3   OH211690   0.374   3.951   0.468 -0.5355 -0.2982 -0.3085
 3895TIP3    H111691   0.320   3.937   0.546 -0.5806 -0.6006 -0.3902
 3895TIP3    H211692   0.438   4.017   0.494  0.2389 -1.2776  0.3913
 3896TIP3   OH211693   0.312   2.111   1.114  0.5953  0.2129 -0.3228
 3896TIP3    H111694   0.399   2.081   1.089  0.2514 -1.5917  0.5051
 3896TIP3    H211695   0.289   2.059   1.191 -0.8702  1.2635  0.0042
 3897TIP3   OH211696   4.038   0.847   0.239  0.0477 -0.3877  0.0336
 3897TIP3    H111697   4.034   0.760   0.200  2.7845 -0.2786 -0.6927
 3897TIP3    H211698   4.068   0.832   0.329  1.2879 -0.1982 -0.3278
 3898TIP3   OH211699   0.058   2.281   4.168  0.6383  0.2410  0.0624
 3898TIP3    H111700   0.068   2.199   4.119  1.5235  0.6089 -0.3875
 3898TIP3    H211701   0.131   2.335   4.139  0.4161  0.9605  0.8228
 3899TIP3   OH211702   6.072   0.621   1.010 -0.0964 -0.5595  0.4178
 3899TIP3    H111703   6.142   0.682   1.036  1.4490 -2.0485 -0.1113
 3899TIP3    H211704   6.008   0.629   1.080  0.8193  0.4944  1.1882
 3900TIP3   OH211705   0.787  -0.002   4.761  0.0804  0.1289  0.5403
 3900TIP3    H111706   0.731  -0.015   4.838 -0.0882  1.4551  0.6698
 3900TIP3    H211707   0.771   0.089   4.735 -1.7045 -0.9223 -2.5429
 3901TIP3   OH211708   0.005   4.473   3.006 -0.3184  0.5221  0.5537
 3901TIP3    H111709   0.029   4.429   3.088 -3.2083  0.2018  1.3409
 3901TIP3    H211710   0.006   4.404   2.940 -2.8433 -0.4279  1.3858
 3902TIP3   OH211711   2.197   2.922   4.937 -0.3523  0.2919 -0.4842
 3902TIP3    H111712   2.270   2.868   4.967  1.2800  0.7998 -3.3082
 3902TIP3    H211713   2.119   2.877   4.972  0.9704 -3.2479 -1.6240
 3903TIP3   OH211714   0.625   5.087   0.404 -0.1386  0.2618 -0.5290
 3903TIP3    H111715   0.678   5.107   0.326  1.2978  1.4806  0.7044
 3903TIP3    H211716   0.678   5.025   0.453 -0.0979  1.0518  0.4474
 3904TIP3   OH211717   1.244   4.683   4.893 -0.1968 -0.5291  0.2634
 3904TIP3    H111718   1.299   4.750   4.854 -1.2200 -0.0812 -0.4662
 3904TIP3    H211719   1.264   4.604   4.843 -0.1588 -0.3895  0.0572
 3905TIP3   OH211720   0.214   5.643   1.946  0.7679  0.3020 -0.0344
 3905TIP3    H111721   0.191   5.664   2.036  0.4079 -2.2116  0.5505
 3905TIP3    H211722   0.299   5.598   1.952  1.3213  1.1539 -1.1008
 3906TIP3   OH211723   5.107   0.715   1.295  0.2169  0.1653  0.2161
 3906TIP3    H111724   5.094   0.730   1.389  0.6865 -1.9889  0.6841
 3906TIP3    H211725   5.186   0.660   1.291 -0.4341 -0.7071 -1.3467
 3907TIP3   OH211726   3.186   2.072   3.181  0.1974  0.0212  0.3907
 3907TIP3    H111727   3.178   2.013   3.106  2.0480  1.4113 -1.0174
 3907TIP3    H211728   3.218   2.017   3.252  1.5336 -0.7842 -0.7779
 3908TIP3   OH211729   6.228   1.353   4.035 -0.0909  0.3861  0.4971
 3908TIP3    H111730   6.215   1.303   4.115  0.7548 -1.4251 -0.4342
 3908TIP3    H211731   6.140   1.359   3.996 -0.1559 -0.6994  0.4517
 3909TIP3   OH211732   4.684   3.387   1.322  0.3212  0.6039 -0.5614
 3909TIP3    H111733   4.690   3.300   1.360 -0.5159  0.5359 -0.5762
 3909TIP3    H211734   4.741   3.441   1.378 -0.6785  0.4558  0.6406
 3910TIP3   OH211735   3.835   2.923   2.828  0.0605 -0.1044  1.1359
 3910TIP3    H111736   3.795   2.978   2.896 -1.5544 -1.0710  1.0293
 3910TIP3    H211737   3.769   2.919   2.759  0.2215 -1.9714  1.0456
 3911TIP3   OH211738   4.707   0.165   4.354  0.1439  0.5512  0.3597
 3911TIP3    H111739   4.681   0.236   4.412  0.4816 -0.4059  1.7283
 3911TIP3    H211740   4.693   0.085   4.405  2.9632 -0.1924  0.1163
 3912TIP3   OH211741   5.516   5.043   1.602 -0.2125  0.4068 -0.1798
 3912TIP3    H111742   5.503   5.112   1.536  0.3104 -1.0657 -1.8965
 3912TIP3    H211743   5.600   5.002   1.578  0.4359  0.3593  1.9433
 3913TIP3   OH211744   3.671   1.677   1.380 -0.1802 -0.9131  0.0744
 3913TIP3    H111745   3.737   1.743   1.400 -1.4056  0.4961 -0.3448
 3913TIP3    H211746   3.590   1.711   1.418 -1.2536 -1.1786 -1.8485
 3914TIP3   OH211747   2.461   3.105   5.143 -0.2946 -0.7688  0.0746
 3914TIP3    H111748   2.530   3.068   5.088  0.9203  1.8860 -0.3687
 3914TIP3    H211749   2.379   3.076   5.103  0.5669 -1.4695 -1.2578
 3915TIP3   OH211750   1.459   1.969   2.942  0.4103 -0.5185 -0.3674
 3915TIP3    H111751   1.433   2.061   2.949  0.6003 -0.5212  0.4666
 3915TIP3    H211752   1.379   1.920   2.962  0.0889 -0.5491 -1.6600
 3916TIP3   OH211753   5.310   5.608   0.433 -0.4411  0.0111  1.0727
 3916TIP3    H111754   5.298   5.614   0.528 -2.8021  3.0094  0.7238
 3916TIP3    H211755   5.257   5.532   0.408 -0.1001 -0.5887  2.0699
 3917TIP3   OH211756   5.555   2.028   2.034 -0.1154 -0.1769 -0.2308
 3917TIP3    H111757   5.612   1.953   2.048  1.1365  0.6530 -0.6406
 3917TIP3    H211758   5.561   2.046   1.940 -0.8715  0.0617 -0.2377
 3918TIP3   OH211759   6.035   5.920   4.398  0.2964  0.1807  0.6794
 3918TIP3    H111760   5.998   6.005   4.423 -2.5216 -0.4456 -0.8881
 3918TIP3    H211761   6.058   5.929   4.306 -0.4990 -0.8248  0.3503
 3919TIP3   OH211762   1.921   0.758   1.683 -0.2905  0.5465 -0.4236
 3919TIP3    H111763   1.833   0.784   1.656 -0.6832 -1.3364 -1.0972
 3919TIP3    H211764   1.945   0.822   1.750 -2.8239  0.1743  0.9635
 3920TIP3   OH211765   1.484   2.100   0.950  0.2479 -0.1593  0.3293
 3920TIP3    H111766   1.578   2.122   0.949 -0.2074  2.0187 -0.3769
 3920TIP3    H211767   1.463   2.093   1.043  0.6861  1.6630  0.6243
 3921TIP3   OH211768   1.213   1.036   4.274 -0.3156 -0.2962 -0.2067
 3921TIP3    H111769   1.246   1.114   4.229 -0.6560  1.6110  2.6224
 3921TIP3    H211770   1.292   0.995   4.310 -0.3849  0.9977  1.5754
 3922TIP3   OH211771   4.524   2.360   4.173 -0.0673  0.7868 -0.5017
 3922TIP3    H111772   4.514   2.273   4.210  1.2392  0.3510 -1.1045
 3922TIP3    H211773   4.490   2.352   4.084  1.5000  0.4292 -1.1057
 3923TIP3   OH211774   0.009   5.273   2.229 -0.3351  0.6833 -0.2128
 3923TIP3    H111775  -0.031   5.188   2.243  1.0531 -0.7285 -3.5975
 3923TIP3    H211776   0.101   5.254   2.209  0.1419  2.9987 -0.5532
 3924TIP3   OH211777   0.357   0.712   0.497  0.6467 -0.6957 -0.4775
 3924TIP3    H111778   0.338   0.664   0.416 -0.6523  0.7815 -1.0893
 3924TIP3    H211779   0.305   0.666   0.563  0.2847 -0.8117 -0.8352
 3925TIP3   OH211780   4.976   2.281   0.798  0.0101  0.3296 -0.9713
 3925TIP3    H111781   4.945   2.308   0.712 -1.0506  1.8704 -0.1620
 3925TIP3    H211782   4.958   2.357   0.854  0.8999 -0.5427  0.5497
 3926TIP3   OH211783   0.995   3.505   0.091 -0.1707  0.2012 -0.4727
 3926TIP3    H111784   1.025   3.498   0.001 -0.3051 -0.4621 -0.4704
 3926TIP3    H211785   1.033   3.587   0.123 -0.0281  0.3768 -1.0939
 3927TIP3   OH211786   2.409   0.995   4.209 -0.3162 -0.2307 -0.4275
 3927TIP3    H111787   2.414   0.979   4.303 -0.6869  0.5870 -0.2626
 3927TIP3    H211788   2.437   0.912   4.169  0.0764 -0.5048  0.3956
 3928TIP3   OH211789   4.961   2.919   4.214 -0.6134  0.4136  0.1741
 3928TIP3    H111790   4.916   2.839   4.240  0.0169 -0.2048 -0.5908
 3928TIP3    H211791   5.048   2.913   4.253  0.0236 -0.0991 -1.2560
 3929TIP3   OH211792   4.372   0.244   4.657  0.4845  0.1140 -0.6520
 3929TIP3    H111793   4.278   0.256   4.666  0.3374 -0.8620 -0.7937
 3929TIP3    H211794   4.409   0.331   4.674 -0.1939 -0.1343  2.6487
 3930TIP3   OH211795   2.941   2.574   1.000 -0.0349  0.1594 -0.0212
 3930TIP3    H111796   3.014   2.560   1.061 -0.5820  0.8556  0.8217
 3930TIP3    H211797   2.917   2.666   1.012 -0.8254  0.0327 -0.5439
 3931TIP3   OH211798   2.277   0.367   0.055 -0.6974 -0.3400  0.1013
 3931TIP3    H111799   2.338   0.357   0.128  0.0452  1.1630 -0.2627
 3931TIP3    H211800   2.286   0.459   0.029 -1.8433 -0.5344 -1.0954
 3932TIP3   OH211801   2.318   5.141   1.734  0.0056 -0.1326  0.4454
 3932TIP3    H111802   2.319   5.136   1.639  0.0810 -1.9459  0.5177
 3932TIP3    H211803   2.319   5.235   1.753 -1.3598  0.2988 -1.3457
 3933TIP3   OH211804   1.037   3.102   4.761 -0.5437  0.0064  0.1633
 3933TIP3    H111805   1.057   3.134   4.673  0.0766 -0.5940  0.0794
 3933TIP3    H211806   0.946   3.071   4.754 -0.7312  0.5970 -0.0770
 3934TIP3   OH211807   3.276   4.147   1.421  0.6123 -0.0068  0.1895
 3934TIP3    H111808   3.300   4.130   1.513 -0.6698 -1.1342  0.3398
 3934TIP3    H211809   3.328   4.085   1.371  0.3315 -0.3168  0.2743
 3935TIP3   OH211810   4.440   5.862   4.345  0.0821 -0.2237  0.0059
 3935TIP3    H111811   4.464   5.806   4.419  1.3998  0.7443  0.3320
 3935TIP3    H211812   4.523   5.892   4.309 -0.5838  0.6899 -0.8182
 3936TIP3   OH211813   4.425   2.645   5.052 -0.6470  0.0575 -0.1456
 3936TIP3    H111814   4.358   2.700   5.010  0.2504  0.3541 -1.2299
 3936TIP3    H211815   4.494   2.706   5.078 -0.1595 -0.4099 -0.3169
 3937TIP3   OH211816   4.528   0.760   2.870 -0.1010 -0.4708  0.0812
 3937TIP3    H111817   4.571   0.704   2.935 -0.8148 -1.6177 -0.4050
 3937TIP3    H211818   4.595   0.775   2.804  0.0624 -0.8876  0.1451
 3938TIP3   OH211819   6.281   5.414   0.354  0.1808 -0.0057 -0.2178
 3938TIP3    H111820   6.232   5.445   0.430  1.3232  0.9808  0.1501
 3938TIP3    H211821   6.373   5.426   0.378  0.5741  1.4145 -2.1678
 3939TIP3   OH211822   4.677   2.347   0.713 -0.6231 -0.1296 -0.1554
 3939TIP3    H111823   4.711   2.422   0.664 -1.0196 -0.6590 -1.2926
 3939TIP3    H211824   4.629   2.297   0.647  1.3511 -2.4920  0.0732
 3940TIP3   OH211825   0.976   5.722   4.093 -0.3772 -0.0942 -0.7542
 3940TIP3    H111826   0.920   5.704   4.169  0.3553  0.7569  0.0167
 3940TIP3    H211827   1.005   5.636   4.064 -1.5157 -0.5003 -0.7339
 3941TIP3   OH211828   2.809   1.147   2.371  0.1569  0.5262  0.7149
 3941TIP3    H111829   2.809   1.052   2.357 -1.2861  0.7523 -1.1802
 3941TIP3    H211830   2.725   1.165   2.413 -1.1628  1.2512 -1.9755
 3942TIP3   OH211831   3.484   3.134   2.049 -0.1882 -0.6275 -0.1026
 3942TIP3    H111832   3.507   3.145   2.141 -1.6698  0.3905  0.1683
 3942TIP3    H211833   3.389   3.126   2.049 -0.6738  3.1638 -1.8232
 3943TIP3   OH211834   3.705   4.770   1.300  0.0916  0.1135 -0.2765
 3943TIP3    H111835   3.718   4.856   1.341  2.2419 -0.4530  0.3175
 3943TIP3    H211836   3.743   4.708   1.361  0.0212 -1.1301 -1.4524
 3944TIP3   OH211837   6.068   0.136   3.419 -0.4558 -0.7333  0.4997
 3944TIP3    H111838   6.127   0.209   3.401  0.6024 -1.9795 -1.4548
 3944TIP3    H211839   6.062   0.133   3.514  1.1860  0.5870  0.6875
 3945TIP3   OH211840   1.555   3.577   0.145 -0.1641  0.5369 -0.1017
 3945TIP3    H111841   1.591   3.627   0.218  2.1033 -0.1420 -0.6769
 3945TIP3    H211842   1.546   3.488   0.178 -0.8920  0.5942 -0.1228
 3946TIP3   OH211843   4.186   2.694   0.805  0.6880 -0.6139  0.0546
 3946TIP3    H111844   4.223   2.775   0.772  0.1939 -0.0755  0.7894
 3946TIP3    H211845   4.246   2.626   0.774  2.4319  0.2348  1.4069
 3947TIP3   OH211846   4.972   5.249   0.088 -0.1596 -0.7593 -0.0173
 3947TIP3    H111847   4.982   5.204   0.004  0.7644 -1.1259  0.2797
 3947TIP3    H211848   4.989   5.341   0.069  1.6863 -1.0514  0.0417
 3948TIP3   OH211849   2.088   4.581   1.990  0.1833  0.3639 -0.3302
 3948TIP3    H111850   2.079   4.517   1.920 -1.0390 -0.0581  0.1839
 3948TIP3    H211851   2.000   4.615   2.003  0.5417  1.0266  0.4548
 3949TIP3   OH211852   5.925   3.660   4.744  0.0780  0.3160  0.0670
 3949TIP3    H111853   5.981   3.608   4.801 -1.3107  0.2574  1.4192
 3949TIP3    H211854   5.978   3.674   4.665  0.3206 -3.6728 -0.6846
 3950TIP3   OH211855   5.776   2.911   0.082  0.5018 -0.3531  0.1055
 3950TIP3    H111856   5.861   2.921   0.039 -0.4624 -1.7484 -2.2859
 3950TIP3    H211857   5.776   2.820   0.114 -0.6631 -0.8918 -1.3460
 3951TIP3   OH211858   2.082   4.234   0.784  0.1926 -0.6708 -0.1628
 3951TIP3    H111859   2.118   4.321   0.802  0.5206 -0.5297 -1.4004
 3951TIP3    H211860   2.017   4.220   0.852 -1.2442  1.3602 -1.0116
 3952TIP3   OH211861   2.333   1.934   0.610  0.3038 -0.1874  0.3481
 3952TIP3    H111862   2.269   1.983   0.560 -0.1926 -1.0297  0.1393
 3952TIP3    H211863   2.281   1.880   0.670  0.8847  1.2415  2.2417
 3953TIP3   OH211864   6.225   0.598   4.479 -0.3297  0.6141 -0.2821
 3953TIP3    H111865   6.194   0.634   4.396  0.8960  0.7164 -0.7061
 3953TIP3    H211866   6.241   0.674   4.534 -2.0908  0.5219  0.4366
 3954TIP3   OH211867   0.420   4.098   1.753  0.1244  0.4274  0.3039
 3954TIP3    H111868   0.480   4.162   1.791  0.5979  0.0618  0.1841
 3954TIP3    H211869   0.449   4.014   1.789 -0.7961  0.3226  0.8502
 3955TIP3   OH211870   4.525   0.056   4.772  0.1112  0.6793  0.9271
 3955TIP3    H111871   4.459   0.098   4.716 -1.0320 -0.4633  1.3673
 3955TIP3    H211872   4.587   0.017   4.710 -0.1570  0.9526  0.4778
 3956TIP3   OH211873   1.091   1.999   4.904 -0.2608  0.4353  0.4335
 3956TIP3    H111874   1.143   1.935   4.855 -0.8366  1.5686 -1.8239
 3956TIP3    H211875   1.013   1.952   4.932  0.8077 -0.6443  1.6628
 3957TIP3   OH211876   3.115   4.896   0.336 -0.1379 -0.0577  0.5166
 3957TIP3    H111877   3.148   4.986   0.329 -1.3345  0.3543 -0.0767
 3957TIP3    H211878   3.021   4.903   0.319 -0.2351 -1.4386  0.3371
 3958TIP3   OH211879   4.956   0.652   4.700  0.0982 -0.4305 -0.4664
 3958TIP3    H111880   4.871   0.691   4.681 -0.5008 -1.3338  0.2621
 3958TIP3    H211881   5.014   0.726   4.713 -0.4868  0.2028 -1.3076
 3959TIP3   OH211882   4.467   2.619   2.958 -0.2697 -0.5047 -0.2255
 3959TIP3    H111883   4.438   2.528   2.963 -0.7656 -0.3605 -0.4195
 3959TIP3    H211884   4.394   2.669   2.993 -0.0398 -0.1729 -0.2208
 3960TIP3   OH211885   4.182   1.130   1.384  0.1669 -0.6373  0.2045
 3960TIP3    H111886   4.097   1.141   1.341  0.3245  0.1892  0.0787
 3960TIP3    H211887   4.162   1.085   1.466 -0.4569 -0.0177  0.4032
 3961TIP3   OH211888   0.324   1.074   4.390  0.0949  0.0130 -0.0194
 3961TIP3    H111889   0.398   1.027   4.426  0.0752 -1.2444 -1.5075
 3961TIP3    H211890   0.344   1.166   4.406  0.1394 -0.4189  2.9345
 3962TIP3   OH211891   5.896   4.719   3.517  0.2545  0.0304 -0.6531
 3962TIP3    H111892   5.946   4.800   3.519 -0.4981  0.4879 -0.3016
 3962TIP3    H211893   5.812   4.743   3.479 -0.1744 -0.4641 -0.0375
 3963TIP3   OH211894   6.095   0.898   4.024 -0.0825  0.0180 -0.0551
 3963TIP3    H111895   6.020   0.955   4.040  1.3424  1.8982  0.2903
 3963TIP3    H211896   6.126   0.923   3.937  0.3278 -0.5402 -0.0777
 3964TIP3   OH211897   2.530   5.793   4.906 -0.2542  0.1288 -0.1793
 3964TIP3    H111898   2.467   5.853   4.867 -1.4870 -0.1676  1.2651
 3964TIP3    H211899   2.483   5.753   4.979  1.3996 -0.6303  0.5166
 3965TIP3   OH211900   2.868   1.451   2.850 -0.1643 -0.3014 -0.3629
 3965TIP3    H111901   2.835   1.533   2.815 -0.9470 -0.5798 -0.2995
 3965TIP3    H211902   2.800   1.387   2.830  0.2949 -0.8742 -0.1402
 3966TIP3   OH211903   2.184   5.535   2.478 -0.2149 -0.4047 -0.0988
 3966TIP3    H111904   2.197   5.607   2.416  2.2133  0.8080  1.5876
 3966TIP3    H211905   2.144   5.577   2.555  3.3362 -0.0782  1.8377
 3967TIP3   OH211906   3.570   5.118   4.816 -0.1453  0.9968  0.5036
 3967TIP3    H111907   3.530   5.107   4.730  2.7591 -2.0102 -0.6770
 3967TIP3    H211908   3.613   5.203   4.813 -3.0738  2.6140  0.4943
 3968TIP3   OH211909   2.596   2.811   2.073 -0.2729  0.2745 -0.8266
 3968TIP3    H111910   2.559   2.844   2.155  0.3929 -1.7871  0.3887
 3968TIP3    H211911   2.538   2.738   2.050  1.1342 -0.9292 -0.6496
 3969TIP3   OH211912   3.941   2.060   1.947 -0.3769  0.9509  0.2913
 3969TIP3    H111913   4.000   2.096   2.013  0.1182  0.8964 -0.1107
 3969TIP3    H211914   3.855   2.095   1.969 -0.5889 -0.5931  2.1072
 3970TIP3   OH211915   5.930   4.090   2.463 -0.3644  0.2811 -0.0040
 3970TIP3    H111916   5.889   4.088   2.550  2.7277  0.6982  1.6077
 3970TIP3    H211917   5.992   4.163   2.468  0.4463 -0.1747 -2.3293
 3971TIP3   OH211918   1.362   0.119   2.691 -0.5309  0.2300 -0.5732
 3971TIP3    H111919   1.287   0.122   2.751 -0.9719 -0.4838 -1.0777
 3971TIP3    H211920   1.340   0.182   2.622 -0.9555 -0.4315 -1.0468
 3972TIP3   OH211921   5.544   5.182   3.689  0.0354 -0.3633  0.0940
 3972TIP3    H111922   5.494   5.204   3.610  0.4061  0.8893  0.1879
 3972TIP3    H211923   5.600   5.109   3.662  0.6467  0.4751 -1.0151
 3973TIP3   OH211924   4.294   2.311   1.079 -0.6019  0.4339  0.1621
 3973TIP3    H111925   4.224   2.316   1.013 -0.0477 -0.0790 -0.4736
 3973TIP3    H211926   4.314   2.403   1.098 -1.3329  0.5920  0.2339
 3974TIP3   OH211927   2.448   0.594   2.979  0.0364  0.4769 -0.1136
 3974TIP3    H111928   2.479   0.517   3.026  0.1668 -0.4064 -1.5608
 3974TIP3    H211929   2.359   0.608   3.012  0.2741  0.1510  0.6902
 3975TIP3   OH211930   2.068   5.423   1.778  0.4728 -0.2432  0.2592
 3975TIP3    H111931   2.042   5.475   1.854  1.0965  0.0002  0.3110
 3975TIP3    H211932   1.988   5.377   1.752  0.8228 -2.4298  2.6916
 3976TIP3   OH211933   6.157   0.952   3.749  0.5357  0.3842 -0.5134
 3976TIP3    H111934   6.249   0.937   3.772  0.3434  0.7491  0.5841
 3976TIP3    H211935   6.154   1.042   3.718 -0.1789  2.4102  4.4093
 3977TIP3   OH211936   0.013   4.855   3.377 -0.1835  0.7391 -1.1141
 3977TIP3    H111937   0.093   4.848   3.428 -1.4100  1.8060  1.0581
 3977TIP3    H211938  -0.003   4.766   3.345  1.9228  0.5496 -1.7695
 3978TIP3   OH211939   0.123   2.497   0.733  0.3361 -0.2555  0.4627
 3978TIP3    H111940   0.121   2.528   0.824 -1.1162 -1.6441  0.9384
 3978TIP3    H211941   0.160   2.571   0.684  0.8304  0.6504  2.1162
 3979TIP3   OH211942   0.209   5.810   3.602 -0.4213  0.1624 -0.7181
 3979TIP3    H111943   0.282   5.757   3.633 -0.0370  0.0099 -1.8754
 3979TIP3    H211944   0.248   5.892   3.574 -0.3146 -0.7286 -3.4835
 3980TIP3   OH211945   2.358   2.973   4.193  0.3518 -0.1385  0.1213
 3980TIP3    H111946   2.384   3.061   4.167 -1.2113  0.0505 -0.9302
 3980TIP3    H211947   2.402   2.915   4.131  2.4285 -0.2591  1.5988
 3981TIP3   OH211948   4.069   5.759   1.255  0.8092  0.3532  0.1209
 3981TIP3    H111949   4.035   5.699   1.188 -0.5197  1.0297  0.1458
 3981TIP3    H211950   4.151   5.720   1.283  0.0061 -1.4577  0.1209
 3982TIP3   OH211951   3.927   0.790   4.794 -0.3411  0.9485  0.0725
 3982TIP3    H111952   3.834   0.794   4.816 -0.2929 -1.4408  1.0558
 3982TIP3    H211953   3.933   0.719   4.730  0.7526  1.4383 -0.3876
 3983TIP3   OH211954   3.237   2.185   3.633 -0.3535  0.0815 -0.2822
 3983TIP3    H111955   3.239   2.278   3.656  1.0491 -0.0679  0.2836
 3983TIP3    H211956   3.325   2.154   3.651 -0.6365 -1.2321 -1.0548
 3984TIP3   OH211957   2.346   1.415   0.507 -0.5493 -0.1356 -0.1019
 3984TIP3    H111958   2.251   1.416   0.520 -0.4135  0.4705  0.9545
 3984TIP3    H211959   2.365   1.327   0.473 -1.1440 -1.4795  2.7151
 3985TIP3   OH211960   5.582   2.224   3.228 -0.3514  0.3231  0.0150
 3985TIP3    H111961   5.566   2.130   3.219  1.5727  0.0136 -0.6146
 3985TIP3    H211962   5.657   2.230   3.287 -0.5193  1.4795  0.1373
 3986TIP3   OH211963   5.588   0.243   1.708  0.3159 -1.0742 -0.1618
 3986TIP3    H111964   5.497   0.216   1.723  0.7979 -3.2947 -0.9674
 3986TIP3    H211965   5.616   0.279   1.792 -1.2606 -0.4136  0.1211
 3987TIP3   OH211966   1.730   2.048   3.080  0.7708 -0.1133  0.1413
 3987TIP3    H111967   1.752   2.141   3.078  0.4221  0.0417  1.8598
 3987TIP3    H211968   1.635   2.045   3.070  0.9742 -0.4483 -2.0324
 3988TIP3   OH211969   1.962   1.513   3.840 -0.0374  0.1685  0.3960
 3988TIP3    H111970   1.895   1.573   3.874  1.3384  1.6746  0.6154
 3988TIP3    H211971   2.034   1.521   3.903 -0.0640 -2.3048  0.8146
 3989TIP3   OH211972   5.968   3.386   2.955 -0.6774 -0.9355  0.3018
 3989TIP3    H111973   5.889   3.371   2.904 -0.2125 -2.7923  0.0473
 3989TIP3    H211974   6.022   3.444   2.901 -0.9742 -1.3976 -0.5096
 3990TIP3   OH211975   4.596   1.791   4.400 -0.3120 -0.2014 -0.2089
 3990TIP3    H111976   4.623   1.869   4.352  0.6311 -1.2441 -1.4631
 3990TIP3    H211977   4.620   1.808   4.491 -0.8026  1.2463 -0.3298
 3991TIP3   OH211978   1.811   5.801   3.420 -0.7054  0.4212 -0.1049
 3991TIP3    H111979   1.797   5.879   3.366  0.0011  0.2416 -0.5609
 3991TIP3    H211980   1.888   5.759   3.382 -0.8977 -0.3381  0.3255
 3992TIP3   OH211981   2.913   4.393   2.986 -0.4006 -0.6980 -0.0926
 3992TIP3    H111982   2.960   4.440   2.917  1.8410 -1.4692  0.8083
 3992TIP3    H211983   2.964   4.313   2.999 -0.5514 -0.4333  2.6602
 3993TIP3   OH211984   2.091   0.429   1.908 -0.2089 -0.2991  0.0553
 3993TIP3    H111985   2.157   0.489   1.942  0.6331  0.2610 -2.3850
 3993TIP3    H211986   2.012   0.482   1.901  0.2855  0.3094 -1.1992
 3994TIP3   OH211987   5.315   3.919   1.025 -0.0992 -0.2348 -0.0954
 3994TIP3    H111988   5.255   3.972   1.078 -1.6742 -3.0827  1.1534
 3994TIP3    H211989   5.401   3.961   1.037 -1.1812  1.7992  1.0671
 3995TIP3   OH211990   4.216   5.097   4.215  0.1121 -0.2128  0.1079
 3995TIP3    H111991   4.153   5.167   4.233 -0.3982 -0.9281  1.1499
 3995TIP3    H211992   4.284   5.140   4.163 -0.3523  0.9828  0.4475
 3996TIP3   OH211993   4.559   4.526   2.373 -0.0438 -0.4902 -0.2262
 3996TIP3    H111994   4.465   4.544   2.368 -0.4129 -1.8325  1.0420
 3996TIP3    H211995   4.573   4.453   2.312  0.1907 -0.2570 -0.4534
 3997TIP3   OH211996   2.887   5.939   4.386 -0.3886  0.0093  0.2401
 3997TIP3    H111997   2.905   5.927   4.479  4.5482 -1.3037 -0.5752
 3997TIP3    H211998   2.875   5.851   4.351 -2.5620  0.5013 -0.4452
 3998TIP3   OH211999   6.114   5.517   1.026  0.2865  0.4351 -0.4384
 3998TIP3    H112000   6.177   5.576   1.067 -0.0403  0.0790  0.6289
 3998TIP3    H212001   6.045   5.575   0.993  0.5309  0.7297 -0.4355
 3999TIP3   OH212002   5.067   5.073   0.580  0.2147 -0.4842  0.2533
 3999TIP3    H112003   5.128   5.000   0.586 -1.4270 -1.9151  0.2205
 3999TIP3    H212004   4.987   5.035   0.543  0.0510  1.8165 -2.0235
 4000TIP3   OH212005   6.011   3.906   3.419 -0.5949 -0.0950 -0.2062
 4000TIP3    H112006   5.916   3.914   3.416 -0.7415 -1.0536  0.8400
 4000TIP3    H212007   6.035   3.945   3.503 -0.2574 -1.2656  0.2635
 4001TIP3   OH212008   5.134   1.006   2.932 -0.5450  0.0706  0.0827
 4001TIP3    H112009   5.227   1.007   2.954 -0.5265  0.3869 -0.0014
 4001TIP3    H212010   5.093   0.961   3.005 -0.4204  0.6721  0.5355
 4002TIP3   OH212011   6.187   1.665   3.509 -0.0296  0.2169  0.4203
 4002TIP3    H112012   6.100   1.650   3.472 -0.1178  0.1581  0.6498
 4002TIP3    H212013   6.234   1.715   3.442  0.4546 -1.5491 -0.6313
 4003TIP3   OH212014   5.258   5.878   1.886 -0.2526 -0.1660  0.2570
 4003TIP3    H112015   5.330   5.854   1.944 -1.2729 -2.4785  0.6839
 4003TIP3    H212016   5.252   5.805   1.823 -0.9651  0.9380 -1.0162
 4004TIP3   OH212017   0.428   0.418   4.533  0.4006 -0.3380 -0.1144
 4004TIP3    H112018   0.411   0.466   4.452 -1.4570  0.5309  0.7245
 4004TIP3    H212019   0.354   0.357   4.540  1.6441 -1.9102 -0.0996
 4005TIP3   OH212020   0.534   3.401   4.246  0.0284  0.0474  0.2781
 4005TIP3    H112021   0.477   3.472   4.217 -2.7869 -2.2203 -0.1155
 4005TIP3    H212022   0.552   3.350   4.166 -1.7234 -2.1114  1.1549
 4006TIP3   OH212023   4.552   2.829   1.720  0.4381  1.2750  0.2788
 4006TIP3    H112024   4.558   2.851   1.627  1.0236  0.5868  0.1463
 4006TIP3    H212025   4.465   2.861   1.746  0.0815  1.0731 -0.6079
 4007TIP3   OH212026   5.529   5.001   2.854  0.4853  0.2393 -0.0493
 4007TIP3    H112027   5.469   4.972   2.785  0.6132 -0.5814  0.1728
 4007TIP3    H212028   5.591   5.058   2.809  0.9631 -0.8059 -0.7542
 4008TIP3   OH212029   6.151   5.144   2.599 -0.8324  0.3846  0.1756
 4008TIP3    H112030   6.087   5.132   2.529 -1.6872  1.2519  0.7991
 4008TIP3    H212031   6.206   5.216   2.568  1.2711 -1.7251 -1.3532
 4009TIP3   OH212032   5.167   2.255   0.532 -0.8337 -0.4833  0.1192
 4009TIP3    H112033   5.238   2.245   0.596 -1.5627 -0.2384  0.9796
 4009TIP3    H212034   5.138   2.345   0.542 -3.4585 -1.4296  2.1503
 4010TIP3   OH212035   5.387   4.814   3.670  0.3015  0.1816 -0.1812
 4010TIP3    H112036   5.343   4.854   3.595  0.2269  0.4191 -0.0124
 4010TIP3    H212037   5.316   4.789   3.730  0.3669  0.0950 -0.1381
 4011TIP3   OH212038   1.869   1.842   4.988 -0.4956  0.1946 -0.0844
 4011TIP3    H112039   1.900   1.849   5.078 -0.8448  0.9537 -0.0184
 4011TIP3    H212040   1.788   1.894   4.986 -1.3682 -1.1193 -0.4422
 4012TIP3   OH212041   4.919   3.487   2.688  0.1866 -0.1764 -0.4851
 4012TIP3    H112042   4.859   3.546   2.735 -0.3441  0.0631 -1.4167
 4012TIP3    H212043   4.883   3.484   2.599  1.7654  0.2337 -1.1586
 4013TIP3   OH212044   5.232   2.518   0.738  0.5775  0.0793  0.0026
 4013TIP3    H112045   5.171   2.562   0.679  0.7315 -0.4693 -0.5842
 4013TIP3    H212046   5.293   2.586   0.766 -0.0553  0.5407  0.2677
 4014TIP3   OH212047   3.342   5.338   2.514  0.2218  0.0699 -0.3074
 4014TIP3    H112048   3.292   5.385   2.580  1.6146 -0.6590  1.3290
 4014TIP3    H212049   3.290   5.347   2.434 -0.9650  1.9007  0.6041
 4015TIP3   OH212050   5.730   1.468   3.876 -0.3857 -0.8774 -0.1007
 4015TIP3    H112051   5.706   1.488   3.786 -2.5502 -1.1319  0.3730
 4015TIP3    H212052   5.680   1.390   3.898  0.1016 -0.8280  1.3167
 4016TIP3   OH212053   3.390   0.967   1.343 -0.2303  0.3901  0.2489
 4016TIP3    H112054   3.311   0.913   1.331 -1.5475  2.2101  0.3251
 4016TIP3    H212055   3.414   0.994   1.255 -0.6358  1.1216  0.3619
 4017TIP3   OH212056   0.998   1.349   0.479  0.0998  0.1589  0.1568
 4017TIP3    H112057   1.070   1.409   0.462  1.0291 -1.4288 -2.0227
 4017TIP3    H212058   0.968   1.322   0.392 -0.5428 -2.1829  1.0211
 4018TIP3   OH212059   5.158   3.597   4.159 -0.0492 -0.0790  0.3351
 4018TIP3    H112060   5.161   3.653   4.237 -0.1586  1.3270 -0.6367
 4018TIP3    H212061   5.223   3.634   4.100  1.3900 -2.2548  0.4308
 4019TIP3   OH212062   3.595   1.135   3.340  0.2476 -0.1364 -0.0607
 4019TIP3    H112063   3.514   1.182   3.319  0.8170  0.8435 -0.1526
 4019TIP3    H212064   3.578   1.045   3.315  0.0193  0.5087 -2.4241
 4020TIP3   OH212065   3.486   3.673   1.980 -0.2045 -0.1008  0.3229
 4020TIP3    H112066   3.509   3.673   2.073  0.3987 -0.6738  0.1770
 4020TIP3    H212067   3.563   3.637   1.936 -0.8023 -0.5954 -0.3291
 4021TIP3   OH212068   5.081   3.517   5.090  0.0236  0.3556 -0.0598
 4021TIP3    H112069   5.096   3.423   5.079 -1.6434 -0.0202  0.6021
 4021TIP3    H212070   5.159   3.558   5.053  1.5427 -1.3246  1.1048
 4022TIP3   OH212071   4.049   0.034   3.624 -0.0706 -0.2761  0.3152
 4022TIP3    H112072   4.044   0.075   3.538 -0.4481  1.7122  1.2278
 4022TIP3    H212073   4.053  -0.060   3.606 -0.6492  0.0682 -1.8398
 4023TIP3   OH212074   0.434   3.140   1.474 -0.3871 -0.0902  0.0150
 4023TIP3    H112075   0.381   3.154   1.396 -0.2972  0.1045 -0.0114
 4023TIP3    H212076   0.409   3.211   1.534  0.3723  0.4474 -0.2828
 4024TIP3   OH212077   3.456   5.221   3.673  0.4373  0.3409 -0.5570
 4024TIP3    H112078   3.476   5.310   3.703 -0.1195 -0.2481  1.8078
 4024TIP3    H212079   3.532   5.195   3.623  0.6441  2.1141 -1.2345
 4025TIP3   OH212080   1.252   1.650   2.536 -0.0018 -0.2141  0.6675
 4025TIP3    H112081   1.332   1.633   2.487  0.1346  1.6663  0.1839
 4025TIP3    H212082   1.183   1.610   2.484  0.3724  0.0694 -0.0517
 4026TIP3   OH212083   1.761   1.389   0.594 -0.5228 -0.0869 -0.2740
 4026TIP3    H112084   1.757   1.483   0.614  0.5084 -0.0283 -0.2710
 4026TIP3    H212085   1.696   1.349   0.651  0.6200  0.3732  1.4098
 4027TIP3   OH212086   1.859   3.260   3.195  0.2864 -0.0383 -0.1822
 4027TIP3    H112087   1.937   3.206   3.210 -0.0067 -0.8139 -1.3221
 4027TIP3    H212088   1.893   3.341   3.155  0.7346  0.6974  1.5996
 4028TIP3   OH212089   4.273   2.519   0.244  0.2347 -0.0226 -0.3165
 4028TIP3    H112090   4.365   2.494   0.242  0.1297 -0.4796  0.2720
 4028TIP3    H212091   4.232   2.456   0.303 -0.3256  0.6086 -0.0151
 4029TIP3   OH212092   1.732   2.380   1.480  0.7730 -0.6297  0.7282
 4029TIP3    H112093   1.824   2.389   1.502  1.2496 -1.3030 -0.8654
 4029TIP3    H212094   1.713   2.456   1.424  0.3438 -0.4667  1.0864
 4030TIP3   OH212095   1.297   1.404   0.941  0.0509 -0.6327 -0.2435
 4030TIP3    H112096   1.282   1.419   0.847  1.1174  1.5576 -0.1230
 4030TIP3    H212097   1.392   1.410   0.951 -0.0818 -0.4010  1.0258
 4031TIP3   OH212098   3.423   1.718   3.966  0.2416 -0.4540 -0.0312
 4031TIP3    H112099   3.426   1.720   3.871  0.7299 -0.8978 -0.0325
 4031TIP3    H212100   3.354   1.779   3.990  0.6717  0.2809 -0.6410
 4032TIP3   OH212101   5.464   5.869   3.018  0.2609  0.5360 -0.4088
 4032TIP3    H112102   5.371   5.886   3.004  0.0183 -0.1785  0.2053
 4032TIP3    H212103   5.494   5.828   2.937 -0.2429 -0.2465 -0.2189
 4033TIP3   OH212104   3.800   0.723   3.844  0.2098 -0.0588 -0.2730
 4033TIP3    H112105   3.724   0.760   3.799  0.7348  1.2074 -0.1653
 4033TIP3    H212106   3.762   0.668   3.913 -0.6957  2.1595  1.1283
 4034TIP3   OH212107   0.503   1.388   2.063 -0.1750 -0.3133  0.6302
 4034TIP3    H112108   0.423   1.408   2.014  1.4259  0.5034 -1.8280
 4034TIP3    H212109   0.492   1.297   2.090 -1.0278 -0.9580 -1.6358
 4035TIP3   OH212110   4.191   3.027   3.654 -0.4881  0.1073  0.9751
 4035TIP3    H112111   4.239   3.091   3.602 -0.7553 -0.2565  0.2648
 4035TIP3    H212112   4.100   3.057   3.652 -0.7282 -0.6406  0.0787
 4036TIP3   OH212113   4.489   0.783   4.544 -0.1683 -0.3674  0.4864
 4036TIP3    H112114   4.497   0.876   4.566  0.5419 -0.5471  1.0380
 4036TIP3    H212115   4.394   0.768   4.538 -0.3107  1.1440 -3.0365
 4037TIP3   OH212116   5.558   5.398   0.839  0.0580  0.5824 -0.3962
 4037TIP3    H112117   5.509   5.362   0.765 -0.1545 -2.0662  0.9028
 4037TIP3    H212118   5.561   5.492   0.822 -0.8803  0.2142 -3.1977
 4038TIP3   OH212119   5.735   0.178   0.944  0.0227  0.1528 -0.0795
 4038TIP3    H112120   5.720   0.268   0.972 -2.6743 -0.7794  1.9949
 4038TIP3    H212121   5.763   0.132   1.023  2.1501 -0.7566 -1.2743
 4039TIP3   OH212122   1.776   1.984   4.412 -0.0236  0.0239  0.2268
 4039TIP3    H112123   1.805   1.910   4.359 -0.0592  0.0703  0.1426
 4039TIP3    H212124   1.685   1.964   4.434 -0.4718  0.6835 -0.9356
 4040TIP3   OH212125   3.312   3.272   4.766 -0.7315 -0.2312  0.6173
 4040TIP3    H112126   3.396   3.302   4.799 -0.1640 -0.7183 -0.3187
 4040TIP3    H212127   3.260   3.351   4.755  0.3358  0.3323 -0.7241
 4041TIP3   OH212128   0.899   0.394   2.014  0.2714  0.1675  0.4943
 4041TIP3    H112129   0.910   0.468   2.074  2.6479  0.1933  0.1281
 4041TIP3    H212130   0.805   0.385   2.003 -0.1037  2.3845  1.4897
 4042TIP3   OH212131   5.440   5.633   4.250  0.4347  0.4645 -0.0102
 4042TIP3    H112132   5.520   5.628   4.197  1.6870 -0.7232  1.9018
 4042TIP3    H212133   5.434   5.549   4.294 -2.1989  0.3173 -0.4689
 4043TIP3   OH212134   0.817   0.363   2.787  0.4403 -0.1322 -0.2666
 4043TIP3    H112135   0.783   0.351   2.875 -0.1466 -0.9273 -0.5811
 4043TIP3    H212136   0.895   0.418   2.798 -0.6238  1.2597  0.5326
 4044TIP3   OH212137   5.997   2.293   3.723 -0.0764  0.3583 -0.8297
 4044TIP3    H112138   6.050   2.247   3.659 -2.1320 -0.5121 -2.0042
 4044TIP3    H212139   5.910   2.253   3.715 -0.6848  0.9894  1.7229
 4045TIP3   OH212140   1.545   4.778   2.462 -0.0648 -0.0502 -0.4953
 4045TIP3    H112141   1.566   4.705   2.404 -1.7592 -1.0930  0.1213
 4045TIP3    H212142   1.464   4.815   2.426  0.4661  1.2060 -0.4703
 4046TIP3   OH212143   0.753   5.779   2.055  0.1315  0.1253 -0.9529
 4046TIP3    H112144   0.796   5.844   2.110 -0.9214  1.0430 -1.1560
 4046TIP3    H212145   0.661   5.806   2.053 -0.6638 -2.2221  0.1469
 4047TIP3   OH212146   6.107   1.017   1.329 -0.3244  0.0161  0.0081
 4047TIP3    H112147   6.098   0.926   1.302 -0.5000  0.2150 -0.6225
 4047TIP3    H212148   6.048   1.026   1.404  1.8485 -1.1279  2.0014
 4048TIP3   OH212149   0.813   3.028   5.057 -0.0518 -0.2790  0.1576
 4048TIP3    H112150   0.903   2.997   5.066 -0.4643 -1.1660  1.6752
 4048TIP3    H212151   0.760   2.948   5.061 -0.9219  0.2563 -0.4088
 4049TIP3   OH212152   2.831   1.005   1.133 -0.2298  0.0236  0.7398
 4049TIP3    H112153   2.876   1.084   1.101 -0.7455 -0.3684 -1.0954
 4049TIP3    H212154   2.898   0.937   1.133 -0.8234 -0.7515 -2.7324
 4050TIP3   OH212155   1.775   1.301   2.819  0.2286  0.1188  0.3941
 4050TIP3    H112156   1.857   1.345   2.842  0.9218 -0.9700  0.1028
 4050TIP3    H212157   1.739   1.352   2.746  1.6775 -0.5039 -0.8111
 4051TIP3   OH212158   4.379   3.690   1.022  0.4041 -0.1060 -0.2770
 4051TIP3    H112159   4.386   3.726   1.110  0.7568  0.7981 -0.6586
 4051TIP3    H212160   4.455   3.632   1.014 -0.0015 -0.7288  0.2375
 4052TIP3   OH212161   4.050   0.766   3.728  0.3805 -0.0081  0.6027
 4052TIP3    H112162   4.091   0.687   3.763  2.7706  2.1916  3.3439
 4052TIP3    H212163   3.962   0.767   3.765 -0.3717 -2.1166 -0.9094
 4053TIP3   OH212164   1.514   1.707   1.665  0.3289 -0.1830 -0.1645
 4053TIP3    H112165   1.572   1.635   1.691 -1.3795 -1.6234 -0.1468
 4053TIP3    H212166   1.474   1.736   1.746  0.6628  0.5038 -0.2368
 4054TIP3   OH212167   5.469   3.057   4.258  0.0113 -0.2590 -0.3446
 4054TIP3    H112168   5.516   3.093   4.333  0.5004 -0.4826 -0.5381
 4054TIP3    H212169   5.489   3.117   4.186 -0.1400 -0.2584 -0.3865
 4055TIP3   OH212170   3.263   1.238   1.744  0.1405 -0.0452 -0.1585
 4055TIP3    H112171   3.300   1.155   1.717 -0.0730  0.1349 -1.0245
 4055TIP3    H212172   3.188   1.215   1.799  1.4046 -0.4114  1.5006
 4056TIP3   OH212173   5.244   1.152   1.438 -0.1583  0.3496 -0.5607
 4056TIP3    H112174   5.174   1.151   1.373  1.7555  0.0296 -2.7561
 4056TIP3    H212175   5.301   1.224   1.410  2.0463 -1.3899 -0.8202
 4057TIP3   OH212176   2.172   1.440   0.882 -0.3083 -0.0500 -0.2801
 4057TIP3    H112177   2.220   1.520   0.904  0.5767 -0.7503  0.4325
 4057TIP3    H212178   2.167   1.392   0.965  0.3580 -1.3433 -0.9531
 4058TIP3   OH212179   5.140   4.425   4.658  0.1546 -0.7808 -0.1057
 4058TIP3    H112180   5.209   4.482   4.693  1.0472 -1.2775 -1.0207
 4058TIP3    H212181   5.058   4.470   4.679  0.8195  0.5398 -0.3024
 4059TIP3   OH212182   4.397   1.727   3.703  0.4285  0.2475  0.2898
 4059TIP3    H112183   4.481   1.693   3.732  0.1981 -0.9164 -0.3530
 4059TIP3    H212184   4.419   1.804   3.651  1.0654  0.1750  0.4429
 4060TIP3   OH212185   5.451   2.603   4.964  0.4168 -0.3193 -0.6154
 4060TIP3    H112186   5.385   2.547   5.004 -0.3659  0.7177 -0.4277
 4060TIP3    H212187   5.403   2.660   4.904  1.0898  0.6240 -0.2929
 4061TIP3   OH212188   1.578   2.543   0.561  0.2073 -0.3977 -0.4547
 4061TIP3    H112189   1.537   2.590   0.634 -0.0605  0.3355 -1.0552
 4061TIP3    H212190   1.660   2.509   0.597  0.3047  0.3587  0.0751
 4062TIP3   OH212191   0.400   5.353   2.868  0.0623  0.2533  0.1451
 4062TIP3    H112192   0.369   5.370   2.957 -0.9459  1.3812 -0.3904
 4062TIP3    H212193   0.358   5.270   2.844  0.3916 -0.0948  0.7170
 4063TIP3   OH212194   5.963   0.955   2.709 -0.0537 -0.1363  0.2164
 4063TIP3    H112195   5.952   0.861   2.719 -1.7227  0.0987  0.7903
 4063TIP3    H212196   6.012   0.965   2.627 -1.4337 -1.4299 -0.8053
 4064TIP3   OH212197   1.590   5.691   2.840 -0.0559 -0.6705  0.1950
 4064TIP3    H112198   1.547   5.652   2.764 -0.0366  0.9543 -0.6953
 4064TIP3    H212199   1.560   5.638   2.914 -2.1609 -0.7085 -0.6063
 4065TIP3   OH212200   4.669   5.883   0.727  0.2610 -0.5201 -0.0979
 4065TIP3    H112201   4.727   5.922   0.661 -1.6927  2.4342 -0.2229
 4065TIP3    H212202   4.703   5.915   0.810 -0.5808  0.4257 -0.1054
 4066TIP3   OH212203   1.919   2.200   4.965  0.2693 -0.0374  0.3538
 4066TIP3    H112204   1.856   2.170   4.899  1.0721 -2.4639  0.5823
 4066TIP3    H212205   2.001   2.212   4.916  0.5966 -0.7870  0.7033
 4067TIP3   OH212206   2.123   0.040   1.055 -0.6114  0.4656  0.2384
 4067TIP3    H112207   2.151  -0.042   1.097  0.6392  0.8008  0.1135
 4067TIP3    H212208   2.159   0.109   1.110 -0.3601  0.9142 -0.4684
 4068TIP3   OH212209   2.612   0.037   4.016  0.0940  0.4818  0.1015
 4068TIP3    H112210   2.606  -0.058   4.027 -2.5280  0.5578  0.0117
 4068TIP3    H212211   2.571   0.073   4.094 -0.5218  1.4719 -0.6459
 4069TIP3   OH212212   3.671   1.503   3.551 -0.1540  0.4257 -0.1792
 4069TIP3    H112213   3.637   1.542   3.471 -0.1367  0.5795 -0.1123
 4069TIP3    H212214   3.738   1.564   3.581 -0.1329  0.3489 -0.0687
 4070TIP3   OH212215   4.467   4.786   2.481 -0.4144 -0.3120 -0.0462
 4070TIP3    H112216   4.497   4.755   2.395 -3.0053 -0.7615 -0.8651
 4070TIP3    H212217   4.460   4.881   2.472 -0.5908 -0.3489 -0.2898
 4071TIP3   OH212218   6.315   2.152   3.217  0.0787  0.0543 -0.1199
 4071TIP3    H112219   6.232   2.134   3.173 -0.6366 -0.3413  1.3407
 4071TIP3    H212220   6.358   2.217   3.161 -0.3355 -1.1322 -1.9117
 4072TIP3   OH212221   5.498   5.324   4.840 -1.0411 -0.6337  0.1456
 4072TIP3    H112222   5.583   5.281   4.832 -0.6394  0.0401  0.7004
 4072TIP3    H212223   5.485   5.369   4.757 -0.4592 -0.0404  0.3729
 4073TIP3   OH212224   0.791   3.646   0.918  0.3571 -0.1995 -0.0573
 4073TIP3    H112225   0.788   3.656   0.823  0.1821 -1.5796 -0.2191
 4073TIP3    H212226   0.701   3.624   0.942 -0.3376  2.9954  0.8469
 4074TIP3   OH212227   1.403   3.799   2.677  0.1105 -0.3504 -0.0518
 4074TIP3    H112228   1.485   3.786   2.629  0.4216  0.5112  0.2211
 4074TIP3    H212229   1.343   3.733   2.641  0.4772 -0.0444 -1.2894
 4075TIP3   OH212230   1.646   2.240   1.717  0.2933  0.1331 -0.0719
 4075TIP3    H112231   1.717   2.268   1.774  0.0031  0.1305  0.2966
 4075TIP3    H212232   1.677   2.259   1.628  0.6508  0.3600  0.1001
 4076TIP3   OH212233   0.611   4.109   0.486  0.1451  0.0331  0.6374
 4076TIP3    H112234   0.622   4.082   0.394  1.4367  1.3687  0.3485
 4076TIP3    H212235   0.701   4.117   0.519 -0.2457  1.4252  1.4359
 4077TIP3   OH212236   4.109   0.276   1.805 -0.2060  0.3696 -0.0013
 4077TIP3    H112237   4.120   0.224   1.725  0.3864  2.4348 -1.3380
 4077TIP3    H212238   4.183   0.337   1.803  0.9295 -0.7286  3.1575
 4078TIP3   OH212239   0.626   3.372   2.300 -0.9115  0.0752  0.3221
 4078TIP3    H112240   0.637   3.455   2.252 -0.9762  0.2023  0.5274
 4078TIP3    H212241   0.646   3.304   2.235 -2.8930  0.1587 -0.4515
 4079TIP3   OH212242   0.532   0.974   0.163  0.1593 -0.5360  0.4778
 4079TIP3    H112243   0.585   0.916   0.219  0.1946 -1.7970 -0.8050
 4079TIP3    H212244   0.453   0.992   0.215  1.0119 -0.1180  1.6789
 4080TIP3   OH212245   0.662   5.689   4.642 -0.6029  0.1577 -0.3832
 4080TIP3    H112246   0.673   5.754   4.572  0.3954  1.3135  0.7867
 4080TIP3    H212247   0.739   5.632   4.634 -0.1813  0.6450  0.1073
 4081TIP3   OH212248   5.459   4.788   4.976 -0.5693 -0.2897 -0.0409
 4081TIP3    H112249   5.530   4.756   5.031 -0.1100 -3.0559 -1.9730
 4081TIP3    H212250   5.496   4.863   4.930 -0.8081  1.7633  2.8415
 4082TIP3   OH212251   1.347   1.036   0.760  0.5827 -0.0402 -0.1901
 4082TIP3    H112252   1.407   1.100   0.798  1.0274 -0.3045 -0.4488
 4082TIP3    H212253   1.267   1.044   0.813  0.8627  0.2682  0.1894
 4083TIP3   OH212254   4.819   3.505   3.876 -0.0697  0.3784  0.0966
 4083TIP3    H112255   4.799   3.563   3.949 -1.1206  1.6443 -1.1422
 4083TIP3    H212256   4.826   3.563   3.800  0.6118 -0.9362 -0.8823
 4084TIP3   OH212257   0.523   0.887   3.466  0.3053  0.2515 -0.5685
 4084TIP3    H112258   0.499   0.902   3.557  0.9704  2.3798 -0.6982
 4084TIP3    H212259   0.441   0.900   3.418 -0.1914 -1.5011 -0.2730
 4085TIP3   OH212260   0.601   2.431   3.893 -0.1160 -0.0148  0.1341
 4085TIP3    H112261   0.676   2.484   3.867 -0.8705  0.8528 -0.3057
 4085TIP3    H212262   0.597   2.362   3.826 -1.0467  1.2450 -1.1518
 4086TIP3   OH212263   0.590   4.981   3.001 -0.0815  0.5033 -0.5151
 4086TIP3    H112264   0.574   5.070   3.034 -0.7411  0.7578 -1.4583
 4086TIP3    H212265   0.561   4.924   3.072  0.8400  1.0277  0.3139
 4087TIP3   OH212266   4.269   0.180   0.593 -0.0582  0.0273 -0.3645
 4087TIP3    H112267   4.332   0.211   0.528 -0.6663 -0.2118 -1.0896
 4087TIP3    H212268   4.207   0.252   0.602  1.5342  1.2284  2.0798
 4088TIP3   OH212269   5.187   1.396   0.545  0.0534 -0.1746 -0.3912
 4088TIP3    H112270   5.118   1.331   0.536  1.0947 -1.2596 -0.9759
 4088TIP3    H212271   5.268   1.344   0.548  0.9639  1.1121 -1.4112
 4089TIP3   OH212272   0.654   3.179   2.115 -0.0861 -0.1923 -0.2548
 4089TIP3    H112273   0.595   3.116   2.156  1.7678 -1.0813  1.2082
 4089TIP3    H212274   0.614   3.198   2.030 -0.4486 -3.7947 -1.0556
 4090TIP3   OH212275   0.851   0.215   1.356 -0.6873 -0.5495 -0.2546
 4090TIP3    H112276   0.866   0.232   1.449 -0.8103 -1.2693 -0.1023
 4090TIP3    H212277   0.897   0.287   1.312  0.6132 -0.9937  0.3141
 4091TIP3   OH212278   5.613   2.231   0.763 -0.8011  0.3542 -0.3068
 4091TIP3    H112279   5.672   2.216   0.689 -1.6060 -1.7408 -0.6015
 4091TIP3    H212280   5.669   2.227   0.840  0.0875  2.7878 -0.7362
 4092TIP3   OH212281   6.018   4.514   1.143  1.0120  0.4857 -0.6378
 4092TIP3    H112282   6.054   4.484   1.060  2.1169 -2.5390  0.7799
 4092TIP3    H212283   6.095   4.530   1.198  0.3087 -0.1718  0.5830
 4093TIP3   OH212284   0.230   4.669   4.337  0.4823  0.0908 -0.3161
 4093TIP3    H112285   0.306   4.669   4.395 -0.3031 -0.1642  0.7317
 4093TIP3    H212286   0.217   4.761   4.314  1.1601  0.1242 -0.5902
 4094TIP3   OH212287   6.317   1.214   0.204  0.1052  0.5245 -0.4602
 4094TIP3    H112288   6.222   1.229   0.198 -0.2245 -0.8837  0.5813
 4094TIP3    H212289   6.355   1.277   0.144 -1.3576  2.6370  0.6892
 4095TIP3   OH212290   4.738   1.506   3.335  0.3406  0.4129 -0.3286
 4095TIP3    H112291   4.790   1.522   3.413  0.1956  0.8016 -0.3112
 4095TIP3    H212292   4.758   1.579   3.276  0.1005  0.3695 -0.4694
 4096TIP3   OH212293   2.108   2.151   0.399 -0.2513  0.1436  0.3479
 4096TIP3    H112294   2.186   2.100   0.376  1.1013  0.9527  2.8277
 4096TIP3    H212295   2.123   2.236   0.357 -0.0535  0.1273  0.3820
 4097TIP3   OH212296   0.280   3.505   1.259 -0.1516  0.0066  0.2078
 4097TIP3    H112297   0.237   3.589   1.274  0.3415  0.5792 -1.3475
 4097TIP3    H212298   0.224   3.460   1.197  0.0433 -0.4371  0.3501
 4098TIP3   OH212299   0.355   5.515   0.657 -0.1316  0.6590  0.1138
 4098TIP3    H112300   0.401   5.598   0.648  0.9597  0.0317 -0.2608
 4098TIP3    H212301   0.406   5.453   0.605 -0.4494 -0.4360  1.0588
 4099TIP3   OH212302   2.818   5.408   3.596 -0.2727  0.3572  0.1543
 4099TIP3    H112303   2.726   5.383   3.603  0.4672 -3.4231 -1.1419
 4099TIP3    H212304   2.858   5.378   3.678  0.3547 -1.5948 -0.7834
 4100TIP3   OH212305   1.736   4.975   3.197 -0.0120 -0.0202 -0.2528
 4100TIP3    H112306   1.725   4.997   3.104  1.6537 -0.9061 -0.7114
 4100TIP3    H212307   1.653   4.999   3.238 -1.1577 -0.5188 -2.1478
 4101TIP3   OH212308   1.825   3.899   2.659 -0.0737  0.5190  0.0438
 4101TIP3    H112309   1.851   3.810   2.684 -2.3299  0.3445  2.1744
 4101TIP3    H212310   1.807   3.894   2.565 -1.5542 -1.7151  0.3696
 4102TIP3   OH212311   3.398   4.236   2.840 -0.1944  0.1972  0.2942
 4102TIP3    H112312   3.354   4.188   2.770  0.3946  1.1374 -0.7503
 4102TIP3    H212313   3.407   4.173   2.911  0.0419 -1.0531 -0.8193
 4103TIP3   OH212314   2.279   1.003   2.989  0.1708  0.1968 -0.6144
 4103TIP3    H112315   2.205   1.002   3.050 -1.4179 -1.8634 -2.4123
 4103TIP3    H212316   2.278   1.092   2.953  1.0727  1.4143  2.1430
 4104TIP3   OH212317   4.250   2.698   4.480 -0.5275  0.4063 -0.3558
 4104TIP3    H112318   4.337   2.666   4.456 -0.2299  1.7040 -1.0843
 4104TIP3    H212319   4.196   2.619   4.483  0.2771 -0.2309 -1.6768
 4105TIP3   OH212320   5.950   4.658   0.155 -0.2853 -0.0273  0.7326
 4105TIP3    H112321   5.881   4.629   0.095 -0.0496 -1.4011  1.0983
 4105TIP3    H212322   6.027   4.607   0.129  0.1451  0.2606  1.4287
 4106TIP3   OH212323   4.560   2.852   1.245  0.2587 -0.3175  0.4516
 4106TIP3    H112324   4.491   2.919   1.246  1.5258  1.1845 -2.2108
 4106TIP3    H212325   4.516   2.772   1.275 -2.4095  0.7562 -0.3063
 4107TIP3   OH212326   2.943   4.666   3.071 -0.0381  0.1495 -0.2037
 4107TIP3    H112327   3.030   4.687   3.038 -0.8686  0.7937 -2.1766
 4107TIP3    H212328   2.935   4.571   3.062 -0.0692  0.2582 -1.5322
 4108TIP3   OH212329   1.299   5.145   2.844 -0.0886  0.0576 -0.2762
 4108TIP3    H112330   1.337   5.067   2.886 -0.1023  0.9056  1.4127
 4108TIP3    H212331   1.375   5.201   2.826 -0.3218  1.0830  1.6697
 4109TIP3   OH212332   4.815   4.636   2.764  0.3366  0.1611  0.5922
 4109TIP3    H112333   4.860   4.720   2.777  1.4661 -0.3620  0.1987
 4109TIP3    H212334   4.827   4.616   2.671  0.1100 -0.4532  0.6898
 4110TIP3   OH212335   6.160   5.591   0.535  0.2503  0.5670 -0.1168
 4110TIP3    H112336   6.224   5.585   0.606  0.8864 -0.7076 -0.7604
 4110TIP3    H212337   6.175   5.677   0.496 -0.1790  1.3320  1.3288
 4111TIP3   OH212338   5.061   2.113   4.683 -0.3208 -0.3119  0.2166
 4111TIP3    H112339   5.112   2.059   4.623 -0.4019  0.2624 -0.3854
 4111TIP3    H212340   5.125   2.172   4.722 -0.3041 -0.5353  0.5322
 4112TIP3   OH212341   6.145   2.312   2.414  0.6181 -0.2262 -0.2719
 4112TIP3    H112342   6.196   2.383   2.452  1.1389  0.9433 -2.9191
 4112TIP3    H212343   6.202   2.235   2.420  1.1681  0.2125  0.1889
 4113TIP3   OH212344   4.367   1.212   0.215 -0.0169  0.4022 -0.4845
 4113TIP3    H112345   4.325   1.132   0.182  2.5312 -0.9249 -0.7345
 4113TIP3    H212346   4.383   1.264   0.136  0.2609  0.1637 -0.5894
 4114TIP3   OH212347   5.911   5.410   2.275  0.3163  0.2264 -0.1745
 4114TIP3    H112348   5.913   5.506   2.286  0.4562  0.2488 -0.3896
 4114TIP3    H212349   5.845   5.395   2.208 -0.1818  0.1231  0.3336
 4115TIP3   OH212350   3.679   3.148   3.313 -0.3390 -0.4497 -0.3875
 4115TIP3    H112351   3.649   3.237   3.331  0.4140  0.0434 -1.4481
 4115TIP3    H212352   3.613   3.111   3.254  0.5919  0.3025 -1.9557
 4116TIP3   OH212353   4.418   2.093   1.513 -0.3275  0.0974  1.2852
 4116TIP3    H112354   4.379   2.010   1.484 -0.7173  0.2366  1.4203
 4116TIP3    H212355   4.492   2.066   1.568  0.7290 -0.1916 -0.1861
 4117TIP3   OH212356   4.920   5.715   3.208  0.2530 -0.1018  0.5664
 4117TIP3    H112357   4.928   5.775   3.134 -1.5234 -0.2041  0.2616
 4117TIP3    H212358   4.938   5.769   3.284  0.8573  0.2967  0.1482
 4118TIP3   OH212359   4.212   5.600   2.180  0.0118  0.1567  0.1309
 4118TIP3    H112360   4.304   5.579   2.192  0.3025  1.3863  0.2141
 4118TIP3    H212361   4.165   5.521   2.206  0.8098  0.8744  4.4318
 4119TIP3   OH212362   1.876   3.694   4.703  0.8557  0.0558  0.5953
 4119TIP3    H112363   1.943   3.647   4.654 -0.4230  0.5240 -1.7739
 4119TIP3    H212364   1.808   3.629   4.720 -0.0203  0.4818 -0.9600
 4120TIP3   OH212365   5.800   3.451   3.372  0.0901 -0.1765 -0.1788
 4120TIP3    H112366   5.726   3.408   3.417  0.3474  0.4088  0.8451
 4120TIP3    H212367   5.866   3.382   3.366 -0.1766 -0.4348 -0.2104
 4121TIP3   OH212368   3.085   4.440   2.457 -0.3300  0.3404  0.2501
 4121TIP3    H112369   2.998   4.465   2.488 -0.8113 -0.0426 -0.7507
 4121TIP3    H212370   3.085   4.461   2.364 -0.0448 -1.4633 -0.1957
 4122TIP3   OH212371   2.578   1.911   1.172  0.5748  0.4157  0.3816
 4122TIP3    H112372   2.601   1.860   1.094 -0.8072  1.0206 -0.4537
 4122TIP3    H212373   2.655   1.903   1.228  1.7828  0.2875 -1.1974
 4123TIP3   OH212374   4.413   3.681   2.718 -0.1736  0.1384  0.2227
 4123TIP3    H112375   4.396   3.740   2.791 -2.3260 -1.1780  0.8700
 4123TIP3    H212376   4.490   3.630   2.746  0.3248  1.0938  0.6182
 4124TIP3   OH212377   1.993   5.634   0.220  0.2868 -0.4229 -0.4140
 4124TIP3    H112378   1.963   5.547   0.247  1.1348 -0.9279 -1.0578
 4124TIP3    H212379   2.046   5.618   0.142  0.9845  0.6070 -0.1642
 4125TIP3   OH212380   4.975   1.440   0.705  0.0434 -0.2250  0.1489
 4125TIP3    H112381   5.053   1.449   0.651  0.6625  1.0155  1.1961
 4125TIP3    H212382   4.997   1.485   0.787 -2.2360  1.4346 -0.0501
 4126TIP3   OH212383   4.929   2.127   0.362  0.5855  0.7958  0.5630
 4126TIP3    H112384   4.962   2.183   0.432  1.1861  1.3566 -0.1479
 4126TIP3    H212385   4.991   2.139   0.290  0.5210 -0.4987  0.2555
 4127TIP3   OH212386   1.483   3.127   5.041  1.0503  0.2524 -0.4100
 4127TIP3    H112387   1.442   3.204   5.002 -2.5464 -0.2572  1.8349
 4127TIP3    H212388   1.542   3.162   5.107  0.9674  1.0547 -0.7463
 4128TIP3   OH212389   4.315   4.580   1.063  0.4262  0.1166  0.3657
 4128TIP3    H112390   4.288   4.588   1.155 -0.1488 -0.4153  0.2442
 4128TIP3    H212391   4.233   4.571   1.014  0.6586  1.4549 -0.3245
 4129TIP3   OH212392   3.783   1.807   1.997  0.2106  0.1909  0.0097
 4129TIP3    H112393   3.844   1.743   1.960  0.1453 -0.0854  0.3801
 4129TIP3    H212394   3.818   1.892   1.969  0.2125 -0.0075 -0.6109
 4130TIP3   OH212395   1.511   2.921   0.391  0.8658 -0.0827 -0.1757
 4130TIP3    H112396   1.440   2.886   0.445  0.2037  0.7057 -0.5221
 4130TIP3    H212397   1.544   2.996   0.440 -0.5151  1.3632 -1.3529
 4131TIP3   OH212398   5.896   4.698   0.930 -0.7250  0.3709  0.1175
 4131TIP3    H112399   5.958   4.659   0.991 -0.4347  2.1136  0.9857
 4131TIP3    H212400   5.948   4.759   0.878 -1.2922  0.1419 -0.7611
 4132TIP3   OH212401   2.256   4.206   1.818 -0.0437 -0.0131  0.1498
 4132TIP3    H112402   2.321   4.222   1.749  0.2884  0.9520  0.6579
 4132TIP3    H212403   2.186   4.269   1.800 -1.0384 -1.2842 -0.6003
 4133TIP3   OH212404   4.722   1.717   1.020  0.2977  0.3649  0.3644
 4133TIP3    H112405   4.691   1.660   0.950 -1.1842  1.8217 -0.2577
 4133TIP3    H212406   4.791   1.770   0.981  1.5799 -0.8571  0.9038
 4134TIP3   OH212407   1.004   3.608   4.942 -0.5501 -0.3172  0.7133
 4134TIP3    H112408   1.014   3.606   5.037  1.0811  0.6213  0.6032
 4134TIP3    H212409   0.955   3.529   4.921  0.4360 -1.3753  2.1876
 4135TIP3   OH212410   3.271   2.360   2.559 -0.6490  0.2709 -0.3981
 4135TIP3    H112411   3.336   2.375   2.491 -0.9558  2.5618 -0.2644
 4135TIP3    H212412   3.312   2.297   2.618  0.6351  0.1760 -1.3422
 4136TIP3   OH212413   2.717   1.716   2.832 -0.1266  0.1488  0.1035
 4136TIP3    H112414   2.714   1.789   2.770  3.7121  0.2861 -0.1546
 4136TIP3    H212415   2.763   1.752   2.909 -0.8519 -1.2140  1.2222
 4137TIP3   OH212416   0.259   1.498   3.503 -0.7612 -0.6418  0.5443
 4137TIP3    H112417   0.282   1.422   3.451 -0.6683 -0.7698  0.7703
 4137TIP3    H212418   0.222   1.561   3.441  3.1010  0.9196 -0.4665
 4138TIP3   OH212419   3.894   4.097   1.446  0.6688  0.7130  0.2772
 4138TIP3    H112420   3.934   4.183   1.436  3.4912 -0.6735 -1.7817
 4138TIP3    H212421   3.829   4.092   1.376  1.6595  0.6327 -0.6596
 4139TIP3   OH212422   3.693   4.580   2.869  0.3954 -0.5922  0.4343
 4139TIP3    H112423   3.654   4.502   2.908 -0.1074 -0.0471  1.0357
 4139TIP3    H212424   3.634   4.651   2.892  0.5360 -0.1153 -0.6055
 4140TIP3   OH212425   5.297   5.888   0.400  0.1281 -0.0087  0.2547
 4140TIP3    H112426   5.285   5.799   0.368  1.2085  0.4030 -1.4281
 4140TIP3    H212427   5.269   5.885   0.492 -3.3439 -1.2429 -0.6757
 4141TIP3   OH212428   3.662   0.401   2.254 -0.0794 -0.0656  0.3214
 4141TIP3    H112429   3.572   0.374   2.236 -0.6697  1.5588  0.6872
 4141TIP3    H212430   3.692   0.340   2.321 -0.4578 -1.3937 -0.6536
 4142TIP3   OH212431   2.012   1.210   0.237  0.0185 -0.3811  0.5748
 4142TIP3    H112432   1.993   1.121   0.209  3.1697 -1.0539  0.2197
 4142TIP3    H212433   2.046   1.253   0.158  1.0552  0.2776  1.3536
 4143TIP3   OH212434   5.343   4.073   4.054  0.1667  0.4262  0.2769
 4143TIP3    H112435   5.405   4.066   4.127 -0.5828 -0.0201  0.8812
 4143TIP3    H212436   5.260   4.044   4.090 -0.1144 -0.2803 -0.8892
 4144TIP3   OH212437   5.391   2.768   4.385 -0.1480 -0.2889 -0.3924
 4144TIP3    H112438   5.430   2.771   4.473  1.1802  1.0810 -0.9587
 4144TIP3    H212439   5.340   2.849   4.379 -0.2499 -0.3868 -0.8756
 4145TIP3   OH212440   0.214   5.412   5.119 -0.2570  0.2577  1.0529
 4145TIP3    H112441   0.173   5.496   5.138 -0.0922  0.4183  0.6999
 4145TIP3    H212442   0.280   5.432   5.053 -0.3419 -0.1799  0.8344
 4146TIP3   OH212443   4.540   3.114   3.621 -0.3756  0.6356  0.3407
 4146TIP3    H112444   4.635   3.100   3.621 -0.1306  2.0865  1.4794
 4146TIP3    H212445   4.508   3.069   3.699 -0.6310  0.1854 -0.0174
 4147TIP3   OH212446   3.477   0.544   3.728  0.4921  0.1933 -0.1931
 4147TIP3    H112447   3.468   0.568   3.820  1.2169 -2.8767  0.7719
 4147TIP3    H212448   3.565   0.508   3.721 -0.0636 -0.9716 -1.7353
 4148TIP3   OH212449   0.268   0.333   3.216  0.3404 -0.1297 -0.0885
 4148TIP3    H112450   0.183   0.308   3.252  0.4928  0.5718  0.8174
 4148TIP3    H212451   0.247   0.401   3.151  0.1263 -0.7897 -0.7151
 4149TIP3   OH212452   1.141   2.802   3.266  0.1585  0.4112 -0.4303
 4149TIP3    H112453   1.207   2.872   3.265 -0.5917  1.1818  1.3060
 4149TIP3    H212454   1.190   2.724   3.293  0.5141  0.8046  0.0822
 4150TIP3   OH212455   2.626   5.690   1.145  0.2159  0.4155  0.3728
 4150TIP3    H112456   2.631   5.595   1.153 -0.9547  0.1684 -1.1686
 4150TIP3    H212457   2.692   5.712   1.078 -0.1374  0.5649  0.0697
 4151TIP3   OH212458   0.384   2.853   1.589  0.2940 -0.3649 -0.1513
 4151TIP3    H112459   0.466   2.810   1.568  0.8566  0.2839  0.6455
 4151TIP3    H212460   0.395   2.943   1.557 -0.5516 -0.5674 -1.0710
 4152TIP3   OH212461   5.280   0.368   2.575  0.2234  0.1006 -0.2100
 4152TIP3    H112462   5.303   0.443   2.521  3.8400  0.5242  1.5943
 4152TIP3    H212463   5.316   0.292   2.528  0.0091 -0.0042 -0.2055
 4153TIP3   OH212464   3.598   3.227   2.683 -0.3137 -0.1055 -0.4517
 4153TIP3    H112465   3.531   3.223   2.751 -1.1627  2.8040 -0.9766
 4153TIP3    H212466   3.579   3.152   2.626 -1.7701 -0.5795  0.6010
 4154TIP3   OH212467   1.646   5.333   4.485 -0.2793  0.3660  0.9631
 4154TIP3    H112468   1.581   5.284   4.535  0.2150  0.3339  1.5795
 4154TIP3    H212469   1.693   5.386   4.550 -1.0917  2.0204  0.2771
 4155TIP3   OH212470   1.339   5.020   3.596  0.2668 -0.2295  0.4344
 4155TIP3    H112471   1.300   4.947   3.548 -1.0352 -0.5518  1.9014
 4155TIP3    H212472   1.269   5.052   3.653  1.3109  1.0894  1.0414
 4156TIP3   OH212473   0.060   4.283   3.603  0.4602  0.4656  0.6732
 4156TIP3    H112474   0.154   4.296   3.588  1.0191  0.6014  3.7121
 4156TIP3    H212475   0.025   4.371   3.613  0.4926  0.3624  1.8378
 4157TIP3   OH212476   5.094   3.532   0.670  0.3474 -0.3142  0.1279
 4157TIP3    H112477   5.047   3.531   0.754 -0.2229 -0.9792 -0.1942
 4157TIP3    H212478   5.183   3.557   0.694  0.3858 -1.2525  1.0518
 4158TIP3   OH212479   3.870   1.201   0.168  0.3098 -0.1875 -0.8244
 4158TIP3    H112480   3.861   1.141   0.093 -0.8990 -0.9354 -0.1068
 4158TIP3    H212481   3.790   1.190   0.218  1.0777  0.3301  0.5853
 4159TIP3   OH212482   5.937   3.484   4.093 -0.7278 -0.2821  0.5125
 4159TIP3    H112483   5.980   3.445   4.169 -0.1581 -2.1844 -0.7164
 4159TIP3    H212484   5.987   3.562   4.074  1.4372 -1.7237 -0.0531
 4160TIP3   OH212485   1.346   0.409   1.406 -0.3485  0.5874  0.5965
 4160TIP3    H112486   1.415   0.432   1.468  0.7354 -0.7809 -0.0612
 4160TIP3    H212487   1.338   0.313   1.413  0.8940  0.1631 -2.4475
 4161TIP3   OH212488   5.504   2.302   2.441  0.5235  0.2583  0.3817
 4161TIP3    H112489   5.480   2.340   2.526  2.4339  1.0336  0.6121
 4161TIP3    H212490   5.475   2.368   2.377  1.2883  0.8243  0.6032
 4162TIP3   OH212491   1.776   1.509   2.362 -0.2274  0.0161 -0.0820
 4162TIP3    H112492   1.865   1.526   2.394  0.0712  0.3994 -1.0749
 4162TIP3    H212493   1.786   1.502   2.267 -1.5095  1.7571 -0.3782
 4163TIP3   OH212494   3.279   5.632   0.062  1.0308  0.5172 -0.0618
 4163TIP3    H112495   3.339   5.592  -0.002  0.3220  0.2646 -0.5782
 4163TIP3    H212496   3.270   5.567   0.131  1.6304  0.7028  0.2016
 4164TIP3   OH212497   3.504   5.826   4.011  0.1724  0.2431 -0.3886
 4164TIP3    H112498   3.445   5.891   4.049  0.3233  0.6681 -0.8678
 4164TIP3    H212499   3.559   5.876   3.951  1.5681 -0.0088  0.6432
 4165TIP3   OH212500   2.321   2.463   0.539  0.1353 -0.2651 -0.1939
 4165TIP3    H112501   2.408   2.425   0.550  0.5779 -0.1074 -2.6512
 4165TIP3    H212502   2.261   2.389   0.544  0.3104 -0.3356  1.8597
 4166TIP3   OH212503   4.877   3.666   3.681  0.3623 -0.5059  0.5030
 4166TIP3    H112504   4.931   3.638   3.608 -1.3258  0.1270 -1.0806
 4166TIP3    H212505   4.910   3.752   3.704 -1.1790  0.8706 -1.9170
 4167TIP3   OH212506   4.439   2.214   3.420  0.4713 -0.0749  0.1455
 4167TIP3    H112507   4.363   2.157   3.435  0.7355 -0.3815  0.3267
 4167TIP3    H212508   4.412   2.300   3.454  0.1838 -0.1656  0.1499
 4168TIP3   OH212509   6.084   1.314   3.055  0.0478 -0.1770 -0.0476
 4168TIP3    H112510   6.131   1.284   2.977  0.1061 -0.2871  0.0295
 4168TIP3    H212511   6.058   1.233   3.099 -2.9377 -0.2633 -1.6884
 4169TIP3   OH212512   1.306   2.395   1.188 -0.1808 -0.0992 -0.0124
 4169TIP3    H112513   1.215   2.409   1.161 -1.1882 -3.7039  0.9797
 4169TIP3    H212514   1.312   2.439   1.273 -0.8516  0.4754 -0.2499
 4170TIP3   OH212515   4.738   1.393   3.087 -0.4589 -0.0554 -0.0352
 4170TIP3    H112516   4.732   1.421   3.179 -1.7761 -1.1499  0.2422
 4170TIP3    H212517   4.812   1.333   3.086 -1.8895 -1.9297  0.8795
 4171TIP3   OH212518   0.627   5.455   1.118 -0.0158  0.1291  0.0568
 4171TIP3    H112519   0.709   5.482   1.077  0.4077 -2.0347 -0.6473
 4171TIP3    H212520   0.570   5.432   1.044 -0.9432  0.7244  0.5673
 4172TIP3   OH212521   1.493   5.538   1.082  0.3862 -0.5933  0.1695
 4172TIP3    H112522   1.525   5.627   1.063 -0.8995  0.4676  2.4482
 4172TIP3    H212523   1.569   5.493   1.117  0.6628  0.2232  0.6676
 4173TIP3   OH212524   2.229   4.686   2.586 -0.4719 -0.0418  0.2106
 4173TIP3    H112525   2.217   4.663   2.679 -1.7656  1.2733  0.4076
 4173TIP3    H212526   2.273   4.770   2.588 -2.3349  0.9994 -0.2754
 4174TIP3   OH212527   1.218   5.341   5.074  0.6041 -0.0279  0.3794
 4174TIP3    H112528   1.148   5.333   5.138 -0.0119 -0.5578 -0.3309
 4174TIP3    H212529   1.208   5.429   5.037 -0.6730 -0.6185 -0.7861
 4175TIP3   OH212530   4.791   0.317   2.363 -0.4230 -0.5793  0.0693
 4175TIP3    H112531   4.784   0.331   2.269 -0.2905  0.3608  0.1911
 4175TIP3    H212532   4.778   0.222   2.374  0.9670 -0.9491 -1.0269
 4176TIP3   OH212533   2.713   1.950   3.557 -0.0921 -0.3123  0.0041
 4176TIP3    H112534   2.626   1.948   3.516 -0.1677  1.6739 -0.0172
 4176TIP3    H212535   2.705   2.014   3.627  1.0681 -0.9533  0.7618
 4177TIP3   OH212536   1.325   4.968   4.334  0.4660  0.1504 -0.0191
 4177TIP3    H112537   1.331   4.911   4.257  1.9525  0.2904 -0.0390
 4177TIP3    H212538   1.238   4.950   4.370  0.1496 -0.6939 -1.1282
 4178TIP3   OH212539   3.564   1.939   2.721 -0.2450  0.3552 -0.2068
 4178TIP3    H112540   3.578   1.847   2.699 -0.4163  0.2816 -0.0092
 4178TIP3    H212541   3.568   1.942   2.817 -2.6713  0.1287 -0.0255
 4179TIP3   OH212542   3.033   0.478   1.148  0.2461 -0.0195  0.3761
 4179TIP3    H112543   2.950   0.477   1.196 -1.9510 -0.1063 -3.1154
 4179TIP3    H212544   3.079   0.399   1.179 -2.0261 -1.2920  0.7450
 4180TIP3   OH212545   2.649   0.314   2.753 -0.3834  0.0184 -0.0897
 4180TIP3    H112546   2.596   0.273   2.685 -0.0522  0.2988 -0.5252
 4180TIP3    H212547   2.586   0.353   2.813 -0.7002  1.7495 -1.4477
 4181TIP3   OH212548   5.243   0.685   3.818  0.6574  0.0947 -0.4317
 4181TIP3    H112549   5.171   0.720   3.871  0.9840  0.9369 -0.5191
 4181TIP3    H212550   5.318   0.684   3.877  0.6158 -0.6256 -0.3876
 4182TIP3   OH212551   5.581   4.983   4.782 -0.1117  0.3958 -0.2532
 4182TIP3    H112552   5.617   5.071   4.769 -1.1715  0.7780 -0.7856
 4182TIP3    H212553   5.643   4.925   4.737  0.3817  0.9123 -0.2568
 4183TIP3   OH212554   4.461   4.342   4.495  0.3623  0.0193 -0.2390
 4183TIP3    H112555   4.449   4.285   4.419  0.2426 -1.9625  1.1951
 4183TIP3    H212556   4.555   4.345   4.508  0.4213  0.8436 -0.7901
 4184TIP3   OH212557   0.675   1.575   1.669 -0.1794  0.0438  0.7480
 4184TIP3    H112558   0.589   1.617   1.666 -0.0880  0.4613  2.5985
 4184TIP3    H212559   0.716   1.609   1.749  1.4923 -0.5682  0.1963
 4185TIP3   OH212560   0.246   5.512   0.348  0.6017 -0.6691 -0.1457
 4185TIP3    H112561   0.277   5.578   0.286  0.6320 -0.7861 -0.2548
 4185TIP3    H212562   0.282   5.429   0.316 -2.3338 -1.3515 -2.1050
 4186TIP3   OH212563   0.832   4.866   0.186  0.6375  0.2050  0.3122
 4186TIP3    H112564   0.826   4.952   0.144 -0.9124 -0.2688 -0.5349
 4186TIP3    H212565   0.923   4.859   0.214  0.7038  2.2996  0.8119
 4187TIP3   OH212566   2.202   2.162   3.635 -0.3479  0.1024  0.9430
 4187TIP3    H112567   2.188   2.250   3.600 -2.2684 -0.2961  0.5788
 4187TIP3    H212568   2.212   2.107   3.557  0.0863 -0.1114  1.1492
 4188TIP3   OH212569   6.255   0.762   3.225  0.1495 -0.1856  0.0951
 4188TIP3    H112570   6.194   0.791   3.293  0.7992 -0.4578  0.8090
 4188TIP3    H212571   6.217   0.681   3.191  0.6638 -0.9809  1.3369
 4189TIP3   OH212572   5.401   1.155   3.385 -1.0207 -0.1825 -0.4398
 4189TIP3    H112573   5.416   1.152   3.480 -2.4772  1.4679 -0.0988
 4189TIP3    H212574   5.441   1.237   3.358  0.4363 -1.2085 -1.5069
 4190TIP3   OH212575   2.523   5.681   3.766  0.1064 -0.2516 -0.1681
 4190TIP3    H112576   2.544   5.634   3.847  0.2041  0.5073  0.2503
 4190TIP3    H212577   2.427   5.692   3.770  0.2000  0.4855  0.2402
 4191TIP3   OH212578   5.165   5.507   1.285 -0.3988 -0.1247  0.0665
 4191TIP3    H112579   5.222   5.444   1.242 -1.2689 -0.3316 -0.8053
 4191TIP3    H212580   5.220   5.546   1.354 -0.5797 -3.8598  2.6290
 4192TIP3   OH212581   4.111   1.483   3.146  0.0845 -0.0875 -0.4134
 4192TIP3    H112582   4.087   1.403   3.100 -0.8479 -1.5437  2.3760
 4192TIP3    H212583   4.202   1.469   3.172  0.1568  0.0927 -0.5666
 4193TIP3   OH212584   2.548   4.234   3.659 -0.4846  0.6125  0.2539
 4193TIP3    H112585   2.535   4.236   3.564 -0.1195 -0.8405  0.1385
 4193TIP3    H212586   2.515   4.318   3.690  1.2590  2.0215 -1.3849
 4194TIP3   OH212587   1.885   1.008   4.475  0.2412 -0.1900  0.3308
 4194TIP3    H112588   1.809   0.960   4.506  0.6109 -0.6590  0.5238
 4194TIP3    H212589   1.854   1.098   4.462 -0.4681 -0.4911 -0.0881
 4195TIP3   OH212590   6.117   0.446   4.891  0.0032  0.2992 -0.1434
 4195TIP3    H112591   6.189   0.383   4.894  0.1136  0.4167 -0.3221
 4195TIP3    H212592   6.057   0.417   4.960 -0.7633 -0.9853 -1.2911
 4196TIP3   OH212593   0.248   0.911   3.443 -0.0566  0.7157  0.0590
 4196TIP3    H112594   0.231   0.827   3.486  0.1295  1.0035  0.7004
 4196TIP3    H212595   0.205   0.903   3.358  1.1205 -0.5515 -0.4653
 4197TIP3   OH212596   3.730   5.014   1.451  0.5576  0.4098  0.0212
 4197TIP3    H112597   3.815   5.048   1.423 -0.3696  2.5268 -0.3828
 4197TIP3    H212598   3.667   5.051   1.389 -0.8922  0.5193  1.4831
 4198TIP3   OH212599   4.718   4.863   0.823  0.2690 -0.3841  0.2178
 4198TIP3    H112600   4.631   4.823   0.813  0.2105 -0.8656  2.2324
 4198TIP3    H212601   4.772   4.793   0.859  1.3812  0.0711 -0.5141
 4199TIP3   OH212602   5.632   4.576   0.484 -0.3287 -0.3178  0.5021
 4199TIP3    H112603   5.720   4.545   0.506  0.2829  1.0043 -0.0118
 4199TIP3    H212604   5.638   4.600   0.391 -1.4432 -0.8917  0.2647
 4200TIP3   OH212605   0.163   3.413   5.024 -0.0246  0.2802  0.0775
 4200TIP3    H112606   0.242   3.408   4.970  0.5205 -0.7340  0.9533
 4200TIP3    H212607   0.115   3.333   5.003 -0.3566  0.4256  0.2764
 4201TIP3   OH212608   3.500   2.655   4.585 -0.5578 -0.4003  1.0157
 4201TIP3    H112609   3.428   2.696   4.633 -0.6449 -1.2315  1.6148
 4201TIP3    H212610   3.512   2.711   4.508 -0.9753  0.4787  1.5727
 4202TIP3   OH212611   5.646   2.553   4.738 -0.2395 -0.2205 -0.1368
 4202TIP3    H112612   5.582   2.527   4.671 -1.4545 -1.5034  1.4223
 4202TIP3    H212613   5.602   2.533   4.821  1.2133  1.3103  1.0526
 4203TIP3   OH212614   0.410   5.140   4.289  0.5004 -0.0936  0.6472
 4203TIP3    H112615   0.468   5.191   4.233 -0.5243 -1.3714 -1.7267
 4203TIP3    H212616   0.440   5.049   4.280 -0.5150 -0.4978  1.1019
 4204TIP3   OH212617   1.034   0.850   2.713  0.2503  0.2358  0.2835
 4204TIP3    H112618   1.074   0.910   2.776 -0.8753  2.2890 -0.8577
 4204TIP3    H212619   1.103   0.786   2.694  1.5100  1.1565  1.5348
 4205TIP3   OH212620   5.596   0.904   0.878 -0.3434  0.3247  0.0819
 4205TIP3    H112621   5.605   0.895   0.973  1.5932 -2.0828 -0.2154
 4205TIP3    H212622   5.619   0.995   0.860 -0.2529  0.6841  1.8888
 4206TIP3   OH212623   0.083   1.026   2.746  0.1748  0.0612  0.1836
 4206TIP3    H112624   0.144   1.078   2.693 -0.0686 -1.0659 -1.2510
 4206TIP3    H212625   0.069   0.946   2.696 -1.1970 -0.4338  1.2887
 4207TIP3   OH212626   3.277   3.105   0.279  0.4065  0.2263  0.6906
 4207TIP3    H112627   3.358   3.154   0.294  0.2626  1.1733 -1.3158
 4207TIP3    H212628   3.305   3.027   0.231  0.3899 -0.7554  2.2013
 4208TIP3   OH212629   5.853   3.725   3.228 -0.1083 -0.0024  0.3654
 4208TIP3    H112630   5.819   3.799   3.278  2.2395  0.9929  0.5858
 4208TIP3    H212631   5.865   3.656   3.293  3.2463  1.3890  1.4387
 4209TIP3   OH212632   1.494   0.526   1.613 -0.0714 -0.2320  0.6824
 4209TIP3    H112633   1.405   0.561   1.613 -0.8431 -2.0747  0.1340
 4209TIP3    H212634   1.514   0.509   1.705 -1.0059 -1.4379  0.6883
 4210TIP3   OH212635   2.999   1.247   3.230 -0.2295  0.5313 -0.5819
 4210TIP3    H112636   3.032   1.336   3.229  0.9606  0.1195 -0.0476
 4210TIP3    H212637   3.044   1.204   3.157  0.0706  0.0910 -0.1488
 4211TIP3   OH212638   3.273   5.062   0.873 -0.8006  0.0053  0.4766
 4211TIP3    H112639   3.336   5.116   0.826 -2.8954  1.1932 -1.1879
 4211TIP3    H212640   3.326   5.006   0.930  1.7544  0.2947 -1.4472
 4212TIP3   OH212641   2.769   3.858   0.019  0.0181 -0.2471 -0.2184
 4212TIP3    H112642   2.822   3.924  -0.026 -0.1754 -0.4154 -0.7030
 4212TIP3    H212643   2.820   3.834   0.096 -0.7852  1.9098  1.0626
 4213TIP3   OH212644   2.424   1.625   3.508  0.3891 -0.4180  0.1279
 4213TIP3    H112645   2.338   1.603   3.471 -1.3662 -0.0082  3.5333
 4213TIP3    H212646   2.465   1.540   3.525 -0.8585 -0.7727  1.5638
 4214TIP3   OH212647   1.070   1.951   3.259 -0.8618  0.1428 -0.1204
 4214TIP3    H112648   1.039   1.978   3.172 -0.0263  1.3090 -0.0837
 4214TIP3    H212649   1.150   1.901   3.242 -0.5661  0.5731 -0.0290
 4215TIP3   OH212650   1.201   1.843   0.762  0.3803 -0.7252 -0.4734
 4215TIP3    H112651   1.128   1.882   0.811  1.0663  1.9740 -1.4229
 4215TIP3    H212652   1.240   1.780   0.823 -1.5508 -0.8183  0.7361
 4216TIP3   OH212653   5.210   0.302   1.664 -0.3005  0.4490  0.3270
 4216TIP3    H112654   5.214   0.250   1.745  0.1428  0.9205  0.6097
 4216TIP3    H212655   5.193   0.391   1.694  0.7084  0.7748 -0.0443
 4217TIP3   OH212656   4.079   2.611   2.196 -0.3360  0.1955 -0.0111
 4217TIP3    H112657   4.174   2.607   2.181 -0.2383  1.5265  0.1407
 4217TIP3    H212658   4.058   2.704   2.193 -0.9851  0.3594  3.7577
 4218TIP3   OH212659   5.278   0.137   1.192 -0.1980 -0.1800  0.3769
 4218TIP3    H112660   5.185   0.116   1.182 -0.9223  1.8860  2.0021
 4218TIP3    H212661   5.281   0.199   1.265  2.1097  2.2766 -1.6237
 4219TIP3   OH212662   2.770   1.502   4.808  0.1279 -0.0086  0.1752
 4219TIP3    H112663   2.836   1.458   4.755  1.1549  2.7953 -1.0387
 4219TIP3    H212664   2.688   1.491   4.759  0.4769 -0.0635 -0.4008
 4220TIP3   OH212665   3.125   2.484   1.221  0.0507  0.0452  0.1218
 4220TIP3    H112666   3.053   2.443   1.268  0.0182  0.7910  0.7384
 4220TIP3    H212667   3.192   2.415   1.214  0.5841  0.2742  2.4036
 4221TIP3   OH212668   0.146   3.562   3.036 -0.0174 -0.5221  0.5937
 4221TIP3    H112669   0.144   3.645   2.989 -1.2961 -0.0679  1.4223
 4221TIP3    H212670   0.074   3.567   3.099 -1.8851 -3.2759 -1.0738
 4222TIP3   OH212671   3.721   0.004   0.488  0.3040 -0.0193  0.3853
 4222TIP3    H112672   3.635  -0.004   0.530  0.1378  0.3514  0.1240
 4222TIP3    H212673   3.709   0.071   0.421  1.3898  1.8796  1.9393
 4223TIP3   OH212674   2.989   2.169   3.512 -0.6614  0.0955  0.2218
 4223TIP3    H112675   2.972   2.076   3.499 -1.4978  0.5345 -2.2504
 4223TIP3    H212676   3.066   2.171   3.569  0.5867 -2.1413 -1.2273
 4224TIP3   OH212677   2.851   0.103   3.944 -0.3246 -0.4092 -0.1999
 4224TIP3    H112678   2.869   0.072   3.855 -0.0323 -0.1640 -0.2252
 4224TIP3    H212679   2.761   0.075   3.961 -0.2590 -0.7624 -0.4418
 4225TIP3   OH212680   0.633   5.468   3.428  0.1682  0.0303 -0.2948
 4225TIP3    H112681   0.671   5.550   3.460 -1.1122  0.2074  0.8684
 4225TIP3    H212682   0.708   5.410   3.414  0.9267  0.5680  1.3105
 4226TIP3   OH212683   0.260   2.791   4.526  0.1352  0.7586  0.4510
 4226TIP3    H112684   0.257   2.799   4.431 -1.3708 -0.9970  0.2927
 4226TIP3    H212685   0.209   2.712   4.545  1.4179  0.3750  2.6406
 4227TIP3   OH212686   5.243   5.076   2.223  0.2312 -0.3770  0.4195
 4227TIP3    H112687   5.290   5.130   2.159 -0.2144 -1.1655 -0.5848
 4227TIP3    H212688   5.263   5.117   2.307  0.4771  0.9380 -0.2541
 4228TIP3   OH212689   5.296   0.289   4.977  0.0450  1.0943 -0.1450
 4228TIP3    H112690   5.218   0.252   5.018  0.9330  0.7292  1.2928
 4228TIP3    H212691   5.278   0.285   4.883 -0.5693 -1.5783  0.0056
 4229TIP3   OH212692   3.211   0.478   0.445 -0.2870 -0.0442 -0.3746
 4229TIP3    H112693   3.303   0.488   0.468 -0.8864 -0.0744  2.3910
 4229TIP3    H212694   3.210   0.476   0.350  2.5574 -0.0452 -0.4842
 4230TIP3   OH212695   2.358   0.425   0.607  0.8425 -0.1000 -0.2321
 4230TIP3    H112696   2.450   0.403   0.591  1.1214  0.8118  0.0640
 4230TIP3    H212697   2.322   0.440   0.519  1.8561  2.8715 -0.2337
 4231TIP3   OH212698   1.168   0.245   3.356 -0.0364 -0.8033 -0.0305
 4231TIP3    H112699   1.222   0.308   3.308 -0.0180 -0.7730  0.0304
 4231TIP3    H212700   1.207   0.160   3.335 -0.4613 -0.8547 -0.6422
 4232TIP3   OH212701   1.988   4.849   2.572 -0.2757 -0.3874  0.1861
 4232TIP3    H112702   2.034   4.782   2.622  0.2489 -0.4030 -0.3069
 4232TIP3    H212703   1.974   4.809   2.487 -0.4076 -0.0527  0.0526
 4233TIP3   OH212704   4.556   1.810   1.247  0.1229 -0.2509  0.0456
 4233TIP3    H112705   4.500   1.887   1.261  0.7733  0.5257 -1.3376
 4233TIP3    H212706   4.496   1.736   1.255 -0.7863  0.4681  0.1706
 4234TIP3   OH212707   2.925   0.568   0.463 -0.7662  0.6795 -0.8028
 4234TIP3    H112708   2.944   0.632   0.531  0.4688  0.8115 -1.2528
 4234TIP3    H212709   3.000   0.572   0.404  1.1754 -3.6430  0.9405
 4235TIP3   OH212710   1.570   4.475   4.954 -0.4519  0.2424 -0.5325
 4235TIP3    H112711   1.626   4.400   4.934  1.6766  1.7211 -0.3945
 4235TIP3    H212712   1.481   4.439   4.956  0.5864 -2.5140  0.7222
 4236TIP3   OH212713   0.978   0.670   5.119 -0.0798 -0.3449 -0.4468
 4236TIP3    H112714   0.910   0.686   5.054 -0.0968 -0.1853 -0.3919
 4236TIP3    H212715   1.060   0.685   5.073 -0.1151  2.5610  0.2359
 4237TIP3   OH212716   5.206   2.440   2.335 -0.1079 -0.1290  0.4245
 4237TIP3    H112717   5.213   2.455   2.429  1.4580 -1.8693  0.6591
 4237TIP3    H212718   5.190   2.526   2.297  1.1946  0.9182  2.1316
 4238TIP3   OH212719   4.080   5.564   2.723 -0.1209  0.0890  0.3679
 4238TIP3    H112720   4.164   5.538   2.761  0.5930  0.7302 -0.7135
 4238TIP3    H212721   4.097   5.568   2.629 -1.5586 -0.4644  0.0584
 4239TIP3   OH212722   4.680   5.618   0.673  0.2295  0.0790 -0.0998
 4239TIP3    H112723   4.631   5.600   0.592  0.2403 -2.4848  0.3766
 4239TIP3    H212724   4.663   5.711   0.691 -1.0351  0.3257 -2.1905
 4240TIP3   OH212725   4.557   2.914   5.082  0.0097 -0.2406 -0.9634
 4240TIP3    H112726   4.605   2.951   5.008 -1.2392  1.5189 -0.9710
 4240TIP3    H212727   4.481   2.971   5.091  0.0807 -0.4494  1.6330
 4241TIP3   OH212728   1.930   1.115   0.975  0.3076  1.0296  0.0198
 4241TIP3    H112729   1.953   1.182   0.910 -2.0283  2.3349  0.4282
 4241TIP3    H212730   1.850   1.075   0.941  0.3303  0.1211  0.9887
 4242TIP3   OH212731   4.039   0.401   2.360  0.0396  0.0524 -0.3516
 4242TIP3    H112732   4.135   0.407   2.365  0.0847  2.4292 -2.2485
 4242TIP3    H212733   4.020   0.400   2.266 -1.7957 -2.3726 -0.0571
 4243TIP3   OH212734   0.868   1.058   1.985  0.2541  0.2985  0.1208
 4243TIP3    H112735   0.907   1.140   2.016  0.2465  0.2328  0.3059
 4243TIP3    H212736   0.911   1.041   1.901 -1.6768  1.9442 -1.3122
 4244TIP3   OH212737   1.574   1.171   1.230  0.0796  0.0278 -0.2802
 4244TIP3    H112738   1.612   1.083   1.228 -1.2482 -0.7185  2.5321
 4244TIP3    H212739   1.610   1.210   1.310 -0.5102  1.5192 -0.7121
 4245TIP3   OH212740   5.818   3.858   4.924  0.3218 -0.9129 -0.2697
 4245TIP3    H112741   5.864   3.867   5.007 -0.4440 -0.5829  0.1298
 4245TIP3    H212742   5.865   3.789   4.877  1.4633 -0.3192 -0.0505
 4246TIP3   OH212743   4.159   3.320   1.118  0.5533 -0.0855  0.2109
 4246TIP3    H112744   4.253   3.308   1.128  0.6982  0.5283 -0.3989
 4246TIP3    H212745   4.147   3.349   1.027 -0.2425 -0.3690  0.2122
 4247TIP3   OH212746   2.359   5.428   1.754  0.2958 -0.1150 -0.1112
 4247TIP3    H112747   2.380   5.514   1.789 -1.1744  0.4026 -0.4257
 4247TIP3    H212748   2.264   5.426   1.749  0.3285 -1.4356 -0.9148
 4248TIP3   OH212749   2.968   3.375   1.215  0.8372  0.3341 -0.0975
 4248TIP3    H112750   2.949   3.456   1.262 -3.2781 -0.1818 -0.4989
 4248TIP3    H212751   2.997   3.404   1.128  1.4751  1.3154  0.4260
 4249TIP3   OH212752   1.011   3.329   3.837  0.4290  0.1386 -0.0746
 4249TIP3    H112753   1.086   3.374   3.876 -0.6224  1.6390  0.2797
 4249TIP3    H212754   1.023   3.339   3.742  0.7088  0.3011 -0.0218
 4250TIP3   OH212755   5.712   2.854   3.959  0.1526  0.7162  0.8298
 4250TIP3    H112756   5.689   2.936   4.003  0.5968  1.0711  0.4100
 4250TIP3    H212757   5.733   2.794   4.030 -1.1496  0.6522  1.1862
 4251TIP3   OH212758   1.616   1.298   3.040  0.3926 -0.6095 -0.2936
 4251TIP3    H112759   1.547   1.235   3.018  0.1617 -1.4434  2.4273
 4251TIP3    H212760   1.684   1.281   2.975 -1.7324  0.0281 -2.8889
 4252TIP3   OH212761   3.120   4.973   4.839 -0.5007  0.0587  0.4542
 4252TIP3    H112762   3.128   4.921   4.759 -0.6713  0.0699  0.4284
 4252TIP3    H212763   3.169   5.053   4.820 -0.5950  0.0893  0.3355
 4253TIP3   OH212764   0.410   5.025   1.389 -0.0439  0.6340 -0.4189
 4253TIP3    H112765   0.376   4.969   1.320 -0.8342 -1.8010  1.7722
 4253TIP3    H212766   0.332   5.051   1.439  0.7081 -0.3070  1.3588
 4254TIP3   OH212767   1.351   4.786   0.176 -0.4804  0.1433 -0.0514
 4254TIP3    H112768   1.359   4.850   0.105  1.1549  0.8224  0.7162
 4254TIP3    H212769   1.353   4.701   0.132  1.5730  0.5219 -0.7655
 4255TIP3   OH212770   2.011   4.804   3.464  0.6093  0.0067 -0.0661
 4255TIP3    H112771   2.012   4.750   3.543 -0.0970 -0.2601 -0.2281
 4255TIP3    H212772   1.942   4.869   3.480 -0.6641 -1.0315 -1.0767
 4256TIP3   OH212773   3.106   3.741   1.526  0.1751  0.0914 -0.0930
 4256TIP3    H112774   3.061   3.818   1.561  0.0856 -0.5596  1.2829
 4256TIP3    H212775   3.177   3.724   1.588  0.1457 -0.9755 -0.3259
 4257TIP3   OH212776   1.773   1.533   0.922  0.0823  0.2305  0.0615
 4257TIP3    H112777   1.726   1.596   0.867 -0.6350 -1.2710 -1.1041
 4257TIP3    H212778   1.865   1.553   0.906 -0.0511 -0.8031 -2.6054
 4258TIP3   OH212779   0.743   4.362   0.919  0.3763 -0.1396  0.2353
 4258TIP3    H112780   0.753   4.282   0.868 -0.7565 -0.9732  1.2808
 4258TIP3    H212781   0.833   4.393   0.933  0.7486 -0.0313 -1.9636
 4259TIP3   OH212782   5.209   3.907   1.837 -0.5846 -0.2346  0.3011
 4259TIP3    H112783   5.296   3.941   1.815  0.2966 -0.8265  2.5289
 4259TIP3    H212784   5.148   3.976   1.811  0.5957  0.4811 -0.6894
 4260TIP3   OH212785   5.703   5.655   0.953  0.2558 -0.3106 -0.3536
 4260TIP3    H112786   5.752   5.733   0.977 -0.9620  0.0492  1.1660
 4260TIP3    H212787   5.723   5.592   1.022 -2.2819  0.2718  1.0662
 4261TIP3   OH212788   0.567   0.385   1.640 -0.2251  0.0554  0.3023
 4261TIP3    H112789   0.616   0.441   1.701 -0.9604  0.5314  0.4598
 4261TIP3    H212790   0.635   0.331   1.599  0.3723  0.2853  0.9545
 4262TIP3   OH212791   6.009   1.562   4.157  0.2898 -0.0278  0.4373
 4262TIP3    H112792   6.023   1.481   4.107  0.0331 -0.1908  0.6292
 4262TIP3    H212793   6.074   1.557   4.228  0.4380  0.0522  0.3090
 4263TIP3   OH212794   5.276   5.877   2.294  0.0844 -0.5487  0.2471
 4263TIP3    H112795   5.353   5.830   2.328  0.5429  0.1779  0.2411
 4263TIP3    H212796   5.302   5.903   2.206 -0.7869 -1.6914 -0.3773
 4264TIP3   OH212797   1.237   5.818   3.760 -0.1500 -0.8081 -0.0793
 4264TIP3    H112798   1.252   5.728   3.730  1.2466 -0.1461 -1.5310
 4264TIP3    H212799   1.249   5.871   3.681 -0.6066  0.6847  0.8243
 4265TIP3   OH212800   1.192   4.907   1.423 -0.0956 -0.1441  0.0062
 4265TIP3    H112801   1.164   4.862   1.503 -0.8817  0.3702  0.0303
 4265TIP3    H212802   1.281   4.936   1.442  1.0569 -2.9827 -0.5609
 4266TIP3   OH212803   5.117   2.078   4.017  0.4206  0.3156  0.1002
 4266TIP3    H112804   5.093   2.122   4.098  0.7376 -0.0691  0.4102
 4266TIP3    H212805   5.049   2.012   4.004  0.0742  0.7367 -0.2392
 4267TIP3   OH212806   5.962   1.734   5.153  0.3502  0.1537  0.3699
 4267TIP3    H112807   5.948   1.642   5.133 -0.5171 -0.2489  2.5786
 4267TIP3    H212808   5.885   1.778   5.118  0.3893 -0.0493  0.0173
 4268TIP3   OH212809   5.055   1.106   4.309  0.2544  0.2907 -0.2095
 4268TIP3    H112810   5.098   1.023   4.286 -0.2924 -0.1439  0.2991
 4268TIP3    H212811   5.023   1.141   4.226 -1.1635 -0.9549 -0.2328
 4269TIP3   OH212812   2.778   5.093   0.790 -0.0324 -0.2143  0.1905
 4269TIP3    H112813   2.845   5.069   0.854 -2.1853 -1.6608  2.0420
 4269TIP3    H212814   2.781   5.023   0.725 -1.3375 -1.7253  1.6427
 4270TIP3   OH212815   1.629   2.034   2.655  0.2145  0.3124 -0.1829
 4270TIP3    H112816   1.715   2.062   2.686  1.0906 -1.4586 -0.8671
 4270TIP3    H212817   1.581   2.011   2.734  1.1717 -0.7821  0.0974
 4271TIP3   OH212818   5.792   1.314   0.541 -0.0833 -0.5109  0.1385
 4271TIP3    H112819   5.859   1.307   0.473 -0.4254  2.5382 -0.6456
 4271TIP3    H212820   5.731   1.379   0.508 -2.3282 -1.6392  1.7803
 4272TIP3   OH212821   5.496   5.125   4.351  0.2906 -0.6008  0.1053
 4272TIP3    H112822   5.461   5.076   4.426 -1.3592 -0.5167 -0.5682
 4272TIP3    H212823   5.490   5.063   4.278  1.1071 -0.4056 -0.1309
 4273TIP3   OH212824   6.279   2.776   1.254 -0.0703 -0.1450 -0.3647
 4273TIP3    H112825   6.345   2.842   1.231 -0.2979  0.0442 -0.4686
 4273TIP3    H212826   6.316   2.733   1.331  0.3167 -0.2421 -0.5984
 4274TIP3   OH212827   5.095   5.807   0.121 -0.1834 -0.4399 -0.0616
 4274TIP3    H112828   5.125   5.869   0.054  2.8371  0.3213  1.8033
 4274TIP3    H212829   5.137   5.724   0.098  1.0680 -0.1156  0.9318
 4275TIP3   OH212830   2.107   2.155   3.152 -0.3586 -0.3319  0.3004
 4275TIP3    H112831   2.196   2.158   3.116 -0.4420 -0.7957  0.0445
 4275TIP3    H212832   2.068   2.077   3.111 -1.2703  0.5220 -0.5091
 4276TIP3   OH212833   1.449   1.282   2.793  0.2227 -0.0907 -0.1275
 4276TIP3    H112834   1.491   1.365   2.770 -0.6780  0.2907 -0.4211
 4276TIP3    H212835   1.355   1.301   2.791  0.0354 -0.6812  1.4327
 4277TIP3   OH212836   3.458   2.226   0.280  0.7019  0.1456 -0.3860
 4277TIP3    H112837   3.386   2.258   0.226  0.6823  1.9816  0.6249
 4277TIP3    H212838   3.536   2.269   0.244  0.7118  1.2391  0.8674
 4278TIP3   OH212839   4.707   4.667   3.051 -0.8211  0.2176 -0.1587
 4278TIP3    H112840   4.796   4.702   3.058 -0.9020  0.3446  0.2385
 4278TIP3    H212841   4.719   4.577   3.019 -0.5645  0.3200 -0.3518
 4279TIP3   OH212842   4.680   3.835   4.714  0.3121 -0.1064  0.1397
 4279TIP3    H112843   4.605   3.874   4.759 -2.8304 -0.8677 -3.7544
 4279TIP3    H212844   4.749   3.900   4.720 -3.0478  4.2140 -1.9409
 4280TIP3   OH212845   5.628   2.095   2.335 -0.1061 -0.8970 -0.0824
 4280TIP3    H112846   5.618   2.109   2.241 -1.0787 -0.8430  0.0149
 4280TIP3    H212847   5.577   2.166   2.375  0.2471 -0.9558  0.4821
 4281TIP3   OH212848   4.751   5.342   0.254  0.5193  0.2055  0.5650
 4281TIP3    H112849   4.820   5.346   0.187  0.6086  0.8618  0.6937
 4281TIP3    H212850   4.718   5.253   0.248  2.7739 -0.8149  1.8871
 4282TIP3   OH212851   4.218   1.638   4.343 -0.2507  0.0755  0.1239
 4282TIP3    H112852   4.172   1.570   4.293  0.0925  0.8620 -1.3187
 4282TIP3    H212853   4.306   1.603   4.355 -0.1357  0.1614 -0.4306
 4283TIP3   OH212854   4.339   3.560   3.032 -0.0203 -0.1504  0.5751
 4283TIP3    H112855   4.286   3.639   3.024  0.5366  0.1600 -0.2736
 4283TIP3    H212856   4.295   3.496   2.977  0.8136  0.3109 -0.6808
 4284TIP3   OH212857   5.557   3.401   4.743 -0.5446  0.0580  0.4329
 4284TIP3    H112858   5.477   3.454   4.740 -0.1898  0.5712 -0.2053
 4284TIP3    H212859   5.612   3.437   4.674 -0.9668 -2.2808 -1.2427
 4285TIP3   OH212860   2.106   0.908   4.339 -0.0416 -0.1958 -0.1483
 4285TIP3    H112861   2.055   0.963   4.399  0.0105 -1.3895  1.0438
 4285TIP3    H212862   2.189   0.955   4.327 -1.3578  1.8051 -2.1711
 4286TIP3   OH212863   3.307   5.820   4.665 -0.0357  0.6289  0.2338
 4286TIP3    H112864   3.245   5.834   4.593  0.2859 -1.0096 -0.3997
 4286TIP3    H212865   3.391   5.807   4.622  0.4062  0.8896  0.9952
 4287TIP3   OH212866   4.485   2.524   2.696  0.8763 -0.3470  0.3276
 4287TIP3    H112867   4.481   2.582   2.773  0.5318 -2.1634  1.7607
 4287TIP3    H212868   4.557   2.464   2.715  0.4273 -1.1704 -0.5141
 4288TIP3   OH212869   5.968   5.534   4.246 -0.3149  0.3793 -0.0742
 4288TIP3    H112870   6.056   5.557   4.215  0.7868  0.5915  2.8540
 4288TIP3    H212871   5.973   5.440   4.263 -0.1453  0.6298  1.4066
 4289TIP3   OH212872   0.576   1.676   2.880 -0.2059  0.6664  0.5554
 4289TIP3    H112873   0.568   1.747   2.817 -0.3645  0.6544  0.5621
 4289TIP3    H212874   0.489   1.668   2.918 -0.2163  0.3983  0.4782
 4290TIP3   OH212875   2.766   1.035   3.574 -0.4056  0.3291 -0.2525
 4290TIP3    H112876   2.802   0.965   3.628  0.9101  2.1301  1.3474
 4290TIP3    H212877   2.839   1.096   3.562 -1.2454  1.0100 -2.3604
 4291TIP3   OH212878   1.567   5.257   3.757 -0.2741 -0.3099  0.1636
 4291TIP3    H112879   1.595   5.222   3.673  0.1699  0.8517 -0.1908
 4291TIP3    H212880   1.476   5.228   3.766 -0.1973 -0.7833 -0.5228
 4292TIP3   OH212881   1.274   2.317   3.530 -0.0079  0.7226  0.0658
 4292TIP3    H112882   1.298   2.249   3.594  0.1677  0.7895  0.0724
 4292TIP3    H212883   1.207   2.276   3.476  0.9813  0.1003 -0.7233
 4293TIP3   OH212884   5.832   0.814   5.130  0.6161  0.1200  0.3127
 4293TIP3    H112885   5.904   0.758   5.158 -0.2672 -0.2259  1.9897
 4293TIP3    H212886   5.759   0.754   5.115  0.7979  0.3786 -2.0726
 4294TIP3   OH212887   6.096   1.583   0.210 -0.0004 -0.0104 -0.1135
 4294TIP3    H112888   6.029   1.644   0.242 -0.2821 -0.2432 -0.2579
 4294TIP3    H212889   6.070   1.562   0.121  0.6701  0.4662 -0.4285
 4295TIP3   OH212890   4.636   3.156   1.905 -0.3377  0.1153 -0.0868
 4295TIP3    H112891   4.604   3.190   1.822 -1.2184 -0.6074 -0.0501
 4295TIP3    H212892   4.558   3.126   1.951  0.3408 -1.3773  0.1448
 4296TIP3   OH212893   3.985   5.922   0.938 -0.1500 -0.3068  0.4354
 4296TIP3    H112894   3.948   5.974   0.867  1.1091  1.0201  0.7175
 4296TIP3    H212895   3.943   5.956   1.017  0.0443 -0.2963  0.5361
 4297TIP3   OH212896   5.689   2.361   1.432 -0.4899 -0.6417 -0.5454
 4297TIP3    H112897   5.641   2.334   1.511  1.5184 -0.7508  0.7095
 4297TIP3    H212898   5.714   2.280   1.389  0.3334 -0.6580 -0.0577
 4298TIP3   OH212899   2.005   5.013   5.033 -0.4330  0.0391 -0.2032
 4298TIP3    H112900   2.071   4.947   5.051 -0.6179 -0.3037 -0.7507
 4298TIP3    H212901   2.052   5.081   4.983 -0.6568 -0.5896 -1.3085
 4299TIP3   OH212902   2.553   5.931   3.451  0.0911 -0.3847 -0.5522
 4299TIP3    H112903   2.506   5.863   3.499  0.0966  0.3693  0.5474
 4299TIP3    H212904   2.511   5.933   3.365 -0.7844 -0.8619 -0.1463
 4300TIP3   OH212905   1.238   4.712   3.806  0.1117  0.6416  0.1559
 4300TIP3    H112906   1.262   4.780   3.868  0.0215  0.0184  0.8904
 4300TIP3    H212907   1.227   4.633   3.859 -0.1680  0.1369 -0.6212
 4301TIP3   OH212908   4.641   5.068   1.014  0.0482 -0.1728  0.4693
 4301TIP3    H112909   4.673   4.997   0.958 -0.6575 -0.0272 -0.1417
 4301TIP3    H212910   4.553   5.040   1.039  0.6599 -0.6216  2.2049
 4302TIP3   OH212911   0.619   2.902   1.905  0.4925 -0.2049 -0.0505
 4302TIP3    H112912   0.614   2.852   1.824  1.2473 -0.1426 -0.1452
 4302TIP3    H212913   0.705   2.944   1.902  0.5899 -0.3182  0.8431
 4303TIP3   OH212914   5.116   5.869   0.612  0.2262 -0.1820  0.2251
 4303TIP3    H112915   5.080   5.902   0.694 -0.6283 -2.1391  0.7100
 4303TIP3    H212916   5.065   5.790   0.593  1.5176 -0.7189 -1.2991
 4304TIP3   OH212917   1.154   4.197   0.735 -0.4463 -0.2140 -0.2130
 4304TIP3    H112918   1.071   4.224   0.696 -1.1370 -0.7468  0.8217
 4304TIP3    H212919   1.200   4.151   0.664 -2.0568 -1.9734 -0.2207
 4305TIP3   OH212920   3.759   4.195   4.154 -0.3345 -0.4431 -0.4207
 4305TIP3    H112921   3.704   4.236   4.086 -1.7702 -1.1480  0.2893
 4305TIP3    H212922   3.848   4.223   4.132 -0.8392 -0.1114 -2.2116
 4306TIP3   OH212923   1.801   2.414   3.414  0.0380  0.2442  0.2518
 4306TIP3    H112924   1.851   2.341   3.449  0.0177  0.1057 -0.0094
 4306TIP3    H212925   1.867   2.476   3.383  0.0501  0.2117  0.2140
 4307TIP3   OH212926   3.023   4.968   4.513  0.2701  0.3983 -0.0072
 4307TIP3    H112927   3.053   5.053   4.544 -0.3620  0.3783  0.7059
 4307TIP3    H212928   2.928   4.977   4.505  0.4355  0.6008 -2.6305
 4308TIP3   OH212929   3.548   3.541   3.814  0.3347  0.0316  0.0971
 4308TIP3    H112930   3.534   3.616   3.873 -0.3799 -0.2305  0.2749
 4308TIP3    H212931   3.642   3.540   3.798  0.6501 -0.2460  1.7345
 4309TIP3   OH212932   6.037   4.335   2.976  0.2138 -0.0473  0.1971
 4309TIP3    H112933   5.994   4.254   2.946 -0.5305  1.0352 -1.8033
 4309TIP3    H212934   5.966   4.399   2.981  1.0919  0.9511  0.0202
 4310TIP3   OH212935   1.640   2.475   4.523 -0.5337  0.2488 -0.1124
 4310TIP3    H112936   1.730   2.471   4.491 -1.0025  1.0718 -1.6054
 4310TIP3    H212937   1.586   2.456   4.446 -1.7211  2.8292 -0.0189
 4311TIP3   OH212938   3.608   1.198   1.454  0.1515  0.7858  0.1190
 4311TIP3    H112939   3.605   1.236   1.367 -3.2375  3.6432  1.2088
 4311TIP3    H212940   3.543   1.128   1.453  0.9506  0.0246  0.0957
 4312TIP3   OH212941   6.177   3.067   0.194 -0.3945 -0.2175 -0.4549
 4312TIP3    H112942   6.198   3.147   0.242 -0.4898  0.2160 -1.1173
 4312TIP3    H212943   6.105   3.027   0.243 -0.1552 -0.0426  0.0376
 4313TIP3   OH212944   3.132   4.532   3.310  0.0325  0.8089 -0.2281
 4313TIP3    H112945   3.167   4.519   3.399  0.6517  0.4532 -0.5171
 4313TIP3    H212946   3.198   4.494   3.253 -0.7327  0.3186 -0.8078
 4314TIP3   OH212947   4.689   2.548   3.318  0.4388  0.5493  0.1224
 4314TIP3    H112948   4.678   2.623   3.260 -0.6191 -0.9409 -1.7592
 4314TIP3    H212949   4.606   2.500   3.311  0.2915  0.2270  2.8572
 4315TIP3   OH212950   4.703   4.979   3.174 -0.0742  0.3179  0.0746
 4315TIP3    H112951   4.744   4.961   3.089 -0.4973 -0.0127 -0.0624
 4315TIP3    H212952   4.664   5.066   3.164  2.3860  1.6342  0.8921
 4316TIP3   OH212953   3.822   3.517   1.058 -0.1768  0.2028  0.1370
 4316TIP3    H112954   3.838   3.521   1.152  0.9683  1.7397 -0.0921
 4316TIP3    H212955   3.897   3.470   1.022  0.4399  1.4175 -0.2088
 4317TIP3   OH212956   1.042   4.098   2.703 -0.1859  0.4625  0.2787
 4317TIP3    H112957   1.015   4.013   2.737 -1.0858  0.8255  0.5153
 4317TIP3    H212958   1.137   4.093   2.696 -0.2918 -0.8123 -0.4066
 4318TIP3   OH212959   2.014   5.423   4.817 -0.0770 -0.4223 -0.5886
 4318TIP3    H112960   1.999   5.329   4.828  1.1572 -0.5267  0.4994
 4318TIP3    H212961   2.039   5.454   4.904  0.0901  0.8036 -1.0515
 4319TIP3   OH212962   0.462   4.002   2.965 -0.2968  0.1374 -0.3107
 4319TIP3    H112963   0.523   3.990   2.892 -0.1092 -2.2394  0.1495
 4319TIP3    H212964   0.517   3.997   3.043 -0.8488 -0.1745  0.0623
 4320TIP3   OH212965   5.767   3.889   3.667 -0.1079 -0.2669  0.6403
 4320TIP3    H112966   5.743   3.910   3.577 -0.5179 -1.2204  0.5186
 4320TIP3    H212967   5.863   3.887   3.667 -0.1140 -1.1934 -0.0089
 4321TIP3   OH212968   3.327   4.837   1.312 -0.0669  0.0743  0.1842
 4321TIP3    H112969   3.236   4.836   1.342  0.1127 -0.8262  0.7398
 4321TIP3    H212970   3.368   4.762   1.356  0.0822 -1.7369 -2.7614
 4322TIP3   OH212971   4.495   0.388   4.314  0.8410 -0.1816  0.0449
 4322TIP3    H112972   4.560   0.458   4.323 -0.6420  1.3993 -0.9793
 4322TIP3    H212973   4.541   0.318   4.267  2.3854  0.0066  1.1704
 4323TIP3   OH212974   1.950   0.517   0.261  0.6231  0.1675  0.0120
 4323TIP3    H112975   2.003   0.597   0.251  1.0843 -0.0631  0.5657
 4323TIP3    H212976   1.946   0.480   0.173 -0.7033  1.4773 -0.5365
 4324TIP3   OH212977   2.458   3.809   0.522 -0.4591  0.5211  0.8502
 4324TIP3    H112978   2.540   3.764   0.504 -1.0002  0.0617 -0.6736
 4324TIP3    H212979   2.484   3.890   0.565  0.8751  0.7867 -0.3697
 4325TIP3   OH212980   0.945   5.299   2.303  0.2566 -0.2045 -0.0832
 4325TIP3    H112981   0.867   5.345   2.272  0.4274  0.3587  0.3203
 4325TIP3    H212982   0.959   5.331   2.391  1.6852  0.6657 -0.6018
 4326TIP3   OH212983   2.919   2.054   1.531  0.5558  0.5903 -0.0187
 4326TIP3    H112984   2.994   2.078   1.587  0.9785 -0.2849 -0.1996
 4326TIP3    H212985   2.899   2.135   1.484  0.9713  1.0137  0.5086
 4327TIP3   OH212986   4.672   4.812   1.849 -0.4579 -0.2986 -0.2135
 4327TIP3    H112987   4.655   4.734   1.797 -0.2002 -0.4367 -0.0946
 4327TIP3    H212988   4.666   4.782   1.940  1.4368 -0.6094 -0.1467
 4328TIP3   OH212989   1.466   3.336   0.245 -1.0377  0.1641  0.3449
 4328TIP3    H112990   1.416   3.277   0.189 -0.4458  0.9488 -1.0759
 4328TIP3    H212991   1.400   3.390   0.289 -1.5099 -0.3670  0.2863
 4329TIP3   OH212992   0.699   2.810   4.576  0.0776 -0.3263 -0.1969
 4329TIP3    H112993   0.730   2.877   4.638  0.8864  0.7113 -1.6710
 4329TIP3    H212994   0.622   2.773   4.619 -0.4945  1.6511  0.6305
 4330TIP3   OH212995   1.285   4.385   5.042 -0.3387  0.1513  0.8232
 4330TIP3    H112996   1.192   4.381   5.022 -0.2631 -0.4956  0.5545
 4330TIP3    H212997   1.320   4.304   5.006  0.5345  0.9319 -0.1661
 4331TIP3   OH212998   1.309   4.725   3.553 -0.3236 -0.0371  0.6220
 4331TIP3    H112999   1.271   4.712   3.640  1.1765 -1.2610  1.1384
 4331TIP3    H213000   1.398   4.690   3.560  0.4089  1.3676 -0.9483
 4332TIP3   OH213001   0.433   5.384   1.418  0.3608 -0.3264  0.1989
 4332TIP3    H113002   0.447   5.474   1.389  1.0038 -0.5873 -0.3137
 4332TIP3    H213003   0.520   5.347   1.428  0.1233 -1.6336 -1.9636
 4333TIP3   OH213004   5.906   2.948   1.161  0.1247  0.2198 -0.1685
 4333TIP3    H113005   5.960   2.994   1.225 -1.4373  1.7929  0.1039
 4333TIP3    H213006   5.933   2.856   1.168  1.8304  0.7463  0.8312
 4334TIP3   OH213007   1.231   4.784   1.012 -0.0978  0.6182  0.0454
 4334TIP3    H113008   1.174   4.848   1.054 -1.5836  0.6542 -1.8521
 4334TIP3    H213009   1.283   4.836   0.951 -1.3829  0.0916 -1.5808
 4335TIP3   OH213010   3.335   4.527   2.734 -0.6006  0.4043 -0.7528
 4335TIP3    H113011   3.386   4.550   2.656  0.3958  0.2455 -0.1506
 4335TIP3    H213012   3.339   4.431   2.738  0.9723  0.4843  0.5441
 4336TIP3   OH213013   6.360   0.435   2.286  0.2391 -0.1164  0.4004
 4336TIP3    H113014   6.268   0.419   2.266  0.2921  0.4394 -0.3444
 4336TIP3    H213015   6.358   0.500   2.357  0.0270  1.7554 -1.2292
 4337TIP3   OH213016   5.594   4.256   4.407 -0.4996 -0.1706 -0.3509
 4337TIP3    H113017   5.663   4.279   4.469 -0.5942 -0.8279  0.0144
 4337TIP3    H213018   5.622   4.294   4.324 -0.3194  0.6367  0.0721
 4338TIP3   OH213019   3.630   0.874   3.652 -0.3563  0.1839  0.3193
 4338TIP3    H113020   3.639   0.942   3.719  1.7981 -0.4890  0.7945
 4338TIP3    H213021   3.678   0.910   3.576 -0.6975 -0.0780 -0.0214
 4339TIP3   OH213022   2.747   4.164   4.752  0.3896  0.0783 -0.2657
 4339TIP3    H113023   2.727   4.252   4.720  1.6023 -0.5921 -3.1691
 4339TIP3    H213024   2.840   4.166   4.772  0.3508 -0.4402 -0.0096
 4340TIP3   OH213025   4.874   3.328   4.864 -0.3982  0.2439 -0.6049
 4340TIP3    H113026   4.811   3.352   4.933 -2.0768 -1.0242 -1.6037
 4340TIP3    H213027   4.957   3.318   4.910 -1.3072  0.1710  1.1266
 4341TIP3   OH213028   3.251   1.344   3.766  0.0822 -0.0262 -0.5090
 4341TIP3    H113029   3.178   1.282   3.775 -1.6435  1.8530 -0.8258
 4341TIP3    H213030   3.319   1.293   3.722 -1.5765 -1.4752 -1.5943
 4342TIP3   OH213031   0.532   4.055   3.472  0.3187 -0.0426  0.6829
 4342TIP3    H113032   0.469   4.042   3.543  1.9039  2.1626  2.6480
 4342TIP3    H213033   0.617   4.052   3.515  1.3451  1.4288 -1.1290
 4343TIP3   OH213034   3.282   0.680   0.072 -0.7853  0.3514  0.5443
 4343TIP3    H113035   3.371   0.708   0.050 -1.4560  1.1454 -1.4221
 4343TIP3    H213036   3.236   0.679  -0.012 -3.0075  1.3041  1.6582
 4344TIP3   OH213037   6.148   1.508   0.741 -0.4497 -0.7246  0.3410
 4344TIP3    H113038   6.098   1.486   0.819  0.5473  0.1496  1.2546
 4344TIP3    H213039   6.083   1.546   0.681 -1.2212 -1.4196  0.7162
 4345TIP3   OH213040   5.324   0.985   0.389  0.8042  0.3169 -0.8003
 4345TIP3    H113041   5.418   0.978   0.403  0.5898 -2.3345 -0.0394
 4345TIP3    H213042   5.303   0.911   0.332 -0.8388  0.7420 -0.7973
 4346TIP3   OH213043   2.046   4.712   2.313  0.3861 -0.0278  0.0334
 4346TIP3    H113044   2.106   4.782   2.288 -0.7502  0.1495 -2.4620
 4346TIP3    H213045   2.103   4.639   2.339  1.6273  0.7776 -0.3782
 4347TIP3   OH213046   6.266   4.693   2.640  0.1277 -0.3198 -0.3882
 4347TIP3    H113047   6.304   4.719   2.724  1.3107 -0.4967 -0.8490
 4347TIP3    H213048   6.335   4.711   2.576 -0.7268 -0.2625 -1.3191
 4348TIP3   OH213049   4.921   1.857   2.670 -0.2713  0.1285 -0.0062
 4348TIP3    H113050   4.984   1.867   2.742  0.7744  2.6446 -1.1623
 4348TIP3    H213051   4.951   1.918   2.603 -1.9811 -1.1609 -2.0704
 4349TIP3   OH213052   0.790   0.283   3.603  0.5061  0.1404 -0.7327
 4349TIP3    H113053   0.862   0.345   3.594  2.2248 -1.8211 -1.5488
 4349TIP3    H213054   0.756   0.272   3.514 -0.4673  0.6392 -0.4381
 4350TIP3   OH213055   3.073   4.157   3.467 -0.1476  0.3268  0.8138
 4350TIP3    H113056   3.022   4.180   3.545 -0.1607 -3.1829  1.9879
 4350TIP3    H213057   3.007   4.140   3.400 -0.2531  0.6682  0.8268
 4351TIP3   OH213058   0.889   1.169   4.204 -0.3015  0.0197 -0.0762
 4351TIP3    H113059   0.941   1.215   4.139  0.8980 -1.0019  0.1207
 4351TIP3    H213060   0.831   1.236   4.240  0.7357  1.1580 -0.4405
 4352TIP3   OH213061   2.983   5.320   1.615  0.1603  0.5758  0.3609
 4352TIP3    H113062   2.888   5.306   1.618  0.1263  0.4278 -0.9124
 4352TIP3    H213063   3.014   5.259   1.547  1.3406 -0.2544  1.5789
 4353TIP3   OH213064   0.795   4.104   4.613  0.1772  0.0023 -0.0122
 4353TIP3    H113065   0.748   4.074   4.691 -1.4364 -0.5929 -1.1831
 4353TIP3    H213066   0.843   4.027   4.583  1.8370  0.5562  1.0656
 4354TIP3   OH213067   0.242   5.087   3.245  0.1920 -0.6010 -0.6075
 4354TIP3    H113068   0.238   5.079   3.149  2.7600  0.5765 -0.9033
 4354TIP3    H213069   0.170   5.033   3.276 -0.1852 -1.7406 -3.1699
 4355TIP3   OH213070   2.898   1.285   3.483  0.0671  0.9699  0.2547
 4355TIP3    H113071   2.844   1.364   3.494 -3.3258 -1.2273  0.7704
 4355TIP3    H213072   2.893   1.265   3.390  0.2360  0.9238  0.2560
 4356TIP3   OH213073   1.693   2.543   5.138 -0.1480  0.2664  0.2660
 4356TIP3    H113074   1.770   2.589   5.172 -0.2428  1.8904 -1.5672
 4356TIP3    H213075   1.631   2.612   5.117 -1.0008 -0.8265 -0.9720
 4357TIP3   OH213076   0.358   3.620   4.182  0.1797  0.0193 -0.6361
 4357TIP3    H113077   0.328   3.593   4.095 -2.5427  0.0067  0.2146
 4357TIP3    H213078   0.288   3.675   4.216  1.8842  1.3172  0.9746
 4358TIP3   OH213079   4.301   2.985   1.306 -0.6783  0.3923 -0.6791
 4358TIP3    H113080   4.271   2.914   1.364 -1.1083  1.1236  0.0152
 4358TIP3    H213081   4.296   2.947   1.218 -0.6388 -0.5278 -0.3021
 4359TIP3   OH213082   4.263   1.138   4.024 -0.1324 -0.4085  0.1470
 4359TIP3    H113083   4.323   1.176   3.960 -0.0646 -2.2596 -0.9899
 4359TIP3    H213084   4.247   1.049   3.991  0.3923 -1.6756  3.0459
 4360TIP3   OH213085   3.343   2.708   4.164 -0.8286 -0.1549 -0.3578
 4360TIP3    H113086   3.388   2.638   4.116 -2.1097 -0.1110 -1.7075
 4360TIP3    H213087   3.408   2.778   4.170  0.3818 -1.3215  0.7515
 4361TIP3   OH213088   4.439   1.600   1.608  0.2259 -0.1207  0.4556
 4361TIP3    H113089   4.416   1.507   1.611  0.3434 -0.1556  0.3016
 4361TIP3    H213090   4.529   1.602   1.578 -0.5464  0.1276 -2.1167
 4362TIP3   OH213091   4.253   2.156   2.701  0.8120  0.0628 -0.4340
 4362TIP3    H113092   4.181   2.120   2.753 -0.7610 -0.8868 -3.0568
 4362TIP3    H213093   4.322   2.090   2.705  0.4225 -0.3262 -0.1468
 4363TIP3   OH213094   0.026   5.861   3.349 -0.7011  0.4652  0.1517
 4363TIP3    H113095   0.098   5.845   3.410 -0.0626  1.5799 -0.2677
 4363TIP3    H213096   0.065   5.847   3.263 -1.7637 -1.7656 -0.0454
 4364TIP3   OH213097   4.747   2.779   1.920 -0.0641  0.4927  0.1698
 4364TIP3    H113098   4.666   2.803   1.875 -1.4050  0.1634  2.2690
 4364TIP3    H213099   4.814   2.783   1.852 -2.0878 -0.9661 -2.0889
 4365TIP3   OH213100   3.150   5.551   2.663  0.3610 -0.5102  0.8219
 4365TIP3    H113101   3.142   5.548   2.568 -0.5561 -0.7392  0.8921
 4365TIP3    H213102   3.073   5.503   2.695 -0.3039  1.0485  1.6880
 4366TIP3   OH213103   5.294   5.336   4.055 -0.2996  0.4694  0.3653
 4366TIP3    H113104   5.268   5.398   3.986 -1.8766 -1.0870 -0.5161
 4366TIP3    H213105   5.251   5.254   4.031 -1.7400  0.0898  3.7197
 4367TIP3   OH213106   1.112   5.522   2.239 -0.3500 -0.2731 -0.6961
 4367TIP3    H113107   1.038   5.472   2.273  1.6690 -2.0910  1.3585
 4367TIP3    H213108   1.087   5.614   2.253 -3.0290 -0.7055 -2.0753
 4368TIP3   OH213109   2.121   5.441   2.792  0.2626 -0.2418 -0.7964
 4368TIP3    H113110   2.120   5.382   2.717  0.1979 -1.0671 -0.1574
 4368TIP3    H213111   2.144   5.385   2.866 -0.5605  0.3850 -0.0489
 4369TIP3   OH213112   0.825   0.083   2.785 -0.0324  0.2752 -0.1040
 4369TIP3    H113113   0.850   0.176   2.791 -1.1789  0.6573 -0.7988
 4369TIP3    H213114   0.730   0.086   2.771 -0.1223 -1.0238  0.1835
 4370TIP3   OH213115   0.632   2.263   2.179  0.1938  0.3035 -0.8584
 4370TIP3    H113116   0.724   2.245   2.196  0.0402  0.9934  0.9526
 4370TIP3    H213117   0.632   2.324   2.106  1.2827  1.4217  0.0398
 4371TIP3   OH213118   3.239   2.232   0.858  0.1198 -0.1101 -0.4051
 4371TIP3    H113119   3.241   2.142   0.825 -2.1024 -0.4153  0.1754
 4371TIP3    H213120   3.264   2.286   0.783 -3.9941 -0.8320 -2.5910
 4372TIP3   OH213121   2.227   3.651   1.740 -0.5455  0.0771 -0.4063
 4372TIP3    H113122   2.313   3.656   1.697 -0.3538 -1.2460 -0.2038
 4372TIP3    H213123   2.194   3.741   1.737  0.5301  0.4686 -1.1340
 4373TIP3   OH213124   4.407   3.087   2.032 -0.7215  0.4638  0.3319
 4373TIP3    H113125   4.327   3.139   2.035  0.1137  1.7695  0.8145
 4373TIP3    H213126   4.393   3.019   2.099 -1.9033 -0.0996 -0.4494
 4374TIP3   OH213127   2.358   5.722   3.473 -0.4614  0.2969  0.2182
 4374TIP3    H113128   2.368   5.656   3.404 -1.4856  0.6729 -0.3177
 4374TIP3    H213129   2.276   5.767   3.450 -1.0306  0.1654  1.8950
 4375TIP3   OH213130   3.651   2.987   3.586  0.0992  0.0668 -0.5846
 4375TIP3    H113131   3.577   3.026   3.633 -0.0469 -1.1716  0.2561
 4375TIP3    H213132   3.654   3.034   3.503 -1.0028  0.8284 -0.2134
 4376TIP3   OH213133   0.359   2.664   3.517 -0.8050 -0.1550  0.2240
 4376TIP3    H113134   0.303   2.614   3.576 -0.0251 -0.2679  0.9032
 4376TIP3    H213135   0.447   2.629   3.534 -0.6272 -0.6043 -1.4446
 4377TIP3   OH213136   3.079   0.745   4.419  0.3430  0.0265  0.4645
 4377TIP3    H113137   2.990   0.739   4.453 -0.0672 -0.5121 -0.6484
 4377TIP3    H213138   3.132   0.767   4.495 -0.6905  0.0138  1.2150
 4378TIP3   OH213139   5.892   1.001   4.235  0.4271 -0.1280 -0.3078
 4378TIP3    H113140   5.960   0.995   4.303  0.2456 -1.3656 -0.2136
 4378TIP3    H213141   5.872   1.094   4.230  0.0408 -0.0408  1.7522
 4379TIP3   OH213142   4.191   3.933   4.856  0.6443  0.3231  0.5687
 4379TIP3    H113143   4.152   3.859   4.809  0.6852  0.7193 -0.1096
 4379TIP3    H213144   4.285   3.913   4.859  0.6132  0.1934  0.6692
 4380TIP3   OH213145   5.421   2.631   3.869 -0.0143 -0.2544  0.2447
 4380TIP3    H113146   5.400   2.651   3.960  1.5174 -0.3958  0.6615
 4380TIP3    H213147   5.475   2.552   3.873 -0.6899 -0.8050 -0.8758
 4381TIP3   OH213148   1.755   5.103   1.389  0.3907  0.2049 -0.0978
 4381TIP3    H113149   1.666   5.074   1.371  0.5931 -0.4702 -0.0500
 4381TIP3    H213150   1.780   5.055   1.469  1.6556 -1.5295 -1.4585
 4382TIP3   OH213151   6.214   1.996   0.342  0.4281 -0.3394  0.8716
 4382TIP3    H113152   6.139   1.937   0.331  0.7740 -1.0472  2.1578
 4382TIP3    H213153   6.216   2.047   0.261 -0.4548 -1.4399  0.1300
 4383TIP3   OH213154   1.543   4.674   0.813 -0.2515 -0.0079 -0.0014
 4383TIP3    H113155   1.583   4.636   0.891 -0.9020  1.0905  0.8851
 4383TIP3    H213156   1.449   4.661   0.825 -0.7196  3.6444  1.3810
 4384TIP3   OH213157   3.444   0.152   4.109 -0.1750  0.9062  0.2252
 4384TIP3    H113158   3.429   0.111   4.194  0.5457 -1.0868 -0.5546
 4384TIP3    H213159   3.401   0.094   4.046  2.4192  0.2639 -1.1012
 4385TIP3   OH213160   4.467   4.561   0.854  0.3253 -0.2202  0.1696
 4385TIP3    H113161   4.408   4.556   0.930 -0.5851  1.1594 -0.4085
 4385TIP3    H213162   4.490   4.653   0.848  1.2410 -0.4920 -0.6089
 4386TIP3   OH213163   0.710   4.320   2.105 -0.1245  0.3315  0.4501
 4386TIP3    H113164   0.801   4.310   2.076 -0.3402 -0.7932  0.1278
 4386TIP3    H213165   0.698   4.252   2.171 -1.0758 -0.3524 -0.3839
 4387TIP3   OH213166   2.058   3.950   3.718 -0.4524 -0.0339  0.8603
 4387TIP3    H113167   2.092   3.939   3.629 -1.3676 -1.0405  0.6168
 4387TIP3    H213168   2.051   3.861   3.753  0.5969  0.3731  2.2300
 4388TIP3   OH213169   6.185   3.201   2.065  0.0353  0.3721  0.1811
 4388TIP3    H113170   6.091   3.207   2.082  0.0001 -1.8950  1.2699
 4388TIP3    H213171   6.192   3.195   1.970 -0.8693  1.1199  0.0529
 4389TIP3   OH213172   4.083   2.755   2.814  0.3366  0.2764 -0.5906
 4389TIP3    H113173   4.096   2.743   2.720 -1.1414 -1.0290 -0.6774
 4389TIP3    H213174   3.996   2.793   2.822 -0.0288 -0.6757  0.2669
 4390TIP3   OH213175   2.375   0.780   2.503  0.5648 -0.5190 -0.6050
 4390TIP3    H113176   2.463   0.764   2.538  0.9772  0.5349 -1.0819
 4390TIP3    H213177   2.375   0.737   2.418  0.4574 -0.9198 -0.4010
 4391TIP3   OH213178   0.660   3.632   2.218  0.0991 -0.6490  0.2532
 4391TIP3    H113179   0.726   3.700   2.231  1.5095 -2.0536  0.6907
 4391TIP3    H213180   0.577   3.676   2.236  0.9904  0.8896  0.7646
 4392TIP3   OH213181   4.293   4.813   0.382 -0.8274 -0.1643 -0.4857
 4392TIP3    H113182   4.373   4.762   0.384 -1.2566 -0.8608 -0.6937
 4392TIP3    H213183   4.268   4.814   0.289 -0.8447  0.3883 -0.4762
 4393TIP3   OH213184   2.076   4.640   0.337  0.0896  0.3244 -0.2409
 4393TIP3    H113185   2.003   4.687   0.377  1.3266  1.5404  0.6812
 4393TIP3    H213186   2.131   4.614   0.410  1.1625  0.4216 -0.9899
 4394TIP3   OH213187   4.387   5.713   2.478  0.4707 -0.0438 -0.1594
 4394TIP3    H113188   4.468   5.676   2.442  1.2807 -0.1512  1.6367
 4394TIP3    H213189   4.351   5.766   2.407  1.3822 -1.0934 -1.4614
 4395TIP3   OH213190   4.198   4.161   1.434 -0.3730  0.4554 -0.0393
 4395TIP3    H113191   4.235   4.245   1.406  0.3862 -0.2948 -1.4086
 4395TIP3    H213192   4.124   4.185   1.489 -0.5023  2.0390 -0.8298
 4396TIP3   OH213193   2.873   5.436   4.584  0.2816 -0.2541  0.1467
 4396TIP3    H113194   2.941   5.387   4.538  1.2825 -0.8603  2.1593
 4396TIP3    H213195   2.801   5.373   4.593 -0.0734 -0.0099 -0.8906
 4397TIP3   OH213196   1.639   4.015   4.926 -0.0283 -0.6888 -0.2237
 4397TIP3    H113197   1.625   3.948   4.859 -0.4056 -1.3890  0.5434
 4397TIP3    H213198   1.734   4.012   4.942  0.2170  0.1269 -1.3628
 4398TIP3   OH213199   5.046   5.470   0.360  0.2623 -0.5153 -0.7577
 4398TIP3    H113200   5.099   5.403   0.401 -1.2586 -1.5294 -0.3624
 4398TIP3    H213201   4.975   5.422   0.317 -0.2606  0.7692 -1.3930
 4399TIP3   OH213202   1.224   2.022   4.567 -0.2894  0.2646  0.3033
 4399TIP3    H113203   1.185   2.096   4.521 -0.0581 -1.3260 -2.7531
 4399TIP3    H213204   1.149   1.968   4.593 -0.3862  0.3933  0.2912
 4400TIP3   OH213205   5.013   1.186   1.268 -0.4859 -0.2142 -0.8248
 4400TIP3    H113206   4.988   1.191   1.176 -1.8948 -0.9143 -0.4984
 4400TIP3    H213207   4.937   1.218   1.316  0.2489  0.1954  0.1108
 4401TIP3   OH213208   1.408   2.697   4.555  0.3465  0.0808 -0.6698
 4401TIP3    H113209   1.482   2.638   4.568  1.0443  1.1651  0.5683
 4401TIP3    H213210   1.365   2.702   4.640 -0.2101  0.6864 -0.9711
 4402TIP3   OH213211   1.320   2.837   3.572  0.3770 -0.2712 -1.1073
 4402TIP3    H113212   1.296   2.745   3.572  0.2628 -0.2438 -1.3286
 4402TIP3    H213213   1.386   2.844   3.503  0.4875 -0.2132 -0.9956
 4403TIP3   OH213214   0.392   1.981   3.912 -0.1927 -0.1516  0.0402
 4403TIP3    H113215   0.438   1.990   3.996 -1.3139  0.1244  0.6421
 4403TIP3    H213216   0.315   1.928   3.933 -2.8364  3.3755  0.1961
 4404TIP3   OH213217   1.333   3.618   2.170  0.6759 -0.7687 -0.2829
 4404TIP3    H113218   1.337   3.695   2.226 -0.7404 -1.1534  0.4064
 4404TIP3    H213219   1.373   3.548   2.222  0.0861 -0.9454 -0.0534
 4405TIP3   OH213220   3.447   1.564   0.362 -0.0282 -0.5817  0.0901
 4405TIP3    H113221   3.407   1.553   0.276 -1.1516 -1.8363  0.7285
 4405TIP3    H213222   3.406   1.643   0.397  0.1932 -0.2501 -0.3876
 4406TIP3   OH213223   4.515   5.472   4.422 -0.7565 -0.0695 -0.4851
 4406TIP3    H113224   4.489   5.397   4.476 -1.0604 -1.2661 -2.1992
 4406TIP3    H213225   4.510   5.547   4.481  0.1073 -1.4434  1.4553
 4407TIP3   OH213226   3.983   2.251   2.962 -0.4884 -0.6052 -0.6094
 4407TIP3    H113227   3.912   2.215   2.909 -0.5866  0.2605 -1.0857
 4407TIP3    H213228   3.990   2.342   2.933 -1.2401  0.2090  1.5719
 4408TIP3   OH213229   1.270   4.196   2.303  0.2698 -0.3633  0.4124
 4408TIP3    H113230   1.349   4.179   2.354 -0.0160 -0.1720  0.9357
 4408TIP3    H213231   1.235   4.277   2.340  0.6779  0.4229 -0.8800
 4409TIP3   OH213232   2.848   2.517   0.556  0.0567  0.1959  0.3480
 4409TIP3    H113233   2.845   2.505   0.651 -3.2935  0.3104  0.3824
 4409TIP3    H213234   2.940   2.532   0.537  1.0382 -1.1124  3.3945
 4410TIP3   OH213235   5.187   5.327   5.149  0.1198  0.3860 -0.1714
 4410TIP3    H113236   5.200   5.370   5.065  0.5671 -0.5092 -0.5682
 4410TIP3    H213237   5.231   5.384   5.213 -0.3596  1.1480 -0.5085
 4411TIP3   OH213238   6.148   5.624   2.441  0.6170 -0.0470  0.3006
 4411TIP3    H113239   6.090   5.699   2.450  1.2232  0.3527  0.9574
 4411TIP3    H213240   6.125   5.585   2.357 -0.3277  0.3334  0.3768
 4412TIP3   OH213241   3.892   0.513   2.129  0.1710 -0.9057  0.3115
 4412TIP3    H113242   3.823   0.471   2.181  0.6825 -1.0284  0.9059
 4412TIP3    H213243   3.929   0.442   2.076 -1.1072 -0.5666 -1.0984
 4413TIP3   OH213244   1.109   1.720   4.985  0.1471 -0.0566 -0.0996
 4413TIP3    H113245   1.114   1.708   4.890 -2.9811  0.9451 -0.5241
 4413TIP3    H213246   1.198   1.744   5.011  0.9416  0.4480 -2.9041
 4414TIP3   OH213247   3.933   2.058   3.413  0.3255  0.0768  0.0055
 4414TIP3    H113248   3.919   2.123   3.344  3.3667  1.3083  0.3986
 4414TIP3    H213249   3.883   2.091   3.487  2.7331  2.7649  0.5799
 4415TIP3   OH213250   0.325   5.069   0.998 -0.0177 -0.0211 -0.1956
 4415TIP3    H113251   0.416   5.067   1.025 -0.4417 -2.0482  1.3350
 4415TIP3    H213252   0.276   5.035   1.073 -2.0784  1.1325 -0.9067
 4416TIP3   OH213253   1.785   0.082   1.987 -0.3515  0.2034 -0.2242
 4416TIP3    H113254   1.879   0.090   2.005 -0.1275 -1.9755 -0.1880
 4416TIP3    H213255   1.750   0.169   2.008  1.4871  0.7837  0.7196
 4417TIP3   OH213256   3.187   2.985   1.104  0.1980  0.0078 -0.2190
 4417TIP3    H113257   3.145   3.045   1.166 -0.2444 -1.0261  0.5190
 4417TIP3    H213258   3.213   3.041   1.030  1.3155  1.4149  1.1505
 4418TIP3   OH213259   5.089   3.621   0.949  0.3795  0.4905 -0.2350
 4418TIP3    H113260   5.043   3.700   0.920  1.8001  1.2248 -0.5967
 4418TIP3    H213261   5.181   3.648   0.954  0.7269 -0.8058  0.8646
 4419TIP3   OH213262   0.793   4.322   4.154 -0.3834  0.1165  0.1010
 4419TIP3    H113263   0.876   4.342   4.111 -0.4261  0.7235  0.2919
 4419TIP3    H213264   0.779   4.395   4.214 -2.6123  1.7538 -2.1764
 4420TIP3   OH213265   6.305   2.397   0.505  0.0216  0.1471 -0.3039
 4420TIP3    H113266   6.327   2.404   0.598  0.8896  0.3111 -0.5141
 4420TIP3    H213267   6.314   2.486   0.471  1.0685 -0.1448 -0.8267
 4421TIP3   OH213268   2.547   0.590   0.388 -0.0176  0.2064 -0.3818
 4421TIP3    H113269   2.606   0.649   0.342 -0.9410 -0.1953 -2.1867
 4421TIP3    H213270   2.486   0.647   0.434  0.3411  0.6471 -0.4483
 4422TIP3   OH213271   2.011   5.027   3.221 -0.1709 -0.5060  0.0998
 4422TIP3    H113272   2.036   5.025   3.313  0.2178  0.4934  0.0183
 4422TIP3    H213273   1.921   4.994   3.221 -0.8042  1.1098  1.0551
 4423TIP3   OH213274   4.567   5.082   4.463  0.0407  1.0830  0.0874
 4423TIP3    H113275   4.576   4.987   4.469 -2.8765  0.7476  0.9718
 4423TIP3    H213276   4.651   5.116   4.493  1.5161 -1.1790 -1.1800
 4424TIP3   OH213277   3.029   0.339   3.228  0.8089 -0.3759 -0.9319
 4424TIP3    H113278   3.067   0.411   3.178  0.6810  0.2873 -0.1007
 4424TIP3    H213279   2.989   0.382   3.304  1.6882 -1.4272  0.1480
 4425TIP3   OH213280   0.081   0.128   2.052  0.2262 -0.6675 -0.1275
 4425TIP3    H113281   0.080   0.142   1.957 -0.0953 -0.3816 -0.0832
 4425TIP3    H213282   0.127   0.044   2.063  2.4711  0.4649 -0.3756
 4426TIP3   OH213283   1.746   2.652   3.996  0.0766 -0.5425 -0.0690
 4426TIP3    H113284   1.796   2.675   3.918  2.9568 -0.8151  1.5607
 4426TIP3    H213285   1.760   2.558   4.007 -1.1928 -0.7256  0.2356
 4427TIP3   OH213286   0.254   1.130   4.104 -0.2959 -0.3732  0.6518
 4427TIP3    H113287   0.313   1.056   4.090  2.0528  1.5541 -0.2382
 4427TIP3    H213288   0.256   1.144   4.199  0.0287 -0.7938  0.7091
 4428TIP3   OH213289   0.464   3.843   1.825  0.0366 -0.7241  0.9221
 4428TIP3    H113290   0.549   3.829   1.867 -0.2868 -2.1927  1.1460
 4428TIP3    H213291   0.429   3.754   1.813 -1.3980 -0.1447  0.6876
 4429TIP3   OH213292   4.322   3.530   2.281  0.2235  0.8217 -0.6220
 4429TIP3    H113293   4.349   3.455   2.334 -0.2536  1.2901  0.3113
 4429TIP3    H213294   4.367   3.604   2.321  0.7333  1.0318 -1.5711
 4430TIP3   OH213295   1.868   5.028   3.494  0.5869 -0.0170 -0.0373
 4430TIP3    H113296   1.778   5.012   3.521  0.3398  0.4924 -0.5362
 4430TIP3    H213297   1.889   5.115   3.528  0.0880  0.8714 -1.8515
 4431TIP3   OH213298   2.791   3.600   4.043  0.3082 -0.6864  0.1013
 4431TIP3    H113299   2.789   3.616   4.137  2.3141 -0.9010  0.2321
 4431TIP3    H213300   2.883   3.582   4.024 -0.0155 -0.4350 -1.9390
 4432TIP3   OH213301   4.391   1.400   3.653 -0.1256  0.3613 -0.0492
 4432TIP3    H113302   4.320   1.337   3.666  0.0500  0.5807  2.5436
 4432TIP3    H213303   4.355   1.483   3.683  0.5633  0.9237 -0.7404
 4433TIP3   OH213304   5.754   3.003   0.413 -0.3223 -0.3984  0.3137
 4433TIP3    H113305   5.727   2.918   0.449 -0.4111 -0.5719 -0.1550
 4433TIP3    H213306   5.762   3.060   0.490 -3.2557  0.0315  0.4415
 4434TIP3   OH213307   1.240   4.450   4.611  0.2553 -0.3067 -0.4246
 4434TIP3    H113308   1.258   4.358   4.589 -0.1156 -0.3860 -0.4119
 4434TIP3    H213309   1.316   4.498   4.578  0.9907 -0.7528  0.5962
 4435TIP3   OH213310   0.730   0.483   2.427 -0.0254  0.3417 -0.0379
 4435TIP3    H113311   0.658   0.546   2.424 -0.9203 -0.5901  0.7674
 4435TIP3    H213312   0.798   0.526   2.478  0.7350  1.9320 -2.2699
 4436TIP3   OH213313   2.903   5.265   3.233  0.1373  0.3178  0.0705
 4436TIP3    H113314   2.933   5.340   3.180  0.6638  0.2897  0.3209
 4436TIP3    H213315   2.827   5.299   3.281 -0.5762  0.2318 -0.9767
 4437TIP3   OH213316   6.301   5.516   2.102  0.1919 -0.5760 -0.1463
 4437TIP3    H113317   6.316   5.425   2.127 -0.8449 -0.6430  0.2818
 4437TIP3    H213318   6.350   5.567   2.166  0.9215 -0.8297 -0.4941
 4438TIP3   OH213319   5.497   2.308   5.087  0.2443 -0.2206 -0.4651
 4438TIP3    H113320   5.590   2.291   5.072  0.1725 -0.0078 -1.2120
 4438TIP3    H213321   5.468   2.356   5.009  0.2128  2.4940  1.0856
 4439TIP3   OH213322   2.979   0.986   2.568 -0.5964  0.3859 -0.2875
 4439TIP3    H113323   3.054   1.024   2.522 -1.5084  2.8737  0.1478
 4439TIP3    H213324   2.933   0.936   2.501 -0.6082  1.9915 -1.5251
 4440TIP3   OH213325   4.527   5.789   4.006 -0.5922  0.3515 -0.1984
 4440TIP3    H113326   4.572   5.842   3.940  0.1148  1.3479  1.0500
 4440TIP3    H213327   4.450   5.841   4.029 -0.2447  0.5451  0.5562
 4441TIP3   OH213328   5.767   5.864   3.624  0.2242  0.2233  0.5292
 4441TIP3    H113329   5.793   5.857   3.532 -1.3296  0.8667  0.0025
 4441TIP3    H213330   5.671   5.872   3.621  0.3162  4.1198  1.8880
 4442TIP3   OH213331   0.207   0.321   1.204 -0.5380  0.0625 -0.0465
 4442TIP3    H113332   0.235   0.410   1.229 -3.3652  0.6097  1.5980
 4442TIP3    H213333   0.215   0.270   1.285  3.5288 -2.0936 -1.4976
 4443TIP3   OH213334   4.466   1.257   3.893 -0.1413 -0.0440 -0.3041
 4443TIP3    H113335   4.474   1.306   3.811  3.5164  1.9032  0.9854
 4443TIP3    H213336   4.484   1.321   3.961  2.8099 -2.6603  1.6349
 4444TIP3   OH213337   0.631   4.902   1.956  0.5768 -0.0136 -0.4555
 4444TIP3    H113338   0.582   4.882   1.876 -0.4991 -1.4421  0.5058
 4444TIP3    H213339   0.716   4.861   1.943  0.3371 -0.4135 -0.7845
 4445TIP3   OH213340   1.689   4.386   0.340 -0.1047  0.0857  0.0643
 4445TIP3    H113341   1.667   4.478   0.331 -0.9253 -0.0888  0.1118
 4445TIP3    H213342   1.739   4.381   0.421  0.5921  0.5854 -0.3286
 4446TIP3   OH213343   2.358   2.099   3.005 -0.3210 -0.1056  0.1207
 4446TIP3    H113344   2.413   2.104   3.084 -1.2056 -0.2383  0.7613
 4446TIP3    H213345   2.419   2.114   2.933  0.2198  1.9297  0.9148
 4447TIP3   OH213346   2.547   0.974   3.400 -0.1312  0.0836 -0.1461
 4447TIP3    H113347   2.591   0.983   3.315  1.1902  1.4026  0.6300
 4447TIP3    H213348   2.611   1.006   3.464 -1.3535 -0.2191  1.2945
 4448TIP3   OH213349   2.835   1.312   0.757  0.5262 -0.3947 -0.9013
 4448TIP3    H113350   2.858   1.220   0.772  2.0567  0.0253 -0.4248
 4448TIP3    H213351   2.920   1.356   0.745 -0.1283  1.0646 -0.4469
 4449TIP3   OH213352   4.677   2.169   0.272 -0.0809 -0.3930  0.0682
 4449TIP3    H113353   4.637   2.101   0.327 -1.4702 -0.6298 -1.1701
 4449TIP3    H213354   4.765   2.179   0.307  0.1580 -2.7898  0.3686
 4450TIP3   OH213355   5.187   0.546   0.039 -0.2109 -0.1448 -0.3559
 4450TIP3    H113356   5.147   0.522   0.123 -1.0535 -0.7414 -0.8995
 4450TIP3    H213357   5.278   0.518   0.047  0.0329  0.9139  0.7912
 4451TIP3   OH213358   3.643   0.236   3.953  0.5097 -0.9341  0.1835
 4451TIP3    H113359   3.569   0.208   4.007  1.9687 -1.0246  2.2743
 4451TIP3    H213360   3.623   0.327   3.932 -0.1034 -0.8829  0.9096
 4452TIP3   OH213361   3.125   5.635   2.355  0.1487  0.0603  0.1509
 4452TIP3    H113362   3.047   5.654   2.303 -1.1178  0.2985  2.0454
 4452TIP3    H213363   3.165   5.559   2.311 -1.4085 -0.3712 -0.5915
 4453TIP3   OH213364   1.387   5.661   3.093  0.7236  0.2408  0.4699
 4453TIP3    H113365   1.384   5.747   3.136  2.4386  0.5220  0.1129
 4453TIP3    H213366   1.460   5.617   3.134  1.2533 -0.1873 -0.8802
 4454TIP3   OH213367   3.271   3.486   1.479 -0.1285 -0.0855  0.3108
 4454TIP3    H113368   3.236   3.500   1.391 -0.2205 -0.1241  0.3408
 4454TIP3    H213369   3.344   3.548   1.486 -0.8174  0.7080  0.6029
 4455TIP3   OH213370   2.748   2.993   0.190 -0.1152  0.1647 -0.4129
 4455TIP3    H113371   2.799   2.984   0.270 -0.1499  0.5491 -0.3478
 4455TIP3    H213372   2.726   2.903   0.165 -0.2557  0.0552  0.1093
 4456TIP3   OH213373   5.963   4.167   0.734  0.5497 -0.6414  0.8632
 4456TIP3    H113374   6.018   4.172   0.656  0.1713  0.1055  0.6316
 4456TIP3    H213375   6.023   4.147   0.806  0.5563 -4.3662 -0.0082
 4457TIP3   OH213376   1.200   4.645   3.134  0.4367 -0.2286 -0.4310
 4457TIP3    H113377   1.128   4.672   3.078  0.8271 -0.8564 -1.2574
 4457TIP3    H213378   1.219   4.555   3.106  1.8036  0.0681 -0.4988
 4458TIP3   OH213379   2.089   4.708   1.499  0.1256 -0.3278  0.7088
 4458TIP3    H113380   2.132   4.624   1.513 -0.9710 -1.0192  0.0750
 4458TIP3    H213381   2.107   4.729   1.407 -0.9865 -0.7153  0.3808
 4459TIP3   OH213382   2.076   4.605   5.111 -0.1046  0.0780 -0.1777
 4459TIP3    H113383   1.983   4.588   5.124 -0.2087  1.6382  1.5697
 4459TIP3    H213384   2.092   4.583   5.020 -2.2752  0.1261 -0.6219
 4460TIP3   OH213385   6.262   5.048   1.426  0.4061  0.6184 -0.0265
 4460TIP3    H113386   6.318   5.125   1.430  0.0056  0.9148 -0.0978
 4460TIP3    H213387   6.183   5.078   1.382 -0.3976  0.5800  1.3202
 4461TIP3   OH213388   2.031   4.221   4.202 -0.1132 -0.1600  0.2613
 4461TIP3    H113389   1.990   4.282   4.141  0.2921 -0.1740 -0.0232
 4461TIP3    H213390   2.066   4.277   4.272  2.2218  0.1746 -1.0883
 4462TIP3   OH213391   0.078   5.914   2.871  0.3756 -0.3357  0.7113
 4462TIP3    H113392   0.009   5.867   2.917 -0.0815 -0.8444 -0.4429
 4462TIP3    H213393   0.125   5.847   2.821  1.4728  0.0607  1.1764
 4463TIP3   OH213394   5.095   3.257   2.189  0.1224 -0.3843 -0.1298
 4463TIP3    H113395   5.060   3.294   2.270  0.1221 -0.6061 -0.0276
 4463TIP3    H213396   5.103   3.163   2.207 -2.6740 -0.9575 -1.3484
 4464TIP3   OH213397   2.712   0.651   3.364 -0.6748 -0.0927  0.2367
 4464TIP3    H113398   2.726   0.693   3.448 -0.9053  0.0111  0.2233
 4464TIP3    H213399   2.740   0.716   3.299 -1.3621  0.1751  0.2048
 4465TIP3   OH213400   2.341   0.327   4.209 -0.3193  0.3566  0.2283
 4465TIP3    H113401   2.378   0.376   4.283 -0.3446  0.9057 -0.1181
 4465TIP3    H213402   2.250   0.356   4.204 -0.6891 -0.6334  0.7728
 4466TIP3   OH213403   4.871   1.963   0.964  0.0220 -0.2282 -0.0128
 4466TIP3    H113404   4.840   2.026   1.029  0.0695  0.2509 -0.4520
 4466TIP3    H213405   4.960   1.991   0.943  0.6010 -1.3015  0.8675
 4467TIP3   OH213406   0.141   3.787   0.148 -0.4537  0.0063 -0.2215
 4467TIP3    H113407   0.194   3.734   0.208 -2.2565 -1.1006  0.4683
 4467TIP3    H213408   0.169   3.877   0.165  1.1411 -0.5214  0.1461
 4468TIP3   OH213409   1.374   2.676   0.737  0.0750  0.2236  0.2121
 4468TIP3    H113410   1.318   2.601   0.715  1.0814 -0.1431 -1.2318
 4468TIP3    H213411   1.319   2.732   0.791 -1.9695  0.2769 -1.7845
 4469TIP3   OH213412   3.342   0.975   2.200  0.4947 -0.0558 -0.1699
 4469TIP3    H113413   3.372   0.897   2.153  0.6235 -0.5334  0.6829
 4469TIP3    H213414   3.397   1.046   2.167  0.5843 -0.3850 -0.7325
 4470TIP3   OH213415   0.783   2.848   2.283  0.1273  0.3975 -0.0274
 4470TIP3    H113416   0.812   2.756   2.282 -0.5819  0.1472  0.8187
 4470TIP3    H213417   0.858   2.897   2.316  0.2396  0.0026  0.3136
 4471TIP3   OH213418   0.703   1.171   0.078 -0.2418  0.5568 -0.1304
 4471TIP3    H113419   0.649   1.094   0.095  1.2714 -0.7506 -1.0902
 4471TIP3    H213420   0.689   1.227   0.155  0.6298 -1.8315  1.8950
 4472TIP3   OH213421   5.237   3.336   0.538  0.3041  0.5357  0.0619
 4472TIP3    H113422   5.295   3.404   0.572 -0.3691 -0.4185  3.4486
 4472TIP3    H213423   5.149   3.373   0.545  0.1765  0.8514 -2.2513
 4473TIP3   OH213424   3.032   4.056   1.296 -0.2092 -0.2448 -0.1954
 4473TIP3    H113425   3.111   4.074   1.348 -0.7745  0.1928  0.5386
 4473TIP3    H213426   3.054   4.086   1.208 -0.6750  3.1681  0.7030
 4474TIP3   OH213427   2.399   0.751   3.425  0.3026  0.1344 -0.0647
 4474TIP3    H113428   2.467   0.813   3.401  0.5260 -0.8006 -2.0733
 4474TIP3    H213429   2.444   0.666   3.429 -0.7937 -0.6487 -2.2768
 4475TIP3   OH213430   2.120   0.678   2.602  0.5331  0.1080  0.0942
 4475TIP3    H113431   2.102   0.630   2.683 -1.2018 -0.4198 -0.5617
 4475TIP3    H213432   2.216   0.680   2.596  0.6913 -2.6970  0.5011
 4476TIP3   OH213433   1.192   5.107   4.939 -0.2588 -0.2886 -0.4839
 4476TIP3    H113434   1.173   5.116   4.846 -2.4114  0.8435  0.0116
 4476TIP3    H213435   1.214   5.195   4.969  0.1493 -0.5901  0.1287
 4477TIP3   OH213436   2.713   3.624   1.630  0.1926 -0.1604  0.4557
 4477TIP3    H113437   2.743   3.555   1.690 -2.6489 -0.4115  1.7434
 4477TIP3    H213438   2.716   3.583   1.543  0.3986 -1.2356  0.9465
 4478TIP3   OH213439   2.419   4.341   4.133  0.0753  0.2640 -0.1994
 4478TIP3    H113440   2.440   4.407   4.068  3.0625  1.2279  1.5645
 4478TIP3    H213441   2.406   4.260   4.083 -0.6264  1.5009 -2.1377
 4479TIP3   OH213442   5.722   3.762   4.616  0.5678 -0.0127 -0.3097
 4479TIP3    H113443   5.702   3.695   4.550  1.5638 -1.7312  1.0174
 4479TIP3    H213444   5.785   3.719   4.674 -0.4550  1.3183  1.9030
 4480TIP3   OH213445   5.501   4.109   1.070  0.4714 -0.1471 -0.4733
 4480TIP3    H113446   5.471   4.197   1.049  1.2156  0.0020 -0.9485
 4480TIP3    H213447   5.558   4.120   1.146 -0.1832 -0.3457  0.0483
 4481TIP3   OH213448   4.201   2.249   1.427 -0.0960 -0.0825  0.0515
 4481TIP3    H113449   4.182   2.251   1.334 -0.1423 -1.6999  0.0013
 4481TIP3    H213450   4.279   2.195   1.435  0.4185  0.7430  0.8893
 4482TIP3   OH213451   0.777   1.797   4.167 -0.0558 -0.5998  0.9017
 4482TIP3    H113452   0.740   1.836   4.246 -2.9011 -0.7792 -0.2335
 4482TIP3    H213453   0.772   1.866   4.101  1.2331 -0.8017  0.5685
 4483TIP3   OH213454   0.334   4.612   2.202  0.1061 -0.3646 -0.3120
 4483TIP3    H113455   0.410   4.670   2.195  1.7809 -2.3441  0.3108
 4483TIP3    H213456   0.348   4.545   2.135 -2.8895  0.9800 -2.5209
 4484TIP3   OH213457   0.112   2.015   2.791 -0.2619 -0.3208 -0.3365
 4484TIP3    H113458   0.187   2.049   2.840 -0.8955 -1.8896  1.9288
 4484TIP3    H213459   0.145   2.000   2.703  1.8644 -0.2071  0.3760
 4485TIP3   OH213460   5.403   5.015   4.576 -0.6089 -0.0285 -0.2202
 4485TIP3    H113461   5.332   4.962   4.614 -1.0882  0.2592 -0.7092
 4485TIP3    H213462   5.481   4.985   4.622 -0.7220 -1.7951 -1.0727
 4486TIP3   OH213463   4.414   0.978   1.322  0.2129 -0.2214  0.0802
 4486TIP3    H113464   4.329   1.018   1.308 -1.2425 -2.3175  2.1739
 4486TIP3    H213465   4.439   0.943   1.237 -0.1458  1.8801 -0.9505
 4487TIP3   OH213466   3.681   3.663   2.652  0.2941 -0.5437 -0.6852
 4487TIP3    H113467   3.722   3.577   2.647  0.0898 -0.8426  1.6303
 4487TIP3    H213468   3.752   3.723   2.674 -0.0050 -0.6121  0.5411
 4488TIP3   OH213469   2.362   0.511   1.494  0.4407  0.2126 -0.0326
 4488TIP3    H113470   2.283   0.458   1.492  0.9493 -0.5411 -1.3543
 4488TIP3    H213471   2.433   0.450   1.514  0.7820  0.7586  0.4778
 4489TIP3   OH213472   4.207   4.362   4.706 -0.1948  0.1352 -0.3353
 4489TIP3    H113473   4.209   4.455   4.682 -1.6381  0.1360 -0.4944
 4489TIP3    H213474   4.290   4.347   4.751  0.6149  1.2054 -1.4066
 4490TIP3   OH213475   3.028   2.845   3.860 -0.3162  0.3169 -0.0607
 4490TIP3    H113476   3.105   2.886   3.821 -1.2583  1.8654 -0.4164
 4490TIP3    H213477   3.061   2.801   3.938  0.8091  1.7821  0.3520
 4491TIP3   OH213478   0.159   2.680   2.426  0.0672 -0.0033  0.1119
 4491TIP3    H113479   0.207   2.601   2.450 -3.1468 -2.2331 -0.1190
 4491TIP3    H213480   0.197   2.707   2.343  3.2437  0.6065  1.6110
 4492TIP3   OH213481   3.929   5.229   0.388 -0.1034  0.1557 -0.3477
 4492TIP3    H113482   3.833   5.230   0.381 -0.0549 -1.0335 -1.8889
 4492TIP3    H213483   3.947   5.168   0.459 -0.4916  0.5741  0.1161
 4493TIP3   OH213484   5.085   5.926   1.317  0.4116  0.0919 -0.8237
 4493TIP3    H113485   5.151   5.884   1.371 -0.8924 -0.6513  0.2633
 4493TIP3    H213486   5.109   6.019   1.316  1.9474 -0.2862 -1.2161
 4494TIP3   OH213487   1.357   1.746   3.741 -0.3182 -0.1779  0.0747
 4494TIP3    H113488   1.386   1.813   3.680 -3.7523  0.6408 -0.9071
 4494TIP3    H213489   1.353   1.666   3.689 -1.3135  0.0792 -0.2676
 4495TIP3   OH213490   5.599   5.898   0.660  0.1154 -0.6842  0.1560
 4495TIP3    H113491   5.625   5.953   0.734 -2.9989  1.0774  0.0999
 4495TIP3    H213492   5.597   5.957   0.585  1.4389 -2.0443 -1.0222
 4496TIP3   OH213493   2.137   2.867   3.065 -0.1177  0.4763  0.0528
 4496TIP3    H113494   2.115   2.779   3.035  2.0032  0.3169 -1.1786
 4496TIP3    H213495   2.055   2.916   3.057 -0.5724 -0.5396 -2.4177
 4497TIP3   OH213496   4.861   1.583   0.464 -0.0522 -0.3020 -0.7078
 4497TIP3    H113497   4.888   1.494   0.487 -1.7086 -0.4436  0.8833
 4497TIP3    H213498   4.943   1.629   0.447  0.9020 -1.8537 -0.4799
 4498TIP3   OH213499   3.529   1.942   1.517 -0.3163 -0.0947  0.1891
 4498TIP3    H113500   3.600   1.945   1.581  2.3239 -0.3249 -2.5299
 4498TIP3    H213501   3.554   2.006   1.450 -2.2120 -0.8808 -1.3588
 4499TIP3   OH213502   0.157   4.680   4.744  0.4030 -0.1532  0.3474
 4499TIP3    H113503   0.095   4.752   4.749  1.4338  0.8565 -0.5975
 4499TIP3    H213504   0.229   4.706   4.802 -0.6303 -1.9987  2.6337
 4500TIP3   OH213505   1.070   4.761   2.138  0.3396 -0.0756  0.3204
 4500TIP3    H113506   1.014   4.777   2.214 -1.5727 -0.8009 -0.8734
 4500TIP3    H213507   1.152   4.728   2.176 -1.1383 -2.0754  2.0324
 4501TIP3   OH213508   2.570   2.778   1.318 -0.0117 -0.5234  0.4069
 4501TIP3    H113509   2.601   2.869   1.312 -1.0479 -0.2456 -1.6325
 4501TIP3    H213510   2.495   2.783   1.378  0.3774 -0.1879  0.8821
 4502TIP3   OH213511   3.168   5.183   0.259  0.7992 -0.4815 -0.1733
 4502TIP3    H113512   3.160   5.128   0.182  0.7018 -0.8058  0.0677
 4502TIP3    H213513   3.198   5.268   0.225  0.6731 -0.5956 -0.5733
 4503TIP3   OH213514   0.794   3.319   3.439 -0.4770 -0.3015 -0.2602
 4503TIP3    H113515   0.804   3.409   3.408 -0.1953 -0.9971 -2.3501
 4503TIP3    H213516   0.780   3.268   3.360 -3.3641 -1.7700  1.0570
 4504TIP3   OH213517   3.831   5.021   2.870  0.3480  0.0772 -0.5204
 4504TIP3    H113518   3.926   5.025   2.875  0.2748  1.1680  0.6351
 4504TIP3    H213519   3.804   4.978   2.952 -0.1237 -0.7637 -1.1098
 4505TIP3   OH213520   2.116   4.334   2.165  0.3513  0.0559 -0.0902
 4505TIP3    H113521   2.089   4.414   2.120  1.5752  0.9670  0.7047
 4505TIP3    H213522   2.101   4.264   2.102  0.2883  1.0555 -1.2131
 4506TIP3   OH213523   1.699   3.420   4.457 -0.2579 -0.5648  0.1592
 4506TIP3    H113524   1.780   3.443   4.502 -0.5552  0.9478 -0.0048
 4506TIP3    H213525   1.634   3.478   4.496 -1.5039 -2.4040  0.9811
 4507TIP3   OH213526   5.104   4.219   4.340 -0.3588  0.0189 -0.0748
 4507TIP3    H113527   5.131   4.160   4.270 -0.4508  0.1812 -0.2474
 4507TIP3    H213528   5.180   4.225   4.398 -0.8552 -1.4806  0.7736
 4508TIP3   OH213529   4.316   5.521   5.058  0.1685  0.2510  0.1588
 4508TIP3    H113530   4.307   5.426   5.065  0.4379 -0.1897 -3.4483
 4508TIP3    H213531   4.408   5.539   5.078  0.6359 -0.5872 -1.1206
 4509TIP3   OH213532   2.099   5.902   2.634 -0.0037  0.0791 -0.3739
 4509TIP3    H113533   2.150   5.942   2.563 -1.9563 -0.4108 -2.1223
 4509TIP3    H213534   2.098   5.969   2.703  2.1674  0.4572 -0.6261
 4510TIP3   OH213535   0.981   4.028   2.214 -0.4612 -0.2223  0.1743
 4510TIP3    H113536   0.912   3.985   2.265 -0.0804  1.5446  2.3558
 4510TIP3    H213537   1.058   4.026   2.272  0.2561  1.0959 -0.6954
 4511TIP3   OH213538   6.278   2.622   2.937  0.2992  0.1365 -0.8382
 4511TIP3    H113539   6.322   2.558   2.880  1.1730  0.9413 -1.0974
 4511TIP3    H213540   6.305   2.597   3.025 -2.4115 -2.1724 -0.5145
 4512TIP3   OH213541   4.867   4.208   3.929  0.4754 -0.0640 -0.3017
 4512TIP3    H113542   4.893   4.140   3.992  0.1443  2.0145  2.2392
 4512TIP3    H213543   4.771   4.213   3.938  0.4392  0.3492 -0.8865
 4513TIP3   OH213544   0.715   1.599   0.332  0.6393 -0.2876 -0.2799
 4513TIP3    H113545   0.628   1.634   0.312  0.5335 -1.1371 -1.4324
 4513TIP3    H213546   0.775   1.672   0.316  0.2627 -0.1254 -1.0045
 4514TIP3   OH213547   4.710   0.282   4.003 -0.5617 -0.1090  0.5657
 4514TIP3    H113548   4.763   0.215   4.046  0.0208 -0.5646 -0.8206
 4514TIP3    H213549   4.729   0.272   3.910 -1.4528  1.1438  0.2240
 4515TIP3   OH213550   2.634   0.856   2.657 -0.8812  0.0434  0.2263
 4515TIP3    H113551   2.645   0.766   2.627 -0.2657  0.4018 -0.6767
 4515TIP3    H213552   2.613   0.848   2.750  0.6070 -0.9893  0.5057
 4516TIP3   OH213553   0.838   1.902   4.973  0.1284 -0.3665  0.2447
 4516TIP3    H113554   0.781   1.946   5.037 -1.5205 -0.5187 -1.0595
 4516TIP3    H213555   0.853   1.815   5.010  0.0481 -0.1061  0.9056
 4517TIP3   OH213556   3.392   2.800   1.898  0.2485  0.3705  0.2759
 4517TIP3    H113557   3.376   2.888   1.864  0.1466  0.8056  1.4042
 4517TIP3    H213558   3.374   2.807   1.991  1.5936 -0.5062  0.6310
 4518TIP3   OH213559   3.843   0.884   3.458 -0.1705 -0.0286  0.0894
 4518TIP3    H113560   3.828   0.892   3.364  0.6420  0.3711 -0.0188
 4518TIP3    H213561   3.853   0.790   3.473  0.4661 -0.0415 -0.3587
 4519TIP3   OH213562   4.329   0.257   3.352 -0.0991 -0.4090  0.6382
 4519TIP3    H113563   4.377   0.273   3.270 -0.5961 -1.2744  0.1674
 4519TIP3    H213564   4.283   0.339   3.369 -0.6593 -0.4846 -0.4192
 4520TIP3   OH213565   5.429   2.695   4.130 -0.0665 -0.4007  0.1654
 4520TIP3    H113566   5.505   2.637   4.124  0.5815  0.4238  0.2216
 4520TIP3    H213567   5.424   2.717   4.223 -1.0731 -1.3506  0.3524
 4521TIP3   OH213568   2.606   4.253   3.395  0.5794  1.0055  0.1553
 4521TIP3    H113569   2.590   4.347   3.397 -0.2292  1.0853 -3.2051
 4521TIP3    H213570   2.700   4.245   3.376  1.0618  1.0215  2.3397
 4522TIP3   OH213571   4.601   5.894   0.259 -0.3766  0.3683 -0.2415
 4522TIP3    H113572   4.640   5.820   0.306  0.5175 -0.3958 -2.0834
 4522TIP3    H213573   4.614   5.969   0.317  3.1142  0.0057 -0.3411
 4523TIP3   OH213574   5.375   4.734   0.951 -0.5306 -0.0917  0.4422
 4523TIP3    H113575   5.416   4.731   0.864 -0.6469 -2.3426  0.4181
 4523TIP3    H213576   5.448   4.753   1.010 -0.4178  1.2754 -0.0922
 4524TIP3   OH213577   4.710   1.621   2.536  0.0919 -0.5279 -0.1860
 4524TIP3    H113578   4.706   1.607   2.630 -0.0048 -1.5423 -0.3213
 4524TIP3    H213579   4.802   1.639   2.518 -0.2558  2.3228  0.3996
 4525TIP3   OH213580   1.866   3.630   3.478  0.4598  0.1520 -0.6702
 4525TIP3    H113581   1.793   3.649   3.537  0.0542  0.5174 -1.2748
 4525TIP3    H213582   1.929   3.582   3.532 -0.2510 -0.2167 -0.1614
 4526TIP3   OH213583   1.769   1.312   3.835  0.1521  0.4553 -0.1557
 4526TIP3    H113584   1.835   1.370   3.797  0.3524 -1.4414 -2.9607
 4526TIP3    H213585   1.686   1.345   3.802  0.3470 -1.3662 -2.7389
 4527TIP3   OH213586   5.390   3.991   3.549  0.3098 -0.3733 -0.5541
 4527TIP3    H113587   5.454   4.010   3.618 -1.4806  1.9280  0.6248
 4527TIP3    H213588   5.428   4.029   3.470  0.7655  0.2581 -0.0463
 4528TIP3   OH213589   4.034   0.366   5.136  0.4265 -0.0588 -0.2310
 4528TIP3    H113590   3.941   0.389   5.131  0.6168  0.4726 -1.7532
 4528TIP3    H213591   4.076   0.442   5.175  0.3930  0.2092 -0.7177
 4529TIP3   OH213592   2.100   4.592   4.575  0.3053  0.6640  0.5183
 4529TIP3    H113593   2.161   4.629   4.512 -0.4560  1.1795  0.0681
 4529TIP3    H213594   2.016   4.590   4.529 -0.2403  0.9490  1.4745
 4530TIP3   OH213595   0.992   2.474   3.418  0.2300 -0.7088 -0.6793
 4530TIP3    H113596   0.902   2.448   3.435 -0.0304 -0.6262 -1.8372
 4530TIP3    H213597   1.042   2.392   3.418  0.2764 -0.6868  0.6232
 4531TIP3   OH213598   4.253   4.985   1.281  0.3876 -0.8240 -0.2264
 4531TIP3    H113599   4.294   4.987   1.367 -0.9526 -2.5201  0.5335
 4531TIP3    H213600   4.167   4.946   1.297 -0.8011  0.8654 -2.0072
 4532TIP3   OH213601   0.208   2.993   1.229  0.2531 -0.2807 -0.0536
 4532TIP3    H113602   0.272   2.928   1.257  1.4753  0.1106 -1.7641
 4532TIP3    H213603   0.199   3.052   1.304  1.7274 -0.4711  0.3040
 4533TIP3   OH213604   5.127   2.172   0.200 -0.3838 -0.2910  0.0415
 4533TIP3    H113605   5.208   2.141   0.240  0.8519  0.6888 -1.5737
 4533TIP3    H213606   5.131   2.267   0.210 -2.4621 -0.3121  1.9055
 4534TIP3   OH213607   0.544   2.867   3.417 -0.0633 -0.1170  0.3137
 4534TIP3    H113608   0.479   2.799   3.436 -1.1611  0.4965 -1.0152
 4534TIP3    H213609   0.515   2.942   3.470 -0.9783  0.4225 -0.8945
 4535TIP3   OH213610   2.603   0.598   1.994 -0.8568  0.2164 -0.1272
 4535TIP3    H113611   2.672   0.535   1.977  0.4596  1.6767 -0.4054
 4535TIP3    H213612   2.646   0.668   2.044 -2.1119  1.1757 -0.3316
 4536TIP3   OH213613   5.915   2.667   5.168  0.0280  0.0275  0.2240
 4536TIP3    H113614   5.825   2.687   5.139  1.0573 -0.0742 -3.5059
 4536TIP3    H213615   5.954   2.753   5.183 -0.4874  0.0819  1.4345
 4537TIP3   OH213616   4.673   4.824   4.774  0.5725  0.3314  0.8956
 4537TIP3    H113617   4.624   4.793   4.850 -1.3360  0.0821 -0.3772
 4537TIP3    H213618   4.642   4.770   4.701  1.9521  0.9281 -0.1915
 4538TIP3   OH213619   5.187   4.775   3.198  0.3127 -0.4431  0.0577
 4538TIP3    H113620   5.243   4.702   3.171 -0.2789 -0.5595 -0.8818
 4538TIP3    H213621   5.098   4.747   3.178  0.1492  0.9951 -1.4936
 4539TIP3   OH213622   2.942   2.716   4.904 -0.1656  0.2650  0.2614
 4539TIP3    H113623   2.988   2.727   4.821  0.0166  0.2083  0.3540
 4539TIP3    H213624   2.980   2.781   4.962 -0.2092  0.2248  0.3359
 4540TIP3   OH213625   5.918   0.079   1.826 -0.5838  0.3902 -0.3106
 4540TIP3    H113626   5.834   0.033   1.825 -0.9413  1.0069  0.1456
 4540TIP3    H213627   5.904   0.153   1.886  0.2448  0.5750 -0.3302
 4541TIP3   OH213628   1.681   4.895   4.205 -0.0217 -0.5226 -0.3412
 4541TIP3    H113629   1.753   4.955   4.185  0.7495 -1.2899  0.0179
 4541TIP3    H213630   1.633   4.938   4.276 -0.1382  0.1646 -0.8322
 4542TIP3   OH213631   3.150   4.569   4.179 -0.1298 -0.1261 -0.4517
 4542TIP3    H113632   3.073   4.617   4.150 -1.4413 -1.8587 -0.0212
 4542TIP3    H213633   3.136   4.479   4.149  0.3284 -1.1324  2.0271
 4543TIP3   OH213634   6.064   5.815   1.297 -0.2063 -0.5842 -0.1328
 4543TIP3    H113635   6.029   5.739   1.343  1.3107 -0.9324  0.5020
 4543TIP3    H213636   6.114   5.862   1.364  0.5285 -0.1181 -0.9926
 4544TIP3   OH213637   4.524   0.532   3.733  0.0909  0.4207  0.1761
 4544TIP3    H113638   4.564   0.451   3.703  0.8179  0.6024  0.6065
 4544TIP3    H213639   4.597   0.582   3.770 -0.6333  0.4729  1.6310
 4545TIP3   OH213640   4.096   0.310   2.968  0.1357 -0.3195  0.1688
 4545TIP3    H113641   4.133   0.398   2.966 -1.1809  0.2482 -2.1239
 4545TIP3    H213642   4.028   0.314   3.036 -0.2736  0.5985 -0.2810
 4546TIP3   OH213643   3.579   2.861   4.101  0.8758 -0.1901  0.0710
 4546TIP3    H113644   3.645   2.929   4.117  0.5802  0.4756 -1.4079
 4546TIP3    H213645   3.591   2.837   4.009 -1.2737  0.3184 -0.3904
 4547TIP3   OH213646   3.887   5.722   2.833  0.0432  0.9037  0.1462
 4547TIP3    H113647   3.959   5.677   2.788 -0.2174  0.4203  0.2023
 4547TIP3    H213648   3.882   5.679   2.918  0.0603  1.3272  0.3653
 4548TIP3   OH213649   1.941   1.399   1.397 -0.8233 -0.1257 -0.0797
 4548TIP3    H113650   1.966   1.322   1.449  0.6866 -0.0417 -0.6322
 4548TIP3    H213651   1.923   1.364   1.310  1.0043  0.2334 -0.6486
 4549TIP3   OH213652   5.897   4.430   1.974  0.4193 -0.7074  0.6539
 4549TIP3    H113653   5.988   4.417   1.946  0.2195 -0.3149 -0.1974
 4549TIP3    H213654   5.845   4.409   1.897  0.0041  3.9435 -0.5975
 4550TIP3   OH213655   5.168   0.479   2.095 -0.0687  0.1849 -0.2818
 4550TIP3    H113656   5.107   0.550   2.115  0.2796 -0.2385  2.5950
 4550TIP3    H213657   5.132   0.402   2.139  0.6103 -0.9894 -1.6755
 4551TIP3   OH213658   5.377   4.530   4.868 -0.1530 -0.2115 -0.5328
 4551TIP3    H113659   5.412   4.615   4.896 -0.7043  0.0088 -0.4962
 4551TIP3    H213660   5.455   4.477   4.850  0.2174  0.6682 -1.6695
 4552TIP3   OH213661   4.298   3.772   3.219 -0.4658 -0.5656  0.1331
 4552TIP3    H113662   4.270   3.864   3.224  1.7338  0.1818 -0.1524
 4552TIP3    H213663   4.348   3.766   3.137 -0.1181 -1.8733  0.4087
 4553TIP3   OH213664   0.821   4.875   3.358 -0.2487 -0.7631  0.0697
 4553TIP3    H113665   0.874   4.902   3.433 -0.4944 -0.6549  0.2039
 4553TIP3    H213666   0.882   4.876   3.285  0.0988 -1.2995  0.3483
 4554TIP3   OH213667   2.746   5.684   4.426  0.3217  0.1752  0.1624
 4554TIP3    H113668   2.819   5.622   4.437 -0.9753 -1.3923  0.2841
 4554TIP3    H213669   2.679   5.654   4.487 -1.1855  0.3590 -1.3117
 4555TIP3   OH213670   3.269   2.586   1.777 -0.0841  0.0521  0.0431
 4555TIP3    H113671   3.306   2.666   1.814  2.3005 -0.6774 -0.6235
 4555TIP3    H213672   3.256   2.529   1.853 -0.0582  0.3947  0.3101
 4556TIP3   OH213673   5.235   1.877   3.874 -0.2063  0.1737 -0.2012
 4556TIP3    H113674   5.315   1.921   3.846  1.2767 -1.9710  0.4711
 4556TIP3    H213675   5.189   1.943   3.927  0.6128  1.7542 -1.3828
 4557TIP3   OH213676   3.805   3.651   1.535  0.0649 -0.1558 -0.3842
 4557TIP3    H113677   3.834   3.573   1.582 -0.1036 -1.6317 -2.5945
 4557TIP3    H213678   3.872   3.717   1.555  0.6835 -1.1128  0.8271
 4558TIP3   OH213679   2.017   5.131   1.678  0.4710 -0.1040  0.2350
 4558TIP3    H113680   2.097   5.097   1.717  0.2213 -0.3827  0.5125
 4558TIP3    H213681   2.045   5.209   1.630  1.0667 -0.7358 -0.4756
 4559TIP3   OH213682   2.399   2.174   1.431  0.1059 -0.4017 -0.0335
 4559TIP3    H113683   2.448   2.107   1.480 -0.0041 -0.4173  0.0567
 4559TIP3    H213684   2.465   2.238   1.405  0.1351 -0.2878  0.3151
 4560TIP3   OH213685   2.060   1.888   3.157 -0.0989 -0.7393 -0.0851
 4560TIP3    H113686   2.111   1.837   3.093 -1.6852 -2.3046 -0.1844
 4560TIP3    H213687   1.979   1.838   3.169 -2.7436  2.7036 -1.6724
 4561TIP3   OH213688   1.306   4.084   3.907  0.4744  0.3816  0.0583
 4561TIP3    H113689   1.232   4.139   3.933 -0.9542 -1.5618  0.3526
 4561TIP3    H213690   1.313   4.096   3.812 -1.3709 -0.6723 -0.2625
 4562TIP3   OH213691   4.131   2.029   3.028  0.0323  0.3468  0.4172
 4562TIP3    H113692   4.089   2.109   2.999 -1.6505 -0.8835 -0.6968
 4562TIP3    H213693   4.059   1.970   3.049  1.2296 -0.6794  1.8210
 4563TIP3   OH213694   4.665   0.873   1.663 -0.4375  0.0515  0.0927
 4563TIP3    H113695   4.653   0.968   1.667  2.0042  0.4857 -1.1210
 4563TIP3    H213696   4.621   0.847   1.581 -0.8436  0.1693  0.2713
 4564TIP3   OH213697   6.075   0.851   3.443 -0.3368 -0.0075 -0.2725
 4564TIP3    H113698   6.125   0.802   3.509 -1.4037  0.1956  0.7207
 4564TIP3    H213699   6.021   0.911   3.494  0.2651  1.5823 -1.4185
 4565TIP3   OH213700   2.808   3.597   2.336 -0.1712 -0.2334  0.1158
 4565TIP3    H113701   2.877   3.535   2.311 -1.5973 -1.0355 -2.1504
 4565TIP3    H213702   2.748   3.546   2.391  2.3495  1.2258  4.7283
 4566TIP3   OH213703   4.019   5.434   1.836  0.2383 -0.9310 -0.2325
 4566TIP3    H113704   3.971   5.475   1.764 -0.6972  0.8867  1.3390
 4566TIP3    H213705   3.951   5.411   1.900  1.2621  0.2369  1.3459
 4567TIP3   OH213706   4.791   1.269   5.124 -0.3313  0.1696  0.4583
 4567TIP3    H113707   4.742   1.283   5.204 -1.3564  1.6650 -0.3776
 4567TIP3    H213708   4.878   1.305   5.142 -1.0662  2.1334  0.4022
 4568TIP3   OH213709   0.086   4.108   2.438  0.6004  0.2930 -0.6459
 4568TIP3    H113710   0.050   4.058   2.365 -0.6028 -1.5851  1.1088
 4568TIP3    H213711   0.011   4.154   2.475  0.9227  0.2103  0.1411
 4569TIP3   OH213712   5.456   2.494   4.546 -0.0825 -0.2399 -0.0062
 4569TIP3    H113713   5.486   2.448   4.467  1.2903  1.2393 -0.3987
 4569TIP3    H213714   5.381   2.546   4.515 -0.8965 -1.2691  0.1778
 4570TIP3   OH213715   0.864   2.764   0.730  0.4453 -0.5353 -0.2028
 4570TIP3    H113716   0.769   2.755   0.738  0.6733 -2.2150  1.1343
 4570TIP3    H213717   0.898   2.677   0.751  2.3143  0.1185 -0.3457
 4571TIP3   OH213718   5.621   5.646   1.847  0.9040  0.6252  0.0507
 4571TIP3    H113719   5.682   5.575   1.828  1.3538  1.1545 -0.5124
 4571TIP3    H213720   5.632   5.708   1.775 -1.8008 -0.2301 -1.2512
 4572TIP3   OH213721   1.290   3.028   4.660 -0.4659  0.5348  0.0408
 4572TIP3    H113722   1.210   3.044   4.710 -0.7456 -1.3013  0.2429
 4572TIP3    H213723   1.266   2.962   4.595  1.3874 -1.8839  1.6536
 4573TIP3   OH213724   2.238   5.419   2.099  0.2055  0.9621  0.1979
 4573TIP3    H113725   2.218   5.506   2.066  1.0554  0.9418 -0.4025
 4573TIP3    H213726   2.225   5.425   2.194 -1.6181  1.1996 -0.0426
 4574TIP3   OH213727   2.634   2.639   3.732 -0.9998 -0.0797 -0.9775
 4574TIP3    H113728   2.621   2.547   3.707 -0.7841 -0.9098  1.6542
 4574TIP3    H213729   2.703   2.636   3.799 -2.0342  1.7895  0.2627
 4575TIP3   OH213730   5.080   0.281   4.259 -0.3893 -0.1656  0.3713
 4575TIP3    H113731   5.017   0.288   4.331 -1.7473  1.6111 -0.8874
 4575TIP3    H213732   5.056   0.199   4.214  0.7834 -1.5454  2.1377
 4576TIP3   OH213733   1.600   2.429   0.310  0.0057 -0.2035  0.4940
 4576TIP3    H113734   1.558   2.479   0.380 -0.5226 -0.0610  0.0848
 4576TIP3    H213735   1.693   2.454   0.315 -0.1648  0.4295  0.6180
 4577TIP3   OH213736   6.264   3.559   4.133 -0.3597 -0.1135  0.4615
 4577TIP3    H113737   6.261   3.464   4.123 -0.1368 -0.1361  0.6127
 4577TIP3    H213738   6.315   3.573   4.213 -1.1566  0.1039  0.9502
 4578TIP3   OH213739   3.613   2.622   1.762  0.4463 -0.4195  0.4502
 4578TIP3    H113740   3.521   2.647   1.759 -0.0200 -1.5790  2.7264
 4578TIP3    H213741   3.655   2.690   1.815  0.1114 -1.7233  2.5232
 4579TIP3   OH213742   3.978   2.725   1.517 -0.3602  0.4100 -0.4468
 4579TIP3    H113743   3.900   2.672   1.533 -1.1763  1.7508  0.1727
 4579TIP3    H213744   3.955   2.779   1.441 -0.2670  1.2364  0.1092
 4580TIP3   OH213745   3.511   4.322   1.564  0.2367  0.6112 -0.9021
 4580TIP3    H113746   3.436   4.369   1.602 -0.0156  0.0430 -0.6743
 4580TIP3    H213747   3.498   4.231   1.593  1.3979  0.6370 -0.2702
 4581TIP3   OH213748   3.290   2.807   2.165 -0.6886  0.1846  0.3338
 4581TIP3    H113749   3.287   2.714   2.144  1.6826 -0.4725  2.3036
 4581TIP3    H213750   3.319   2.809   2.257  0.0190  2.8457  0.1294
 4582TIP3   OH213751   2.699   3.742   4.877 -0.5011  0.1606  0.3754
 4582TIP3    H113752   2.614   3.698   4.875 -0.2418 -0.4178  1.1747
 4582TIP3    H213753   2.681   3.829   4.912 -0.6416 -0.3206  1.5742
 4583TIP3   OH213754   3.140   4.721   4.636 -0.1937  0.1444 -0.0903
 4583TIP3    H113755   3.069   4.752   4.579 -1.8237 -1.0402  1.2170
 4583TIP3    H213756   3.171   4.641   4.594 -1.6868 -0.9650  0.8528
 4584TIP3   OH213757   4.351   1.917   4.875 -0.0594 -0.4614 -0.2072
 4584TIP3    H113758   4.435   1.952   4.845 -0.1547 -0.6184 -0.6591
 4584TIP3    H213759   4.375   1.840   4.927  0.0972 -0.2544  0.0330
 4585TIP3   OH213760   4.146   0.667   2.165  0.0417  0.1421 -0.0230
 4585TIP3    H113761   4.069   0.612   2.150  0.7105 -0.3788 -1.8791
 4585TIP3    H213762   4.216   0.605   2.184 -0.1682  0.6688  2.7829
 4586TIP3   OH213763   3.980   2.214   2.446  0.3474 -0.2291 -0.0823
 4586TIP3    H113764   4.062   2.262   2.452 -0.9210  1.9243  3.2947
 4586TIP3    H213765   3.997   2.131   2.492  0.9836 -0.4321 -0.6758
 4587TIP3   OH213766   3.357   3.729   1.727  0.2798  0.1737 -0.0592
 4587TIP3    H113767   3.270   3.767   1.735 -0.8364 -2.3271  0.8504
 4587TIP3    H213768   3.391   3.725   1.817 -0.1936 -2.0030  0.0800
 4588TIP3   OH213769   1.778   1.697   3.192 -0.2751 -0.1456 -0.1947
 4588TIP3    H113770   1.697   1.647   3.190 -1.2097  0.9578  3.1186
 4588TIP3    H213771   1.753   1.786   3.166 -0.2438  0.2467  1.0316
 4589TIP3   OH213772   5.842   3.241   0.199 -0.5732  0.3772 -0.0722
 4589TIP3    H113773   5.866   3.270   0.111  0.3885 -0.1530  0.0013
 4589TIP3    H213774   5.886   3.303   0.257 -1.6911  1.0922  0.0543
 4590TIP3   OH213775   3.423   0.736   3.475  0.4577 -0.6580 -0.2318
 4590TIP3    H113776   3.481   0.719   3.549 -0.7411 -0.3115  0.8158
 4590TIP3    H213777   3.476   0.791   3.416  1.0030  0.1363  0.9620
 4591TIP3   OH213778   1.137   4.133   4.645  0.4013 -0.6081 -0.2209
 4591TIP3    H113779   1.171   4.056   4.691 -0.4283 -1.6574 -1.2985
 4591TIP3    H213780   1.124   4.103   4.555  2.5854  1.5457 -1.3976
 4592TIP3   OH213781   0.600   0.312   0.485  0.3953 -0.1162 -0.8496
 4592TIP3    H113782   0.512   0.311   0.447 -1.1233  2.1521  2.1969
 4592TIP3    H213783   0.638   0.395   0.455  0.5544  0.0210 -0.2807
 4593TIP3   OH213784   2.895   2.294   3.899 -0.3256  0.2488 -0.1705
 4593TIP3    H113785   2.811   2.273   3.859  0.8752  0.1025 -2.8138
 4593TIP3    H213786   2.934   2.359   3.840  2.6508 -1.8519 -0.7224
 4594TIP3   OH213787   5.039   1.576   1.504  0.4470  0.2565 -0.2411
 4594TIP3    H113788   5.060   1.533   1.421  0.1998  0.2048 -0.2760
 4594TIP3    H213789   4.967   1.525   1.540 -1.0014  1.6309 -1.0819
 4595TIP3   OH213790   3.377   2.428   4.098 -0.0246  0.0177  0.1167
 4595TIP3    H113791   3.318   2.369   4.144 -0.8386 -1.0799 -2.1928
 4595TIP3    H213792   3.453   2.437   4.156  0.5976 -4.0960  0.2324
 4596TIP3   OH213793   1.236   0.690   4.945 -0.2240 -0.4378 -0.3049
 4596TIP3    H113794   1.294   0.665   4.873 -2.5081 -1.7600 -1.8393
 4596TIP3    H213795   1.268   0.640   5.020 -0.0781 -2.1483 -1.4307
 4597TIP3   OH213796   2.761   2.874   4.629  0.1483  0.0664 -0.0421
 4597TIP3    H113797   2.726   2.874   4.540 -0.4077  0.2603  0.1721
 4597TIP3    H213798   2.745   2.786   4.661  0.6777 -0.1138 -0.2538
 4598TIP3   OH213799   6.073   2.502   4.607  0.5424  0.4619  0.3301
 4598TIP3    H113800   6.163   2.530   4.627  0.2439  1.1277  0.7842
 4598TIP3    H213801   6.026   2.513   4.689  0.2425 -0.7379  0.3275
 4599TIP3   OH213802   2.840   2.346   0.106 -0.2183 -0.3327  0.2895
 4599TIP3    H113803   2.929   2.344   0.073 -0.4823  2.1455 -0.8003
 4599TIP3    H213804   2.788   2.303   0.038 -0.0763 -0.1121  0.0410
 4600TIP3   OH213805   4.254   4.731   2.631  0.0493 -0.6535 -0.5574
 4600TIP3    H113806   4.208   4.678   2.566  0.9275 -0.0593 -1.6897
 4600TIP3    H213807   4.338   4.751   2.590  1.5088 -1.9947  1.5792
 4601TIP3   OH213808   1.036   3.300   2.295  0.3117  0.2187  0.0040
 4601TIP3    H113809   1.006   3.244   2.225  1.0149  0.7972 -0.7823
 4601TIP3    H213810   1.038   3.244   2.373 -2.0714 -0.0091 -0.0420
 4602TIP3   OH213811   5.009   1.190   3.399  0.3570 -0.2882 -0.0898
 4602TIP3    H113812   5.075   1.130   3.435 -1.3673 -1.5856  1.0339
 4602TIP3    H213813   5.028   1.274   3.442  0.6437 -0.8993  1.0178
 4603TIP3   OH213814   5.249   4.176   0.476  0.1063 -0.5081  0.0773
 4603TIP3    H113815   5.301   4.189   0.555  0.4354 -0.9076 -0.0699
 4603TIP3    H213816   5.287   4.235   0.411  0.4959 -0.9338 -0.0840
 4604TIP3   OH213817   4.156   5.672   1.903  0.7802  0.1617 -0.0093
 4604TIP3    H113818   4.167   5.667   1.998  0.7235  1.6345  0.0932
 4604TIP3    H213819   4.147   5.581   1.876  0.6114 -0.2821  1.4173
 4605TIP3   OH213820   4.206   4.756   3.733 -0.0858 -0.3106  0.3175
 4605TIP3    H113821   4.294   4.743   3.768  0.4470 -2.2764 -1.5297
 4605TIP3    H213822   4.172   4.667   3.720 -0.8585  0.3001 -2.4325
 4606TIP3   OH213823   1.346   1.545   3.563  0.3859  0.6202  0.2955
 4606TIP3    H113824   1.274   1.483   3.548  1.3096 -0.6884  1.0343
 4606TIP3    H213825   1.419   1.509   3.512  1.1581  0.6778  1.3456
 4607TIP3   OH213826   1.085   0.195   4.084  0.4949  0.1761 -0.1310
 4607TIP3    H113827   1.113   0.121   4.139 -1.2446 -0.5996 -0.2012
 4607TIP3    H213828   1.038   0.252   4.145  0.1851  0.2577 -0.4473
 4608TIP3   OH213829   5.298   4.577   1.264 -0.3019  0.8302 -0.0847
 4608TIP3    H113830   5.391   4.558   1.262 -0.3919  0.3221  0.2438
 4608TIP3    H213831   5.256   4.492   1.280 -0.8736  0.9087 -1.0818
 4609TIP3   OH213832   0.118   3.687   1.366 -0.2574  0.0066 -0.4677
 4609TIP3    H113833   0.029   3.719   1.382  0.3715  1.3674  0.5719
 4609TIP3    H213834   0.170   3.729   1.435  0.9424 -1.9956 -0.0855
 4610TIP3   OH213835   4.482   4.657   3.389  0.3017  0.3527  0.3268
 4610TIP3    H113836   4.477   4.709   3.469 -0.9040  0.0183  0.4939
 4610TIP3    H213837   4.575   4.655   3.368  0.6063  0.7434  1.5189
 4611TIP3   OH213838   1.015   5.468   4.045 -0.1178  0.3929 -0.2498
 4611TIP3    H113839   1.105   5.450   4.072  0.1990  1.1969 -0.7296
 4611TIP3    H213840   0.968   5.388   4.064  1.2646 -1.0651 -2.5289
 4612TIP3   OH213841   5.811   0.443   5.018 -0.0666  0.6182  0.3218
 4612TIP3    H113842   5.721   0.414   5.031 -0.2248  1.4939  1.4338
 4612TIP3    H213843   5.862   0.390   5.079 -0.2759  2.1410  1.9100
 4613TIP3   OH213844   2.812   0.737   3.591 -0.0396 -0.2199 -0.5034
 4613TIP3    H113845   2.768   0.722   3.674 -0.1332 -1.2781 -0.7330
 4613TIP3    H213846   2.900   0.766   3.616  0.0946 -1.0035 -0.0234
 4614TIP3   OH213847   3.506   3.574   0.444 -0.0933  0.3042 -0.0202
 4614TIP3    H113848   3.484   3.580   0.537  1.1639 -0.3865  0.3360
 4614TIP3    H213849   3.541   3.660   0.422 -0.9066  0.6530 -0.0165
 4615TIP3   OH213850   6.247   3.770   3.922 -0.3240  0.0973 -0.1261
 4615TIP3    H113851   6.155   3.757   3.901 -0.0774  1.0108 -1.9796
 4615TIP3    H213852   6.276   3.686   3.956 -0.9241 -1.5235 -3.2636
 4616TIP3   OH213853   2.915   1.531   2.053 -0.1728  0.8297  0.1515
 4616TIP3    H113854   2.998   1.553   2.096  1.4747 -2.2956 -1.0476
 4616TIP3    H213855   2.867   1.480   2.118 -0.6784  1.6828  0.4599
 4617TIP3   OH213856   5.378   3.568   0.624  0.1256  0.0530  0.1476
 4617TIP3    H113857   5.457   3.590   0.574 -0.0614  1.0608  0.2791
 4617TIP3    H213858   5.322   3.645   0.615 -0.9425 -0.7316 -0.1236
 4618TIP3   OH213859   0.763   5.375   0.450 -0.6540  0.2272  0.0270
 4618TIP3    H113860   0.807   5.460   0.460 -0.8860  0.1857  1.5212
 4618TIP3    H213861   0.830   5.310   0.470 -0.4328  0.0172 -1.2712
 4619TIP3   OH213862   4.474   5.873   2.075 -0.1372  0.0048  0.0397
 4619TIP3    H113863   4.462   5.843   1.985  2.0165  0.9076 -0.6276
 4619TIP3    H213864   4.564   5.847   2.097 -0.7095 -0.4238  2.0308
 4620TIP3   OH213865   5.078   5.543   1.936 -0.6126 -0.0926  0.5362
 4620TIP3    H113866   5.042   5.622   1.896  0.0859  0.3752  0.8103
 4620TIP3    H213867   5.170   5.541   1.908 -0.7592 -1.1343  0.0433
 4621TIP3   OH213868   1.260   4.494   0.605 -0.1711  0.0783  0.1320
 4621TIP3    H113869   1.287   4.505   0.697 -1.6356  1.9517  0.4132
 4621TIP3    H213870   1.294   4.572   0.561 -0.8303 -0.0059 -0.5502
 4622TIP3   OH213871   5.853   0.802   3.092 -0.0747  0.3875 -0.4143
 4622TIP3    H113872   5.899   0.871   3.139 -1.9413  1.2529  0.2382
 4622TIP3    H213873   5.847   0.730   3.156  0.3512  0.2853 -0.4915
 4623TIP3   OH213874   4.153   1.992   5.106 -0.6444  0.1770  0.3732
 4623TIP3    H113875   4.220   1.981   5.038 -0.9121 -0.9426  0.2593
 4623TIP3    H213876   4.163   1.914   5.161 -0.3958  1.0950  1.6686
 4624TIP3   OH213877   5.899   3.066   5.105  0.7769  0.0429  0.4083
 4624TIP3    H113878   5.973   3.068   5.166  0.1039 -0.4406  1.2534
 4624TIP3    H213879   5.843   2.996   5.137  1.6966 -2.1445 -2.3443
 4625TIP3   OH213880   5.002   2.299   1.741 -0.3478 -0.6280 -0.1495
 4625TIP3    H113881   4.927   2.267   1.690  0.4484 -0.1673 -1.6644
 4625TIP3    H213882   4.963   2.358   1.806 -1.2396  0.4640 -1.6099
 4626TIP3   OH213883   0.347   4.261   4.290  0.0098  0.5958  0.1210
 4626TIP3    H113884   0.269   4.286   4.338  0.5978  0.8918  0.9507
 4626TIP3    H213885   0.409   4.332   4.307  1.1604 -0.6132  1.1995
 4627TIP3   OH213886   1.815   5.454   0.619  0.6319  0.0147  0.6542
 4627TIP3    H113887   1.861   5.513   0.559  0.6038 -2.0241 -1.5085
 4627TIP3    H213888   1.884   5.403   0.661  0.5581  0.1489  0.9401
 4628TIP3   OH213889   2.103   3.157   4.493 -0.2816  0.1031 -0.2493
 4628TIP3    H113890   2.037   3.109   4.443  0.0525 -1.5464  0.7965
 4628TIP3    H213891   2.101   3.116   4.580  1.3033  0.8037  0.1492
 4629TIP3   OH213892   6.199   2.490   5.006  0.1215  0.4602 -0.4519
 4629TIP3    H113893   6.227   2.498   5.098  0.2455  0.2507 -0.4714
 4629TIP3    H213894   6.172   2.579   4.982 -2.2085  0.1157  0.5294
 4630TIP3   OH213895   5.479   1.225   1.223  0.0497 -0.2551 -0.2033
 4630TIP3    H113896   5.568   1.207   1.256 -0.2068 -0.7885  0.2141
 4630TIP3    H213897   5.439   1.277   1.293 -0.1983 -0.6206 -0.0715
 4631TIP3   OH213898   5.413   0.970   2.982  0.0946 -0.1817  0.6524
 4631TIP3    H113899   5.461   0.962   2.899 -0.6082  1.9488 -0.0159
 4631TIP3    H213900   5.453   0.904   3.039  1.6753 -0.6107 -0.8656
 4632TIP3   OH213901   1.372   2.635   1.351 -0.6167 -0.8872  0.3018
 4632TIP3    H113902   1.444   2.590   1.394  0.3588 -0.1140 -0.4626
 4632TIP3    H213903   1.343   2.700   1.415  0.3190 -0.2581  0.1176
 4633TIP3   OH213904   5.743   0.491   0.019 -0.2492 -0.1005  0.3810
 4633TIP3    H113905   5.778   0.580   0.012  0.3155 -0.4127 -1.2330
 4633TIP3    H213906   5.812   0.436  -0.018 -1.1647 -1.0639  0.0582
 4634TIP3   OH213907   0.537   5.289   0.577  0.0092  0.5371  0.4053
 4634TIP3    H113908   0.608   5.334   0.531  0.5441 -1.4216 -0.8162
 4634TIP3    H213909   0.536   5.201   0.539 -1.7121 -0.1450  1.8845
 4635TIP3   OH213910   3.646   1.793   5.096  0.0496 -0.0639 -0.2524
 4635TIP3    H113911   3.663   1.706   5.062 -1.6757 -0.0415 -1.2983
 4635TIP3    H213912   3.732   1.835   5.100  1.0648 -2.1316  1.3023
 4636TIP3   OH213913   2.188   4.507   3.280  0.8173  0.1301  0.3987
 4636TIP3    H113914   2.116   4.455   3.245  0.4151 -0.3434  1.8374
 4636TIP3    H213915   2.170   4.512   3.374  1.3317  2.1124  0.4489
 4637TIP3   OH213916   2.343   2.429   2.282  0.0752 -0.1727 -0.3121
 4637TIP3    H113917   2.412   2.485   2.246  2.1673 -3.4242 -1.8993
 4637TIP3    H213918   2.384   2.385   2.356 -0.7071 -1.1891 -0.4543
 4638TIP3   OH213919   3.063   2.923   5.012  0.4962 -0.4902  0.4443
 4638TIP3    H113920   3.152   2.889   5.001  0.5082 -0.5473  0.7025
 4638TIP3    H213921   3.064   3.009   4.971  0.6864 -0.4677  0.4982
 4639TIP3   OH213922   3.461   0.511   3.043  0.7722 -0.0393  0.5591
 4639TIP3    H113923   3.530   0.565   3.082  1.0949  0.1052 -0.2056
 4639TIP3    H213924   3.497   0.423   3.042  0.1209 -0.3700  2.1118
 4640TIP3   OH213925   4.198   0.448   0.216 -0.2950 -0.4553 -0.1423
 4640TIP3    H113926   4.252   0.514   0.171 -1.4610  0.8413  0.2852
 4640TIP3    H213927   4.243   0.365   0.200  1.7329  0.5480  0.0836
 4641TIP3   OH213928   2.894   3.003   3.249 -0.1024  0.1528 -0.2285
 4641TIP3    H113929   2.974   2.952   3.232 -0.6737 -1.1801  0.8867
 4641TIP3    H213930   2.824   2.938   3.248 -1.0204  1.1255  0.0324
 4642TIP3   OH213931   2.122   2.291   1.961  0.4117  0.0180  0.1003
 4642TIP3    H113932   2.067   2.241   1.901 -1.3838  1.0460  0.8042
 4642TIP3    H213933   2.078   2.376   1.968  1.4969  0.4898  1.5552
 4643TIP3   OH213934   6.250   1.350   1.170 -0.2911  0.3164  0.2548
 4643TIP3    H113935   6.327   1.360   1.114  0.5517  2.0806  1.6260
 4643TIP3    H213936   6.285   1.320   1.254 -1.4484 -1.4932  0.1587
 4644TIP3   OH213937   0.874   4.646   0.453  0.1534  0.0994 -0.3530
 4644TIP3    H113938   0.910   4.582   0.514 -0.9028 -0.7754 -0.6207
 4644TIP3    H213939   0.950   4.694   0.421  0.7996  0.0922  1.0880
 4645TIP3   OH213940   4.809   4.153   1.064  0.0351  0.0437  0.2027
 4645TIP3    H113941   4.748   4.185   1.130 -2.8044 -1.1465 -1.6268
 4645TIP3    H213942   4.759   4.157   0.982  2.6726 -0.4626 -1.5367
 4646TIP3   OH213943   1.741   3.234   4.664 -0.4590  0.1031 -0.3754
 4646TIP3    H113944   1.665   3.288   4.681 -0.9936 -0.8825  0.4630
 4646TIP3    H213945   1.706   3.145   4.655  0.3539 -0.1041 -1.9880
 4647TIP3   OH213946   3.570   2.523   0.697 -0.0456  0.1117 -0.2920
 4647TIP3    H113947   3.541   2.598   0.749 -0.4962 -0.3209  0.0968
 4647TIP3    H213948   3.607   2.463   0.761  0.4560  0.0680 -0.6227
 4648TIP3   OH213949   5.077   0.198   3.300  0.6019 -0.0988  0.4428
 4648TIP3    H113950   5.135   0.126   3.325 -0.3914 -1.1402 -0.1564
 4648TIP3    H213951   5.130   0.277   3.313  1.3430 -0.8277  2.2350
 4649TIP3   OH213952   6.063   0.744   2.538 -0.3395 -0.4161  0.2786
 4649TIP3    H113953   6.006   0.769   2.465  0.5836  2.2378  0.3634
 4649TIP3    H213954   6.149   0.729   2.497 -0.3048 -1.1162  0.5838
 4650TIP3   OH213955   0.436   5.090   5.136  0.1064 -0.1253  0.5303
 4650TIP3    H113956   0.513   5.045   5.103  0.1752 -0.7679  1.5236
 4650TIP3    H213957   0.437   5.074   5.230 -1.8397 -1.1387  0.4375
 4651TIP3   OH213958   4.162   1.047   0.044 -0.0848 -0.1933 -0.0449
 4651TIP3    H113959   4.164   1.024  -0.049  0.1466 -1.3418  0.2228
 4651TIP3    H213960   4.107   0.979   0.084 -1.1893  0.9691  0.4948
 4652TIP3   OH213961   2.617   1.350   3.260  0.4443 -0.9218  0.1566
 4652TIP3    H113962   2.549   1.391   3.313 -0.5274 -2.0397 -0.1790
 4652TIP3    H213963   2.647   1.276   3.313  2.3526  0.2791  0.8650
 4653TIP3   OH213964   6.048   0.907   0.025  0.5491 -0.1682  0.3256
 4653TIP3    H113965   6.130   0.933   0.066  0.5257  1.6753 -0.6727
 4653TIP3    H213966   6.070   0.898  -0.068 -0.1992 -0.4683  0.1699
 4654TIP3   OH213967   1.923   0.052   3.411 -0.1453 -0.0315  0.0810
 4654TIP3    H113968   1.836   0.013   3.405  0.4598 -1.3111 -1.1783
 4654TIP3    H213969   1.983  -0.020   3.389  1.2303  0.8328  0.8526
 4655TIP3   OH213970   5.859   4.346   4.309  0.6709 -0.4535  0.7572
 4655TIP3    H113971   5.882   4.296   4.230  1.8572 -1.8902  1.9478
 4655TIP3    H213972   5.845   4.435   4.277  2.1069 -0.7676 -0.9658
 4656TIP3   OH213973   1.513   1.772   0.507  0.4810 -0.4322 -0.2122
 4656TIP3    H113974   1.510   1.721   0.426 -0.6233  2.5738 -2.2559
 4656TIP3    H213975   1.436   1.829   0.503  1.8814  1.7936  1.5069
 4657TIP3   OH213976   0.819   3.179   0.744 -0.0960  0.0177 -0.3891
 4657TIP3    H113977   0.797   3.120   0.816 -0.6981  1.0317  0.2801
 4657TIP3    H213978   0.852   3.122   0.675 -1.5272 -1.1846 -0.1049
 4658TIP3   OH213979   1.644   5.070   2.005  0.1808  0.6883 -0.2619
 4658TIP3    H113980   1.556   5.079   2.043  0.6294  1.1943  0.7066
 4658TIP3    H213981   1.696   5.032   2.075  0.8907  1.0299 -0.5964
 4659TIP3   OH213982   4.333   1.678   0.937 -1.3354  0.1524  0.1522
 4659TIP3    H113983   4.354   1.639   1.022 -1.8892 -2.6033 -0.8874
 4659TIP3    H213984   4.238   1.684   0.936 -1.4473 -1.2440 -0.7850
 4660TIP3   OH213985   3.960   0.371   3.865  0.1256 -0.0805 -0.2571
 4660TIP3    H113986   3.969   0.283   3.900  1.0925 -0.1543 -0.6828
 4660TIP3    H213987   3.956   0.427   3.943 -1.1982 -0.5313  0.0421
 4661TIP3   OH213988   4.419   2.658   2.473 -0.6172  0.1632 -0.5010
 4661TIP3    H113989   4.323   2.657   2.471 -0.6157  0.3488 -0.8177
 4661TIP3    H213990   4.442   2.614   2.555 -0.9681 -0.0714 -0.5265
 4662TIP3   OH213991   1.919   4.848   4.709 -0.4666 -0.1051 -0.4261
 4662TIP3    H113992   1.870   4.768   4.728 -0.3008 -0.1188 -0.0309
 4662TIP3    H213993   1.918   4.856   4.614 -0.8090 -0.3731 -0.4447
 4663TIP3   OH213994   4.910   5.790   2.780  0.6504  0.4613  0.2798
 4663TIP3    H113995   4.940   5.702   2.803  1.0794  0.0533 -1.6392
 4663TIP3    H213996   4.990   5.842   2.774  0.4558  0.8201  0.7704
 4664TIP3   OH213997   4.496   5.857   5.130  0.0321  0.2443 -0.2189
 4664TIP3    H113998   4.545   5.938   5.144 -1.2265  0.9530  0.3289
 4664TIP3    H213999   4.448   5.844   5.213 -1.6240  0.2683 -1.1215
 4665TIP3   OH214000   4.398   4.907   4.756 -1.0153 -0.6325  0.0932
 4665TIP3    H114001   4.452   4.844   4.803  1.4548  1.3573  0.1393
 4665TIP3    H214002   4.409   4.884   4.663 -2.3088 -1.8374  0.2041
 4666TIP3   OH214003   4.959   0.978   4.867  0.5158  0.3599 -0.5352
 4666TIP3    H114004   4.887   0.948   4.810  0.8931  0.5842 -1.1407
 4666TIP3    H214005   4.949   0.927   4.947  0.3985 -0.4746 -1.0732
 4667TIP3   OH214006   5.317   3.440   3.542 -0.2367 -0.5136 -0.1632
 4667TIP3    H114007   5.366   3.517   3.514  1.9890 -2.0688 -0.8248
 4667TIP3    H214008   5.335   3.432   3.636 -1.3888  0.3481  0.1562
 4668TIP3   OH214009   5.354   4.247   2.777  0.1304  0.3624 -0.3608
 4668TIP3    H114010   5.421   4.308   2.806 -0.3098  0.8016 -0.2392
 4668TIP3    H214011   5.326   4.202   2.857  2.0485 -1.6746 -0.7572
 4669TIP3   OH214012   6.156   2.282   3.930  0.2292  0.3875  0.1344
 4669TIP3    H114013   6.107   2.308   3.852  1.2472  0.7160 -0.4117
 4669TIP3    H214014   6.197   2.199   3.906 -1.6758 -0.9815  1.3039
 4670TIP3   OH214015   0.627   4.274   1.835  0.1552  0.5645 -0.1592
 4670TIP3    H114016   0.702   4.282   1.776 -0.2653 -3.2291 -1.4569
 4670TIP3    H214017   0.667   4.277   1.923  2.5936 -4.3173 -0.7432
 4671TIP3   OH214018   4.876   3.643   0.466 -0.4924  0.3874  0.4684
 4671TIP3    H114019   4.822   3.570   0.436 -0.0134  0.5065 -0.7258
 4671TIP3    H214020   4.947   3.602   0.515 -0.8840  0.1482  0.8533
 4672TIP3   OH214021   4.891   0.127   4.158  0.0556  0.4517  0.3609
 4672TIP3    H114022   4.833   0.144   4.232 -0.7298  0.4763 -0.2435
 4672TIP3    H214023   4.924   0.038   4.172  1.4376  1.1297  1.7270
 4673TIP3   OH214024   1.645   2.854   3.368 -0.1298  0.5519  0.0052
 4673TIP3    H114025   1.610   2.825   3.452  2.1133 -2.3381  0.1084
 4673TIP3    H214026   1.592   2.810   3.303  0.9115 -0.9115  0.0883
 4674TIP3   OH214027   4.051   1.582   0.617 -0.0156  0.3231  0.5053
 4674TIP3    H114028   3.965   1.578   0.574  0.0760  0.0193  0.3452
 4674TIP3    H214029   4.113   1.564   0.547  0.0630 -1.7248  1.0265
 4675TIP3   OH214030   1.284   1.385   3.843 -0.1762  0.0996 -0.9107
 4675TIP3    H114031   1.322   1.298   3.838 -0.7080 -0.1973  0.0039
 4675TIP3    H214032   1.209   1.382   3.783 -1.9045 -1.0021  1.1586
 4676TIP3   OH214033   5.825   2.460   4.516  0.1482  0.1316 -0.3156
 4676TIP3    H114034   5.774   2.515   4.575  1.3000  0.3936  0.4749
 4676TIP3    H214035   5.912   2.499   4.517  0.5112 -0.6350 -1.1814
 4677TIP3   OH214036   4.197   3.356   0.516 -0.2090  0.1141 -0.2918
 4677TIP3    H114037   4.266   3.368   0.450  1.6859 -2.5775  0.9858
 4677TIP3    H214038   4.243   3.323   0.593 -2.6140  1.1425  1.7222
 4678TIP3   OH214039   2.008   3.554   0.601  0.1213 -0.2536 -0.1826
 4678TIP3    H114040   2.061   3.517   0.672 -0.1196 -1.8710 -0.8035
 4678TIP3    H214041   2.067   3.612   0.554  0.2440  0.9797  1.4149
 4679TIP3   OH214042   2.645   5.297   3.340  0.1600 -0.3933  0.2083
 4679TIP3    H114043   2.606   5.349   3.410  2.0561  1.4288  0.0327
 4679TIP3    H214044   2.607   5.210   3.349 -1.5381  0.4672  1.8900
 4680TIP3   OH214045   1.367   4.131   0.573  0.1326  0.7150  0.0769
 4680TIP3    H114046   1.433   4.171   0.630 -0.2176  1.3794  0.0261
 4680TIP3    H214047   1.391   4.039   0.570  0.7849  0.8641  0.4384
 4681TIP3   OH214048   5.570   0.576   0.748 -0.6422  0.1463 -0.1571
 4681TIP3    H114049   5.525   0.636   0.807 -0.2311  0.9445 -0.6345
 4681TIP3    H214050   5.661   0.576   0.779 -0.9651 -1.6364  0.9504
 4682TIP3   OH214051   5.066   1.699   4.142  0.4916 -0.5141  0.2654
 4682TIP3    H114052   4.992   1.638   4.139 -1.5463  1.6077  2.3132
 4682TIP3    H214053   5.043   1.768   4.080  0.3921  0.4662  1.3472
 4683TIP3   OH214054   0.996   3.755   0.513 -0.7273  0.4445 -0.2179
 4683TIP3    H114055   0.988   3.660   0.518 -2.1401  0.4555 -1.5410
 4683TIP3    H214056   0.970   3.777   0.423  1.0176  1.9690 -0.4271
 4684TIP3   OH214057   4.111   0.866   1.626  0.2098 -0.4529 -0.3755
 4684TIP3    H114058   4.067   0.830   1.703  1.5865 -0.3337  0.5094
 4684TIP3    H214059   4.136   0.789   1.575 -1.9068 -0.4954 -1.4564
 4685TIP3   OH214060   0.226   3.886   0.698 -0.0691 -0.2735  0.3441
 4685TIP3    H114061   0.241   3.927   0.784  0.7747  0.7148 -0.2451
 4685TIP3    H214062   0.242   3.793   0.713  2.4670  0.1506  0.7902
 4686TIP3   OH214063   3.335   3.426   3.289  0.3469  0.3256  0.3567
 4686TIP3    H114064   3.428   3.435   3.311  0.7293  1.4067 -1.4417
 4686TIP3    H214065   3.310   3.513   3.257 -0.8523 -0.3681 -0.6712
 4687TIP3   OH214066   5.128   1.962   0.535  0.1671  0.0167 -0.2434
 4687TIP3    H114067   5.220   1.957   0.560  0.0132 -1.1919  0.1690
 4687TIP3    H214068   5.111   2.055   0.522  0.6473  0.6468  2.8043
 4688TIP3   OH214069   3.053   1.173   3.673 -0.0285  0.2018 -0.5211
 4688TIP3    H114070   3.101   1.105   3.625 -0.7807 -1.1604  0.5645
 4688TIP3    H214071   3.011   1.226   3.606  1.4548  0.2841 -1.4343
 4689TIP3   OH214072   5.816   4.278   0.958  0.3252  0.5763 -0.2132
 4689TIP3    H114073   5.734   4.327   0.950 -0.8859 -1.2491  0.3129
 4689TIP3    H214074   5.825   4.234   0.873 -0.2810 -0.7051  0.3607
 4690TIP3   OH214075   2.388   5.619   5.088 -0.4847 -0.8111  0.2668
 4690TIP3    H114076   2.346   5.533   5.091 -1.8649 -0.2340 -1.1812
 4690TIP3    H214077   2.324   5.675   5.044 -0.4789  1.4677  2.8535
 4691TIP3   OH214078   3.045   3.164   3.998  0.3445  0.3441 -0.3198
 4691TIP3    H114079   3.104   3.089   3.997  0.2542  0.2734 -0.3008
 4691TIP3    H214080   3.020   3.175   4.089 -0.8578 -0.5559 -0.5184
 4692TIP3   OH214081   3.347   1.131   4.012  0.1265 -0.7880  0.3741
 4692TIP3    H114082   3.405   1.206   4.018  0.9611 -1.4040  0.1861
 4692TIP3    H214083   3.275   1.151   4.072  0.2101  0.2573  0.1388
 4693TIP3   OH214084   2.788   4.594   5.022  0.2895 -0.1655 -0.2819
 4693TIP3    H114085   2.812   4.679   5.059 -0.6109 -0.0875  0.1471
 4693TIP3    H214086   2.859   4.573   4.962  0.1228  1.2881 -1.0269
 4694TIP3   OH214087   4.277   3.047   2.686  0.3336  0.0067 -0.3757
 4694TIP3    H114088   4.309   2.979   2.626  2.6200  0.4958  0.1979
 4694TIP3    H214089   4.328   3.034   2.766  0.2145  1.8636  0.0437
 4695TIP3   OH214090   5.505   1.853   3.676  0.0076  0.0157 -0.2814
 4695TIP3    H114091   5.416   1.824   3.654 -0.1672  0.6374 -0.4080
 4695TIP3    H214092   5.516   1.936   3.630 -0.2493  1.1904  1.6704
 4696TIP3   OH214093   4.949   5.689   0.496 -0.4620 -0.3246  0.0756
 4696TIP3    H114094   4.862   5.652   0.512 -0.0952 -0.8781  0.9506
 4696TIP3    H214095   4.999   5.617   0.457 -0.1987 -0.2454  0.2583
 4697TIP3   OH214096   2.107   0.730   0.319  0.8155 -0.2085 -0.9751
 4697TIP3    H114097   2.046   0.803   0.309  1.6892  0.2955 -3.2054
 4697TIP3    H214098   2.192   0.771   0.334  1.2508 -0.7519 -1.8665
 4698TIP3   OH214099   2.737   1.878   5.102 -0.4069  0.0626 -0.2667
 4698TIP3    H114100   2.791   1.813   5.058  0.6508  0.4771  0.3758
 4698TIP3    H214101   2.799   1.940   5.138 -1.2640  0.1085  1.2148
 4699TIP3   OH214102   4.503   3.907   4.270  0.0456  0.5454  0.1037
 4699TIP3    H114103   4.522   3.999   4.285  2.8422 -0.0970  0.9611
 4699TIP3    H214104   4.462   3.905   4.184 -0.1988  2.5801  0.1281
 4700TIP3   OH214105   1.580   4.446   4.312 -0.6715  0.3623  0.5394
 4700TIP3    H114106   1.536   4.444   4.227 -0.8078  0.4642  0.6066
 4700TIP3    H214107   1.604   4.355   4.329  1.3049  0.6157 -0.6238
 4701TIP3   OH214108   2.243   0.706   4.074  0.6112  0.5086  0.6636
 4701TIP3    H114109   2.238   0.711   3.979  0.3382  1.1365  0.7114
 4701TIP3    H214110   2.157   0.671   4.101  0.3508  1.1882  0.7369
 4702TIP3   OH214111   4.437   5.100   2.762 -0.3059 -0.1239 -0.1769
 4702TIP3    H114112   4.437   5.138   2.850 -1.6136 -1.4600  0.4505
 4702TIP3    H214113   4.485   5.018   2.771  0.3344  0.1567 -0.9334
 4703TIP3   OH214114   3.023   2.043   2.739  0.4403  0.0935 -0.6569
 4703TIP3    H114115   3.115   2.038   2.766  0.5619  0.9000 -0.8802
 4703TIP3    H214116   3.002   1.954   2.710  1.2055 -0.0591 -0.7732
 4704TIP3   OH214117   6.243   2.914   4.143  0.5431 -0.1904  0.3037
 4704TIP3    H114118   6.153   2.881   4.146 -0.0037  1.2608  0.5547
 4704TIP3    H214119   6.290   2.862   4.208  0.2390 -1.8741 -0.7343
 4705TIP3   OH214120   1.483   0.143   0.834  0.9212  0.1270 -0.1564
 4705TIP3    H114121   1.398   0.183   0.813  0.2500 -0.7710  0.7358
 4705TIP3    H214122   1.547   0.212   0.817 -0.0969  1.2264  0.3222
 4706TIP3   OH214123   0.882   2.840   1.294  0.0922  0.7484 -0.2706
 4706TIP3    H114124   0.920   2.806   1.213 -0.6203  0.0577 -0.3242
 4706TIP3    H214125   0.807   2.892   1.264  0.4098  1.3129 -0.1065
 4707TIP3   OH214126   5.318   2.897   0.246  0.1646 -0.0847  0.8278
 4707TIP3    H114127   5.286   2.943   0.323  0.1516 -0.6979  1.1988
 4707TIP3    H214128   5.250   2.911   0.179  0.6025  1.1949  0.6365
 4708TIP3   OH214129   0.791   0.817   4.389 -0.0939 -0.4937  0.2609
 4708TIP3    H114130   0.717   0.868   4.423 -0.0838  0.0368 -0.4786
 4708TIP3    H214131   0.754   0.731   4.370 -0.4980 -0.2706  0.0190
 4709TIP3   OH214132   3.245   1.514   2.338 -0.0110  0.0839  0.0187
 4709TIP3    H114133   3.330   1.536   2.301  0.0695  0.8964  0.6823
 4709TIP3    H214134   3.200   1.598   2.347 -0.2540 -0.1601  1.2093
 4710TIP3   OH214135   2.224   3.410   0.307 -0.0745  0.0590  0.4705
 4710TIP3    H114136   2.240   3.483   0.367  1.1948 -0.3133  0.6222
 4710TIP3    H214137   2.310   3.391   0.269 -0.4006 -1.2585  0.3340
 4711TIP3   OH214138   3.801   2.586   2.791 -0.0366 -0.1454 -0.5744
 4711TIP3    H114139   3.745   2.663   2.779  0.6814  0.5750  0.4412
 4711TIP3    H214140   3.783   2.531   2.715 -0.5630  1.0399 -1.3485
 4712TIP3   OH214141   4.487   2.380   5.153  0.2233 -0.1570  0.2314
 4712TIP3    H114142   4.495   2.467   5.113 -1.3548 -0.0229  0.1330
 4712TIP3    H214143   4.392   2.369   5.167  0.5188 -1.2494  1.6068
 4713TIP3   OH214144   2.396   5.404   3.802 -0.0482 -0.1695 -0.2039
 4713TIP3    H114145   2.359   5.321   3.834 -3.1897  1.3963  0.5909
 4713TIP3    H214146   2.452   5.434   3.874 -0.2080 -0.8105  0.1992
 4714TIP3   OH214147   5.734   5.498   3.193  0.6664  0.4093  0.4191
 4714TIP3    H114148   5.795   5.531   3.258  1.2145  0.0284  0.1008
 4714TIP3    H214149   5.769   5.529   3.109  0.1447  0.6256  0.2779
 4715TIP3   OH214150   1.003   0.160   2.158  0.3248 -0.4975 -0.0537
 4715TIP3    H114151   0.987   0.250   2.130  1.1589 -0.4158 -0.3066
 4715TIP3    H214152   0.938   0.144   2.227  0.5764  0.5117  0.4408
 4716TIP3   OH214153   2.970   1.959   4.812 -0.2935 -0.7033  0.1849
 4716TIP3    H114154   3.042   1.897   4.810  0.0026 -0.3423 -0.6523
 4716TIP3    H214155   2.896   1.913   4.773 -0.1288 -0.6052 -0.2485
 4717TIP3   OH214156   0.935   2.239   2.594 -0.4124  0.1785 -0.1895
 4717TIP3    H114157   0.958   2.155   2.634 -0.2998 -0.0185 -0.6677
 4717TIP3    H214158   0.850   2.225   2.555 -0.3536  0.2644 -0.3487
 4718TIP3   OH214159   3.381   3.414   1.956 -0.3511 -0.3543  0.4475
 4718TIP3    H114160   3.413   3.504   1.965  1.3549 -0.9616  0.7055
 4718TIP3    H214161   3.410   3.387   1.868  2.0202 -1.6949  1.5526
 4719TIP3   OH214162   0.738   3.447   0.131  0.5457  0.8488  0.2438
 4719TIP3    H114163   0.742   3.447   0.227 -0.3372 -1.9795  0.3550
 4719TIP3    H214164   0.824   3.480   0.104  0.6383  2.1786  1.9456
 4720TIP3   OH214165   0.373   1.336   1.570 -0.0177 -0.0128 -0.0238
 4720TIP3    H114166   0.453   1.323   1.620  0.4639  1.0395 -0.4887
 4720TIP3    H214167   0.310   1.276   1.610  0.9426 -0.7316  0.4547
 4721TIP3   OH214168   0.412   1.158   3.105  0.4229  0.3014 -0.1851
 4721TIP3    H114169   0.401   1.243   3.063  1.7353 -0.9105 -3.3155
 4721TIP3    H214170   0.499   1.163   3.146  0.9714  0.1840 -1.2861
 4722TIP3   OH214171   2.446   0.450   3.974  0.1739 -0.1332  0.3093
 4722TIP3    H114172   2.541   0.458   3.984  0.3109 -0.7995 -0.3518
 4722TIP3    H214173   2.416   0.416   4.058  0.4142  0.8599  0.8013
 4723TIP3   OH214174   2.498   5.669   1.439 -0.0178  0.1212 -0.5271
 4723TIP3    H114175   2.441   5.597   1.411  1.2055 -1.1426  0.1236
 4723TIP3    H214176   2.561   5.678   1.368  0.5333 -0.2428 -0.0897
 4724TIP3   OH214177   5.485   3.406   0.834 -0.0538  0.2138  0.0109
 4724TIP3    H114178   5.475   3.484   0.780 -1.5794 -1.0417 -1.6371
 4724TIP3    H214179   5.571   3.416   0.875 -0.3172  2.8431  0.0627
 4725TIP3   OH214180   5.427   2.033   0.531 -0.3146  0.6164  0.8777
 4725TIP3    H114181   5.490   1.970   0.566 -0.6428 -0.1162  0.1717
 4725TIP3    H214182   5.414   2.096   0.602  0.9417  0.5827  1.1566
 4726TIP3   OH214183   4.285   2.839   1.086 -0.0967  0.1244 -0.1975
 4726TIP3    H114184   4.297   2.819   0.993  0.1526 -1.1080  0.0785
 4726TIP3    H214185   4.195   2.813   1.105  0.4202 -1.3955  0.3071
 4727TIP3   OH214186   2.002   0.494   1.077  0.1523  0.0188 -0.4290
 4727TIP3    H114187   1.977   0.427   1.141  0.5825 -0.2901 -0.5805
 4727TIP3    H214188   1.947   0.476   1.001  1.4595 -1.2393 -1.1098
 4728TIP3   OH214189   0.578   4.772   2.222  0.0991  0.2675  0.5235
 4728TIP3    H114190   0.615   4.692   2.185 -0.1609 -0.4974  1.8600
 4728TIP3    H214191   0.597   4.840   2.157 -0.4434 -1.0265 -1.0638
 4729TIP3   OH214192   0.138   0.708   2.740 -0.0057  0.2260 -0.2980
 4729TIP3    H114193   0.103   0.761   2.811  0.2800  0.1565 -0.1004
 4729TIP3    H214194   0.227   0.685   2.769 -0.7327 -1.9251  0.4970
 4730TIP3   OH214195   0.187   4.833   1.446 -0.3291  0.2322 -0.2088
 4730TIP3    H114196   0.210   4.792   1.530 -1.1603  3.2262  1.6650
 4730TIP3    H214197   0.099   4.868   1.460  0.6222  3.3804 -1.1613
 4731TIP3   OH214198   4.523   3.387   0.611  0.0499  0.0142 -0.6784
 4731TIP3    H114199   4.583   3.385   0.537  2.4248  1.3119  1.0937
 4731TIP3    H214200   4.490   3.298   0.618  1.6523 -0.7050 -1.8160
 4732TIP3   OH214201   0.853   3.996   3.030 -0.5535 -0.4141  0.1513
 4732TIP3    H114202   0.809   4.042   3.102 -0.3409 -0.3026  0.2106
 4732TIP3    H214203   0.908   4.063   2.989 -1.1636 -0.3127 -0.5171
 4733TIP3   OH214204   5.130   4.533   2.247  0.3206  0.1964 -0.2931
 4733TIP3    H114205   5.205   4.592   2.257  1.1383 -0.7857 -0.4073
 4733TIP3    H214206   5.166   4.457   2.201 -1.1018  0.3483 -1.7542
 4734TIP3   OH214207   5.067   0.960   2.505  0.1807  0.0530 -0.2460
 4734TIP3    H114208   4.982   1.000   2.484  0.0112 -0.6371 -0.9264
 4734TIP3    H214209   5.123   0.983   2.431  1.3610  2.5841  1.3029
 4735TIP3   OH214210   0.894   0.908   4.731 -0.1083 -0.1300  0.5466
 4735TIP3    H114211   0.977   0.904   4.777  0.4787  0.2039 -0.4530
 4735TIP3    H214212   0.838   0.962   4.787 -0.2051 -1.6530  2.0159
 4736TIP3   OH214213   1.616   5.228   3.379  0.2103 -0.7613 -0.2799
 4736TIP3    H114214   1.659   5.229   3.293 -0.5581 -0.3845 -0.6659
 4736TIP3    H214215   1.572   5.144   3.383 -0.0272 -0.6422 -0.3915
 4737TIP3   OH214216   5.393   4.353   1.032  0.3508 -0.5972  0.3256
 4737TIP3    H114217   5.340   4.418   0.986  0.0999 -2.1008 -1.6537
 4737TIP3    H214218   5.461   4.404   1.076  0.2219  1.0020 -1.2278
 4738TIP3   OH214219   1.518   5.462   4.898  0.0049  0.4119 -0.6238
 4738TIP3    H114220   1.453   5.506   4.844  0.1065  2.6646  0.9871
 4738TIP3    H214221   1.565   5.405   4.837 -1.9012  0.4996 -2.2592
 4739TIP3   OH214222   3.067   3.427   0.113  0.5168 -0.2012 -0.3328
 4739TIP3    H114223   3.057   3.492   0.045 -1.5976 -0.7280 -0.5760
 4739TIP3    H214224   2.979   3.414   0.148  1.4250 -0.3634  2.1303
 4740TIP3   OH214225   5.859   0.557   3.230  0.1882 -0.7098 -0.1240
 4740TIP3    H114226   5.890   0.490   3.170  1.2981  0.0381 -0.4145
 4740TIP3    H214227   5.911   0.544   3.310  0.3344 -0.2684 -0.1436
 4741TIP3   OH214228   4.794   1.798   3.321  0.3433  0.5229  0.2931
 4741TIP3    H114229   4.727   1.857   3.286  0.3132 -0.2179 -0.9457
 4741TIP3    H214230   4.877   1.840   3.297  0.3261  0.6908  0.5226
 4742TIP3   OH214231   4.150   0.978   4.409 -0.4801  0.3238  0.0093
 4742TIP3    H114232   4.062   0.998   4.442 -1.7915 -1.5552 -2.0494
 4742TIP3    H214233   4.188   1.064   4.388 -1.5234  1.2110  1.5315
 4743TIP3   OH214234   1.136   2.223   4.149  0.4333  0.1187 -0.1536
 4743TIP3    H114235   1.106   2.310   4.122  1.2044  0.3580 -0.2549
 4743TIP3    H214236   1.119   2.220   4.243  1.6820  0.9213  0.1191
 4744TIP3   OH214237   1.537   2.339   4.916  0.5956 -0.0792 -0.3337
 4744TIP3    H114238   1.622   2.296   4.910  1.3872  1.0770  1.6158
 4744TIP3    H214239   1.556   2.432   4.908 -0.5403  0.1709 -0.3064
 4745TIP3   OH214240   5.883   2.286   1.918  0.1076  0.3659 -0.2675
 4745TIP3    H114241   5.861   2.200   1.954  0.8226  0.7390  1.1221
 4745TIP3    H214242   5.914   2.267   1.829  0.3958 -0.8318  0.0722
 4746TIP3   OH214243   0.467   3.051   3.995 -0.4199  0.0043 -0.2998
 4746TIP3    H114244   0.460   3.037   3.901  0.7549  0.0866 -0.4192
 4746TIP3    H214245   0.507   2.971   4.028 -0.6645  0.0460  0.0985
 4747TIP3   OH214246   2.122   1.308   3.212 -0.5658 -0.6102 -0.3566
 4747TIP3    H114247   2.143   1.278   3.123 -0.3067  2.2492 -1.3727
 4747TIP3    H214248   2.031   1.280   3.225 -0.3550 -1.7647 -1.1850
 4748TIP3   OH214249   0.913   3.883   0.974 -0.4947 -0.0464 -0.3625
 4748TIP3    H114250   0.886   3.791   0.969  0.3134 -0.2574 -1.2979
 4748TIP3    H214251   0.831   3.932   0.985 -1.1928 -0.7248 -2.1709
 4749TIP3   OH214252   2.426   0.999   0.866 -0.3183 -0.6747  0.3009
 4749TIP3    H114253   2.425   0.909   0.832  0.0079  0.3913 -2.8744
 4749TIP3    H214254   2.334   1.019   0.882 -1.0157 -0.2232 -3.3563
 4750TIP3   OH214255   4.894   2.394   3.474  0.2469  0.5332 -0.4921
 4750TIP3    H114256   4.979   2.412   3.515  0.1118 -0.9437  0.5183
 4750TIP3    H214257   4.874   2.474   3.425  1.6276  1.3889  0.2563
 4751TIP3   OH214258   5.265   3.450   1.325 -0.0516 -0.1532 -0.3765
 4751TIP3    H114259   5.238   3.363   1.298  2.2779 -1.3990  0.9784
 4751TIP3    H214260   5.275   3.499   1.244  0.1584 -1.6476 -1.2848
 4752TIP3   OH214261   2.817   2.861   3.535  0.6903 -0.3427  0.1408
 4752TIP3    H114262   2.770   2.876   3.617  0.7764  0.9377 -0.0316
 4752TIP3    H214263   2.776   2.782   3.498  1.3721 -1.6109  1.9276
 4753TIP3   OH214264   4.953   4.364   3.579  0.3218 -0.1604 -0.3516
 4753TIP3    H114265   5.006   4.300   3.532 -1.0431 -1.7349  0.1392
 4753TIP3    H214266   4.967   4.446   3.533  0.4898 -1.2560 -2.3639
 4754TIP3   OH214267   5.718   1.278   1.815 -0.0236  0.3416 -0.0568
 4754TIP3    H114268   5.792   1.287   1.875  0.9635 -0.6032 -1.0713
 4754TIP3    H214269   5.656   1.222   1.860  0.4857  0.0419  0.2764
 4755TIP3   OH214270   1.265   1.504   0.682  0.1486 -0.4298 -0.1688
 4755TIP3    H114271   1.338   1.560   0.709 -0.9085  1.7305 -1.4984
 4755TIP3    H214272   1.260   1.516   0.587 -0.7089 -2.0900 -0.3563
 4756TIP3   OH214273   0.463   5.476   2.030  0.5577  0.1954  0.4152
 4756TIP3    H114274   0.527   5.441   2.091  0.7328  0.0405  0.1427
 4756TIP3    H214275   0.408   5.401   2.006 -1.1362  0.7252  2.3366
 4757TIP3   OH214276   5.240   3.413   2.009 -0.4178  1.1019  0.3719
 4757TIP3    H114277   5.202   3.500   2.020 -0.6305  1.2145 -1.1430
 4757TIP3    H214278   5.193   3.358   2.071 -1.1356  1.8102  0.4638
 4758TIP3   OH214279   3.070   5.185   2.256 -0.3235 -0.4922  0.3736
 4758TIP3    H114280   3.026   5.215   2.336 -1.4531 -0.9230 -0.0652
 4758TIP3    H214281   3.105   5.099   2.279 -1.1525 -0.8762  0.2556
 4759TIP3   OH214282   0.119   3.782   1.647  0.1094 -0.2052  0.4499
 4759TIP3    H114283   0.113   3.826   1.732  1.0661  0.3297  0.2490
 4759TIP3    H214284   0.030   3.751   1.630 -0.8551  2.4487  0.1931
 4760TIP3   OH214285   5.185   5.714   2.582 -0.0148 -0.3147  0.6608
 4760TIP3    H114286   5.223   5.661   2.512  0.0905 -0.3308  0.7305
 4760TIP3    H214287   5.187   5.657   2.659 -1.8654 -0.9927  0.2659
 4761TIP3   OH214288   5.895   3.054   1.781  0.3447 -0.1590  0.6051
 4761TIP3    H114289   5.833   3.004   1.835 -0.5228 -0.7379 -0.8815
 4761TIP3    H214290   5.861   3.046   1.692  0.5183  2.6029  0.2145
 4762TIP3   OH214291   3.414   3.925   1.279  0.1464 -0.0561 -0.5812
 4762TIP3    H114292   3.494   3.965   1.246  0.0809  0.1120 -0.5377
 4762TIP3    H214293   3.443   3.843   1.321  0.1101 -0.8413 -2.0264
 4763TIP3   OH214294   3.416   1.486   1.307 -0.0091 -0.0232  0.5586
 4763TIP3    H114295   3.436   1.509   1.397  1.2881 -2.2155  0.8935
 4763TIP3    H214296   3.334   1.532   1.288 -0.6475 -0.0154  3.0530
 4764TIP3   OH214297   4.944   3.839   0.832 -0.2028 -0.0866  1.0050
 4764TIP3    H114298   4.848   3.844   0.829 -0.4850 -3.1987  1.5153
 4764TIP3    H214299   4.970   3.834   0.740 -0.5718  0.2279  0.8800
 4765TIP3   OH214300   0.671   1.010   4.856 -0.3299  0.0928  0.0479
 4765TIP3    H114301   0.648   1.089   4.905  1.4677  0.2914  0.6340
 4765TIP3    H214302   0.588   0.961   4.849 -1.2690  1.5489  0.5096
 4766TIP3   OH214303   5.580   3.981   4.891 -0.0345 -0.4288  0.1643
 4766TIP3    H114304   5.662   3.940   4.918 -0.5704 -1.3660  0.4333
 4766TIP3    H214305   5.591   3.995   4.797  1.2233  1.3869  0.5383
 4767TIP3   OH214306   5.278   2.397   2.050 -0.5325 -0.3684 -0.8961
 4767TIP3    H114307   5.249   2.338   2.120 -1.4533  0.6242 -0.4064
 4767TIP3    H214308   5.281   2.484   2.091 -1.3523  0.2878 -2.1275
 4768TIP3   OH214309   2.839   3.279   3.284  0.3815  1.3814 -0.2200
 4768TIP3    H114310   2.931   3.307   3.291  1.1083 -0.5913 -1.0287
 4768TIP3    H214311   2.844   3.183   3.283 -1.7731  1.2206  0.4363
 4769TIP3   OH214312   6.065   5.235   0.208 -0.6029 -0.0123 -0.8737
 4769TIP3    H114313   5.986   5.234   0.154 -1.2575 -0.0376  0.0613
 4769TIP3    H214314   6.052   5.165   0.272  0.2479 -0.1203 -0.8086
 4770TIP3   OH214315   3.811   4.904   4.175  0.2067 -0.0225 -0.2032
 4770TIP3    H114316   3.757   4.931   4.249 -0.5302 -0.6467 -0.5042
 4770TIP3    H214317   3.876   4.845   4.212  2.2358  2.5237  0.5801
 4771TIP3   OH214318   0.690   0.726   4.028  0.2393  0.2420  0.0808
 4771TIP3    H114319   0.612   0.733   4.083 -0.2540 -0.9268 -0.4236
 4771TIP3    H214320   0.757   0.775   4.074 -0.2657 -0.3921  1.5483
 4772TIP3   OH214321   5.609   4.941   3.406 -0.3388 -0.6543  0.6304
 4772TIP3    H114322   5.621   4.847   3.389  2.1848 -0.1643 -0.7657
 4772TIP3    H214323   5.670   4.960   3.477 -0.4072  0.0607  0.5033
 4773TIP3   OH214324   2.396   4.124   4.508 -1.1031  0.4672  0.4880
 4773TIP3    H114325   2.347   4.089   4.434  0.4922 -1.6647  0.3445
 4773TIP3    H214326   2.453   4.190   4.469  0.3287 -1.2226 -0.4106
 4774TIP3   OH214327   3.954   1.356   4.561  0.2858  0.2309  0.1877
 4774TIP3    H114328   3.900   1.301   4.504 -0.1467  1.3791 -0.5454
 4774TIP3    H214329   4.026   1.299   4.588 -0.6764 -0.9903  0.2690
 4775TIP3   OH214330   5.725   4.622   2.499 -0.1680  0.6891  0.0580
 4775TIP3    H114331   5.678   4.586   2.574 -0.0723  1.0083  0.2780
 4775TIP3    H214332   5.800   4.667   2.538  0.7708 -0.4999 -0.3362
 4776TIP3   OH214333   1.639   2.932   0.835 -0.0403  0.6856 -0.1174
 4776TIP3    H114334   1.664   2.998   0.770 -1.8146 -0.4062 -2.0230
 4776TIP3    H214335   1.693   2.856   0.813  1.3601  1.1660  1.5102
 4777TIP3   OH214336   0.610   4.248   1.136  0.1808 -0.4219 -0.5385
 4777TIP3    H114337   0.602   4.287   1.223  1.7019 -1.7057  0.2215
 4777TIP3    H214338   0.632   4.321   1.078 -1.8468  0.6181 -0.0703
 4778TIP3   OH214339   3.876   3.410   4.986  0.0635 -0.0439 -0.1364
 4778TIP3    H114340   3.857   3.416   4.892 -0.3449 -1.2726 -0.1472
 4778TIP3    H214341   3.825   3.335   5.016 -0.6638  0.9616  1.2965
 4779TIP3   OH214342   0.396   3.087   0.545 -0.0819  0.3035  0.3082
 4779TIP3    H114343   0.474   3.142   0.535 -0.6503  1.5782  2.1531
 4779TIP3    H214344   0.420   3.003   0.506  1.1900  1.5191 -1.7111
 4780TIP3   OH214345   3.466   0.793   2.052 -0.8222  0.0191  0.5146
 4780TIP3    H114346   3.560   0.810   2.064 -0.7152 -1.4583  2.2936
 4780TIP3    H214347   3.462   0.738   1.974 -0.1206 -0.4138  0.7671
 4781TIP3   OH214348   3.460   3.274   3.073 -0.0342 -0.3806  0.0114
 4781TIP3    H114349   3.523   3.344   3.056  0.2922 -0.3801  1.1491
 4781TIP3    H214350   3.380   3.320   3.099 -0.7707 -0.3538 -2.0753
 4782TIP3   OH214351   4.221   5.918   4.583  0.4999  0.1345  0.0467
 4782TIP3    H114352   4.164   5.994   4.595  0.5550  0.3874 -1.2405
 4782TIP3    H214353   4.170   5.856   4.532  0.9157 -0.1710 -0.0101
 4783TIP3   OH214354   5.845   0.810   0.569 -0.5350  0.1871  0.2544
 4783TIP3    H114355   5.922   0.774   0.613  0.5474  1.1430 -0.7933
 4783TIP3    H214356   5.819   0.884   0.623 -0.1901  0.3880  0.1463
 4784TIP3   OH214357   1.270   4.885   4.046  0.2936  0.1305 -0.2220
 4784TIP3    H114358   1.206   4.955   4.061 -0.3055 -0.0564 -1.6694
 4784TIP3    H214359   1.344   4.928   4.005  1.0379  0.3071  1.2447
 4785TIP3   OH214360   4.504   1.845   0.561 -0.3897  0.5503  0.4750
 4785TIP3    H114361   4.425   1.796   0.581 -1.9328  0.9501 -3.5941
 4785TIP3    H214362   4.573   1.778   0.555 -0.6844  0.0070  2.5325
 4786TIP3   OH214363   1.837   3.428   0.438 -0.7405  0.0733  0.0908
 4786TIP3    H114364   1.908   3.453   0.497 -2.3228  0.2158  2.0467
 4786TIP3    H214365   1.824   3.504   0.382  0.4991  0.1113 -0.1719
 4787TIP3   OH214366   3.765   4.069   4.721  0.5908  0.4631 -0.3783
 4787TIP3    H114367   3.858   4.093   4.726  0.8050 -0.4708  0.2214
 4787TIP3    H214368   3.765   3.974   4.707 -0.2845  0.3022  0.6403
 4788TIP3   OH214369   2.849   2.816   1.445  0.1304  0.0378  0.0519
 4788TIP3    H114370   2.771   2.764   1.425  0.2957  0.0682 -0.6900
 4788TIP3    H214371   2.922   2.761   1.416  0.3010  0.7791 -0.9732
 4789TIP3   OH214372   3.457   2.308   4.519 -0.7850 -0.0928 -0.0452
 4789TIP3    H114373   3.502   2.391   4.503 -0.0958 -0.0478  1.8400
 4789TIP3    H214374   3.366   2.333   4.533 -0.5602  0.3812  0.6449
 4790TIP3   OH214375   3.888   0.013   4.426 -0.3460  0.0744  0.1941
 4790TIP3    H114376   3.925  -0.056   4.371 -0.7796  0.5089 -0.6677
 4790TIP3    H214377   3.922   0.094   4.389  0.1056  0.3344  1.1572
 4791TIP3   OH214378   4.717   4.932   4.081  0.6703  0.7523 -0.0238
 4791TIP3    H114379   4.719   4.964   3.991 -0.4956 -1.5608 -0.9615
 4791TIP3    H214380   4.663   4.995   4.128 -0.5236  0.8685 -1.4737
 4792TIP3   OH214381   2.245   5.174   0.700 -0.0155  0.2109  0.4790
 4792TIP3    H114382   2.319   5.146   0.753 -0.3910 -0.0968  0.8457
 4792TIP3    H214383   2.263   5.138   0.613  1.0518  1.4828  0.1465
 4793TIP3   OH214384   3.203   5.769   0.591  0.2697  0.3498 -0.6727
 4793TIP3    H114385   3.218   5.688   0.640  0.2630  0.1563 -0.9892
 4793TIP3    H214386   3.157   5.742   0.512  0.8269  0.5779 -1.0850
 4794TIP3   OH214387   0.243   0.563   0.281 -0.2653 -0.1267 -0.2143
 4794TIP3    H114388   0.227   0.643   0.231 -0.6178 -0.6146 -0.8889
 4794TIP3    H214389   0.167   0.508   0.264  0.0754 -0.6952  0.0760
 4795TIP3   OH214390   0.764   2.176   0.710 -0.6937  0.2817 -0.0284
 4795TIP3    H114391   0.775   2.141   0.798  1.5445  1.0353  0.0614
 4795TIP3    H214392   0.850   2.166   0.669 -1.9698 -1.1621 -2.6019
 4796TIP3   OH214393   0.356   1.681   2.530 -0.0080 -0.0076  0.4916
 4796TIP3    H114394   0.441   1.697   2.489 -0.4607  0.8571 -0.1385
 4796TIP3    H214395   0.323   1.768   2.552 -0.9205 -0.3052  0.3358
 4797TIP3   OH214396   3.837   2.545   2.039 -0.2686  0.9171 -0.5334
 4797TIP3    H114397   3.840   2.451   2.054 -1.0094  1.0059  0.2316
 4797TIP3    H214398   3.913   2.579   2.087 -0.9218  0.8721  0.5552
 4798TIP3   OH214399   3.937   1.174   1.273 -0.2115  0.4383  0.3292
 4798TIP3    H114400   3.875   1.103   1.262  1.4350 -1.1650  0.8638
 4798TIP3    H214401   3.887   1.243   1.316 -1.8427 -0.3943 -0.1494
 4799TIP3   OH214402   3.694   1.096   4.784 -0.2719  0.4441  0.4563
 4799TIP3    H114403   3.697   1.189   4.761 -0.0300  0.6138  1.1458
 4799TIP3    H214404   3.678   1.096   4.879 -0.5471 -0.2217  0.4126
 4800TIP3   OH214405   5.144   3.022   3.727  0.3416 -0.0153  0.2901
 4800TIP3    H114406   5.173   2.932   3.709  0.6481  0.1926 -0.3045
 4800TIP3    H214407   5.093   3.016   3.807 -1.0342 -0.9949 -0.6115
 4801TIP3   OH214408   2.360   3.266   2.493  0.3543  0.2490  0.5756
 4801TIP3    H114409   2.428   3.208   2.528 -0.5497 -0.7570  0.7148
 4801TIP3    H214410   2.336   3.227   2.409 -0.7088  0.0481  0.9619
 4802TIP3   OH214411   4.370   5.244   4.029 -0.2098  0.4653 -0.1901
 4802TIP3    H114412   4.366   5.336   4.001 -0.8573  0.3898 -0.3406
 4802TIP3    H214413   4.463   5.230   4.049  0.4602  0.2984 -3.0179
 4803TIP3   OH214414   3.465   1.034   4.324  0.2560 -0.5037  0.1343
 4803TIP3    H114415   3.465   1.130   4.324 -3.1537 -0.3486 -2.0696
 4803TIP3    H214416   3.557   1.011   4.339  1.4433  3.1068 -0.4857
 4804TIP3   OH214417   5.789   2.608   2.234  0.1330  0.1636 -0.3543
 4804TIP3    H114418   5.838   2.537   2.277 -1.6775  0.4602  2.4205
 4804TIP3    H214419   5.763   2.571   2.150  0.5308 -1.9123  0.3747
 4805TIP3   OH214420   1.078   3.309   0.712  0.0478 -0.1019 -0.3347
 4805TIP3    H114421   1.157   3.256   0.718  1.0130  1.2459 -0.7941
 4805TIP3    H214422   1.009   3.254   0.750  0.6495 -2.3639 -2.2750
 4806TIP3   OH214423   5.456   3.564   3.264  0.3566 -0.0349 -0.6669
 4806TIP3    H114424   5.538   3.524   3.233  0.8173  1.8058 -1.9618
 4806TIP3    H214425   5.404   3.575   3.184 -1.7883 -2.3421  0.2618
 4807TIP3   OH214426   2.151   1.085   0.458 -0.6329 -0.4982 -0.1890
 4807TIP3    H114427   2.229   1.111   0.408 -0.3599 -0.3728  0.2931
 4807TIP3    H214428   2.077   1.118   0.407 -0.3001  3.7486  1.6555
 4808TIP3   OH214429   0.327   4.820   0.335  0.3583 -0.2785 -0.3850
 4808TIP3    H114430   0.415   4.815   0.299  0.5586  1.8687 -0.2918
 4808TIP3    H214431   0.309   4.914   0.343 -1.7009 -0.6686  0.1742
 4809TIP3   OH214432   5.746   1.183   1.308  0.2376  0.6225 -0.6069
 4809TIP3    H114433   5.835   1.200   1.276  0.9618  1.5349  1.6740
 4809TIP3    H214434   5.759   1.144   1.395 -1.5684  1.4793  0.1023
 4810TIP3   OH214435   2.188   3.150   4.775 -0.7390  0.1959  0.1450
 4810TIP3    H114436   2.259   3.202   4.814 -1.1888  0.5300  0.5288
 4810TIP3    H214437   2.198   3.063   4.815 -0.8227  0.3693  0.5508
 4811TIP3   OH214438   1.192   0.666   3.627 -0.4712 -0.4153 -1.4063
 4811TIP3    H114439   1.261   0.665   3.693 -0.1126  1.3905 -1.7114
 4811TIP3    H214440   1.187   0.575   3.596  1.2906 -0.7164 -0.9016
 4812TIP3   OH214441   1.153   0.159   2.452 -0.4209  0.1694 -0.5884
 4812TIP3    H114442   1.184   0.113   2.374 -0.5347  0.1296 -0.6093
 4812TIP3    H214443   1.113   0.091   2.506 -0.0388  0.1356 -0.3399
 4813TIP3   OH214444   5.900   0.731   2.821 -0.3734 -0.4879  0.0451
 4813TIP3    H114445   5.874   0.767   2.906 -1.0851 -0.2739 -0.2519
 4813TIP3    H214446   5.991   0.705   2.832  0.3208  1.7606  0.1784
 4814TIP3   OH214447   5.948   3.431   1.143  0.4354 -0.0190 -0.4685
 4814TIP3    H114448   5.976   3.484   1.068 -1.4898  1.1933 -0.3744
 4814TIP3    H214449   5.870   3.385   1.112 -1.1722  1.4994  1.1318
 4815TIP3   OH214450   1.534   5.035   1.268  0.0157 -0.4292 -0.4213
 4815TIP3    H114451   1.466   5.102   1.271 -0.9026 -1.3406 -0.4389
 4815TIP3    H214452   1.487   4.953   1.256  0.9782 -1.2967  1.2787
 4816TIP3   OH214453   2.435   1.424   4.984  0.0693 -0.7512  0.6838
 4816TIP3    H114454   2.482   1.506   4.966  2.4420 -2.5020 -1.8647
 4816TIP3    H214455   2.475   1.390   5.064  1.6323 -1.0695 -0.1862
 4817TIP3   OH214456   6.092   4.053   1.519 -0.0038  0.1955 -0.3930
 4817TIP3    H114457   6.000   4.073   1.504 -0.2665 -0.3320  0.4163
 4817TIP3    H214458   6.091   3.963   1.554  1.0543 -0.9901 -3.1568
 4818TIP3   OH214459   5.263   4.695   2.916  0.1244  0.4515  0.1405
 4818TIP3    H114460   5.280   4.660   2.828  0.4259  0.4021  0.2172
 4818TIP3    H214461   5.225   4.781   2.900  0.2321  0.4672 -0.0377
 4819TIP3   OH214462   4.240   0.480   4.384  0.7226  0.4330 -0.2634
 4819TIP3    H114463   4.335   0.475   4.374  0.7133  0.0139 -0.1401
 4819TIP3    H214464   4.223   0.572   4.405  0.9548  0.8665 -1.8047
 4820TIP3   OH214465   2.089   0.561   2.862 -0.2079  0.2306 -0.6730
 4820TIP3    H114466   2.034   0.483   2.858  0.1446  0.0314 -2.3519
 4820TIP3    H214467   2.111   0.570   2.955 -1.4208 -0.8270 -0.2518
 4821TIP3   OH214468   5.069   4.288   2.650  0.4422  0.3641  0.3363
 4821TIP3    H114469   5.144   4.296   2.590  0.9516  1.4622  1.0791
 4821TIP3    H214470   5.078   4.201   2.688 -1.2585 -1.4215 -2.9059
 4822TIP3   OH214471   2.609   4.870   1.342  0.0291 -0.5571  0.1462
 4822TIP3    H114472   2.517   4.846   1.357 -0.0256 -0.1684  0.4540
 4822TIP3    H214473   2.620   4.864   1.247 -0.3346 -0.5397  0.1011
 4823TIP3   OH214474   2.156   3.944   4.876 -0.1771  0.1531 -0.4516
 4823TIP3    H114475   2.250   3.933   4.859 -0.1377 -0.0322 -0.1256
 4823TIP3    H214476   2.146   4.035   4.903 -0.1266  0.2374 -0.7131
 4824TIP3   OH214477   2.163   2.076   0.914 -0.2210 -0.5207 -0.2301
 4824TIP3    H114478   2.211   2.064   0.995 -0.0481  0.2358 -0.2155
 4824TIP3    H214479   2.090   2.014   0.919 -0.8588  0.2938  1.0158
 4825TIP3   OH214480   2.527   1.449   2.986  0.6348 -0.4159 -0.0980
 4825TIP3    H114481   2.518   1.507   3.062 -0.1730 -1.4279  0.5990
 4825TIP3    H214482   2.590   1.383   3.014 -0.1264 -1.1468 -0.0770
 4826TIP3   OH214483   2.949   1.347   1.669  0.2473  0.5377  0.1752
 4826TIP3    H114484   2.956   1.322   1.761  0.5346 -1.3451 -0.3067
 4826TIP3    H214485   2.904   1.431   1.670 -2.0254 -0.5658  1.9414
 4827TIP3   OH214486   2.734   1.561   0.639  0.0696  0.3565  0.1535
 4827TIP3    H114487   2.722   1.483   0.693  1.2723  1.1536  1.6770
 4827TIP3    H214488   2.656   1.614   0.656 -1.2002 -0.8444 -1.6008
 4828TIP3   OH214489   0.048   1.633   4.703 -0.1660 -0.1508 -0.0375
 4828TIP3    H114490  -0.015   1.637   4.632 -0.4962  1.3782  0.3083
 4828TIP3    H214491  -0.003   1.648   4.782  0.4525 -0.0351  0.3488
 4829TIP3   OH214492   4.692   0.453   4.931 -0.2658  0.1819 -0.6233
 4829TIP3    H114493   4.750   0.486   5.000 -0.7485 -0.1695 -0.0344
 4829TIP3    H214494   4.624   0.406   4.978 -0.4686 -0.2808 -1.3623
 4830TIP3   OH214495   1.348   0.115   5.033  0.0305  0.5581 -0.3835
 4830TIP3    H114496   1.260   0.141   5.059  0.3360 -1.2551  3.0417
 4830TIP3    H214497   1.335   0.061   4.955 -2.0465 -0.4609  0.5786
 4831TIP3   OH214498   3.174   0.533   3.092  0.1927  0.3565  0.0005
 4831TIP3    H114499   3.268   0.527   3.080  0.1217  1.4612 -1.4685
 4831TIP3    H214500   3.144   0.587   3.019 -1.1939  2.7951  2.2064
 4832TIP3   OH214501   4.287   3.853   2.211  0.0982  0.2421 -0.4264
 4832TIP3    H114502   4.295   3.842   2.305 -0.1947 -0.6977 -0.4956
 4832TIP3    H214503   4.220   3.920   2.200 -1.1163 -0.8445  0.0418
 4833TIP3   OH214504   6.227   2.541   2.154 -0.9226 -0.1508  0.0185
 4833TIP3    H114505   6.160   2.514   2.091  0.9052 -2.9519 -0.9463
 4833TIP3    H214506   6.195   2.507   2.238 -0.7420 -1.5653 -0.4484
 4834TIP3   OH214507   5.073   1.624   1.063  0.1578  0.1148 -0.4482
 4834TIP3    H114508   5.073   1.686   0.990 -1.7734  0.9906  0.2281
 4834TIP3    H214509   5.115   1.545   1.027 -0.2754  0.6926 -2.3496
 4835TIP3   OH214510   3.130   3.888   1.767  0.2178  0.0082 -0.9379
 4835TIP3    H114511   3.127   3.979   1.739 -0.0414  0.7314  1.2402
 4835TIP3    H214512   3.094   3.889   1.856  0.8796 -2.1002 -0.5861
 4836TIP3   OH214513   0.761   3.529   0.467 -0.2139 -0.5643 -0.5647
 4836TIP3    H114514   0.846   3.502   0.503  0.1776 -0.7271 -1.5685
 4836TIP3    H214515   0.717   3.572   0.540  0.7540 -0.4330 -0.0285
 4837TIP3   OH214516   5.495   5.887   1.049 -0.3235  0.5551  0.1989
 4837TIP3    H114517   5.497   5.791   1.047 -1.4014  0.5180 -1.5186
 4837TIP3    H214518   5.405   5.909   1.024  0.1655  2.0254 -0.3424
 4838TIP3   OH214519   3.931   1.568   1.871 -0.3891 -0.2640 -0.5051
 4838TIP3    H114520   3.908   1.514   1.947 -0.3643  0.4344  0.0140
 4838TIP3    H214521   4.019   1.538   1.846 -0.6700 -0.9539 -0.6784
 4839TIP3   OH214522   2.047   0.375   3.291 -0.4984  0.5647  0.0321
 4839TIP3    H114523   2.137   0.349   3.313 -0.7261 -0.3327 -0.0733
 4839TIP3    H214524   2.019   0.429   3.365 -0.0924  0.3316  0.3589
 4840TIP3   OH214525   2.047   5.363   0.755  0.1399  0.0386  0.1277
 4840TIP3    H114526   1.999   5.325   0.829  0.4692  0.6556  0.6632
 4840TIP3    H214527   2.104   5.292   0.725  0.9336  0.1557  1.2843
 4841TIP3   OH214528   1.624   0.387   1.133  0.0637 -0.0214 -0.2072
 4841TIP3    H114529   1.664   0.376   1.046  1.1323 -2.7316  0.5107
 4841TIP3    H214530   1.542   0.337   1.128  0.9053 -1.5644  0.7582
 4842TIP3   OH214531   3.067   4.523   0.479  0.1138 -0.2183  0.2023
 4842TIP3    H114532   3.039   4.494   0.566  1.4022  1.5132  1.2735
 4842TIP3    H214533   3.145   4.470   0.461 -0.2990 -0.7568 -0.0364
 4843TIP3   OH214534   0.878   4.795   2.342  0.2241 -0.0203 -0.0446
 4843TIP3    H114535   0.797   4.758   2.308  0.0691  1.8743 -1.8998
 4843TIP3    H214536   0.875   4.888   2.319  2.9560  0.1074 -0.2913
 4844TIP3   OH214537   0.835   5.061   2.798 -0.0740 -0.2811 -0.3363
 4844TIP3    H114538   0.796   5.030   2.716 -0.2054 -2.5620  0.4936
 4844TIP3    H214539   0.765   5.051   2.862  1.0224 -1.9657  0.6837
 4845TIP3   OH214540   6.011   5.797   4.868  0.4531  0.4305  0.3310
 4845TIP3    H114541   6.075   5.741   4.914 -1.0310 -1.0480  0.6907
 4845TIP3    H214542   5.970   5.848   4.938  1.4246  1.6460  0.0609
 4846TIP3   OH214543   5.561   1.794   0.276  0.2670  0.4872 -0.2767
 4846TIP3    H114544   5.498   1.748   0.331  0.4051  1.0778  0.3771
 4846TIP3    H214545   5.507   1.840   0.211  0.0706  0.2907 -0.2532
 4847TIP3   OH214546   2.971   0.490   4.754 -0.3435 -0.0055 -0.6129
 4847TIP3    H114547   2.907   0.424   4.779  0.2277  0.0726  1.1754
 4847TIP3    H214548   3.053   0.461   4.793  0.4892  0.4918 -1.8938
 4848TIP3   OH214549   3.549   0.761   4.126  0.1847 -0.3607 -0.1123
 4848TIP3    H114550   3.455   0.749   4.140  0.4881 -0.9236  1.6914
 4848TIP3    H214551   3.558   0.853   4.102 -0.7016  0.0983  1.2144
 4849TIP3   OH214552   0.468   1.320   4.430 -0.0260 -0.2743 -0.4409
 4849TIP3    H114553   0.522   1.390   4.392 -2.7944  1.4605 -1.4950
 4849TIP3    H214554   0.509   1.303   4.515  1.1464  2.2359 -0.3915
 4850TIP3   OH214555   4.557   1.934   3.569 -0.1155 -0.0354  0.0526
 4850TIP3    H114556   4.613   2.011   3.580 -0.5446  0.1322  1.1771
 4850TIP3    H214557   4.551   1.923   3.474 -3.1568  3.6870 -0.4766
 4851TIP3   OH214558   3.950   5.578   3.457  0.3598 -0.3763 -0.5449
 4851TIP3    H114559   3.962   5.655   3.403  0.8440 -0.7669 -1.0038
 4851TIP3    H214560   4.038   5.551   3.481  0.2108 -0.9398 -0.6127
 4852TIP3   OH214561   2.308   5.181   0.318 -0.1234 -0.3156  0.1278
 4852TIP3    H114562   2.309   5.087   0.334 -2.1854 -0.5140 -0.6499
 4852TIP3    H214563   2.277   5.190   0.228 -1.7094  1.1395  0.7738
 4853TIP3   OH214564   3.522   1.449   3.775 -0.5822 -0.9448 -0.0455
 4853TIP3    H114565   3.577   1.468   3.699 -1.0008  1.8734  0.2522
 4853TIP3    H214566   3.436   1.429   3.738 -0.9860  1.1897 -0.3443
 4854TIP3   OH214567   0.147   2.384   2.085 -0.5739 -0.2715  0.6231
 4854TIP3    H114568   0.225   2.441   2.087 -1.7071  1.5676 -1.8714
 4854TIP3    H214569   0.079   2.436   2.127 -1.2153 -0.5399 -0.0758
 4855TIP3   OH214570   6.057   4.785   4.463 -0.6492 -0.1392 -0.2744
 4855TIP3    H114571   6.004   4.825   4.394  0.9385  0.2688 -1.3266
 4855TIP3    H214572   6.125   4.737   4.415  0.9593  0.7799  0.9765
 4856TIP3   OH214573   5.896   1.365   4.740  0.5862 -0.1104 -0.2504
 4856TIP3    H114574   5.826   1.322   4.789  0.4871  0.8440  0.4588
 4856TIP3    H214575   5.910   1.448   4.784  0.9763  0.4810 -1.4265
 4857TIP3   OH214576   2.374   1.181   0.309 -0.1836  0.0326  0.2868
 4857TIP3    H114577   2.377   1.180   0.214  0.0452  0.5728  0.2836
 4857TIP3    H214578   2.441   1.118   0.336  0.4933  0.6612  0.0944
 4858TIP3   OH214579   4.753   1.334   3.700  0.1983 -0.2419 -0.3508
 4858TIP3    H114580   4.764   1.377   3.615  1.0092 -0.2720 -0.2668
 4858TIP3    H214581   4.679   1.380   3.741 -0.1968 -0.2294 -1.0636
 4859TIP3   OH214582   2.085   0.237   4.524  0.3753  0.4634 -0.1567
 4859TIP3    H114583   2.075   0.331   4.535  1.9001  0.4016  2.4963
 4859TIP3    H214584   2.030   0.198   4.592  0.4662 -0.5413 -0.6342
 4860TIP3   OH214585   2.514   0.449   3.436 -0.0983 -0.4213  0.2002
 4860TIP3    H114586   2.507   0.483   3.526 -1.2987  2.4706 -0.8652
 4860TIP3    H214587   2.586   0.500   3.397  2.4052 -3.6327  0.1935
 4861TIP3   OH214588   0.130   2.060   4.028 -0.4617  0.4036 -0.1717
 4861TIP3    H114589   0.192   2.104   3.971 -1.9928  1.3192 -1.2169
 4861TIP3    H214590   0.077   2.007   3.969  0.5047 -1.9176  0.9143
 4862TIP3   OH214591   0.780   3.978   3.821 -0.2139 -0.1567  0.3242
 4862TIP3    H114592   0.735   3.928   3.754  1.1571 -1.5175  0.3531
 4862TIP3    H214593   0.790   4.066   3.783 -2.5437  0.1293  0.2263
 4863TIP3   OH214594   3.225   2.513   4.793 -0.0731 -0.0316 -0.1850
 4863TIP3    H114595   3.310   2.557   4.802  0.4462 -1.2545  1.2160
 4863TIP3    H214596   3.175   2.542   4.870  0.0104 -1.2461  0.3554
 4864TIP3   OH214597   6.296   3.234   2.420 -0.5390 -0.4393 -0.7676
 4864TIP3    H114598   6.320   3.324   2.400 -1.6260  0.2006  0.6734
 4864TIP3    H214599   6.204   3.227   2.395 -0.8391 -0.7383  0.3733
 4865TIP3   OH214600   0.237   1.102   5.116  0.7921 -0.2246  0.2105
 4865TIP3    H114601   0.147   1.071   5.120 -0.0098  1.5775 -1.9298
 4865TIP3    H214602   0.290   1.025   5.137 -1.1779 -1.7905 -0.3312
 4866TIP3   OH214603   5.728   2.191   2.761  0.2417  0.7785  0.1402
 4866TIP3    H114604   5.683   2.107   2.751 -0.2501  1.1308 -0.8157
 4866TIP3    H214605   5.694   2.227   2.843  1.1592 -0.3535  1.0485
 4867TIP3   OH214606   2.770   0.949   4.557 -1.0744 -0.1374  0.6796
 4867TIP3    H114607   2.812   0.868   4.530  1.8091  1.5256 -0.3268
 4867TIP3    H214608   2.806   0.967   4.645 -0.6891  0.6320  0.3780
 4868TIP3   OH214609   5.841   2.201   4.379 -0.0725 -0.4390 -0.1719
 4868TIP3    H114610   5.882   2.234   4.459  1.0103  0.0509 -0.9102
 4868TIP3    H214611   5.888   2.120   4.359  0.0297 -0.2761 -0.6011
 4869TIP3   OH214612   2.783   5.907   0.475  0.1927 -0.3322 -0.4156
 4869TIP3    H114613   2.868   5.922   0.433 -0.1342 -0.4183 -1.1240
 4869TIP3    H214614   2.787   5.958   0.556  0.9344 -0.3718 -0.4173
 4870TIP3   OH214615   5.508   4.966   4.100  0.8990 -0.1846  0.0990
 4870TIP3    H114616   5.544   4.907   4.035  0.0949  0.0136 -0.5486
 4870TIP3    H214617   5.492   5.048   4.053  0.3882 -0.0082  0.5575
 4871TIP3   OH214618   5.319   0.604   2.378  0.0560 -0.0588  0.1096
 4871TIP3    H114619   5.391   0.667   2.377 -0.5094  0.5960  0.3141
 4871TIP3    H214620   5.301   0.587   2.285  1.2570 -1.1608  0.0346
 4872TIP3   OH214621   2.164   5.731   4.126  0.5072 -0.2261 -0.6946
 4872TIP3    H114622   2.221   5.660   4.155  1.7655  0.9545 -0.1664
 4872TIP3    H214623   2.145   5.780   4.207  2.0421  1.6848 -1.4013
 4873TIP3   OH214624   5.062   5.040   3.910 -0.9638  0.2247  0.2192
 4873TIP3    H114625   5.013   4.958   3.909 -2.6384  1.1686 -1.5435
 4873TIP3    H214626   5.000   5.106   3.879  0.3669  2.1630  1.4350
 4874TIP3   OH214627   6.106   5.339   0.821  0.1081 -0.0711  0.1941
 4874TIP3    H114628   6.065   5.389   0.891  0.1059 -0.5968  0.5703
 4874TIP3    H214629   6.192   5.315   0.855 -0.6258 -2.0164  0.8204
 4875TIP3   OH214630   5.790   4.012   1.040 -0.2766 -0.1152 -0.4115
 4875TIP3    H114631   5.722   4.009   1.107 -0.9174  0.4825 -1.0095
 4875TIP3    H214632   5.811   4.105   1.032  0.9551 -0.3312  0.0820
 4876TIP3   OH214633   2.355   5.074   2.056  0.4532 -0.4945  0.5512
 4876TIP3    H114634   2.424   5.135   2.031  0.7261 -1.3066 -0.7422
 4876TIP3    H214635   2.276   5.128   2.059  0.5271 -0.2035 -1.4281
 4877TIP3   OH214636   2.800   5.241   4.363  0.0356 -0.1362  0.2928
 4877TIP3    H114637   2.845   5.159   4.381 -1.1399 -0.9848 -0.4442
 4877TIP3    H214638   2.762   5.267   4.447  1.9311  0.6575  0.9504
 4878TIP3   OH214639   1.720   0.192   2.704  0.2345  0.0836 -0.6063
 4878TIP3    H114640   1.763   0.108   2.722  3.6561  1.4807 -1.5170
 4878TIP3    H214641   1.677   0.178   2.619 -0.8398 -1.2292  0.1055
 4879TIP3   OH214642   2.014   1.120   2.487 -0.4494  0.7674 -0.2111
 4879TIP3    H114643   2.003   1.156   2.399 -0.1483 -0.0192 -0.5792
 4879TIP3    H214644   1.931   1.077   2.507  0.6558 -2.2539 -1.6305
 4880TIP3   OH214645   4.739   0.508   1.481  0.4853 -0.2517 -0.6454
 4880TIP3    H114646   4.832   0.495   1.498  0.2286 -0.7666  0.4702
 4880TIP3    H214647   4.736   0.553   1.396  1.7689  0.4448 -0.3479
 4881TIP3   OH214648   3.544   5.761   1.328  0.2871 -0.1908 -0.2264
 4881TIP3    H114649   3.630   5.730   1.357 -0.6034 -1.8146  0.8398
 4881TIP3    H214650   3.521   5.830   1.389  0.1397 -0.9090  0.5555
 4882TIP3   OH214651   4.116   4.208   0.760 -0.0658  0.0292  0.1762
 4882TIP3    H114652   4.172   4.222   0.837  0.5569 -0.0183 -0.2542
 4882TIP3    H214653   4.137   4.119   0.731 -0.0230  0.1771 -0.2558
 4883TIP3   OH214654   0.490   2.046   2.164  0.2683  0.2534 -0.4842
 4883TIP3    H114655   0.525   2.134   2.179 -0.2098  0.4523 -0.5154
 4883TIP3    H214656   0.567   1.990   2.155  0.5978  0.8638 -1.6332
 4884TIP3   OH214657   2.356   1.601   2.308 -0.2534 -0.4943 -0.5080
 4884TIP3    H114658   2.368   1.588   2.214 -0.2406  1.6252 -0.8512
 4884TIP3    H214659   2.356   1.696   2.319 -2.5206 -0.6117  1.3339
 4885TIP3   OH214660   5.404   3.223   3.301 -0.1857 -0.3344  0.3442
 4885TIP3    H114661   5.448   3.273   3.369  2.0271  1.5623 -2.2540
 4885TIP3    H214662   5.314   3.255   3.301 -0.9170 -1.9430  3.6240
 4886TIP3   OH214663   5.742   5.429   1.731  0.7064 -0.1640 -0.3806
 4886TIP3    H114664   5.809   5.374   1.691  0.6708 -1.1063  0.7991
 4886TIP3    H214665   5.673   5.368   1.757 -0.1284  0.6603 -0.5890
 4887TIP3   OH214666   2.119   3.967   3.339 -0.4370  0.3189  0.2332
 4887TIP3    H114667   2.155   3.983   3.252 -0.2211  0.6372  0.3766
 4887TIP3    H214668   2.175   4.019   3.398 -0.7843  0.3714  0.5223
 4888TIP3   OH214669   0.996   4.428   0.614  0.4898  0.5834  0.4846
 4888TIP3    H114670   1.088   4.452   0.603  0.3139  2.1706  1.9724
 4888TIP3    H214671   0.983   4.429   0.709 -0.8296 -0.6239  0.3478
 4889TIP3   OH214672   1.416   4.808   1.226 -0.1572 -0.0100  0.6690
 4889TIP3    H114673   1.350   4.785   1.161  2.4842 -1.6183 -1.6721
 4889TIP3    H214674   1.438   4.725   1.268  2.9328 -0.3635 -1.3208
 4890TIP3   OH214675   4.707   0.760   2.661 -0.2946 -0.2477 -0.4089
 4890TIP3    H114676   4.754   0.680   2.637  0.6659 -0.6054  2.3186
 4890TIP3    H214677   4.655   0.782   2.583 -0.0453 -3.0980 -1.4959
 4891TIP3   OH214678   5.334   1.438   3.084 -0.2914  0.4877 -0.0168
 4891TIP3    H114679   5.243   1.431   3.114  0.0467 -2.1043  0.6798
 4891TIP3    H214680   5.329   1.432   2.989 -0.8285 -0.1929  0.0477
 4892TIP3   OH214681   5.790   0.022   3.872  0.3165 -0.6439 -0.1999
 4892TIP3    H114682   5.818   0.022   3.781  1.3866 -3.7278 -0.0085
 4892TIP3    H214683   5.872   0.029   3.922  0.0262 -1.7484  0.4623
 4893TIP3   OH214684   0.106   2.357   3.072 -0.5361 -0.3560  0.2227
 4893TIP3    H114685   0.066   2.438   3.101 -1.0794 -0.0042 -1.4139
 4893TIP3    H214686   0.117   2.367   2.977  0.6820 -1.6311  0.1885
 4894TIP3   OH214687   6.194   2.134   0.112  0.0250  0.6540  0.4939
 4894TIP3    H114688   6.234   2.098   0.033  0.2140 -1.9444  1.6797
 4894TIP3    H214689   6.105   2.157   0.086  0.4382  0.9208 -0.7424
 4895TIP3   OH214690   2.346   0.244   4.625 -0.3715 -0.1903  0.7159
 4895TIP3    H114691   2.286   0.214   4.558 -0.8934  1.3757  0.4356
 4895TIP3    H214692   2.322   0.336   4.639  1.1205  0.1101  1.5121
 4896TIP3   OH214693   2.539   2.559   2.738 -0.0925 -0.0759 -0.2356
 4896TIP3    H114694   2.632   2.569   2.762  0.8525 -0.2424 -3.3552
 4896TIP3    H214695   2.518   2.641   2.693 -1.5820  0.0850  0.7246
 4897TIP3   OH214696   2.548   2.117   2.820 -0.0034  0.8560  0.1511
 4897TIP3    H114697   2.627   2.169   2.834  0.3135  0.7238 -1.0023
 4897TIP3    H214698   2.568   2.065   2.742 -1.3803  1.1501 -0.4284
 4898TIP3   OH214699   5.173   5.200   4.619  0.4637 -0.6194  0.3874
 4898TIP3    H114700   5.159   5.280   4.568  0.5454  0.2505  1.6814
 4898TIP3    H214701   5.266   5.181   4.608  0.2323 -1.1659 -0.7830
 4899TIP3   OH214702   5.135   1.983   4.363  0.0293  0.4115 -0.1030
 4899TIP3    H114703   5.041   1.968   4.351 -0.0116  0.7381 -0.1818
 4899TIP3    H214704   5.163   1.912   4.422 -0.5210  1.0447  0.9581
 4900TIP3   OH214705   1.794   2.516   2.701 -0.1706  0.3659 -0.1370
 4900TIP3    H114706   1.744   2.489   2.624 -0.5655 -0.6209  0.4624
 4900TIP3    H214707   1.744   2.589   2.738  0.2428  1.1331 -1.0368
 4901TIP3   OH214708   4.438   3.017   2.889 -0.4044 -0.1187  0.0055
 4901TIP3    H114709   4.369   2.994   2.951 -1.7744  1.4785 -0.8352
 4901TIP3    H214710   4.481   3.092   2.929  0.7945 -1.0302  0.4625
 4902TIP3   OH214711   3.441   0.841   2.424  0.5765 -0.2610 -0.3656
 4902TIP3    H114712   3.411   0.895   2.351  1.2273  0.1704 -0.3294
 4902TIP3    H214713   3.505   0.781   2.386  1.6039  0.5704 -0.0264
 4903TIP3   OH214714   6.085   2.063   4.465 -0.6857 -0.7601 -0.6738
 4903TIP3    H114715   6.114   2.061   4.556  0.2494 -2.6771 -0.9758
 4903TIP3    H214716   6.118   2.147   4.432  1.0142 -1.0652  0.1353
 4904TIP3   OH214717   5.108   4.022   2.713  0.2012 -0.1750  0.2495
 4904TIP3    H114718   5.067   3.968   2.780  1.6258 -1.0954  0.4358
 4904TIP3    H214719   5.199   4.031   2.742  0.0934  2.1229  0.0681
 4905TIP3   OH214720   5.585   2.301   4.381  0.1567 -0.5558  0.1394
 4905TIP3    H114721   5.667   2.252   4.381 -1.1996 -2.9947  0.7606
 4905TIP3    H214722   5.544   2.280   4.297 -0.0167  0.3430 -0.0119
 4906TIP3   OH214723   1.190   3.779   5.119 -0.3012 -0.2506  0.3175
 4906TIP3    H114724   1.117   3.837   5.141  0.0785  0.7704 -0.9663
 4906TIP3    H214725   1.208   3.732   5.200  0.4220  2.6140  1.9870
 4907TIP3   OH214726   1.911   3.322   4.135  0.0509 -0.7549 -0.3897
 4907TIP3    H114727   1.847   3.297   4.068  2.9958 -1.0246 -3.3908
 4907TIP3    H214728   1.913   3.248   4.195 -2.1228 -0.8694 -0.3814
 4908TIP3   OH214729   2.318   5.704   0.475  0.1950 -0.4095 -0.0471
 4908TIP3    H114730   2.312   5.737   0.564 -2.2189  1.9537 -0.9112
 4908TIP3    H214731   2.276   5.618   0.477 -1.4149  0.3452  0.8760
 4909TIP3   OH214732   2.207   5.777   4.953  0.2782  0.0721  0.2425
 4909TIP3    H114733   2.115   5.772   4.925 -0.3468  0.7203  2.0101
 4909TIP3    H214734   2.231   5.868   4.940  0.6959 -0.1118 -0.2772
 4910TIP3   OH214735   3.167   0.208   2.285  0.2790  0.1392 -0.1807
 4910TIP3    H114736   3.144   0.261   2.361 -1.3914  0.9513 -1.1921
 4910TIP3    H214737   3.253   0.240   2.259  0.1988  0.9102  0.4567
 4911TIP3   OH214738   1.739   5.041   3.881 -0.5828  0.3848  0.0754
 4911TIP3    H114739   1.715   5.128   3.914  0.7233  0.4975  0.7667
 4911TIP3    H214740   1.749   5.054   3.786 -1.3017  0.7627  0.0373
 4912TIP3   OH214741   4.059   4.476   5.012 -0.1730 -0.0519  0.2880
 4912TIP3    H114742   4.098   4.511   4.931  0.0090 -1.3056 -0.1973
 4912TIP3    H214743   3.971   4.448   4.986  0.8329 -3.1406 -0.3048
 4913TIP3   OH214744   5.582   0.616   1.904 -0.6270  0.5922 -0.6399
 4913TIP3    H114745   5.535   0.534   1.918  1.6082 -0.2643  3.0173
 4913TIP3    H214746   5.640   0.598   1.831  2.5713 -2.6829  2.3135
 4914TIP3   OH214747   0.090   0.965   3.755 -0.4388  0.1179  0.0183
 4914TIP3    H114748   0.159   0.997   3.696 -0.6248  0.5913  0.0538
 4914TIP3    H214749   0.090   1.027   3.827 -1.0657  0.2572 -0.1000
 4915TIP3   OH214750   2.522   3.608   0.778 -0.0409 -0.7098  0.3159
 4915TIP3    H114751   2.573   3.597   0.697 -0.6984  0.6444 -0.3101
 4915TIP3    H214752   2.531   3.524   0.823  0.8548 -1.2824 -0.8615
 4916TIP3   OH214753   1.848   5.579   1.855 -0.2084 -0.3528  0.0174
 4916TIP3    H114754   1.801   5.509   1.810  0.4465 -2.6210  2.5493
 4916TIP3    H214755   1.791   5.602   1.929  0.5806  0.2307  0.4555
 4917TIP3   OH214756   1.865   2.037   3.396  0.1554  0.3960  0.0193
 4917TIP3    H114757   1.796   2.075   3.450 -0.2463 -2.1645  1.5140
 4917TIP3    H214758   1.820   2.003   3.319 -0.1474 -0.3865  0.5227
 4918TIP3   OH214759   3.267   3.409   2.225 -0.0197  0.0307  0.6184
 4918TIP3    H114760   3.338   3.397   2.287 -0.8814 -0.1750  1.5887
 4918TIP3    H214761   3.307   3.393   2.139  0.8189 -1.3225  1.2315
 4919TIP3   OH214762   6.038   2.028   4.958  0.5360 -0.1406 -0.2050
 4919TIP3    H114763   6.000   2.014   5.044  1.4354 -1.2661  0.0274
 4919TIP3    H214764   5.973   1.993   4.897  0.4561 -0.5023  0.0873
 4920TIP3   OH214765   1.857   5.127   0.732  0.0137 -0.3427 -0.2226
 4920TIP3    H114766   1.779   5.175   0.703  0.0332 -0.0890  0.1323
 4920TIP3    H214767   1.826   5.038   0.749  0.0951 -0.6121 -1.4400
 4921TIP3   OH214768   1.526   5.890   4.347  0.0290 -1.1255  0.0657
 4921TIP3    H114769   1.543   5.934   4.264 -2.0765  0.5951  0.4655
 4921TIP3    H214770   1.601   5.913   4.402  0.3833 -0.4671 -0.6751
 4922TIP3   OH214771   3.325   3.668   4.199 -0.3534 -0.5376 -0.4027
 4922TIP3    H114772   3.415   3.646   4.223 -0.0594  1.4753  0.5243
 4922TIP3    H214773   3.274   3.592   4.226  0.9927 -1.5605 -0.6011
 4923TIP3   OH214774   1.422   4.558   0.040 -0.2678 -0.3129 -0.3762
 4923TIP3    H114775   1.449   4.470   0.069 -0.0094 -0.7387 -1.8142
 4923TIP3    H214776   1.433   4.556  -0.055  0.5464  1.5516 -0.3740
 4924TIP3   OH214777   0.613   2.044   0.518  0.0961  1.3948  0.1265
 4924TIP3    H114778   0.569   1.960   0.528  0.3022  0.8584 -2.7218
 4924TIP3    H214779   0.671   2.050   0.594  1.0066 -1.6311 -0.2141
 4925TIP3   OH214780   1.908   5.455   3.366 -0.1981  0.6479  0.1165
 4925TIP3    H114781   1.953   5.538   3.351  0.2240  0.3183 -0.4853
 4925TIP3    H214782   1.923   5.405   3.285  0.1553 -0.2869  0.7459
 4926TIP3   OH214783   0.295   3.511   4.487  0.5829  0.2863  0.2204
 4926TIP3    H114784   0.212   3.532   4.444 -0.2181 -0.1536  1.5017
 4926TIP3    H214785   0.350   3.588   4.473 -0.3654  0.9648  0.1543
 4927TIP3   OH214786   5.957   0.457   2.629 -0.4232 -0.1082 -0.7171
 4927TIP3    H114787   6.039   0.421   2.594 -0.0472 -1.1953  1.1333
 4927TIP3    H214788   5.980   0.547   2.653 -0.1940  0.0674 -1.5583
 4928TIP3   OH214789   6.157   1.874   4.014 -0.3539 -0.2138  0.1758
 4928TIP3    H114790   6.090   1.819   4.054  1.4276 -0.4511  3.1139
 4928TIP3    H214791   6.176   1.833   3.930 -3.5476 -0.3199 -0.6179
 4929TIP3   OH214792   0.640   5.588   1.642 -0.3865  0.2554  0.1365
 4929TIP3    H114793   0.586   5.511   1.662 -0.3901  0.3220  0.3958
 4929TIP3    H214794   0.699   5.595   1.718 -0.1519  0.3025 -0.0481
 4930TIP3   OH214795   5.692   4.897   1.421 -0.0714 -0.1304  0.5553
 4930TIP3    H114796   5.631   4.829   1.451  1.5266 -1.5914  0.6715
 4930TIP3    H214797   5.748   4.914   1.497  0.0442  0.7480  0.2848
 4931TIP3   OH214798   5.684   3.562   4.439  0.0986  0.9112 -0.1535
 4931TIP3    H114799   5.749   3.492   4.433  0.5290  1.2200  0.6501
 4931TIP3    H214800   5.711   3.625   4.373 -0.8308 -0.0895 -1.5281
 4932TIP3   OH214801   6.003   2.017   3.755 -0.1757  0.0007  0.0707
 4932TIP3    H114802   6.078   2.009   3.814 -1.1094  1.3966  1.5380
 4932TIP3    H214803   5.934   1.966   3.798 -0.6773  0.4808 -0.1514
 4933TIP3   OH214804   1.221   4.740   2.761 -0.1950 -0.3559 -0.1293
 4933TIP3    H114805   1.260   4.774   2.842  0.6793 -0.7173 -0.3820
 4933TIP3    H214806   1.172   4.663   2.788 -2.8273  1.4373  0.5741
 4934TIP3   OH214807   5.762   0.895   0.300 -0.3823  0.6591  0.8106
 4934TIP3    H114808   5.717   0.980   0.301 -0.4083  0.6636  2.8030
 4934TIP3    H214809   5.773   0.873   0.392  1.2871 -0.6509  0.3366
 4935TIP3   OH214810   2.540   3.600   2.035  0.2580 -0.1005  1.1658
 4935TIP3    H114811   2.449   3.573   2.027  0.0648  1.0625 -1.5167
 4935TIP3    H214812   2.540   3.693   2.014  2.0246  0.0241  1.5490
 4936TIP3   OH214813   2.087   5.685   2.953 -0.4063  0.4502  0.0888
 4936TIP3    H114814   2.118   5.615   2.896 -1.1370  0.3025 -0.1405
 4936TIP3    H214815   2.029   5.738   2.897  0.7466  1.7147  0.0320
 4937TIP3   OH214816   5.645   1.483   2.037 -0.3676 -0.2711  0.1145
 4937TIP3    H114817   5.578   1.427   1.997  0.0738 -0.8738  0.2007
 4937TIP3    H214818   5.727   1.437   2.020 -0.0836 -0.0841  0.9536
 4938TIP3   OH214819   2.236   4.896   2.260  0.2117  0.3877  0.2174
 4938TIP3    H114820   2.228   4.986   2.292 -1.3202 -0.5849  2.8671
 4938TIP3    H214821   2.253   4.905   2.166  0.2925  3.4159  0.4365
 4939TIP3   OH214822   3.889   4.151   5.053 -0.0476  0.6609  0.1813
 4939TIP3    H114823   3.868   4.134   5.144 -1.6260  1.3556 -0.0166
 4939TIP3    H214824   3.984   4.149   5.049  0.0936  1.6305  2.0514
 4940TIP3   OH214825   1.996   1.828   4.504 -0.3972  0.1122 -0.4326
 4940TIP3    H114826   1.917   1.849   4.454 -1.0523 -1.6937 -0.2525
 4940TIP3    H214827   1.984   1.872   4.588 -1.7841 -0.9910 -0.0000
 4941TIP3   OH214828   4.577   3.027   3.900 -0.1685 -0.5884  0.1167
 4941TIP3    H114829   4.632   3.103   3.920  2.0477 -1.6696 -1.3670
 4941TIP3    H214830   4.609   2.958   3.958  1.0257 -1.5715 -1.5893
 4942TIP3   OH214831   1.569   5.815   1.143 -0.6312  0.2184 -0.9649
 4942TIP3    H114832   1.603   5.849   1.061 -2.8720  1.7014 -1.3611
 4942TIP3    H214833   1.547   5.893   1.194  1.8240 -0.6229  1.6355
 4943TIP3   OH214834   3.389   0.914   4.912  0.1878 -0.1577  0.2401
 4943TIP3    H114835   3.441   0.982   4.954 -0.7041  0.4945  0.3267
 4943TIP3    H214836   3.299   0.933   4.940 -0.4787  0.4306 -2.0935
 4944TIP3   OH214837   3.104   1.350   0.749  0.4803 -0.0051  0.0284
 4944TIP3    H114838   3.168   1.294   0.792 -1.1636 -1.5686  0.5684
 4944TIP3    H214839   3.124   1.344   0.656  1.1956 -0.3598  0.2046
 4945TIP3   OH214840   6.171   5.931   4.135 -0.1736 -0.4104 -0.0896
 4945TIP3    H114841   6.101   5.903   4.077 -0.4523  0.2187 -0.0610
 4945TIP3    H214842   6.170   6.027   4.131  1.6530 -0.3980 -1.2586
 4946TIP3   OH214843   4.076   3.727   1.980  0.1323  0.2250 -0.0245
 4946TIP3    H114844   4.163   3.764   1.995 -0.6048  2.8865 -1.6298
 4946TIP3    H214845   4.041   3.711   2.068  1.6227  0.6294  0.6727
 4947TIP3   OH214846   2.966   4.719   1.773  0.5539 -0.0514  0.7015
 4947TIP3    H114847   3.023   4.758   1.707 -0.2640 -0.9831 -0.5920
 4947TIP3    H214848   2.882   4.709   1.730  0.3134 -1.8057  1.4780
 4948TIP3   OH214849   5.505   3.940   3.184  0.2632  0.8447  0.0269
 4948TIP3    H114850   5.487   4.033   3.199 -0.5018  0.5883  0.8059
 4948TIP3    H214851   5.427   3.908   3.138  1.7176  1.1783 -2.9230
 4949TIP3   OH214852   1.445   0.141   1.440 -0.4775 -0.2791 -0.3434
 4949TIP3    H114853   1.525   0.187   1.464 -1.1642 -0.4983  2.7709
 4949TIP3    H214854   1.472   0.049   1.432 -0.4937 -0.4853  1.5432
 4950TIP3   OH214855   5.392   4.114   5.041  0.0318  0.2935 -0.4953
 4950TIP3    H114856   5.463   4.158   5.086  0.1135 -0.9175  0.6163
 4950TIP3    H214857   5.434   4.066   4.970  0.7103 -2.0941  1.3778
 4951TIP3   OH214858   1.531   3.667   4.949  0.0570  0.8123 -0.2222
 4951TIP3    H114859   1.447   3.626   4.927 -0.4083  0.5180  1.8643
 4951TIP3    H214860   1.527   3.678   5.044  3.5990 -1.9487  0.4240
 4952TIP3   OH214861   2.975   2.203   0.843 -1.0601 -0.0651 -0.4402
 4952TIP3    H114862   3.066   2.223   0.861 -0.8461 -2.3865  1.5402
 4952TIP3    H214863   2.936   2.287   0.818  1.0429  1.4554  1.0812
 4953TIP3   OH214864   2.233   0.261   2.541 -0.3472  0.0178 -0.2906
 4953TIP3    H114865   2.255   0.337   2.594  0.8875 -0.5845  0.0952
 4953TIP3    H214866   2.182   0.205   2.600  1.1636 -0.7267  0.3567
 4954TIP3   OH214867   1.726   4.903   0.717  0.2206  0.1335 -0.2081
 4954TIP3    H114868   1.647   4.957   0.708 -0.1606 -0.2559  0.7047
 4954TIP3    H214869   1.693   4.817   0.744  0.9846  0.0640  0.5323
 4955TIP3   OH214870   4.613   5.306   0.819  0.5031 -0.2768  0.4448
 4955TIP3    H114871   4.657   5.267   0.895  1.0516  0.2289  0.3966
 4955TIP3    H214872   4.685   5.330   0.761  0.3534  2.4487  1.2533
 4956TIP3   OH214873   3.829   4.259   0.437  0.1523  0.8072 -0.4898
 4956TIP3    H114874   3.892   4.189   0.452 -2.1247 -1.6575 -1.6501
 4956TIP3    H214875   3.854   4.297   0.353 -1.3203 -1.9902 -2.3340
 4957TIP3   OH214876   3.983   0.060   0.107 -0.5552 -0.2958  0.6853
 4957TIP3    H114877   3.960  -0.018   0.158 -0.4902 -0.2570  0.7719
 4957TIP3    H214878   3.984   0.131   0.170 -0.1439 -0.3047  0.6904
 4958TIP3   OH214879   5.212   2.915   4.049 -0.1093  0.4783  0.2739
 4958TIP3    H114880   5.261   2.833   4.048 -1.2054 -0.2178  1.1023
 4958TIP3    H214881   5.245   2.962   4.126  1.0148  1.1547 -0.5944
 4959TIP3   OH214882   3.539   2.090   1.283  0.3119  0.2046  0.5018
 4959TIP3    H114883   3.517   2.032   1.210  0.1238 -1.2541  1.6715
 4959TIP3    H214884   3.502   2.175   1.257  0.5994 -0.1614 -1.2579
 4960TIP3   OH214885   4.118   3.873   0.097 -0.6125  0.2092 -0.5705
 4960TIP3    H114886   4.133   3.957   0.052 -2.6235  0.7413 -0.3625
 4960TIP3    H214887   4.156   3.808   0.038  0.6889  1.2180 -0.9136
 4961TIP3   OH214888   0.549   1.959   2.476  0.3639 -0.3234 -0.4102
 4961TIP3    H114889   0.580   1.875   2.442  0.6525  0.7887 -3.1718
 4961TIP3    H214890   0.612   2.023   2.442 -1.0916  1.2304 -0.3107
 4962TIP3   OH214891   2.352   0.154   2.991  0.5243  0.3349  0.8109
 4962TIP3    H114892   2.356   0.228   3.051 -0.5999  1.1500 -0.0615
 4962TIP3    H214893   2.264   0.117   3.005  0.9737 -0.6763  1.0418
 4963TIP3   OH214894   6.289   5.145   3.023  0.2454 -0.4781  0.3078
 4963TIP3    H114895   6.382   5.146   3.002 -0.0095 -0.6402 -0.9176
 4963TIP3    H214896   6.251   5.084   2.961 -0.9970  1.1994 -0.6721
 4964TIP3   OH214897   2.141   3.498   4.836 -0.4644  0.2977  0.2253
 4964TIP3    H114898   2.205   3.430   4.816 -0.0139  0.8488 -0.2335
 4964TIP3    H214899   2.080   3.496   4.762 -0.8383 -0.0645  0.5439
 4965TIP3   OH214900   4.708   2.089   2.210  0.1338  0.2089  0.1843
 4965TIP3    H114901   4.664   2.005   2.218 -0.3917  0.6272  1.9931
 4965TIP3    H214902   4.727   2.097   2.116  0.3743 -1.9884  0.0027
 4966TIP3   OH214903   4.082   4.881   1.835  0.4606  0.0859 -0.0738
 4966TIP3    H114904   4.100   4.974   1.854 -0.6444  0.3072 -0.0278
 4966TIP3    H214905   3.988   4.878   1.820  0.7312 -0.7299 -1.8537
 4967TIP3   OH214906   5.264   4.795   1.415  0.4762 -0.2992  0.6557
 4967TIP3    H114907   5.275   4.715   1.364  0.3519  1.2834 -2.0036
 4967TIP3    H214908   5.335   4.852   1.386 -0.2597  1.0842  1.4502
 4968TIP3   OH214909   5.949   4.599   0.480 -0.1067  0.1575 -0.1467
 4968TIP3    H114910   5.921   4.689   0.496  0.1230  0.1162  0.5308
 4968TIP3    H214911   6.001   4.604   0.399 -1.6497  0.3056 -1.1729
 4969TIP3   OH214912   3.975   2.769   4.016  0.5282  0.1212 -1.0089
 4969TIP3    H114913   4.059   2.735   3.986 -0.5927 -2.3098 -1.6057
 4969TIP3    H214914   3.927   2.788   3.936 -0.7731 -1.9745 -0.7994
 4970TIP3   OH214915   4.981   5.376   3.938  0.4508  0.1861 -0.1748
 4970TIP3    H114916   5.060   5.413   3.900  1.2826 -2.4192 -1.2500
 4970TIP3    H214917   4.944   5.323   3.867  0.0787 -2.0190  1.5662
 4971TIP3   OH214918   2.445   5.963   2.655  0.4949 -0.1473 -0.5990
 4971TIP3    H114919   2.526   5.979   2.704  0.9346 -1.4011 -0.8983
 4971TIP3    H214920   2.381   5.940   2.722  0.4213  0.6608 -0.3801
 4972TIP3   OH214921   0.779   3.007   4.771  0.3485 -0.3156 -0.4491
 4972TIP3    H114922   0.689   3.039   4.772  0.6769  0.6480  1.0124
 4972TIP3    H214923   0.793   2.971   4.859  1.6815  0.4392 -0.3280
 4973TIP3   OH214924   5.711   5.087   0.239  0.5836  0.1867  0.5373
 4973TIP3    H114925   5.805   5.070   0.227  0.6586  0.7153  0.3436
 4973TIP3    H214926   5.708   5.161   0.300  0.2947  0.2161  0.4883
 4974TIP3   OH214927   0.034   5.561   0.714 -0.4192  0.0327  0.1783
 4974TIP3    H114928   0.088   5.482   0.704 -1.4937 -0.6838 -0.1254
 4974TIP3    H214929   0.080   5.614   0.779  1.2243 -0.0480 -0.8492
 4975TIP3   OH214930   6.128   5.016   1.754  0.5387 -0.3128 -0.1529
 4975TIP3    H114931   6.194   5.086   1.760 -0.2709  0.4610 -0.0974
 4975TIP3    H214932   6.124   4.980   1.843  0.3766  0.1156  0.0155
 4976TIP3   OH214933   5.784   5.136   2.774 -0.2624 -0.3864  0.3296
 4976TIP3    H114934   5.851   5.138   2.843 -0.0492  0.1238  0.1105
 4976TIP3    H214935   5.747   5.224   2.775 -0.8815 -0.6467  0.3987
 4977TIP3   OH214936   5.536   0.571   2.652  0.8807  0.3521 -0.2814
 4977TIP3    H114937   5.476   0.638   2.620  0.9174 -0.0306 -1.1859
 4977TIP3    H214938   5.489   0.527   2.723 -0.2897 -0.5309 -1.5551
 4978TIP3   OH214939   2.957   3.807   4.735 -0.1712 -0.1442 -0.1816
 4978TIP3    H114940   2.896   3.788   4.806 -0.0166  1.2222  0.3461
 4978TIP3    H214941   2.902   3.817   4.657 -0.3801 -1.2418 -0.1812
 4979TIP3   OH214942   3.416   4.329   3.723 -0.5250 -0.1282 -0.2425
 4979TIP3    H114943   3.385   4.239   3.731 -2.2779  0.3994 -0.7525
 4979TIP3    H214944   3.509   4.324   3.745 -0.6914 -1.9755  0.2048
 4980TIP3   OH214945   5.119   0.489   3.641  0.7033  0.0902  0.3426
 4980TIP3    H114946   5.055   0.465   3.708 -0.7009  0.2754 -0.8845
 4980TIP3    H214947   5.161   0.568   3.675 -0.1958  0.3523  0.8708
 4981TIP3   OH214948   2.189   1.272   2.149 -0.1006 -0.6101 -0.3888
 4981TIP3    H114949   2.232   1.218   2.215 -0.3562  0.0491  0.3436
 4981TIP3    H214950   2.117   1.314   2.197 -0.1288  0.0790 -1.0234
 4982TIP3   OH214951   0.969   4.978   0.749 -0.0776 -0.2564 -0.0743
 4982TIP3    H114952   1.013   4.987   0.833 -0.0873 -2.4528  0.2107
 4982TIP3    H214953   0.897   4.917   0.765  0.9002 -2.0444 -1.9654
 4983TIP3   OH214954   0.700   3.268   1.343  0.3298  0.5591  0.0273
 4983TIP3    H114955   0.728   3.348   1.300  0.9544  0.1695 -0.3113
 4983TIP3    H214956   0.612   3.251   1.308 -0.1434  1.5169  0.7127
 4984TIP3   OH214957   1.094   3.907   2.877 -0.8226  0.5078  0.1843
 4984TIP3    H114958   1.119   3.920   2.968  0.7195  1.6483 -0.3662
 4984TIP3    H214959   1.106   3.813   2.862 -0.6051  0.3967  1.0164
 4985TIP3   OH214960   3.195   0.422   4.967 -0.3427 -0.4333 -0.1107
 4985TIP3    H114961   3.276   0.383   5.001 -0.7357  0.0554  1.4698
 4985TIP3    H214962   3.137   0.427   5.043 -0.6239  2.4253 -0.4092
 4986TIP3   OH214963   4.586   4.414   1.861  0.1294  0.9252  0.2215
 4986TIP3    H114964   4.625   4.480   1.803  1.5580  0.4264  0.5529
 4986TIP3    H214965   4.650   4.343   1.863 -0.2288  0.5921  1.7820
 4987TIP3   OH214966   0.643   4.239   1.552 -0.3315 -0.0718 -0.3538
 4987TIP3    H114967   0.593   4.206   1.627  0.0035  0.5780  0.1552
 4987TIP3    H214968   0.578   4.286   1.499 -1.2947 -3.0616 -2.1200
 4988TIP3   OH214969   0.162   0.612   4.626  0.5945 -0.4836 -0.2645
 4988TIP3    H114970   0.116   0.696   4.631  0.4593 -0.5229 -0.7857
 4988TIP3    H214971   0.120   0.566   4.553  0.9887 -0.8071 -0.2899
 4989TIP3   OH214972   1.571   2.987   1.576 -0.1409  0.1570 -0.1805
 4989TIP3    H114973   1.562   3.015   1.485  1.5732 -1.1435 -0.8026
 4989TIP3    H214974   1.494   2.932   1.592 -0.1051 -0.1699 -1.0852
 4990TIP3   OH214975   1.095   4.919  -0.018  0.0768  0.1743  0.0839
 4990TIP3    H114976   1.081   4.841   0.035 -1.4901  0.3672 -0.0014
 4990TIP3    H214977   1.188   4.940  -0.006  0.9281 -2.5199 -1.0247
 4991TIP3   OH214978   1.854   3.184   2.849 -0.0294  0.5448  0.4203
 4991TIP3    H114979   1.873   3.272   2.882  0.8767  1.0431 -1.2616
 4991TIP3    H214980   1.937   3.137   2.859 -0.5237 -0.1628  1.3552
 4992TIP3   OH214981   1.457   5.227   5.071  0.0732  0.1140  0.5559
 4992TIP3    H114982   1.500   5.284   5.007 -0.0830 -1.4815 -1.0286
 4992TIP3    H214983   1.366   5.256   5.072  0.2656  0.7471  0.7878
 4993TIP3   OH214984   3.302   1.986   0.422  0.1902 -0.3065 -0.0348
 4993TIP3    H114985   3.344   2.035   0.493 -0.8502  0.7079 -0.0961
 4993TIP3    H214986   3.249   1.920   0.467  1.9153 -1.7294  0.0412
 4994TIP3   OH214987   4.187   5.540   0.364  0.3244  0.0949 -0.3092
 4994TIP3    H114988   4.221   5.557   0.452  2.5444  0.8097 -1.2185
 4994TIP3    H214989   4.095   5.519   0.377  0.7237 -0.4082  2.2326
 4995TIP3   OH214990   2.007   5.639   0.502  0.1529  0.4158  0.1813
 4995TIP3    H114991   2.037   5.647   0.412  0.6503  0.0063  0.3088
 4995TIP3    H214992   1.930   5.696   0.507  1.6746  2.5677  0.2114
 4996TIP3   OH214993   4.464   3.228   0.985  0.4133  0.3055 -0.7166
 4996TIP3    H114994   4.458   3.143   1.029  0.4482  0.4258 -0.4785
 4996TIP3    H214995   4.558   3.237   0.965  0.3633  0.1412 -1.0360
 4997TIP3   OH214996   5.347   1.935   4.802  0.4534 -0.5924  0.3268
 4997TIP3    H114997   5.380   1.994   4.734 -0.6964 -0.9130 -0.5460
 4997TIP3    H214998   5.402   1.857   4.795  0.4670 -0.5449 -0.0984
 4998TIP3   OH214999   4.334   3.103   5.127  0.2030 -0.0323  0.2533
 4998TIP3    H115000   4.392   3.169   5.166  0.9306  0.5182 -1.6428
 4998TIP3    H215001   4.254   3.107   5.180  0.2973  2.2548  0.3149
 4999TIP3   OH215002   0.465   4.886   1.696 -0.7461  0.0848  0.1376
 4999TIP3    H115003   0.407   4.953   1.660 -1.8300 -0.7174  0.3258
 4999TIP3    H215004   0.411   4.807   1.700  0.4796 -0.8013 -0.0338
 5000TIP3   OH215005   3.620   0.531   3.982  0.2459 -0.5233 -0.1942
 5000TIP3    H115006   3.669   0.513   4.062 -0.2156  0.7042  0.3849
 5000TIP3    H215007   3.579   0.616   3.997 -0.9575 -0.8896 -1.1985
 5001TIP3   OH215008   3.648   2.997   0.276 -0.4505 -0.7160 -0.3472
 5001TIP3    H115009   3.658   2.903   0.293 -0.3681 -0.5925  0.3194
 5001TIP3    H215010   3.728   3.021   0.228  0.1605 -0.7232  0.6452
 5002TIP3   OH215011   0.765   5.947   3.189  1.1341 -0.1801  0.2267
 5002TIP3    H115012   0.829   6.015   3.168 -0.4432  0.9074 -1.3204
 5002TIP3    H215013   0.806   5.866   3.160  2.4844  0.2515  0.8505
 5003TIP3   OH215014   1.781   3.757   4.318 -0.2266  0.5791 -0.1273
 5003TIP3    H115015   1.818   3.844   4.330 -0.4285  0.7089 -0.4320
 5003TIP3    H215016   1.690   3.773   4.294 -0.3875  0.2721  0.2799
 5004TIP3   OH215017   6.039   2.407   3.372  0.2324  0.2710  0.4408
 5004TIP3    H115018   5.954   2.427   3.411  0.8605 -0.5860  2.3686
 5004TIP3    H215019   6.022   2.403   3.278 -1.0960  3.6898  0.4063
 5005TIP3   OH215020   1.471   0.143   0.492 -0.0425 -0.1793  0.2180
 5005TIP3    H115021   1.504   0.191   0.416  1.9493 -1.0703  0.4477
 5005TIP3    H215022   1.550   0.112   0.537 -1.1852 -0.3523  2.2201
 5006TIP3   OH215023   3.908   3.028   0.149  0.2154 -0.0454  0.2209
 5006TIP3    H115024   3.949   3.030   0.063  0.9725  0.2767  0.5800
 5006TIP3    H215025   3.965   3.081   0.204 -0.7243  0.4632  0.7264
 5007TIP3   OH215026   3.721   1.212   3.582 -0.2441  0.1223 -0.2806
 5007TIP3    H115027   3.703   1.304   3.563 -1.9200 -0.4083 -1.5273
 5007TIP3    H215028   3.712   1.168   3.498  3.3281 -0.8861 -0.3157
 5008TIP3   OH215029   3.739   3.074   0.661 -0.0270  0.1526 -0.2833
 5008TIP3    H115030   3.755   3.158   0.702  1.0903  0.7452 -1.8224
 5008TIP3    H215031   3.814   3.020   0.685  0.0081  0.0909 -0.5274
 5009TIP3   OH215032   3.751  -0.017   4.051 -0.4637  0.0978 -0.8395
 5009TIP3    H115033   3.845  -0.012   4.030 -0.4998 -1.8392 -1.6783
 5009TIP3    H215034   3.715   0.063   4.015  0.8255  0.7391 -0.7747
 5010TIP3   OH215035   6.320   0.968   5.026  0.2779  0.2907 -0.4533
 5010TIP3    H115036   6.229   0.953   5.001  0.3239  2.8805 -2.5972
 5010TIP3    H215037   6.360   1.006   4.948  2.5588  1.5886  1.2408
 5011TIP3   OH215038   3.783   1.768   4.301  0.2378  0.4890  0.3908
 5011TIP3    H115039   3.787   1.711   4.379 -0.6658  0.3773  0.3673
 5011TIP3    H215040   3.845   1.838   4.320 -0.2308  0.6628  1.3815
 5012TIP3   OH215041   3.083   1.858   0.578  0.5585  0.2932  0.3909
 5012TIP3    H115042   2.994   1.875   0.546  0.7379  1.3808  0.4190
 5012TIP3    H215043   3.091   1.763   0.579 -0.2814  0.2002 -0.5130
 5013TIP3   OH215044   1.809   5.872   5.158  0.2447  0.1462 -0.0034
 5013TIP3    H115045   1.864   5.947   5.182 -0.4744  0.4446  0.7181
 5013TIP3    H215046   1.871   5.799   5.150  0.5892  0.1319  2.2991
 5014TIP3   OH215047   1.106   1.254   4.789 -0.6395 -0.1366 -0.3469
 5014TIP3    H115048   1.164   1.229   4.861 -0.2502  0.3014 -0.5057
 5014TIP3    H215049   1.154   1.229   4.710 -1.7115 -2.0443 -0.4451
 5015TIP3   OH215050   3.778   1.346   1.030 -0.0004 -0.0826 -0.2491
 5015TIP3    H115051   3.717   1.334   1.103  0.0091  0.8688 -0.0724
 5015TIP3    H215052   3.789   1.258   0.993 -1.3322 -0.2902 -0.1730
 5016TIP3   OH215053   1.076   0.402   3.566 -0.7172  0.4721  0.2094
 5016TIP3    H115054   1.120   0.347   3.631  1.2040  0.6585 -0.8408
 5016TIP3    H215055   1.115   0.375   3.482 -1.2500  1.9819 -0.5658
 5017TIP3   OH215056   3.383   2.533   3.117  0.4111 -0.5373  0.4115
 5017TIP3    H115057   3.290   2.516   3.135  0.7651  0.6031  4.1433
 5017TIP3    H215058   3.421   2.446   3.108 -0.7265 -1.1021  0.7715
 5018TIP3   OH215059   0.403   3.630   2.846  0.0687  0.1081 -0.2076
 5018TIP3    H115060   0.442   3.663   2.765  0.8369  0.7620  0.4128
 5018TIP3    H215061   0.354   3.704   2.882  3.5821  1.4977  2.3303
 5019TIP3   OH215062   2.319   5.008   1.043 -0.4905 -0.6780  0.0575
 5019TIP3    H115063   2.237   5.013   0.992 -0.4523  0.9176  0.0988
 5019TIP3    H215064   2.388   5.012   0.977 -0.4433 -1.2635  0.0710
 5020TIP3   OH215065   4.881   2.541   2.688  0.0390 -0.4132 -0.2423
 5020TIP3    H115066   4.830   2.484   2.746 -0.2457  0.3312  0.2519
 5020TIP3    H215067   4.907   2.484   2.616  0.6410 -1.4281  0.7444
 5021TIP3   OH215068   5.910   5.686   4.464 -0.0629  0.6575 -0.1770
 5021TIP3    H115069   5.962   5.766   4.468  0.9385  0.0002  0.2189
 5021TIP3    H215070   5.949   5.635   4.393  0.9821 -0.5860  1.2070
 5022TIP3   OH215071   2.721   3.555   3.159 -0.0450  0.4346 -0.0568
 5022TIP3    H115072   2.683   3.471   3.185 -0.0222  0.1716 -0.8413
 5022TIP3    H215073   2.794   3.567   3.219  0.5716 -0.6130 -0.5578
 5023TIP3   OH215074   4.275   1.305   0.464  0.0306  0.1183  0.4685
 5023TIP3    H115075   4.180   1.318   0.453 -0.0857 -0.6817  0.4469
 5023TIP3    H215076   4.308   1.291   0.375 -0.1658 -1.6065  0.6201
 5024TIP3   OH215077   0.011   3.980   2.901 -0.5787 -0.3683 -0.1076
 5024TIP3    H115078   0.106   3.974   2.912 -0.5831 -0.4307 -0.1038
 5024TIP3    H215079  -0.025   3.916   2.963 -0.5793 -1.1976 -0.9550
 5025TIP3   OH215080   4.963   3.118   0.977 -0.5306 -0.2100  0.2088
 5025TIP3    H115081   5.046   3.156   0.948 -0.4576 -0.9490 -0.5749
 5025TIP3    H215082   4.951   3.153   1.066  0.4208  0.2038  0.1923
 5026TIP3   OH215083   2.039   4.188   0.533 -0.0571  0.4080  0.1700
 5026TIP3    H115084   1.950   4.224   0.532 -1.2999 -2.2593  2.1247
 5026TIP3    H215085   2.062   4.182   0.626  1.0350 -1.4607 -0.1709
 5027TIP3   OH215086   4.283   3.119   0.071 -0.0296  0.0724 -0.0657
 5027TIP3    H115087   4.267   3.085   0.158  0.0395 -0.9189 -0.4325
 5027TIP3    H215088   4.378   3.114   0.060 -0.0401  0.1653 -0.2170
 5028TIP3   OH215089   6.250   4.288   4.130 -0.1232  0.2790 -0.1712
 5028TIP3    H115090   6.189   4.276   4.058  0.5158 -0.2582 -0.6409
 5028TIP3    H215091   6.307   4.359   4.101 -1.5336  1.9482  0.9796
 5029TIP3   OH215092   5.307   0.174   1.878  0.1136  0.0339  0.1228
 5029TIP3    H115093   5.293   0.155   1.971 -0.8147  0.3023  0.0496
 5029TIP3    H215094   5.292   0.090   1.834 -0.7181  0.1773  0.1080
 5030TIP3   OH215095   1.366   1.468   1.296 -0.0236  0.0398  0.1534
 5030TIP3    H115096   1.436   1.426   1.247  2.6454  1.8890  2.1153
 5030TIP3    H215097   1.295   1.479   1.232  1.5013 -1.7257 -1.9712
 5031TIP3   OH215098   2.211   2.252   4.974  0.0923 -0.6680 -0.0815
 5031TIP3    H115099   2.265   2.221   5.047  0.6637 -0.2840 -0.3309
 5031TIP3    H215100   2.184   2.340   5.001 -1.3911 -1.2717  0.5552
 5032TIP3   OH215101   2.068   4.066   3.063  0.6861  0.4023 -0.0721
 5032TIP3    H115102   2.065   4.143   3.119  1.0262  0.5938 -0.3139
 5032TIP3    H215103   1.976   4.042   3.051  0.6416 -0.6329  1.9069
 5033TIP3   OH215104   0.619   2.471   2.700  0.0863 -0.0302  0.1714
 5033TIP3    H115105   0.619   2.557   2.657 -2.2650 -0.3688 -0.6554
 5033TIP3    H215106   0.660   2.413   2.636  1.1969  0.3388  0.5160
 5034TIP3   OH215107   0.674   4.728   3.860 -0.4004 -0.7193 -0.5455
 5034TIP3    H115108   0.685   4.704   3.768 -0.7271 -3.0155 -0.0277
 5034TIP3    H215109   0.649   4.647   3.904  0.4374  0.1700  1.7165
 5035TIP3   OH215110   0.607   4.481   3.945 -0.0908  0.0385 -0.0243
 5035TIP3    H115111   0.517   4.489   3.915 -0.2885  0.2121  0.6017
 5035TIP3    H215112   0.601   4.477   4.041  0.5111 -0.7174 -0.0072
 5036TIP3   OH215113   1.894   1.245   2.260  0.9400 -0.2382 -0.0064
 5036TIP3    H115114   1.810   1.219   2.222  1.7881  1.0454 -3.1191
 5036TIP3    H215115   1.878   1.333   2.295  0.4803 -0.8911  1.4766
 5037TIP3   OH215116   0.932   3.969   1.292  0.3661  0.2312 -0.0299
 5037TIP3    H115117   0.843   3.936   1.279  0.3279 -0.0948  1.0112
 5037TIP3    H215118   0.989   3.900   1.258  0.2471 -0.1029  0.4472
 5038TIP3   OH215119   3.842   0.909   0.014  0.1572  0.4242 -0.0505
 5038TIP3    H115120   3.813   0.956   0.092 -0.7677 -1.1956  0.6102
 5038TIP3    H215121   3.873   0.825   0.046  2.2034  0.6851 -1.1751
 5039TIP3   OH215122   3.692   2.576   3.430  0.4975  0.7792  0.0282
 5039TIP3    H115123   3.655   2.616   3.509 -1.1546  1.0977 -0.8839
 5039TIP3    H215124   3.638   2.499   3.415  0.0707  1.3356 -1.4144
 5040TIP3   OH215125   3.198   2.878   2.812 -0.4747  0.2904 -0.0420
 5040TIP3    H115126   3.178   2.961   2.855 -1.4815  0.1052 -0.1162
 5040TIP3    H215127   3.268   2.840   2.865 -0.4330  0.9038  0.3536
 5041TIP3   OH215128   5.606   1.417   2.894 -0.8305 -0.3661 -0.1242
 5041TIP3    H115129   5.606   1.353   2.965  1.5418 -0.4496 -0.1174
 5041TIP3    H215130   5.629   1.500   2.937 -0.3985 -0.2116 -0.6494
 5042TIP3   OH215131   0.695   4.970   4.044  0.2631 -0.2807 -0.4329
 5042TIP3    H115132   0.759   4.904   4.018  0.5059  0.3228 -1.4173
 5042TIP3    H215133   0.619   4.920   4.073  0.5673 -0.9959 -0.8537
 5043TIP3   OH215134   4.371   5.763   2.748  0.2130  0.0556  0.1754
 5043TIP3    H115135   4.355   5.751   2.654  1.0669  1.6288 -0.1985
 5043TIP3    H215136   4.466   5.760   2.757  0.1141 -2.0580  1.3276
 5044TIP3   OH215137   4.086   5.315   0.783  0.1021 -0.3778  0.4031
 5044TIP3    H115138   4.178   5.340   0.790 -0.3038  0.7960  2.1173
 5044TIP3    H215139   4.058   5.352   0.699  1.3602 -1.4886 -0.5565
 5045TIP3   OH215140   2.900   4.292   2.691  0.0599  0.7819 -0.4274
 5045TIP3    H115141   2.861   4.298   2.604  0.8076  2.3371 -0.7008
 5045TIP3    H215142   2.953   4.372   2.699  1.2084 -0.0549  0.8693
 5046TIP3   OH215143   5.751   0.372   1.953 -0.3340  0.0216 -0.2053
 5046TIP3    H115144   5.780   0.458   1.984  1.1640 -0.2180 -0.8471
 5046TIP3    H215145   5.745   0.319   2.033  0.4852  0.2428  0.0114
 5047TIP3   OH215146   4.115   3.578   3.259  0.5268 -1.0568  0.2474
 5047TIP3    H115147   4.171   3.653   3.240 -0.5150 -0.7485 -1.8177
 5047TIP3    H215148   4.161   3.503   3.221 -0.1227 -0.8975 -0.8864
 5048TIP3   OH215149   1.773   4.777   2.764  0.0870  0.6312 -0.2095
 5048TIP3    H115150   1.830   4.724   2.820  0.1595  0.0728 -0.7986
 5048TIP3    H215151   1.833   4.835   2.717  0.5023 -1.6432 -2.6832
 5049TIP3   OH215152   1.023   3.292   1.962  1.1104  0.6101 -0.2979
 5049TIP3    H115153   1.010   3.220   1.900  0.1786  0.9866 -0.5611
 5049TIP3    H215154   1.004   3.254   2.047 -0.1781  0.7120 -0.5121
 5050TIP3   OH215155   1.577   2.912   3.837  0.1712 -0.1762 -0.5263
 5050TIP3    H115156   1.614   2.890   3.922  1.2179 -0.6097 -1.0770
 5050TIP3    H215157   1.483   2.912   3.852  0.3525  1.9096  1.1460
 5051TIP3   OH215158   1.490   0.032   2.934  0.4384  0.3533  0.2990
 5051TIP3    H115159   1.428   0.028   2.861 -0.7715  3.0457  1.0864
 5051TIP3    H215160   1.459   0.104   2.989  3.5433  1.0099  1.4007
 5052TIP3   OH215161   2.397   3.280   4.904  0.5838 -0.3746  0.1179
 5052TIP3    H115162   2.467   3.216   4.906  0.7263 -0.2164  1.6133
 5052TIP3    H215163   2.395   3.317   4.993 -0.7128  0.3532 -0.1745
 5053TIP3   OH215164   0.792   2.049   2.389 -0.0740 -0.1039  0.1741
 5053TIP3    H115165   0.768   2.000   2.311  1.6820  0.4054 -0.7383
 5053TIP3    H215166   0.850   1.990   2.438  0.1398  0.1883  0.2739
 5054TIP3   OH215167   4.389   2.045   2.038  0.3021  0.0563 -0.2632
 5054TIP3    H115168   4.342   2.052   1.955 -1.8240  1.7786  0.9889
 5054TIP3    H215169   4.368   1.957   2.070 -0.8478  0.2515 -0.4544
 5055TIP3   OH215170   4.099   2.940   4.460  0.1097 -0.0753 -0.1903
 5055TIP3    H115171   4.135   2.851   4.471  1.1851  0.3640 -0.0368
 5055TIP3    H215172   4.173   2.998   4.479 -0.0586  0.8388 -2.1578
 5056TIP3   OH215173   2.552   4.980   2.838 -0.0312 -0.5284 -0.5651
 5056TIP3    H115174   2.625   5.041   2.854  0.4203 -1.3278  0.5593
 5056TIP3    H215175   2.562   4.913   2.906 -1.2872 -1.1497 -0.9735
 5057TIP3   OH215176   2.140   5.835   4.390  0.2820  0.7677  0.0368
 5057TIP3    H115177   2.155   5.928   4.371  1.4214  0.6681  0.3892
 5057TIP3    H215178   2.077   5.835   4.463  0.0078  1.2496 -0.1954
 5058TIP3   OH215179   0.454   0.939   3.734  0.3115  0.7133  0.2591
 5058TIP3    H115180   0.438   1.031   3.711 -0.5477  0.6165  0.4301
 5058TIP3    H215181   0.409   0.928   3.817 -1.2848 -0.3669 -0.6990
 5059TIP3   OH215182   3.427   1.635   5.072 -0.4393  0.0233  0.3254
 5059TIP3    H115183   3.346   1.683   5.092 -0.2249 -0.6147  2.9755
 5059TIP3    H215184   3.497   1.696   5.094 -0.1135  0.4274 -1.5931
 5060TIP3   OH215185   5.869   2.827   2.408  0.5614 -0.0321  0.4407
 5060TIP3    H115186   5.956   2.867   2.397  1.0481 -0.3643  2.6692
 5060TIP3    H215187   5.874   2.746   2.357  0.6111  1.1639 -1.5936
 5061TIP3   OH215188   2.953   0.469   3.489  0.0715  0.2847 -0.3346
 5061TIP3    H115189   2.904   0.539   3.531 -1.4181  0.0366 -1.5740
 5061TIP3    H215190   3.044   0.499   3.491 -0.3013  1.4313  0.7105
 5062TIP3   OH215191   4.689   5.391   1.368 -0.2104 -0.2072 -0.2450
 5062TIP3    H115192   4.748   5.427   1.302 -0.2079  0.7138  0.2326
 5062TIP3    H215193   4.735   5.404   1.451 -1.0734  0.5744  0.1426
 5063TIP3   OH215194   4.862   4.429   4.928  0.0589 -0.0114 -0.1138
 5063TIP3    H115195   4.799   4.437   5.000 -0.7403 -1.1587 -0.6446
 5063TIP3    H215196   4.945   4.457   4.965  0.0137 -2.0940  1.7606
 5064TIP3   OH215197   3.895   3.601   3.052 -0.5105 -0.5557 -0.1249
 5064TIP3    H115198   3.967   3.572   3.108 -1.2026 -0.6820  0.7118
 5064TIP3    H215199   3.920   3.690   3.026  1.0787 -1.4069 -1.7870
 5065TIP3   OH215200   6.198   3.854   4.737 -0.7754 -0.2881 -0.3079
 5065TIP3    H115201   6.192   3.779   4.678  1.5411 -0.7362 -0.0581
 5065TIP3    H215202   6.161   3.927   4.687 -0.6498 -1.0575 -1.5688
 5066TIP3   OH215203   2.265   0.148   0.318  0.3426 -0.0794 -0.1670
 5066TIP3    H115204   2.310   0.134   0.401  0.0596  0.0525  0.0097
 5066TIP3    H215205   2.330   0.125   0.251  1.0951  1.2920  0.0558
 5067TIP3   OH215206   0.131   3.286   2.935  0.3309  0.5310  0.7075
 5067TIP3    H115207   0.209   3.234   2.954  1.1195  0.7169 -1.6604
 5067TIP3    H215208   0.147   3.369   2.979  1.9515  0.8886 -0.4438
 5068TIP3   OH215209   2.089   1.813   0.735 -0.8873 -0.2321 -0.0409
 5068TIP3    H115210   2.019   1.851   0.682  0.8112  1.6823 -1.0816
 5068TIP3    H215211   2.098   1.723   0.703 -0.2516  0.7177 -2.7957
 5069TIP3   OH215212   2.276   2.946   1.959 -0.0463 -0.3756 -0.0215
 5069TIP3    H115213   2.229   3.007   1.904 -0.7439  0.5219  1.5043
 5069TIP3    H215214   2.213   2.921   2.027  0.2365 -2.7562 -0.5376
 5070TIP3   OH215215   3.313   3.405   4.284  0.6085  0.4587 -0.7046
 5070TIP3    H115216   3.401   3.434   4.306  0.8346 -0.6541 -0.0379
 5070TIP3    H215217   3.326   3.327   4.229  0.0533  0.2509 -0.5501
 5071TIP3   OH215218  -0.009   5.344   2.544 -0.0811  0.4950  0.2335
 5071TIP3    H115219   0.009   5.373   2.454  0.0338 -1.4597 -0.4083
 5071TIP3    H215220   0.063   5.381   2.596  0.4616  0.7319 -0.6643
 5072TIP3   OH215221   1.644   1.798   2.536  0.5422 -0.6588  0.6533
 5072TIP3    H115222   1.727   1.753   2.548  1.8325  1.4127  0.1162
 5072TIP3    H215223   1.658   1.885   2.573 -1.7118 -0.5300  1.3778
 5073TIP3   OH215224   0.816   2.374   2.980 -0.4890 -0.4115  0.4877
 5073TIP3    H115225   0.723   2.364   3.003 -0.6610 -0.8553 -0.3425
 5073TIP3    H215226   0.815   2.428   2.901 -0.0337 -0.3225  0.5455
 5074TIP3   OH215227   1.292   0.613   0.297  0.1709  0.0442 -0.1758
 5074TIP3    H115228   1.296   0.600   0.392  0.4532  0.8768 -0.0716
 5074TIP3    H215229   1.203   0.586   0.273 -1.1434  3.0757  0.8372
 5075TIP3   OH215230   5.284   3.358   3.806  0.5055  0.0367 -0.0541
 5075TIP3    H115231   5.199   3.369   3.848  1.6292  1.1676  2.1453
 5075TIP3    H215232   5.314   3.271   3.834  0.1814 -0.2621 -0.6302
 5076TIP3   OH215233   6.132   1.868   3.115  0.1843 -0.1997  0.0768
 5076TIP3    H115234   6.089   1.949   3.144 -1.0427 -0.4287 -0.9985
 5076TIP3    H215235   6.149   1.882   3.021  1.6154 -0.5031  0.2693
 5077TIP3   OH215236   1.866   0.820   0.498  0.0956  0.4571  0.6349
 5077TIP3    H115237   1.931   0.756   0.470 -0.6484 -0.5543  1.1701
 5077TIP3    H215238   1.913   0.876   0.560  0.5918  0.0613  0.6187
 5078TIP3   OH215239   0.543   3.907   2.501 -0.8060  0.1064 -0.2109
 5078TIP3    H115240   0.535   3.945   2.413 -0.7317  0.2762 -0.1446
 5078TIP3    H215241   0.469   3.943   2.550  0.7897  2.3987  0.6681
 5079TIP3   OH215242   3.006   1.806   1.449 -0.4567  0.2732 -0.2039
 5079TIP3    H115243   3.098   1.798   1.422  0.1943 -0.8690  2.1522
 5079TIP3    H215244   2.998   1.898   1.477 -0.0563  0.3831 -0.4333
 5080TIP3   OH215245   6.286   2.718   0.088 -0.1288  0.0786  0.0933
 5080TIP3    H115246   6.215   2.772   0.122 -1.3590 -1.9355  0.8795
 5080TIP3    H215247   6.364   2.773   0.097 -1.5787  2.5749 -1.3055
 5081TIP3   OH215248   4.055   0.062   0.515  0.1419 -0.4032  0.4572
 5081TIP3    H115249   4.045   0.127   0.444  1.2973 -0.8274 -0.1104
 5081TIP3    H215250   4.145   0.073   0.545 -0.3610 -0.1830  1.9399
 5082TIP3   OH215251   3.904   3.705   4.071  0.1405  0.0411  0.2330
 5082TIP3    H115252   3.840   3.634   4.075 -0.1814  0.2321 -1.0594
 5082TIP3    H215253   3.860   3.778   4.114 -0.1514 -0.0931  0.1699
 5083TIP3   OH215254   5.266   0.405   3.356 -0.5546  0.0847  0.1543
 5083TIP3    H115255   5.312   0.363   3.429  1.7184  0.4410 -0.9811
 5083TIP3    H215256   5.249   0.494   3.387  0.0153  0.1134  0.3907
 5084TIP3   OH215257   6.311   4.475   0.451  0.0865 -0.4400  0.0682
 5084TIP3    H115258   6.281   4.465   0.541 -0.3030  1.2759  0.1609
 5084TIP3    H215259   6.251   4.420   0.400  0.5183 -1.6916  0.8597
 5085TIP3   OH215260   3.322   1.502   0.103 -0.2227 -0.0129  0.2098
 5085TIP3    H115261   3.258   1.434   0.121  0.7741 -1.2786 -0.7960
 5085TIP3    H215262   3.333   1.500   0.008  0.7604  0.6772  0.2928
 5086TIP3   OH215263   1.464   0.460   3.551 -0.4622 -0.5769  0.1030
 5086TIP3    H115264   1.537   0.522   3.545 -1.2913  0.2992 -2.2454
 5086TIP3    H215265   1.435   0.467   3.642  0.5966  1.1860  0.3644
 5087TIP3   OH215266   1.926   1.992   4.694 -0.7681 -0.1556  0.0497
 5087TIP3    H115267   1.929   2.064   4.630 -1.0100  0.2318  0.4689
 5087TIP3    H215268   1.839   1.999   4.733 -0.0280  0.7036  1.6467
 5088TIP3   OH215269   2.179   0.041   2.327 -0.2813 -0.0576  0.3702
 5088TIP3    H115270   2.092   0.070   2.355 -0.1854 -0.6758  1.3612
 5088TIP3    H215271   2.236   0.059   2.402  0.3070 -0.3179 -0.0044
 5089TIP3   OH215272   2.083   5.637   0.789 -0.2897  0.6215 -0.1723
 5089TIP3    H115273   2.072   5.542   0.791  3.1454  0.0971 -0.3898
 5089TIP3    H215274   2.055   5.662   0.701 -1.7286 -0.0656  0.0589
 5090TIP3   OH215275   3.148   2.141   1.236 -0.2262 -0.1462  0.5273
 5090TIP3    H115276   3.170   2.092   1.315  1.3927 -0.2617  0.0398
 5090TIP3    H215277   3.109   2.076   1.177  0.2837 -0.4725  0.5458
 5091TIP3   OH215278   1.468  -0.011   2.236  0.1643  0.3485 -0.4260
 5091TIP3    H115279   1.555  -0.039   2.262  1.1843  2.0338 -1.8073
 5091TIP3    H215280   1.471   0.085   2.239 -2.0367  0.4564  0.6545
 5092TIP3   OH215281   0.117   3.449   3.562  0.1695  0.1307 -0.4802
 5092TIP3    H115282   0.100   3.455   3.656 -2.2864  0.2591 -0.8913
 5092TIP3    H215283   0.172   3.371   3.553 -2.3598 -1.9256  0.7470
 5093TIP3   OH215284   0.377   0.420   5.145 -0.0429 -0.7832 -0.4776
 5093TIP3    H115285   0.416   0.378   5.069  0.7729  0.6475 -0.8827
 5093TIP3    H215286   0.423   0.504   5.153 -1.5136 -0.0171  0.3764
 5094TIP3   OH215287   5.182   3.009   1.555  0.4571  0.2596  0.4529
 5094TIP3    H115288   5.275   3.029   1.549  0.2008  1.8992  1.1419
 5094TIP3    H215289   5.143   3.090   1.590 -1.1228 -0.6173  0.8231
 5095TIP3   OH215290   0.919   1.145   1.075  0.1217 -0.5947  0.1826
 5095TIP3    H115291   0.861   1.221   1.074  1.7981  0.7570  1.1380
 5095TIP3    H215292   0.874   1.082   1.131 -1.5437 -0.5680 -1.0471
 5096TIP3   OH215293   2.178   3.109   1.498  0.4702 -0.4174  0.1227
 5096TIP3    H115294   2.195   3.085   1.407 -1.4351  1.3693 -0.7886
 5096TIP3    H215295   2.264   3.136   1.531  1.0812 -0.3568 -1.3968
 5097TIP3   OH215296   5.901   5.623   1.457  0.5941 -0.5477 -0.2182
 5097TIP3    H115297   5.909   5.531   1.429 -0.1608 -0.5328 -0.5088
 5097TIP3    H215298   5.905   5.619   1.552  0.4988 -0.8909 -0.2255
 5098TIP3   OH215299   2.640   5.273   3.000 -0.2782  0.6896 -0.1062
 5098TIP3    H115300   2.684   5.346   3.042  0.1424 -0.4106  1.4626
 5098TIP3    H215301   2.565   5.254   3.057  0.8207 -1.4190  0.7715
 5099TIP3   OH215302   2.806   3.512   4.655 -0.1102  0.4547  0.4169
 5099TIP3    H115303   2.880   3.549   4.606  2.1092  0.6969  3.6396
 5099TIP3    H215304   2.758   3.588   4.687 -1.1423  0.3082 -0.7226
 5100TIP3   OH215305   5.005   4.578   3.005  0.1285  0.5145 -0.4975
 5100TIP3    H115306   4.931   4.601   2.950 -0.6437 -0.8785 -0.0880
 5100TIP3    H215307   5.072   4.643   2.984 -0.9276  1.3274 -1.4420
 5101TIP3   OH215308   4.057   1.228   2.968  0.4736 -0.1404 -0.2421
 5101TIP3    H115309   4.065   1.133   2.977 -0.7714 -0.6842 -3.5503
 5101TIP3    H215310   4.145   1.258   2.945  0.7466 -0.5805  0.2283
 5102TIP3   OH215311   3.316   4.472   1.039  0.1524 -0.1578 -0.4195
 5102TIP3    H115312   3.224   4.454   1.022 -0.2171  0.5699  0.7042
 5102TIP3    H215313   3.328   4.562   1.008  0.0890  0.2927  0.8315
 5103TIP3   OH215314   5.897   3.570   5.049  0.4705 -0.2573  0.0198
 5103TIP3    H115315   5.863   3.486   5.016  0.9168 -0.7903  0.8613
 5103TIP3    H215316   5.987   3.550   5.075  1.1822  0.9306 -1.4079
 5104TIP3   OH215317   4.030   0.161   2.662  0.2091  0.2967 -0.1347
 5104TIP3    H115318   3.955   0.214   2.688 -0.6184 -0.8337 -0.1408
 5104TIP3    H215319   4.106   0.217   2.679 -0.6184  1.4161 -0.0177
 5105TIP3   OH215320   2.458   0.546   0.919  0.4222 -0.5499  0.0769
 5105TIP3    H115321   2.479   0.562   1.011  1.2248  0.6019 -0.2835
 5105TIP3    H215322   2.387   0.482   0.921 -2.0098  1.9864  1.6409
 5106TIP3   OH215323   1.873   4.341   2.986  0.2572  0.6369 -0.1369
 5106TIP3    H115324   1.836   4.361   3.072 -0.2978 -1.1779  0.0837
 5106TIP3    H215325   1.959   4.304   3.005 -0.0251 -0.1310 -0.3216
 5107TIP3   OH215326   6.018   2.556   2.898 -0.3501  0.1828  0.6733
 5107TIP3    H115327   5.948   2.621   2.892 -1.0150 -0.6330 -0.8407
 5107TIP3    H215328   6.099   2.608   2.896 -0.8814  1.0447  0.9958
 5108TIP3   OH215329   2.947   3.250   4.751  0.4803 -0.3270  0.3616
 5108TIP3    H115330   2.880   3.225   4.815  0.7435  0.2050  0.8546
 5108TIP3    H215331   2.988   3.328   4.789  0.2782  0.3206 -0.7013
 5109TIP3   OH215332   4.750   1.313   0.601 -0.1761 -0.1040 -0.2407
 5109TIP3    H115333   4.694   1.390   0.593 -1.3324 -1.0605 -2.2163
 5109TIP3    H215334   4.835   1.347   0.627 -0.5595  1.8909 -1.4020
 5110TIP3   OH215335   4.870   5.211   3.744  0.1535  0.5266  0.4456
 5110TIP3    H115336   4.859   5.252   3.658 -0.9384 -0.2586  0.1865
 5110TIP3    H215337   4.785   5.171   3.762  0.9527 -0.9674  1.0258
 5111TIP3   OH215338   0.090   5.188   4.155 -0.3250 -0.5317  0.1964
 5111TIP3    H115339   0.180   5.211   4.178 -1.0586  2.1290  0.8390
 5111TIP3    H215340   0.092   5.177   4.060  0.5830  0.1325  0.1189
 5112TIP3   OH215341   5.928   2.373   4.162  0.3422  0.2450 -0.2672
 5112TIP3    H115342   5.889   2.457   4.188  1.6158  0.1784  2.1562
 5112TIP3    H215343   5.885   2.308   4.217  1.2819 -0.3075 -0.1598
 5113TIP3   OH215344   3.376   2.266   1.130  0.1714 -0.6441  0.1410
 5113TIP3    H115345   3.300   2.219   1.166 -1.2292  1.3156 -0.0826
 5113TIP3    H215346   3.355   2.280   1.038  1.3164 -0.9964 -0.1932
 5114TIP3   OH215347   4.995   5.871   3.424 -0.1599  0.0048  0.0794
 5114TIP3    H115348   4.915   5.922   3.438 -2.2079 -1.8424 -3.5079
 5114TIP3    H215349   5.062   5.937   3.404 -1.0088  1.5300  1.8929
 5115TIP3   OH215350   1.501   1.612   2.416  0.5610  0.4889 -0.1566
 5115TIP3    H115351   1.540   1.688   2.459  0.5167  0.6410 -0.3829
 5115TIP3    H215352   1.525   1.538   2.472  0.9175  0.6223 -0.1290
 5116TIP3   OH215353   3.546   5.132   4.098  0.0516  0.1191 -0.0520
 5116TIP3    H115354   3.541   5.079   4.177 -0.8973  0.4578  0.1351
 5116TIP3    H215355   3.495   5.083   4.033 -1.5115  1.1183  0.3407
 5117TIP3   OH215356   5.284   4.655   2.637  0.0497 -0.3591 -0.0712
 5117TIP3    H115357   5.204   4.696   2.605  1.2637  0.4943 -2.2076
 5117TIP3    H215358   5.306   4.590   2.571  2.6043  1.3809 -1.0776
 5118TIP3   OH215359   5.063   2.831   0.969 -0.2894 -0.1517 -0.0203
 5118TIP3    H115360   5.026   2.917   0.988  0.9917 -0.0127  2.1868
 5118TIP3    H215361   4.989   2.770   0.979 -0.5251  0.3698  1.8538
 5119TIP3   OH215362   1.581   4.922   4.473  0.5999  0.1571  0.0132
 5119TIP3    H115363   1.600   4.909   4.566  1.5869 -0.8631 -0.3248
 5119TIP3    H215364   1.495   4.965   4.473  0.6807  0.3709  1.3962
 5120TIP3   OH215365   1.100   4.072   4.367 -0.0294  0.2844 -0.2403
 5120TIP3    H115366   1.034   4.006   4.389  1.4560 -0.6189  1.8841
 5120TIP3    H215367   1.095   4.080   4.272 -3.2886  0.4359 -0.1730
 5121TIP3   OH215368   0.295   5.383   4.314  0.3327 -0.0769  0.3017
 5121TIP3    H115369   0.297   5.405   4.407  2.9530 -0.3413  0.3679
 5121TIP3    H215370   0.330   5.294   4.309 -0.8311 -0.5039 -0.8622
 5122TIP3   OH215371   0.035   5.216   5.054  0.6975  0.0390  0.1126
 5122TIP3    H115372   0.093   5.139   5.054  0.6767  0.0235  0.1730
 5122TIP3    H215373   0.088   5.284   5.095  0.5736 -0.0513  0.4286
 5123TIP3   OH215374   3.488   2.610   3.623  0.4530  0.0617 -0.3476
 5123TIP3    H115375   3.409   2.566   3.655  2.1587  0.2950  5.2479
 5123TIP3    H215376   3.459   2.699   3.603 -1.1469 -0.6749 -1.6002
 5124TIP3   OH215377   3.592   5.618   4.157 -0.6057 -0.1666  0.2961
 5124TIP3    H115378   3.541   5.691   4.122  0.3473  0.3041 -0.1705
 5124TIP3    H215379   3.533   5.543   4.153 -1.6887  0.6131  1.0113
 5125TIP3   OH215380   0.363   0.902   1.159 -0.3885 -0.3801  0.3946
 5125TIP3    H115381   0.351   0.969   1.226  2.8300 -0.1849  0.9350
 5125TIP3    H215382   0.437   0.933   1.107 -1.2751 -1.6989 -1.8169
 5126TIP3   OH215383   5.175   3.174   1.280  0.3303  0.0059  0.1348
 5126TIP3    H115384   5.181   3.085   1.244  0.3949  0.1308 -0.1630
 5126TIP3    H215385   5.255   3.185   1.331  0.0384 -0.3312  0.6911
 5127TIP3   OH215386   5.072   5.004   4.787 -0.1755  0.2573  0.2229
 5127TIP3    H115387   5.116   5.069   4.732 -0.0611  0.3362  0.4054
 5127TIP3    H215388   5.039   5.055   4.862  1.5486 -0.1640  1.3390
 5128TIP3   OH215389   5.066   4.459   1.564  0.0775 -0.2477 -0.1953
 5128TIP3    H115390   5.145   4.503   1.595 -0.8087  0.0654  1.7568
 5128TIP3    H215391   5.024   4.424   1.643 -1.4538 -0.9004 -1.2269
 5129TIP3   OH215392   6.292   4.295   1.089  0.1715 -0.5816  0.1797
 5129TIP3    H115393   6.206   4.254   1.101  0.3079 -0.8812  0.1440
 5129TIP3    H215394   6.286   4.339   1.005  0.5050 -1.7606 -0.4866
 5130TIP3   OH215395   1.362   4.025   0.890 -0.4948  1.0336 -0.1617
 5130TIP3    H115396   1.322   3.938   0.901  1.2475  0.1005 -0.7027
 5130TIP3    H215397   1.321   4.061   0.812 -0.1981  0.0466 -0.7899
 5131TIP3   OH215398   1.089   3.774   1.209  0.2042 -0.0298  0.1366
 5131TIP3    H115399   1.073   3.685   1.240  2.3447 -0.2274  0.8448
 5131TIP3    H215400   1.107   3.764   1.115  3.2301 -0.8309  0.6933
 5132TIP3   OH215401   1.664   1.042   0.090  0.4949  0.7354  0.9568
 5132TIP3    H115402   1.664   0.999   0.176 -0.7818 -1.4062 -0.0278
 5132TIP3    H215403   1.586   1.008   0.046  1.7345  0.8242 -1.4960
 5133TIP3   OH215404   1.030   3.361   3.556 -0.2940 -0.1501  0.4185
 5133TIP3    H115405   0.947   3.344   3.512 -0.6014  0.3135  0.8097
 5133TIP3    H215406   1.096   3.342   3.490 -0.7227 -0.2429  0.0106
 5134TIP3   OH215407   1.208   4.448   1.336 -0.1516 -0.6205 -0.1110
 5134TIP3    H115408   1.187   4.359   1.363 -1.2193 -0.2220  0.4159
 5134TIP3    H215409   1.234   4.492   1.417 -1.0494 -0.0678 -0.1094
 5135TIP3   OH215410   6.013   1.290   0.357  0.0174  0.1603  0.2094
 5135TIP3    H115411   6.034   1.247   0.275 -1.5259 -1.2324  0.4952
 5135TIP3    H215412   6.050   1.378   0.348  0.0749 -0.0296 -1.8689
 5136TIP3   OH215413   6.048   0.970   5.028  0.0235 -0.6349 -0.1804
 5136TIP3    H115414   6.079   0.972   5.119  0.9357 -0.4791 -0.4827
 5136TIP3    H215415   5.968   0.917   5.031 -0.0481 -0.4869  0.7379
 5137TIP3   OH215416   2.667   3.425   4.379  0.2313  0.2040  0.2537
 5137TIP3    H115417   2.682   3.355   4.316  0.9958 -0.4164  1.0896
 5137TIP3    H215418   2.699   3.389   4.462 -0.5237  1.0833  0.9488
 5138TIP3   OH215419   2.580   5.348   1.566  0.2824 -0.3422  0.4365
 5138TIP3    H115420   2.497   5.365   1.611 -0.1351 -1.2506  0.0304
 5138TIP3    H215421   2.637   5.420   1.593 -1.0029  0.9857 -0.2397
 5139TIP3   OH215422   0.887   0.739   3.060  0.0819  0.1547  0.6415
 5139TIP3    H115423   0.792   0.744   3.071 -0.1423 -0.1245 -0.9270
 5139TIP3    H215424   0.912   0.659   3.107 -0.7050 -0.6449 -0.2565
 5140TIP3   OH215425   3.734   2.775   0.924  0.3182 -0.3007  0.2080
 5140TIP3    H115426   3.654   2.737   0.960  0.6326 -2.4607 -1.1671
 5140TIP3    H215427   3.734   2.865   0.956 -3.2299  0.1618 -0.6287
 5141TIP3   OH215428   5.450   5.309   1.729  0.6518 -0.5255  0.4489
 5141TIP3    H115429   5.470   5.225   1.687 -2.4076 -1.2743  0.2431
 5141TIP3    H215430   5.414   5.285   1.814  1.5703  0.7386  1.2306
 5142TIP3   OH215431   3.292   0.363   4.438 -0.1206  0.3686  0.1959
 5142TIP3    H115432   3.233   0.315   4.496  0.7565 -1.8510 -0.6714
 5142TIP3    H215433   3.235   0.399   4.370 -0.6984 -0.2047  0.3679
 5143TIP3   OH215434   1.954   2.471   4.894 -0.0766  0.8332  0.0833
 5143TIP3    H115435   1.906   2.388   4.898  0.9144  0.2159 -0.5006
 5143TIP3    H215436   1.958   2.500   4.985  0.7558 -0.4732  0.4928
 5144TIP3   OH215437   1.113   1.774   3.891 -0.2275 -0.0507  0.1312
 5144TIP3    H115438   1.165   1.771   3.811 -0.6757  1.8304 -0.2745
 5144TIP3    H215439   1.160   1.836   3.948 -2.3828  2.4687 -0.6185
 5145TIP3   OH215440   3.110   0.790   0.660 -0.0424  0.6441 -0.4182
 5145TIP3    H115441   3.016   0.804   0.645 -0.2675  0.8315  1.0177
 5145TIP3    H215442   3.115   0.757   0.750  1.2070 -0.2092 -0.7782
 5146TIP3   OH215443   1.548   2.157   3.816  0.2775  0.0581 -0.6913
 5146TIP3    H115444   1.523   2.191   3.902 -1.2033 -0.2818 -0.9702
 5146TIP3    H215445   1.532   2.229   3.755  0.3852 -0.0259 -0.8214
 5147TIP3   OH215446   4.372   5.241   5.094  0.1543  0.3010 -0.9442
 5147TIP3    H115447   4.344   5.152   5.112 -0.2830  0.6027 -0.0660
 5147TIP3    H215448   4.418   5.268   5.173  0.2965  0.8546 -1.2086
 5148TIP3   OH215449   2.454   5.476   0.932  0.3253  0.0547  0.0354
 5148TIP3    H115450   2.516   5.547   0.912  1.8676 -1.0297  0.7638
 5148TIP3    H215451   2.503   5.396   0.916 -0.5917 -0.8519  1.5234
 5149TIP3   OH215452   4.107   1.223   1.783  0.2562 -0.6980  0.1807
 5149TIP3    H115453   4.145   1.135   1.777  0.7262 -0.4334 -0.8706
 5149TIP3    H215454   4.021   1.214   1.743  0.3018 -0.6834  0.0789
 5150TIP3   OH215455   3.247   2.895   0.509 -0.1345  0.5376 -0.7570
 5150TIP3    H115456   3.277   2.836   0.440 -0.0252 -1.3361  0.8092
 5150TIP3    H215457   3.312   2.966   0.510  2.5562 -1.7627  0.3841
 5151TIP3   OH215458   5.054   2.317   1.190 -0.0948  0.6668 -0.0623
 5151TIP3    H115459   5.038   2.380   1.120 -0.7506 -0.6179 -1.1220
 5151TIP3    H215460   5.149   2.322   1.205 -0.2506  2.5470  0.5692
 5152TIP3   OH215461   2.807   0.828   3.181 -0.2820 -0.4175 -0.0355
 5152TIP3    H115462   2.756   0.882   3.122 -0.3044 -0.2737  0.1159
 5152TIP3    H215463   2.857   0.890   3.234  0.9907 -0.5618 -1.0046
 5153TIP3   OH215464   2.023   0.513   4.813 -0.8578  0.0425  0.3375
 5153TIP3    H115465   1.956   0.530   4.746  0.6133  0.5385 -1.0808
 5153TIP3    H215466   1.982   0.452   4.873 -2.0058 -1.0347 -1.4522
 5154TIP3   OH215467   4.375   4.626   4.292  0.4900  0.4487 -0.3204
 5154TIP3    H115468   4.346   4.535   4.284 -1.9520  1.1898 -0.5046
 5154TIP3    H215469   4.446   4.634   4.228  0.6559 -1.2744 -0.4010
 5155TIP3   OH215470   5.497   5.916   3.863  0.1390 -0.4357 -0.1366
 5155TIP3    H115471   5.495   5.908   3.767  1.2115 -0.5342 -0.1543
 5155TIP3    H215472   5.452   5.999   3.880 -0.8108 -0.8264 -0.6627
 5156TIP3   OH215473   4.119   4.438   1.857 -0.2146  0.3899 -0.5163
 5156TIP3    H115474   4.035   4.484   1.867 -0.3009  0.1662 -0.1990
 5156TIP3    H215475   4.099   4.347   1.878  0.0202  0.2584 -0.8521
 5157TIP3   OH215476   0.089   4.160   0.745  1.2074 -0.1442  0.6074
 5157TIP3    H115477   0.124   4.179   0.832 -0.7947 -0.7375  1.5811
 5157TIP3    H215478   0.012   4.106   0.761  0.9477 -0.4860 -1.5603
 5158TIP3   OH215479   1.067   2.228   4.454  0.6861  0.2118  0.4063
 5158TIP3    H115480   0.972   2.226   4.442  0.7292 -2.9157 -0.1652
 5158TIP3    H215481   1.089   2.321   4.458 -2.3987  1.0129  0.6728
 5159TIP3   OH215482   1.415   2.180   0.689  0.2256 -0.2708  0.1941
 5159TIP3    H115483   1.447   2.137   0.769  2.2220  0.9768  0.1347
 5159TIP3    H215484   1.479   2.156   0.622  0.2565  1.1014 -0.3004
 5160TIP3   OH215485   3.291   4.450   1.657  0.0864  0.2438 -0.1233
 5160TIP3    H115486   3.239   4.518   1.616 -0.4150  0.1193  0.2927
 5160TIP3    H215487   3.343   4.495   1.724 -0.4413  0.1878  0.3324
 5161TIP3   OH215488   1.795   2.266   3.708  0.1891 -0.0705  0.2483
 5161TIP3    H115489   1.730   2.310   3.654  0.5160 -0.1063 -0.1791
 5161TIP3    H215490   1.744   2.212   3.768 -0.1984  0.4786  0.4237
 5162TIP3   OH215491   1.353   2.905   2.225  0.2491 -0.3849 -0.4920
 5162TIP3    H115492   1.274   2.852   2.234  0.4190 -0.5902 -0.2093
 5162TIP3    H215493   1.421   2.843   2.199  0.4015 -0.2739 -0.3596
 5163TIP3   OH215494   1.830   3.908   0.145 -0.2616 -0.0919 -0.6111
 5163TIP3    H115495   1.751   3.951   0.175 -0.5985 -0.2864 -1.1986
 5163TIP3    H215496   1.898   3.976   0.151 -0.0713 -0.4049  1.5209
 5164TIP3   OH215497   2.326   0.812   1.297 -0.0089  0.4517  0.6265
 5164TIP3    H115498   2.259   0.799   1.364  1.0718  1.0995  1.8871
 5164TIP3    H215499   2.405   0.831   1.347  0.7632  1.2672 -0.8623
 5165TIP3   OH215500   0.404   2.779   2.565  0.3673  0.6703 -0.1519
 5165TIP3    H115501   0.342   2.728   2.513  0.4323  0.0397  0.3824
 5165TIP3    H215502   0.351   2.822   2.632  0.6593 -1.1279  1.3095
 5166TIP3   OH215503   6.310   3.363   1.302  0.0287  0.0189  0.1189
 5166TIP3    H115504   6.218   3.345   1.319 -0.1951  0.2270 -0.7985
 5166TIP3    H215505   6.309   3.430   1.234  0.8309 -1.5048 -1.4838
 5167TIP3   OH215506   5.954   2.894   4.899 -0.7533  0.0629  0.1630
 5167TIP3    H115507   5.939   2.955   4.971  1.5439  0.3381  0.5080
 5167TIP3    H215508   5.907   2.932   4.825 -0.6875  1.4118  0.7749
 5168TIP3   OH215509   3.287   1.954   3.408 -0.0678  0.1522 -0.1712
 5168TIP3    H115510   3.298   2.039   3.451  0.4429  0.5756 -1.1148
 5168TIP3    H215511   3.210   1.915   3.450  0.7576  0.2739  1.5674
 5169TIP3   OH215512   0.952   4.027   4.041 -0.1508 -0.2920  0.3629
 5169TIP3    H115513   0.890   3.986   4.102  1.1561 -3.0742 -0.0193
 5169TIP3    H215514   0.922   3.999   3.954 -0.2038  1.0633 -0.0737
 5170TIP3   OH215515   5.907   5.436   4.948  0.1774  0.4736  0.5362
 5170TIP3    H115516   5.915   5.469   4.858 -0.4798  0.6129  0.5246
 5170TIP3    H215517   5.977   5.371   4.956  0.2080  0.4238 -0.0935
 5171TIP3   OH215518   0.278   3.328   4.717  0.0385 -0.3185 -0.5169
 5171TIP3    H115519   0.261   3.402   4.660  0.9611  1.2070  1.0667
 5171TIP3    H215520   0.192   3.295   4.741 -0.5099  1.5018  0.2353
 5172TIP3   OH215521   2.496   0.955   1.969  0.0381 -0.1408  0.2042
 5172TIP3    H115522   2.550   0.913   1.901 -0.9883  0.6001 -1.1198
 5172TIP3    H215523   2.556   0.966   2.043  1.5093 -0.0493 -0.9272
 5173TIP3   OH215524   0.013   4.163   4.844  0.2107 -0.0123 -0.9345
 5173TIP3    H115525   0.067   4.104   4.897 -1.4457 -1.2225 -0.5134
 5173TIP3    H215526  -0.000   4.117   4.761 -1.2839 -0.3896 -0.5199
 5174TIP3   OH215527   5.824   5.084   3.564 -0.1826  0.2159 -0.1801
 5174TIP3    H115528   5.816   5.160   3.507  0.1133 -0.6810 -1.4363
 5174TIP3    H215529   5.888   5.110   3.630  0.7213  0.6958 -1.2250
 5175TIP3   OH215530   1.441   1.073   2.957  0.0824 -0.0496  0.2396
 5175TIP3    H115531   1.467   0.987   2.926 -2.8056 -0.0483 -2.6801
 5175TIP3    H215532   1.446   1.129   2.880 -3.2908  1.0233  0.6293
 5176TIP3   OH215533   3.900   4.612   4.796  0.3144 -0.0371  0.0643
 5176TIP3    H115534   3.854   4.636   4.716 -0.3018  1.4332  0.8402
 5176TIP3    H215535   3.858   4.530   4.824 -0.2333  0.0444 -0.4999
 5177TIP3   OH215536   5.409   5.347   2.928  0.6253 -0.7447 -0.1393
 5177TIP3    H115537   5.399   5.267   2.980  0.6670 -0.7735 -0.1757
 5177TIP3    H215538   5.421   5.417   2.993  1.7308 -0.9230 -0.1330
 5178TIP3   OH215539   0.788   5.654   3.523 -0.4698 -0.0896 -0.3734
 5178TIP3    H115540   0.849   5.616   3.459  0.6348  1.1810 -0.1199
 5178TIP3    H215541   0.840   5.662   3.603 -0.4459  2.4334 -0.5674
 5179TIP3   OH215542   3.175   2.516   3.367  0.1553 -0.1970 -0.2411
 5179TIP3    H115543   3.117   2.447   3.334  0.8105 -2.4273  2.7953
 5179TIP3    H215544   3.122   2.565   3.429  0.5850 -0.1029  0.0602
 5180TIP3   OH215545   0.392   0.613   3.311  0.2418  0.3009  0.0031
 5180TIP3    H115546   0.373   0.682   3.248 -0.7817 -0.7328 -0.8685
 5180TIP3    H215547   0.313   0.605   3.364 -0.1273 -1.0056 -0.7017
 5181TIP3   OH215548   5.427   1.612   2.206  0.4441 -0.3888 -0.0308
 5181TIP3    H115549   5.421   1.706   2.222  0.4018 -0.6241  1.4790
 5181TIP3    H215550   5.492   1.604   2.137  0.8691  0.7141  0.2187
 5182TIP3   OH215551   3.166   5.398   1.095  0.2746  0.3983 -0.1144
 5182TIP3    H115552   3.078   5.404   1.058  1.4866  0.2116 -3.3066
 5182TIP3    H215553   3.173   5.306   1.123  0.0620 -0.1255 -1.6728
 5183TIP3   OH215554   0.545   5.732   4.014 -0.2191 -0.3327  0.2187
 5183TIP3    H115555   0.453   5.750   3.995 -0.6185 -4.3688 -3.2204
 5183TIP3    H215556   0.544   5.684   4.097 -1.4504 -1.3715 -0.3606
 5184TIP3   OH215557   5.844   4.962   1.646  0.3007 -0.2681  0.3447
 5184TIP3    H115558   5.892   4.897   1.697  0.5621  0.9285  1.6963
 5184TIP3    H215559   5.894   5.043   1.657 -0.0745  0.2016 -1.2093
 5185TIP3   OH215560   6.300   3.285   0.757 -0.3700 -0.4256  0.2315
 5185TIP3    H115561   6.384   3.302   0.715 -0.8207  0.9076 -0.1737
 5185TIP3    H215562   6.316   3.209   0.812  0.7841 -0.9284 -0.7519
 5186TIP3   OH215563   4.001   5.963   0.022  0.2852  0.0409  0.3389
 5186TIP3    H115564   3.932   5.929   0.079  0.9317  0.2878  1.3106
 5186TIP3    H215565   4.016   5.894  -0.042 -1.2044  0.1941 -0.2111
 5187TIP3   OH215566   2.147   5.658   2.014  0.3574 -0.5882 -0.3332
 5187TIP3    H115567   2.075   5.693   1.962 -0.6553  1.5971  2.3440
 5187TIP3    H215568   2.226   5.694   1.973 -0.2177 -0.7981 -1.6722
 5188TIP3   OH215569   5.774   3.241   3.137  0.6498 -0.5358 -0.6509
 5188TIP3    H115570   5.812   3.217   3.221 -0.3791 -0.7863 -0.2469
 5188TIP3    H215571   5.838   3.300   3.098  0.2793  1.1366  1.1305
 5189TIP3   OH215572   0.149   1.590   1.698 -0.3525  0.0524  0.0056
 5189TIP3    H115573   0.072   1.534   1.689 -1.3396  1.2824  0.6192
 5189TIP3    H215574   0.129   1.668   1.647  0.4921  0.3849  0.1606
 5190TIP3   OH215575   1.708   3.411   1.796  0.7543  0.4686  0.2365
 5190TIP3    H115576   1.803   3.415   1.810  0.7413 -1.7110  1.3012
 5190TIP3    H215577   1.693   3.325   1.757 -0.5238  1.9621 -2.9173
 5191TIP3   OH215578   6.296   5.087   0.292 -0.0833  0.7044  0.4133
 5191TIP3    H115579   6.388   5.114   0.285 -0.8319  2.9647 -3.1084
 5191TIP3    H215580   6.249   5.150   0.239 -3.5435 -1.3368  0.7944
 5192TIP3   OH215581   0.892   5.693   3.180  0.5255  0.4930  0.1780
 5192TIP3    H115582   0.849   5.654   3.104  0.9717  2.6721 -1.2708
 5192TIP3    H215583   0.922   5.618   3.232 -1.1174 -1.0458 -1.0062
 5193TIP3   OH215584   3.082   4.941   0.680  0.4248 -0.3388 -0.1030
 5193TIP3    H115585   3.056   5.026   0.645  3.4266 -0.3918 -2.8693
 5193TIP3    H215586   3.166   4.956   0.722  0.2309 -1.6729  0.8413
 5194TIP3   OH215587   3.527   5.868   2.926  0.0540 -0.4241 -0.0605
 5194TIP3    H115588   3.493   5.877   2.837  0.0734 -1.1405 -0.1443
 5194TIP3    H215589   3.455   5.896   2.982 -0.6110 -1.6754 -0.2464
 5195TIP3   OH215590   6.189   0.734   1.790 -0.1205  0.1270 -0.5186
 5195TIP3    H115591   6.130   0.734   1.866 -0.2442 -1.7602 -0.5770
 5195TIP3    H215592   6.261   0.676   1.815 -1.0565 -1.9997 -2.4473
 5196TIP3   OH215593   5.585   5.667   3.386 -0.6269 -1.1044 -0.1212
 5196TIP3    H115594   5.616   5.688   3.298 -0.0454 -1.4507 -0.0041
 5196TIP3    H215595   5.658   5.619   3.426 -0.7833 -0.7210  0.6391
 5197TIP3   OH215596   3.057   5.323   3.473 -0.3098 -0.2424 -0.1181
 5197TIP3    H115597   2.981   5.376   3.497  0.5230  0.3866  1.1926
 5197TIP3    H215598   3.034   5.287   3.387 -1.0536  1.9440 -0.8999
 5198TIP3   OH215599   4.369   1.681   5.034  0.0670  0.1128  0.0608
 5198TIP3    H115600   4.361   1.681   5.130  1.8125  1.8911  0.2615
 5198TIP3    H215601   4.416   1.600   5.014  1.4695  0.6694  0.9310
 5199TIP3   OH215602   0.540   2.910   3.132 -1.0897  0.0560 -0.2242
 5199TIP3    H115603   0.494   2.847   3.077 -0.7269 -0.1340 -0.3106
 5199TIP3    H215604   0.522   2.882   3.221  0.1797 -0.9907 -0.2612
 5200TIP3   OH215605   0.001   5.590   0.080 -0.4568 -0.1135 -0.1516
 5200TIP3    H115606   0.063   5.606   0.008  1.2076  0.9012  1.4110
 5200TIP3    H215607  -0.004   5.675   0.125 -1.3075 -0.7747  1.0304
 5201TIP3   OH215608   1.947   0.595   2.424 -0.1239  0.5626 -0.3067
 5201TIP3    H115609   2.018   0.631   2.477  0.5153 -0.1792 -0.6346
 5201TIP3    H215610   1.877   0.575   2.486  0.2098  0.6897  0.1099
 5202TIP3   OH215611   3.137   3.312   3.022 -0.0734  0.0892  0.1486
 5202TIP3    H115612   3.061   3.369   3.014 -0.5384 -0.5149  0.2557
 5202TIP3    H215613   3.104   3.223   3.009  0.4534 -0.2585  1.0673
 5203TIP3   OH215614   4.982   1.257   3.106 -0.5871  0.1094  0.2027
 5203TIP3    H115615   5.008   1.233   3.195 -0.0707 -0.4165 -0.0860
 5203TIP3    H215616   4.935   1.180   3.074 -0.0991  0.0030 -0.2548
 5204TIP3   OH215617   1.016   4.259   2.983  0.0645  0.4006  0.5206
 5204TIP3    H115618   1.069   4.224   2.912 -0.7913 -0.9901  0.5265
 5204TIP3    H215619   1.072   4.252   3.061  0.6011  0.8957  0.1891
 5205TIP3   OH215620   4.618   5.227   3.516 -0.6307  0.1235 -0.0906
 5205TIP3    H115621   4.614   5.195   3.606 -0.7985  0.4890  0.0330
 5205TIP3    H215622   4.532   5.207   3.480 -1.0121  1.1297  0.2280
 5206TIP3   OH215623   5.054   3.299   2.476 -0.3396 -0.7900 -0.0675
 5206TIP3    H115624   5.072   3.209   2.503 -0.6277 -0.8542 -0.0870
 5206TIP3    H215625   5.013   3.339   2.553  0.4300 -0.4714  0.1835
 5207TIP3   OH215626   1.384   2.854   2.963  0.3499 -0.1289  0.2236
 5207TIP3    H115627   1.302   2.805   2.953  1.1302 -1.3776 -0.4432
 5207TIP3    H215628   1.404   2.885   2.874  0.5273  0.2879  0.4082
 5208TIP3   OH215629   3.350   2.708   0.322  0.1318 -0.2732  0.5129
 5208TIP3    H115630   3.438   2.714   0.360  0.9584 -0.0578 -1.2932
 5208TIP3    H215631   3.351   2.773   0.251 -0.9651 -1.2984 -0.4812
 5209TIP3   OH215632   4.585   0.396   2.555 -0.1854  0.0709  0.4137
 5209TIP3    H115633   4.634   0.367   2.478 -1.8318 -0.6648 -0.4112
 5209TIP3    H215634   4.542   0.317   2.588 -2.0317  0.9058  0.1677
 5210TIP3   OH215635   3.846   1.202   4.352 -0.2433 -0.1763 -0.1636
 5210TIP3    H115636   3.761   1.218   4.392 -0.3930 -0.7190 -0.2567
 5210TIP3    H215637   3.827   1.152   4.273  0.1270  0.0811 -0.4231
 5211TIP3   OH215638   1.383   2.835   4.955 -0.0666 -0.4983 -0.0605
 5211TIP3    H115639   1.435   2.785   5.019  1.3672 -1.1056 -1.5974
 5211TIP3    H215640   1.400   2.927   4.976  1.7628 -0.6815 -0.5460
 5212TIP3   OH215641   3.910   1.452   2.114 -0.4046 -0.5756  0.6802
 5212TIP3    H115642   3.841   1.387   2.105 -0.0524 -0.7015 -1.8287
 5212TIP3    H215643   3.992   1.402   2.104 -0.1221  0.1186 -0.8007
 5213TIP3   OH215644   4.439   2.436   4.860  0.1265  0.3796 -0.4177
 5213TIP3    H115645   4.448   2.514   4.914  1.3074 -0.8858  1.3140
 5213TIP3    H215646   4.525   2.425   4.819 -0.4247  0.6891 -1.7135
 5214TIP3   OH215647   3.228   3.694   2.156 -0.4047  0.0444  0.2287
 5214TIP3    H115648   3.316   3.726   2.135 -1.2553  2.8731  0.5200
 5214TIP3    H215649   3.228   3.603   2.126  1.7327  0.7613 -2.4380
 5215TIP3   OH215650   4.254   0.599   3.848  0.2139 -0.0602  0.4546
 5215TIP3    H115651   4.263   0.618   3.941  0.9686 -0.2709  0.4312
 5215TIP3    H215652   4.334   0.552   3.825 -0.1290 -0.3285 -0.2223
 5216TIP3   OH215653   1.813   2.236   0.450  0.1139 -0.3519  0.1795
 5216TIP3    H115654   1.773   2.161   0.407 -0.2140  0.4226 -0.9189
 5216TIP3    H215655   1.907   2.224   0.439  0.0407 -0.2988 -0.5193
 5217TIP3   OH215656   2.095   2.605   3.039  0.2027  0.1328  0.1645
 5217TIP3    H115657   2.051   2.605   2.954 -0.7595  1.2683  0.6401
 5217TIP3    H215658   2.027   2.577   3.100  0.7799 -0.2908  0.6185
 5218TIP3   OH215659   0.453   4.356   1.392  0.0341  0.5993 -0.0512
 5218TIP3    H115660   0.363   4.327   1.381 -0.2421  1.2493  0.3970
 5218TIP3    H215661   0.446   4.449   1.415  0.8240  0.7000 -0.1673
 5219TIP3   OH215662   4.209   5.499   1.019  0.5459  0.1291 -0.1515
 5219TIP3    H115663   4.240   5.550   0.944  1.8506 -0.6646 -0.1870
 5219TIP3    H215664   4.128   5.542   1.045  0.0977  0.4760 -1.9625
 5220TIP3   OH215665   4.983   0.459   1.549 -0.0087  0.3453 -0.2229
 5220TIP3    H115666   4.986   0.527   1.617 -0.3419  1.4320 -1.2585
 5220TIP3    H215667   5.060   0.404   1.567  0.6032  1.3352  0.2896
 5221TIP3   OH215668   1.733   2.781   0.373  0.2494 -0.4005 -0.2011
 5221TIP3    H115669   1.738   2.707   0.433 -1.9809 -2.7813 -2.6637
 5221TIP3    H215670   1.644   2.814   0.384  0.5320  0.5444 -0.6601
 5222TIP3   OH215671   0.093   1.328   2.087  0.6828 -0.7797 -0.2678
 5222TIP3    H115672   0.171   1.356   2.040  0.6555 -1.1939 -0.5638
 5222TIP3    H215673   0.028   1.396   2.070  0.2194 -1.5791 -2.0019
 5223TIP3   OH215674   3.155   1.253   2.377 -0.0146  0.0807  0.1015
 5223TIP3    H115675   3.198   1.339   2.374 -1.3188  0.8616  1.8100
 5223TIP3    H215676   3.227   1.191   2.379  0.9736  1.1595 -0.6187
 5224TIP3   OH215677   0.430   1.780   4.304  0.1091 -0.0615 -0.4979
 5224TIP3    H115678   0.364   1.844   4.278  0.0956  0.3325  0.4736
 5224TIP3    H215679   0.455   1.805   4.393  1.3143 -0.4141 -0.7157
 5225TIP3   OH215680   5.735   2.949   1.580  0.2081 -0.2336 -0.1237
 5225TIP3    H115681   5.739   2.880   1.513 -0.1640 -1.4871  1.0860
 5225TIP3    H215682   5.670   2.916   1.643 -0.4565  1.5423  0.1673
 5226TIP3   OH215683   4.439   4.776   2.172  0.2068  0.1537  0.0420
 5226TIP3    H115684   4.401   4.711   2.113  1.7686 -0.5036 -0.2886
 5226TIP3    H215685   4.404   4.859   2.142 -1.6039 -0.4884  0.2937
 5227TIP3   OH215686   6.076   3.746   0.889 -0.3749 -0.4475  0.2427
 5227TIP3    H115687   6.057   3.652   0.889 -0.6156 -0.4001 -0.2728
 5227TIP3    H215688   5.998   3.786   0.850  0.1075 -0.1085 -0.3817
 5228TIP3   OH215689   2.914   3.172   0.744  0.0197 -0.0879 -0.7591
 5228TIP3    H115690   2.826   3.141   0.720 -0.2053 -0.3623  0.3482
 5228TIP3    H215691   2.972   3.100   0.718 -0.2459 -0.4951 -0.2407
 5229TIP3   OH215692   4.215   2.950   0.727  0.3143  0.1019  0.5770
 5229TIP3    H115693   4.279   3.020   0.712 -0.5620  0.9600  0.7388
 5229TIP3    H215694   4.177   2.932   0.641  0.6950 -0.3361  0.4980
 5230TIP3   OH215695   0.475   2.860   0.399 -0.4463 -0.0672 -0.2718
 5230TIP3    H115696   0.513   2.783   0.441  1.8180  0.9541 -0.3200
 5230TIP3    H215697   0.536   2.882   0.329  0.6867  3.4849  1.5818
 5231TIP3   OH215698   3.589   1.534   3.282  0.1359  0.5568 -0.3188
 5231TIP3    H115699   3.584   1.629   3.283  1.5119  0.6505  0.6176
 5231TIP3    H215700   3.504   1.505   3.248 -0.2265  2.1088 -0.7803
 5232TIP3   OH215701   4.116   2.922   0.467  0.2013  0.0257  0.2399
 5232TIP3    H115702   4.025   2.901   0.487 -0.0812  1.3298  0.4421
 5232TIP3    H215703   4.111   2.997   0.408  1.1199 -1.2281 -1.4978
 5233TIP3   OH215704   2.823   1.452   4.205 -0.0410 -0.1222 -0.0480
 5233TIP3    H115705   2.818   1.487   4.294 -3.9073 -1.5441  0.5144
 5233TIP3    H215706   2.750   1.494   4.159 -0.1925 -1.8695 -1.5234
 5234TIP3   OH215707   3.388   4.062   3.864  0.3718 -0.1932  0.3670
 5234TIP3    H115708   3.464   4.102   3.906  1.9484 -1.3351 -1.2635
 5234TIP3    H215709   3.343   4.015   3.935  1.7726 -0.3724  1.1729
 5235TIP3   OH215710   0.633   2.529   3.166 -0.3258  0.6500 -0.3841
 5235TIP3    H115711   0.693   2.584   3.215 -0.1480 -0.0519  0.1994
 5235TIP3    H215712   0.613   2.579   3.087 -0.3338  1.6329  0.2345
 5236TIP3   OH215713   2.381   1.574   2.043  0.4438 -0.0807 -0.2164
 5236TIP3    H115714   2.377   1.488   2.000 -1.4261 -0.5552  0.7800
 5236TIP3    H215715   2.415   1.633   1.976  0.5001 -1.3596 -1.3587
 5237TIP3   OH215716   3.345   0.976   4.550  0.4556  0.3060  0.0252
 5237TIP3    H115717   3.361   0.981   4.456 -1.5049 -1.8638 -0.5087
 5237TIP3    H215718   3.427   0.944   4.587  1.3015  1.3378 -0.8659
 5238TIP3   OH215719   5.226   2.465   3.297 -0.1564  0.3759 -0.4635
 5238TIP3    H115720   5.286   2.537   3.278 -0.2719  0.2122 -1.4901
 5238TIP3    H215721   5.166   2.501   3.363  2.2794 -0.1082  2.1949
 5239TIP3   OH215722   0.877   1.546   2.340 -0.5391 -0.1879 -0.6168
 5239TIP3    H115723   0.901   1.620   2.285 -1.0840  0.9808  0.6477
 5239TIP3    H215724   0.842   1.481   2.280  0.4675  0.3556 -1.8183
 5240TIP3   OH215725   5.283   1.822   1.152  0.2665 -0.1601  0.6755
 5240TIP3    H115726   5.212   1.781   1.103  0.3511 -0.4573  0.7986
 5240TIP3    H215727   5.257   1.914   1.158  0.4095 -0.0612 -0.1813
 5241TIP3   OH215728   5.200   2.882   1.238 -0.1041 -0.0762  0.0845
 5241TIP3    H115729   5.162   2.867   1.324  1.1896 -0.6905  0.5798
 5241TIP3    H215730   5.138   2.842   1.177 -0.1210 -1.3405  0.8904
 5242TIP3   OH215731   6.028   2.711   1.270 -0.5447 -0.0310 -0.5033
 5242TIP3    H115732   6.111   2.758   1.264 -0.1711 -0.6190 -0.1161
 5242TIP3    H215733   6.035   2.662   1.352 -0.5378 -1.4386 -1.2973
 5243TIP3   OH215734   2.512   2.919   3.966 -0.1491 -0.0085  0.1352
 5243TIP3    H115735   2.603   2.891   3.956  0.8283  2.3958  1.4245
 5243TIP3    H215736   2.496   2.978   3.893  0.4352  2.0094  1.5460
 5244TIP3   OH215737   2.767   5.156   1.871  0.4482 -0.3874  0.3952
 5244TIP3    H115738   2.837   5.109   1.916  0.8931  0.3183  0.4571
 5244TIP3    H215739   2.784   5.142   1.778  2.4143  2.1450  0.2765
 5245TIP3   OH215740   2.219   2.843   0.184 -0.0117  0.5651 -0.0036
 5245TIP3    H115741   2.145   2.873   0.237 -0.2896  0.0261 -0.0763
 5245TIP3    H215742   2.278   2.801   0.246 -0.2274  0.1410 -0.0778
 5246TIP3   OH215743   1.105   5.880   2.574  0.1782 -0.2305 -0.0281
 5246TIP3    H115744   1.083   5.922   2.657 -1.2449 -0.1358 -0.4211
 5246TIP3    H215745   1.148   5.948   2.523  1.0366 -0.2810  0.6182
 5247TIP3   OH215746   5.082   0.275   2.291  0.4935  0.1567 -1.0318
 5247TIP3    H115747   5.018   0.214   2.254 -0.6204  0.4235  0.3992
 5247TIP3    H215748   5.039   0.312   2.368  1.7806  1.5328 -0.9310
 5248TIP3   OH215749   5.517   1.393   3.291  0.1045 -0.0955 -0.1882
 5248TIP3    H115750   5.471   1.397   3.208 -1.2871  1.1939  0.5993
 5248TIP3    H215751   5.600   1.437   3.276  0.7991 -1.7137 -1.4054
 5249TIP3   OH215752   5.542   5.763   5.042  0.1698 -0.3066  0.0647
 5249TIP3    H115753   5.568   5.815   4.966 -0.5125  0.1063  0.1132
 5249TIP3    H215754   5.480   5.699   5.007 -0.5323  0.2073  0.3581
 5250TIP3   OH215755   3.367   3.334   0.780  0.2456 -0.5568  0.2858
 5250TIP3    H115756   3.341   3.322   0.689  1.1174 -1.3550  0.1181
 5250TIP3    H215757   3.318   3.411   0.810 -1.0173 -1.0527 -0.4630
 5251TIP3   OH215758   3.239   1.207   4.347 -0.5920  0.4228 -0.7062
 5251TIP3    H115759   3.209   1.287   4.303 -2.7240 -0.1872 -0.4831
 5251TIP3    H215760   3.159   1.167   4.380  0.6614 -0.6942  1.1206
 5252TIP3   OH215761   5.254   1.039   2.295 -0.1311  0.4797 -0.1042
 5252TIP3    H115762   5.254   0.981   2.218  0.3000 -0.5160  0.6134
 5252TIP3    H215763   5.333   1.014   2.342  0.2734  1.9613  0.0332
 5253TIP3   OH215764   5.741   3.369   0.953  0.2406 -0.5323  0.2551
 5253TIP3    H115765   5.809   3.428   0.922  0.2227 -0.3547  0.5539
 5253TIP3    H215766   5.776   3.281   0.937 -0.2674 -0.4721 -1.3922
 5254TIP3   OH215767   2.484   5.129   4.393  0.4748 -0.6134  0.0814
 5254TIP3    H115768   2.507   5.041   4.364 -1.3366 -1.3498  0.7627
 5254TIP3    H215769   2.393   5.122   4.423  0.6984  1.1906  1.3518
 5255TIP3   OH215770   3.036   3.156   0.405 -0.5113 -0.3385 -0.1092
 5255TIP3    H115771   3.008   3.066   0.417  0.3287 -0.6305 -0.2836
 5255TIP3    H215772   3.122   3.150   0.362 -0.3612  0.5322  0.0330
 5256TIP3   OH215773   6.353   5.180   3.882  0.2728 -0.2438 -0.6660
 5256TIP3    H115774   6.319   5.251   3.828 -0.7269 -1.4004 -1.5991
 5256TIP3    H215775   6.297   5.105   3.861 -0.2179 -0.7277  2.0367
 5257TIP3   OH215776   3.729   2.243   2.761  0.3975  0.1789 -0.1154
 5257TIP3    H115777   3.708   2.176   2.696 -2.0706  1.5469 -0.8790
 5257TIP3    H215778   3.769   2.313   2.710 -1.2676  1.1285 -0.2023
 5258TIP3   OH215779   5.563   0.342   3.739 -0.1713 -0.6754 -0.0933
 5258TIP3    H115780   5.537   0.313   3.827  0.7387 -0.3767  0.2910
 5258TIP3    H215781   5.495   0.308   3.681  1.0754 -4.1141  0.2257
 5259TIP3   OH215782   5.462   2.918   1.368  0.1311 -0.5901 -0.4208
 5259TIP3    H115783   5.555   2.899   1.374  0.5007  1.3410  1.1595
 5259TIP3    H215784   5.427   2.851   1.310  2.2759 -2.0979 -0.0746
 5260TIP3   OH215785   0.720   0.815   3.758 -0.2642  0.1913  0.1691
 5260TIP3    H115786   0.688   0.788   3.844 -0.3476  2.2796  0.8668
 5260TIP3    H215787   0.641   0.827   3.706 -0.2423 -0.6118 -0.0524
 5261TIP3   OH215788   1.616   5.663   4.028 -0.0515 -0.5410  0.4846
 5261TIP3    H115789   1.672   5.664   3.950  2.2605 -0.6240  2.0398
 5261TIP3    H215790   1.634   5.746   4.072 -2.2985  0.0717  0.3265
 5262TIP3   OH215791   4.922   5.503   0.019  0.4407 -0.5718 -0.1637
 5262TIP3    H115792   4.985   5.542  -0.042  0.6273 -0.6373 -0.0147
 5262TIP3    H215793   4.863   5.575   0.042  1.9464  0.1580  1.6301
 5263TIP3   OH215794   6.362   5.123   3.582 -0.0951 -0.4072  1.2852
 5263TIP3    H115795   6.298   5.185   3.618  0.7958  1.2627  0.0965
 5263TIP3    H215796   6.338   5.114   3.490  2.4363  1.7878  0.2924
 5264TIP3   OH215797   1.765   0.151   3.909 -0.3823 -0.2746 -0.5594
 5264TIP3    H115798   1.754   0.235   3.865 -0.1736 -0.4428 -0.9448
 5264TIP3    H215799   1.769   0.087   3.837 -0.0731 -0.5583 -0.2941
 5265TIP3   OH215800   1.587   2.748   3.602 -0.1339 -0.1109 -0.0291
 5265TIP3    H115801   1.578   2.808   3.676  1.6664 -1.6702  1.6034
 5265TIP3    H215802   1.559   2.663   3.637  0.3368 -0.8061 -1.2827
 5266TIP3   OH215803   6.341   1.197   4.564  0.2588  0.1581 -0.0610
 5266TIP3    H115804   6.405   1.267   4.583  1.0468 -0.2997 -0.9334
 5266TIP3    H215805   6.257   1.242   4.560  0.9673  1.4656 -2.5656
 5267TIP3   OH215806   2.032   2.593   2.031 -0.2306  0.0023  0.3725
 5267TIP3    H115807   2.113   2.618   1.986  0.9696 -1.1396  1.7951
 5267TIP3    H215808   2.050   2.609   2.124 -2.2800  1.3577  0.6079
 5268TIP3   OH215809   3.394   2.155   2.752  0.5440  0.0932  0.7182
 5268TIP3    H115810   3.435   2.199   2.827 -1.1759 -1.2917  2.5922
 5268TIP3    H215811   3.438   2.070   2.748 -0.9326 -0.7832  1.7622
 5269TIP3   OH215812   2.902   1.758   4.306  0.0428 -0.1444 -0.0697
 5269TIP3    H115813   2.821   1.713   4.330  0.5607 -1.7291 -1.1305
 5269TIP3    H215814   2.958   1.750   4.383  0.8397 -3.1320 -0.8439
 5270TIP3   OH215815   2.148   0.372   1.565  0.0422  0.5615  0.5641
 5270TIP3    H115816   2.125   0.317   1.490  0.4693  0.4333  0.5245
 5270TIP3    H215817   2.065   0.391   1.608 -0.1763  0.4304  0.1979
 5271TIP3   OH215818   2.697   0.390   1.033 -0.6946 -0.0954 -0.1614
 5271TIP3    H115819   2.660   0.473   1.002 -1.1412 -0.5737 -0.9576
 5271TIP3    H215820   2.621   0.339   1.061 -0.3856 -0.0886  0.6963
 5272TIP3   OH215821   1.609   1.821   0.106 -0.0230  0.2856  0.1160
 5272TIP3    H115822   1.566   1.741   0.135  2.4912 -1.2758 -0.1404
 5272TIP3    H215823   1.608   1.815   0.010 -1.2753  1.4461  0.0258
 5273TIP3   OH215824   2.764   3.288   0.426 -0.3145 -0.3778 -0.2399
 5273TIP3    H115825   2.841   3.232   0.430  1.4877  1.9067 -0.4935
 5273TIP3    H215826   2.712   3.252   0.355  0.1851 -2.3260  0.3153
 5274TIP3   OH215827   5.360   5.519   1.529  0.1824 -0.2384 -0.4146
 5274TIP3    H115828   5.416   5.450   1.565  0.8880 -0.2632 -1.5386
 5274TIP3    H215829   5.417   5.569   1.471 -0.6298  0.5562 -0.5457
 5275TIP3   OH215830   0.264   1.926   3.476  0.2136  0.3854 -0.2050
 5275TIP3    H115831   0.311   1.854   3.435  1.3675 -0.8889  2.9834
 5275TIP3    H215832   0.171   1.907   3.459  0.5916 -0.8625 -0.9483
 5276TIP3   OH215833   2.556   3.039   3.053  0.4095 -0.0094  0.0247
 5276TIP3    H115834   2.595   3.069   2.971  1.8901  0.2433  0.8045
 5276TIP3    H215835   2.605   2.960   3.076  0.4654  0.3097  1.0270
 5277TIP3   OH215836   4.732   2.264   1.615  0.5192  0.2217 -0.0711
 5277TIP3    H115837   4.654   2.305   1.653  0.0719 -0.5235 -0.1683
 5277TIP3    H215838   4.710   2.171   1.609  1.4395 -0.0053 -0.0485
 5278TIP3   OH215839   1.824   2.708   4.789 -0.1243  0.0187 -0.1816
 5278TIP3    H115840   1.882   2.765   4.739  0.2325  0.6551  0.9398
 5278TIP3    H215841   1.860   2.620   4.776 -0.1630  0.1386 -1.1978
 5279TIP3   OH215842   4.210   5.050   2.491 -0.7404  0.4067  0.1781
 5279TIP3    H115843   4.222   5.038   2.585 -0.1294  0.6609  0.1394
 5279TIP3    H215844   4.296   5.077   2.459 -1.1403  1.1208 -0.3291
 5280TIP3   OH215845   3.268   3.036   4.852 -0.1136 -0.4902 -0.0448
 5280TIP3    H115846   3.279   3.117   4.802  0.8420 -0.8425 -0.4315
 5280TIP3    H215847   3.288   3.062   4.942 -0.3823 -0.1719 -0.0731
 5281TIP3   OH215848   0.193   0.287   4.464  0.2010  0.0206  0.0714
 5281TIP3    H115849   0.192   0.308   4.370  1.0464  0.7218  0.2027
 5281TIP3    H215850   0.116   0.330   4.499 -1.4887 -2.1989 -0.6607
 5282TIP3   OH215851   5.937   5.002   4.813  0.4910 -0.4558 -0.0408
 5282TIP3    H115852   5.878   4.958   4.752  1.8320  0.5658 -2.1719
 5282TIP3    H215853   6.001   4.935   4.838 -0.0756 -0.8827  0.2885
 5283TIP3   OH215854   6.198   1.466   3.679 -0.2104  0.7080 -0.0676
 5283TIP3    H115855   6.292   1.467   3.697 -0.2161  0.6591 -0.0354
 5283TIP3    H215856   6.189   1.512   3.595 -0.0026 -0.4913 -0.7741
 5284TIP3   OH215857   3.338   1.286   4.845  0.0042 -0.0452 -0.2414
 5284TIP3    H115858   3.357   1.376   4.819 -0.4890 -0.0143 -0.5063
 5284TIP3    H215859   3.283   1.252   4.775 -1.9606  0.2818  1.0548
 5285TIP3   OH215860   5.688   3.956   3.399  0.2953  0.5504 -0.2840
 5285TIP3    H115861   5.635   3.927   3.324 -0.9603 -2.3026  1.5511
 5285TIP3    H215862   5.659   4.046   3.415 -1.0233  0.4558 -1.8330
 5286TIP3   OH215863   1.635   3.907   0.829  0.1241  0.4325  0.0754
 5286TIP3    H115864   1.646   3.912   0.923  0.0878 -0.3654  0.1293
 5286TIP3    H215865   1.614   3.815   0.812 -0.2556  0.6436 -0.6646
 5287TIP3   OH215866   4.118   5.122   3.829  0.3834  0.2496 -0.4079
 5287TIP3    H115867   4.043   5.177   3.805  0.3248  0.8918  1.1426
 5287TIP3    H215868   4.177   5.181   3.877  1.1116 -0.6358 -0.1884
 5288TIP3   OH215869   0.599   3.270   0.515 -0.0133 -0.0803 -0.1532
 5288TIP3    H115870   0.692   3.270   0.537  0.0652 -1.7807 -0.3240
 5288TIP3    H215871   0.564   3.347   0.559  1.0767 -0.5618  1.6736
 5289TIP3   OH215872   0.834   0.803   0.310 -0.8386 -0.1412 -0.3815
 5289TIP3    H115873   0.870   0.852   0.384 -2.1348  0.6441 -0.2370
 5289TIP3    H215874   0.875   0.841   0.233  1.6615 -1.9432 -0.0576
 5290TIP3   OH215875   4.167   4.317   0.512 -0.4321  0.2538  0.2714
 5290TIP3    H115876   4.131   4.283   0.595  1.3222 -0.9310  0.5975
 5290TIP3    H215877   4.223   4.390   0.539  0.4294 -0.3640  0.2004
 5291TIP3   OH215878   2.517   0.764   4.156 -0.3746  0.6633  0.2522
 5291TIP3    H115879   2.468   0.696   4.110  0.2025 -0.5731  1.3736
 5291TIP3    H215880   2.563   0.717   4.226  0.8148  2.0763  0.4747
 5292TIP3   OH215881   3.750   0.286   1.076 -0.1713  0.1240  0.4209
 5292TIP3    H115882   3.673   0.239   1.109 -0.0019 -1.0949 -0.8173
 5292TIP3    H215883   3.721   0.377   1.070 -1.5033 -0.2917  0.0768
 5293TIP3   OH215884   3.716   3.772   1.304  0.0648  0.3074  0.6024
 5293TIP3    H115885   3.773   3.773   1.227  0.1351 -1.5582  0.5842
 5293TIP3    H215886   3.773   3.742   1.376  0.1907  2.6927  1.6184
 5294TIP3   OH215887   2.527   5.302   0.533  0.3530 -0.0072 -0.5538
 5294TIP3    H115888   2.508   5.212   0.562 -0.7919  0.0072 -1.1905
 5294TIP3    H215889   2.442   5.347   0.539 -0.4174 -0.3638 -5.2129
 5295TIP3   OH215890   3.928   3.419   1.630 -0.5321  0.1458  0.0724
 5295TIP3    H115891   4.001   3.376   1.587 -1.1330 -0.0128 -0.8118
 5295TIP3    H215892   3.955   3.426   1.722  0.5630  0.0640 -0.2348
 5296TIP3   OH215893   0.213   4.384   0.594 -0.6052 -0.3920 -0.0811
 5296TIP3    H115894   0.184   4.297   0.620 -0.1713 -0.8870 -1.1672
 5296TIP3    H215895   0.148   4.413   0.530 -0.8908  0.1976  0.4703
 5297TIP3   OH215896   5.295   5.735   3.374 -0.2147  0.0452  0.1549
 5297TIP3    H115897   5.386   5.711   3.361 -0.0801  0.2516  0.6977
 5297TIP3    H215898   5.283   5.816   3.324 -0.5607 -0.8996 -1.3404
 5298TIP3   OH215899   4.035   3.859   1.564 -0.3332 -0.2612  0.3773
 5298TIP3    H115900   4.091   3.824   1.494  1.3893 -1.0086  2.0444
 5298TIP3    H215901   4.011   3.947   1.532  0.1290 -0.6897 -1.2768
 5299TIP3   OH215902   3.107   5.207   4.597 -0.0829 -0.0004  0.0076
 5299TIP3    H115903   3.115   5.302   4.586  1.6691  0.0228  1.1829
 5299TIP3    H215904   3.155   5.188   4.677 -0.1760 -1.9283 -0.3539
 5300TIP3   OH215905   3.724   4.825   2.600  0.2290 -0.6851 -0.2176
 5300TIP3    H115906   3.764   4.840   2.686 -0.1610  0.3504 -0.2042
 5300TIP3    H215907   3.763   4.743   2.569  0.7442 -0.8091  0.7288
 5301TIP3   OH215908   0.186   2.685   1.475  0.5439  0.0573 -0.3429
 5301TIP3    H115909   0.205   2.751   1.541 -0.8435  0.7733 -0.6176
 5301TIP3    H215910   0.206   2.601   1.518  1.0748  0.5906  0.4618
 5302TIP3   OH215911   5.817   1.347   4.468 -0.5200 -0.6010 -0.2093
 5302TIP3    H115912   5.743   1.332   4.410 -0.8347 -0.6858  0.2066
 5302TIP3    H215913   5.787   1.414   4.529 -1.4041 -2.7731  1.9140
 5303TIP3   OH215914   0.347   2.060   2.913 -0.1847 -0.0995  0.2757
 5303TIP3    H115915   0.353   2.032   3.005 -1.0539 -1.0422  0.0665
 5303TIP3    H215916   0.359   2.154   2.916  0.8196 -0.2307  1.2478
 5304TIP3   OH215917   2.852   4.088   4.508 -0.4571 -0.3130 -0.1111
 5304TIP3    H115918   2.939   4.112   4.478 -0.9844 -0.3912 -1.8381
 5304TIP3    H215919   2.837   4.141   4.586 -0.3707  2.7074 -1.9845
 5305TIP3   OH215920   2.041   1.441   3.559  0.1789 -0.9656  0.1618
 5305TIP3    H115921   2.028   1.464   3.651 -1.1686 -0.7728 -0.0486
 5305TIP3    H215922   2.077   1.521   3.520 -0.2202 -0.6989  0.3277
 5306TIP3   OH215923   4.710   3.463   5.056 -0.3113 -0.3684  0.2867
 5306TIP3    H115924   4.768   3.539   5.065 -0.9010  0.5002 -2.2562
 5306TIP3    H215925   4.635   3.484   5.112  0.6733 -0.3740  1.6791
 5307TIP3   OH215926   0.089   4.543   4.122  0.0382 -0.2278 -0.2040
 5307TIP3    H115927   0.134   4.559   4.205  0.4855  2.7556 -0.9281
 5307TIP3    H215928   0.036   4.621   4.107 -1.0754 -1.2649 -2.1196
 5308TIP3   OH215929   4.898   2.818   3.765 -0.0628 -0.2918 -0.1663
 5308TIP3    H115930   4.938   2.759   3.829 -1.6357 -1.2703 -0.0537
 5308TIP3    H215931   4.877   2.897   3.816 -1.4763 -1.1370  0.6187
 5309TIP3   OH215932   3.084   4.370   0.200 -0.0229  0.2249  0.5734
 5309TIP3    H115933   2.989   4.367   0.201 -0.0318  0.1825  2.2766
 5309TIP3    H215934   3.111   4.330   0.282  1.4955 -0.2115 -0.0935
 5310TIP3   OH215935   2.041   2.901   1.589  0.3964 -0.2571 -0.0053
 5310TIP3    H115936   1.997   2.934   1.668  1.9942 -1.9837  1.7266
 5310TIP3    H215937   2.092   2.975   1.558  0.7614  0.1153  1.3950
 5311TIP3   OH215938   0.760   4.945   4.767 -0.5592 -0.4349  0.2152
 5311TIP3    H115939   0.834   4.895   4.801  0.2153  0.2202 -0.4707
 5311TIP3    H215940   0.690   4.933   4.832  0.8298  0.7173  2.0140
 5312TIP3   OH215941   2.126   0.620   0.598 -0.0166 -0.2702  0.2242
 5312TIP3    H115942   2.113   0.525   0.588  2.0341 -0.3959 -2.7431
 5312TIP3    H215943   2.198   0.640   0.537  2.5340  2.5567  3.7406
 5313TIP3   OH215944   1.903   0.644   1.925 -0.5204 -0.1385  0.8957
 5313TIP3    H115945   1.870   0.672   1.840 -1.1035 -0.3825  1.0370
 5313TIP3    H215946   1.975   0.704   1.944 -2.0066  1.5683  1.4085
 5314TIP3   OH215947   0.850   2.713   3.566  0.2628  0.3527  0.4590
 5314TIP3    H115948   0.880   2.800   3.536  2.7826 -0.7499 -0.4868
 5314TIP3    H215949   0.922   2.654   3.543 -1.1659 -1.9306  1.5571
 5315TIP3   OH215950   1.162   5.618   4.880  0.0410 -0.2112  0.0685
 5315TIP3    H115951   1.143   5.564   4.803  0.1419  0.4412 -0.4233
 5315TIP3    H215952   1.078   5.628   4.924 -0.5551  1.4884 -1.3309
 5316TIP3   OH215953   2.145   3.351   2.172  0.1344  0.6622 -0.1527
 5316TIP3    H115954   2.095   3.427   2.203 -1.1910  1.3651 -3.5480
 5316TIP3    H215955   2.079   3.290   2.140  1.2507 -1.4875  1.3473
 5317TIP3   OH215956   4.996   3.023   3.369  0.4219  0.1469  0.1588
 5317TIP3    H115957   5.048   2.967   3.311  2.3767  1.3498  0.6523
 5317TIP3    H215958   5.060   3.058   3.431 -1.3882 -0.1097  2.2878
 5318TIP3   OH215959   0.683   2.659   2.036  0.4856 -0.2830  0.1613
 5318TIP3    H115960   0.648   2.577   2.002  1.9827 -1.0098  0.3182
 5318TIP3    H215961   0.627   2.727   1.996 -1.2012 -1.3692  0.5688
 5319TIP3   OH215962   2.722   0.406   4.027 -0.1183 -0.4508  0.1814
 5319TIP3    H115963   2.709   0.378   4.117  3.3325 -0.9852  0.6434
 5319TIP3    H215964   2.751   0.328   3.981  2.4287  0.6144 -0.2448
 5320TIP3   OH215965   0.359   0.147   2.392  0.6473  0.1688 -0.4088
 5320TIP3    H115966   0.341   0.214   2.327 -1.3112 -1.8683 -2.1748
 5320TIP3    H215967   0.412   0.082   2.346 -2.0947 -2.0914 -0.7051
 5321TIP3   OH215968   6.070   1.231   0.091 -0.1823  0.6449 -0.0687
 5321TIP3    H115969   5.982   1.205   0.064  0.5249 -1.0003 -0.9554
 5321TIP3    H215970   6.107   1.272   0.013  0.4592 -0.3850 -0.3217
 5322TIP3   OH215971   4.902   0.549   0.376  0.9029  0.2559  0.1223
 5322TIP3    H115972   4.879   0.476   0.433  0.4913  0.4903  0.2660
 5322TIP3    H215973   4.907   0.511   0.288  2.0604 -0.2082  0.3818
 5323TIP3   OH215974   1.806   4.627   4.109 -0.2354 -0.0932  0.1116
 5323TIP3    H115975   1.838   4.706   4.066  0.0912  0.0947  0.6956
 5323TIP3    H215976   1.711   4.636   4.109 -0.1778  0.5229  0.5972
 5324TIP3   OH215977   2.403   2.980   0.419  0.5470 -0.3494  0.3366
 5324TIP3    H115978   2.457   2.974   0.498 -1.5277  0.4580  1.8889
 5324TIP3    H215979   2.338   2.911   0.428  0.0144  0.0273 -0.4818
 5325TIP3   OH215980   3.680   1.565   4.136  0.0549  0.0182 -0.3791
 5325TIP3    H115981   3.720   1.644   4.173 -1.2916  0.8261 -0.5899
 5325TIP3    H215982   3.593   1.561   4.176  0.1656 -1.4974 -0.2039
 5326TIP3   OH215983   5.728   5.621   3.873 -0.0176 -0.0661  0.5206
 5326TIP3    H115984   5.735   5.714   3.896  0.7432 -0.0271  0.1449
 5326TIP3    H215985   5.701   5.578   3.954 -4.6802  0.9836 -0.1633
 5327TIP3   OH215986   3.129   5.811   2.066 -0.3358 -0.5663  0.5196
 5327TIP3    H115987   3.051   5.833   2.117 -0.6319 -1.2690  0.3764
 5327TIP3    H215988   3.096   5.761   1.991  0.2834 -1.1218  0.6095
 5328TIP3   OH215989   4.649   0.564   2.999  0.1982  0.0934  0.3333
 5328TIP3    H115990   4.646   0.558   3.094 -0.0414 -1.3373  0.2614
 5328TIP3    H215991   4.726   0.513   2.974 -0.9194 -1.3680 -0.3204
 5329TIP3   OH215992   0.099   5.453   2.983  0.2681 -0.4660 -0.2635
 5329TIP3    H115993   0.110   5.358   2.983 -0.6366 -0.5860 -1.1327
 5329TIP3    H215994   0.012   5.467   3.020  0.5601  0.0567  0.2434
 5330TIP3   OH215995   4.130   0.546   3.421 -0.0604  0.1490  0.1500
 5330TIP3    H115996   4.152   0.512   3.508  0.8522 -1.9268 -0.8234
 5330TIP3    H215997   4.185   0.624   3.412  2.5274 -1.5595  0.1489
 5331TIP3   OH215998   1.188   1.351   4.285 -0.1597 -0.0684 -0.6777
 5331TIP3    H115999   1.150   1.320   4.203  0.0342  0.3714 -0.9364
 5331TIP3    H216000   1.204   1.445   4.271 -4.5079  1.3077  1.3913
 5332TIP3   OH216001   2.387   5.530   2.772 -0.4454 -0.4845  0.3531
 5332TIP3    H116002   2.299   5.506   2.800 -0.3241 -1.4205 -0.0235
 5332TIP3    H216003   2.432   5.446   2.762  0.8757  0.0139  1.7443
 5333TIP3   OH216004   4.878   4.920   3.620  0.6498  0.1833 -0.2257
 5333TIP3    H116005   4.840   4.971   3.691  1.3347 -0.3666  0.5609
 5333TIP3    H216006   4.903   4.985   3.554 -0.6675  0.6315 -0.2975
 5334TIP3   OH216007   4.169   3.289   3.191 -0.4879 -0.5878  0.1588
 5334TIP3    H116008   4.192   3.196   3.182  0.5833 -0.4046  0.8030
 5334TIP3    H216009   4.183   3.325   3.103 -0.1256 -0.8845  0.0893
 5335TIP3   OH216010   5.862   4.861   0.478 -0.0472  0.4808  0.2485
 5335TIP3    H116011   5.844   4.870   0.572 -0.4183 -0.1086  0.2397
 5335TIP3    H216012   5.885   4.949   0.450  0.3856  0.6061  0.9619
 5336TIP3   OH216013   1.734   4.447   4.643 -0.5811 -0.1285  0.2228
 5336TIP3    H116014   1.764   4.356   4.638 -2.6224 -0.7699 -1.2248
 5336TIP3    H216015   1.728   4.476   4.552 -0.4132  1.3395  0.6486
 5337TIP3   OH216016   3.096   2.462   5.049  0.2444 -0.0316 -0.1565
 5337TIP3    H116017   3.159   2.391   5.067 -0.0835 -0.4475 -0.5964
 5337TIP3    H216018   3.099   2.518   5.126  0.4598 -0.5689  0.2312
 5338TIP3   OH216019   5.820   4.843   2.280 -0.2751  0.2636  0.2020
 5338TIP3    H116020   5.827   4.812   2.370  0.8524 -0.1765 -0.0111
 5338TIP3    H216021   5.818   4.763   2.228 -2.2435  0.4796 -0.1126
 5339TIP3   OH216022   5.271   3.985   4.532  0.0912 -0.0097  0.1105
 5339TIP3    H116023   5.328   4.060   4.516 -0.8381  0.6553 -0.1373
 5339TIP3    H216024   5.230   4.004   4.617  2.1541 -1.7208  1.5997
 5340TIP3   OH216025   3.022   4.222   4.746  0.0530 -0.2065  0.1171
 5340TIP3    H116026   3.038   4.222   4.841  1.1180  0.6265 -0.0356
 5340TIP3    H216027   3.097   4.175   4.709 -0.7834 -1.2486 -0.2619
 5341TIP3   OH216028   5.350   5.575   1.877 -0.5867  0.0426  0.1299
 5341TIP3    H116029   5.364   5.499   1.821  0.2773  1.1059 -1.1632
 5341TIP3    H216030   5.434   5.621   1.876 -0.7890  0.5136  1.7016
 5342TIP3   OH216031   2.799   2.940   1.940  0.1389 -0.4436 -0.3576
 5342TIP3    H116032   2.781   2.947   1.846  1.1061 -1.7689 -0.6771
 5342TIP3    H216033   2.736   2.876   1.972  0.0400 -0.2489 -0.1544
 5343TIP3   OH216034   0.107   2.412   2.811  0.0162  0.1440 -0.5748
 5343TIP3    H116035   0.151   2.370   2.737  0.1660 -0.9773  0.1251
 5343TIP3    H216036   0.018   2.378   2.808  0.2622 -0.5854  0.2675
 5344TIP3   OH216037   2.510   5.263   1.957  0.2565 -0.3321 -0.0346
 5344TIP3    H116038   2.490   5.337   1.900 -0.0204  0.4757  1.0826
 5344TIP3    H216039   2.595   5.231   1.925  0.7289  0.9124 -0.0923
 5345TIP3   OH216040   3.187   4.716   2.512  0.3765  0.3155  0.1012
 5345TIP3    H116041   3.110   4.730   2.568 -0.2105 -0.3685 -0.5216
 5345TIP3    H216042   3.185   4.623   2.491  1.5387  0.2333  0.2967
 5346TIP3   OH216043   2.129   2.355   0.223 -0.2848  0.1385 -0.1511
 5346TIP3    H116044   2.213   2.380   0.184  0.1282  0.1226  0.7048
 5346TIP3    H216045   2.078   2.436   0.226  0.6590  0.7184  1.6521
 5347TIP3   OH216046   2.524   5.921   0.864  0.2178  0.0896 -0.3768
 5347TIP3    H116047   2.449   5.862   0.859  0.2221  0.0930 -0.4949
 5347TIP3    H216048   2.550   5.919   0.956  1.1466 -1.2567 -0.6351
 5348TIP3   OH216049   0.498   0.304   2.566 -0.2715  0.0258 -0.5970
 5348TIP3    H116050   0.489   0.394   2.534 -1.0938  0.1231 -0.1250
 5348TIP3    H216051   0.450   0.251   2.502 -1.9572  0.2258  0.4335
 5349TIP3   OH216052   4.287   4.608   1.320 -0.4385 -0.4451 -0.2880
 5349TIP3    H116053   4.366   4.653   1.352 -0.5878 -1.0669  1.0038
 5349TIP3    H216054   4.289   4.523   1.362 -1.4292 -0.7513 -0.8311
 5350TIP3   OH216055   1.325   3.876   1.315  0.1597  0.1054  0.1545
 5350TIP3    H116056   1.359   3.807   1.259  1.8196  1.6973 -0.8993
 5350TIP3    H216057   1.230   3.873   1.303  0.1948 -1.9218  0.1183
 5351TIP3   OH216058   4.561   1.956   3.925 -0.1736  0.5140 -0.1897
 5351TIP3    H116059   4.571   2.024   3.859  0.9026  0.7166  0.1552
 5351TIP3    H216060   4.500   1.993   3.989 -0.5165  0.6728 -0.6051
 5352TIP3   OH216061   1.753   0.958   2.467  0.0382  0.1270 -0.5349
 5352TIP3    H116062   1.779   0.915   2.549 -0.4226  0.3036 -0.2893
 5352TIP3    H216063   1.670   1.000   2.488  1.4314  2.8847 -0.1639
 5353TIP3   OH216064   1.721   1.532   4.085 -0.3035 -0.7382  0.6802
 5353TIP3    H116065   1.641   1.488   4.113 -0.6872 -0.6890 -0.3262
 5353TIP3    H216066   1.777   1.461   4.053 -0.5699 -0.6038 -0.0979
 5354TIP3   OH216067   0.942   0.437   1.208 -0.3810 -0.4917  0.4637
 5354TIP3    H116068   0.980   0.415   1.123 -2.7470  4.0443 -2.2242
 5354TIP3    H216069   1.017   0.461   1.263  1.1485  0.5444 -1.8910
 5355TIP3   OH216070   0.130   4.929   4.344 -0.5482  0.4747  0.2321
 5355TIP3    H116071   0.147   5.004   4.287 -0.0316  0.2622  0.1088
 5355TIP3    H216072   0.146   4.963   4.433 -1.3819  0.8125  0.2628
 5356TIP3   OH216073   5.570   5.696   4.637 -0.0174  0.0238 -0.3929
 5356TIP3    H116074   5.651   5.690   4.687 -0.1967  0.4518 -0.0420
 5356TIP3    H216075   5.532   5.780   4.663 -0.3664  0.0158 -0.8657
 5357TIP3   OH216076   2.011   4.607   0.057 -0.2407 -0.7758 -0.5861
 5357TIP3    H116077   2.007   4.590   0.151  1.6173  1.3670 -0.0346
 5357TIP3    H216078   1.926   4.645   0.036 -1.0980 -2.3178 -0.0639
 5358TIP3   OH216079   6.062   0.099   0.440  0.5283  0.6504 -0.0752
 5358TIP3    H116080   6.105   0.161   0.498 -0.9487 -0.2678  2.1189
 5358TIP3    H216081   5.983   0.073   0.487 -0.6011 -0.3776 -2.3973
 5359TIP3   OH216082   1.270   0.892   2.042  0.1745  0.4891  0.2605
 5359TIP3    H116083   1.210   0.820   2.061  0.1106  0.5556  0.3127
 5359TIP3    H216084   1.213   0.964   2.017  0.1094  1.1087  2.0403
 5360TIP3   OH216085   2.891   3.192   1.925 -0.0587  0.4380 -0.4734
 5360TIP3    H116086   2.887   3.104   1.962  0.7694  0.7673  0.4623
 5360TIP3    H216087   2.982   3.203   1.898  0.2225  1.5350  0.8201
 5361TIP3   OH216088   2.230   4.385   1.497 -0.9205 -0.3309  0.1402
 5361TIP3    H116089   2.313   4.371   1.542 -1.4535 -1.8491  0.7131
 5361TIP3    H216090   2.237   4.334   1.417 -1.2476 -0.3333  0.1120
 5362TIP3   OH216091   1.746   1.553   4.458  0.3265  0.5459 -0.1854
 5362TIP3    H116092   1.822   1.577   4.404 -0.8533  0.0379 -2.1968
 5362TIP3    H216093   1.674   1.601   4.418 -0.5994  0.2089  1.0461
 5363TIP3   OH216094   2.499   1.448   0.199 -0.5054 -0.2292 -0.0901
 5363TIP3    H116095   2.458   1.363   0.216 -1.0458  0.5866  3.4516
 5363TIP3    H216096   2.568   1.455   0.264 -0.3799  2.0126 -0.3940
 5364TIP3   OH216097   2.213   4.800   0.139 -0.5226 -0.3625 -0.0175
 5364TIP3    H116098   2.153   4.756   0.200 -0.1500 -1.3875 -0.3719
 5364TIP3    H216099   2.156   4.839   0.073 -0.8251 -1.1096 -0.2099
 5365TIP3   OH216100   3.438   0.793   1.047  0.1985 -0.3661  0.4015
 5365TIP3    H116101   3.464   0.721   0.989  0.8098 -0.8445  1.2522
 5365TIP3    H216102   3.350   0.817   1.018 -0.2240 -1.8048  0.4477
 5366TIP3   OH216103   5.291   1.290   1.685  0.3392 -0.1813 -0.3109
 5366TIP3    H116104   5.248   1.251   1.609  1.0710 -1.8314  0.0759
 5366TIP3    H216105   5.330   1.216   1.731  0.7713  0.8967  1.1384
 5367TIP3   OH216106   5.791   2.586   4.272  0.0124  0.0582 -0.3440
 5367TIP3    H116107   5.792   2.540   4.355 -0.8394 -0.6408 -0.7043
 5367TIP3    H216108   5.728   2.656   4.284  1.0521  0.9546  0.0912
 5368TIP3   OH216109   4.381   2.899   4.223  0.2635 -0.1669  0.4944
 5368TIP3    H116110   4.383   2.945   4.307 -0.2961 -0.9689  0.9519
 5368TIP3    H216111   4.471   2.869   4.210  0.5919  0.8724  0.2815
 5369TIP3   OH216112   0.636   5.784   0.927  0.1635 -0.3909 -0.0848
 5369TIP3    H116113   0.555   5.734   0.932  0.3847 -0.8614 -1.0387
 5369TIP3    H216114   0.705   5.720   0.946  0.2767  0.2424  1.8977
 5370TIP3   OH216115   5.542   3.771   3.845  0.3493  0.5438 -0.3781
 5370TIP3    H116116   5.576   3.821   3.771  0.4487  0.2862 -0.5075
 5370TIP3    H216117   5.597   3.796   3.919 -1.5074  2.9982  0.2927
 5371TIP3   OH216118   4.480   3.418   2.508  0.5199 -0.0599 -0.2353
 5371TIP3    H116119   4.572   3.404   2.486  0.1053 -0.5895 -1.7337
 5371TIP3    H216120   4.477   3.508   2.542  1.6193 -0.1072  0.0153
 5372TIP3   OH216121   3.905   1.096   1.598  0.0169  0.3097 -0.0684
 5372TIP3    H116122   3.820   1.060   1.624  1.2118 -1.7737  1.2589
 5372TIP3    H216123   3.926   1.051   1.516 -0.5591  1.5912 -0.9610
 5373TIP3   OH216124   2.896   4.396   0.700 -0.4094  0.1228  0.5142
 5373TIP3    H116125   2.903   4.359   0.788  0.5203  0.7020  0.7003
 5373TIP3    H216126   2.806   4.428   0.694 -0.2149  0.9632  1.6283
 5374TIP3   OH216127   0.070   0.272   1.502  0.2878 -0.5495 -0.4176
 5374TIP3    H116128   0.024   0.351   1.474  1.6056 -0.1959 -1.7221
 5374TIP3    H216129   0.160   0.300   1.517  0.9410 -1.8994 -1.5595
 5375TIP3   OH216130   2.547   5.046   0.550 -0.6130  0.2142  0.5729
 5375TIP3    H116131   2.499   4.967   0.525 -0.3514  0.4905 -0.9381
 5375TIP3    H216132   2.597   5.068   0.472  0.5429  0.9825  1.5095
 5376TIP3   OH216133   0.251   2.230   0.711  0.3032 -0.3976  0.1942
 5376TIP3    H116134   0.241   2.222   0.616  0.3791 -1.0045  0.2310
 5376TIP3    H216135   0.215   2.316   0.732 -0.7611 -0.7237 -0.2415
 5377TIP3   OH216136   0.761   4.883   0.506  0.0924  0.0184 -0.4415
 5377TIP3    H116137   0.766   4.858   0.598  0.1319  0.2409 -0.3828
 5377TIP3    H216138   0.788   4.804   0.458 -3.0211 -1.2044 -0.4043
 5378TIP3   OH216139   2.035   2.710   2.789  0.1194 -0.6445  0.2443
 5378TIP3    H116140   2.117   2.661   2.790  0.2645 -0.4054 -0.0154
 5378TIP3    H216141   2.029   2.746   2.701 -0.3073 -0.7309  0.2360
 5379TIP3   OH216142   0.477   0.814   2.235 -0.4567  0.2924 -0.4636
 5379TIP3    H116143   0.430   0.733   2.215 -0.5113  0.5122 -1.2999
 5379TIP3    H216144   0.565   0.799   2.200 -0.5503  0.6929 -0.8835
 5380TIP3   OH216145   1.894   3.994   4.338  0.0759 -0.0578 -0.0874
 5380TIP3    H116146   1.880   3.993   4.432  1.6632 -1.3052  0.1650
 5380TIP3    H216147   1.948   4.072   4.322  0.6818 -0.4212  0.1779
 5381TIP3   OH216148   3.844   0.013   3.217  0.4011 -0.4179 -0.1216
 5381TIP3    H116149   3.748   0.012   3.214  0.3088  1.1524  0.7923
 5381TIP3    H216150   3.871   0.024   3.126 -0.4292  1.7570 -0.1779
 5382TIP3   OH216151   5.952   4.965   0.174 -0.1863  0.8930 -0.1929
 5382TIP3    H116152   5.944   4.871   0.159 -0.3383  0.8279  0.2818
 5382TIP3    H216153   6.005   4.996   0.101  1.4627  0.1452  0.6348
 5383TIP3   OH216154   4.702   3.609   2.267 -0.6190 -0.2354  0.5230
 5383TIP3    H116155   4.675   3.700   2.252  0.7446  0.1669  0.3397
 5383TIP3    H216156   4.760   3.589   2.193 -1.9683 -1.7487 -0.2054
 5384TIP3   OH216157   5.883   3.488   0.617 -0.7027  0.5945  0.1185
 5384TIP3    H116158   5.811   3.544   0.647 -0.6321  1.6645 -1.5685
 5384TIP3    H216159   5.844   3.401   0.609 -1.3150  0.7768  0.9808
 5385TIP3   OH216160   5.103   0.042   3.593 -0.3358 -0.6095  0.3008
 5385TIP3    H116161   5.067  -0.041   3.625  1.1279 -1.4747 -0.1842
 5385TIP3    H216162   5.027   0.093   3.568 -1.2472 -2.2701 -0.4955
 5386TIP3   OH216163   4.610   2.877   0.365 -0.3257  0.1004 -0.3304
 5386TIP3    H116164   4.530   2.832   0.393 -0.6491  1.2345  0.6520
 5386TIP3    H216165   4.604   2.964   0.405  0.9110  0.5632 -1.0961
 5387TIP3   OH216166   2.638   2.212   1.222 -0.5081 -0.0839  0.0360
 5387TIP3    H116167   2.596   2.130   1.247 -0.1980 -0.1869  0.2150
 5387TIP3    H216168   2.646   2.207   1.127 -0.7244 -0.1471  0.0208
 5388TIP3   OH216169   2.024   3.563   4.048  0.2893 -0.1894  0.4205
 5388TIP3    H116170   2.054   3.608   4.126  0.1312 -0.5915  0.7168
 5388TIP3    H216171   2.006   3.473   4.077 -0.1317 -0.2442  0.0082
 5389TIP3   OH216172   0.769   4.344   3.059  0.1362  0.0542 -0.5415
 5389TIP3    H116173   0.795   4.391   3.138 -0.0357 -2.6425  1.2499
 5389TIP3    H216174   0.849   4.304   3.027  0.1953  1.0982 -1.7546
 5390TIP3   OH216175   2.558   4.788   3.969  0.2551  0.1402 -0.2259
 5390TIP3    H116176   2.644   4.815   3.936  0.9572 -0.9764  0.5938
 5390TIP3    H216177   2.569   4.695   3.992 -0.5903  0.4744  1.7608
 5391TIP3   OH216178   1.488   5.415   0.107 -0.2199 -0.1154  0.0031
 5391TIP3    H116179   1.453   5.474   0.040  0.7332 -0.2673 -0.6562
 5391TIP3    H216180   1.512   5.473   0.179  0.5463  0.3091 -0.5673
 5392TIP3   OH216181   4.355   5.382   0.737  0.2384  0.2557 -0.4458
 5392TIP3    H116182   4.347   5.449   0.670 -0.0147 -1.4657 -2.2340
 5392TIP3    H216183   4.449   5.368   0.747  0.2609 -0.1008 -1.1207
 5393TIP3   OH216184   3.192   5.231   3.711  0.1481  0.0999  0.1253
 5393TIP3    H116185   3.286   5.245   3.700  0.1091  0.6150  0.4414
 5393TIP3    H216186   3.153   5.267   3.631  0.0639  1.6823  0.8487
 5394TIP3   OH216187   2.595   1.081   1.376 -0.1471  0.2851 -0.7506
 5394TIP3    H116188   2.678   1.127   1.365  0.9898 -1.3319  0.5956
 5394TIP3    H216189   2.553   1.086   1.289  2.0834 -0.2251 -1.9169
 5395TIP3   OH216190   6.034   3.836   1.694 -0.2036 -0.7314  0.1353
 5395TIP3    H116191   6.070   3.843   1.782 -0.0034 -0.7078  0.0531
 5395TIP3    H216192   5.940   3.825   1.707 -0.0746 -1.6039  0.3767
 5396TIP3   OH216193   0.916   1.399   1.511 -0.3600  0.5709  0.5467
 5396TIP3    H116194   0.909   1.425   1.603  0.7508  0.2650  0.7393
 5396TIP3    H216195   0.995   1.345   1.508 -1.7454 -1.5631 -0.1191
 5397TIP3   OH216196   0.858   5.629   4.322 -0.5555  0.3434  0.3817
 5397TIP3    H116197   0.819   5.543   4.307 -1.5254  0.8153  0.1144
 5397TIP3    H216198   0.868   5.635   4.417 -1.4205  0.3300  0.4780
 5398TIP3   OH216199   5.270   0.747   4.589 -0.4881 -0.3494  0.0209
 5398TIP3    H116200   5.309   0.680   4.644 -1.0278 -0.4940  0.2306
 5398TIP3    H216201   5.222   0.698   4.522 -1.0378 -0.1775  0.2852
 5399TIP3   OH216202   2.547   3.940   3.384  0.5208 -0.0058  0.0874
 5399TIP3    H116203   2.519   4.014   3.438 -2.0733  0.4710 -1.7414
 5399TIP3    H216204   2.508   3.863   3.425  0.8387 -0.0063  0.3941
 5400TIP3   OH216205   4.070   3.998   3.248  0.1263 -0.1229 -0.0483
 5400TIP3    H116206   4.073   4.093   3.250  3.1267 -0.1356 -0.6270
 5400TIP3    H216207   4.031   3.974   3.332  1.6114  1.5792  1.1897
 5401TIP3   OH216208   3.549   4.395   3.001  0.1706  0.0491  0.2195
 5401TIP3    H116209   3.522   4.380   3.091 -1.7267  3.3970  0.3491
 5401TIP3    H216210   3.479   4.358   2.948  0.1934  0.0607  0.1812
 5402TIP3   OH216211   1.877   0.981   1.847  0.8913 -0.1417 -0.2195
 5402TIP3    H116212   1.786   0.966   1.873  0.1009 -0.8779 -3.0314
 5402TIP3    H216213   1.920   1.013   1.926 -1.4456 -1.1948  1.5882
 5403TIP3   OH216214   4.792   3.420   2.442 -0.0263 -0.0236 -0.5723
 5403TIP3    H116215   4.803   3.342   2.387  1.2218 -1.0241  1.0165
 5403TIP3    H216216   4.759   3.487   2.382 -2.4296 -2.0843 -1.7548
 5404TIP3   OH216217   2.340   0.508   4.667 -0.4532 -0.3878 -0.0134
 5404TIP3    H116218   2.279   0.560   4.720 -0.2214  0.4692 -0.5591
 5404TIP3    H216219   2.425   0.521   4.708 -0.2566  0.3625 -0.6402
 5405TIP3   OH216220   6.222   1.572   3.177  0.0922 -0.3324 -0.8011
 5405TIP3    H116221   6.190   1.486   3.149  1.5654 -0.0140 -3.8984
 5405TIP3    H216222   6.152   1.632   3.153 -0.7545 -0.5690  0.9639
 5406TIP3   OH216223   5.726   0.779   2.602  0.2740 -0.8943  0.4264
 5406TIP3    H116224   5.685   0.697   2.576  0.8217 -0.8301 -0.7229
 5406TIP3    H216225   5.791   0.754   2.667  0.9200 -1.4903 -0.4178
 5407TIP3   OH216226   5.900   3.068   3.579 -0.4744 -0.0815  0.6915
 5407TIP3    H116227   5.957   2.991   3.590 -0.2525  0.0259  0.3162
 5407TIP3    H216228   5.834   3.059   3.648 -1.0777 -1.1662 -0.0070
 5408TIP3   OH216229   6.078   2.253   0.453  0.5864 -0.1289 -0.3000
 5408TIP3    H116230   6.157   2.304   0.467  1.1491 -1.1622  0.4331
 5408TIP3    H216231   6.109   2.164   0.433 -0.3642 -0.7594  0.8724
 5409TIP3   OH216232   1.156   2.144   3.745 -0.2768  0.4173  0.0408
 5409TIP3    H116233   1.160   2.107   3.834 -0.8106  1.7357  0.6424
 5409TIP3    H216234   1.064   2.139   3.721 -0.3166  1.0811  0.0263
 5410TIP3   OH216235   4.405   5.261   4.579  0.1816 -0.1272  0.1977
 5410TIP3    H116236   4.441   5.180   4.545  1.3166 -0.4601  2.0740
 5410TIP3    H216237   4.376   5.239   4.667 -1.3643  1.0358  0.0208
 5411TIP3   OH216238   2.091   0.821   1.473 -0.6954  0.3327 -0.5150
 5411TIP3    H116239   2.176   0.834   1.514  0.0148 -0.3792 -1.7050
 5411TIP3    H216240   2.037   0.779   1.540 -0.0824  0.6786  0.2056
 5412TIP3   OH216241   5.803   5.572   2.932 -0.4531 -0.6430  0.0941
 5412TIP3    H116242   5.889   5.551   2.896 -0.5688 -1.0156  0.0239
 5412TIP3    H216243   5.743   5.517   2.882 -0.5895 -1.3945  1.0575
 5413TIP3   OH216244   2.313   5.926   2.044  0.0235  0.9952  0.3777
 5413TIP3    H116245   2.318   5.962   1.955  0.2556  3.3693  1.2835
 5413TIP3    H216246   2.400   5.889   2.059 -0.1988  0.0250 -0.5600
 5414TIP3   OH216247   3.038   3.059   3.571  0.4730  0.3941  0.0253
 5414TIP3    H116248   2.994   3.124   3.626  2.7550  2.4427 -0.4012
 5414TIP3    H216249   2.967   3.002   3.539 -1.3737  1.4769  1.9602
 5415TIP3   OH216250   5.448   3.240   1.162 -0.3691 -0.1658  0.4046
 5415TIP3    H116251   5.540   3.230   1.136 -0.2990  2.2469 -0.5307
 5415TIP3    H216252   5.443   3.201   1.249  1.7943  0.5777  0.9226
 5416TIP3   OH216253   5.557   0.836   4.827 -0.9241 -0.5937 -0.1014
 5416TIP3    H116254   5.562   0.865   4.736 -1.0143 -1.0911 -0.2670
 5416TIP3    H216255   5.507   0.755   4.823  0.4463 -1.4862  0.1813
 5417TIP3   OH216256   2.325   5.739   0.925 -0.0570  0.1428 -0.6131
 5417TIP3    H116257   2.357   5.649   0.925  0.0912  0.1962 -0.6726
 5417TIP3    H216258   2.263   5.742   0.852  0.5342  0.3024 -1.1160
 5418TIP3   OH216259   5.441   4.046   2.527  0.2377  0.1848  0.0543
 5418TIP3    H116260   5.379   4.084   2.590  1.4150  0.4071  1.1233
 5418TIP3    H216261   5.416   3.954   2.520 -1.4420  0.6713 -1.0847
 5419TIP3   OH216262   4.857   5.226   1.084  0.0974  0.1515  0.0222
 5419TIP3    H116263   4.927   5.161   1.087 -0.3034 -0.3538 -1.1566
 5419TIP3    H216264   4.776   5.175   1.087 -0.2473  0.7170  1.1504
 5420TIP3   OH216265   0.357   3.891   1.245 -0.4240  0.2006 -0.0921
 5420TIP3    H116266   0.293   3.959   1.270  2.3780  3.2870 -0.5851
 5420TIP3    H216267   0.413   3.882   1.322  1.0975  0.8224 -1.0887
 5421TIP3   OH216268   2.946   3.769   2.514  0.2108 -0.0662 -0.6831
 5421TIP3    H116269   2.887   3.729   2.450  2.9366 -2.8292 -1.7539
 5421TIP3    H216270   3.030   3.773   2.469  1.9177 -0.6857  2.1970
 5422TIP3   OH216271   1.921   1.176   1.233  0.0811 -0.4582  0.3896
 5422TIP3    H116272   1.924   1.088   1.270  0.2566 -0.4493  0.3980
 5422TIP3    H216273   1.923   1.162   1.138 -1.1579 -0.5127  0.3619
 5423TIP3   OH216274   2.841   4.884   0.532  0.1281  0.4207 -0.6155
 5423TIP3    H116275   2.919   4.885   0.587  0.6804  0.1169 -1.3710
 5423TIP3    H216276   2.861   4.943   0.460  0.6610 -1.4523 -2.1028
 5424TIP3   OH216277   5.849   0.033   4.520 -0.1263 -0.1172 -0.0401
 5424TIP3    H116278   5.796  -0.018   4.459  0.3849  0.8417 -1.3335
 5424TIP3    H216279   5.787   0.064   4.586 -1.4058  1.6642 -1.9621
 5425TIP3   OH216280   1.563   4.323   0.092  0.1953 -0.3582  0.5098
 5425TIP3    H116281   1.602   4.324   0.179  0.7065 -1.0397  0.2970
 5425TIP3    H216282   1.487   4.265   0.099  1.5450 -2.2963 -0.0157
 5426TIP3   OH216283   1.364   5.358   1.861 -0.0486 -0.0943  0.1312
 5426TIP3    H116284   1.275   5.391   1.867  0.7861  2.0413  2.1883
 5426TIP3    H216285   1.399   5.365   1.950  1.6372 -2.6296 -0.2054
 5427TIP3   OH216286   2.011   3.577   1.359 -0.3467 -0.3535 -0.0946
 5427TIP3    H116287   2.010   3.650   1.421  0.8766  0.2762 -0.7785
 5427TIP3    H216288   1.945   3.600   1.294 -0.2269 -0.0347 -0.1048
 5428TIP3   OH216289   5.124   1.834   4.971  0.2905 -0.4108 -0.1382
 5428TIP3    H116290   5.190   1.879   5.024 -0.1067  0.2444 -0.1829
 5428TIP3    H216291   5.136   1.870   4.883  0.4480 -0.9331 -0.3304
 5429TIP3   OH216292   0.066   1.566   4.092 -0.0084  0.1261  0.2979
 5429TIP3    H116293   0.031   1.484   4.056 -0.0956  0.1244  0.3869
 5429TIP3    H216294  -0.000   1.595   4.155 -0.1281  0.4369  0.0292
 5430TIP3   OH216295   4.454   2.512   4.414  0.1085  0.1619 -0.3198
 5430TIP3    H116296   4.399   2.456   4.469 -4.1273  1.8003 -2.4322
 5430TIP3    H216297   4.449   2.473   4.327  1.0781  1.2533 -0.8999
 5431TIP3   OH216298   3.655   5.448   4.359  0.1741  0.5888 -0.1763
 5431TIP3    H116299   3.721   5.481   4.419 -1.1918  2.7667  0.2276
 5431TIP3    H216300   3.656   5.510   4.286 -0.4460 -0.1722 -0.8511
 5432TIP3   OH216301   1.209   0.440   4.060 -0.5663 -0.2518 -0.7690
 5432TIP3    H116302   1.148   0.485   4.119  0.7148 -0.1479  0.5109
 5432TIP3    H216303   1.171   0.353   4.048 -0.9719 -0.1934  0.0244
 5433TIP3   OH216304   4.851   4.166   4.400 -0.2631  0.2545  0.0392
 5433TIP3    H116305   4.935   4.185   4.359  0.1274 -0.0607  0.6756
 5433TIP3    H216306   4.871   4.099   4.465 -1.3520 -1.3744 -1.2082
 5434TIP3   OH216307   5.050   0.726   2.658  0.3481 -0.6471 -0.2376
 5434TIP3    H116308   5.011   0.687   2.579 -1.3037 -0.5997  0.4990
 5434TIP3    H216309   5.089   0.808   2.628  0.8010 -1.2017 -1.2032
 5435TIP3   OH216310   3.006   3.365   0.933  0.2972  0.3245  0.1623
 5435TIP3    H116311   2.977   3.288   0.885  1.4203 -0.3238  0.4975
 5435TIP3    H216312   3.030   3.428   0.866 -1.1075  0.5933 -0.1165
 5436TIP3   OH216313   2.772   1.761   4.662  0.1062  0.7775 -0.6282
 5436TIP3    H116314   2.710   1.696   4.694 -0.4154  1.4878 -0.1818
 5436TIP3    H216315   2.728   1.802   4.587  0.2300  0.9525 -0.6062
 5437TIP3   OH216316   0.109   1.762   1.498  0.2034 -0.0019 -0.4172
 5437TIP3    H116317   0.171   1.791   1.431 -0.1796  3.3574  0.5027
 5437TIP3    H216318   0.034   1.821   1.488 -0.9679 -1.0935  1.3449
 5438TIP3   OH216319   3.800   2.171   1.260 -0.3258 -0.1166 -0.6288
 5438TIP3    H116320   3.715   2.128   1.267 -0.4051  0.0728 -0.3916
 5438TIP3    H216321   3.782   2.263   1.280 -0.0799 -0.0600 -0.6631
 5439TIP3   OH216322   6.011   3.913   0.463  0.0428  0.2881 -0.0186
 5439TIP3    H116323   6.019   3.831   0.513  0.7287  0.3163 -0.0715
 5439TIP3    H216324   5.919   3.917   0.438 -0.6775  1.0120  2.4976
 5440TIP3   OH216325   1.885   2.079   2.138 -0.0875 -0.2909 -0.6320
 5440TIP3    H116326   1.801   2.079   2.091 -0.2829  0.2409 -0.2886
 5440TIP3    H216327   1.915   2.170   2.133 -0.3904 -0.0885  0.7593
 5441TIP3   OH216328   2.691   2.296   3.098 -0.3574 -0.0590 -0.3936
 5441TIP3    H116329   2.748   2.246   3.039  0.2824 -0.6121  0.6623
 5441TIP3    H216330   2.624   2.233   3.124 -1.6958  0.6762 -1.8817
 5442TIP3   OH216331   5.467   0.796   3.406 -0.0508 -0.1700  0.1401
 5442TIP3    H116332   5.473   0.799   3.310  0.7467  1.4066  0.2046
 5442TIP3    H216333   5.553   0.768   3.435  0.2609  1.0365  0.4315
 5443TIP3   OH216334   1.205   1.527   0.419 -0.0815  0.1320  0.0124
 5443TIP3    H116335   1.260   1.453   0.394  1.2888  0.8011  0.8989
 5443TIP3    H216336   1.197   1.580   0.340  3.1566  1.5917  0.4927
 5444TIP3   OH216337   5.718   4.878   0.776  0.3507  0.0498 -0.2775
 5444TIP3    H116338   5.711   4.971   0.756 -0.2231 -0.0950 -0.7857
 5444TIP3    H216339   5.757   4.875   0.863 -0.2727  0.7817  0.0429
 5445TIP3   OH216340   4.284   0.893   2.156 -0.1847  0.4289  0.3085
 5445TIP3    H116341   4.240   0.809   2.170  1.4729 -0.4406  0.5463
 5445TIP3    H216342   4.234   0.935   2.086 -0.7024 -1.0114 -0.2296
 5446TIP3   OH216343   2.824   5.039   3.039  0.5696  0.5626 -0.3996
 5446TIP3    H116344   2.831   5.134   3.035  0.8656  0.5223 -0.9063
 5446TIP3    H216345   2.843   5.010   2.950 -0.0920  0.0658 -0.3835
 5447TIP3   OH216346   4.800   0.923   2.008 -0.5208 -0.3204  0.0788
 5447TIP3    H116347   4.792   0.944   1.915 -1.1760 -1.3618 -0.1095
 5447TIP3    H216348   4.865   0.853   2.012 -1.1774 -0.9228  0.3108
 5448TIP3   OH216349   1.796   4.447   3.277  0.2384 -0.1664  0.3600
 5448TIP3    H116350   1.701   4.452   3.286  0.3476  0.6976  1.1680
 5448TIP3    H216351   1.825   4.538   3.280  1.0180 -0.3666 -0.8319
 5449TIP3   OH216352   5.922   5.129   3.000  0.2166  0.2680  0.2083
 5449TIP3    H116353   6.011   5.120   3.033  0.2073  0.0937  0.1867
 5449TIP3    H216354   5.866   5.125   3.077  0.2010 -0.0463  0.1846
 5450TIP3   OH216355   3.979   2.765   0.212 -0.2052 -0.8445  0.0190
 5450TIP3    H116356   3.965   2.859   0.196 -1.6657 -0.7022  1.8041
 5450TIP3    H216357   3.956   2.753   0.304 -1.7640 -3.2726 -0.5908
 5451TIP3   OH216358   1.899   5.982   2.066  0.3013 -0.2685  0.3760
 5451TIP3    H116359   1.936   5.941   2.144  2.6268 -0.0338 -0.5115
 5451TIP3    H216360   1.928   5.926   1.994  0.8890  1.2068 -0.5731
 5452TIP3   OH216361   5.695   3.717   2.091  0.1104  0.1919 -0.0915
 5452TIP3    H116362   5.696   3.810   2.114  1.4341 -0.1634  1.5054
 5452TIP3    H216363   5.630   3.710   2.021 -0.2003  2.2660 -0.0753
 5453TIP3   OH216364   5.369   5.436   2.121  0.0107  0.2944 -0.6901
 5453TIP3    H116365   5.340   5.363   2.066  0.8868  0.4361 -1.3626
 5453TIP3    H216366   5.354   5.514   2.068 -2.7142  0.8652  0.7290
 5454TIP3   OH216367   0.708   1.072   1.306  0.0002  0.1890 -0.3006
 5454TIP3    H116368   0.692   1.131   1.380  1.6081  2.4853 -1.6671
 5454TIP3    H216369   0.647   1.101   1.238  0.1721 -0.3465 -0.6882
 5455TIP3   OH216370   6.230   0.365   3.475 -0.8758 -0.2027 -0.4267
 5455TIP3    H116371   6.177   0.444   3.480 -0.0405  0.3913 -0.7632
 5455TIP3    H216372   6.309   0.385   3.524 -0.3640 -0.5838 -1.0710
 5456TIP3   OH216373   0.616   3.347   0.891 -0.1140 -0.4316 -0.0122
 5456TIP3    H116374   0.588   3.393   0.812  0.7402 -0.8182 -0.5597
 5456TIP3    H216375   0.546   3.284   0.908 -1.1085  0.8014  0.5329
 5457TIP3   OH216376   0.109   2.215   3.563 -0.4439  0.7232  0.2217
 5457TIP3    H116377   0.141   2.209   3.473 -0.3417 -1.9824  0.3601
 5457TIP3    H216378   0.015   2.236   3.553 -0.4297  0.4942 -0.5086
 5458TIP3   OH216379   3.630   3.905   1.543 -0.0960  0.5631 -0.0854
 5458TIP3    H116380   3.647   3.856   1.463 -0.7512 -0.5673  0.4408
 5458TIP3    H216381   3.688   3.980   1.538  0.0866  0.3559 -1.4768
 5459TIP3   OH216382   0.611   2.260   5.175 -0.3098 -0.1251 -0.2486
 5459TIP3    H116383   0.609   2.283   5.082  0.1838 -1.8201 -0.7071
 5459TIP3    H216384   0.622   2.165   5.177 -1.4690 -0.2932  1.5411
 5460TIP3   OH216385   6.016   3.637   3.483 -0.4700 -0.4960 -0.3956
 5460TIP3    H116386   6.068   3.559   3.467  0.9019 -0.1713  1.9727
 5460TIP3    H216387   6.064   3.708   3.440 -0.7779 -0.6965 -1.0688
 5461TIP3   OH216388   0.320   2.908   5.115 -0.4457  0.3199 -0.0883
 5461TIP3    H116389   0.300   3.002   5.121  0.6706  0.6698 -1.2126
 5461TIP3    H216390   0.396   2.896   5.171  0.4953  0.4706 -1.2923
 5462TIP3   OH216391   5.150   2.636   0.487 -0.1049 -0.3524  0.4142
 5462TIP3    H116392   5.166   2.566   0.424  1.2310 -0.7192  1.1326
 5462TIP3    H216393   5.090   2.696   0.442  0.0291 -1.1221 -0.8145
 5463TIP3   OH216394   3.868   4.003   0.839 -0.2675  0.7167  0.4244
 5463TIP3    H116395   3.889   4.068   0.907  0.4030  0.5220  0.4123
 5463TIP3    H216396   3.781   3.971   0.863 -0.9095  2.0931  0.0625
 5464TIP3   OH216397   1.265   3.073   1.260  0.3338  0.3169  0.0362
 5464TIP3    H116398   1.345   3.042   1.302  1.0063  0.5796 -1.0138
 5464TIP3    H216399   1.196   3.055   1.324  1.1429 -0.4289  0.7276
 5465TIP3   OH216400   0.595   5.548   0.067 -0.3549 -0.1520  0.1334
 5465TIP3    H116401   0.630   5.488   0.001 -1.0006 -0.8684  0.4174
 5465TIP3    H216402   0.609   5.502   0.150  0.3032  0.6692  0.4968
 5466TIP3   OH216403   5.605   2.471   1.015 -0.0140  0.5214 -1.0469
 5466TIP3    H116404   5.570   2.513   0.936  0.4606  0.3556 -1.3495
 5466TIP3    H216405   5.668   2.407   0.983  1.1474  1.3469 -0.4973
 5467TIP3   OH216406   3.349   4.881   0.149  0.2556  0.8337  0.0144
 5467TIP3    H116407   3.287   4.936   0.100 -1.0088 -0.8504 -0.3575
 5467TIP3    H216408   3.294   4.824   0.203  1.4330 -0.9856 -0.6052
 5468TIP3   OH216409   2.383   2.909   2.314 -0.4314 -0.5799 -0.2547
 5468TIP3    H116410   2.433   2.910   2.397 -0.9822  0.3950  0.0849
 5468TIP3    H216411   2.371   3.002   2.293  0.4201 -0.8102 -1.8838
 5469TIP3   OH216412   3.974   3.083   5.020 -0.2489 -0.0891  0.7311
 5469TIP3    H116413   4.048   3.113   4.967 -0.0503 -0.4037  0.8331
 5469TIP3    H216414   3.898   3.097   4.963 -0.3211  1.7841  1.2292
 5470TIP3   OH216415   1.157   4.503   1.770 -0.2872 -0.1315  0.4895
 5470TIP3    H116416   1.168   4.416   1.733 -1.5761 -0.3894  0.6749
 5470TIP3    H216417   1.093   4.545   1.712 -0.6092  0.2502  1.1121
 5471TIP3   OH216418   5.536   1.966   3.291 -0.1641  0.0239 -0.1542
 5471TIP3    H116419   5.444   1.974   3.318 -0.0849 -1.0467  0.4355
 5471TIP3    H216420   5.535   1.896   3.225 -0.2160  1.9805 -2.3857
 5472TIP3   OH216421   1.864   0.314   1.249 -0.0822  0.1095 -0.2519
 5472TIP3    H116422   1.783   0.353   1.218 -0.9364  0.0603  1.7664
 5472TIP3    H216423   1.839   0.265   1.327  2.1689  1.7380  1.6453
 5473TIP3   OH216424   3.517   0.612   0.856  0.2803 -0.1954  0.2606
 5473TIP3    H116425   3.477   0.530   0.884  0.8907 -0.7125 -0.3537
 5473TIP3    H216426   3.591   0.585   0.801  0.8705  0.7542  0.5620
 5474TIP3   OH216427   0.929   2.488   2.707 -0.0297  0.1515 -0.0838
 5474TIP3    H116428   0.932   2.402   2.665  0.6915 -0.0772  0.4076
 5474TIP3    H216429   0.996   2.483   2.775 -1.1469  0.5293  1.0776
 5475TIP3   OH216430   3.985   1.028   5.076  0.5028  0.7853 -0.1765
 5475TIP3    H116431   3.936   1.049   4.997 -1.2650  1.1440  0.9622
 5475TIP3    H216432   3.982   0.932   5.082 -0.8072  0.8345  0.2953
 5476TIP3   OH216433   5.516   4.781   4.484  0.1358 -0.5794  0.0309
 5476TIP3    H116434   5.445   4.838   4.513 -0.4457 -1.7507  1.0108
 5476TIP3    H216435   5.483   4.739   4.405  0.1352 -0.3739 -0.0784
 5477TIP3   OH216436   5.494   0.799   4.215 -0.1645  0.0097 -0.7682
 5477TIP3    H116437   5.540   0.750   4.283 -2.5766 -0.0433  0.9782
 5477TIP3    H216438   5.532   0.886   4.218 -0.1698 -0.0088  0.6629
 5478TIP3   OH216439   2.483   1.723   4.978  0.1531 -0.3501  0.3198
 5478TIP3    H116440   2.550   1.790   4.962  0.0715 -0.2539  0.3819
 5478TIP3    H216441   2.441   1.749   5.060  1.0033 -1.2001  1.0437
 5479TIP3   OH216442   6.307   0.474   0.211 -0.1158  0.3127 -0.1597
 5479TIP3    H116443   6.211   0.468   0.216 -0.0896 -0.7931 -0.6148
 5479TIP3    H216444   6.325   0.482   0.117  0.2477  0.0190 -0.1173
 5480TIP3   OH216445   0.551   4.562   0.824  0.5772  0.0650  0.2432
 5480TIP3    H116446   0.623   4.500   0.836  1.2772  1.0250  1.1301
 5480TIP3    H216447   0.540   4.604   0.909 -1.3374 -0.3587  0.2632
 5481TIP3   OH216448   1.861   2.278   3.140  0.0229  0.1859  1.4636
 5481TIP3    H116449   1.948   2.238   3.134 -0.0192  0.2646 -0.3032
 5481TIP3    H216450   1.858   2.317   3.227  0.7584 -2.0447  2.5677
 5482TIP3   OH216451   2.672   0.271   4.246 -0.1133  0.0497 -0.0550
 5482TIP3    H116452   2.761   0.260   4.281 -1.0997 -1.1365  2.3101
 5482TIP3    H216453   2.623   0.198   4.284 -2.1832  0.8618 -1.0519
 5483TIP3   OH216454   5.247   5.787   4.420  0.0444  0.7148  0.1775
 5483TIP3    H116455   5.279   5.710   4.374  0.3419  0.5203  0.7085
 5483TIP3    H216456   5.187   5.752   4.486 -2.4158  1.1266 -1.6473
 5484TIP3   OH216457   6.089   3.245   1.781  0.1984  0.5602  0.2683
 5484TIP3    H116458   6.027   3.172   1.781  0.4308  0.3500 -0.7719
 5484TIP3    H216459   6.034   3.323   1.789 -0.4804  0.5381 -2.7162
 5485TIP3   OH216460   3.881   4.326   2.546 -0.2998 -0.0677 -0.4522
 5485TIP3    H116461   3.838   4.251   2.587 -1.6545  0.6520 -0.4761
 5485TIP3    H216462   3.810   4.372   2.501  0.4695  1.3151 -0.3116
 5486TIP3   OH216463   5.798   2.497   3.877 -0.1457 -0.0341 -0.4721
 5486TIP3    H116464   5.864   2.446   3.831  0.2207 -1.2580  1.3218
 5486TIP3    H216465   5.772   2.565   3.814  1.7740 -0.3792 -1.7156
 5487TIP3   OH216466   3.403   0.356   2.258  0.3191 -0.0026  0.0705
 5487TIP3    H116467   3.427   0.340   2.349 -0.5028  0.8196  0.4437
 5487TIP3    H216468   3.365   0.444   2.258 -2.4379 -1.0866 -0.4909
 5488TIP3   OH216469   1.742   2.953   4.545  0.1802 -0.0536 -0.1963
 5488TIP3    H116470   1.805   2.914   4.606 -0.2471  0.3536  0.5271
 5488TIP3    H216471   1.663   2.965   4.598 -0.4692 -0.4294 -1.0520
 5489TIP3   OH216472   2.227   1.560   3.331 -0.4240 -0.1614 -0.3456
 5489TIP3    H116473   2.148   1.608   3.306  0.7397  0.7109 -2.6419
 5489TIP3    H216474   2.215   1.473   3.295 -0.6212 -0.2333 -0.1058
 5490TIP3   OH216475   1.292   2.566   3.268  0.5955 -0.2021  0.3405
 5490TIP3    H116476   1.278   2.550   3.174 -1.5935  0.8878  0.4354
 5490TIP3    H216477   1.360   2.502   3.292 -0.4041 -2.0889 -1.4776
 5491TIP3   OH216478   2.824   5.300   2.787 -0.1083 -0.0288 -0.3967
 5491TIP3    H116479   2.762   5.284   2.858  0.7471 -0.4645  0.2714
 5491TIP3    H216480   2.780   5.267   2.709 -0.3020 -1.3638  0.2342
 5492TIP3   OH216481   2.926   4.000   2.858 -0.3032 -0.4780  0.1559
 5492TIP3    H116482   2.938   4.039   2.944  0.1207 -0.1402 -0.0576
 5492TIP3    H216483   2.849   4.044   2.822  0.9304  1.1489 -0.6276
 5493TIP3   OH216484   5.620   1.405   1.595  0.2755 -0.3364 -0.8599
 5493TIP3    H116485   5.672   1.380   1.519 -0.3868  0.9361 -1.7607
 5493TIP3    H216486   5.652   1.348   1.666  1.4493 -0.9870 -1.8786
 5494TIP3   OH216487   2.205   3.390   3.432  0.2221  0.2864 -0.2584
 5494TIP3    H116488   2.163   3.383   3.347  0.0512  0.3076 -0.1747
 5494TIP3    H216489   2.183   3.309   3.477  0.7188  0.0566 -0.4176
 5495TIP3   OH216490   5.802   1.909   4.277  0.2729  0.2866 -0.3609
 5495TIP3    H116491   5.727   1.851   4.271  0.2063  0.0221  2.0985
 5495TIP3    H216492   5.832   1.920   4.187 -1.2647 -1.4882 -1.1309
 5496TIP3   OH216493   3.333   0.066   3.559 -0.1708  0.0162 -0.6703
 5496TIP3    H116494   3.393   0.140   3.550  0.1285 -0.2825 -1.1267
 5496TIP3    H216495   3.269   0.079   3.489  1.2830 -1.4762 -2.3563
 5497TIP3   OH216496   0.181   4.355   1.327  0.1882 -0.4174 -0.2600
 5497TIP3    H116497   0.127   4.394   1.396  2.5074 -0.5268  1.7367
 5497TIP3    H216498   0.133   4.276   1.302 -1.4975  0.4577  0.0536
 5498TIP3   OH216499   1.369   4.113   3.635 -0.2545 -0.1887 -0.4944
 5498TIP3    H116500   1.366   4.091   3.542 -0.5109 -0.1633 -0.4922
 5498TIP3    H216501   1.462   4.120   3.655 -0.1508 -1.5028 -0.4428
 5499TIP3   OH216502   4.058   5.616   4.158  0.2207 -0.3603 -0.4382
 5499TIP3    H116503   4.009   5.562   4.095  0.4045  0.0858 -0.9721
 5499TIP3    H216504   4.141   5.569   4.169  0.8613  0.3835 -1.8007
 5500TIP3   OH216505   0.324   0.894   1.991 -0.1148 -0.0347 -0.4615
 5500TIP3    H116506   0.375   0.876   2.069  0.0348 -0.4357 -0.6485
 5500TIP3    H216507   0.264   0.819   1.984 -1.7759  1.1292  0.5923
 5501TIP3   OH216508   3.427   2.419   3.370  0.4610  0.1827 -0.0233
 5501TIP3    H116509   3.338   2.434   3.402 -0.0170 -0.4652 -1.0026
 5501TIP3    H216510   3.453   2.503   3.332 -0.0183  0.1723 -0.3906
 5502TIP3   OH216511   1.119   2.214   3.347  0.5176  0.0866  0.7649
 5502TIP3    H116512   1.165   2.218   3.264  1.4695  0.8860  1.3041
 5502TIP3    H216513   1.049   2.150   3.333  0.2372  0.6959 -0.8383
 5503TIP3   OH216514   6.242   1.727   0.452  0.5878 -0.3317 -0.1058
 5503TIP3    H116515   6.276   1.695   0.368  1.2387 -3.4638  1.2192
 5503TIP3    H216516   6.147   1.718   0.444  0.5380  0.8144 -0.9967
 5504TIP3   OH216517   5.644   2.724   5.157  0.3351 -0.6366 -0.4943
 5504TIP3    H116518   5.585   2.772   5.215  0.8674  1.2936 -1.4472
 5504TIP3    H216519   5.587   2.686   5.091  0.0918  2.2810 -2.1622
 5505TIP3   OH216520   5.380   5.365   4.327 -0.2833 -0.1646 -0.3506
 5505TIP3    H116521   5.363   5.371   4.233  2.1396 -0.3054 -0.8766
 5505TIP3    H216522   5.389   5.271   4.343  0.9541 -0.0739 -0.3704
 5506TIP3   OH216523   5.122   0.588   4.396 -0.3688  0.0968 -0.2863
 5506TIP3    H116524   5.053   0.633   4.347 -1.9385 -1.1478  0.6905
 5506TIP3    H216525   5.075   0.528   4.454  1.4150  1.2127  2.5073
 5507TIP3   OH216526   4.316   4.966   1.974 -0.1564 -0.4702  0.2373
 5507TIP3    H116527   4.235   4.917   1.959 -0.2436  0.0139 -0.9540
 5507TIP3    H216528   4.362   4.962   1.890  0.8596 -0.3722  0.7778
 5508TIP3   OH216529   4.890   5.428   4.887  0.6819  0.1440  0.5549
 5508TIP3    H116530   4.942   5.482   4.827  2.0091  1.4736  2.7764
 5508TIP3    H216531   4.799   5.453   4.869  1.0858  0.9750 -0.4337
 5509TIP3   OH216532   1.529   4.694   4.105 -0.0272  0.0099  0.4558
 5509TIP3    H116533   1.548   4.759   4.172  1.6434  0.9922 -0.8757
 5509TIP3    H216534   1.483   4.743   4.036  1.4172 -0.1249 -0.6477
 5510TIP3   OH216535   5.146   1.123   3.660 -0.6741 -0.2910 -0.3591
 5510TIP3    H116536   5.111   1.034   3.648 -1.9272  0.2003 -0.4060
 5510TIP3    H216537   5.217   1.111   3.723 -0.5761 -1.3795 -0.6380
 5511TIP3   OH216538   4.509   1.892   0.950  0.4927  0.4968  0.0381
 5511TIP3    H116539   4.575   1.850   1.006 -1.7668 -0.7052  1.9878
 5511TIP3    H216540   4.454   1.819   0.921 -2.3091  1.7703  1.8053
 5512TIP3   OH216541   6.151   2.310   4.395  0.2613  0.0164  0.3685
 5512TIP3    H116542   6.237   2.291   4.432 -0.6063 -0.0620  2.5312
 5512TIP3    H216543   6.105   2.356   4.466 -2.1182 -1.6800  0.0491
 5513TIP3   OH216544   1.588   4.588   2.663 -0.1269 -0.0490  0.2689
 5513TIP3    H116545   1.624   4.664   2.709  0.5524 -1.3125  1.9170
 5513TIP3    H216546   1.557   4.623   2.579  0.0358  2.0562  1.0365
 5514TIP3   OH216547   1.185   5.148   2.556 -0.1074 -0.4766 -0.1955
 5514TIP3    H116548   1.249   5.170   2.623 -0.6302  0.4144  0.0217
 5514TIP3    H216549   1.149   5.063   2.584  0.3259 -0.5472  0.1567
 5515TIP3   OH216550   1.199   5.199   3.283 -0.3220 -0.0934  0.4120
 5515TIP3    H116551   1.141   5.264   3.323 -0.1564  0.8254 -0.7983
 5515TIP3    H216552   1.252   5.248   3.221  0.4447 -1.2409  0.1137
 5516TIP3   OH216553   3.828   2.204   0.300  0.3269 -0.3981  0.1874
 5516TIP3    H116554   3.872   2.239   0.222 -1.5412  1.3077 -0.1961
 5516TIP3    H216555   3.792   2.120   0.271 -2.4626  1.2806 -1.6997
 5517TIP3   OH216556   4.267   3.305   2.638 -0.2396  0.1633  0.2194
 5517TIP3    H116557   4.290   3.212   2.643 -0.8883  0.0509  2.2730
 5517TIP3    H216558   4.336   3.344   2.584 -1.1508 -1.8156 -2.6232
 5518TIP3   OH216559   3.302   4.875   2.763  0.3649 -0.1831  0.0253
 5518TIP3    H116560   3.327   4.956   2.718  3.0822 -0.4507  0.8647
 5518TIP3    H216561   3.303   4.808   2.695  0.9579 -0.0031 -0.1435
 5519TIP3   OH216562   2.008   2.422   1.514 -0.0458  0.3973 -0.1454
 5519TIP3    H116563   2.056   2.485   1.568  0.1059  0.7157 -0.6528
 5519TIP3    H216564   2.046   2.337   1.537 -1.1878  0.2881  1.5915
 5520TIP3   OH216565   5.771   3.345   2.757  1.2628  0.0823  0.1921
 5520TIP3    H116566   5.690   3.354   2.808  2.0093 -0.0833  1.4751
 5520TIP3    H216567   5.742   3.326   2.668 -0.1390  2.2527  0.1120
 5521TIP3   OH216568   5.760   5.569   5.139  0.2140 -0.5182 -0.1569
 5521TIP3    H116569   5.812   5.544   5.063 -1.8096 -1.2243 -1.4098
 5521TIP3    H216570   5.682   5.610   5.102 -1.0137 -1.2174  1.5108
 5522TIP3   OH216571   3.225   5.791   1.066 -0.1302 -0.1977 -0.4529
 5522TIP3    H116572   3.287   5.862   1.052  1.8500 -1.4501  1.3780
 5522TIP3    H216573   3.257   5.720   1.011 -0.3320 -0.6385 -0.0080
 5523TIP3   OH216574   3.886   1.939   5.042  0.1209  0.1465 -0.3059
 5523TIP3    H116575   3.910   1.895   4.961  1.2555 -0.3928  0.2978
 5523TIP3    H216576   3.968   1.979   5.073 -0.6545  1.8072 -0.2919
 5524TIP3   OH216577   5.684   5.107   1.857  0.0121  0.5589  0.1410
 5524TIP3    H116578   5.731   5.046   1.800  0.6490  0.4737  0.7569
 5524TIP3    H216579   5.601   5.062   1.876  0.9609 -0.6784  1.5571
 5525TIP3   OH216580   5.349   0.283   1.417  0.2033  0.8075  0.0735
 5525TIP3    H116581   5.341   0.377   1.398 -2.3669  0.5107 -0.7713
 5525TIP3    H216582   5.323   0.276   1.509  3.3504  1.1632  1.1198
 5526TIP3   OH216583   3.503   0.943   0.055  0.0714  0.2246  0.0453
 5526TIP3    H116584   3.489   0.954  -0.039 -1.6849 -0.5615  0.1869
 5526TIP3    H216585   3.536   0.854   0.064  0.2849  0.3164  0.1695
 5527TIP3   OH216586   3.817   3.907   2.409 -0.2571  0.0478 -0.0607
 5527TIP3    H116587   3.901   3.870   2.438 -0.8141 -0.7551  0.5860
 5527TIP3    H216588   3.772   3.929   2.490 -1.1036 -0.5391 -0.3579
 5528TIP3   OH216589   5.765   5.874   1.360  0.1179  0.1998  0.0947
 5528TIP3    H116590   5.763   5.892   1.266 -2.5504 -1.1791 -0.2030
 5528TIP3    H216591   5.827   5.802   1.369 -0.2436 -0.2432 -0.7578
 5529TIP3   OH216592   3.558   3.769   3.372 -0.1361 -0.4484  0.0429
 5529TIP3    H116593   3.551   3.797   3.463 -2.4500  0.5573 -0.3800
 5529TIP3    H216594   3.599   3.843   3.327 -0.6293 -0.1963 -0.0075
 5530TIP3   OH216595   6.159   5.018   4.544  0.1234  0.0030  0.4696
 5530TIP3    H116596   6.154   4.923   4.541 -0.0209 -0.0136  1.0730
 5530TIP3    H216597   6.077   5.048   4.506  0.7752 -0.0831 -1.0742
 5531TIP3   OH216598   2.654   3.597   0.516  0.0507 -0.8383 -0.3839
 5531TIP3    H116599   2.637   3.516   0.469  0.2147 -0.0224 -1.9027
 5531TIP3    H216600   2.735   3.631   0.479 -1.3709  1.3617 -1.7501
 5532TIP3   OH216601   4.872   5.390   3.523 -0.6132  0.1640 -0.1685
 5532TIP3    H116602   4.799   5.433   3.480  0.4383 -0.2622 -2.5799
 5532TIP3    H216603   4.927   5.461   3.555  0.1799  0.6672 -2.4714
 5533TIP3   OH216604   2.358   2.483   3.448 -0.0030 -0.1719  0.4361
 5533TIP3    H116605   2.289   2.455   3.388 -0.4537  1.3108  0.2301
 5533TIP3    H216606   2.314   2.544   3.508  1.0743  0.6422  0.4270
 5534TIP3   OH216607   6.232   5.462   4.428  0.1580 -0.3377  0.1883
 5534TIP3    H116608   6.252   5.553   4.450 -0.1340  0.1803 -1.5169
 5534TIP3    H216609   6.286   5.410   4.486  0.1806  0.9238  1.3315
 5535TIP3   OH216610   4.715   4.345   5.134  0.2508 -0.2453  0.1205
 5535TIP3    H116611   4.646   4.280   5.143  0.6350 -0.7298 -0.3350
 5535TIP3    H216612   4.700   4.408   5.205 -0.1963 -0.7629  0.4841
 5536TIP3   OH216613   2.753   3.817   4.531  0.2409  0.2716  0.1678
 5536TIP3    H116614   2.746   3.912   4.539 -2.4074  0.4091 -2.0812
 5536TIP3    H216615   2.672   3.784   4.571  1.7533 -1.2399  2.2158
 5537TIP3   OH216616   3.708   4.773   1.818  0.5508  0.4937  0.2219
 5537TIP3    H116617   3.722   4.703   1.754  0.9007 -1.2008  2.0107
 5537TIP3    H216618   3.748   4.739   1.898 -1.6083  1.6073  1.8795
 5538TIP3   OH216619   4.704   2.335   2.758 -0.2731  0.3934  0.0188
 5538TIP3    H116620   4.709   2.247   2.796  2.5568  0.5660  0.2660
 5538TIP3    H216621   4.740   2.324   2.670  1.0120  1.4176  0.3857
 5539TIP3   OH216622   1.167   0.062   0.205 -0.5440  0.1266 -0.8250
 5539TIP3    H116623   1.118   0.013   0.272 -2.7758  1.4910 -1.3676
 5539TIP3    H216624   1.167   0.152   0.237  0.0150  0.4625 -1.7617
 5540TIP3   OH216625   2.967   1.740   3.235 -0.0110 -0.0852  0.4556
 5540TIP3    H116626   2.877   1.734   3.202 -0.7299  0.9036  2.1325
 5540TIP3    H216627   2.958   1.772   3.324  1.9925 -0.6140  0.8952
 5541TIP3   OH216628   6.197   0.658   3.616 -0.5637 -0.3875 -0.1737
 5541TIP3    H116629   6.291   0.667   3.604 -0.5582 -0.4417 -0.1688
 5541TIP3    H216630   6.184   0.667   3.710 -0.6118  0.0673 -0.2235
 5542TIP3   OH216631   6.058   5.492   2.847  0.5206  0.4740 -0.2960
 5542TIP3    H116632   6.126   5.549   2.813 -0.1360  0.3628 -1.8558
 5542TIP3    H216633   6.008   5.465   2.770  1.7082 -3.4392  0.0860
 5543TIP3   OH216634   1.282   0.423   1.119  0.0113  0.4993 -0.3766
 5543TIP3    H116635   1.299   0.395   1.209  0.1913 -1.9613 -1.0800
 5543TIP3    H216636   1.317   0.511   1.113  1.1153  0.2458  1.6326
 5544TIP3   OH216637   3.861   1.905   3.904  0.3763 -0.2218 -0.2331
 5544TIP3    H116638   3.802   1.908   3.829 -0.7715 -1.3880  0.5853
 5544TIP3    H216639   3.804   1.912   3.980  1.2109 -1.9013  0.6082
 5545TIP3   OH216640   2.935   0.224   1.083  0.5962 -0.4794  0.7537
 5545TIP3    H116641   2.873   0.296   1.072 -1.2885 -2.3364 -1.8463
 5545TIP3    H216642   2.938   0.181   0.998  2.0710 -3.1709  2.0432
 5546TIP3   OH216643   3.357   1.365   0.990  0.5594  0.2876  0.0502
 5546TIP3    H116644   3.277   1.359   1.042  0.1608  0.7207 -0.5160
 5546TIP3    H216645   3.356   1.287   0.935  0.6368  0.1878  0.1874
 5547TIP3   OH216646   6.111   3.964   3.151  0.1565  0.2764  0.7848
 5547TIP3    H116647   6.074   3.950   3.238  0.1620  2.4167  1.1731
 5547TIP3    H216648   6.115   3.876   3.113 -1.3098 -0.5212  2.3269
 5548TIP3   OH216649   5.098   0.745   1.573  0.0012  1.1305 -0.0206
 5548TIP3    H116650   5.069   0.834   1.556 -0.1836  0.9099 -0.9248
 5548TIP3    H216651   5.193   0.752   1.582  0.0236  1.3765 -0.4152
 5549TIP3   OH216652   5.661   1.783   2.054 -0.0027 -0.1535 -0.2740
 5549TIP3    H116653   5.698   1.714   1.999 -1.3437  0.4274 -1.9966
 5549TIP3    H216654   5.713   1.780   2.134  1.5863 -1.4848 -1.2892
 5550TIP3   OH216655   5.783   0.757   4.140  0.2994 -0.2157  0.1075
 5550TIP3    H116656   5.822   0.822   4.199 -1.9084  0.5956  0.8038
 5550TIP3    H216657   5.809   0.673   4.176  1.0083  0.2890  0.8070
 5551TIP3   OH216658   0.645   0.090   0.091 -0.4723  0.4879  0.4223
 5551TIP3    H116659   0.676   0.032   0.161 -2.1766 -0.6581  0.2585
 5551TIP3    H216660   0.562   0.125   0.124 -0.2342  1.6346 -0.1446
 5552TIP3   OH216661   1.667   0.691   1.462 -0.1432  0.3836 -0.7298
 5552TIP3    H116662   1.622   0.617   1.503  0.9677 -0.5363 -1.1222
 5552TIP3    H216663   1.631   0.695   1.374 -0.6740  0.7323 -0.5007
 5553TIP3   OH216664   1.552   2.587   2.828 -0.2773  0.7002  0.2678
 5553TIP3    H116665   1.590   2.669   2.795  0.2570  0.7719  1.0265
 5553TIP3    H216666   1.522   2.542   2.749 -0.9492  1.7929 -0.1354
 5554TIP3   OH216667   1.452   5.742   2.026  0.4223 -0.4706  0.1150
 5554TIP3    H116668   1.382   5.781   2.077  0.5281 -0.4326  0.2318
 5554TIP3    H216669   1.434   5.648   2.027  0.0219 -0.4039 -0.3838
 5555TIP3   OH216670   5.311   0.469   0.751 -0.2411  0.1586 -0.1257
 5555TIP3    H116671   5.344   0.409   0.817  0.2943  0.3525 -0.2120
 5555TIP3    H216672   5.388   0.515   0.719 -0.7234  1.4619  0.4926
 5556TIP3   OH216673   1.446   2.056   1.650 -0.5092  0.2816 -0.4024
 5556TIP3    H116674   1.444   2.010   1.734  0.3681 -0.1793 -0.6255
 5556TIP3    H216675   1.513   2.124   1.662 -0.5966  0.4102 -0.6335
 5557TIP3   OH216676   3.408   0.504   2.757 -0.2726  0.0321 -0.1431
 5557TIP3    H116677   3.426   0.504   2.851  1.4378 -0.3535 -0.4390
 5557TIP3    H216678   3.313   0.495   2.751 -0.3471 -0.7295  1.5392
 5558TIP3   OH216679   1.750   0.161   1.458 -0.6726  0.0458  0.3090
 5558TIP3    H116680   1.794   0.222   1.517 -0.7486 -0.0840  0.5045
 5558TIP3    H216681   1.745   0.079   1.508  2.0367 -1.0257 -0.9824
 5559TIP3   OH216682   5.794   2.173   0.556  0.2346  0.0882  0.1750
 5559TIP3    H116683   5.890   2.171   0.560  0.2835  2.0459  0.9786
 5559TIP3    H216684   5.773   2.119   0.480  1.9942 -0.1463 -0.2005
 5560TIP3   OH216685   0.626   3.733   0.620 -1.1405 -0.0596  0.6196
 5560TIP3    H116686   0.631   3.777   0.535 -2.3885  0.5011  0.8054
 5560TIP3    H216687   0.620   3.805   0.683 -1.4747 -0.4797  1.0740
 5561TIP3   OH216688   6.278   4.543   1.231 -0.3797 -0.0195 -0.1340
 5561TIP3    H116689   6.343   4.551   1.301 -0.2169 -1.7430 -0.0470
 5561TIP3    H216690   6.296   4.458   1.191  0.1370  1.2930 -2.9256
 5562TIP3   OH216691   0.861   1.649   2.624 -0.7407 -0.1948  0.2597
 5562TIP3    H116692   0.835   1.583   2.560 -1.0477 -0.1364  0.3209
 5562TIP3    H216693   0.869   1.601   2.707 -1.0624 -0.1400  0.3247
 5563TIP3   OH216694   3.376   3.386   3.651 -0.3753  0.0674 -0.0261
 5563TIP3    H116695   3.448   3.424   3.701  0.9604  0.8290 -2.3830
 5563TIP3    H216696   3.297   3.426   3.688  0.5999  1.1312  0.9800
 5564TIP3   OH216697   1.259   5.141   1.707  0.0773  0.0003  0.3150
 5564TIP3    H116698   1.281   5.211   1.769 -0.4677 -0.8358  1.4822
 5564TIP3    H216699   1.344   5.109   1.677  0.3723  2.2503 -1.5805
 5565TIP3   OH216700   5.648   3.222   1.942  0.5014 -0.1997  0.3600
 5565TIP3    H116701   5.677   3.294   1.886  2.5625 -0.2809  1.2296
 5565TIP3    H216702   5.590   3.170   1.887 -1.3631  2.2801 -0.1768
 5566TIP3   OH216703   4.666   2.087   2.885  0.2346  0.3707 -0.5390
 5566TIP3    H116704   4.702   2.000   2.899  1.7673  0.9909 -0.4141
 5566TIP3    H216705   4.591   2.092   2.945  0.0591 -0.8873 -0.6369
 5567TIP3   OH216706   3.816   0.245   2.418  0.2589 -0.1095  0.2797
 5567TIP3    H116707   3.889   0.307   2.411  1.3840 -1.4207  0.1607
 5567TIP3    H216708   3.816   0.219   2.510  0.2926 -0.5263  0.1620
 5568TIP3   OH216709  -0.001   5.286   0.973  0.1518  0.3298  0.2927
 5568TIP3    H116710   0.071   5.292   0.910 -1.2209  1.9827 -1.2176
 5568TIP3    H216711   0.006   5.366   1.025  0.7954 -0.6450  1.7604
 5569TIP3   OH216712   2.299   1.879   1.154  0.4289  0.3261  0.7632
 5569TIP3    H116713   2.393   1.877   1.141  0.2706  2.0066 -1.3113
 5569TIP3    H216714   2.285   1.951   1.216  0.4732  0.8136  0.2187
 5570TIP3   OH216715   1.401   1.328   2.053  0.5017 -0.6224 -0.3242
 5570TIP3    H116716   1.418   1.413   2.095  0.9927 -1.3531  1.0048
 5570TIP3    H216717   1.367   1.351   1.966  1.3831  0.9262 -0.2974
 5571TIP3   OH216718   0.153   5.545   4.135 -0.7596  0.3966  0.6712
 5571TIP3    H116719   0.186   5.474   4.190  1.1081  1.1816  0.6235
 5571TIP3    H216720   0.153   5.509   4.047 -0.4858  0.2272  0.7393
 5572TIP3   OH216721   5.856   0.600   4.374  0.3252 -0.4845  0.3518
 5572TIP3    H116722   5.762   0.601   4.387  0.3106  1.4259  0.4472
 5572TIP3    H216723   5.884   0.689   4.396  2.0616 -0.8301 -0.2781
 5573TIP3   OH216724   5.804   0.401   1.124  0.2581  0.0459  0.3921
 5573TIP3    H116725   5.838   0.468   1.184 -0.2973  0.8609 -0.1856
 5573TIP3    H216726   5.826   0.318   1.166  1.7511  0.5696  0.6918
 5574TIP3   OH216727   4.366   5.134   0.902  0.2596 -0.1313  0.3454
 5574TIP3    H116728   4.356   5.224   0.870  1.4565  0.3040  1.1527
 5574TIP3    H216729   4.457   5.111   0.882  0.2420 -0.8216  1.0065
 5575TIP3   OH216730   0.637   1.530   3.339  0.0251 -0.4753 -0.4001
 5575TIP3    H116731   0.631   1.436   3.352 -1.3822 -0.2629  0.7433
 5575TIP3    H216732   0.630   1.541   3.244 -3.1913 -1.3933 -0.3952
 5576TIP3   OH216733   2.487   1.176   3.985  0.0787 -0.0630  0.8429
 5576TIP3    H116734   2.569   1.202   4.027  0.4226 -0.4482  0.4152
 5576TIP3    H216735   2.443   1.121   4.050 -0.0447  0.4919  1.2382
 5577TIP3   OH216736   5.474   2.902   2.914  0.3851 -0.0207  0.0275
 5577TIP3    H116737   5.423   2.960   2.859  0.6991  1.7622  1.5249
 5577TIP3    H216738   5.494   2.953   2.993  1.4802 -1.8338  1.0261
 5578TIP3   OH216739   1.791   3.990   3.085 -0.3753  0.3737  0.3029
 5578TIP3    H116740   1.724   4.055   3.066  0.5306  1.2319 -0.0270
 5578TIP3    H216741   1.781   3.971   3.178 -1.2512  0.2702  0.1957
 5579TIP3   OH216742   5.583   1.433   0.397 -0.0926 -0.4991  0.1140
 5579TIP3    H116743   5.524   1.369   0.437 -1.1868  0.7997  0.6466
 5579TIP3    H216744   5.546   1.450   0.310 -1.0913  1.0122  0.7968
 5580TIP3   OH216745   2.762   0.554   1.696 -0.2725 -0.0151 -0.0103
 5580TIP3    H116746   2.773   0.518   1.784 -1.7797  0.3890  0.3727
 5580TIP3    H216747   2.846   0.594   1.676  0.6442 -1.5529  0.5556
 5581TIP3   OH216748   4.848   0.021   4.974 -0.7126 -0.3637 -0.3467
 5581TIP3    H116749   4.837   0.051   5.064  1.3793  2.0243 -0.7635
 5581TIP3    H216750   4.777  -0.041   4.960 -1.0796 -0.8591  2.9372
 5582TIP3   OH216751   4.408   5.557   1.298  0.2673 -0.3470 -0.5478
 5582TIP3    H116752   4.333   5.502   1.275  1.0115 -1.0200 -1.4653
 5582TIP3    H216753   4.480   5.521   1.247  1.3007  0.0731  0.5705
 5583TIP3   OH216754   3.494   2.440   1.929 -0.1038 -0.3875  0.3079
 5583TIP3    H116755   3.527   2.503   1.865 -1.0005  2.0380  2.0411
 5583TIP3    H216756   3.456   2.369   1.877  1.3294  0.2778 -1.7573
 5584TIP3   OH216757   3.785   1.955   4.689 -0.1611 -0.8395  0.2568
 5584TIP3    H116758   3.692   1.935   4.681 -0.0788 -1.1139 -0.0209
 5584TIP3    H216759   3.824   1.874   4.721 -0.1936 -0.3620  1.6068
 5585TIP3   OH216760   5.204   0.863   4.222  0.0444  0.4422  0.0284
 5585TIP3    H116761   5.182   0.804   4.150  1.1195  0.6249 -0.4863
 5585TIP3    H216762   5.295   0.842   4.243  0.4865  1.9540 -0.2380
 5586TIP3   OH216763   0.800   1.991   3.959  0.3024  0.1656  0.1851
 5586TIP3    H116764   0.733   1.997   3.891 -0.9905 -0.1534  1.3787
 5586TIP3    H216765   0.790   2.072   4.009 -0.9125 -0.9634  1.8602
 5587TIP3   OH216766   1.850   5.791   2.813  0.2381  0.0005 -0.5404
 5587TIP3    H116767   1.767   5.744   2.823  0.5692 -0.2575  1.2924
 5587TIP3    H216768   1.882   5.765   2.727 -0.6268 -1.4673 -0.4468
 5588TIP3   OH216769   2.018   1.539   4.364  0.4248  0.6047 -0.6881
 5588TIP3    H116770   2.081   1.467   4.366 -1.4999 -1.1737 -0.6584
 5588TIP3    H216771   2.055   1.605   4.423  2.2526 -0.3235 -0.7234
 5589TIP3   OH216772   2.515   4.608   5.038 -0.3275  0.1615  0.3730
 5589TIP3    H116773   2.510   4.620   5.133  0.4308  0.5294  0.3681
 5589TIP3    H216774   2.608   4.607   5.019 -0.4674 -0.4161 -0.3104
 5590TIP3   OH216775   5.282  -0.006   4.418 -0.4849  0.3908  0.1435
 5590TIP3    H116776   5.187   0.006   4.407 -0.4356  0.9820  0.3419
 5590TIP3    H216777   5.315   0.081   4.441 -0.1281 -0.1409  1.7747
 5591TIP3   OH216778   4.760   0.911   2.998  0.6848  0.2610 -0.7672
 5591TIP3    H116779   4.688   0.949   3.048  1.7080  2.0466 -0.5835
 5591TIP3    H216780   4.839   0.933   3.048  1.3644 -2.1975 -0.6156
 5592TIP3   OH216781   4.940   0.685   2.921  0.3412 -0.2206  0.3321
 5592TIP3    H116782   4.962   0.693   2.828  0.6990 -0.7524  0.3627
 5592TIP3    H216783   4.870   0.749   2.935  2.4796  2.2647  0.4443
 5593TIP3   OH216784   1.685   4.478   1.364  0.3797  0.2713 -0.2856
 5593TIP3    H116785   1.595   4.505   1.385  1.1998  1.0310  2.7075
 5593TIP3    H216786   1.740   4.529   1.423  2.6653 -1.5499 -0.6911
 5594TIP3   OH216787   2.048   4.814   2.848  0.0915 -0.2804 -0.5087
 5594TIP3    H116788   2.128   4.763   2.840  0.9460  1.2720 -3.8464
 5594TIP3    H216789   2.077   4.901   2.877 -0.6957 -0.3126  0.4328
 5595TIP3   OH216790   4.652   4.616   1.675  0.2228  0.1010 -0.0288
 5595TIP3    H116791   4.622   4.608   1.585 -0.0896  2.5921 -0.2270
 5595TIP3    H216792   4.744   4.588   1.672 -0.5687 -2.6872 -0.4532
 5596TIP3   OH216793   1.968   0.797   0.895  0.1746  0.1351  0.9783
 5596TIP3    H116794   2.005   0.831   0.814 -1.3100 -1.8674 -0.6462
 5596TIP3    H216795   2.040   0.750   0.937  0.7524  0.4894  0.3917
 5597TIP3   OH216796   0.269   3.156   2.598  0.0845 -0.6450 -0.5287
 5597TIP3    H116797   0.274   3.080   2.656 -0.5578 -0.1184  0.2348
 5597TIP3    H216798   0.311   3.226   2.647 -2.2431  0.3305  0.2125
 5598TIP3   OH216799   1.803   3.936   4.579  0.4530 -0.0465  0.8928
 5598TIP3    H116800   1.713   3.940   4.609  0.8506  1.0719  2.0438
 5598TIP3    H216801   1.833   3.848   4.604 -0.3836 -0.5186  0.2555
 5599TIP3   OH216802   5.087   3.882   4.990  0.6254 -0.1845 -0.0494
 5599TIP3    H116803   5.103   3.856   4.899  3.2943 -0.4362  0.4100
 5599TIP3    H216804   5.051   3.971   4.983 -3.1189 -1.6321 -1.4010
 5600TIP3   OH216805   4.062   1.895   2.320 -0.4293 -0.4901 -0.5429
 5600TIP3    H116806   4.082   1.889   2.413  0.9557  0.9830 -0.7100
 5600TIP3    H216807   4.052   1.804   2.292  0.1285 -1.0021  0.8258
 5601TIP3   OH216808   5.890   2.097   2.442  0.6671 -0.0875 -0.3003
 5601TIP3    H116809   5.930   2.168   2.391 -2.1134  1.5715 -0.3780
 5601TIP3    H216810   5.797   2.102   2.420 -0.0682 -1.7771  2.0979
 5602TIP3   OH216811   0.788   2.607   0.298  0.3642 -0.0376 -0.4981
 5602TIP3    H116812   0.707   2.578   0.340 -0.9397  0.7546 -2.3376
 5602TIP3    H216813   0.853   2.609   0.369 -1.4861  0.3742  1.2632
 5603TIP3   OH216814   3.442   1.197   2.090 -0.9425  0.2589  0.8740
 5603TIP3    H116815   3.455   1.238   2.175 -0.5947  1.6895  0.1681
 5603TIP3    H216816   3.492   1.252   2.029  3.4122 -3.6601  0.3906
 5604TIP3   OH216817   1.604   3.063   2.921  0.1674 -0.4338  0.9628
 5604TIP3    H116818   1.688   3.089   2.884  0.2318  0.7077  1.8417
 5604TIP3    H216819   1.580   2.983   2.874 -0.0326  1.1837 -1.9475
 5605TIP3   OH216820   4.982   0.759   1.884  0.3062 -0.2505 -0.1512
 5605TIP3    H116821   4.977   0.704   1.806 -2.5014 -1.3219  0.6652
 5605TIP3    H216822   4.972   0.698   1.957 -0.3208  1.0502  0.8972
 5606TIP3   OH216823   2.317   5.439   1.404 -0.1460  0.3079  0.3545
 5606TIP3    H116824   2.320   5.423   1.309  0.9413 -1.1745  0.6041
 5606TIP3    H216825   2.335   5.354   1.443  0.5554  1.1316  1.9017
 5607TIP3   OH216826   3.373   1.400   2.966 -0.5366  0.3120  0.3830
 5607TIP3    H116827   3.285   1.436   2.951 -1.1189 -0.2949  2.0638
 5607TIP3    H216828   3.374   1.378   3.060  0.2697 -2.7374 -0.2351
 5608TIP3   OH216829   5.865   1.231   0.953  0.3655  0.0398 -0.4470
 5608TIP3    H116830   5.927   1.300   0.930  0.8242  0.3147  1.4683
 5608TIP3    H216831   5.887   1.207   1.043 -1.7049 -0.5111 -0.0270
 5609TIP3   OH216832   1.056   1.739   0.565  0.0804 -0.1477  0.0759
 5609TIP3    H116833   1.101   1.661   0.533  0.4260 -0.4695  1.2697
 5609TIP3    H216834   1.102   1.762   0.646 -1.3150  0.0605  0.8456
 5610TIP3   OH216835   3.804   3.101   4.120 -0.1040  0.3712 -0.0997
 5610TIP3    H116836   3.897   3.081   4.104 -0.0044  1.3111 -0.7789
 5610TIP3    H216837   3.768   3.115   4.032 -1.0661 -0.6776  0.1072
 5611TIP3   OH216838   3.601   4.619   2.226 -0.3638 -0.0472  0.5841
 5611TIP3    H116839   3.675   4.680   2.219  1.2572 -2.0181 -0.4580
 5611TIP3    H216840   3.534   4.654   2.168  0.3014  1.0320  0.4497
 5612TIP3   OH216841   2.621   5.144   0.300  0.1248  0.2791 -0.5361
 5612TIP3    H116842   2.585   5.114   0.216 -1.6584  0.0086  0.2721
 5612TIP3    H216843   2.552   5.197   0.339  0.9778  0.5495  0.6929
 5613TIP3   OH216844   0.278   4.514   2.459 -0.2104 -0.3824  0.4050
 5613TIP3    H116845   0.310   4.580   2.520 -0.0322 -1.1124  1.1260
 5613TIP3    H216846   0.287   4.554   2.372  0.6706  0.2266  0.7631
 5614TIP3   OH216847   5.608   2.771   0.482  0.1739 -0.3376 -0.2220
 5614TIP3    H116848   5.524   2.792   0.523  1.3444  0.0800  2.1567
 5614TIP3    H216849   5.587   2.752   0.391 -2.4982 -0.3832  0.3398
 5615TIP3   OH216850   2.093   4.937   0.882  0.3067  0.1827  0.4534
 5615TIP3    H116851   2.050   5.016   0.914 -2.2158 -0.5391 -0.8794
 5615TIP3    H216852   2.099   4.949   0.787  1.6425 -0.4390  0.4364
 5616TIP3   OH216853   5.485   5.781   2.754 -0.2243  0.0089 -0.1091
 5616TIP3    H116854   5.455   5.869   2.731 -0.3120  0.3179  1.1238
 5616TIP3    H216855   5.443   5.724   2.690 -0.2755  0.8376 -0.8447
 5617TIP3   OH216856   5.642   4.417   1.483 -0.0816 -0.3735 -0.3233
 5617TIP3    H116857   5.584   4.493   1.477 -0.1670 -0.4540 -0.5262
 5617TIP3    H216858   5.730   4.453   1.473 -0.0382 -0.1435  0.8085
 5618TIP3   OH216859   0.836   5.846   1.750  0.9292 -0.5216 -0.4699
 5618TIP3    H116860   0.824   5.896   1.831 -0.6453 -0.4441 -0.7246
 5618TIP3    H216861   0.812   5.756   1.773 -2.9237  0.0494 -1.5561
 5619TIP3   OH216862   5.626   4.770   3.035  0.2797  0.2990  0.2496
 5619TIP3    H116863   5.592   4.843   2.983  3.0844  1.5604 -0.0035
 5619TIP3    H216864   5.619   4.694   2.978 -1.3322  0.6348 -0.0373
 5620TIP3   OH216865   1.951   1.575   0.209  0.1652  0.0802 -0.0166
 5620TIP3    H116866   1.977   1.633   0.136  0.5084  0.8807  0.7158
 5620TIP3    H216867   1.977   1.488   0.180  1.0024  0.4840 -0.5474
 5621TIP3   OH216868   3.025   5.667   4.584  0.6622 -0.1339 -0.1791
 5621TIP3    H116869   2.952   5.608   4.606 -0.4189  0.8377 -1.0290
 5621TIP3    H216870   3.005   5.748   4.632  1.2883  0.0674 -0.2581
 5622TIP3   OH216871   5.061   4.850   0.227  0.5785 -0.6186  0.2466
 5622TIP3    H116872   5.051   4.767   0.181  0.6445  0.0592 -1.0250
 5622TIP3    H216873   5.022   4.835   0.313 -0.8240 -1.4955 -0.5215
 5623TIP3   OH216874   3.397   0.531   1.244 -0.4512 -0.2013  0.0176
 5623TIP3    H116875   3.383   0.517   1.150 -1.1739 -1.7615  0.3298
 5623TIP3    H216876   3.342   0.466   1.287 -0.3941  0.7017  1.5534
 5624TIP3   OH216877   0.961   1.761   3.048 -0.2545 -0.0610  0.3176
 5624TIP3    H116878   0.888   1.780   3.107 -0.2162  0.7783  0.1064
 5624TIP3    H216879   0.957   1.667   3.034  0.1716 -0.4043  2.2458
 5625TIP3   OH216880   3.871   3.327   2.950  0.4203  0.9038 -0.0760
 5625TIP3    H116881   3.910   3.272   3.017  0.4438  0.7014 -0.2564
 5625TIP3    H216882   3.879   3.416   2.985 -0.7827  0.6925  0.8034
 5626TIP3   OH216883   0.708   3.697   3.505  0.6227 -0.4003  0.1045
 5626TIP3    H116884   0.768   3.771   3.518 -1.4756  1.5147 -0.4394
 5626TIP3    H216885   0.739   3.653   3.426  1.9336 -0.1485  0.4633
 5627TIP3   OH216886   0.357   3.971   2.067 -0.0050  0.0648 -0.4101
 5627TIP3    H116887   0.382   3.935   1.981 -0.9101 -1.0513 -0.2255
 5627TIP3    H216888   0.298   4.043   2.046 -0.4864 -0.4125 -0.7336
 5628TIP3   OH216889   3.154   4.351   5.135  0.6144  0.3389 -0.2732
 5628TIP3    H116890   3.145   4.268   5.087  0.3437 -0.2765  0.8034
 5628TIP3    H216891   3.111   4.416   5.079 -0.6679 -0.5565 -0.3761
 5629TIP3   OH216892   4.273   5.892   4.853 -0.4501  0.3648  0.6517
 5629TIP3    H116893   4.277   5.887   4.949  2.0186  0.3241  0.6121
 5629TIP3    H216894   4.222   5.816   4.827 -0.2045 -0.2540  1.8908
 5630TIP3   OH216895   3.970   4.335   4.077 -0.4437  0.2161 -0.2980
 5630TIP3    H116896   3.960   4.397   4.149  0.1961 -0.1356  0.1104
 5630TIP3    H216897   4.013   4.385   4.007  0.5658  0.1151  0.2246
 5631TIP3   OH216898   1.821   2.857   2.939 -1.0834  0.3343  0.1804
 5631TIP3    H116899   1.754   2.856   2.870 -0.8322 -1.7205 -0.0927
 5631TIP3    H216900   1.903   2.842   2.892 -0.5443  1.6938  0.6509
 5632TIP3   OH216901   4.984   4.129   0.676  0.2338 -0.4325  0.0578
 5632TIP3    H116902   4.941   4.045   0.695 -0.2866 -0.6030 -1.6726
 5632TIP3    H216903   5.077   4.113   0.696 -0.0846 -0.8806  1.3104
 5633TIP3   OH216904   3.051   4.768   1.200 -0.1494  0.5098 -0.1623
 5633TIP3    H116905   3.137   4.726   1.201 -0.2191  0.2595 -2.0910
 5633TIP3    H216906   3.020   4.758   1.110 -2.3118  0.3700  0.5382
 5634TIP3   OH216907   2.354   4.296   0.258 -0.0536  0.0029  0.0750
 5634TIP3    H116908   2.338   4.330   0.346 -0.4911  1.7293 -0.6284
 5634TIP3    H216909   2.292   4.224   0.249 -2.8398  2.2376 -0.1338
 5635TIP3   OH216910   2.602   5.686   2.291 -0.2250 -0.3982 -0.0743
 5635TIP3    H116911   2.579   5.667   2.382 -0.4843  0.2343 -0.0025
 5635TIP3    H216912   2.556   5.619   2.241 -1.4838  0.2767  0.1437
 5636TIP3   OH216913   0.673   4.049   4.855  0.3983  0.1986  0.3164
 5636TIP3    H116914   0.696   3.957   4.869 -0.5342 -0.0062  0.5790
 5636TIP3    H216915   0.747   4.098   4.890  1.3697 -0.4613 -0.7310
 5637TIP3   OH216916   0.328   3.706   0.342 -0.0130  0.0066  0.3351
 5637TIP3    H116917   0.336   3.799   0.363  0.1726  0.0123  0.2462
 5637TIP3    H216918   0.283   3.668   0.417 -1.8007  0.4904 -0.4283
 5638TIP3   OH216919   1.848   3.040   0.380  0.3935  0.5298  0.1817
 5638TIP3    H116920   1.811   3.077   0.300 -1.8908  0.8592  1.2999
 5638TIP3    H216921   1.827   2.947   0.375  1.0004  0.4017  0.0103
 5639TIP3   OH216922   2.580   5.847   2.056  1.5679  0.1358 -0.0496
 5639TIP3    H116923   2.602   5.787   2.127  0.1919  0.4444  0.6694
 5639TIP3    H216924   2.642   5.825   1.986  3.5040  0.3695  1.5004
 5640TIP3   OH216925   4.944   0.455   3.839 -0.3764  0.5592  0.3267
 5640TIP3    H116926   4.995   0.473   3.918  1.2339  2.2569 -1.0133
 5640TIP3    H216927   4.911   0.366   3.852  0.1028  0.6813  2.7517
 5641TIP3   OH216928   0.431   1.759   3.312  0.4738 -0.4431 -0.4821
 5641TIP3    H116929   0.421   1.725   3.223 -0.6008 -0.8579 -0.2248
 5641TIP3    H216930   0.490   1.697   3.355 -0.6932 -1.4808 -0.3056
 5642TIP3   OH216931   1.952   5.841   1.828  0.4039 -0.9171  0.2247
 5642TIP3    H116932   1.925   5.749   1.828  0.7937 -1.0309  0.2581
 5642TIP3    H216933   1.955   5.865   1.735  0.6347 -1.0371  0.1998
 5643TIP3   OH216934   4.895   0.424   0.133 -0.2512 -0.3339 -0.0285
 5643TIP3    H116935   4.952   0.347   0.135 -1.1275 -1.0150 -0.6115
 5643TIP3    H216936   4.872   0.435   0.041 -0.3191  0.4970  0.0813
 5644TIP3   OH216937   5.884   3.894   0.806 -0.0786  0.1925  1.0074
 5644TIP3    H116938   5.838   3.886   0.890 -2.8801  2.1446 -0.1789
 5644TIP3    H216939   5.887   3.988   0.789  0.4063 -0.1395 -1.0571
 5645TIP3   OH216940   3.372   3.210   2.820 -0.1133 -0.2242  0.1641
 5645TIP3    H116941   3.350   3.240   2.908  0.3273 -0.3854  0.3273
 5645TIP3    H216942   3.305   3.250   2.764  0.9385  1.7340  0.2581
 5646TIP3   OH216943   3.811   2.947   4.406  0.3292  0.4091 -0.2634
 5646TIP3    H116944   3.786   3.039   4.398  0.0771  0.2785 -1.0672
 5646TIP3    H216945   3.907   2.948   4.402  0.3283  0.6428 -0.2257
 5647TIP3   OH216946   4.952   5.732   1.779  0.1477 -0.3102  0.0336
 5647TIP3    H116947   5.020   5.765   1.720 -0.6589  0.1172 -0.6790
 5647TIP3    H216948   4.906   5.666   1.728 -0.8624  0.4017  0.0011
 5648TIP3   OH216949   0.445   3.277   4.484  0.3832  0.6976  0.2537
 5648TIP3    H116950   0.461   3.298   4.392 -0.6365  2.2759  0.3959
 5648TIP3    H216951   0.406   3.356   4.521  0.2327 -0.0913  1.9213
 5649TIP3   OH216952   4.065   1.099   0.417 -0.3715  0.4556 -0.8710
 5649TIP3    H116953   4.017   1.180   0.436  0.2675  0.5751  0.3552
 5649TIP3    H216954   4.038   1.076   0.329 -1.1128  1.6260 -0.9829
 5650TIP3   OH216955   3.420   4.011   0.501 -0.1572 -0.2770 -0.5709
 5650TIP3    H116956   3.460   3.989   0.418  1.8379 -0.1893  0.3088
 5650TIP3    H216957   3.413   4.107   0.500  0.9691 -0.1766 -0.1945
 5651TIP3   OH216958   2.663   3.424   2.516  0.2517  0.4349 -0.3422
 5651TIP3    H116959   2.668   3.381   2.601  2.6210 -1.2292 -1.2234
 5651TIP3    H216960   2.594   3.376   2.469  0.2972  0.0736 -0.0421
 5652TIP3   OH216961   0.222   1.051   0.239 -0.3244 -0.3985  0.0451
 5652TIP3    H116962   0.178   0.974   0.205 -1.4428  0.6440 -0.9794
 5652TIP3    H216963   0.151   1.109   0.267  0.4122  0.7870 -0.4284
 5653TIP3   OH216964   1.462   5.046   0.654  0.2422  0.5194 -0.2514
 5653TIP3    H116965   1.376   5.087   0.651  0.4276  0.9040 -0.4064
 5653TIP3    H216966   1.524   5.119   0.654  0.5553  0.2870  1.2545
 5654TIP3   OH216967   4.314   1.848   1.424 -0.1465 -0.2768  0.1222
 5654TIP3    H116968   4.240   1.838   1.484 -0.1520  0.3364  0.2231
 5654TIP3    H216969   4.350   1.759   1.415 -0.8665 -0.5703  0.0976
 5655TIP3   OH216970   4.492   2.133   4.335 -0.2824 -0.2208  0.7110
 5655TIP3    H116971   4.402   2.111   4.361 -0.5771  1.6527  1.4381
 5655TIP3    H216972   4.524   2.189   4.405  1.0822  0.0237 -0.0783
 5656TIP3   OH216973   6.257   0.340   2.686  0.5819  0.1344  0.3213
 5656TIP3    H116974   6.248   0.266   2.746  0.2157 -0.0626  0.0323
 5656TIP3    H216975   6.268   0.299   2.600 -1.5161  0.3927 -0.1213
 5657TIP3   OH216976   4.226   2.707   4.082  0.1161  0.8601  0.0217
 5657TIP3    H116977   4.171   2.674   4.153 -0.7352  0.4546 -0.8119
 5657TIP3    H216978   4.287   2.767   4.125 -2.1182  2.7331  0.7835
 5658TIP3   OH216979   0.103   4.343   3.242  0.1667  0.3319  0.1076
 5658TIP3    H116980   0.166   4.271   3.242  1.5187  1.4449  2.0534
 5658TIP3    H216981   0.038   4.318   3.308 -0.2104  0.2185 -0.3008
 5659TIP3   OH216982   1.964   3.928   1.154 -0.5208  0.0876  0.5992
 5659TIP3    H116983   2.010   3.871   1.092 -0.8749 -0.4619  0.8391
 5659TIP3    H216984   1.933   4.001   1.100 -0.4818 -0.1886  0.1974
 5660TIP3   OH216985   6.294   2.172   4.621  0.0489 -0.0503  0.1139
 5660TIP3    H116986   6.370   2.114   4.627  0.4514  0.5643  1.3029
 5660TIP3    H216987   6.268   2.188   4.711 -1.0658  0.3284 -0.2504
 5661TIP3   OH216988   3.760   1.243   0.619  0.0532 -0.7878 -0.5862
 5661TIP3    H116989   3.674   1.281   0.597 -0.9647 -2.2440  0.6244
 5661TIP3    H216990   3.819   1.279   0.554 -1.3198  0.8722 -1.0130
 5662TIP3   OH216991   2.696   4.709   0.832 -0.2618 -0.2115  0.0675
 5662TIP3    H116992   2.602   4.716   0.814 -0.9338 -0.6445  2.8127
 5662TIP3    H216993   2.736   4.693   0.747 -2.7090 -0.3041 -1.1613
 5663TIP3   OH216994   1.545   3.997   3.999  0.5935 -0.4073 -0.3975
 5663TIP3    H116995   1.483   4.041   3.941  1.4513  1.3548 -0.0635
 5663TIP3    H216996   1.569   3.917   3.952 -1.7398 -1.0706 -0.6118
 5664TIP3   OH216997   5.283   2.526   4.332 -0.4705  0.2624  0.5243
 5664TIP3    H116998   5.193   2.510   4.361 -0.7810 -0.3287 -0.6867
 5664TIP3    H216999   5.286   2.620   4.314 -0.8196  0.3012  0.6706
 5665TIP3   OH217000   2.394   2.379   0.926 -0.1014 -0.1410 -0.5014
 5665TIP3    H117001   2.300   2.374   0.942  0.1316  0.5134  1.3672
 5665TIP3    H217002   2.416   2.298   0.881 -1.7019  0.1527 -1.9040
 5666TIP3   OH217003   0.928   5.862   1.317  0.4417 -0.1277 -0.1795
 5666TIP3    H117004   0.861   5.806   1.357 -1.5913  1.5825 -1.0286
 5666TIP3    H217005   0.961   5.915   1.390 -0.6982  0.5096 -0.1120
 5667TIP3   OH217006   6.037   4.216   1.095 -0.0798  0.5208  0.3456
 5667TIP3    H117007   5.960   4.237   1.042 -0.6603 -1.9061  0.0961
 5667TIP3    H217008   6.024   4.263   1.177 -1.2439  1.0696 -0.1373
 5668TIP3   OH217009   0.985   2.849   4.419 -0.1526 -0.0245  0.3483
 5668TIP3    H117010   0.996   2.868   4.325  0.0017 -0.1966  0.3307
 5668TIP3    H217011   0.898   2.882   4.440 -0.6960 -1.1071 -0.1391
 5669TIP3   OH217012   3.468   3.206   4.006  0.6311  0.1852 -0.5690
 5669TIP3    H117013   3.500   3.229   4.093  0.6736  0.0013 -0.5360
 5669TIP3    H217014   3.419   3.125   4.019 -0.4089  0.8013 -0.5077
 5670TIP3   OH217015   2.667   4.047   2.122  0.0356 -0.0019  0.5747
 5670TIP3    H117016   2.689   4.102   2.197 -0.5028  0.0142  0.7262
 5670TIP3    H217017   2.706   3.962   2.143  1.3751  0.4674  0.0698
 5671TIP3   OH217018   4.082   3.346   0.097  0.4409 -0.4760  0.0817
 5671TIP3    H117019   4.174   3.368   0.079  0.6177 -0.2027  1.2402
 5671TIP3    H217020   4.032   3.416   0.056  0.7162 -0.8402 -0.9054
 5672TIP3   OH217021   0.395   5.323   0.210 -0.3504 -0.0378  0.4213
 5672TIP3    H117022   0.359   5.339   0.123 -0.9991  4.0575  1.2577
 5672TIP3    H217023   0.488   5.344   0.202 -0.4927  0.7636  0.7515
 5673TIP3   OH217024   0.572   5.911   0.302 -0.2484 -0.6281 -0.1616
 5673TIP3    H117025   0.482   5.939   0.287 -0.8609 -2.5225 -0.1859
 5673TIP3    H217026   0.583   5.914   0.397 -0.8839 -1.9228 -0.0289
 5674TIP3   OH217027   3.929   2.461   3.960 -0.0308 -0.8012 -0.2623
 5674TIP3    H117028   3.984   2.416   3.895  0.5941  1.0941 -1.0975
 5674TIP3    H217029   3.896   2.538   3.915 -0.8963 -0.2741  1.2088
 5675TIP3   OH217030   3.039   4.060   0.759 -0.3151 -0.1403 -0.4040
 5675TIP3    H117031   2.989   4.099   0.688 -2.3579 -0.8400  0.5899
 5675TIP3    H217032   2.976   4.006   0.807  0.6830  1.1334  2.5762
 5676TIP3   OH217033   3.308   2.928   1.551 -0.3632 -0.1937 -0.2403
 5676TIP3    H117034   3.271   3.013   1.530  2.1542  0.3797 -3.1087
 5676TIP3    H217035   3.357   2.942   1.632 -1.3547  0.6195  0.2285
 5677TIP3   OH217036   0.205   4.205   1.005  0.0973  0.1037  0.1887
 5677TIP3    H117037   0.129   4.234   1.056 -0.8422 -1.8526 -0.0374
 5677TIP3    H217038   0.213   4.112   1.024  1.0933 -0.2019 -1.5295
 5678TIP3   OH217039   0.950   1.841   2.448 -0.7693 -0.1393  0.0532
 5678TIP3    H117040   0.918   1.761   2.490  2.6188 -0.4791  2.2756
 5678TIP3    H217041   0.984   1.811   2.363  0.5415 -1.1302  0.8953
 5679TIP3   OH217042   5.990   2.097   3.244 -0.0995 -0.2758 -0.2164
 5679TIP3    H117043   5.950   2.128   3.163 -1.3166 -0.3752  0.3284
 5679TIP3    H217044   5.943   2.144   3.313  1.6193  0.6049  0.4224
 5680TIP3   OH217045   3.751   2.305   0.741  0.3501  0.2653 -0.0416
 5680TIP3    H117046   3.689   2.232   0.739 -1.0152  1.3959 -0.4901
 5680TIP3    H217047   3.829   2.269   0.783 -0.8909 -0.9883  1.3179
 5681TIP3   OH217048   3.447   4.554   0.292 -0.3982 -0.2564 -0.4139
 5681TIP3    H117049   3.408   4.475   0.327  0.7448 -0.0349  1.4668
 5681TIP3    H217050   3.372   4.610   0.269 -1.1852 -1.1130  0.0068
 5682TIP3   OH217051   3.898   5.511   0.387  0.2925  0.3232  0.1244
 5682TIP3    H117052   3.859   5.511   0.475  0.6370 -0.5847  0.2903
 5682TIP3    H217053   3.897   5.418   0.361  0.6569  0.5272 -0.6245
 5683TIP3   OH217054   2.008   5.314   3.137 -0.4137 -0.4820 -0.5612
 5683TIP3    H117055   2.083   5.335   3.081  0.1942 -0.7982  0.1227
 5683TIP3    H217056   2.028   5.227   3.172 -0.0746  0.2847  1.2878
 5684TIP3   OH217057   0.749   1.996   0.907  0.1624 -0.4911 -0.1866
 5684TIP3    H117058   0.831   1.954   0.881 -0.2166 -0.6522 -1.1718
 5684TIP3    H217059   0.734   1.965   0.996  1.8528  0.6190  0.5380
 5685TIP3   OH217060   5.130   1.635   2.283  0.7479  0.2002 -0.0582
 5685TIP3    H117061   5.225   1.622   2.284  0.7102 -0.0591  0.1328
 5685TIP3    H217062   5.103   1.611   2.194  0.8102 -0.0883 -0.0000
 5686TIP3   OH217063   0.036   2.931   2.492 -0.3977  0.1146 -0.3794
 5686TIP3    H117064   0.013   2.903   2.581 -1.1570 -0.1929 -0.6616
 5686TIP3    H217065   0.024   2.852   2.439  1.6919 -0.1690 -0.4991
 5687TIP3   OH217066   4.653   1.529   0.245 -0.6157  0.4131 -0.3533
 5687TIP3    H117067   4.560   1.550   0.251 -0.7016 -0.0836  0.0399
 5687TIP3    H217068   4.683   1.524   0.335 -0.5087 -0.7608 -0.4405
 5688TIP3   OH217069   2.003   1.882   4.096 -0.1743 -0.0476 -0.5403
 5688TIP3    H117070   2.027   1.832   4.018  2.2587 -0.6550  0.5260
 5688TIP3    H217071   2.040   1.969   4.081  2.1464 -0.7464  0.7493
 5689TIP3   OH217072   0.133   2.296   4.960 -0.1479 -0.0488  0.4092
 5689TIP3    H117073   0.044   2.264   4.950 -0.1963 -0.7475  2.6481
 5689TIP3    H217074   0.134   2.379   4.912 -1.1464 -1.3748 -2.0711
 5690TIP3   OH217075   6.219   5.059   0.541 -0.5635 -0.4324 -0.2897
 5690TIP3    H117076   6.263   5.136   0.577 -1.8017  0.0818  0.1490
 5690TIP3    H217077   6.249   5.055   0.450  1.3231 -0.8113  0.2990
 5691TIP3   OH217078   5.522   0.140   4.954 -0.4466  0.4383 -0.1336
 5691TIP3    H117079   5.501   0.065   5.009 -0.2743 -0.2236 -0.9517
 5691TIP3    H217080   5.444   0.195   4.958 -0.0254  0.9831  1.6689
 5692TIP3   OH217081   3.562   2.140   4.296  0.2402  0.2428  0.3954
 5692TIP3    H117082   3.528   2.191   4.370  0.2278 -0.7373  1.0810
 5692TIP3    H217083   3.484   2.117   4.245  0.3288  1.6880 -0.4588
 5693TIP3   OH217084   1.363   0.961   1.125  0.2010  0.4952 -0.8091
 5693TIP3    H117085   1.270   0.938   1.128  0.2296  0.5093  0.8421
 5693TIP3    H217086   1.366   1.053   1.152  0.8086  0.0540  0.7187
 5694TIP3   OH217087   0.248   5.389   1.610 -0.0650  0.3491  0.0674
 5694TIP3    H117088   0.246   5.468   1.663 -0.0371 -0.4629  1.3288
 5694TIP3    H217089   0.289   5.415   1.528  1.8417  1.1850  1.2346
 5695TIP3   OH217090   2.302   3.784   2.537  0.0721 -0.2713 -0.3425
 5695TIP3    H117091   2.276   3.842   2.465  1.3862  1.0141  0.1547
 5695TIP3    H217092   2.341   3.708   2.494 -1.3184 -0.6319 -1.0033
 5696TIP3   OH217093   1.071   0.158   1.155  0.0117 -0.0599 -0.1958
 5696TIP3    H117094   1.063   0.076   1.107 -0.7890  0.6503 -1.3035
 5696TIP3    H217095   1.165   0.164   1.176  0.1919 -0.9042 -0.7253
 5697TIP3   OH217096   1.187   5.693   4.536  0.0135  0.0235  0.2072
 5697TIP3    H117097   1.121   5.645   4.586  0.2532  0.4007  0.8952
 5697TIP3    H217098   1.166   5.674   4.444 -0.0277 -1.2183  0.4566
 5698TIP3   OH217099   5.988   2.168   2.977 -0.1963  0.4843  0.1210
 5698TIP3    H117100   5.969   2.259   3.000  0.2056  0.2044  1.6898
 5698TIP3    H217101   6.000   2.170   2.882 -0.5781  1.9924  0.0646
 5699TIP3   OH217102   2.583   5.581   4.700  0.2809 -0.3256  0.2285
 5699TIP3    H117103   2.592   5.644   4.771 -0.0556 -1.9226  1.7426
 5699TIP3    H217104   2.492   5.551   4.705  0.5971 -1.3891 -0.0510
 5700TIP3   OH217105   4.771   3.162   3.262  0.0956  0.2507  0.9375
 5700TIP3    H117106   4.822   3.098   3.312  1.2122  0.9984  0.8146
 5700TIP3    H217107   4.833   3.234   3.247 -0.6835  0.7097 -0.1791
 5701TIP3   OH217108   3.682   1.776   0.808  1.0086 -0.1941 -0.4789
 5701TIP3    H117109   3.653   1.859   0.845  2.1964 -0.2002  0.5461
 5701TIP3    H217110   3.608   1.717   0.820  1.4183 -0.3185  2.4123
 5702TIP3   OH217111   3.257   2.949   3.730 -0.7814  0.0253 -0.0317
 5702TIP3    H117112   3.330   3.010   3.726 -0.5994 -0.1466  0.6068
 5702TIP3    H217113   3.197   2.979   3.662 -0.4952  0.6509 -0.0086
 5703TIP3   OH217114   6.147   2.352   2.740 -0.3149 -0.4865  0.1793
 5703TIP3    H117115   6.162   2.387   2.652  0.1059  0.3275  0.5637
 5703TIP3    H217116   6.086   2.413   2.780  0.0649 -0.4355  0.7015
 5704TIP3   OH217117   0.237   4.190   4.005  0.1799 -0.4732  0.1050
 5704TIP3    H117118   0.282   4.192   4.089  2.2827 -1.9323 -0.9025
 5704TIP3    H217119   0.148   4.160   4.026  0.2152  0.5603  1.9259
 5705TIP3   OH217120   2.617   3.037   1.403  0.3739  0.1572  0.0001
 5705TIP3    H117121   2.667   3.088   1.466 -0.0252  0.9872 -0.3373
 5705TIP3    H217122   2.595   3.099   1.333 -1.1181 -0.1562  0.1394
 5706TIP3   OH217123   1.383   2.113   1.218  0.1676  0.1173 -0.5657
 5706TIP3    H117124   1.349   2.059   1.289 -0.3418  2.0000  0.7190
 5706TIP3    H217125   1.347   2.200   1.235  0.3272  0.7234 -2.9621
 5707TIP3   OH217126   1.019   0.029   1.535  0.3326 -0.4618 -0.1949
 5707TIP3    H117127   1.094   0.085   1.519  1.1376 -1.6573 -0.7446
 5707TIP3    H217128   1.000   0.040   1.628  1.8293 -0.8878  0.1940
 5708TIP3   OH217129   5.390   5.948   4.586 -0.1105 -0.0609 -0.7184
 5708TIP3    H117130   5.348   5.873   4.543 -0.3471 -0.8768  0.8505
 5708TIP3    H217131   5.329   6.020   4.574 -0.8931 -0.6625 -0.4536
 5709TIP3   OH217132   3.155   4.135   2.722 -0.1148  0.1421 -0.0380
 5709TIP3    H117133   3.183   4.061   2.777 -1.1625  0.7363  1.3728
 5709TIP3    H217134   3.063   4.148   2.746 -0.5176  0.6367 -1.7491
 5710TIP3   OH217135   4.125   2.590   1.714 -0.2285 -0.2724  0.4064
 5710TIP3    H117136   4.080   2.610   1.632 -1.5024 -0.4797  1.0397
 5710TIP3    H217137   4.130   2.675   1.759  1.5566  0.0943 -0.3597
 5711TIP3   OH217138   3.360   4.752   4.201  0.3774 -0.0922  0.1824
 5711TIP3    H117139   3.295   4.685   4.183 -0.2195  0.7682 -0.9996
 5711TIP3    H217140   3.331   4.829   4.151  1.2604  0.9189  1.1503
 5712TIP3   OH217141   2.742   5.279   2.184  0.2751 -0.6367 -0.2835
 5712TIP3    H117142   2.741   5.209   2.118 -2.4376 -1.9076  0.9412
 5712TIP3    H217143   2.779   5.238   2.262  2.1529  0.4614 -0.5204
 5713TIP3   OH217144   1.077   2.080   5.196 -0.4956  0.3731  0.1654
 5713TIP3    H117145   1.004   2.142   5.192 -1.1383 -0.3961 -0.1213
 5713TIP3    H217146   1.104   2.068   5.105 -0.9882 -0.4777  0.1207
 5714TIP3   OH217147   0.313   2.953   3.562 -0.8463 -0.0375  0.1842
 5714TIP3    H117148   0.300   2.945   3.657 -0.8897 -0.2808  0.1586
 5714TIP3    H217149   0.391   3.008   3.553 -1.6595  1.2000  0.3513
 5715TIP3   OH217150   6.003   1.465   3.898  0.4630  0.1656 -0.4849
 5715TIP3    H117151   5.916   1.472   3.859  0.4924  0.4930 -0.4929
 5715TIP3    H217152   6.063   1.467   3.823  0.4107 -1.8933 -0.6366
 5716TIP3   OH217153   1.347   4.404   2.699  0.3951  0.4923  0.2167
 5716TIP3    H117154   1.319   4.375   2.613  3.3493 -0.8849 -0.4019
 5716TIP3    H217155   1.403   4.480   2.682  0.8136  0.3528  0.9214
 5717TIP3   OH217156   3.036   4.771   3.792 -0.5591  0.4473 -0.1982
 5717TIP3    H117157   3.035   4.786   3.698 -2.4694  0.7819 -0.1658
 5717TIP3    H217158   3.121   4.731   3.810  0.9124  2.7128 -1.6639
 5718TIP3   OH217159   3.319   2.741   2.431  0.6601 -0.2824  0.2227
 5718TIP3    H117160   3.243   2.686   2.452 -0.1998  0.1353 -1.6218
 5718TIP3    H217161   3.389   2.709   2.489 -0.7905 -0.9469  1.6664
 5719TIP3   OH217162   2.345   2.985   3.258  0.2528  0.1018 -0.0058
 5719TIP3    H117163   2.430   3.013   3.223 -0.4001  0.7760 -1.1096
 5719TIP3    H217164   2.363   2.899   3.296  1.0905 -0.5488 -1.7401
 5720TIP3   OH217165   0.832   3.714   1.545 -0.3315 -0.2021 -0.2303
 5720TIP3    H117166   0.800   3.772   1.475  0.1265 -2.0002 -2.0173
 5720TIP3    H217167   0.756   3.663   1.571 -0.0496 -1.0355 -0.9862
 5721TIP3   OH217168   4.335   0.638   0.058  0.1298 -0.8518 -0.4960
 5721TIP3    H117169   4.429   0.620   0.067  0.6817  1.0592 -1.8116
 5721TIP3    H217170   4.315   0.616  -0.032 -0.1915  0.6056 -0.8122
 5722TIP3   OH217171   4.119   3.839   3.924 -0.6522  0.1688 -0.1995
 5722TIP3    H117172   4.028   3.814   3.907 -0.4375 -0.1912 -0.8665
 5722TIP3    H217173   4.122   3.855   4.018 -1.5544  0.7957 -0.2579
 5723TIP3   OH217174   4.713   3.201   2.759  0.1236 -0.1847  0.1877
 5723TIP3    H117175   4.750   3.259   2.693  0.2226  0.0491  0.4488
 5723TIP3    H217176   4.659   3.139   2.709  1.0276 -0.6595 -0.2090
 5724TIP3   OH217177   3.684   1.343   1.670 -0.6282 -0.6170  0.0256
 5724TIP3    H117178   3.673   1.270   1.609 -0.0191 -1.3358  0.7611
 5724TIP3    H217179   3.760   1.391   1.637 -1.8417  0.5285 -1.2585
 5725TIP3   OH217180   3.302   1.896   2.539 -0.0143 -0.2652 -0.1391
 5725TIP3    H117181   3.294   1.987   2.511  2.6792  0.3579  0.8063
 5725TIP3    H217182   3.378   1.863   2.492 -0.0663 -1.5559  0.6371
 5726TIP3   OH217183   1.886   0.176   4.695 -0.2323 -0.1849  0.0565
 5726TIP3    H117184   1.840   0.222   4.765  0.4431  0.1476  0.2830
 5726TIP3    H217185   1.818   0.161   4.629 -0.6234  0.4884  0.2910
 5727TIP3   OH217186   0.704   4.702   1.334  0.1083  0.1452  0.1490
 5727TIP3    H117187   0.731   4.611   1.337  0.7534  0.3060 -0.6632
 5727TIP3    H217188   0.711   4.732   1.425 -1.3726 -0.9546  0.6592
 5728TIP3   OH217189   1.715   3.235   0.260 -0.1663  0.7870 -0.2115
 5728TIP3    H117190   1.740   3.276   0.342  1.5010 -0.9909  0.2539
 5728TIP3    H217191   1.623   3.261   0.247  0.4092  3.5626  0.6032
 5729TIP3   OH217192   3.660   3.152   1.834  1.0739  0.5004  0.2296
 5729TIP3    H117193   3.593   3.129   1.898  0.5288  2.6582  0.5379
 5729TIP3    H217194   3.649   3.089   1.763 -0.4202  0.0166  0.8631
 5730TIP3   OH217195   6.276   2.533   2.550  0.0075  0.2851  0.5874
 5730TIP3    H117196   6.191   2.576   2.543  0.1658  0.4901 -0.2245
 5730TIP3    H217197   6.339   2.604   2.555  0.1633  0.1349  0.7787
 5731TIP3   OH217198   3.481   2.268   2.983  0.0078  0.0089 -0.7999
 5731TIP3    H117199   3.467   2.195   3.043 -1.5360  0.7670 -0.1797
 5731TIP3    H217200   3.564   2.306   3.010  0.5467 -1.1548 -0.7663
 5732TIP3   OH217201   4.886   0.586   2.469 -0.0193  0.1369 -0.1599
 5732TIP3    H117202   4.841   0.644   2.407  0.2589  0.6168  0.0831
 5732TIP3    H217203   4.875   0.499   2.432 -1.1171  0.2475 -0.1273
 5733TIP3   OH217204   1.718   3.511   4.847 -0.1858  0.3769  0.2376
 5733TIP3    H117205   1.757   3.474   4.926  0.0828  1.4865  0.6451
 5733TIP3    H217206   1.635   3.549   4.877 -0.6891 -0.2836 -0.2643
 5734TIP3   OH217207   3.719   5.490   1.013 -0.1673  0.1008 -0.8262
 5734TIP3    H117208   3.665   5.442   1.077  1.3709  0.5972  0.9226
 5734TIP3    H217209   3.785   5.426   0.986 -1.0275 -0.2191 -2.2541
 5735TIP3   OH217210   1.371   2.425   0.147 -0.0783 -0.0446  0.8252
 5735TIP3    H117211   1.448   2.393   0.194  0.9488 -0.7272 -1.1966
 5735TIP3    H217212   1.407   2.483   0.079 -1.6349  2.5043  2.0247
 5736TIP3   OH217213   0.589   1.063   1.077  0.1912  0.3737  0.2488
 5736TIP3    H117214   0.653   0.992   1.070  0.5583  0.4580  2.2356
 5736TIP3    H217215   0.581   1.097   0.988  2.1578 -0.3019 -0.2268
 5737TIP3   OH217216   4.785   5.976   0.963 -0.3148 -0.5212  0.3351
 5737TIP3    H117217   4.820   5.898   1.006 -3.6197 -2.4991 -0.2031
 5737TIP3    H217218   4.784   6.043   1.032  0.7294 -1.5522  1.4011
 5738TIP3   OH217219   2.058   0.906   3.619 -0.0674  0.5639 -0.0087
 5738TIP3    H117220   2.145   0.912   3.580 -0.5074  0.9673 -0.9678
 5738TIP3    H217221   2.058   0.822   3.665  0.1471 -0.4307 -1.7379
 5739TIP3   OH217222   2.756   2.576   4.465  0.1315  0.3087  0.0276
 5739TIP3    H117223   2.663   2.565   4.485  0.3573  0.0244  0.9327
 5739TIP3    H217224   2.801   2.552   4.545  1.0918 -1.5292 -1.0079
 5740TIP3   OH217225   0.442   3.006   4.594 -0.0143  0.7797  0.3092
 5740TIP3    H117226   0.385   2.934   4.565 -0.3909  0.8006  0.9967
 5740TIP3    H217227   0.412   3.082   4.544 -0.4037  0.7256  0.4568
 5741TIP3   OH217228   5.313   3.497   0.322  0.3875  0.1410  0.0416
 5741TIP3    H117229   5.283   3.420   0.370 -0.7940  1.3409  1.3503
 5741TIP3    H217230   5.259   3.499   0.243 -0.8006  0.5149  0.8304
 5742TIP3   OH217231   0.231   5.770   5.091 -0.3584 -0.0940 -0.6384
 5742TIP3    H117232   0.285   5.842   5.123 -2.1688  0.4219  1.4654
 5742TIP3    H217233   0.288   5.694   5.096 -0.0355  0.2202  2.5836
 5743TIP3   OH217234   4.263   2.068   4.498 -0.4792  0.1782 -0.9938
 5743TIP3    H117235   4.245   1.994   4.440 -1.4170  1.0392 -1.8433
 5743TIP3    H217236   4.211   2.050   4.576  0.4560 -0.7781 -0.5720
 5744TIP3   OH217237   3.648   2.870   2.619 -0.1060 -0.0720 -0.2506
 5744TIP3    H117238   3.640   2.802   2.552  0.9845  0.2659 -0.7577
 5744TIP3    H217239   3.558   2.893   2.641 -0.5634 -3.0316  1.3898
 5745TIP3   OH217240   5.826   1.982   1.813  0.1609  0.3360 -0.2767
 5745TIP3    H117241   5.887   2.027   1.755 -0.5877  0.8978 -0.6496
 5745TIP3    H217242   5.881   1.938   1.877  0.9828  0.2016 -1.0576
 5746TIP3   OH217243   3.861   1.616   1.042  0.2597  0.0310 -0.0384
 5746TIP3    H117244   3.784   1.672   1.032 -0.0083 -0.4313 -0.6453
 5746TIP3    H217245   3.825   1.528   1.056  0.6765 -0.1440 -0.0570
 5747TIP3   OH217246   0.663   2.281   2.506 -0.7169 -0.4958 -0.1983
 5747TIP3    H117247   0.650   2.361   2.456 -0.0843 -0.5416 -0.4430
 5747TIP3    H217248   0.668   2.212   2.440 -2.1916 -0.8843  0.0501
 5748TIP3   OH217249   2.490   3.748   4.153 -0.1568  0.3464 -0.4285
 5748TIP3    H117250   2.440   3.695   4.215 -2.0463  4.1183  1.6407
 5748TIP3    H217251   2.575   3.760   4.196  0.3338 -1.0054 -0.9772
 5749TIP3   OH217252   2.248   2.088   2.126 -0.0413  0.2295  0.3623
 5749TIP3    H117253   2.211   2.159   2.074  1.9829  0.9020 -0.2580
 5749TIP3    H217254   2.235   2.009   2.073 -0.6791  0.4178  0.2309
 5750TIP3   OH217255   6.017   1.466   1.592  0.6791  0.5460 -0.3892
 5750TIP3    H117256   5.999   1.560   1.601 -1.1714  0.1821  0.1824
 5750TIP3    H217257   6.024   1.452   1.497  2.3611  1.4643 -0.4316
 5751TIP3   OH217258   1.031   0.565   0.461 -0.1588  0.3345 -0.3999
 5751TIP3    H117259   1.039   0.507   0.537  3.0029 -0.9399 -1.5241
 5751TIP3    H217260   1.040   0.653   0.497  1.3116 -0.2428  0.7516
 5752TIP3   OH217261   3.159   1.525   2.609 -0.0344 -0.6822 -0.2431
 5752TIP3    H117262   3.194   1.508   2.522  0.0355  1.4031 -0.6910
 5752TIP3    H217263   3.064   1.513   2.600 -0.0728 -0.0673 -0.7430
 5753TIP3   OH217264   5.326   3.030   2.311  0.1513 -0.2819 -0.2756
 5753TIP3    H117265   5.250   3.001   2.260  0.5550 -2.4975  0.2574
 5753TIP3    H217266   5.399   3.024   2.249 -0.0858  2.0929 -0.8622
 5754TIP3   OH217267   2.488   2.134   0.759 -0.3019  0.4110  0.0829
 5754TIP3    H117268   2.515   2.179   0.679  0.7698 -1.6618 -0.7740
 5754TIP3    H217269   2.426   2.068   0.730 -1.1251  0.6532  1.2000
 5755TIP3   OH217270   1.092   0.317   0.323 -0.8512  0.7139  0.2754
 5755TIP3    H117271   1.092   0.394   0.381  0.3882  1.9270 -1.2621
 5755TIP3    H217272   1.031   0.340   0.253 -2.0040 -0.5644  0.8216
 5756TIP3   OH217273   2.345   3.649   3.502  0.4140  0.0883  0.4601
 5756TIP3    H117274   2.334   3.557   3.477  0.7353  0.5337 -1.5251
 5756TIP3    H217275   2.436   3.655   3.531  0.3011 -0.2868  0.8899
 5757TIP3   OH217276   2.445   5.773   4.378  0.2263  0.0798  0.2568
 5757TIP3    H117277   2.458   5.786   4.284 -0.6615  1.2820  0.2882
 5757TIP3    H217278   2.366   5.823   4.399 -0.5691 -1.5133  1.3352
 5758TIP3   OH217279   5.415   5.064   0.384 -0.1466 -0.3649  0.3886
 5758TIP3    H117280   5.344   5.067   0.319  0.3484 -1.4519 -0.2247
 5758TIP3    H217281   5.492   5.093   0.336  0.4227 -2.1103  0.1724
 5759TIP3   OH217282   6.301   1.006   1.676 -0.2568 -0.3269  0.1907
 5759TIP3    H117283   6.303   1.079   1.737 -0.2289  0.7642 -1.0767
 5759TIP3    H217284   6.264   0.934   1.727 -0.3996  0.5893  1.4348
 5760TIP3   OH217285   3.451   3.363   2.470  0.3555 -0.0990  0.6592
 5760TIP3    H117286   3.502   3.324   2.542 -0.5584 -2.4036  0.1512
 5760TIP3    H217287   3.362   3.330   2.484  0.1668 -0.6428 -1.5412
 5761TIP3   OH217288   0.160   2.734   0.601 -0.5110 -0.5088  0.1788
 5761TIP3    H117289   0.075   2.778   0.601  0.7378  2.1467  1.8679
 5761TIP3    H217290   0.200   2.759   0.518  0.2574  1.9486  1.1831
 5762TIP3   OH217291   2.847   0.682   2.939  0.1656 -0.6675  0.2436
 5762TIP3    H117292   2.868   0.745   3.007 -0.2260 -0.3249  0.0516
 5762TIP3    H217293   2.826   0.601   2.986 -2.6159  0.2425  0.7072
 5763TIP3   OH217294   2.663   3.852   0.751 -0.5646 -0.1796 -0.0915
 5763TIP3    H117295   2.746   3.804   0.754 -0.4800 -0.0047  0.4858
 5763TIP3    H217296   2.597   3.784   0.732 -0.1888 -0.1680 -1.5961
 5764TIP3   OH217297   0.393   4.825   4.007  0.3011 -0.0081 -0.0484
 5764TIP3    H117298   0.358   4.904   3.966 -0.2573 -1.1063 -1.8198
 5764TIP3    H217299   0.373   4.755   3.945  3.5428 -1.1078 -0.0467
 5765TIP3   OH217300   4.744   4.154   1.853 -0.2740 -0.1072 -0.0518
 5765TIP3    H117301   4.811   4.096   1.889 -0.3615  0.0337  0.3543
 5765TIP3    H217302   4.664   4.129   1.899 -0.0522  1.2401  1.1598
 5766TIP3   OH217303   5.713   0.463   2.825  0.4301  0.7437 -0.2635
 5766TIP3    H117304   5.793   0.439   2.779  0.1780 -0.7217 -0.0199
 5766TIP3    H217305   5.654   0.494   2.756  0.4383 -0.3770 -0.8112
 5767TIP3   OH217306   0.930   5.846   5.133 -0.0997 -0.0111 -0.0764
 5767TIP3    H117307   0.946   5.752   5.123 -1.6239 -0.2197 -0.9159
 5767TIP3    H217308   0.864   5.866   5.067 -0.0297  1.6032  0.2957
 5768TIP3   OH217309   2.324   4.653   1.290  0.0412  0.2381 -0.0057
 5768TIP3    H117310   2.251   4.713   1.275 -1.8918 -2.0359 -0.2474
 5768TIP3    H217311   2.329   4.601   1.209  0.5407 -1.0216  0.8100
 5769TIP3   OH217312   3.025   2.296   3.225 -0.1398 -0.0308 -0.5381
 5769TIP3    H117313   3.085   2.227   3.196 -0.3954 -0.8775  0.8894
 5769TIP3    H217314   2.979   2.259   3.300 -0.4126  1.6377  0.1631
 5770TIP3   OH217315   5.463   5.888   3.595 -0.1584  0.0982 -0.4566
 5770TIP3    H117316   5.371   5.910   3.585 -0.6843 -1.5233  0.4139
 5770TIP3    H217317   5.490   5.855   3.509 -0.6607 -0.3033 -0.4657
 5771TIP3   OH217318   1.255   3.111   4.169 -0.5330  0.0414 -0.9493
 5771TIP3    H117319   1.293   3.141   4.251  0.2581 -0.0181 -1.2739
 5771TIP3    H217320   1.254   3.015   4.176 -2.2421  0.0781 -0.2631
 5772TIP3   OH217321   5.698   4.245   3.507  0.2151  0.8876  0.1090
 5772TIP3    H117322   5.659   4.304   3.571  2.7825  0.6538  2.0281
 5772TIP3    H217323   5.777   4.290   3.477  2.5616 -1.5536  2.0293
 5773TIP3   OH217324   4.165   2.119   0.119 -0.4421  0.2456 -0.1215
 5773TIP3    H117325   4.173   2.162   0.034 -0.6352  1.3366  0.3903
 5773TIP3    H217326   4.082   2.152   0.154 -1.2899 -1.5780 -0.2495
 5774TIP3   OH217327   5.124   4.943   4.482 -0.0643  0.1020 -0.6417
 5774TIP3    H117328   5.077   4.929   4.564 -0.3767  0.4673 -0.7596
 5774TIP3    H217329   5.140   5.037   4.479  0.7124 -0.0180 -0.5855
 5775TIP3   OH217330   0.451   5.446   4.614 -0.2264 -0.4802  0.1822
 5775TIP3    H117331   0.475   5.537   4.633 -0.3594 -0.6581  1.2458
 5775TIP3    H217332   0.356   5.446   4.617 -0.2361 -0.6026 -0.1013
 5776TIP3   OH217333   5.313   4.360   3.739 -0.1541  0.2273  0.9327
 5776TIP3    H117334   5.291   4.360   3.832  1.0072 -1.2932  1.2405
 5776TIP3    H217335   5.361   4.442   3.726 -0.0944  0.3240  1.7288
 5777TIP3   OH217336   2.644   4.394   2.810 -0.1108 -0.1093  0.3838
 5777TIP3    H117337   2.622   4.310   2.770 -0.2080  0.1252 -0.0648
 5777TIP3    H217338   2.739   4.391   2.821  0.0422  0.1574 -0.6742
 5778TIP3   OH217339   2.346   0.442   2.725  0.8845  0.1426  0.0588
 5778TIP3    H117340   2.406   0.504   2.765  0.5965  0.2633  0.3085
 5778TIP3    H217341   2.276   0.431   2.790 -1.5920  3.1987 -1.8173
 5779TIP3   OH217342   3.213   4.402   1.323  0.4037 -0.1112 -0.4524
 5779TIP3    H117343   3.259   4.429   1.244 -0.8731  0.3485 -1.0672
 5779TIP3    H217344   3.252   4.317   1.346  2.7805  1.0379  0.1116
 5780TIP3   OH217345   3.335   3.474   1.209  0.3429  0.1658  0.4945
 5780TIP3    H117346   3.300   3.386   1.192  2.1053 -0.3458 -0.8115
 5780TIP3    H217347   3.308   3.526   1.134  0.4218  0.3705  0.6072
 5781TIP3   OH217348   5.053   0.414   2.764  0.6957 -0.1176  0.6518
 5781TIP3    H117349   5.057   0.419   2.668  1.0490 -1.5510  0.5774
 5781TIP3    H217350   5.062   0.505   2.792 -2.7553  0.8225 -0.7439
 5782TIP3   OH217351   0.580   3.637   2.604  0.0493  0.0976  1.0079
 5782TIP3    H117352   0.541   3.566   2.552  0.7931 -0.1599  0.7990
 5782TIP3    H217353   0.579   3.713   2.545 -3.8339  1.2753  2.2468
 5783TIP3   OH217354   2.547   0.949   3.815  0.1511  0.0319  0.0852
 5783TIP3    H117355   2.551   1.030   3.867 -0.0258 -0.1899  0.4483
 5783TIP3    H217356   2.530   0.978   3.726  0.9730  0.4559  0.0586
 5784TIP3   OH217357   5.451   0.448   0.083 -0.0576 -0.2229 -0.5115
 5784TIP3    H117358   5.432   0.354   0.082 -0.9767 -0.0684 -2.6435
 5784TIP3    H217359   5.545   0.454   0.067  0.6453 -0.7922  2.7104
 5785TIP3   OH217360   2.894   5.027   0.274 -0.0347  0.4224 -0.3288
 5785TIP3    H117361   2.826   5.093   0.288  0.4844  0.7437  0.7885
 5785TIP3    H217362   2.869   4.984   0.192 -2.1441 -0.1575  0.5478
 5786TIP3   OH217363   2.909   4.230   3.239 -0.0428  0.7272 -1.0102
 5786TIP3    H117364   2.847   4.187   3.179 -0.1712 -1.8491  0.7690
 5786TIP3    H217365   2.865   4.311   3.264 -1.9018 -0.1352 -1.2357
 5787TIP3   OH217366   4.220   2.026   1.225  0.0509  0.5735 -0.9375
 5787TIP3    H117367   4.248   1.978   1.304  0.1294  1.6678 -0.2868
 5787TIP3    H217368   4.145   1.976   1.193  0.9366 -0.7472 -1.0429
 5788TIP3   OH217369   0.156   3.156   2.160  0.0259  0.4595 -0.1068
 5788TIP3    H117370   0.092   3.139   2.090  0.9393  0.1043 -0.8773
 5788TIP3    H217371   0.206   3.231   2.128  0.8354 -0.0742 -0.1169
 5789TIP3   OH217372   2.286   4.676   2.893 -0.0375 -0.2453  0.2255
 5789TIP3    H117373   2.377   4.706   2.890 -0.1496  0.3629  1.7939
 5789TIP3    H217374   2.286   4.609   2.962 -0.3462 -1.9317 -1.3541
 5790TIP3   OH217375   3.827   1.094   1.968 -0.1128  0.2205 -0.3323
 5790TIP3    H117376   3.795   1.036   1.899 -1.1606  0.9715 -0.4944
 5790TIP3    H217377   3.882   1.158   1.922 -0.2520  0.3100 -0.3738
 5791TIP3   OH217378   3.828   1.269   3.932  0.1311  0.3384  0.4414
 5791TIP3    H117379   3.855   1.180   3.913  0.5649 -0.3164  3.6101
 5791TIP3    H217380   3.910   1.315   3.954 -0.2163  1.2421 -0.0776
 5792TIP3   OH217381   4.693   3.499   4.512 -0.0384 -0.0897 -0.1361
 5792TIP3    H117382   4.655   3.479   4.598  1.0283 -0.9801  0.1509
 5792TIP3    H217383   4.620   3.487   4.450 -0.4598 -0.8642  0.4910
 5793TIP3   OH217384   3.755   3.907   2.948  0.3849 -0.1307 -0.1664
 5793TIP3    H117385   3.742   4.000   2.928  0.0670  0.0454  0.7848
 5793TIP3    H217386   3.835   3.883   2.903 -0.0373  0.3554 -1.2063
 5794TIP3   OH217387   4.124   2.819   1.880 -0.1239  0.2738  0.0239
 5794TIP3    H117388   4.095   2.863   1.960 -0.2065  1.2520 -0.5352
 5794TIP3    H217389   4.203   2.772   1.906 -0.7930 -0.3680  0.9559
 5795TIP3   OH217390   2.884   3.432   0.665  0.4436  0.2904  0.0816
 5795TIP3    H117391   2.798   3.416   0.626  0.7407 -1.2098 -0.0213
 5795TIP3    H217392   2.906   3.349   0.708  2.7209 -0.0557 -1.5995
 5796TIP3   OH217393   0.287   2.667   4.040 -0.1979 -0.1002  0.2413
 5796TIP3    H117394   0.344   2.687   3.966 -1.1450 -0.8873 -0.7354
 5796TIP3    H217395   0.200   2.694   4.011 -0.7305 -1.2303  0.7134
 5797TIP3   OH217396   0.733   1.355   1.126  0.0264 -0.0032 -0.8225
 5797TIP3    H117397   0.664   1.322   1.182  0.4876 -0.1177 -0.3112
 5797TIP3    H217398   0.762   1.436   1.168 -0.2797  0.4272 -1.4190
 5798TIP3   OH217399   5.085   1.506   0.058  0.2450 -0.3051 -0.1043
 5798TIP3    H117400   5.148   1.498   0.130  0.4408 -1.0011 -0.3530
 5798TIP3    H217401   5.030   1.581   0.084 -1.1214 -1.8727  1.9090
 5799TIP3   OH217402   3.274   2.706   4.999  0.2421 -0.0050 -0.5245
 5799TIP3    H117403   3.296   2.678   5.088 -1.1702  1.0857  0.2176
 5799TIP3    H217404   3.358   2.710   4.953  1.1187  0.3266  1.0491
 5800TIP3   OH217405   4.775   1.546   2.847 -0.5278 -0.4419 -0.4769
 5800TIP3    H117406   4.866   1.518   2.835  0.0431  1.5904 -1.1827
 5800TIP3    H217407   4.745   1.496   2.923  1.5345 -0.2977  0.4998
 5801TIP3   OH217408   1.536   0.533   0.245 -0.3078  1.0343 -0.0423
 5801TIP3    H117409   1.552   0.510   0.336  0.2747  0.6504 -0.2361
 5801TIP3    H217410   1.448   0.571   0.245 -1.1145 -0.7356  0.3745
 5802TIP3   OH217411   3.277   5.687   3.211 -0.7887 -0.1198  0.3895
 5802TIP3    H117412   3.324   5.616   3.255  0.0280  0.1916  0.0289
 5802TIP3    H217413   3.235   5.735   3.283 -0.8729 -0.6261  0.6827
 5803TIP3   OH217414   1.136   3.417   3.297 -0.2595 -0.6016  0.0508
 5803TIP3    H117415   1.168   3.331   3.270  0.7105 -0.5427  0.9620
 5803TIP3    H217416   1.163   3.476   3.227  0.5628 -0.7640  0.2209
 5804TIP3   OH217417   2.492   4.399   4.384  0.3871  0.1946 -0.4508
 5804TIP3    H117418   2.581   4.432   4.371  0.3048  0.7364  0.2677
 5804TIP3    H217419   2.461   4.376   4.296  1.0629  0.4619 -0.7600
 5805TIP3   OH217420   0.584   3.627   1.223  0.4405 -0.0991  0.0224
 5805TIP3    H117421   0.647   3.559   1.246 -0.0227 -0.4837  0.1998
 5805TIP3    H217422   0.503   3.598   1.265  0.0509  0.1748 -0.5247
 5806TIP3   OH217423   1.634   3.891   0.521  0.1718 -0.0619  0.2989
 5806TIP3    H117424   1.555   3.846   0.491 -0.2352  0.1510  1.0438
 5806TIP3    H217425   1.674   3.831   0.584  1.5882 -0.9725 -1.3846
 5807TIP3   OH217426   3.769   0.600   4.939  0.5143 -0.1061  0.3093
 5807TIP3    H117427   3.837   0.570   4.879  1.1749  1.1029  0.4170
 5807TIP3    H217428   3.694   0.543   4.921  1.6202 -1.6127  0.3618
 5808TIP3   OH217429   3.838   4.416   2.224 -0.5738 -0.1356 -0.1896
 5808TIP3    H117430   3.764   4.409   2.284 -0.1843  0.6860  0.4016
 5808TIP3    H217431   3.882   4.331   2.230 -1.4415 -0.6233 -0.5313
 5809TIP3   OH217432   5.663   1.585   4.483  0.3022 -0.5801 -0.5571
 5809TIP3    H117433   5.649   1.636   4.563  2.5489  0.3345 -0.6759
 5809TIP3    H217434   5.653   1.649   4.412  0.3765 -0.9212 -0.8797
 5810TIP3   OH217435   4.716   4.196   0.317  0.8126  0.2730 -0.0954
 5810TIP3    H117436   4.659   4.200   0.394 -0.3127  1.0214 -0.9290
 5810TIP3    H217437   4.721   4.103   0.295 -0.0543  0.1906  0.0269
 5811TIP3   OH217438   2.518   1.111   2.564  0.4426  0.1236 -0.3619
 5811TIP3    H117439   2.548   1.020   2.571  1.4862  0.5430  1.0541
 5811TIP3    H217440   2.430   1.104   2.527  0.0430 -1.5424  0.7713
 5812TIP3   OH217441   1.113   0.767   4.390 -0.4316 -0.4040 -0.2129
 5812TIP3    H117442   1.131   0.794   4.480  0.0380 -0.6231 -0.2374
 5812TIP3    H217443   1.197   0.736   4.357 -0.4955  0.1226 -0.8899
 5813TIP3   OH217444   5.751   1.865   1.343  0.0944  0.4575 -0.0776
 5813TIP3    H117445   5.737   1.929   1.412  1.5365  0.6626  0.0469
 5813TIP3    H217446   5.663   1.836   1.319 -0.5773  2.2292  0.0913
 5814TIP3   OH217447   5.910   3.390   4.468 -0.6719 -0.3327 -0.1103
 5814TIP3    H117448   5.951   3.334   4.402  0.1154  1.5659 -1.3289
 5814TIP3    H217449   5.979   3.453   4.492 -1.8034  0.7104  0.4932
 5815TIP3   OH217450   1.216   4.188   2.031  0.4077 -0.1610 -0.3561
 5815TIP3    H117451   1.264   4.114   1.995  0.7818 -0.3391  0.5040
 5815TIP3    H217452   1.249   4.198   2.120 -0.4365  0.3403 -0.0872
 5816TIP3   OH217453   1.560   2.545   3.777 -0.5506  0.3661  0.3208
 5816TIP3    H117454   1.484   2.487   3.777  0.4407 -1.0006 -0.8552
 5816TIP3    H217455   1.583   2.555   3.869 -0.4078 -1.6050  0.5288
 5817TIP3   OH217456   2.856   4.831   3.284 -0.6343  0.1470  0.1530
 5817TIP3    H117457   2.866   4.891   3.211 -0.4382  0.4906  0.4586
 5817TIP3    H217458   2.877   4.745   3.247 -0.0405  0.3842 -0.0783
 5818TIP3   OH217459   0.919   2.993   3.542 -0.6334  0.1148 -0.2481
 5818TIP3    H117460   0.865   3.000   3.462 -1.1391 -0.4083  0.0388
 5818TIP3    H217461   1.008   3.010   3.512 -0.7679 -0.4182 -1.0044
 5819TIP3   OH217462   6.153   4.186   2.194  0.2427 -0.4324 -0.5236
 5819TIP3    H117463   6.116   4.153   2.112 -0.4629 -1.2196  0.0997
 5819TIP3    H217464   6.110   4.270   2.207 -0.6361 -0.9062 -0.2963
 5820TIP3   OH217465   4.545   0.113   3.667 -0.0692  0.2038 -0.1629
 5820TIP3    H117466   4.456   0.079   3.667  0.1894 -0.4946 -0.4527
 5820TIP3    H217467   4.583   0.081   3.585  0.3766  0.6985 -0.1604
 5821TIP3   OH217468   3.944   3.396   3.405 -0.6041  0.4248 -0.3872
 5821TIP3    H117469   4.020   3.337   3.401 -1.2460 -0.3746 -0.9396
 5821TIP3    H217470   3.970   3.471   3.351 -0.2479  0.0968 -0.6819
 5822TIP3   OH217471   0.924   0.141   0.495  0.2506 -0.1135 -0.5216
 5822TIP3    H117472   0.884   0.069   0.543  1.6388 -0.5357  0.0430
 5822TIP3    H217473   1.008   0.106   0.464  0.4339  0.9003 -1.2306
 5823TIP3   OH217474   4.498   0.821   1.118 -0.7170  0.5694 -0.2127
 5823TIP3    H117475   4.488   0.743   1.172  2.5202  0.9689  1.2372
 5823TIP3    H217476   4.512   0.788   1.030  1.7398 -0.6856  0.5536
 5824TIP3   OH217477   4.191   1.896   4.286  0.0828  0.5843  0.4913
 5824TIP3    H117478   4.230   1.817   4.323 -3.0181 -2.1295 -1.5324
 5824TIP3    H217479   4.103   1.900   4.325 -0.3142  2.2628 -0.4771
 5825TIP3   OH217480   1.621   5.250   0.259  0.0070  0.3470 -0.2991
 5825TIP3    H117481   1.570   5.316   0.212  0.5793  1.5714  0.7502
 5825TIP3    H217482   1.557   5.182   0.282 -0.7835  1.0002 -0.5258
 5826TIP3   OH217483   4.803   4.779   5.074 -0.6924 -0.5563  0.3700
 5826TIP3    H117484   4.740   4.834   5.028  1.9965  2.1153 -0.4231
 5826TIP3    H217485   4.863   4.749   5.006  0.1280 -1.2969  1.3885
 5827TIP3   OH217486   0.287   1.435   0.268  0.4008  0.2430 -0.1145
 5827TIP3    H117487   0.211   1.409   0.215  0.0731  1.4088 -0.2308
 5827TIP3    H217488   0.266   1.403   0.356  0.0038  0.1128 -0.2519
 5828TIP3   OH217489   2.528   2.359   3.734 -0.9644  0.0417  0.3256
 5828TIP3    H117490   2.515   2.356   3.639 -0.1570 -0.6256  0.2253
 5828TIP3    H217491   2.440   2.351   3.770 -1.1190 -1.7735 -0.3527
 5829TIP3   OH217492   1.392   4.961   0.904  0.0778 -0.2251  0.5446
 5829TIP3    H117493   1.396   4.960   0.808 -1.2442 -0.7877  0.4752
 5829TIP3    H217494   1.430   5.045   0.929 -1.8857  1.0969 -0.6310
 5830TIP3   OH217495   2.449   3.067   3.722  0.6432  0.3941  0.1432
 5830TIP3    H117496   2.357   3.091   3.734  0.1479 -0.9074 -0.8667
 5830TIP3    H217497   2.495   3.151   3.711 -0.8360  0.9825 -2.1350
 5831TIP3   OH217498   6.110   2.006   0.652 -0.1410  0.6487  0.1785
 5831TIP3    H117499   6.067   1.990   0.568  1.6201  1.6065 -0.9607
 5831TIP3    H217500   6.204   2.002   0.632  0.3200  1.1196  2.0611
 5832TIP3   OH217501   0.184   2.160   1.491  0.5479 -0.2351 -0.0406
 5832TIP3    H117502   0.261   2.130   1.540 -0.4933 -0.9695  1.2201
 5832TIP3    H217503   0.121   2.089   1.500 -0.0982  0.1000 -1.5480
 5833TIP3   OH217504   1.550   5.350   2.806  0.5922 -0.1101  0.5229
 5833TIP3    H117505   1.571   5.349   2.712  1.1646  1.9257  0.5678
 5833TIP3    H217506   1.626   5.390   2.847 -0.6861  1.4580  1.5113
 5834TIP3   OH217507   4.418   5.517   3.968  0.2113  0.0954  0.3827
 5834TIP3    H117508   4.440   5.605   3.996 -1.4147  0.4397  0.6807
 5834TIP3    H217509   4.475   5.500   3.893  1.0943  1.0726  0.8108
 5835TIP3   OH217510   1.729   3.477   2.617  0.5488  0.0757 -0.4325
 5835TIP3    H117511   1.680   3.551   2.582  0.3117 -0.0127 -0.2919
 5835TIP3    H217512   1.682   3.453   2.697  0.8379  0.0080 -0.2812
 5836TIP3   OH217513   4.647   2.294   4.532  0.4127 -0.3640  0.4370
 5836TIP3    H117514   4.722   2.270   4.477  1.4986  0.6422  1.4441
 5836TIP3    H217515   4.662   2.385   4.556 -0.7640 -0.3635  1.2713
 5837TIP3   OH217516   3.277   5.519   2.912  0.4011 -0.4713  0.7993
 5837TIP3    H117517   3.364   5.555   2.895 -0.5001  1.9604  0.8368
 5837TIP3    H217518   3.233   5.523   2.827  0.1000 -0.9823  0.9323
 5838TIP3   OH217519   5.932   5.693   2.234 -0.6024  0.4005 -0.1385
 5838TIP3    H117520   5.945   5.719   2.143  1.6824 -1.4930 -0.4637
 5838TIP3    H217521   5.951   5.771   2.285 -0.2072  1.0340 -1.2297
 5839TIP3   OH217522   2.920   4.408   4.571 -0.0558  0.0267  0.0983
 5839TIP3    H117523   2.965   4.345   4.628 -0.0175 -0.1802 -0.1594
 5839TIP3    H217524   2.987   4.438   4.510  0.0786  0.7861  0.6065
 5840TIP3   OH217525   1.526   1.984   2.231 -0.2483  0.4834  0.0825
 5840TIP3    H117526   1.616   1.954   2.242 -0.2632  0.0349 -0.9148
 5840TIP3    H217527   1.506   1.965   2.140 -1.3618  0.5827  0.3009
 5841TIP3   OH217528   2.727   3.381   1.805 -0.2173 -0.2114  0.5755
 5841TIP3    H117529   2.790   3.336   1.862  0.8555  1.3664  0.6980
 5841TIP3    H217530   2.643   3.372   1.850  0.1443 -1.1925  1.0948
 5842TIP3   OH217531   3.925   4.482   4.305 -0.2408 -0.6310 -0.2284
 5842TIP3    H117532   3.990   4.551   4.318 -2.6083  1.7674 -0.2584
 5842TIP3    H217533   3.940   4.421   4.377  0.5830  1.0687  1.1178
 5843TIP3   OH217534   1.906   5.389   0.294 -0.3891 -0.3618  0.0087
 5843TIP3    H117535   1.916   5.323   0.362  1.6687 -0.7781 -0.6034
 5843TIP3    H217536   1.832   5.358   0.242 -0.2617 -1.5236  0.4737
 5844TIP3   OH217537   5.509   5.195   3.949 -0.0350 -0.2096 -0.1571
 5844TIP3    H117538   5.444   5.251   3.993 -0.7846 -0.2395 -1.1977
 5844TIP3    H217539   5.515   5.230   3.861 -0.0272 -1.3616 -0.6284
 5845TIP3   OH217540   0.610   5.724   4.896 -0.2699 -0.1700 -0.2103
 5845TIP3    H117541   0.642   5.709   4.807 -0.1788 -0.3466 -0.1488
 5845TIP3    H217542   0.667   5.792   4.931  1.5487 -2.0628  0.6958
 5846TIP3   OH217543   2.866   3.548   0.319  0.0661  0.2442 -0.3523
 5846TIP3    H117544   2.829   3.461   0.305 -1.9921  0.6935  1.7905
 5846TIP3    H217545   2.951   3.532   0.359 -1.8556 -0.9596  3.7884
 5847TIP3   OH217546   4.591   1.020   3.890  0.5784  0.2350 -0.1013
 5847TIP3    H117547   4.661   1.018   3.825  0.2220 -0.7138 -0.4747
 5847TIP3    H217548   4.546   1.102   3.874  0.8292  0.2613 -0.7012
 5848TIP3   OH217549   3.133   1.304   0.471 -0.2622  0.0445  0.0277
 5848TIP3    H117550   3.188   1.227   0.478 -0.0646  0.0191 -1.4666
 5848TIP3    H217551   3.117   1.314   0.377 -1.6801  0.8373  0.3159
 5849TIP3   OH217552   2.200   3.372   1.210 -0.0989 -0.1890 -0.8426
 5849TIP3    H117553   2.244   3.378   1.295  0.7836  0.1288 -1.3060
 5849TIP3    H217554   2.111   3.402   1.227 -0.5701 -2.0880  0.4051
 5850TIP3   OH217555   5.298   3.689   4.987 -0.1118 -0.3793  0.5087
 5850TIP3    H117556   5.240   3.763   5.006  2.0006  1.2954  0.9037
 5850TIP3    H217557   5.341   3.714   4.905 -1.9393 -2.9266 -1.3620
 5851TIP3   OH217558   4.896   2.934   0.072 -0.1466 -0.1576  0.3166
 5851TIP3    H117559   4.886   2.976   0.158  0.7970 -0.7100  0.7073
 5851TIP3    H217560   4.985   2.899   0.073 -0.4809 -1.0566 -0.5017
 5852TIP3   OH217561   3.913   4.912   3.905 -0.1094 -0.1893 -0.3012
 5852TIP3    H117562   3.875   4.931   3.991  0.3631  0.0772 -0.1522
 5852TIP3    H217563   3.979   4.979   3.892  0.3575 -0.6861 -0.5350
 5853TIP3   OH217564   0.631   5.422   0.837 -0.1584 -0.0356  0.5525
 5853TIP3    H117565   0.721   5.391   0.838 -0.2270 -0.2354  0.6718
 5853TIP3    H217566   0.582   5.351   0.795 -0.1261  0.4493 -0.3069
 5854TIP3   OH217567   5.629   5.220   1.414  0.5743 -0.0155 -0.3482
 5854TIP3    H117568   5.656   5.312   1.414  0.3575  0.0747  1.3395
 5854TIP3    H217569   5.699   5.175   1.366  0.1948  1.1300 -2.0699
 5855TIP3   OH217570   4.757   1.730   3.776 -0.5524  0.1582 -1.0357
 5855TIP3    H117571   4.706   1.810   3.785  0.3484  0.5136  2.2810
 5855TIP3    H217572   4.836   1.757   3.730  0.3194  1.5688  1.1369
 5856TIP3   OH217573   5.864   4.834   4.238 -0.4396  0.6014 -0.0058
 5856TIP3    H117574   5.851   4.928   4.254  2.6447  1.0522  0.3736
 5856TIP3    H217575   5.872   4.826   4.143  1.0654  1.0323  0.0686
 5857TIP3   OH217576   5.817   3.072   2.781 -0.1542 -0.4858  0.8350
 5857TIP3    H117577   5.774   2.992   2.751  0.0373  0.0922 -1.0557
 5857TIP3    H217578   5.782   3.141   2.725  3.3388 -0.0074 -1.0004
 5858TIP3   OH217579   4.830   3.803   4.042  0.3616  0.3947  0.3536
 5858TIP3    H117580   4.783   3.831   3.964  2.2990  0.3069 -0.8987
 5858TIP3    H217581   4.920   3.789   4.013  1.0718  0.0121  2.5297
 5859TIP3   OH217582   3.507   0.366   4.272 -0.0838  0.2630 -0.1922
 5859TIP3    H117583   3.428   0.377   4.326 -0.1597 -1.1101  0.0099
 5859TIP3    H217584   3.476   0.318   4.195  0.8152 -1.7445  0.6428
 5860TIP3   OH217585   5.136   4.673   3.824  0.7053 -0.0041 -0.1828
 5860TIP3    H117586   5.087   4.590   3.829 -0.2605  0.5864  0.5671
 5860TIP3    H217587   5.106   4.722   3.900  1.9091  0.7056 -0.1444
 5861TIP3   OH217588   0.691   4.672   4.959 -0.1215 -0.0482  0.2629
 5861TIP3    H117589   0.696   4.630   5.045 -0.2767 -2.3145 -0.7864
 5861TIP3    H217590   0.742   4.615   4.902 -1.5001  0.4525 -1.5225
 5862TIP3   OH217591   1.284   1.602   4.204  0.2830 -0.1054 -0.2518
 5862TIP3    H117592   1.329   1.658   4.142 -0.3855 -0.7327 -1.3398
 5862TIP3    H217593   1.223   1.660   4.249 -0.6996 -0.0042 -1.6572
 5863TIP3   OH217594   1.988   3.156   0.875 -0.4784  0.0101  0.6019
 5863TIP3    H117595   1.925   3.154   0.947 -0.7834 -1.6506  0.3176
 5863TIP3    H217596   2.002   3.065   0.853 -0.6823  0.4988 -1.7280
 5864TIP3   OH217597   1.975   5.848   4.615 -0.2672  0.0246 -0.3189
 5864TIP3    H117598   1.891   5.890   4.595  0.2319  1.2615  0.1405
 5864TIP3    H217599   1.966   5.818   4.705 -0.3271 -0.1354 -0.3774
 5865TIP3   OH217600   5.895   0.683   3.882 -0.3596  0.3178  0.4416
 5865TIP3    H117601   5.891   0.703   3.976  1.4698 -1.3607  0.9447
 5865TIP3    H217602   5.811   0.642   3.863 -0.5739  0.2320  1.4950
 5866TIP3   OH217603   4.474   0.838   2.488  0.5075  0.0635 -0.3296
 5866TIP3    H117604   4.385   0.805   2.503 -0.1854  1.6896 -0.6218
 5866TIP3    H217605   4.471   0.871   2.399  1.4343  0.0927 -0.3495
 5867TIP3   OH217606   2.000   1.684   0.956  0.8959  0.4880 -0.1605
 5867TIP3    H117607   2.044   1.700   0.873 -0.4619 -1.4381 -1.3411
 5867TIP3    H217608   1.969   1.770   0.984  1.3013  1.1613 -1.7015
 5868TIP3   OH217609   5.775   4.143   3.866  0.6575 -0.0061 -0.4551
 5868TIP3    H117610   5.828   4.100   3.799  2.3574  0.8212  0.2861
 5868TIP3    H217611   5.691   4.159   3.824  0.5743 -2.3277 -1.3510
 5869TIP3   OH217612   1.280   4.192   2.938 -0.1108 -0.5249  0.3889
 5869TIP3    H117613   1.370   4.162   2.952 -0.1158 -2.2440 -2.5932
 5869TIP3    H217614   1.281   4.234   2.852 -1.9140  0.6855  0.8911
 5870TIP3   OH217615   1.527   2.739   3.152 -0.4585  0.1018 -0.2594
 5870TIP3    H117616   1.507   2.755   3.060  1.8643 -0.2940 -0.8887
 5870TIP3    H217617   1.444   2.710   3.189 -1.4615  0.2953 -2.2070
 5871TIP3   OH217618   6.121   3.733   1.994 -0.0451 -0.3011 -0.4596
 5871TIP3    H117619   6.055   3.801   2.005  0.4212  0.1590 -0.4540
 5871TIP3    H217620   6.084   3.656   2.037  0.0828  0.3797  0.9217
 5872TIP3   OH217621   2.179   3.394   0.745 -1.0612  0.2227  0.0945
 5872TIP3    H117622   2.129   3.335   0.801 -0.2026  0.1821  0.8403
 5872TIP3    H217623   2.208   3.340   0.672  0.9770 -0.6918  1.5151
 5873TIP3   OH217624   3.051   5.067   4.072 -0.1670  1.0569 -0.2355
 5873TIP3    H117625   2.980   5.035   4.127  1.1810  1.5956  1.9735
 5873TIP3    H217626   3.009   5.125   4.009 -1.7875  0.5705  0.3612
 5874TIP3   OH217627   2.142   3.892   2.748 -0.0943  0.0223 -0.5660
 5874TIP3    H117628   2.079   3.936   2.690 -1.9482 -1.0404  0.5222
 5874TIP3    H217629   2.204   3.850   2.689 -0.5787  0.8661 -1.7058
 5875TIP3   OH217630   1.771   0.489   0.883  0.4468  0.2862 -0.0903
 5875TIP3    H117631   1.782   0.584   0.877 -1.1022  0.3958 -2.1777
 5875TIP3    H217632   1.677   0.475   0.871  0.5441 -1.5026  0.8958
 5876TIP3   OH217633   1.964   1.202   1.677  0.1507  0.3360 -0.3379
 5876TIP3    H117634   1.956   1.117   1.720 -0.6063  1.0077  0.9153
 5876TIP3    H217635   2.050   1.199   1.635  1.0562 -0.2861  1.4526
 5877TIP3   OH217636   4.822   2.580   2.267  0.1218 -0.4459 -0.4652
 5877TIP3    H117637   4.861   2.492   2.263  0.6729 -0.1900 -0.7536
 5877TIP3    H217638   4.728   2.563   2.282  0.2347 -1.0800 -0.4214
 5878TIP3   OH217639   4.496   4.653   4.884 -0.1621 -0.6338 -0.1785
 5878TIP3    H117640   4.508   4.652   4.979 -0.3474 -0.8907 -0.1558
 5878TIP3    H217641   4.411   4.611   4.870 -0.6258  0.3477 -0.3952
 5879TIP3   OH217642   1.047   3.630   4.331  0.1938  0.4627 -0.0718
 5879TIP3    H117643   1.013   3.665   4.249 -0.3097 -1.1788 -0.5993
 5879TIP3    H217644   0.972   3.631   4.391  0.3126  0.7552  0.0745
 5880TIP3   OH217645   3.040   0.793   1.187  0.5542 -0.4807  0.0151
 5880TIP3    H117646   2.962   0.768   1.236  0.0337  0.9421 -0.0431
 5880TIP3    H217647   3.110   0.797   1.253  0.2856 -0.4443  0.3000
 5881TIP3   OH217648   6.221   1.840   2.105 -0.5682 -0.4284  0.7746
 5881TIP3    H117649   6.147   1.826   2.047  0.4125 -1.5028 -0.2850
 5881TIP3    H217650   6.218   1.933   2.127 -3.2881 -0.7633  2.3072
 5882TIP3   OH217651   5.396   0.555   3.564  0.3375 -0.1111 -0.1346
 5882TIP3    H117652   5.405   0.587   3.654 -0.9471 -0.9670  0.3322
 5882TIP3    H217653   5.383   0.633   3.511  1.1471  0.4054  0.4140
 5883TIP3   OH217654   2.435   0.240   5.099  0.0185 -0.6338  0.0049
 5883TIP3    H117655   2.438   0.326   5.141  0.0659 -0.3956 -0.4750
 5883TIP3    H217656   2.355   0.243   5.046  0.7080 -0.3889 -1.0467
 5884TIP3   OH217657   4.616   0.545   4.667 -0.7661  0.2755  0.1187
 5884TIP3    H117658   4.614   0.520   4.759  0.0112  2.1111  0.6798
 5884TIP3    H217659   4.531   0.587   4.652 -0.2376  1.5190  0.4969
 5885TIP3   OH217660   6.145   2.081   4.177 -0.2641  0.2531  0.3548
 5885TIP3    H117661   6.117   2.032   4.254 -2.2159 -0.6267 -0.8292
 5885TIP3    H217662   6.176   2.014   4.116 -0.0343  0.7914 -0.1314
 5886TIP3   OH217663   3.956   0.055   4.828 -0.0275 -0.6453 -0.2181
 5886TIP3    H117664   3.910  -0.015   4.875 -0.2906  0.0979  0.6802
 5886TIP3    H217665   4.028   0.079   4.886 -0.0943 -0.0066 -0.3901
 5887TIP3   OH217666   2.831   0.351   2.994  0.4288  0.8706 -0.6106
 5887TIP3    H117667   2.818   0.359   2.900 -0.7836 -1.2599 -0.6844
 5887TIP3    H217668   2.910   0.297   3.003  1.1541  1.9426 -0.3632
 5888TIP3   OH217669   0.339   4.048   2.569  0.2206 -0.6210  0.7965
 5888TIP3    H117670   0.364   4.129   2.615 -1.3779 -0.7906  2.0517
 5888TIP3    H217671   0.267   4.074   2.512  1.3229 -0.6936 -0.6802
 5889TIP3   OH217672   5.438   1.418   0.900  0.1810 -0.1089  0.0356
 5889TIP3    H117673   5.474   1.428   0.988  0.0127 -0.0689  0.0984
 5889TIP3    H217674   5.502   1.362   0.855  0.8211  0.7414 -0.1452
 5890TIP3   OH217675   5.118   4.480   0.460  0.7221  0.0301  0.5433
 5890TIP3    H117676   5.045   4.419   0.470  0.1577  0.5191 -0.4417
 5890TIP3    H217677   5.118   4.530   0.542 -0.9947  1.0007  0.0067
 5891TIP3   OH217678   3.670   4.234   4.408  0.0214 -0.8215  0.2891
 5891TIP3    H117679   3.750   4.212   4.456 -0.4360 -1.0185  0.9816
 5891TIP3    H217680   3.698   4.242   4.317  0.6421 -1.9391  0.3616
 5892TIP3   OH217681   5.714   5.790   3.137 -0.0526  0.1207 -0.1811
 5892TIP3    H117682   5.633   5.809   3.089 -1.0122 -0.4835  1.1209
 5892TIP3    H217683   5.777   5.767   3.070 -2.0262 -3.2585 -1.1280
 5893TIP3   OH217684   1.268   0.432   2.265  0.1671 -0.5979  0.2475
 5893TIP3    H117685   1.333   0.489   2.306 -0.3007 -0.1224  0.3350
 5893TIP3    H217686   1.218   0.396   2.338 -0.6891  0.2753  0.1027
 5894TIP3   OH217687   5.532   3.348   4.244  0.2704 -0.1768  0.2854
 5894TIP3    H117688   5.601   3.329   4.308  0.2328  0.0551  0.3959
 5894TIP3    H217689   5.579   3.364   4.162  0.4021  0.6805  0.5173
 5895TIP3   OH217690   2.848   2.463   2.777 -0.0344 -0.1270 -0.7984
 5895TIP3    H117691   2.863   2.485   2.685 -0.1941  1.3838 -0.4878
 5895TIP3    H217692   2.869   2.543   2.825 -0.1178 -0.8394  0.4747
 5896TIP3   OH217693   2.541   2.231   0.239  0.0565  0.2766 -0.1418
 5896TIP3    H117694   2.582   2.192   0.161 -1.4627  0.9612 -1.3246
 5896TIP3    H217695   2.481   2.163   0.270 -1.2365  0.9341 -1.1216
 5897TIP3   OH217696   0.893   0.903   4.089  0.0482  0.2432  0.1843
 5897TIP3    H117697   0.863   0.993   4.080  0.5370  0.7742  2.9054
 5897TIP3    H217698   0.940   0.885   4.008 -1.5251  1.8102 -1.1448
 5898TIP3   OH217699   5.421   3.281   2.386  0.2404 -0.1772 -0.0332
 5898TIP3    H117700   5.416   3.190   2.355 -3.2190  0.2005 -0.9991
 5898TIP3    H217701   5.442   3.332   2.308 -0.1144  0.0389  0.0108
 5899TIP3   OH217702   0.088   5.708   0.481  0.5740  0.3480  0.4599
 5899TIP3    H117703   0.086   5.682   0.573  1.8039  0.0799  0.4229
 5899TIP3    H217704   0.137   5.639   0.437 -0.6112  0.1145 -0.5316
 5900TIP3   OH217705   4.652   1.044   2.521 -0.2778 -0.5756 -0.1954
 5900TIP3    H117706   4.577   0.985   2.525 -1.7455  1.2384  0.9908
 5900TIP3    H217707   4.682   1.050   2.612 -0.1336  0.4507 -0.3000
 5901TIP3   OH217708   1.384   2.511   2.322 -0.2360 -0.2667 -0.1699
 5901TIP3    H117709   1.310   2.488   2.379 -0.1921  2.2248  1.0598
 5901TIP3    H217710   1.353   2.588   2.273  1.4780  0.7886  0.3220
 5902TIP3   OH217711   3.519   1.677   1.068  0.2719 -0.1738  0.1368
 5902TIP3    H117712   3.492   1.592   1.102  0.1553 -0.3503 -0.3938
 5902TIP3    H217713   3.552   1.724   1.145 -2.0113  0.2446  0.9700
 5903TIP3   OH217714   1.386   2.079   2.489 -0.4693 -0.2551  0.3489
 5903TIP3    H117715   1.394   2.018   2.416  0.0251 -0.2701  0.4168
 5903TIP3    H217716   1.462   2.062   2.544  0.5933  1.5590 -0.4630
 5904TIP3   OH217717   5.581   1.813   2.340  0.7421 -0.1152  0.8226
 5904TIP3    H117718   5.638   1.740   2.315  0.0728 -0.3205 -0.1857
 5904TIP3    H217719   5.636   1.891   2.332  0.3885 -0.0596 -2.2191
 5905TIP3   OH217720   1.390   0.126   4.487  0.0090  0.1110 -0.0377
 5905TIP3    H117721   1.311   0.098   4.533 -0.4092 -0.4528 -1.0549
 5905TIP3    H217722   1.421   0.047   4.442  1.1347  0.3377  0.3204
 5906TIP3   OH217723   4.001   1.505   5.177 -0.1867  0.1070 -0.3618
 5906TIP3    H117724   4.002   1.409   5.181 -1.7609  0.0927  0.9021
 5906TIP3    H217725   4.035   1.526   5.090 -1.6707 -1.6774 -1.4404
 5907TIP3   OH217726   5.762   5.309   3.390 -0.0274 -0.1250 -0.2601
 5907TIP3    H117727   5.797   5.355   3.467  1.7578 -0.9369 -0.5291
 5907TIP3    H217728   5.779   5.369   3.317  0.5438 -0.3816 -0.3449
 5908TIP3   OH217729   2.491   3.867   1.989 -0.5767  0.4980  0.1149
 5908TIP3    H117730   2.552   3.940   1.998  0.2447 -0.3014  1.3862
 5908TIP3    H217731   2.441   3.887   1.910  0.6184  1.6973 -0.3787
 5909TIP3   OH217732   4.532   4.224   0.505 -0.1448  0.3523 -0.1800
 5909TIP3    H117733   4.491   4.141   0.530  0.1337  0.1277 -0.4641
 5909TIP3    H217734   4.459   4.286   0.500 -0.6445 -0.3365 -1.9677
 5910TIP3   OH217735   4.614   5.421   3.802 -0.3074 -0.8716  0.0797
 5910TIP3    H117736   4.693   5.420   3.857  0.2131  0.5511 -0.5964
 5910TIP3    H217737   4.602   5.329   3.777  0.7335 -1.2170  0.7565
 5911TIP3   OH217738   5.794   3.407   2.293 -0.1718  0.2770 -0.0513
 5911TIP3    H117739   5.716   3.456   2.320 -0.2659  1.6011 -2.4166
 5911TIP3    H217740   5.762   3.347   2.226  0.4721 -0.8797  0.6589
 5912TIP3   OH217741   0.283   2.665   3.255 -0.2701 -0.1422  0.1471
 5912TIP3    H117742   0.304   2.674   3.348  0.4520 -1.1475  0.0978
 5912TIP3    H217743   0.323   2.582   3.230  1.2049  0.9990 -1.5307
 5913TIP3   OH217744   0.413   3.300  -0.013 -0.3839  0.3600  0.8575
 5913TIP3    H117745   0.427   3.259   0.072  2.0630  1.0627  0.8592
 5913TIP3    H217746   0.454   3.386  -0.006 -0.5666  0.6375 -0.8881
 5914TIP3   OH217747   5.213   1.551   3.867 -0.2823  0.2027  0.0548
 5914TIP3    H117748   5.120   1.539   3.888 -0.7812  0.1389 -1.9559
 5914TIP3    H217749   5.227   1.646   3.874 -0.6118  0.2608 -0.0754
 5915TIP3   OH217750   5.898   4.426   3.419  0.4647 -0.2931 -0.1944
 5915TIP3    H117751   5.917   4.513   3.454  1.1405 -1.4407  2.5739
 5915TIP3    H217752   5.944   4.423   3.335  2.5078  1.2005  0.7810
 5916TIP3   OH217753   3.540   1.541   2.480  0.1232  0.6202  0.4764
 5916TIP3    H117754   3.494   1.546   2.564  2.6981  1.3217  1.9664
 5916TIP3    H217755   3.528   1.628   2.441 -1.4772  0.1447 -0.1662
 5917TIP3   OH217756   3.046   3.455   2.378 -0.2805  0.1405 -0.0562
 5917TIP3    H117757   3.099   3.498   2.445 -1.6711  3.1984 -0.7317
 5917TIP3    H217758   3.107   3.437   2.307  0.3237  1.5120  0.0796
 5918TIP3   OH217759   5.489   2.594   2.304 -0.5611  0.0788 -0.2274
 5918TIP3    H117760   5.572   2.602   2.256  0.6497 -0.4637  1.6563
 5918TIP3    H217761   5.514   2.605   2.396 -2.4981 -0.7683  0.4438
 5919TIP3   OH217762   4.293   5.849   2.267  0.2390  0.2096 -0.5747
 5919TIP3    H117763   4.343   5.882   2.193 -1.4172  2.5323 -0.7692
 5919TIP3    H217764   4.220   5.801   2.227  0.3114 -0.0464 -0.4011
 5920TIP3   OH217765   1.877   5.531   3.789  0.4177 -0.0750 -0.5090
 5920TIP3    H117766   1.841   5.490   3.867  0.7534 -0.8727 -0.7652
 5920TIP3    H217767   1.806   5.529   3.725  0.8147 -1.3948 -0.9244
 5921TIP3   OH217768   1.967   2.063   3.746  0.1875 -0.1840 -0.3362
 5921TIP3    H117769   1.905   2.128   3.715  0.7707 -0.2858 -1.7716
 5921TIP3    H217770   2.050   2.085   3.703  1.0477 -0.3358  1.1641
 5922TIP3   OH217771   0.954   5.846   4.669 -0.6118  0.0258 -0.3790
 5922TIP3    H117772   0.951   5.753   4.646 -2.5677 -0.2133  0.6576
 5922TIP3    H217773   1.016   5.884   4.607  0.6279 -2.0492 -0.4791
 5923TIP3   OH217774   1.407   5.403   1.553 -0.2104  0.3884 -0.5117
 5923TIP3    H117775   1.491   5.428   1.593  0.8176 -1.7818 -1.1843
 5923TIP3    H217776   1.351   5.382   1.628 -0.0113  1.3761 -0.0689
 5924TIP3   OH217777   4.512   0.983   3.434  0.0179 -0.0852 -0.4613
 5924TIP3    H117778   4.447   1.051   3.415  0.5506 -0.3758 -4.0042
 5924TIP3    H217779   4.594   1.031   3.447 -0.1520  0.0574  0.1511
 5925TIP3   OH217780   4.110   4.069   2.122  0.0978  0.1383  0.3114
 5925TIP3    H117781   4.038   4.114   2.165 -0.2789 -1.2706  1.2240
 5925TIP3    H217782   4.077   4.049   2.034  0.6138  2.3967 -0.4555
 5926TIP3   OH217783   2.161   0.668   2.089  0.1847  0.1206  0.2079
 5926TIP3    H117784   2.234   0.625   2.044  1.9502  0.0118  2.8810
 5926TIP3    H217785   2.156   0.755   2.050  0.4571 -0.5244 -1.3229
 5927TIP3   OH217786   5.245   0.959   3.243 -0.0536  0.1716  0.2090
 5927TIP3    H117787   5.246   1.049   3.275 -2.2688  1.1426 -2.0542
 5927TIP3    H217788   5.323   0.952   3.187  0.1575  0.6752  0.4357
 5928TIP3   OH217789   1.237   3.299   4.985  0.1492 -0.3428 -0.2688
 5928TIP3    H117790   1.222   3.226   4.925 -1.9912  0.1922 -0.4801
 5928TIP3    H217791   1.149   3.323   5.016  0.8846  1.5205  0.5237
 5929TIP3   OH217792   4.052   5.822   1.709 -0.3071 -0.3818  0.2729
 5929TIP3    H117793   4.103   5.780   1.640  0.7151  0.3611  0.5344
 5929TIP3    H217794   4.080   5.779   1.789 -0.9856 -0.7799  0.2977
 5930TIP3   OH217795   5.559   2.771   0.210 -0.5480 -0.2374 -0.1313
 5930TIP3    H117796   5.576   2.780   0.116 -2.0577 -0.0367 -0.4156
 5930TIP3    H217797   5.472   2.808   0.221 -0.4379 -0.3900  1.3407
 5931TIP3   OH217798   4.891   4.105   5.135 -0.0725  0.4354  0.7045
 5931TIP3    H117799   4.986   4.108   5.124 -0.0402 -0.2981  0.7509
 5931TIP3    H217800   4.861   4.191   5.105  0.3863 -0.0939 -1.5114
 5932TIP3   OH217801   4.383   5.889   0.784  0.1066 -0.3666  0.0229
 5932TIP3    H117802   4.476   5.899   0.765  0.2360  0.4055  0.9870
 5932TIP3    H217803   4.339   5.921   0.705  0.6468  1.3867  0.3798
 5933TIP3   OH217804   0.368   0.313   0.746  0.1820 -0.0777 -0.2996
 5933TIP3    H117805   0.361   0.242   0.681  0.0364 -0.0507 -0.3147
 5933TIP3    H217806   0.384   0.268   0.829  2.3205 -0.0325 -0.6289
 5934TIP3   OH217807   4.376   4.408   0.234  0.6172 -0.1138  0.8481
 5934TIP3    H117808   4.386   4.346   0.162 -1.6555 -1.5603  1.6854
 5934TIP3    H217809   4.466   4.433   0.256  1.4069  0.5195 -2.5151
 5935TIP3   OH217810   0.226   3.593   0.637  0.5123 -0.1278  0.3000
 5935TIP3    H117811   0.134   3.609   0.656  0.2609  0.4286 -1.3123
 5935TIP3    H217812   0.230   3.500   0.613  0.3728 -0.1416  0.3321
 5936TIP3   OH217813   3.757   2.221   5.172 -0.2029  0.2890  0.2810
 5936TIP3    H117814   3.700   2.296   5.189 -0.7889 -0.4003  1.5083
 5936TIP3    H217815   3.700   2.158   5.128  0.1944  0.4259 -0.4319
 5937TIP3   OH217816   1.776   4.217   3.954  0.2932  0.2584  0.0073
 5937TIP3    H117817   1.752   4.130   3.986 -1.2398  1.4744  2.3567
 5937TIP3    H217818   1.739   4.221   3.866  0.9512 -1.6640 -0.4096
 5938TIP3   OH217819   4.164   3.240   2.058 -0.4274 -0.0750  0.1500
 5938TIP3    H117820   4.209   3.324   2.049 -0.5477 -0.0648 -0.3490
 5938TIP3    H217821   4.077   3.263   2.091 -0.1653 -0.0748  0.8598
 5939TIP3   OH217822   0.415   5.590   2.645 -0.0668  0.0606  0.0923
 5939TIP3    H117823   0.489   5.562   2.592 -0.2437  0.4638 -0.3653
 5939TIP3    H217824   0.455   5.626   2.724  0.2079 -0.0868  0.0244
 5940TIP3   OH217825   2.429   3.553   4.862  0.2798  0.0037 -0.1826
 5940TIP3    H117826   2.343   3.563   4.902  0.9102  0.7364  1.0532
 5940TIP3    H217827   2.443   3.458   4.858 -0.7253 -0.1395 -0.7766
 5941TIP3   OH217828   1.586   4.199   0.744  0.1238 -0.2817 -0.0687
 5941TIP3    H117829   1.576   4.218   0.837 -1.3400 -0.7503 -0.1156
 5941TIP3    H217830   1.610   4.106   0.741 -1.2108 -0.6306 -0.2096
 5942TIP3   OH217831   0.561   4.864   3.251  0.0308 -0.2882 -0.1483
 5942TIP3    H117832   0.513   4.904   3.323  1.3469  1.8932 -0.4047
 5942TIP3    H217833   0.652   4.861   3.282  0.3750 -0.6893 -1.1580
 5943TIP3   OH217834   4.561   2.524   2.280 -0.2511  0.0599 -0.0423
 5943TIP3    H117835   4.543   2.432   2.295 -2.2936 -0.0415 -2.6251
 5943TIP3    H217836   4.520   2.569   2.354 -2.8862 -0.8956 -0.8155
 5944TIP3   OH217837   0.991   3.562   1.388 -0.0006  0.2946 -0.3135
 5944TIP3    H117838   0.951   3.613   1.458  1.1795  0.4104  0.2964
 5944TIP3    H217839   1.069   3.523   1.428 -0.2993 -1.1264 -1.0611
 5945TIP3   OH217840   2.118   0.093   0.765  0.0043  0.1326  0.5482
 5945TIP3    H117841   2.072   0.177   0.768  0.3316  0.3137  0.5276
 5945TIP3    H217842   2.115   0.061   0.855  0.8780  0.7109  0.7885
 5946TIP3   OH217843   5.556   5.173   2.529  0.3104 -0.0679 -0.1739
 5946TIP3    H117844   5.495   5.223   2.475 -1.9792 -0.6508  1.6765
 5946TIP3    H217845   5.614   5.238   2.567 -1.7180  1.1178  1.0822
 5947TIP3   OH217846   5.899   5.603   3.382 -0.1071 -0.0724 -0.2499
 5947TIP3    H117847   5.953   5.648   3.317 -0.1592  1.6190  0.8126
 5947TIP3    H217848   5.937   5.628   3.466 -0.9667 -0.9679  0.4168
 5948TIP3   OH217849   3.395   5.115   2.949  0.5452 -0.8041  0.2720
 5948TIP3    H117850   3.456   5.181   2.918  0.7018 -0.9478  0.2754
 5948TIP3    H217851   3.424   5.095   3.038  0.1380 -0.4422  0.4889
 5949TIP3   OH217852   1.651   4.043   2.168  0.3448 -0.2527  0.0824
 5949TIP3    H117853   1.676   4.129   2.135  0.3054 -0.3363 -0.1639
 5949TIP3    H217854   1.648   3.987   2.090 -2.3543  0.1441 -0.1992
 5950TIP3   OH217855   5.313   3.428   2.606 -0.3285 -0.3682  0.4335
 5950TIP3    H117856   5.376   3.499   2.616  0.6863 -1.2845  0.8179
 5950TIP3    H217857   5.345   3.378   2.531 -1.1277 -0.3190  0.0546
 5951TIP3   OH217858   1.804   0.396   4.282 -0.1349  0.3240 -0.0997
 5951TIP3    H117859   1.843   0.347   4.209  0.3675  1.1294 -0.3818
 5951TIP3    H217860   1.718   0.422   4.251 -0.3761 -0.2957  0.0230
 5952TIP3   OH217861   2.866   2.246   4.584  0.1198 -0.0465 -0.2059
 5952TIP3    H117862   2.944   2.276   4.537 -0.6915 -1.0702 -2.2883
 5952TIP3    H217863   2.886   2.263   4.676  1.9740  1.5668 -0.8445
 5953TIP3   OH217864   4.065   1.392   4.259  0.1809 -0.2197 -0.1773
 5953TIP3    H117865   4.005   1.324   4.288  1.2225 -0.9845  0.2317
 5953TIP3    H217866   4.079   1.373   4.166 -0.7430  0.3801 -0.4464
 5954TIP3   OH217867   5.127   0.851   1.055 -0.0326 -0.3311  0.4640
 5954TIP3    H117868   5.123   0.782   0.989 -1.3367  0.4804 -0.3499
 5954TIP3    H217869   5.116   0.806   1.139  0.0854 -1.1944  0.0191
 5955TIP3   OH217870   5.399   1.105   2.555 -0.2001 -0.6599  0.0017
 5955TIP3    H117871   5.460   1.137   2.489 -1.8091 -0.3168 -1.3695
 5955TIP3    H217872   5.364   1.184   2.596 -1.0652 -0.7927 -0.4736
 5956TIP3   OH217873   4.702   3.932   0.169  0.0617 -0.1956  0.7714
 5956TIP3    H117874   4.696   3.941   0.074  1.1029  1.1379  0.8021
 5956TIP3    H217875   4.629   3.873   0.192 -1.7780  1.4229 -0.5713
 5957TIP3   OH217876   5.191   5.855   5.131  0.3385  0.3389 -0.3360
 5957TIP3    H117877   5.127   5.926   5.126  0.8607  0.7871 -0.7708
 5957TIP3    H217878   5.203   5.827   5.040 -1.0863 -1.4303 -0.0396
 5958TIP3   OH217879   0.434   4.687   2.618  0.3383  0.2929  0.2570
 5958TIP3    H117880   0.433   4.741   2.697  1.6037  0.1734  0.3668
 5958TIP3    H217881   0.493   4.615   2.639 -2.2218 -1.8923  0.5804
 5959TIP3   OH217882   3.621   5.941   1.121 -0.2131  0.5774  0.1022
 5959TIP3    H117883   3.607   5.866   1.178  2.7881  1.6798  2.5944
 5959TIP3    H217884   3.662   5.905   1.043 -0.6383 -0.5615  0.3900
 5960TIP3   OH217885   4.967   5.277   1.467  0.0167 -0.0402 -0.7039
 5960TIP3    H117886   4.947   5.368   1.492  0.7086  0.0924 -0.6183
 5960TIP3    H217887   5.046   5.284   1.413 -0.1363 -0.5574 -0.9988
 5961TIP3   OH217888   1.271   4.414   4.249 -0.2501  0.4148 -0.5937
 5961TIP3    H117889   1.292   4.382   4.336  1.0311  0.8198 -0.7353
 5961TIP3    H217890   1.237   4.338   4.202  0.6389 -0.1971 -0.2477
 5962TIP3   OH217891   2.453   3.982   3.737  0.5468 -0.3630 -0.8231
 5962TIP3    H117892   2.462   4.076   3.723 -3.3955  0.0492 -1.8624
 5962TIP3    H217893   2.440   3.974   3.832 -2.7269  0.7530 -1.0476
 5963TIP3   OH217894   2.268   0.214   3.338  0.8063  0.2244 -0.5994
 5963TIP3    H117895   2.318   0.171   3.408  0.0340 -0.1133 -0.2357
 5963TIP3    H217896   2.212   0.145   3.303  1.4857  0.2842 -1.8641
 5964TIP3   OH217897   4.754   1.263   2.148  0.1223  0.0692 -0.4384
 5964TIP3    H117898   4.766   1.170   2.130 -0.8141 -0.0037 -0.7743
 5964TIP3    H217899   4.779   1.274   2.240 -2.5201 -1.1244  0.5417
 5965TIP3   OH217900   2.532   1.734   0.600  0.3435 -0.1390 -0.0388
 5965TIP3    H117901   2.494   1.813   0.639  1.0288 -0.1027  0.5633
 5965TIP3    H217902   2.465   1.703   0.538  0.3911  1.3587 -0.8811
 5966TIP3   OH217903   0.258   5.532   2.377  0.1072 -0.1547  0.1994
 5966TIP3    H117904   0.194   5.563   2.313  1.0010  0.2165 -0.5407
 5966TIP3    H217905   0.254   5.597   2.448 -1.8305 -1.2748  1.1975
 5967TIP3   OH217906   2.787   0.688   1.388  0.2636 -0.2935  0.2408
 5967TIP3    H117907   2.789   0.593   1.377  1.4783 -0.2763  0.2651
 5967TIP3    H217908   2.699   0.706   1.422 -0.3327 -1.2967 -0.6934
 5968TIP3   OH217909   2.806   0.521   0.154  0.0784 -0.2445 -0.3203
 5968TIP3    H117910   2.854   0.542   0.073  2.2857 -0.0593  0.9291
 5968TIP3    H217911   2.869   0.470   0.206 -1.2457 -0.3009  1.2958
 5969TIP3   OH217912   2.612   3.637   0.032  0.3501  0.3211  0.1667
 5969TIP3    H117913   2.674   3.691  -0.017  0.0408 -0.9772 -1.7689
 5969TIP3    H217914   2.570   3.698   0.093  1.0756  1.9330 -0.8772
 5970TIP3   OH217915   4.860   3.107   0.309  0.6847  0.2180 -0.0798
 5970TIP3    H117916   4.902   3.192   0.314  0.5038  0.3405 -0.5815
 5970TIP3    H217917   4.768   3.125   0.327  0.7297  0.0487  0.3386
 5971TIP3   OH217918   0.949   0.988   1.532 -0.3950 -0.2428 -0.6879
 5971TIP3    H117919   0.948   0.939   1.449 -1.4947 -0.5361 -0.5210
 5971TIP3    H217920   1.018   1.053   1.520 -0.0080 -0.7792 -1.5422
 5972TIP3   OH217921   2.426   4.965   0.070  0.5413 -0.0573  0.1719
 5972TIP3    H117922   2.447   4.912  -0.007  0.1792 -0.6025  0.4497
 5972TIP3    H217923   2.355   4.918   0.114 -0.9581  1.4789 -0.4643
 5973TIP3   OH217924   1.958   0.602   4.096 -0.0320  0.3965  0.6783
 5973TIP3    H117925   1.946   0.559   4.180  1.1285 -1.8597 -0.2189
 5973TIP3    H217926   1.869   0.623   4.067 -0.8201 -2.4289  0.7415
 5974TIP3   OH217927   0.928   0.347   4.245  0.4933  0.6382  0.1643
 5974TIP3    H117928   0.957   0.431   4.210 -0.6603  0.4688 -1.3325
 5974TIP3    H217929   0.833   0.350   4.239  0.4553 -1.2226 -1.1369
 5975TIP3   OH217930   0.794   3.678   2.779 -0.2759  0.5413  0.6545
 5975TIP3    H117931   0.757   3.627   2.706 -0.6136  1.3002  0.2859
 5975TIP3    H217932   0.767   3.630   2.857  0.5909 -0.6133  0.2766
 5976TIP3   OH217933   2.720   1.218   4.088 -0.3779 -0.3989  0.3274
 5976TIP3    H117934   2.755   1.294   4.135  0.7465 -1.1489  0.7481
 5976TIP3    H217935   2.778   1.206   4.014 -1.4140  0.0131 -0.5750
 5977TIP3   OH217936   4.029   3.228   4.661 -0.3748 -0.4958  0.4030
 5977TIP3    H117937   4.080   3.184   4.729  0.0028 -2.4611 -1.0699
 5977TIP3    H217938   4.091   3.289   4.620 -0.3402 -0.0159  1.1462
 5978TIP3   OH217939   4.849   0.083   0.727  0.1101 -0.1999 -0.6533
 5978TIP3    H117940   4.770   0.042   0.763 -0.7504  0.5425 -1.6511
 5978TIP3    H217941   4.866   0.157   0.785  0.3774 -0.6386 -0.1539
 5979TIP3   OH217942   0.064   5.922   3.961  0.0834  0.7191 -0.3315
 5979TIP3    H117943  -0.019   5.930   4.008 -0.2273  2.6306 -1.1147
 5979TIP3    H217944   0.101   6.010   3.963  1.2648  0.2727 -1.4771
 5980TIP3   OH217945   4.085   2.891   2.156 -0.4342  0.1414  0.0615
 5980TIP3    H117946   4.013   2.907   2.216 -1.2442 -0.6129 -0.6803
 5980TIP3    H217947   4.150   2.958   2.178 -1.6450  1.2833  0.2821
 5981TIP3   OH217948   3.274   5.180   4.819  0.2540 -0.0353 -0.0014
 5981TIP3    H117949   3.255   5.245   4.886  0.8310 -0.4926  0.6121
 5981TIP3    H217950   3.368   5.167   4.824  1.1151  2.9312 -3.6324
 5982TIP3   OH217951   4.789   1.932   1.964  0.4560 -0.4142  0.1940
 5982TIP3    H117952   4.708   1.887   1.938  0.1020  0.2428  0.1511
 5982TIP3    H217953   4.785   2.016   1.919  0.4797  0.1931  1.3067
 5983TIP3   OH217954   1.702   1.188   4.127 -0.1867 -0.0852 -0.3726
 5983TIP3    H117955   1.675   1.100   4.153  2.0747 -0.6264  0.3939
 5983TIP3    H217956   1.648   1.247   4.179 -0.7756 -1.0402  0.1230
 5984TIP3   OH217957   2.094   3.867   2.286 -0.2913  0.5396  0.1381
 5984TIP3    H117958   2.049   3.900   2.208 -1.5503  1.0629  1.0439
 5984TIP3    H217959   2.143   3.791   2.255 -1.0975  0.4856 -1.0891
 5985TIP3   OH217960   0.694   0.185   3.929 -0.0483  0.4120 -0.7715
 5985TIP3    H117961   0.694   0.091   3.951  0.1931  0.5445 -0.1966
 5985TIP3    H217962   0.764   0.194   3.865 -0.3030  0.1384 -1.0906
 5986TIP3   OH217963   1.199   3.909   4.097  0.4701  0.1049  0.2722
 5986TIP3    H117964   1.245   3.958   4.029  0.6848  0.4286  0.6484
 5986TIP3    H217965   1.107   3.929   4.083  0.5800  0.9272  0.6542
 5987TIP3   OH217966   0.685   1.027   1.601 -1.2156 -0.1639  0.1904
 5987TIP3    H117967   0.684   1.122   1.604 -1.2787 -0.1708  0.3893
 5987TIP3    H217968   0.778   1.004   1.601 -1.2016 -0.1125  0.4985
 5988TIP3   OH217969   2.962   1.723   4.042 -0.2684 -0.0053 -0.4051
 5988TIP3    H117970   2.942   1.730   4.135  0.6224  2.8705 -0.3254
 5988TIP3    H217971   2.885   1.759   3.998  0.8260  2.4646 -0.4968
 5989TIP3   OH217972   4.520   2.378   1.832  0.3243  0.9589  0.0625
 5989TIP3    H117973   4.513   2.436   1.907  0.4176  2.4710 -1.0576
 5989TIP3    H217974   4.453   2.410   1.771  0.1524 -0.3265 -0.4519
 5990TIP3   OH217975   1.442   5.977   2.913  0.0268 -0.0651 -0.4280
 5990TIP3    H117976   1.429   5.935   2.998 -0.1295 -0.9554 -0.8733
 5990TIP3    H217977   1.509   5.924   2.870 -1.5460 -1.0658 -1.7713
 5991TIP3   OH217978   3.887   4.169   1.042  0.2460 -0.0304  0.1941
 5991TIP3    H117979   3.964   4.209   1.083  0.0724 -0.1992  0.6840
 5991TIP3    H217980   3.832   4.243   1.017  1.8065  0.3178 -2.7535
 5992TIP3   OH217981   4.323   4.582   4.569 -0.6871  0.3921  0.0499
 5992TIP3    H117982   4.386   4.515   4.595 -1.4090 -0.4633 -0.3378
 5992TIP3    H217983   4.331   4.587   4.474 -0.3891  1.1251  0.1053
 5993TIP3   OH217984   5.267   1.664   1.377  0.3384  0.4772  0.3561
 5993TIP3    H117985   5.246   1.738   1.320 -0.6992 -0.4756 -0.5510
 5993TIP3    H217986   5.202   1.670   1.448  0.3953  0.5588  0.4015
 5994TIP3   OH217987   0.472   3.863   1.503 -0.2897  0.2701 -0.3864
 5994TIP3    H117988   0.428   3.908   1.575  3.2821  1.3906  1.3343
 5994TIP3    H217989   0.463   3.770   1.525 -1.8986  0.4130 -0.2735
 5995TIP3   OH217990   6.022   4.316   1.379 -0.1623 -0.2523  0.2500
 5995TIP3    H117991   6.097   4.317   1.439  0.1800  1.0745 -0.1633
 5995TIP3    H217992   5.953   4.270   1.427  0.9751 -1.7023  0.5542
 5996TIP3   OH217993   5.893   3.135   0.961 -0.5760 -0.3735  0.3166
 5996TIP3    H117994   5.905   3.056   1.014 -2.9473 -2.3160 -1.7591
 5996TIP3    H217995   5.952   3.123   0.887  1.6299  1.6018  1.6377
 5997TIP3   OH217996   1.349   3.489   3.753  0.1665 -0.0077  0.3048
 5997TIP3    H117997   1.300   3.552   3.806 -1.6151 -1.6099  0.6852
 5997TIP3    H217998   1.410   3.448   3.814 -0.2091 -0.1828  0.5648
 5998TIP3   OH217999   4.258   0.107   3.784  0.6642 -0.2487 -0.0252
 5998TIP3    H118000   4.243   0.193   3.822 -0.0817  0.0601 -0.9905
 5998TIP3    H218001   4.185   0.094   3.723  1.2758 -1.1566 -0.5881
 5999TIP3   OH218002   1.574   5.296   4.192  0.3812  0.3128 -0.2648
 5999TIP3    H118003   1.626   5.313   4.271 -0.6804  0.3010  0.4485
 5999TIP3    H218004   1.509   5.366   4.190 -0.2649 -0.2792 -0.5416
 6000TIP3   OH218005   4.888   3.649   1.136  0.5503 -1.0137 -0.1864
 6000TIP3    H118006   4.910   3.617   1.223  1.0633  0.3845  0.2216
 6000TIP3    H218007   4.969   3.641   1.086  1.1728  1.0789  0.3855
 6001TIP3   OH218008   5.560   2.623   0.737  0.8199 -0.2513 -0.2128
 6001TIP3    H118009   5.649   2.606   0.707  0.3427 -1.5293 -0.9865
 6001TIP3    H218010   5.510   2.640   0.657  0.3470  0.3652  0.2043
 6002TIP3   OH218011   4.638   2.955   0.015  0.2973 -0.8082 -1.0485
 6002TIP3    H118012   4.731   2.935   0.019  0.4734  0.0751 -0.4925
 6002TIP3    H218013   4.634   3.048  -0.005 -0.4651 -0.7009 -0.4376
 6003TIP3   OH218014   4.786   2.031   3.153 -0.1930  0.1674  0.4324
 6003TIP3    H118015   4.695   2.015   3.178 -1.1320  0.8949 -2.1940
 6003TIP3    H218016   4.791   2.125   3.140  1.5378  0.4187  2.4389
 6004TIP3   OH218017   3.664   0.636   3.198  0.0306 -0.1499 -0.3067
 6004TIP3    H118018   3.707   0.595   3.274 -0.3559 -2.2054 -1.1347
 6004TIP3    H218019   3.728   0.629   3.127  0.0124  0.8705 -0.4376
 6005TIP3   OH218020   5.159   5.601   3.074 -0.5824 -0.3222  0.8361
 6005TIP3    H118021   5.139   5.640   3.159 -1.0783  0.5482  0.3332
 6005TIP3    H218022   5.249   5.570   3.083  0.2771  1.9991  0.9060
 6006TIP3   OH218023   3.586   0.788   1.415  0.4689  0.1728 -0.0968
 6006TIP3    H118024   3.517   0.853   1.426 -1.3206 -1.1562 -2.3724
 6006TIP3    H218025   3.648   0.828   1.354  1.8517  1.3988  2.0081
 6007TIP3   OH218026   0.462   5.938   2.107  0.0077 -0.2580  0.0232
 6007TIP3    H118027   0.456   5.844   2.126  1.3015 -0.7746 -1.8592
 6007TIP3    H218028   0.371   5.966   2.098 -0.3743 -1.8681 -1.6742
 6008TIP3   OH218029   0.822   4.373   0.061 -0.3363  0.3947  0.0934
 6008TIP3    H118030   0.826   4.360   0.156  0.1508  2.1026  0.3443
 6008TIP3    H218031   0.849   4.464   0.048  3.8079 -0.8697 -2.0168
 6009TIP3   OH218032   5.404   5.498   5.004  0.0480 -0.2438  0.0244
 6009TIP3    H118033   5.409   5.473   5.097  2.4558 -1.0455 -0.2430
 6009TIP3    H218034   5.459   5.433   4.959 -0.6161  0.4596 -1.8959
 6010TIP3   OH218035   5.543   2.593   2.574 -0.3680  0.2109 -0.4537
 6010TIP3    H118036   5.543   2.688   2.586  1.1457  0.2020 -0.1992
 6010TIP3    H218037   5.474   2.561   2.631 -1.1335  1.1829 -0.8139
 6011TIP3   OH218038   4.008   4.829   3.264 -0.2127  0.2204  0.0251
 6011TIP3    H118039   3.990   4.905   3.320  0.1300  1.5776 -1.6117
 6011TIP3    H218040   4.099   4.805   3.284  0.4052  1.6314 -0.9508
 6012TIP3   OH218041   2.546   3.543   3.873  0.3384 -0.0189  0.0917
 6012TIP3    H118042   2.624   3.579   3.916  1.2612  1.1814 -2.3928
 6012TIP3    H218043   2.524   3.608   3.806 -2.6867 -0.4514  0.5258
 6013TIP3   OH218044   2.794   0.770   4.214  0.3479 -1.2626 -0.2292
 6013TIP3    H118045   2.722   0.834   4.220  2.4467  1.2519  5.7535
 6013TIP3    H218046   2.754   0.687   4.240 -1.2208 -1.1123 -1.9410
 6014TIP3   OH218047   2.123   2.174   1.538 -0.1359 -0.3481  0.4880
 6014TIP3    H118048   2.109   2.098   1.482  0.2840 -0.1340  0.0961
 6014TIP3    H218049   2.209   2.206   1.515 -0.8656  1.0928 -0.3469
 6015TIP3   OH218050   1.757   3.131   0.636 -0.1400 -0.4712  0.3276
 6015TIP3    H118051   1.822   3.191   0.675 -0.7998 -0.0116  0.7459
 6015TIP3    H218052   1.782   3.125   0.544 -0.2701  0.7644  0.1887
 6016TIP3   OH218053   1.146   5.111   0.931  0.1463 -0.2919 -0.4750
 6016TIP3    H118054   1.167   5.203   0.943 -0.5652 -0.0427 -1.1113
 6016TIP3    H218055   1.231   5.068   0.919  0.5400  0.1497  0.5959
 6017TIP3   OH218056   3.633   2.396   0.173 -0.2533 -0.7253 -0.9487
 6017TIP3    H118057   3.645   2.461   0.104  2.4695 -1.1753 -1.0181
 6017TIP3    H218058   3.653   2.444   0.254  1.7740 -1.3609 -1.0018
 6018TIP3   OH218059   0.131   3.376   1.806  0.2021 -0.0106 -0.0879
 6018TIP3    H118060   0.078   3.351   1.731 -0.9383  0.8663  0.3822
 6018TIP3    H218061   0.067   3.412   1.869  1.0390 -1.2133  1.5228
 6019TIP3   OH218062   2.277   3.444   2.677  0.4052  0.3685  0.0370
 6019TIP3    H118063   2.295   3.390   2.600 -1.4245 -0.4222  0.1181
 6019TIP3    H218064   2.226   3.518   2.643  0.2075  0.3916  0.3733
 6020TIP3   OH218065   1.946   3.932   4.049 -0.2734 -0.3994  0.5893
 6020TIP3    H118066   2.033   3.894   4.037  0.6849  1.8404  0.0166
 6020TIP3    H218067   1.934   3.936   4.144 -0.6608 -2.5689  0.6819
 6021TIP3   OH218068   0.746   0.231   4.880 -0.1019 -0.4842 -0.1137
 6021TIP3    H118069   0.816   0.213   4.943 -1.6109 -0.3367  1.7029
 6021TIP3    H218070   0.786   0.290   4.816  1.7151 -1.2653  0.2450
 6022TIP3   OH218071   5.157   1.787   1.677 -0.1183  0.3381  0.2165
 6022TIP3    H118072   5.105   1.836   1.740 -1.8340 -1.2410  0.0973
 6022TIP3    H218073   5.094   1.755   1.612  1.2581 -0.1155 -0.9664
 6023TIP3   OH218074   5.822   4.567   1.315  0.6390  0.0756 -0.3585
 6023TIP3    H118075   5.880   4.523   1.253 -1.0416 -1.4444 -0.9422
 6023TIP3    H218076   5.873   4.570   1.397  1.1912 -2.1147 -0.5666
 6024TIP3   OH218077   4.069   2.727   1.168  0.3895  0.1243  0.0197
 6024TIP3    H118078   4.069   2.634   1.189 -1.3104  0.1022  0.0350
 6024TIP3    H218079   3.998   2.763   1.220  0.0552  1.1669 -1.1205
 6025TIP3   OH218080   2.152   3.737   4.649 -0.1800  0.3944 -0.1892
 6025TIP3    H118081   2.141   3.716   4.742  1.2288  0.3540 -0.0079
 6025TIP3    H218082   2.244   3.763   4.641  0.0914 -0.9065 -1.8215
 6026TIP3   OH218083   0.294   4.756   3.004 -0.9696 -0.2353 -0.3784
 6026TIP3    H118084   0.369   4.715   2.961  1.3916  1.1949  2.0795
 6026TIP3    H218085   0.271   4.696   3.075 -1.8898 -0.4752 -0.8761
 6027TIP3   OH218086   1.565   3.312   1.537  0.4384 -0.0391 -0.6204
 6027TIP3    H118087   1.655   3.293   1.512  1.0772 -0.9013  1.9917
 6027TIP3    H218088   1.562   3.407   1.546  1.9828 -0.1572  2.0162
 6028TIP3   OH218089   5.381   5.114   3.424  0.1540  0.5435 -0.0678
 6028TIP3    H118090   5.472   5.085   3.419  0.1549 -0.0153  2.0850
 6028TIP3    H218091   5.331   5.033   3.435 -0.4185  0.9622  0.4439
 6029TIP3   OH218092   1.832   3.236   3.459 -0.0656 -0.1543 -0.2001
 6029TIP3    H118093   1.822   3.270   3.370 -0.6270 -4.3553 -1.9733
 6029TIP3    H218094   1.921   3.260   3.484 -0.1841  1.8568 -1.4768
 6030TIP3   OH218095   3.438   4.918   0.612  0.3183  0.1229 -0.5383
 6030TIP3    H118096   3.373   4.863   0.569  0.2501 -1.9204  1.9520
 6030TIP3    H218097   3.399   5.005   0.614 -1.4358 -0.6277 -0.9138
 6031TIP3   OH218098   4.289   0.157   2.826 -0.1527  0.6313  0.2400
 6031TIP3    H118099   4.355   0.224   2.809 -1.7485  2.2818  0.2120
 6031TIP3    H218100   4.223   0.201   2.879 -1.3687 -0.8601  0.0393
 6032TIP3   OH218101   6.071   1.260   1.778  0.2294  0.0168 -0.3588
 6032TIP3    H118102   6.021   1.179   1.774  1.3153 -0.9756  2.6868
 6032TIP3    H218103   6.033   1.317   1.711 -3.4294 -1.4328  0.3106
 6033TIP3   OH218104   3.298   5.283   3.247 -0.6356  0.3331 -0.0404
 6033TIP3    H118105   3.364   5.214   3.249 -1.0497 -0.1372 -1.4352
 6033TIP3    H218106   3.338   5.356   3.293  0.8350  0.0184 -0.7630
 6034TIP3   OH218107   2.739   1.990   2.421 -0.2099 -0.2540 -0.2358
 6034TIP3    H118108   2.753   1.937   2.342 -0.1333 -0.1470 -0.2942
 6034TIP3    H218109   2.805   2.059   2.415 -1.6450  1.1008 -1.2144
 6035TIP3   OH218110   5.964   1.677   3.331 -0.2895 -0.2613 -0.0801
 6035TIP3    H118111   5.899   1.735   3.370  1.4161  0.6737  1.5054
 6035TIP3    H218112   6.008   1.732   3.265 -1.0701 -0.8936 -1.1569
 6036TIP3   OH218113   0.958   1.028   0.436  0.6603  0.3795  0.4297
 6036TIP3    H118114   1.024   1.068   0.381  0.5962  1.1684  0.9108
 6036TIP3    H218115   0.905   1.101   0.468  0.4167 -0.1031  1.1651
 6037TIP3   OH218116   0.203   5.114   1.560  0.6011  0.0406  0.0862
 6037TIP3    H118117   0.179   5.059   1.635 -0.3671  1.0091  0.5231
 6037TIP3    H218118   0.207   5.203   1.596 -0.8743  0.6737 -1.1768
 6038TIP3   OH218119   4.812   5.460   4.420  0.0059 -0.9380  0.4687
 6038TIP3    H118120   4.835   5.468   4.327  0.5104 -2.1511  0.4729
 6038TIP3    H218121   4.717   5.453   4.420  0.0239 -1.2400  0.0149
 6039TIP3   OH218122   3.996   4.212   1.884 -0.3775 -0.8964  0.3897
 6039TIP3    H118123   4.029   4.150   1.819 -1.2656  0.0154 -0.9730
 6039TIP3    H218124   3.911   4.177   1.910 -1.1123 -0.0541 -0.7552
 6040TIP3   OH218125   0.276   5.741   4.676 -0.7465 -0.2281 -0.2488
 6040TIP3    H118126   0.236   5.679   4.735 -1.5349  0.0071 -0.5274
 6040TIP3    H218127   0.308   5.811   4.732  0.9309 -1.2588  0.1646
 6041TIP3   OH218128   4.898   1.876   4.399  0.1789 -0.2723 -0.0367
 6041TIP3    H118129   4.904   1.781   4.394  1.2585 -0.4511  2.8248
 6041TIP3    H218130   4.834   1.900   4.332  0.6163 -2.8784 -1.5248
 6042TIP3   OH218131   2.933   4.360   1.450 -0.2221 -0.0365  0.0279
 6042TIP3    H118132   3.025   4.359   1.422  0.5524  1.7210  2.2401
 6042TIP3    H218133   2.937   4.371   1.545 -2.7364 -1.8218  0.4399
 6043TIP3   OH218134   6.020   5.722   0.779 -0.6456 -0.3306 -0.1671
 6043TIP3    H118135   5.999   5.780   0.707  0.4861 -0.8754 -0.9620
 6043TIP3    H218136   6.114   5.733   0.793 -0.3981 -1.9071 -0.3273
 6044TIP3   OH218137   1.094   4.124   0.988 -1.0436 -0.4535  0.0639
 6044TIP3    H118138   1.101   4.146   0.895 -1.1768 -1.4796 -0.2033
 6044TIP3    H218139   1.034   4.050   0.990 -0.4592 -0.9221  0.8908
 6045TIP3   OH218140   0.608   0.754   3.053 -0.2496 -0.2779  0.0113
 6045TIP3    H118141   0.571   0.666   3.045 -0.3849 -0.1175 -1.6147
 6045TIP3    H218142   0.539   0.811   3.019  1.3932  0.0223 -3.1579
 6046TIP3   OH218143   3.581   5.002   4.359  0.8209 -0.1192 -0.3450
 6046TIP3    H118144   3.529   4.959   4.427 -0.1489  1.0884 -0.2985
 6046TIP3    H218145   3.639   5.061   4.407  1.5401 -0.6956 -0.4693
 6047TIP3   OH218146   4.840   0.985   3.433  0.0593 -0.4678 -0.0082
 6047TIP3    H118147   4.863   0.985   3.526 -1.3647 -1.0304  0.3604
 6047TIP3    H218148   4.862   1.073   3.403 -2.7712  0.9745  1.7422
 6048TIP3   OH218149   1.039   4.948   3.191 -0.1177 -0.1429 -0.1134
 6048TIP3    H118150   1.081   5.034   3.181  0.8540 -0.8017 -2.1882
 6048TIP3    H218151   1.042   4.909   3.103 -2.0668 -1.6271  0.4092
 6049TIP3   OH218152   0.570   3.691   3.838  1.0230 -0.5039 -0.0735
 6049TIP3    H118153   0.484   3.726   3.813  0.7293 -0.8144  0.4626
 6049TIP3    H218154   0.559   3.596   3.835  1.4994 -0.5500 -0.4825
 6050TIP3   OH218155   1.611   4.548   1.118  0.3548 -0.0861 -0.4150
 6050TIP3    H118156   1.531   4.494   1.120 -0.0587  0.5438  1.4468
 6050TIP3    H218157   1.657   4.525   1.198  1.3888  0.5673 -0.8128
 6051TIP3   OH218158   0.804   3.117   4.312 -0.1433 -0.2604 -0.1856
 6051TIP3    H118159   0.827   3.164   4.231 -0.1030 -1.5285 -0.9384
 6051TIP3    H218160   0.743   3.049   4.283 -1.8863  0.6339  1.2083
 6052TIP3   OH218161   0.748   0.543   0.349  0.1149 -0.4309 -0.7445
 6052TIP3    H118162   0.799   0.478   0.302 -0.3960 -1.6235  0.3113
 6052TIP3    H218163   0.789   0.627   0.326  1.1014 -1.1550 -1.7078
 6053TIP3   OH218164   5.730   5.250   5.097  0.2747  0.1244 -0.0197
 6053TIP3    H118165   5.777   5.294   5.025  0.6506  0.7980  0.6230
 6053TIP3    H218166   5.767   5.289   5.176  1.0588 -1.7955  0.6119
 6054TIP3   OH218167   2.606   0.348   0.212 -0.0984 -0.3605 -0.0299
 6054TIP3    H118168   2.552   0.415   0.252  1.5184  1.2004 -0.3490
 6054TIP3    H218169   2.690   0.391   0.195 -0.2309 -1.2215 -3.9902
 6055TIP3   OH218170   0.894   4.076   1.564 -0.0196 -0.3843 -0.3433
 6055TIP3    H118171   0.802   4.101   1.566  0.0731 -0.0972  0.4713
 6055TIP3    H218172   0.897   4.001   1.504 -0.6078  0.2777 -1.2234
 6056TIP3   OH218173   1.617   2.479   2.476 -0.3302  0.6254 -0.0399
 6056TIP3    H118174   1.552   2.480   2.407  1.2738  2.7835 -1.6853
 6056TIP3    H218175   1.680   2.411   2.450 -1.6475 -1.2455  1.3904
 6057TIP3   OH218176   6.254   5.128   3.313 -0.4135 -0.5853  0.2019
 6057TIP3    H118177   6.198   5.050   3.308 -1.2125 -0.0091  0.0273
 6057TIP3    H218178   6.286   5.140   3.223  0.4912 -1.2724  0.4271
 6058TIP3   OH218179   1.279   0.330   4.739  0.1957  0.3310  0.0361
 6058TIP3    H118180   1.222   0.364   4.670 -2.1859 -2.0660  0.6372
 6058TIP3    H218181   1.234   0.352   4.820  0.1975 -1.4017  0.5474
 6059TIP3   OH218182   0.878   3.552   4.549 -0.4341  0.0311 -0.1537
 6059TIP3    H118183   0.806   3.539   4.610 -1.0744  0.8485 -0.7094
 6059TIP3    H218184   0.851   3.503   4.470 -0.9404  1.2686 -0.7746
 6060TIP3   OH218185   2.697   2.755   2.428 -0.0496  0.0344  0.1672
 6060TIP3    H118186   2.617   2.755   2.480  1.0852 -0.5635  1.9858
 6060TIP3    H218187   2.712   2.847   2.406 -0.2013  0.3771  1.4548
 6061TIP3   OH218188   0.731   4.249   3.878  0.1784 -0.2721 -0.7536
 6061TIP3    H118189   0.685   4.331   3.859  2.2095  0.8366 -1.2159
 6061TIP3    H218190   0.742   4.249   3.973  0.7407  0.3616 -0.8051
 6062TIP3   OH218191   1.854   1.240   3.215  0.2865  0.3225  0.0661
 6062TIP3    H118192   1.783   1.263   3.156  1.0770 -1.5904 -1.7535
 6062TIP3    H218193   1.847   1.145   3.226  2.0280  0.2078  0.5515
 6063TIP3   OH218194   5.757   4.850   4.628 -0.1219 -0.1458 -0.2458
 6063TIP3    H118195   5.786   4.767   4.592 -1.9570 -1.1750  0.4895
 6063TIP3    H218196   5.704   4.889   4.558  0.7714  0.4525 -0.6059
 6064TIP3   OH218197   3.436   4.794   4.670 -0.3872 -0.3704 -0.5754
 6064TIP3    H118198   3.418   4.880   4.631 -0.8591  0.6232  1.6714
 6064TIP3    H218199   3.393   4.797   4.755  1.9138 -1.8011  0.7322
 6065TIP3   OH218200   3.409   3.628   0.699  0.4270 -0.8536  0.0152
 6065TIP3    H118201   3.362   3.707   0.729  0.8918 -1.6977  3.4360
 6065TIP3    H218202   3.485   3.622   0.758  1.9151 -2.4300 -1.9317
 6066TIP3   OH218203   2.679   3.477   1.411  0.0778  0.4626  0.8973
 6066TIP3    H118204   2.607   3.522   1.366  0.2411 -1.0262 -0.9812
 6066TIP3    H218205   2.698   3.401   1.357 -0.4060 -2.1490  4.1040
 6067TIP3   OH218206   3.587   2.803   4.370 -0.5205 -0.1828  0.5309
 6067TIP3    H118207   3.582   2.783   4.276  1.7565 -2.2389  0.7295
 6067TIP3    H218208   3.675   2.840   4.381 -0.5608 -0.4531  1.9171
 6068TIP3   OH218209   6.028   2.394   0.219 -0.0586 -0.2208  0.3146
 6068TIP3    H118210   6.056   2.333   0.151 -0.1996 -0.4399  0.4518
 6068TIP3    H218211   6.057   2.352   0.301  0.8345  0.4228  0.3436
 6069TIP3   OH218212   0.454   1.592   1.260 -0.0011  0.4356  0.0473
 6069TIP3    H118213   0.499   1.536   1.197  0.1614  1.8658 -1.1618
 6069TIP3    H218214   0.523   1.623   1.319  0.4431  1.5971 -1.0257
 6070TIP3   OH218215   2.121   4.839   1.247 -0.1956 -0.3374 -0.4862
 6070TIP3    H118216   2.134   4.876   1.159 -1.9276  0.6710 -0.3663
 6070TIP3    H218217   2.100   4.915   1.302  1.1443 -0.9165  0.8951
 6071TIP3   OH218218   2.317   4.953   2.674 -0.2937  0.0402 -0.0358
 6071TIP3    H118219   2.286   5.003   2.749  0.1671  1.1411 -0.5525
 6071TIP3    H218220   2.407   4.928   2.697  0.1540  1.1021 -0.5258
 6072TIP3   OH218221   4.907   0.471   0.692  0.3548  0.2718  0.3598
 6072TIP3    H118222   4.838   0.410   0.665  0.6077  0.6065 -1.1803
 6072TIP3    H218223   4.860   0.548   0.724 -0.0209  0.4394 -0.5422
 6073TIP3   OH218224   5.168   1.810   3.477  0.1826 -0.1788 -0.3139
 6073TIP3    H118225   5.177   1.818   3.382  0.8311 -0.9377 -0.3277
 6073TIP3    H218226   5.249   1.768   3.505 -0.7823 -1.6899  0.3478
 6074TIP3   OH218227   4.939   1.887   3.948 -0.6503 -0.6046 -0.0819
 6074TIP3    H118228   4.859   1.938   3.938 -0.3881 -0.2308 -0.2743
 6074TIP3    H218229   4.925   1.810   3.893 -1.6346 -1.4681  1.3079
 6075TIP3   OH218230   0.485   1.871   0.085  0.0348  0.1535 -0.3193
 6075TIP3    H118231   0.567   1.914   0.107  0.2392  0.4148 -1.4981
 6075TIP3    H218232   0.473   1.889  -0.008 -0.1953 -1.7919 -0.7264
 6076TIP3   OH218233   4.446   2.891   2.226 -0.1690  0.1304  0.4759
 6076TIP3    H118234   4.434   2.967   2.282 -0.0718  0.4751  0.0325
 6076TIP3    H218235   4.491   2.827   2.282  1.1306  0.9482  0.4118
 6077TIP3   OH218236   5.706   2.885   2.604 -0.2003 -0.1384  0.5488
 6077TIP3    H118237   5.617   2.895   2.569 -0.7262 -2.0525  1.1811
 6077TIP3    H218238   5.758   2.857   2.529 -0.0697  1.1749  0.1330
 6078TIP3   OH218239   3.181   3.533   0.333 -0.0516 -0.2770 -0.2826
 6078TIP3    H118240   3.216   3.620   0.316  1.5021 -0.7277  0.4301
 6078TIP3    H218241   3.152   3.501   0.248 -1.3960  1.2245 -0.4342
 6079TIP3   OH218242   3.129   1.779   2.740 -0.0914  0.2637 -0.0557
 6079TIP3    H118243   3.199   1.818   2.688  1.1059 -1.3374  0.2935
 6079TIP3    H218244   3.121   1.689   2.708 -0.3894 -0.2873  1.4584
 6080TIP3   OH218245   4.178   5.696   3.906 -0.5420  0.0435  0.4738
 6080TIP3    H118246   4.116   5.627   3.883 -1.0791  0.4273  0.7423
 6080TIP3    H218247   4.224   5.663   3.982 -0.5007 -0.1975  0.3445
 6081TIP3   OH218248   4.888   2.688   0.621 -0.8664 -0.0984 -0.4570
 6081TIP3    H118249   4.919   2.749   0.687 -1.2206 -0.4074 -0.0049
 6081TIP3    H218250   4.895   2.736   0.538  1.5411 -0.4062 -0.4951
 6082TIP3   OH218251   0.769   3.041   3.330 -0.4431  0.0915  0.0307
 6082TIP3    H118252   0.707   2.968   3.336 -0.6269  0.2033 -0.4783
 6082TIP3    H218253   0.800   3.039   3.240 -0.1624  0.4094  0.1191
 6083TIP3   OH218254   4.551   0.936   2.206 -0.0660  0.1332  0.0186
 6083TIP3    H118255   4.591   0.945   2.119  0.8191 -0.6258  0.3285
 6083TIP3    H218256   4.460   0.912   2.188 -0.1072  0.7901 -0.7003
 6084TIP3   OH218257   5.752   5.694   0.556  0.8503 -0.1288  0.1202
 6084TIP3    H118258   5.718   5.761   0.614 -0.8097 -0.8920  0.0833
 6084TIP3    H218259   5.843   5.682   0.584  0.3479  0.1146  1.9973
 6085TIP3   OH218260   2.688   2.865   0.576 -0.5653 -0.0568 -0.1560
 6085TIP3    H118261   2.722   2.818   0.652 -0.9681 -0.2625 -0.0981
 6085TIP3    H218262   2.613   2.914   0.609 -0.5329  0.1284 -0.3499
 6086TIP3   OH218263   5.572   0.299   0.559  0.1291 -0.0269 -0.1383
 6086TIP3    H118264   5.615   0.362   0.616 -1.4399  1.0213 -0.0648
 6086TIP3    H218265   5.551   0.225   0.616  0.5542  0.0651  0.1356
 6087TIP3   OH218266   1.130   1.598   1.146  0.2232 -0.2095  0.3106
 6087TIP3    H118267   1.102   1.546   1.071 -0.6471 -0.7702  1.0112
 6087TIP3    H218268   1.221   1.621   1.126  0.4371 -1.5014 -0.2787
 6088TIP3   OH218269   2.671   1.715   4.113  0.5615  0.1236  0.2351
 6088TIP3    H118270   2.585   1.730   4.152 -0.5671 -2.1087 -1.1525
 6088TIP3    H218271   2.676   1.779   4.042  0.2134  0.5122  0.5509
 6089TIP3   OH218272   0.239   5.277   1.263 -0.0080  0.2645 -0.0183
 6089TIP3    H118273   0.238   5.185   1.289 -0.2003  0.5359  0.9851
 6089TIP3    H218274   0.299   5.319   1.324 -1.4522  1.1626  0.8639
 6090TIP3   OH218275   3.095   1.507   3.220  0.3664 -0.6409 -0.1908
 6090TIP3    H118276   3.025   1.572   3.216 -0.2207 -1.2590 -0.3742
 6090TIP3    H218277   3.174   1.557   3.239 -0.1637  0.0509  0.2586
 6091TIP3   OH218278   3.768   5.144   5.087 -0.3377  0.4065  0.0563
 6091TIP3    H118279   3.722   5.150   5.003  0.3418 -0.5904 -0.4057
 6091TIP3    H218280   3.757   5.231   5.126 -0.5527  0.9338 -1.1175
 6092TIP3   OH218281   0.770   5.776   0.134 -0.3626 -0.2916 -0.1561
 6092TIP3    H118282   0.737   5.830   0.206 -0.3685  0.4588 -0.7133
 6092TIP3    H218283   0.711   5.701   0.132 -2.5192  1.3349 -1.5603
 6093TIP3   OH218284   0.785   0.175   2.334  0.2594 -0.0348  0.1527
 6093TIP3    H118285   0.746   0.099   2.377  1.1397 -0.5490  0.0688
 6093TIP3    H218286   0.770   0.248   2.394  1.5254 -0.7497  1.3856
 6094TIP3   OH218287   6.167   3.740   1.460 -0.3844  0.2698  0.2293
 6094TIP3    H118288   6.095   3.695   1.416  0.1495 -0.3004 -0.0825
 6094TIP3    H218289   6.155   3.721   1.553 -0.4954 -0.0269  0.1544
 6095TIP3   OH218290   2.520   0.883   2.935  0.3265 -0.1137  0.6524
 6095TIP3    H118291   2.510   0.789   2.952  1.5193 -0.7106 -1.5462
 6095TIP3    H218292   2.431   0.919   2.945 -1.3544 -2.4372 -3.3881
 6096TIP3   OH218293   3.307   0.989   2.879  0.0605 -0.2367 -0.5183
 6096TIP3    H118294   3.320   1.064   2.821 -0.2457 -0.5467 -1.0067
 6096TIP3    H218295   3.292   0.916   2.819 -2.4848 -0.1732 -0.0737
 6097TIP3   OH218296   2.452   1.640   3.195  0.6781  0.0593 -0.5767
 6097TIP3    H118297   2.383   1.620   3.258  1.2383 -1.5418 -0.4289
 6097TIP3    H218298   2.407   1.687   3.125 -0.6117 -1.0929 -0.5656
 6098TIP3   OH218299   6.140   2.869   1.597  0.1525 -0.0041 -0.0654
 6098TIP3    H118300   6.176   2.785   1.569 -0.9471 -0.3975 -0.3476
 6098TIP3    H218301   6.161   2.874   1.690  0.0548 -0.6847 -0.0019
 6099TIP3   OH218302   1.760   5.085   1.088 -0.4858  0.5842  0.5721
 6099TIP3    H118303   1.709   5.094   1.169 -0.6168 -0.0712  0.5742
 6099TIP3    H218304   1.729   5.003   1.050 -1.0173  1.2890 -0.5677
 6100TIP3   OH218305   4.427   1.061   0.885 -0.1528  0.0408  0.0619
 6100TIP3    H118306   4.436   0.969   0.864 -0.9082  0.3050 -1.5870
 6100TIP3    H218307   4.350   1.066   0.941 -0.2106 -0.3102  0.0137
 6101TIP3   OH218308   3.573   2.102   3.174 -1.0776 -0.1643  0.0902
 6101TIP3    H118309   3.660   2.139   3.187 -0.7580 -0.0833 -1.9861
 6101TIP3    H218310   3.533   2.106   3.261 -0.1480  2.7013  0.5190
 6102TIP3   OH218311   1.550   0.551   2.287  0.0358  0.4441 -0.1966
 6102TIP3    H118312   1.503   0.605   2.224 -0.7428 -0.8874 -0.8109
 6102TIP3    H218313   1.634   0.533   2.244 -0.2232  0.0977 -0.5652
 6103TIP3   OH218314   4.682   3.211   4.676 -0.4557 -0.7323  0.5475
 6103TIP3    H118315   4.752   3.263   4.715 -0.2785 -1.4279  1.1796
 6103TIP3    H218316   4.671   3.137   4.735 -2.5839 -0.0238  1.1545
 6104TIP3   OH218317   4.312   2.741   0.446  0.1795  0.2486  0.6113
 6104TIP3    H118318   4.241   2.806   0.444 -1.2814 -1.2855  0.8306
 6104TIP3    H218319   4.291   2.680   0.376  0.2101 -1.3158  1.9171
 6105TIP3   OH218320   4.153   3.684   1.733  0.4256 -0.1555  0.0876
 6105TIP3    H118321   4.114   3.696   1.819  0.1220  1.6172 -0.2501
 6105TIP3    H218322   4.107   3.747   1.677  0.8461 -1.0243 -1.2991
 6106TIP3   OH218323   2.222   4.078   2.043  0.4859 -0.3831  0.0923
 6106TIP3    H118324   2.147   4.018   2.039 -0.3601  0.6362  0.4431
 6106TIP3    H218325   2.227   4.116   1.955 -0.8249  1.2112  0.6588
 6107TIP3   OH218326   2.259   5.832   1.509 -0.3848 -0.2436  0.3527
 6107TIP3    H118327   2.202   5.762   1.478  0.6066 -1.3008  0.8870
 6107TIP3    H218328   2.347   5.807   1.482 -0.1143  1.3125 -0.3484
 6108TIP3   OH218329   4.097   1.624   4.933 -0.1529  0.4374 -0.6950
 6108TIP3    H118330   4.144   1.697   4.972 -1.4966  0.9574 -0.0042
 6108TIP3    H218331   4.146   1.604   4.853  1.6032  0.5191  0.3063
 6109TIP3   OH218332   0.409   3.617   3.248  0.1187  0.7751 -0.3155
 6109TIP3    H118333   0.483   3.661   3.206 -0.6828  1.7195 -0.8067
 6109TIP3    H218334   0.397   3.536   3.198  1.1981  0.3037  0.1679
 6110TIP3   OH218335   3.933   5.213   4.723  0.8007 -0.5640  0.3883
 6110TIP3    H118336   3.964   5.187   4.636  0.6008 -1.2182  0.4996
 6110TIP3    H218337   4.005   5.190   4.782  0.6306 -0.8662  0.4848
 6111TIP3   OH218338   3.810   0.204   3.427 -0.5034  0.2034  0.1372
 6111TIP3    H118339   3.754   0.206   3.505  1.2569  3.5971  1.5365
 6111TIP3    H218340   3.802   0.115   3.394 -3.2594 -0.6954  2.7600
 6112TIP3   OH218341   1.076   1.089   0.851  0.0073  0.0087 -0.3793
 6112TIP3    H118342   1.046   1.101   0.941  3.1168  0.6393  0.6853
 6112TIP3    H218343   1.069   1.176   0.811  0.0636  0.0595 -0.2774
 6113TIP3   OH218344   1.345   1.787   5.100  0.4312  0.0358  0.1403
 6113TIP3    H118345   1.307   1.826   5.179  0.4716 -0.3364  0.3486
 6113TIP3    H218346   1.414   1.729   5.134  0.3987 -0.1822 -0.1656
 6114TIP3   OH218347   5.656   3.438   4.018  0.0046  0.1829  0.1001
 6114TIP3    H118348   5.652   3.444   3.923  2.3461 -2.3509 -0.3131
 6114TIP3    H218349   5.738   3.481   4.042  1.4778 -2.5259  0.3830
 6115TIP3   OH218350   5.107   4.220   1.834 -0.5901 -0.0599 -0.1167
 6115TIP3    H118351   5.032   4.280   1.826 -0.5172 -0.1729 -2.4482
 6115TIP3    H218352   5.093   4.156   1.765  1.2726 -0.5421 -0.0934
 6116TIP3   OH218353   3.071   2.476   3.014  0.4935 -0.1070 -0.0856
 6116TIP3    H118354   3.043   2.400   3.066  1.9761 -0.1713  0.6811
 6116TIP3    H218355   3.109   2.438   2.935 -0.6838 -0.0533 -0.7010
 6117TIP3   OH218356   2.478   2.520   4.347  0.0929  0.0585 -0.1508
 6117TIP3    H118357   2.501   2.462   4.419  0.8139 -0.0697 -0.4699
 6117TIP3    H218358   2.478   2.464   4.269  0.7106  0.4505 -0.4490
 6118TIP3   OH218359   2.671   5.076   3.572 -0.6742  0.0186  0.4617
 6118TIP3    H118360   2.687   5.063   3.479 -1.1132 -3.1931  0.7046
 6118TIP3    H218361   2.758   5.075   3.612 -0.5948 -2.3959  0.3677
 6119TIP3   OH218362   2.877   4.047   3.903 -0.1062  0.2883  0.7398
 6119TIP3    H118363   2.801   3.993   3.923 -0.7681 -0.0908 -2.3154
 6119TIP3    H218364   2.951   3.987   3.910 -0.6501 -0.6420 -0.8445
 6120TIP3   OH218365   1.868   2.864   3.215  0.1191 -0.0231 -0.0284
 6120TIP3    H118366   1.825   2.847   3.131 -0.0085  0.0513  0.0221
 6120TIP3    H218367   1.800   2.851   3.280  0.1963  0.0065  0.0588
 6121TIP3   OH218368   5.751   4.594   4.229  1.0956 -0.0127  0.7220
 6121TIP3    H118369   5.805   4.668   4.256  1.3988 -0.1385  0.4730
 6121TIP3    H218370   5.662   4.619   4.251  1.0477  0.9452 -0.4759
 6122TIP3   OH218371   5.276   0.619   4.979 -0.0306  0.6140 -0.8500
 6122TIP3    H118372   5.189   0.580   4.982  0.7067 -1.0723  0.2172
 6122TIP3    H218373   5.263   0.709   5.010 -1.3775  0.3728 -0.6582
 6123TIP3   OH218374   4.238   5.048   3.181  0.3753  0.5293 -0.5622
 6123TIP3    H118375   4.238   4.991   3.104  1.1837 -0.5289  0.1862
 6123TIP3    H218376   4.165   5.016   3.234  0.9759  0.0065 -0.0308
 6124TIP3   OH218377   5.786   5.934   1.036 -0.8216  0.1547 -0.0292
 6124TIP3    H118378   5.792   6.012   0.982  0.2319 -0.9964 -1.6534
 6124TIP3    H218379   5.693   5.911   1.036 -1.0019  0.8859 -0.2861
 6125TIP3   OH218380   0.384   2.144   3.590  0.2960  0.1596  0.3298
 6125TIP3    H118381   0.357   2.057   3.561  1.2410 -0.5000  1.3580
 6125TIP3    H218382   0.305   2.197   3.583 -0.4534 -0.9359  0.2853
 6126TIP3   OH218383   3.367   0.382   1.895 -0.4998  0.0968 -0.1052
 6126TIP3    H118384   3.460   0.404   1.899  0.0055 -1.9981  1.2203
 6126TIP3    H218385   3.346   0.351   1.983 -2.6342  1.0303 -0.2171
 6127TIP3   OH218386   3.390   0.936   1.811  0.5017 -0.1569 -0.0594
 6127TIP3    H118387   3.367   0.936   1.904 -0.2571  2.0961 -0.1754
 6127TIP3    H218388   3.317   0.891   1.768  0.4011 -0.3948  0.3557
 6128TIP3   OH218389   2.280   1.980   1.757 -0.3121 -0.5584  0.5504
 6128TIP3    H118390   2.213   2.002   1.692 -0.8810 -1.6529  0.7369
 6128TIP3    H218391   2.338   2.056   1.758  0.5120 -1.0294 -2.2372
 6129TIP3   OH218392   0.707   5.568   2.528  0.1443 -0.2102  0.1738
 6129TIP3    H118393   0.675   5.510   2.459  1.0010 -0.4346 -0.0532
 6129TIP3    H218394   0.800   5.580   2.507  0.2993  0.1116  1.0196
 6130TIP3   OH218395   2.048   2.877   4.676 -0.1089 -0.6823 -0.0251
 6130TIP3    H118396   2.105   2.841   4.608 -1.0340  1.0668 -1.8380
 6130TIP3    H218397   2.105   2.884   4.753  1.9332  0.1515 -1.4963
 6131TIP3   OH218398   5.312   2.733   3.214 -0.3431 -0.7889 -0.3012
 6131TIP3    H118399   5.284   2.796   3.280 -0.8785 -0.9761 -0.3421
 6131TIP3    H218400   5.304   2.780   3.131  1.6517 -0.0894 -0.1523
 6132TIP3   OH218401   4.233   3.383   4.617 -0.4396 -0.4130  0.4472
 6132TIP3    H118402   4.264   3.457   4.669 -1.8003  0.2143  0.4018
 6132TIP3    H218403   4.264   3.402   4.528  1.1398 -1.0490  0.8418
 6133TIP3   OH218404   4.277   2.142   3.690 -0.1752 -0.1508 -0.0994
 6133TIP3    H118405   4.217   2.067   3.688  0.4979 -0.6999 -0.2902
 6133TIP3    H218406   4.364   2.102   3.699  0.2145  0.6009 -0.4584
 6134TIP3   OH218407   2.237   1.694   4.804 -0.1574 -0.2123 -0.2846
 6134TIP3    H118408   2.224   1.783   4.838 -0.5067  0.3206 -1.7652
 6134TIP3    H218409   2.310   1.659   4.856 -0.7045  0.5432  1.0387
 6135TIP3   OH218410   2.697   3.880   4.002 -0.2814 -0.4803  0.0336
 6135TIP3    H118411   2.605   3.855   4.006 -0.2505 -0.8906 -1.3856
 6135TIP3    H218412   2.745   3.798   4.014 -0.1100 -0.4006 -0.1053
 6136TIP3   OH218413   2.501   5.684   2.572 -0.1053  0.2802 -0.2344
 6136TIP3    H118414   2.459   5.628   2.637 -0.6376  0.5250 -0.3653
 6136TIP3    H218415   2.468   5.772   2.590  1.1253  0.6552  0.3014
 6137TIP3   OH218416   0.771   3.289   1.608 -0.4660  0.6156 -0.4348
 6137TIP3    H118417   0.863   3.313   1.600 -0.7220  1.2188 -1.9495
 6137TIP3    H218418   0.744   3.266   1.519 -0.5582 -4.3204  0.5385
 6138TIP3   OH218419   4.468   3.410   4.016 -0.0254  0.0558 -0.0250
 6138TIP3    H118420   4.441   3.404   3.925 -2.0150 -2.7059  0.5983
 6138TIP3    H218421   4.452   3.501   4.040 -0.5998  0.5567 -2.1038
 6139TIP3   OH218422   3.754   1.016   2.715 -0.3491  0.4011 -0.0606
 6139TIP3    H118423   3.838   1.062   2.712  0.2962 -0.8026 -0.9840
 6139TIP3    H218424   3.710   1.053   2.792  0.8907  1.2597  0.2691
 6140TIP3   OH218425   4.736   2.542   0.995  0.2351 -0.0177 -0.3621
 6140TIP3    H118426   4.815   2.492   0.974 -0.4689 -0.9256 -0.9350
 6140TIP3    H218427   4.723   2.528   1.089 -0.0879 -1.1350 -0.5589
 6141TIP3   OH218428   0.310   3.620   1.859  0.5097  0.5910  0.2428
 6141TIP3    H118429   0.247   3.644   1.791  0.5906  1.8346  0.5834
 6141TIP3    H218430   0.257   3.615   1.939  0.4805 -0.5052  0.1726
 6142TIP3   OH218431   0.975   0.890   0.084  0.4238 -0.4219  0.2758
 6142TIP3    H118432   0.896   0.893   0.031  1.6271  1.4630 -1.5504
 6142TIP3    H218433   1.024   0.814   0.051 -0.4086 -1.3714  1.1628
 6143TIP3   OH218434   5.735   0.186   0.364  0.1176 -0.1552  0.2606
 6143TIP3    H118435   5.780   0.269   0.349 -0.0888 -0.0824  0.0250
 6143TIP3    H218436   5.655   0.210   0.410 -0.2020 -0.1598 -0.2810
 6144TIP3   OH218437   5.896   0.855   3.681 -0.5788 -0.1222 -0.1533
 6144TIP3    H118438   5.978   0.905   3.685 -1.0299  0.6897 -0.6678
 6144TIP3    H218439   5.891   0.809   3.764  0.8277 -0.8768 -0.4500
 6145TIP3   OH218440   2.816   5.693   2.683 -0.0297 -0.0555  0.0261
 6145TIP3    H118441   2.754   5.751   2.728 -0.2724 -0.5455  0.3275
 6145TIP3    H218442   2.852   5.638   2.753  0.5570  0.0490 -0.1878
 6146TIP3   OH218443   0.963   1.761   0.900  0.1472 -0.1443  0.0699
 6146TIP3    H118444   0.986   1.705   0.975  0.2424  0.9815  0.9087
 6146TIP3    H218445   0.879   1.726   0.869  0.4611 -1.0766  0.2320
 6147TIP3   OH218446   1.981   3.789   1.527  0.5715 -0.3840 -0.5789
 6147TIP3    H118447   1.974   3.876   1.489 -3.9918 -0.1727  0.1386
 6147TIP3    H218448   2.053   3.795   1.590  3.0686  1.5145 -3.3766
 6148TIP3   OH218449   3.642   0.724   2.727 -0.7667  0.1353 -0.2151
 6148TIP3    H118450   3.635   0.813   2.692 -1.3433  0.2841  0.2534
 6148TIP3    H218451   3.717   0.727   2.785  0.3332 -0.1676 -1.5666
 6149TIP3   OH218452   6.000   1.216   1.188 -0.5149 -0.1711  0.8094
 6149TIP3    H118453   6.050   1.141   1.222 -0.6803  0.7418  3.2620
 6149TIP3    H218454   6.054   1.292   1.209 -0.6283  0.4915 -1.1186
 6150TIP3   OH218455   2.910   5.820   2.226 -0.1070  0.3748  0.2508
 6150TIP3    H118456   2.896   5.912   2.205 -0.6358 -0.1261 -1.7778
 6150TIP3    H218457   2.885   5.813   2.318 -1.0246  2.0595  0.1752
 6151TIP3   OH218458   4.313   0.875   1.806  0.5118  0.8081  0.0197
 6151TIP3    H118459   4.265   0.881   1.723 -2.1117 -1.8397  1.1871
 6151TIP3    H218460   4.255   0.915   1.870  0.0536 -1.8340  1.3658
 6152TIP3   OH218461   3.784   5.543   3.779 -0.4176  0.0832  0.9059
 6152TIP3    H118462   3.823   5.533   3.693 -0.8628 -1.6117  0.8737
 6152TIP3    H218463   3.812   5.630   3.808  2.3239 -0.5280  0.3663
 6153TIP3   OH218464   5.662   2.014   4.531  0.3411  0.4017 -0.2149
 6153TIP3    H118465   5.669   2.076   4.458  1.1054 -0.7629 -1.1606
 6153TIP3    H218466   5.699   1.933   4.497 -2.3455 -1.1536  0.3815
 6154TIP3   OH218467   3.176   1.232   4.645  0.2236  0.3307  0.4074
 6154TIP3    H118468   3.225   1.195   4.572 -0.7006  0.6026 -0.3634
 6154TIP3    H218469   3.125   1.159   4.679 -0.9163  0.6630 -0.5441
 6155TIP3   OH218470   4.231   0.290   3.989 -0.2338 -0.4702  0.4036
 6155TIP3    H118471   4.306   0.350   3.988 -1.0285  0.6036 -2.3409
 6155TIP3    H218472   4.178   0.320   4.063  0.3823  0.9223  0.3155
 6156TIP3   OH218473   5.282   4.809   4.730 -0.8364 -0.2678 -0.3319
 6156TIP3    H118474   5.191   4.838   4.735 -1.1641 -1.2137 -0.8243
 6156TIP3    H218475   5.299   4.772   4.817 -0.3317  1.5435  0.4070
 6157TIP3   OH218476   1.385   5.848   4.612 -0.1857 -0.2421 -0.0187
 6157TIP3    H118477   1.305   5.815   4.571 -1.2925  2.7114 -0.4995
 6157TIP3    H218478   1.423   5.906   4.546  1.6221 -0.5064  0.7393
 6158TIP3   OH218479   0.683   2.775   4.952 -0.2616  0.0082 -0.5139
 6158TIP3    H118480   0.597   2.812   4.932 -0.4034  0.0583  0.1504
 6158TIP3    H218481   0.664   2.684   4.977 -0.2880  0.3899  0.9253
 6159TIP3   OH218482   2.295   3.421   3.953 -0.2296  0.3629 -0.3576
 6159TIP3    H118483   2.357   3.471   3.900  0.8994  0.5400  1.0616
 6159TIP3    H218484   2.227   3.484   3.977  1.4834  1.4913  1.9118
 6160TIP3   OH218485   1.856   2.631   3.635  0.0533  0.1533  0.1254
 6160TIP3    H118486   1.826   2.722   3.627 -0.0285  0.0787 -0.3991
 6160TIP3    H218487   1.779   2.578   3.618  0.0562 -0.0215  0.6249
 6161TIP3   OH218488   5.279   1.529   3.384 -0.3977  1.2786  0.0919
 6161TIP3    H118489   5.255   1.509   3.474 -1.2008  4.1369  0.5865
 6161TIP3    H218490   5.349   1.466   3.364 -1.9811 -1.1647  1.7364
 6162TIP3   OH218491   4.075   3.391   5.182  0.2854  0.2023 -0.3092
 6162TIP3    H118492   4.021   3.408   5.105  1.4347  1.1016 -0.9606
 6162TIP3    H218493   4.165   3.391   5.148  0.8750  1.3611  1.1377
 6163TIP3   OH218494   2.201   1.206   1.548 -0.1441  0.1927  0.9498
 6163TIP3    H118495   2.289   1.240   1.567 -0.1605 -0.4484  2.2215
 6163TIP3    H218496   2.214   1.149   1.472  0.8176 -1.0040  1.9613
 6164TIP3   OH218497   0.992   3.968   5.122 -0.1337 -0.1102  0.1616
 6164TIP3    H118498   0.953   4.040   5.172  1.8734  1.2332 -0.0822
 6164TIP3    H218499   0.983   3.995   5.030  0.2115 -0.3845  0.0448
 6165TIP3   OH218500   1.950   2.781   5.010 -0.3150  0.0236 -0.4664
 6165TIP3    H118501   1.888   2.770   4.938  0.9903  0.4407 -1.6874
 6165TIP3    H218502   1.971   2.692   5.038 -1.0457 -0.1305 -0.3792
 6166TIP3   OH218503   0.455   1.596   4.081  0.4078 -0.2358 -0.1562
 6166TIP3    H118504   0.440   1.647   4.001  2.9893 -0.5697 -0.9330
 6166TIP3    H218505   0.442   1.659   4.152  3.3211  1.6049 -1.0899
 6167TIP3   OH218506   0.559   2.601   4.095  0.1469  0.2064  0.3381
 6167TIP3    H118507   0.467   2.622   4.112 -0.0103 -0.0692 -0.1493
 6167TIP3    H218508   0.559   2.564   4.007  0.9766  1.8926 -0.4089
 6168TIP3   OH218509   1.493   1.119   0.514  0.4890 -0.1183  0.3005
 6168TIP3    H118510   1.421   1.064   0.546  0.7394  0.2923  1.6466
 6168TIP3    H218511   1.534   1.153   0.593  0.6036  1.6762 -0.4889
 6169TIP3   OH218512   4.492   0.518   1.660  0.8327 -0.2609  0.2407
 6169TIP3    H118513   4.556   0.451   1.683  1.0076 -0.3561 -0.5062
 6169TIP3    H218514   4.535   0.569   1.591  0.5327  0.3560  0.5001
 6170TIP3   OH218515   4.180   4.150   4.231  0.3498  0.2800  0.2012
 6170TIP3    H118516   4.139   4.186   4.309  0.9979  2.9954 -0.5746
 6170TIP3    H218517   4.109   4.145   4.167 -0.0146 -1.1670  0.6945
 6171TIP3   OH218518   1.117   4.874   2.564  0.0954 -0.0978 -0.7658
 6171TIP3    H118519   1.039   4.825   2.537  0.1028  0.1658 -1.2893
 6171TIP3    H218520   1.146   4.832   2.644 -1.1875  0.4356  0.0006
 6172TIP3   OH218521   6.301   1.669   2.714 -0.0319  0.0779  0.1097
 6172TIP3    H118522   6.269   1.742   2.767  0.5795  1.1627 -0.9509
 6172TIP3    H218523   6.373   1.707   2.662  0.0935 -1.2010 -0.6933
 6173TIP3   OH218524   6.107   0.313   2.443 -0.9028 -0.4622 -0.4762
 6173TIP3    H118525   6.079   0.364   2.367  1.8258  0.0751 -1.2295
 6173TIP3    H218526   6.168   0.249   2.408  3.5694  2.2606  1.5121
 6174TIP3   OH218527   2.723   3.689   4.294  0.5440 -0.5796 -0.3059
 6174TIP3    H118528   2.697   3.600   4.316 -2.2033  0.1812 -0.1885
 6174TIP3    H218529   2.742   3.730   4.378 -0.7066 -0.3535 -0.1181
 6175TIP3   OH218530   5.377   3.822   1.304  0.0030  0.4259 -0.1882
 6175TIP3    H118531   5.322   3.859   1.235  0.0188 -0.8113 -0.8861
 6175TIP3    H218532   5.318   3.810   1.378 -0.0967  1.4089 -0.0931
 6176TIP3   OH218533   4.300   5.457   2.552  0.2328 -0.1286  0.3742
 6176TIP3    H118534   4.324   5.549   2.565 -1.5001  0.1730  1.9648
 6176TIP3    H218535   4.381   5.408   2.568  0.8961  1.0503  0.7455
 6177TIP3   OH218536   1.497   1.975   4.139 -0.3547 -0.1013 -0.1735
 6177TIP3    H118537   1.471   1.895   4.185  0.7735  0.5981  1.7637
 6177TIP3    H218538   1.593   1.974   4.142 -0.3059  0.9096 -0.9027
 6178TIP3   OH218539   3.568   5.761   1.661  0.3890  0.3214 -0.0836
 6178TIP3    H118540   3.575   5.786   1.754  0.4925 -1.8751  0.5599
 6178TIP3    H218541   3.535   5.840   1.618  1.1865  1.6996  1.6581
 6179TIP3   OH218542   2.932   5.492   1.023  0.5458 -0.1138  0.7293
 6179TIP3    H118543   2.935   5.587   1.018 -0.2907 -0.0439  1.2797
 6179TIP3    H218544   2.912   5.464   0.933  2.9965  0.0739  0.0680
 6180TIP3   OH218545   5.317   5.029   1.025  0.2233  0.5132 -0.1383
 6180TIP3    H118546   5.340   4.974   0.951 -0.8221  2.3872 -1.9600
 6180TIP3    H218547   5.374   5.106   1.018  0.4275  0.5319  1.2930
 6181TIP3   OH218548   1.326   0.495   2.766 -0.5741 -0.2644  0.2677
 6181TIP3    H118549   1.325   0.545   2.848 -0.5431  0.4433 -0.1589
 6181TIP3    H218550   1.406   0.443   2.772 -0.6124 -0.2799  0.7256
 6182TIP3   OH218551   6.206   2.755   4.914  0.1300 -0.1268  0.0805
 6182TIP3    H118552   6.120   2.797   4.915  0.3317  0.3016  1.4111
 6182TIP3    H218553   6.254   2.796   4.986  1.1617 -0.9561 -0.1021
 6183TIP3   OH218554   4.519   2.433   3.588 -0.3530  0.0567  0.1592
 6183TIP3    H118555   4.554   2.503   3.533  1.4030 -1.3753 -0.6567
 6183TIP3    H218556   4.482   2.478   3.664 -0.3975  1.9193 -0.9123
 6184TIP3   OH218557   1.728   0.973   3.871  0.4752  0.0942 -0.3038
 6184TIP3    H118558   1.713   0.879   3.875 -2.0554  0.4394  0.5290
 6184TIP3    H218559   1.666   1.009   3.935  0.9731  2.3606 -1.0144
 6185TIP3   OH218560   3.966   0.941   4.056 -0.1252  0.1342  0.3002
 6185TIP3    H118561   4.019   0.898   3.989 -1.0368  0.1750 -0.4770
 6185TIP3    H218562   3.964   0.879   4.129 -0.4242 -0.6187 -0.3349
 6186TIP3   OH218563   5.573   1.903   2.879 -0.1743  0.3378  0.1072
 6186TIP3    H118564   5.492   1.953   2.872 -2.0219 -2.2245  1.4713
 6186TIP3    H218565   5.561   1.829   2.820  2.3209  1.1619 -1.5844
 6187TIP3   OH218566   2.260   5.422   0.513 -0.2274 -0.3520  0.0403
 6187TIP3    H118567   2.230   5.354   0.453 -0.0877 -0.1161 -0.2958
 6187TIP3    H218568   2.198   5.418   0.586 -1.6482  0.7506 -1.0545
 6188TIP3   OH218569   1.654   1.817   3.610 -0.1812 -0.4481  0.4318
 6188TIP3    H118570   1.747   1.816   3.587 -0.1901 -0.5778  0.4041
 6188TIP3    H218571   1.653   1.842   3.703 -0.1120 -0.5796  0.4687
 6189TIP3   OH218572   5.475   5.841   2.034  0.2765  0.0205  0.2055
 6189TIP3    H118573   5.558   5.888   2.035  0.7448 -0.8083  0.8799
 6189TIP3    H218574   5.499   5.748   2.035 -0.6530 -0.2303  0.3067
 6190TIP3   OH218575   4.579   5.086   0.021 -0.3067  0.0174 -0.8301
 6190TIP3    H118576   4.630   5.047   0.091  0.0085  0.8414 -0.5826
 6190TIP3    H218577   4.494   5.106   0.062 -0.6195 -0.7760 -1.0712
 6191TIP3   OH218578   0.882   3.775   3.165  0.5636  0.2331 -0.4323
 6191TIP3    H118579   0.950   3.807   3.225 -1.7520  2.7103  1.0758
 6191TIP3    H218580   0.887   3.834   3.090  0.3684  0.1497 -0.5123
 6192TIP3   OH218581   4.171   3.382   2.889 -0.2628 -0.1848 -0.5759
 6192TIP3    H118582   4.087   3.337   2.889 -0.0237 -0.7446  1.3543
 6192TIP3    H218583   4.207   3.367   2.801 -1.5118 -1.2005 -0.9415
 6193TIP3   OH218584   3.519   2.594   0.966  0.0183  0.1596 -0.3725
 6193TIP3    H118585   3.442   2.647   0.986  0.2605  0.4572 -0.2230
 6193TIP3    H218586   3.539   2.550   1.048  1.2481  1.6816  0.1791
 6194TIP3   OH218587   4.999   4.312   0.972 -0.0703 -0.2519  0.3500
 6194TIP3    H118588   4.986   4.292   0.880  0.6460 -2.1595  0.6148
 6194TIP3    H218589   4.924   4.273   1.016  0.7268 -1.3722  0.7668
 6195TIP3   OH218590   5.257   3.828   0.611 -0.4102  0.2898  0.8653
 6195TIP3    H118591   5.222   3.830   0.521  2.3687  0.0514 -0.3390
 6195TIP3    H218592   5.243   3.917   0.644 -2.1235  0.1887  0.5266
 6196TIP3   OH218593   4.256   3.032   3.090 -0.2708  0.3786 -0.8022
 6196TIP3    H118594   4.203   3.041   3.010 -1.3061 -0.9869 -0.3051
 6196TIP3    H218595   4.251   2.939   3.112  0.8744  0.5488  0.2772
 6197TIP3   OH218596   4.136   1.996   4.733 -0.0174  0.0248 -0.5532
 6197TIP3    H118597   4.119   1.903   4.721 -0.9220  0.0964  0.0794
 6197TIP3    H218598   4.203   2.000   4.800  1.8044 -0.2242 -2.2620
 6198TIP3   OH218599   5.367   4.421   0.338  0.0402  0.2737  0.3895
 6198TIP3    H118600   5.403   4.506   0.361 -2.3186  2.1015 -2.1607
 6198TIP3    H218601   5.273   4.430   0.352 -0.2193 -2.1742  0.6634
 6199TIP3   OH218602   4.976   3.211   4.188  0.0993 -0.2922 -0.1017
 6199TIP3    H118603   4.916   3.145   4.224 -0.4348  0.9218  1.3463
 6199TIP3    H218604   5.061   3.189   4.226 -0.4619  0.9901  2.0793
 6200TIP3   OH218605   4.565   3.162   0.375 -0.0779  0.0441  0.9130
 6200TIP3    H118606   4.473   3.179   0.353  0.1717 -1.8152 -2.1858
 6200TIP3    H218607   4.612   3.240   0.343 -0.2940 -0.3775 -0.4991
 6201TIP3   OH218608   0.080   4.859   0.584 -0.5597 -0.4484  0.1667
 6201TIP3    H118609   0.064   4.952   0.566 -1.5443 -0.4524  0.9141
 6201TIP3    H218610   0.131   4.859   0.665 -1.7963 -0.5657  0.9792
 6202TIP3   OH218611   1.977   0.941   4.058 -0.0879 -0.3272 -0.1471
 6202TIP3    H118612   1.964   0.852   4.025  1.8032 -0.4969 -0.5687
 6202TIP3    H218613   2.026   0.929   4.139  0.0228  0.3124 -0.1147
 6203TIP3   OH218614   1.567   3.510   2.334 -0.0459  0.2111 -0.3649
 6203TIP3    H118615   1.609   3.472   2.257 -0.2723  1.6388 -1.2450
 6203TIP3    H218616   1.500   3.447   2.359  0.8337 -0.8389 -0.5932
 6204TIP3   OH218617   2.726   4.954   2.515  0.1204 -0.2538 -0.1422
 6204TIP3    H118618   2.639   4.929   2.483 -0.0948 -0.6164  0.7038
 6204TIP3    H218619   2.782   4.952   2.437 -0.6956  0.3125 -0.7550
 6205TIP3   OH218620   1.994   3.412   3.676  0.2128  0.6865 -0.5028
 6205TIP3    H118621   2.072   3.373   3.635  2.0240  1.3647  2.0569
 6205TIP3    H218622   1.941   3.337   3.703  0.6411  0.1759 -1.0564
 6206TIP3   OH218623   3.890   5.791   3.684  0.1431 -0.0799 -0.0783
 6206TIP3    H118624   3.964   5.747   3.641  1.0072  1.5456 -0.3281
 6206TIP3    H218625   3.912   5.884   3.682 -1.5623  0.3882  0.5485
 6207TIP3   OH218626   1.213   2.577   3.558 -0.3928  0.1473  0.0368
 6207TIP3    H118627   1.253   2.491   3.546  0.7801  0.6252  0.3706
 6207TIP3    H218628   1.133   2.574   3.505 -0.5514 -1.2537  0.3053
 6208TIP3   OH218629   4.794   1.846   1.349  0.2623  0.0811  0.1448
 6208TIP3    H118630   4.839   1.771   1.310  1.3249  0.9609 -0.3785
 6208TIP3    H218631   4.705   1.842   1.313  1.4027  1.3481 -3.2078
 6209TIP3   OH218632   1.818   4.557   2.402 -0.4427 -0.3262  0.4032
 6209TIP3    H118633   1.883   4.624   2.378 -0.5244 -0.2640  0.3538
 6209TIP3    H218634   1.742   4.578   2.349 -0.1753 -0.9855 -0.2667
 6210TIP3   OH218635   1.194   0.236   2.872  0.7062 -0.7251 -0.2996
 6210TIP3    H118636   1.123   0.239   2.936  0.1512  1.4896 -0.9073
 6210TIP3    H218637   1.273   0.221   2.924  0.1819  0.2465  0.8289
 6211TIP3   OH218638   1.939   3.042   1.805  0.6802 -0.2170  0.2891
 6211TIP3    H118639   1.946   3.049   1.901 -0.3807  2.1422  0.2605
 6211TIP3    H218640   1.847   3.056   1.787  0.5141 -2.4872 -1.0368
 6212TIP3   OH218641   3.718   3.734   1.792  0.3064  0.5206 -0.5240
 6212TIP3    H118642   3.658   3.740   1.718 -0.6296  0.2778  0.1955
 6212TIP3    H218643   3.736   3.640   1.801  0.2076  0.5229 -0.2871
 6213TIP3   OH218644   2.188   2.247   4.463 -0.3425  0.2040  0.2732
 6213TIP3    H118645   2.093   2.253   4.477 -0.5503 -0.2211 -0.8733
 6213TIP3    H218646   2.225   2.253   4.551 -1.4890 -0.8131  0.8520
 6214TIP3   OH218647   5.998   3.369   2.581 -0.0055  0.3779  0.0346
 6214TIP3    H118648   6.029   3.291   2.536  0.8271  1.0668 -0.6184
 6214TIP3    H218649   5.938   3.336   2.648 -1.7068 -0.6537 -1.8858
 6215TIP3   OH218650   5.544   5.713   2.364 -0.1459 -0.4465 -0.0554
 6215TIP3    H118651   5.616   5.674   2.414  0.9321  1.1974 -0.2573
 6215TIP3    H218652   5.581   5.792   2.326 -1.4129 -0.7752 -2.1274
 6216TIP3   OH218653   4.370   5.827   1.812 -0.3816 -0.4675 -0.7598
 6216TIP3    H118654   4.367   5.827   1.717 -0.0109  0.1309 -0.7815
 6216TIP3    H218655   4.299   5.768   1.839 -0.5243 -0.5950 -1.3991
 6217TIP3   OH218656   4.971   4.949   2.114 -0.2165  0.2609 -0.6096
 6217TIP3    H118657   5.032   5.011   2.073 -0.7877  0.5352 -1.0660
 6217TIP3    H218658   4.999   4.864   2.083  0.0437  0.3693 -0.6760
 6218TIP3   OH218659   4.256   4.154   1.029 -0.0376 -0.4764  0.4717
 6218TIP3    H118660   4.213   4.099   1.094 -0.0342 -0.9746  0.0564
 6218TIP3    H218661   4.345   4.118   1.022  0.6435  0.8412  1.6835
 6219TIP3   OH218662   2.684   3.132   2.546 -0.5554  1.2023  0.0595
 6219TIP3    H118663   2.737   3.088   2.480 -0.4588  0.0452  0.8648
 6219TIP3    H218664   2.609   3.074   2.558  0.5029  0.1977  2.5096
 6220TIP3   OH218665   2.578   4.235   1.943 -0.6351 -0.0001  0.1907
 6220TIP3    H118666   2.608   4.175   2.012  1.0969  0.7436  0.1470
 6220TIP3    H218667   2.537   4.178   1.878 -0.5877 -0.9366  0.9503
 6221TIP3   OH218668   5.862   0.270   4.381 -0.0388 -0.0889 -0.1113
 6221TIP3    H118669   5.914   0.334   4.430 -0.6817  0.5862 -0.2853
 6221TIP3    H218670   5.884   0.186   4.420 -0.7676  0.4574  1.5343
 6222TIP3   OH218671   5.968   3.218   3.898 -0.6206 -0.1403  0.2917
 6222TIP3    H118672   5.890   3.175   3.934 -0.6370 -1.3650 -1.1470
 6222TIP3    H218673   5.944   3.311   3.892 -0.8854  0.0108  2.6390
 6223TIP3   OH218674   6.265   0.869   0.924  0.2355 -0.6692 -0.2812
 6223TIP3    H118675   6.274   0.912   1.008  0.2625 -1.3737  0.0856
 6223TIP3    H218676   6.171   0.872   0.905  0.1996 -0.7248 -0.1092
 6224TIP3   OH218677   6.092   4.302   3.889 -0.0847  0.0392 -0.2569
 6224TIP3    H118678   6.037   4.242   3.838 -0.3936  0.0371  0.0700
 6224TIP3    H218679   6.177   4.300   3.845 -1.3773  3.2558 -3.4167
 6225TIP3   OH218680   0.375   2.527   2.147  0.2654 -0.4500  0.2213
 6225TIP3    H118681   0.457   2.515   2.099  0.0829  3.6668 -1.5694
 6225TIP3    H218682   0.402   2.540   2.238  1.6025  0.2026 -0.2428
 6226TIP3   OH218683   4.945   5.010   1.365  0.3883 -0.4248 -0.4485
 6226TIP3    H118684   4.916   5.098   1.388 -1.3451 -0.8234 -0.9091
 6226TIP3    H218685   4.971   5.016   1.273  1.5057 -0.1358 -0.1253
 6227TIP3   OH218686   0.942   1.258   0.216  0.0191  0.6410 -0.8122
 6227TIP3    H118687   0.876   1.212   0.164  0.8020 -0.7862 -0.5906
 6227TIP3    H218688   0.997   1.302   0.151  1.4225 -1.7161 -1.3160
 6228TIP3   OH218689   3.037   2.316   1.491  0.1220  0.1284  0.2027
 6228TIP3    H118690   2.959   2.365   1.464 -0.0528 -0.8429 -1.1090
 6228TIP3    H218691   3.035   2.320   1.587 -0.9903  0.9491  0.1688
 6229TIP3   OH218692   2.301   4.080   3.506 -0.3322  0.0119  0.2799
 6229TIP3    H118693   2.265   4.165   3.532 -0.5780 -0.3125  1.0359
 6229TIP3    H218694   2.324   4.038   3.589 -3.3117 -2.0492  0.2042
 6230TIP3   OH218695   2.308   2.270   4.703 -0.0124 -0.2556 -0.4536
 6230TIP3    H118696   2.384   2.212   4.702  0.3549  0.1734  0.5288
 6230TIP3    H218697   2.274   2.264   4.793 -0.4363  0.4408 -0.5533
 6231TIP3   OH218698   3.246   5.341   5.057 -0.4006 -0.0509 -0.0337
 6231TIP3    H118699   3.179   5.289   5.102 -0.5408 -0.5166 -0.7702
 6231TIP3    H218700   3.312   5.358   5.124  0.2927 -2.2713 -0.0858
 6232TIP3   OH218701   1.566   1.845   1.170 -0.2175  0.4263  0.0371
 6232TIP3    H118702   1.541   1.776   1.231  1.3228  0.6271  0.9549
 6232TIP3    H218703   1.570   1.924   1.224  1.7393  0.5042 -0.1485
 6233TIP3   OH218704   0.885   0.674   1.496 -0.5810 -0.2470 -0.6018
 6233TIP3    H118705   0.950   0.622   1.449 -0.3303  0.5664 -1.1826
 6233TIP3    H218706   0.847   0.731   1.429 -0.9887  0.1746 -0.0228
 6234TIP3   OH218707   3.703   1.527   4.984  0.2296 -0.4214  0.5846
 6234TIP3    H118708   3.776   1.466   4.972 -0.1750 -0.7434 -0.4236
 6234TIP3    H218709   3.628   1.470   5.001 -0.2812 -0.2859 -1.0141
 6235TIP3   OH218710   5.072   2.905   5.060  0.1326  0.4709 -0.4830
 6235TIP3    H118711   5.167   2.909   5.074  0.2238  1.3122 -1.2106
 6235TIP3    H218712   5.037   2.866   5.140  1.0322  0.8002  0.0812
 6236TIP3   OH218713   1.691   5.459   3.522 -0.1320  0.0159 -0.4175
 6236TIP3    H118714   1.662   5.377   3.483  1.1616 -0.5161 -0.3105
 6236TIP3    H218715   1.779   5.473   3.487 -0.2423  1.2440 -0.2574
 6237TIP3   OH218716   1.975   0.642   5.104 -0.3803 -0.1329  0.1014
 6237TIP3    H118717   1.895   0.693   5.116  0.4006  1.1506  0.0108
 6237TIP3    H218718   1.968   0.607   5.015 -2.0122 -2.2028  0.9717
 6238TIP3   OH218719   1.680   3.668   1.519  0.4499 -0.3172  0.6481
 6238TIP3    H118720   1.704   3.743   1.464 -2.2768  1.0223  1.1365
 6238TIP3    H218721   1.689   3.701   1.608  1.0852 -1.2421  0.9425
 6239TIP3   OH218722   3.942   4.526   0.523 -0.7256 -0.8654 -0.6383
 6239TIP3    H118723   3.916   4.476   0.600  2.2963 -3.4582 -1.0968
 6239TIP3    H218724   3.997   4.597   0.558  0.5646 -1.9824 -0.3157
 6240TIP3   OH218725   4.822   2.141   4.005 -0.5190  0.0358  0.1980
 6240TIP3    H118726   4.868   2.169   3.926  1.4480 -1.1548  0.8408
 6240TIP3    H218727   4.731   2.164   3.989 -0.0044  0.8455 -1.9330
 6241TIP3   OH218728   3.105   0.728   4.821 -0.1702 -0.1531  0.2267
 6241TIP3    H118729   3.050   0.651   4.803  0.4604 -0.5908  0.1217
 6241TIP3    H218730   3.160   0.736   4.744 -0.7979  0.9215 -0.1285
 6242TIP3   OH218731   1.277   2.902   1.790 -0.0275 -0.0044 -0.1870
 6242TIP3    H118732   1.241   2.821   1.826 -0.8340 -0.3838 -1.7780
 6242TIP3    H218733   1.203   2.963   1.791 -0.1077 -0.0607 -1.2538
 6243TIP3   OH218734   0.199   2.457   1.216  0.4457 -0.2988 -0.0307
 6243TIP3    H118735   0.279   2.500   1.246  0.5631  1.0584 -2.0896
 6243TIP3    H218736   0.224   2.366   1.203  1.8701  0.2274 -1.2501
 6244TIP3   OH218737   0.516   4.641   4.751  0.3302  0.0085 -0.6284
 6244TIP3    H118738   0.547   4.557   4.717  2.3494  0.9162 -1.1527
 6244TIP3    H218739   0.582   4.667   4.816 -0.9665  0.5799  0.5263
 6245TIP3   OH218740   4.352   4.498   1.710 -0.1432 -0.0630  0.0768
 6245TIP3    H118741   4.423   4.475   1.770 -0.0771 -0.1565 -0.0370
 6245TIP3    H218742   4.273   4.460   1.749 -0.0930 -0.1617  0.0811
 6246TIP3   OH218743   1.872   4.856   4.442  0.2519  0.0603  0.0661
 6246TIP3    H118744   1.784   4.868   4.407  0.1493 -1.5778 -0.3471
 6246TIP3    H218745   1.912   4.943   4.440 -1.0246  0.6526 -0.6261
 6247TIP3   OH218746   2.530   5.438   2.171  0.0776 -0.2464 -0.0086
 6247TIP3    H118747   2.479   5.420   2.092  1.4731  0.0449 -1.0169
 6247TIP3    H218748   2.602   5.375   2.167 -1.5878 -2.5692  2.8250
 6248TIP3   OH218749   5.937   4.051   2.945  0.6017  0.0537  0.5821
 6248TIP3    H118750   5.966   4.010   2.863 -0.2736  0.3577  0.1085
 6248TIP3    H218751   5.996   4.016   3.011  2.2635  0.8739 -0.3873
 6249TIP3   OH218752   1.919   2.323   1.237 -0.1410 -0.1455  0.5991
 6249TIP3    H118753   1.945   2.352   1.325  0.4533 -0.8217  0.6617
 6249TIP3    H218754   1.957   2.235   1.229  0.1969  0.0787 -0.4977
 6250TIP3   OH218755   4.719   5.665   2.088  0.0719 -0.0272 -0.2479
 6250TIP3    H118756   4.770   5.647   2.009 -1.6432 -0.2666 -1.3351
 6250TIP3    H218757   4.745   5.597   2.149  0.3588 -0.7176 -1.1186
 6251TIP3   OH218758   5.184   5.720   4.131  0.1419  0.0775  0.6731
 6251TIP3    H118759   5.230   5.772   4.197 -1.3069  3.2138 -0.5280
 6251TIP3    H218760   5.252   5.697   4.067  0.4872  3.4738 -0.4091
 6252TIP3   OH218761   4.082   3.152   0.318 -0.5169 -0.0692 -0.2733
 6252TIP3    H118762   4.094   3.210   0.394  1.2757  0.4538 -0.9163
 6252TIP3    H218763   4.095   3.209   0.243  3.8057 -1.6277 -0.9714
 6253TIP3   OH218764   0.312   0.422  -0.031 -0.4228  0.2032 -0.0061
 6253TIP3    H118765   0.254   0.379   0.033 -1.1296  0.1152 -0.6883
 6253TIP3    H218766   0.395   0.431   0.015 -0.2724 -1.7927  0.2098
 6254TIP3   OH218767   4.558   4.630   1.402 -0.2239 -0.2174 -0.2968
 6254TIP3    H118768   4.615   4.554   1.410  1.7517  1.1069 -1.0454
 6254TIP3    H218769   4.590   4.677   1.324 -2.3303  0.6205 -0.7508
 6255TIP3   OH218770   0.476   5.779   3.647  0.2809  0.1416 -0.3634
 6255TIP3    H118771   0.551   5.744   3.599  0.3966 -1.3102  0.8055
 6255TIP3    H218772   0.499   5.870   3.664  1.0600  0.1565 -1.4091
 6256TIP3   OH218773   5.470   4.480   3.459 -0.0757  0.0224  0.3164
 6256TIP3    H118774   5.527   4.537   3.510 -0.4775 -1.1106  2.1184
 6256TIP3    H218775   5.384   4.522   3.464 -0.1221 -0.1049  0.6096
 6257TIP3   OH218776   3.528   3.958   1.961  0.1525 -0.0715  0.4952
 6257TIP3    H118777   3.623   3.964   1.957  0.1187 -0.0002 -0.2790
 6257TIP3    H218778   3.510   3.865   1.977  0.2928 -0.7253 -2.5945
 6258TIP3   OH218779   3.075   2.149   4.112 -0.1307 -0.0601  0.1201
 6258TIP3    H118780   3.039   2.219   4.059  0.0067  3.0720  3.7589
 6258TIP3    H218781   3.000   2.093   4.132 -1.3012  1.7372  0.9391
 6259TIP3   OH218782   0.330   4.342   3.545 -0.2426 -0.1299  0.0800
 6259TIP3    H118783   0.376   4.315   3.465  0.9220  0.5872  0.4968
 6259TIP3    H218784   0.373   4.292   3.615  0.3302  0.9802  0.5467
 6260TIP3   OH218785   0.650   4.872   4.529  0.2803  0.1939 -0.6557
 6260TIP3    H118786   0.720   4.851   4.466 -0.7396 -2.2875 -1.0662
 6260TIP3    H218787   0.696   4.887   4.612  1.3992  0.1368 -1.2433
 6261TIP3   OH218788   3.604   5.031   2.485  0.1026  0.5896  1.1818
 6261TIP3    H118789   3.650   4.959   2.527 -1.2756 -0.0349  1.6604
 6261TIP3    H218790   3.630   5.109   2.534 -0.5385  0.0311  2.4343
 6262TIP3   OH218791   3.150   4.117   4.408 -0.4314 -0.1231  0.4406
 6262TIP3    H118792   3.203   4.189   4.374 -0.5555 -0.3973 -0.3531
 6262TIP3    H218793   3.194   4.091   4.488  1.0929 -0.8431 -0.5914
 6263TIP3   OH218794   1.533   2.421   3.208 -0.0567 -0.2861  0.0706
 6263TIP3    H118795   1.542   2.327   3.191  1.4276  0.3144 -3.0693
 6263TIP3    H218796   1.620   2.448   3.237  0.1403  0.4558 -1.1570
 6264TIP3   OH218797   1.081   1.248   3.263  0.0738 -0.1344 -0.3118
 6264TIP3    H118798   1.117   1.269   3.349 -1.9421 -1.3130  0.8996
 6264TIP3    H218799   1.151   1.201   3.218  1.4109  1.1408  0.3721
 6265TIP3   OH218800   2.958   4.521   3.648 -0.4729 -0.0255  0.0240
 6265TIP3    H118801   3.012   4.572   3.589 -1.3739 -0.2324 -1.0233
 6265TIP3    H218802   3.018   4.458   3.688 -0.0448 -0.8315 -1.7596
 6266TIP3   OH218803   1.887   3.806   0.803  0.4988 -0.0085  0.0621
 6266TIP3    H118804   1.805   3.855   0.803  1.5056  1.7710  0.7664
 6266TIP3    H218805   1.873   3.735   0.740 -1.4133  0.5008 -0.1390
 6267TIP3   OH218806   5.344   2.021   2.388  0.4457  0.3577 -0.2143
 6267TIP3    H118807   5.374   1.940   2.346 -1.3188  0.0982 -1.1007
 6267TIP3    H218808   5.424   2.071   2.405  1.4133 -0.6016 -1.7082
 6268TIP3   OH218809   2.030   5.123   2.091  0.2022 -0.3505  0.0714
 6268TIP3    H118810   1.969   5.196   2.088 -1.1386 -1.2207  3.0200
 6268TIP3    H218811   1.977   5.048   2.118  1.9849 -1.8811 -0.4799
 6269TIP3   OH218812   1.987   5.342   1.513 -0.3386 -0.0743  0.7347
 6269TIP3    H118813   1.986   5.271   1.449 -0.0495 -1.2067  1.9364
 6269TIP3    H218814   1.917   5.401   1.484 -0.0574 -0.4257 -0.7375
 6270TIP3   OH218815   4.010   0.246   0.326 -0.0709  0.3326  0.2555
 6270TIP3    H118816   4.087   0.264   0.273  1.9463 -2.2463  2.0481
 6270TIP3    H218817   3.997   0.325   0.379  2.5363  0.2146  1.1974
 6271TIP3   OH218818   1.880   2.514   0.474  0.2667 -0.7788 -0.2094
 6271TIP3    H118819   1.855   2.424   0.456  0.6490 -0.9240 -0.0406
 6271TIP3    H218820   1.928   2.509   0.558 -0.2548 -0.3316  0.1223
 6272TIP3   OH218821   0.109   4.077   4.553 -0.2652 -0.1040 -0.8511
 6272TIP3    H118822   0.063   4.064   4.470 -1.2734 -0.6378 -0.2207
 6272TIP3    H218823   0.078   4.007   4.610  1.2175 -0.3832 -0.3472
 6273TIP3   OH218824   5.455   4.184   3.384 -0.0518 -0.5625  0.4723
 6273TIP3    H118825   5.374   4.225   3.415 -0.2047 -0.4599 -0.0558
 6273TIP3    H218826   5.525   4.240   3.419 -0.2567  0.0883 -0.1513
 6274TIP3   OH218827   3.803   4.815   2.234  0.0967 -0.2336  0.2285
 6274TIP3    H118828   3.735   4.875   2.266 -0.5672 -0.9478  0.2019
 6274TIP3    H218829   3.883   4.844   2.277  0.3970  2.3785 -1.8428
 6275TIP3   OH218830   3.576   4.165   0.773  0.2546  0.2815  0.1605
 6275TIP3    H118831   3.574   4.082   0.822 -1.3637 -0.2559 -0.7511
 6275TIP3    H218832   3.556   4.232   0.839  0.7490 -0.1291  0.7402
 6276TIP3   OH218833   3.546   0.870   3.275 -0.0277 -0.0630 -0.0488
 6276TIP3    H118834   3.593   0.799   3.231 -0.0685 -1.4215  1.9882
 6276TIP3    H218835   3.456   0.861   3.244  0.1033 -0.4680 -0.3286
 6277TIP3   OH218836   1.283   0.817   4.605  0.4187 -0.5929  0.1490
 6277TIP3    H118837   1.249   0.866   4.680  1.0354  0.0327  0.0362
 6277TIP3    H218838   1.333   0.745   4.644  2.8330  1.1271  0.4539
 6278TIP3   OH218839   5.978   4.403   2.264  0.2815 -0.1865  0.0608
 6278TIP3    H118840   6.009   4.459   2.335  0.8873 -0.5682  0.1077
 6278TIP3    H218841   5.933   4.462   2.204 -0.0711  0.1720  0.6636
 6279TIP3   OH218842   4.054   0.269   2.082  0.2729  0.0902 -0.1905
 6279TIP3    H118843   4.020   0.180   2.086 -1.1471  0.6117  0.1516
 6279TIP3    H218844   4.095   0.276   1.996  0.1716 -0.8137 -0.3167
 6280TIP3   OH218845   5.417   0.990   4.620  0.3173  0.2187  0.4763
 6280TIP3    H118846   5.371   0.907   4.612  1.9346 -0.8236  1.4579
 6280TIP3    H218847   5.357   1.047   4.667 -0.0401 -1.0503  1.5976
 6281TIP3   OH218848   2.177   5.430   3.615 -0.1212 -0.1327 -0.0204
 6281TIP3    H118849   2.148   5.522   3.617 -2.0511 -0.6819 -0.0454
 6281TIP3    H218850   2.238   5.422   3.688 -0.9150  0.8798  0.7852
 6282TIP3   OH218851   0.949   0.772   1.734  0.0209 -0.2789 -0.1328
 6282TIP3    H118852   0.937   0.752   1.641 -1.0947 -0.1241 -0.0365
 6282TIP3    H218853   0.954   0.867   1.738 -2.4409 -0.1066  0.1914
 6283TIP3   OH218854   4.260   0.539   1.830 -0.4228 -0.1583  0.5384
 6283TIP3    H118855   4.218   0.625   1.833 -0.6892 -0.2497 -0.3471
 6283TIP3    H218856   4.346   0.555   1.792 -0.3788 -0.2542  0.5958
 6284TIP3   OH218857   0.066   1.978   0.524 -0.0290 -0.1414 -0.4104
 6284TIP3    H118858   0.009   1.972   0.448  1.8572  0.9197 -2.0035
 6284TIP3    H218859   0.098   2.069   0.523 -0.1912  0.0060  1.8618
 6285TIP3   OH218860   3.324   1.108   0.525  0.0645 -0.9584  0.5178
 6285TIP3    H118861   3.390   1.158   0.477 -0.3314 -0.7772  0.1518
 6285TIP3    H218862   3.308   1.031   0.470 -1.3888 -0.0756 -0.3563
 6286TIP3   OH218863   0.252   4.613   5.095  0.0874 -0.2082  0.0726
 6286TIP3    H118864   0.196   4.658   5.159  0.3396  0.0313  0.1258
 6286TIP3    H218865   0.198   4.540   5.064 -0.1544 -0.1415  0.3257
 6287TIP3   OH218866   5.343   5.211   1.980 -0.2264  0.4027 -0.2024
 6287TIP3    H118867   5.385   5.127   1.962  0.7146  0.8643 -0.2205
 6287TIP3    H218868   5.250   5.197   1.960 -0.0772 -0.6255 -0.2005
 6288TIP3   OH218869   0.893   1.823   0.373  0.4131  0.8543  0.4245
 6288TIP3    H118870   0.940   1.871   0.305  0.0535  2.1179  1.0380
 6288TIP3    H218871   0.959   1.805   0.439  0.6587  0.0365 -0.0264
 6289TIP3   OH218872   4.138   1.299   2.061  0.4370  0.3056 -0.2295
 6289TIP3    H118873   4.131   1.309   1.966 -1.0972 -1.1029 -0.3051
 6289TIP3    H218874   4.228   1.268   2.075  0.6348  0.3907 -1.2136
 6290TIP3   OH218875   2.798   3.195   1.567 -0.0693  0.1188 -0.3898
 6290TIP3    H118876   2.872   3.211   1.508 -1.2645  0.9022 -1.7354
 6290TIP3    H218877   2.815   3.252   1.642  2.0301 -1.6915  0.6105
 6291TIP3   OH218878   1.517   3.796   4.255  0.0353 -0.0543 -0.1035
 6291TIP3    H118879   1.458   3.813   4.327  0.9845  1.4289  0.3723
 6291TIP3    H218880   1.495   3.863   4.189  1.4413  0.8377  0.2794
 6292TIP3   OH218881   5.803   2.743   3.722  1.3523  0.0790 -0.2506
 6292TIP3    H118882   5.753   2.791   3.788 -0.1329 -1.5832 -0.0926
 6292TIP3    H218883   5.895   2.759   3.745  0.8779  1.1642  0.9877
 6293TIP3   OH218884   1.621   5.845   4.960  0.2472  0.0924  0.0668
 6293TIP3    H118885   1.662   5.833   5.046  1.1068  1.4591 -0.1339
 6293TIP3    H218886   1.576   5.930   4.967 -1.4540 -0.7460 -0.1636
 6294TIP3   OH218887   1.360   4.848   3.007 -0.2736  0.4371 -0.2727
 6294TIP3    H118888   1.320   4.769   3.043 -0.1946 -0.2953 -1.7060
 6294TIP3    H218889   1.389   4.898   3.083  0.0713 -1.1226  0.6591
 6295TIP3   OH218890   2.443   0.051   1.437 -0.5000  0.5900  0.0168
 6295TIP3    H118891   2.489  -0.015   1.489  1.4730  2.5848  0.9941
 6295TIP3    H218892   2.392   0.101   1.502 -0.3795  1.2534 -0.3909
 6296TIP3   OH218893   0.314   1.134   2.656  0.1705  0.0300 -0.0170
 6296TIP3    H118894   0.377   1.096   2.594  1.4293 -0.7956  1.6974
 6296TIP3    H218895   0.327   1.228   2.648  3.4799 -0.1119  1.9999
 6297TIP3   OH218896   0.891   4.679   2.627 -0.0262  0.4995 -0.2809
 6297TIP3    H118897   0.957   4.613   2.604  1.2928  1.3770  0.8521
 6297TIP3    H218898   0.839   4.638   2.696 -1.1116 -0.4202 -1.5781
 6298TIP3   OH218899   3.224   4.008   0.099  0.2758  1.0300  0.3534
 6298TIP3    H118900   3.247   3.984   0.009  3.2596  1.5575  0.8684
 6298TIP3    H218901   3.307   4.031   0.140 -0.9801  0.8360  3.2826
 6299TIP3   OH218902   0.106   5.646   1.454  0.0490  0.5821  0.4173
 6299TIP3    H118903   0.022   5.644   1.500  0.2521  2.2669  0.9528
 6299TIP3    H218904   0.171   5.664   1.522  1.1261 -2.2941  0.2841
 6300TIP3   OH218905   1.412   5.043   0.328  0.2532 -0.1810 -0.1872
 6300TIP3    H118906   1.427   4.953   0.299 -1.4606 -0.1601 -1.2971
 6300TIP3    H218907   1.385   5.035   0.419  0.9046 -0.7029 -0.0284
 6301TIP3   OH218908   5.578   1.103   2.281 -0.3146  0.0053  0.5697
 6301TIP3    H118909   5.535   1.187   2.264 -0.4510  0.0047  0.8973
 6301TIP3    H218910   5.661   1.126   2.323  0.7077  0.0806 -1.3574
 6302TIP3   OH218911   1.977   2.141   0.100 -0.0466 -0.1496 -0.2652
 6302TIP3    H118912   2.028   2.193   0.161  2.3281  0.0618 -2.2868
 6302TIP3    H218913   2.005   2.051   0.115  0.5722 -0.0934 -1.0013
 6303TIP3   OH218914   2.035   5.101   1.312 -0.0647 -0.1673 -0.0384
 6303TIP3    H118915   2.042   5.129   1.221 -0.9163 -2.1860 -0.7664
 6303TIP3    H218916   1.941   5.097   1.329  0.0544  2.1009  1.6178
 6304TIP3   OH218917   6.177   0.614   2.801  0.2593 -0.5149  0.4169
 6304TIP3    H118918   6.220   0.659   2.728 -0.0117 -1.9790 -0.6985
 6304TIP3    H218919   6.215   0.526   2.800 -0.1123 -0.7082  1.7470
 6305TIP3   OH218920   3.645   3.872   0.321 -0.0563 -0.8387  0.8437
 6305TIP3    H118921   3.735   3.900   0.306 -0.3880  0.0319  0.4287
 6305TIP3    H218922   3.640   3.785   0.281  0.2269 -0.3120 -0.3708
 6306TIP3   OH218923   2.267   3.760   3.006  0.4827 -0.0525 -0.4436
 6306TIP3    H118924   2.238   3.750   3.096 -2.5089 -2.6766 -1.5154
 6306TIP3    H218925   2.324   3.685   2.990  0.3534 -0.0529 -0.9348
 6307TIP3   OH218926   0.418   3.610   4.883 -0.2389 -0.3108  0.8870
 6307TIP3    H118927   0.389   3.601   4.973  2.2474  0.3254  1.8352
 6307TIP3    H218928   0.396   3.700   4.860  1.4383  0.3764  1.8207
 6308TIP3   OH218929   4.592   3.665   3.556  0.6171 -0.2563 -0.3585
 6308TIP3    H118930   4.678   3.689   3.521  0.5381  0.2094 -0.2405
 6308TIP3    H218931   4.572   3.581   3.517 -0.6802  1.3783 -3.5622
 6309TIP3   OH218932   4.666   3.779   1.436 -0.0794  0.3302  0.5529
 6309TIP3    H118933   4.744   3.749   1.388  0.3577 -0.3847  1.6701
 6309TIP3    H218934   4.700   3.808   1.521 -1.0575 -0.1721  1.1265
 6310TIP3   OH218935   4.254   5.186   0.545 -0.4621  0.4761 -0.3806
 6310TIP3    H118936   4.340   5.227   0.553  0.7389 -1.9597  0.4874
 6310TIP3    H218937   4.243   5.170   0.451 -0.9510  2.6286 -0.7264
 6311TIP3   OH218938   5.086   4.038   1.624  0.0739  0.0195  0.4114
 6311TIP3    H118939   5.125   3.953   1.602 -0.6725 -0.8503  2.2587
 6311TIP3    H218940   5.028   4.057   1.550  3.2451  0.9879 -2.0486
 6312TIP3   OH218941   1.927   4.429   3.962  0.2431  0.5244 -0.0531
 6312TIP3    H118942   1.869   4.504   3.979 -0.3238  0.0320  0.2394
 6312TIP3    H218943   1.870   4.352   3.974  1.0571  0.0153  0.6861
 6313TIP3   OH218944   2.324   4.617   3.640 -0.1983  0.1962 -0.1101
 6313TIP3    H118945   2.294   4.643   3.727 -1.6256  3.1151 -1.3545
 6313TIP3    H218946   2.278   4.534   3.624 -0.1033 -0.2701  1.7803
 6314TIP3   OH218947   4.465   0.323   3.120 -0.2840 -0.2896 -0.1175
 6314TIP3    H118948   4.402   0.383   3.079 -1.6941 -1.3457  0.4123
 6314TIP3    H218949   4.527   0.304   3.050 -0.1630  1.2727 -0.4815
 6315TIP3   OH218950   1.029   3.549   0.992  0.3341  0.2156 -0.2724
 6315TIP3    H118951   1.018   3.457   1.015  1.8853 -0.3441 -1.5134
 6315TIP3    H218952   0.944   3.576   0.957 -0.0258 -0.8735 -0.2704
 6316TIP3   OH218953   0.242   3.847   3.263  0.3361  0.5229  0.0562
 6316TIP3    H118954   0.304   3.774   3.256  1.5297  1.3825  1.2477
 6316TIP3    H218955   0.197   3.832   3.345 -0.7347  0.1619 -0.5792
 6317TIP3   OH218956   5.479   3.958   1.717 -0.3532 -0.1560 -0.4330
 6317TIP3    H118957   5.527   3.914   1.647  0.7342  0.3300 -0.0200
 6317TIP3    H218958   5.470   4.048   1.687  1.4215  0.4265  0.6472
 6318TIP3   OH218959   4.479   5.574   1.560  0.0859  0.0915  0.9660
 6318TIP3    H118960   4.445   5.574   1.470  1.6356 -2.0045  0.2752
 6318TIP3    H218961   4.513   5.485   1.572 -1.4116 -0.1906  4.2152
 6319TIP3   OH218962   1.493   1.387   4.196  0.1962 -0.3184  0.0110
 6319TIP3    H118963   1.427   1.457   4.195 -0.7904 -1.2058 -1.6191
 6319TIP3    H218964   1.448   1.312   4.157  1.6390 -1.4946  0.5223
 6320TIP3   OH218965   0.988   0.310   3.063  0.0718  0.0039  0.9070
 6320TIP3    H118966   1.032   0.379   3.113 -1.3173 -0.2572  2.6029
 6320TIP3    H218967   0.900   0.344   3.048 -0.5022 -1.1901  1.4079
 6321TIP3   OH218968   1.823   4.181   4.722  0.1671 -0.8955  0.1004
 6321TIP3    H118969   1.797   4.134   4.643  0.0336 -1.5727  0.5402
 6321TIP3    H218970   1.909   4.146   4.744  1.5893  1.4195 -1.4140
 6322TIP3   OH218971   5.498   3.731   0.162  0.2679  0.4404 -0.2171
 6322TIP3    H118972   5.464   3.803   0.216  0.1456  0.6831 -0.6130
 6322TIP3    H218973   5.447   3.655   0.190  1.2038  0.2397  1.0454
 6323TIP3   OH218974   5.869   0.053   3.177  0.0781 -0.2598  0.0179
 6323TIP3    H118975   5.904   0.036   3.089  1.3741  2.1964 -0.0231
 6323TIP3    H218976   5.791   0.107   3.161 -0.0459 -0.3377  0.3542
 6324TIP3   OH218977   4.284   1.784   2.128  0.3469 -0.3551 -0.5168
 6324TIP3    H118978   4.231   1.816   2.055  0.3187  0.7603 -0.0282
 6324TIP3    H218979   4.226   1.724   2.176 -0.2149  0.2305 -0.4458
 6325TIP3   OH218980   6.259   3.949   2.303  0.1447 -0.8541 -0.1523
 6325TIP3    H118981   6.222   4.017   2.246  1.0709 -1.0808 -1.0442
 6325TIP3    H218982   6.182   3.899   2.333 -0.3148 -1.3683 -2.0371
 6326TIP3   OH218983   2.548   4.684   2.182 -0.1060 -0.0292  0.2154
 6326TIP3    H118984   2.557   4.589   2.184  0.8785  0.0594  0.3869
 6326TIP3    H218985   2.565   4.707   2.091  0.6692  0.0591  0.3700
 6327TIP3   OH218986   1.467   1.726   1.403  0.0088  0.3036 -0.2087
 6327TIP3    H118987   1.431   1.640   1.382 -1.4823  0.6884  0.5590
 6327TIP3    H218988   1.514   1.713   1.485  0.9215 -0.0356 -0.7788
 6328TIP3   OH218989   3.686   2.488   0.437  0.0939 -0.3124 -0.2006
 6328TIP3    H118990   3.647   2.457   0.519 -1.3513  0.2693 -0.6443
 6328TIP3    H218991   3.775   2.511   0.460  0.2676 -1.8507  0.8200
 6329TIP3   OH218992   1.099   5.421   1.951 -0.0001 -0.6293  0.2334
 6329TIP3    H118993   1.120   5.493   2.010 -0.3017 -2.3019  2.5147
 6329TIP3    H218994   1.005   5.406   1.964  0.1732 -1.7921  0.2213
 6330TIP3   OH218995   5.081   2.597   2.888  0.2879  0.3871  0.1679
 6330TIP3    H118996   5.060   2.546   2.810 -2.1944  1.2227  0.2247
 6330TIP3    H218997   5.121   2.677   2.855  2.0150 -0.4847 -0.0238
 6331TIP3   OH218998   2.120   3.188   0.050  0.2126  0.0855 -0.5687
 6331TIP3    H118999   2.151   3.215  -0.036 -0.3938  1.0903 -0.4893
 6331TIP3    H219000   2.079   3.267   0.086 -0.7784 -0.6908  0.0609
 6332TIP3   OH219001   5.603   2.332   2.971 -0.4976 -0.2357 -0.9187
 6332TIP3    H119002   5.575   2.286   3.050  0.6099  0.6862  0.0370
 6332TIP3    H219003   5.592   2.425   2.991  2.2834  0.1561 -0.7944
 6333TIP3   OH219004   1.684   3.857   1.087 -1.0454  0.0160 -0.4524
 6333TIP3    H119005   1.733   3.936   1.112 -0.9359 -0.3138  0.4103
 6333TIP3    H219006   1.609   3.856   1.146 -1.6297  0.0378 -1.1778
 6334TIP3   OH219007   4.838   4.408   1.756 -0.3941 -0.3614 -0.4086
 6334TIP3    H119008   4.851   4.435   1.847 -0.4768  0.0631 -0.5215
 6334TIP3    H219009   4.801   4.320   1.762  0.2219 -0.6033 -0.0416
 6335TIP3   OH219010   5.931   3.478   1.832 -1.1942 -0.0244  0.5504
 6335TIP3    H119011   5.906   3.567   1.809 -0.3099  0.7046  2.2238
 6335TIP3    H219012   5.942   3.480   1.927  0.2241 -1.5579  0.4643
 6336TIP3   OH219013   5.516   3.590   2.640 -1.1162  0.3035  0.0744
 6336TIP3    H119014   5.550   3.623   2.557 -1.0248  0.4165  0.1552
 6336TIP3    H219015   5.579   3.621   2.705 -1.2898  0.3830  0.2080
 6337TIP3   OH219016   3.915   2.883   0.739  0.5080  0.6180  0.4715
 6337TIP3    H119017   3.854   2.846   0.804  0.2999  1.4049  0.7298
 6337TIP3    H219018   3.998   2.888   0.785  0.4081  0.9809  0.6178
 6338TIP3   OH219019   1.990   1.834   2.240 -0.4529 -0.5712 -0.0497
 6338TIP3    H119020   2.042   1.865   2.314 -3.4705 -1.2909  2.6647
 6338TIP3    H219021   1.937   1.909   2.215 -1.1813 -0.9746  0.2391
 6339TIP3   OH219022   5.987   2.369   5.143 -0.4080  0.4015 -0.5609
 6339TIP3    H119023   5.924   2.434   5.173  0.5877  1.0096  0.2288
 6339TIP3    H219024   6.061   2.420   5.110  0.8285 -0.2991  1.0032
 6340TIP3   OH219025   3.835   2.178   3.639 -0.2416  0.5861  0.0727
 6340TIP3    H119026   3.823   2.261   3.684  1.2613 -0.5593  2.8718
 6340TIP3    H219027   3.755   2.129   3.656  0.4257  0.0488  1.9782
 6341TIP3   OH219028   1.938   1.732   1.361 -0.4305 -0.4961 -0.0746
 6341TIP3    H119029   1.866   1.670   1.351  0.6698 -1.9999  0.8535
 6341TIP3    H219030   2.006   1.700   1.303  0.1370 -0.1195  0.3673
 6342TIP3   OH219031   4.960   4.805   4.004 -0.0757  0.1287  0.0560
 6342TIP3    H119032   4.885   4.856   4.037  0.4553  0.7475  0.3373
 6342TIP3    H219033   4.995   4.761   4.082  1.0265  1.3900  0.3107
 6343TIP3   OH219034   3.790   3.638   3.718  0.0032 -0.1089  0.2479
 6343TIP3    H119035   3.877   3.642   3.677  0.1027  0.0017  0.4701
 6343TIP3    H219036   3.786   3.717   3.772 -1.0575  1.0442 -1.4052
 6344TIP3   OH219037   3.996   0.526   0.895  0.0044  0.1373  0.2708
 6344TIP3    H119038   4.009   0.606   0.946  0.2048 -0.0924  0.5769
 6344TIP3    H219039   4.065   0.467   0.923 -0.7718 -0.5365  0.8177
 6345TIP3   OH219040   3.303   5.928   4.170  0.4794  0.2572  0.0677
 6345TIP3    H119041   3.242   5.933   4.243  1.1705  0.0849  0.6726
 6345TIP3    H219042   3.252   5.955   4.093  0.2322  2.3457  0.9059
 6346TIP3   OH219043   5.205   5.264   0.463 -0.5527 -0.3439 -0.6500
 6346TIP3    H119044   5.191   5.202   0.392 -2.0218 -0.9200  0.0988
 6346TIP3    H219045   5.153   5.229   0.535  1.4312 -0.1565  0.9608
 6347TIP3   OH219046   0.394   5.945   4.857 -0.6169 -0.2079 -0.6210
 6347TIP3    H119047   0.354   5.939   4.944 -0.2339 -2.0058 -0.5391
 6347TIP3    H219048   0.451   5.869   4.852  2.4723  1.9480 -0.9275
 6348TIP3   OH219049   1.322   0.583   3.035 -0.0489 -0.1121  0.3329
 6348TIP3    H119050   1.385   0.645   3.071  1.8506 -0.1415 -2.5977
 6348TIP3    H219051   1.350   0.498   3.069 -0.4508  0.1978  1.4901
 6349TIP3   OH219052   0.626   4.403   4.628  0.0686 -0.1252  0.1464
 6349TIP3    H119053   0.607   4.346   4.702  0.9500 -0.6256  0.0095
 6349TIP3    H219054   0.634   4.344   4.553  0.4074  0.2345 -0.1086
 6350TIP3   OH219055   1.442   1.659   4.447  0.3296  0.0412  0.0409
 6350TIP3    H119056   1.434   1.609   4.528 -2.2253 -2.1555 -1.4166
 6350TIP3    H219057   1.409   1.600   4.379 -0.3970  2.8035 -2.1855
 6351TIP3   OH219058   2.209   0.697   4.885  0.0735 -0.2769  0.1814
 6351TIP3    H119059   2.150   0.625   4.865 -0.1604  0.2360 -1.0767
 6351TIP3    H219060   2.189   0.764   4.819  1.8443  0.0395 -0.0903
 6352TIP3   OH219061   0.661   4.948   5.062  0.6397  0.1741 -0.0727
 6352TIP3    H119062   0.697   4.876   5.113 -0.0362  0.0855  0.2852
 6352TIP3    H219063   0.738   4.997   5.032  1.1611 -1.2731 -1.2087
 6353TIP3   OH219064   4.582   5.427   1.084  0.3542  0.7604 -0.5412
 6353TIP3    H119065   4.667   5.461   1.112 -0.7556  1.0385  3.0351
 6353TIP3    H219066   4.587   5.333   1.100 -0.3910  0.9614  1.1530
 6354TIP3   OH219067   3.921   1.927   2.738  0.1724 -0.1626 -0.1031
 6354TIP3    H119068   3.839   1.973   2.757  0.2389  0.7934 -1.9979
 6354TIP3    H219069   3.897   1.834   2.744 -0.7234  0.0909  0.6189
 6355TIP3   OH219070   3.313   5.171   0.540 -0.2722  0.1827  0.0420
 6355TIP3    H119071   3.332   5.264   0.533  1.2639 -0.0470  0.7422
 6355TIP3    H219072   3.219   5.164   0.523 -0.5146  1.9114  0.5217
 6356TIP3   OH219073   5.486   5.228   1.059  0.1567  0.3153 -0.0798
 6356TIP3    H119074   5.521   5.293   0.998  0.5302  0.5278  0.3558
 6356TIP3    H219075   5.561   5.172   1.079 -0.6925 -1.9519 -2.5284
 6357TIP3   OH219076   5.256   1.785   4.509  0.0953  0.0990 -0.2978
 6357TIP3    H119077   5.242   1.690   4.509 -0.1101  0.1250 -0.5882
 6357TIP3    H219078   5.336   1.797   4.457  2.3285 -0.1818  2.8133
 6358TIP3   OH219079   1.824   1.687   4.772 -0.0947 -0.2770 -0.4370
 6358TIP3    H119080   1.744   1.735   4.752 -0.6937 -1.9594 -2.3365
 6358TIP3    H219081   1.848   1.717   4.860 -2.5533  0.5824  0.0235
 6359TIP3   OH219082   2.086   2.867   0.847  0.3172  0.6076  0.1654
 6359TIP3    H119083   2.153   2.817   0.800  1.0120  1.4517  0.2409
 6359TIP3    H219084   2.097   2.841   0.939 -0.6332 -0.5713 -0.0208
 6360TIP3   OH219085   2.673   4.773   3.498  0.1795 -0.6864  0.0732
 6360TIP3    H119086   2.749   4.798   3.446  0.6627 -0.6350  0.7941
 6360TIP3    H219087   2.669   4.838   3.568 -0.1733 -1.0325  0.3815
 6361TIP3   OH219088   3.282   2.720   1.049  0.4202  0.5136  0.1931
 6361TIP3    H119089   3.294   2.681   1.135  1.6846  2.8292  1.1380
 6361TIP3    H219090   3.243   2.806   1.066  0.3929  0.8923 -1.5825
 6362TIP3   OH219091   5.171   1.395   0.910  0.0375 -0.1410 -0.2659
 6362TIP3    H119092   5.262   1.424   0.912  0.1517 -0.4624 -0.5845
 6362TIP3    H219093   5.174   1.306   0.944 -0.5532  0.7844  2.4033
 6363TIP3   OH219094   4.661   3.331   4.212  0.3029  0.6468  0.6240
 6363TIP3    H119095   4.597   3.335   4.141  0.2707 -0.5014  0.5745
 6363TIP3    H219096   4.733   3.387   4.184  1.0976 -1.1390 -1.1466
 6364TIP3   OH219097   6.013   1.510   1.256 -0.4717 -0.7242 -0.0406
 6364TIP3    H119098   5.997   1.604   1.244 -0.6388 -0.7168  0.2404
 6364TIP3    H219099   6.100   1.496   1.219 -0.6340 -0.5469 -0.5086
 6365TIP3   OH219100   1.719   0.281   2.407 -0.2106 -0.2645 -0.0713
 6365TIP3    H119101   1.732   0.355   2.466  1.3607 -0.0041 -0.6911
 6365TIP3    H219102   1.663   0.315   2.338 -0.8903 -0.1633  0.5186
 6366TIP3   OH219103   4.610   1.165   1.496  0.2929 -0.6618  0.3837
 6366TIP3    H119104   4.542   1.131   1.437 -2.6914  2.4996  1.6378
 6366TIP3    H219105   4.665   1.219   1.440 -0.7874  0.0423 -0.0427
 6367TIP3   OH219106   0.349   5.687   0.152 -0.2833  0.2876 -0.1560
 6367TIP3    H119107   0.437   5.660   0.125  0.5102 -1.9062  3.8439
 6367TIP3    H219108   0.346   5.781   0.134  2.6706  0.3309 -0.9344
 6368TIP3   OH219109   0.135   3.787   4.681  0.2494 -0.2985  0.1752
 6368TIP3    H119110   0.218   3.751   4.649 -0.2461 -1.9715  0.6804
 6368TIP3    H219111   0.068   3.727   4.647 -0.6337  0.2826  0.8570
 6369TIP3   OH219112   3.224   3.842   4.790 -0.2849 -0.2687 -0.5524
 6369TIP3    H119113   3.130   3.840   4.773 -0.3952  0.7520 -0.1423
 6369TIP3    H219114   3.231   3.867   4.882  0.3869  0.0675 -0.6908
 6370TIP3   OH219115   0.707   1.405   2.572  0.4431  0.3007 -0.3788
 6370TIP3    H119116   0.731   1.315   2.548 -0.5707 -0.0271 -0.2205
 6370TIP3    H219117   0.653   1.395   2.650  1.8674  1.1970  0.7815
 6371TIP3   OH219118   1.326   2.388   3.805  0.2389  0.4987  0.1265
 6371TIP3    H119119   1.262   2.336   3.853  2.1212 -0.6412  1.5781
 6371TIP3    H219120   1.281   2.414   3.725 -1.5852 -1.3382  0.4615
 6372TIP3   OH219121   4.773   5.040   0.275  0.1716  0.4046  0.3103
 6372TIP3    H119122   4.856   4.992   0.270  0.7695  1.0010  2.8544
 6372TIP3    H219123   4.750   5.036   0.368  0.5721  5.4191  0.9037
 6373TIP3   OH219124   1.215   1.431   2.710 -0.0507 -0.2600  0.1595
 6373TIP3    H119125   1.228   1.521   2.677  0.7239 -0.3870  0.0793
 6373TIP3    H219126   1.205   1.378   2.631 -0.0480 -0.3028  0.1875
 6374TIP3   OH219127   0.973   4.828   3.714  0.3244  0.6397 -0.2556
 6374TIP3    H119128   0.913   4.753   3.707 -0.1074  0.9318  0.2637
 6374TIP3    H219129   1.042   4.797   3.772  1.0711  0.0635 -1.3923
 6375TIP3   OH219130   5.257   2.995   4.686  0.4708 -0.4335 -0.2708
 6375TIP3    H119131   5.199   3.037   4.622  0.9403  0.9202  0.1687
 6375TIP3    H219132   5.281   3.065   4.746 -0.9082 -1.8759  2.1417
 6376TIP3   OH219133   2.245   5.165   4.914  0.2792 -0.3127 -0.2973
 6376TIP3    H119134   2.224   5.076   4.885 -0.6305 -0.7425  1.5108
 6376TIP3    H219135   2.266   5.212   4.833  2.0842 -2.4725 -1.1895
 6377TIP3   OH219136   1.624   1.893   3.859 -0.7461  0.3867 -0.5034
 6377TIP3    H119137   1.590   1.982   3.855  0.5419  1.1686  2.9267
 6377TIP3    H219138   1.546   1.838   3.869 -1.3864  1.5096  0.9178
 6378TIP3   OH219139   3.840   5.787   4.063 -0.5025  0.1565 -0.2681
 6378TIP3    H119140   3.912   5.733   4.097 -0.7400  1.8313  3.3423
 6378TIP3    H219141   3.761   5.752   4.104 -1.1124  1.1297 -0.5688
 6379TIP3   OH219142   0.946   5.179   1.116  0.0099  0.5051 -0.3471
 6379TIP3    H119143   1.012   5.131   1.065 -1.4090  0.2450 -2.0605
 6379TIP3    H219144   0.890   5.111   1.152  0.8481  0.7069  1.4205
 6380TIP3   OH219145   0.614   4.886   1.019  0.6941  0.8451 -0.3110
 6380TIP3    H119146   0.610   4.798   1.057 -0.1896  0.2619 -1.6754
 6380TIP3    H219147   0.634   4.871   0.926 -0.4944  2.0042 -0.7855
 6381TIP3   OH219148   0.789   5.766   3.893 -0.3769  0.9851  0.1497
 6381TIP3    H119149   0.845   5.766   3.970  0.3602 -2.3545 -0.2519
 6381TIP3    H219150   0.700   5.776   3.928 -0.0938 -0.8979  1.5477
 6382TIP3   OH219151   0.147   4.295   1.702 -0.1244  0.4637 -0.0174
 6382TIP3    H119152   0.146   4.255   1.615 -0.7632  0.3406  0.0449
 6382TIP3    H219153   0.060   4.278   1.737 -0.2312  1.4400  0.2240
 6383TIP3   OH219154   0.044   4.863   3.657  0.4978 -0.2485 -0.6316
 6383TIP3    H119155   0.133   4.838   3.631  0.4289 -1.7501  0.5087
 6383TIP3    H219156   0.042   4.958   3.644  2.8815  0.1308  1.0392
 6384TIP3   OH219157   0.320   0.072   4.872  0.0538  0.2163 -0.3953
 6384TIP3    H119158   0.255   0.019   4.918  1.2570 -2.5492 -1.6702
 6384TIP3    H219159   0.285   0.080   4.783  0.6322  0.2277 -0.6222
 6385TIP3   OH219160   3.443   3.642   2.499  0.2063 -0.0659 -0.1807
 6385TIP3    H119161   3.427   3.550   2.478 -0.1408  0.1930 -1.0938
 6385TIP3    H219162   3.533   3.645   2.530  0.0745 -0.7821  0.3064
 6386TIP3   OH219163   3.588   1.465   0.850  0.2438 -0.4064  0.0488
 6386TIP3    H119164   3.656   1.416   0.895  0.3057 -0.8354 -0.5022
 6386TIP3    H219165   3.511   1.458   0.907  0.5666 -0.2014  0.5082
 6387TIP3   OH219166   6.099   0.079   3.726 -0.1220 -0.4281 -0.3144
 6387TIP3    H119167   6.054   0.089   3.809  0.4146 -1.0005  0.0533
 6387TIP3    H219168   6.190   0.063   3.749 -0.3164 -2.8743 -0.8874
 6388TIP3   OH219169   1.880   0.771   3.094 -0.1939  0.2365 -0.5521
 6388TIP3    H119170   1.838   0.703   3.040 -1.0525 -1.3492  1.9528
 6388TIP3    H219171   1.964   0.786   3.050  0.0767 -2.5193 -1.2180
 6389TIP3   OH219172   5.540   4.637   2.293  0.8236  0.6468 -0.4703
 6389TIP3    H119173   5.490   4.715   2.318 -1.1056 -0.5517 -0.4145
 6389TIP3    H219174   5.612   4.634   2.357 -0.6137  0.9359  1.2413
 6390TIP3   OH219175   2.677   0.615   0.721 -0.2177 -0.1185  0.4418
 6390TIP3    H119176   2.604   0.635   0.779 -0.4213  0.0124  0.1413
 6390TIP3    H219177   2.644   0.543   0.666  0.4455 -1.2033  1.4062
 6391TIP3   OH219178   1.679   2.664   1.073  0.7041 -0.1539  0.6586
 6391TIP3    H119179   1.688   2.751   1.036 -0.9534 -0.5268 -0.7793
 6391TIP3    H219180   1.637   2.612   1.004 -0.5181 -1.4762  2.2749
 6392TIP3   OH219181   1.483   2.433   0.931  1.0158  0.5474  0.1503
 6392TIP3    H119182   1.537   2.382   0.992  1.5892 -0.6663 -1.2861
 6392TIP3    H219183   1.397   2.436   0.971  1.0248 -1.4271  0.4109
 6393TIP3   OH219184   2.306   2.763   1.451  0.1224  0.1801 -0.0367
 6393TIP3    H119185   2.220   2.769   1.493 -0.2319  0.5599 -0.7952
 6393TIP3    H219186   2.313   2.672   1.423  1.4495 -0.8003  3.0498
 6394TIP3   OH219187   4.069   3.099   2.876  0.1644 -0.1563 -0.5573
 6394TIP3    H119188   4.123   3.069   2.803  0.8313 -0.6160  0.1175
 6394TIP3    H219189   3.979   3.094   2.842  0.5331  0.9318 -1.7981
 6395TIP3   OH219190   4.467   4.888   3.540 -0.0470  0.0321  0.3323
 6395TIP3    H119191   4.511   4.916   3.621  0.1536 -2.5400  1.2307
 6395TIP3    H219192   4.442   4.969   3.497  1.8164  1.5514  1.8831
 6396TIP3   OH219193   6.065   5.425   1.856  0.0911  0.3099  0.5152
 6396TIP3    H119194   6.072   5.345   1.805 -1.2103  0.7084 -0.3194
 6396TIP3    H219195   6.155   5.442   1.886  0.2546 -1.9707  1.5579
 6397TIP3   OH219196   2.150   2.080   3.987 -0.3448  0.0992 -0.0115
 6397TIP3    H119197   2.228   2.026   4.002 -0.8803 -0.8164 -0.4771
 6397TIP3    H219198   2.133   2.072   3.893 -0.2498  1.3468 -0.1498
 6398TIP3   OH219199   0.110   3.660   2.029  0.1389 -0.1090  0.2109
 6398TIP3    H119200   0.078   3.740   1.989  2.7964 -0.1357 -2.3568
 6398TIP3    H219201   0.032   3.612   2.054 -1.7570  1.0548 -2.8753
 6399TIP3   OH219202   0.801   0.683   4.880 -0.0809  0.1003 -0.3019
 6399TIP3    H119203   0.734   0.615   4.874  0.1997 -0.6458  3.0273
 6399TIP3    H219204   0.778   0.745   4.811 -0.8922 -2.8055 -2.9178
 6400TIP3   OH219205   5.729   4.346   1.768  0.4504 -0.2027  0.9515
 6400TIP3    H119206   5.751   4.256   1.791  1.5083 -0.1610  0.1495
 6400TIP3    H219207   5.690   4.339   1.681  2.1677  0.2736  0.1060
 6401TIP3   OH219208   5.138   4.747   1.091  0.8007  0.5959 -0.0426
 6401TIP3    H119209   5.196   4.785   1.025  1.1596  1.0722  0.5315
 6401TIP3    H219210   5.197   4.697   1.147  1.2062  3.3348  2.2311
 6402TIP3   OH219211   3.390   2.026   2.156 -0.6317  0.3780 -0.4276
 6402TIP3    H119212   3.419   1.935   2.162 -0.0241  0.6215  0.4838
 6402TIP3    H219213   3.457   2.070   2.104 -0.5305  0.4623 -0.2282
 6403TIP3   OH219214   3.171   2.067   1.960  0.5735  0.6698 -0.0764
 6403TIP3    H119215   3.240   2.013   2.001  0.9273  1.4648  0.3907
 6403TIP3    H219216   3.097   2.007   1.950  0.7656  0.2279  0.9639
 6404TIP3   OH219217   0.736   1.280   2.263 -0.1537  0.1830  0.1490
 6404TIP3    H119218   0.658   1.224   2.258 -1.2069  1.6689 -0.9347
 6404TIP3    H219219   0.789   1.253   2.187  0.6122 -1.0806  1.0914
 6405TIP3   OH219220   4.259   3.739   0.800 -0.7522 -0.0902  0.5073
 6405TIP3    H119221   4.228   3.651   0.776 -3.3233  0.6283  0.8344
 6405TIP3    H219222   4.279   3.732   0.893 -2.0233 -0.1194  0.8060
 6406TIP3   OH219223   6.148   0.719   4.887 -0.0306 -0.0173  0.2558
 6406TIP3    H119224   6.059   0.749   4.905 -0.5182 -1.0191 -0.4097
 6406TIP3    H219225   6.140   0.624   4.878  1.0227 -0.0633 -0.2989
 6407TIP3   OH219226   2.920   3.072  -0.002  0.0530  0.3722 -0.3637
 6407TIP3    H119227   2.873   3.055   0.080  2.0344 -1.2772  0.5026
 6407TIP3    H219228   2.963   3.157   0.011 -0.6745  0.7288 -0.2311
 6408TIP3   OH219229   0.920   2.714   4.130 -0.7967  0.0915 -0.0237
 6408TIP3    H119230   0.858   2.729   4.201 -0.4006  0.7169  0.2108
 6408TIP3    H219231   0.905   2.787   4.069  0.0373  0.5455  0.2922
 6409TIP3   OH219232   4.091   0.424   4.156 -0.3829  0.2609  0.6236
 6409TIP3    H119233   4.031   0.496   4.138  0.5820  1.3089  1.4967
 6409TIP3    H219234   4.154   0.459   4.219 -0.6157 -1.7096  2.0780
 6410TIP3   OH219235   2.552   4.542   3.453 -0.4647  0.5538 -0.2618
 6410TIP3    H119236   2.600   4.618   3.487 -0.4253  0.0633  0.8212
 6410TIP3    H219237   2.472   4.539   3.505 -0.1444 -0.5397  0.1953
 6411TIP3   OH219238   1.365   4.458   1.578 -0.4897  0.2731 -0.2797
 6411TIP3    H119239   1.427   4.385   1.586 -0.2241  0.4744 -0.4809
 6411TIP3    H219240   1.354   4.490   1.668  1.1573  1.4401 -0.4600
 6412TIP3   OH219241   5.732   2.502   1.997 -0.1887  0.1179 -0.3265
 6412TIP3    H119242   5.714   2.529   1.907  0.5410 -0.1240 -0.5508
 6412TIP3    H219243   5.746   2.408   1.991 -0.6170  0.0209  0.1227
 6413TIP3   OH219244   4.078   3.632   2.220 -0.3287  0.0832 -0.0155
 6413TIP3    H119245   4.067   3.685   2.298 -1.4757 -2.0251  1.3459
 6413TIP3    H219246   4.162   3.587   2.232  0.3572  1.0687 -0.8871
 6414TIP3   OH219247   2.922   0.938   3.784  0.4562  0.4769  0.3945
 6414TIP3    H119248   2.905   0.904   3.872  2.0722 -0.1094  0.5032
 6414TIP3    H219249   3.017   0.933   3.774  0.4080  1.6492 -0.9461
 6415TIP3   OH219250   2.629   1.748   0.314  0.8552  0.3390  0.2785
 6415TIP3    H119251   2.564   1.696   0.362  0.9282 -1.3890 -1.3547
 6415TIP3    H219252   2.578   1.812   0.265  0.1509 -1.7088 -1.8582
 6416TIP3   OH219253   3.935   2.488   0.620  0.6513  0.1876  0.0985
 6416TIP3    H119254   3.853   2.458   0.659 -0.4913  0.8746 -1.6191
 6416TIP3    H219255   3.989   2.514   0.694 -0.4502 -0.8292  1.3173
 6417TIP3   OH219256   0.545   2.422   4.704  0.4683 -0.2556 -0.3283
 6417TIP3    H119257   0.572   2.422   4.612  0.8586  0.9855 -0.2340
 6417TIP3    H219258   0.532   2.515   4.725  1.1599 -0.4557  1.0897
 6418TIP3   OH219259   3.694   3.239   5.083 -0.3135  0.2560  0.5385
 6418TIP3    H119260   3.674   3.145   5.078  0.7580  0.0726 -0.7376
 6418TIP3    H219261   3.619   3.281   5.042 -0.8570 -0.0096  1.2217
 6419TIP3   OH219262   0.956   5.499   3.357  0.9142  0.1131  0.1433
 6419TIP3    H119263   1.046   5.484   3.328  0.8949 -1.2707  0.7162
 6419TIP3    H219264   0.906   5.427   3.318  0.3155  0.0544  0.9925
 6420TIP3   OH219265   5.801   4.513   3.971 -0.6381  0.0657  0.4930
 6420TIP3    H119266   5.880   4.463   3.992 -0.0973  1.2512  1.3920
 6420TIP3    H219267   5.759   4.529   4.056 -1.2811  0.3691  0.1299
 6421TIP3   OH219268   2.936   3.667   1.329  0.0064 -0.2903 -0.2224
 6421TIP3    H119269   2.878   3.739   1.352 -0.9993 -0.9696 -0.5708
 6421TIP3    H219270   3.009   3.675   1.390  0.6804  1.9041 -1.1887
 6422TIP3   OH219271   3.095   2.550   0.442 -0.2169  0.2699  0.0980
 6422TIP3    H119272   3.173   2.516   0.486 -0.1198  0.8187  0.3480
 6422TIP3    H219273   3.129   2.593   0.363 -0.2237  0.8712  0.4177
 6423TIP3   OH219274   0.054   3.172   4.924 -0.1268 -0.1771 -0.1396
 6423TIP3    H119275   0.035   3.112   4.852 -1.3415  0.6831 -0.5568
 6423TIP3    H219276   0.045   3.118   5.003 -3.2900 -0.1704 -0.3582
 6424TIP3   OH219277   2.294   1.036   1.786  0.5722 -0.2285 -0.1680
 6424TIP3    H119278   2.354   1.077   1.723  1.6928  3.6027  3.0067
 6424TIP3    H219279   2.351   0.991   1.848 -0.2546 -1.0333  0.0330
 6425TIP3   OH219280   2.232   4.863   5.117  0.3700  0.1605 -0.3305
 6425TIP3    H119281   2.282   4.891   5.193 -2.4764  1.9564  1.0564
 6425TIP3    H219282   2.211   4.772   5.134  0.0102  0.4597  0.9220
 6426TIP3   OH219283   1.343   2.850   4.167 -0.3226 -0.3287  0.4986
 6426TIP3    H119284   1.432   2.857   4.134 -0.0523 -0.3740  1.2134
 6426TIP3    H219285   1.296   2.803   4.098 -0.1395  0.9239 -0.5053
 6427TIP3   OH219286   0.247   0.691   1.622  0.7608 -0.4647  0.1998
 6427TIP3    H119287   0.233   0.611   1.570 -0.5351 -1.1737  1.5540
 6427TIP3    H219288   0.337   0.716   1.603  0.9534 -1.8147 -0.8570
 6428TIP3   OH219289   3.030   3.726   3.599 -0.0191  0.5822  0.1684
 6428TIP3    H119290   2.964   3.796   3.606  0.7298  1.2653  0.6986
 6428TIP3    H219291   3.112   3.773   3.585  0.2710 -0.2872 -1.2832
 6429TIP3   OH219292   0.162   5.451   2.699 -0.8462  0.2520  0.1246
 6429TIP3    H119293   0.252   5.484   2.694 -0.4523 -0.8370 -0.0449
 6429TIP3    H219294   0.130   5.484   2.783 -0.6705  1.5409 -0.2811
 6430TIP3   OH219295   5.791   2.436   3.534 -0.1191  0.0362 -0.1044
 6430TIP3    H119296   5.722   2.491   3.498 -0.6801 -1.9426 -2.3519
 6430TIP3    H219297   5.749   2.390   3.607 -0.8987 -0.3433 -0.7706
 6431TIP3   OH219298   0.499   2.029   1.430 -0.0385  0.2272 -0.0402
 6431TIP3    H119299   0.437   2.011   1.501  0.4383 -0.9439  0.1029
 6431TIP3    H219300   0.529   2.119   1.447 -1.2297  0.6004  0.2190
 6432TIP3   OH219301   0.473   0.447   4.014  0.3580  0.3677  0.0737
 6432TIP3    H119302   0.524   0.468   3.937  0.0321 -0.8667 -0.4977
 6432TIP3    H219303   0.385   0.428   3.981  0.2891 -0.4747  0.7012
 6433TIP3   OH219304   3.275   5.969   3.734  0.1245  0.2444  0.0544
 6433TIP3    H119305   3.227   6.023   3.671  0.1861  1.3833  0.9445
 6433TIP3    H219306   3.287   5.885   3.690 -1.1427  0.5171 -0.8687
 6434TIP3   OH219307   2.595   2.226   4.063 -0.6055  0.7277 -0.5833
 6434TIP3    H119308   2.509   2.242   4.103 -0.6913  2.2002 -1.2995
 6434TIP3    H219309   2.654   2.212   4.138 -1.5068 -0.6608 -0.0900
 6435TIP3   OH219310   6.330   0.857   0.359  0.2289 -0.4056 -1.1657
 6435TIP3    H119311   6.371   0.930   0.405 -0.5956 -1.4138  1.3299
 6435TIP3    H219312   6.236   0.875   0.365  0.0828 -0.3278 -2.9891
 6436TIP3   OH219313   4.895   0.252   3.496  0.5395 -0.0080  0.5533
 6436TIP3    H119314   4.974   0.240   3.443  0.5127 -1.8022  0.8588
 6436TIP3    H219315   4.822   0.244   3.434  0.5444 -0.8601  0.6452
 6437TIP3   OH219316   3.283   3.606   2.889 -0.2722 -0.0038 -0.1171
 6437TIP3    H119317   3.366   3.649   2.909  0.4742 -1.4611  0.0297
 6437TIP3    H219318   3.245   3.586   2.975  0.1240 -0.9970 -0.1634
 6438TIP3   OH219319   0.322   2.481   2.470  0.1214  0.0987  0.1996
 6438TIP3    H119320   0.315   2.403   2.525  2.0002  0.7179  1.3947
 6438TIP3    H219321   0.414   2.483   2.442  0.0718  1.7959  0.0574
 6439TIP3   OH219322   0.431   0.090   3.968  0.4546 -0.0924  0.1915
 6439TIP3    H119323   0.459   0.032   4.038  1.3222 -0.7429 -0.6683
 6439TIP3    H219324   0.483   0.169   3.979  0.1056  0.0730  0.6727
 6440TIP3   OH219325   5.868   4.717   1.817  0.2286  0.1848  0.1512
 6440TIP3    H119326   5.871   4.787   1.882 -0.9026  1.6648 -1.2915
 6440TIP3    H219327   5.784   4.673   1.834 -0.0673  0.5722 -0.2819
 6441TIP3   OH219328   5.851   1.881   2.836 -0.5264  0.1121 -0.4499
 6441TIP3    H119329   5.896   1.966   2.836 -1.1893  0.4995 -2.2956
 6441TIP3    H219330   5.763   1.901   2.870 -0.9516  0.3515 -1.6430
 6442TIP3   OH219331   4.195   3.751   1.374 -0.7095 -0.0400  0.1556
 6442TIP3    H119332   4.139   3.682   1.339 -0.1067 -0.9715  0.9702
 6442TIP3    H219333   4.283   3.728   1.348 -0.4507  0.1892  0.7843
 6443TIP3   OH219334   2.235   0.549   3.851 -0.0498  0.5942  0.0564
 6443TIP3    H119335   2.304   0.515   3.909  0.4476  0.8763 -0.3590
 6443TIP3    H219336   2.270   0.631   3.817 -1.3136  1.6410  1.1770
 6444TIP3   OH219337   0.222   1.365   5.070  0.0061  0.0944 -0.1843
 6444TIP3    H119338   0.195   1.274   5.062 -0.4874  0.3407 -1.5058
 6444TIP3    H219339   0.284   1.378   4.998  1.8526  0.2091  1.3347
 6445TIP3   OH219340   0.841   4.462   1.848  0.0594 -0.8502 -0.3697
 6445TIP3    H119341   0.900   4.440   1.920 -0.2591  1.0923  0.5423
 6445TIP3    H219342   0.893   4.517   1.790 -0.6249  0.3684  0.1262
 6446TIP3   OH219343   1.797   2.856   1.387  0.1330 -0.0021 -0.4987
 6446TIP3    H119344   1.741   2.925   1.422 -0.9250 -0.9038 -0.3490
 6446TIP3    H219345   1.867   2.847   1.452  0.0566  0.6437 -0.3185
 6447TIP3   OH219346   0.602   1.994   3.092  0.0315  0.6108  0.4833
 6447TIP3    H119347   0.517   2.000   3.134 -0.3560  0.8348 -0.3114
 6447TIP3    H219348   0.585   2.017   3.000  1.1296  1.8249  0.5485
 6448TIP3   OH219349   0.935   4.577   1.623 -0.7883  0.1549 -0.6975
 6448TIP3    H119350   0.896   4.528   1.551  0.1727 -0.3608 -0.8835
 6448TIP3    H219351   0.877   4.653   1.635 -2.9002 -1.4807  0.2278
 6449TIP3   OH219352   6.101   4.233   3.262  0.1873 -0.1306  0.4841
 6449TIP3    H119353   6.093   4.146   3.223  1.3711 -1.4561  2.9225
 6449TIP3    H219354   6.159   4.281   3.203 -0.7919 -0.8462 -1.1027
 6450TIP3   OH219355   0.960   2.337   0.931  0.1647 -0.1245 -0.6285
 6450TIP3    H119356   0.912   2.282   0.993 -0.7982  1.1138 -0.2559
 6450TIP3    H219357   1.014   2.275   0.882 -0.4128 -1.3316  0.2085
 6451TIP3   OH219358   6.222   5.709   2.691  0.3686 -0.0828 -0.1615
 6451TIP3    H119359   6.219   5.673   2.603 -0.2866  4.3274 -2.1972
 6451TIP3    H219360   6.315   5.719   2.710  0.5006  0.2824 -0.9861
 6452TIP3   OH219361   0.093   0.865   1.430  0.0482  0.3694  0.6311
 6452TIP3    H119362   0.156   0.852   1.502 -0.5812  2.5051  1.6321
 6452TIP3    H219363   0.008   0.846   1.470 -0.3047  1.5520  0.4575
 6453TIP3   OH219364   4.332   1.060   3.071 -0.4361  0.3359  0.0509
 6453TIP3    H119365   4.327   0.973   3.109  1.5889 -0.0649 -0.5049
 6453TIP3    H219366   4.344   1.118   3.147  3.5409 -0.4548  0.2379
 6454TIP3   OH219367   3.602   1.943   4.008 -0.1647  0.7779 -0.0041
 6454TIP3    H119368   3.526   1.971   4.059 -0.5175  0.2713 -0.2442
 6454TIP3    H219369   3.579   1.855   3.976  0.4469  0.6924 -0.2256
 6455TIP3   OH219370   3.954   4.654   2.874  0.0482  0.1912 -0.4926
 6455TIP3    H119371   3.999   4.720   2.926  0.1252  0.9047 -1.4448
 6455TIP3    H219372   3.862   4.662   2.900  0.3037 -0.5695  0.7037
 6456TIP3   OH219373   2.523   0.562   4.842 -1.1561  0.1332 -0.0839
 6456TIP3    H119374   2.543   0.598   4.929  0.1975  3.1716 -1.5238
 6456TIP3    H219375   2.580   0.485   4.835  0.7222  1.3616  0.7603
 6457TIP3   OH219376   3.737   5.363   4.838 -0.4244 -0.1630  0.7012
 6457TIP3    H119377   3.790   5.434   4.875  0.7411 -1.3391  1.3650
 6457TIP3    H219378   3.801   5.305   4.797 -1.2682 -1.2334  0.8613
 6458TIP3   OH219379   2.403   1.699   1.564 -1.3239 -0.2284  0.6129
 6458TIP3    H119380   2.469   1.674   1.499 -0.8731 -0.5395  1.1853
 6458TIP3    H219381   2.326   1.646   1.540 -1.0511 -0.5968  0.5351
 6459TIP3   OH219382   5.756   1.506   3.264  0.1253  0.2293  0.1471
 6459TIP3    H119383   5.735   1.560   3.188 -2.5923 -0.9095 -0.0308
 6459TIP3    H219384   5.820   1.557   3.313  1.1299  1.4898 -2.3262
 6460TIP3   OH219385   6.116   5.139   1.120  0.0578 -0.8995  0.2287
 6460TIP3    H119386   6.064   5.116   1.042 -0.3884  0.4885  0.0792
 6460TIP3    H219387   6.195   5.179   1.085 -0.1267 -0.3058  0.4699
 6461TIP3   OH219388   2.983   4.404   4.027 -0.7142  0.6170 -0.3460
 6461TIP3    H119389   2.944   4.338   4.084  1.3867  0.5687  1.1561
 6461TIP3    H219390   2.912   4.466   4.010 -1.9114 -0.3914  0.7776
 6462TIP3   OH219391   3.875   3.610   0.681 -0.0591  0.2013 -0.4067
 6462TIP3    H119392   3.810   3.670   0.644 -0.0171 -0.6672 -1.9553
 6462TIP3    H219393   3.949   3.614   0.621  0.4915 -0.3777  0.2198
 6463TIP3   OH219394   5.102   4.065   2.172  0.5787  0.5256 -0.1808
 6463TIP3    H119395   5.187   4.026   2.193  1.8833  3.5684  0.6716
 6463TIP3    H219396   5.052   4.059   2.254  0.1002 -0.7495 -0.5276
 6464TIP3   OH219397   1.299   3.234   3.088 -0.5755  0.3466  0.3325
 6464TIP3    H119398   1.306   3.328   3.072  0.8108 -0.1431 -2.6018
 6464TIP3    H219399   1.212   3.211   3.054 -0.3119  0.3551 -0.3613
 6465TIP3   OH219400   5.123   3.810   4.732  0.0620  0.2207  0.4715
 6465TIP3    H119401   5.092   3.720   4.736  0.2448  0.1310 -0.0471
 6465TIP3    H219402   5.215   3.802   4.707 -0.4325  0.6160 -1.6533
 6466TIP3   OH219403   0.268   4.796   3.474 -0.4123  0.3789 -0.1684
 6466TIP3    H119404   0.299   4.724   3.529 -0.8296  0.7996  0.6327
 6466TIP3    H219405   0.345   4.850   3.458 -0.4559  0.7416  0.7689
 6467TIP3   OH219406   2.604   4.778   0.186  0.1550 -0.0460 -0.0615
 6467TIP3    H119407   2.527   4.834   0.191  1.1361  1.5463 -1.4185
 6467TIP3    H219408   2.589   4.724   0.109  1.4969  2.2384 -2.0825
 6468TIP3   OH219409   3.821   2.951   1.714  0.2642 -0.0677  0.4603
 6468TIP3    H119410   3.899   2.989   1.675  0.2023  3.0272  2.9221
 6468TIP3    H219411   3.766   2.926   1.640  2.9694 -1.1724 -1.3250
 6469TIP3   OH219412   3.706   0.931   0.268 -0.7860  0.2357 -0.5556
 6469TIP3    H119413   3.626   0.905   0.223 -0.5567  0.1074 -0.8929
 6469TIP3    H219414   3.741   0.849   0.304 -1.5954  0.4992  0.8989
 6470TIP3   OH219415   3.271   4.740   0.500  0.2218  0.1880 -0.1505
 6470TIP3    H119416   3.227   4.787   0.429  1.2817 -0.0796 -1.0005
 6470TIP3    H219417   3.253   4.648   0.484 -0.9476  0.1885  0.9147
 6471TIP3   OH219418   2.198   3.969   1.288  0.0489 -0.1280 -0.0983
 6471TIP3    H119419   2.188   4.064   1.301  0.0925 -0.2253  0.6976
 6471TIP3    H219420   2.110   3.939   1.262  0.0302  0.1225 -0.3324
 6472TIP3   OH219421   4.640   5.735   2.697  0.0267  0.3118  0.0298
 6472TIP3    H119422   4.649   5.709   2.605 -0.5541  2.7506 -0.8018
 6472TIP3    H219423   4.714   5.794   2.712 -1.3452  2.0479  0.2605
 6473TIP3   OH219424   3.678   2.716   5.000  0.1414  0.9525  0.1680
 6473TIP3    H119425   3.764   2.705   4.959  0.5798  1.6775  0.8682
 6473TIP3    H219426   3.621   2.656   4.952  1.3256 -0.5703  0.5723
 6474TIP3   OH219427   4.546   4.723   0.357 -0.0873  1.2450  0.0469
 6474TIP3    H119428   4.594   4.753   0.281 -0.3076  1.3715 -0.0443
 6474TIP3    H219429   4.573   4.632   0.369 -1.7789  0.4532 -1.5897
 6475TIP3   OH219430   1.999   1.083   3.795 -0.1098  0.9667  0.1380
 6475TIP3    H119431   2.089   1.114   3.800 -0.0526  0.9031 -0.4242
 6475TIP3    H219432   2.003   1.006   3.737 -0.3292  0.2153  1.0986
 6476TIP3   OH219433   4.984   1.646   1.984  0.5595 -0.1349 -0.4460
 6476TIP3    H119434   4.994   1.735   1.950  1.0669  0.1887  0.4879
 6476TIP3    H219435   5.052   1.595   1.940  0.2831 -0.0570 -0.9661
 6477TIP3   OH219436   1.705   3.642   0.641 -0.1583  1.0541 -0.2324
 6477TIP3    H119437   1.620   3.600   0.655 -0.5054  1.8623  0.1263
 6477TIP3    H219438   1.760   3.572   0.606 -0.8690  0.4294 -0.1383
 6478TIP3   OH219439   4.922   3.589   3.105  0.2650  0.0476  0.1553
 6478TIP3    H119440   4.870   3.622   3.179 -2.3249 -2.1268 -0.5320
 6478TIP3    H219441   4.893   3.642   3.031 -1.1615 -1.2088 -0.2410
 6479TIP3   OH219442   5.632   1.276   0.789  0.5053  0.5155 -0.1024
 6479TIP3    H119443   5.686   1.275   0.868 -0.0667  1.9545  0.3402
 6479TIP3    H219444   5.695   1.278   0.717  1.0315 -0.3735  0.3137
 6480TIP3   OH219445   2.879   0.537   2.465  0.1911 -0.2725 -0.3384
 6480TIP3    H119446   2.952   0.477   2.476 -0.0931 -0.5597  0.0344
 6480TIP3    H219447   2.895   0.606   2.530  0.4124 -0.0475 -0.6291
 6481TIP3   OH219448   1.043   5.270   2.813 -0.4749 -0.0706 -0.2894
 6481TIP3    H119449   0.999   5.197   2.768  0.2176 -0.3143 -0.5914
 6481TIP3    H219450   1.107   5.228   2.870  0.8050  0.3097 -1.3921
 6482TIP3   OH219451   4.397   5.123   0.214 -0.0288  0.0771  0.1116
 6482TIP3    H119452   4.308   5.094   0.193 -0.0049 -1.1364  1.5693
 6482TIP3    H219453   4.400   5.214   0.183 -1.5006 -0.1011 -0.6758
 6483TIP3   OH219454   3.812   0.911   1.254  0.1236  0.0206 -0.6624
 6483TIP3    H119455   3.879   0.870   1.199  0.5492  2.2567 -1.9261
 6483TIP3    H219456   3.749   0.948   1.192 -2.0179 -1.4776  0.4837
 6484TIP3   OH219457   2.855   0.056   0.855 -0.4587  0.1031 -0.1818
 6484TIP3    H119458   2.777   0.110   0.845 -0.2106  0.2028 -1.8043
 6484TIP3    H219459   2.822  -0.033   0.868 -0.8524  0.4852  1.7718
 6485TIP3   OH219460   1.454   2.075   0.115 -0.0952  0.4260 -0.2185
 6485TIP3    H119461   1.508   2.080   0.037 -0.2412  0.4856 -0.3167
 6485TIP3    H219462   1.444   1.981   0.132 -0.1535  0.4100 -0.3363
 6486TIP3   OH219463   5.089   2.974   2.152  0.2738 -0.3733  0.1639
 6486TIP3    H119464   5.026   2.921   2.200  1.0534 -1.9636 -0.4905
 6486TIP3    H219465   5.045   2.994   2.069 -0.7982  1.7765  1.1825
 6487TIP3   OH219466   3.878   4.583   2.614 -0.2323 -0.0470  0.5619
 6487TIP3    H119467   3.927   4.597   2.695 -0.0613  0.3550  0.3917
 6487TIP3    H219468   3.877   4.488   2.602 -1.3102 -0.1956  1.6793
 6488TIP3   OH219469   2.967   0.138   1.849 -0.5371  0.5152 -0.0378
 6488TIP3    H119470   2.881   0.153   1.810  0.2597 -0.5828 -2.4307
 6488TIP3    H219471   3.029   0.179   1.789  0.6523  1.6622  1.8450
 6489TIP3   OH219472   2.793   3.383   0.064 -0.2151 -0.2694  0.2993
 6489TIP3    H119473   2.741   3.304   0.054  0.6818 -0.6462 -1.9015
 6489TIP3    H219474   2.729   3.453   0.076 -1.0307 -1.2284  1.9228
 6490TIP3   OH219475   1.756   4.872   4.985 -0.0099 -0.9046  0.0384
 6490TIP3    H119476   1.785   4.803   4.925 -0.5919 -0.9586 -0.1908
 6490TIP3    H219477   1.833   4.927   4.999  0.7148 -2.0731  0.8858
 6491TIP3   OH219478   4.463   3.808   4.916 -0.2749  0.2413  0.6438
 6491TIP3    H119479   4.485   3.901   4.913 -0.3724  0.2365 -0.6020
 6491TIP3    H219480   4.459   3.788   5.010  2.2692  0.8692  0.9574
 6492TIP3   OH219481   5.179   5.384   4.851 -0.6424 -0.5149 -0.1042
 6492TIP3    H119482   5.271   5.409   4.852 -0.3973 -1.3069  1.7269
 6492TIP3    H219483   5.171   5.325   4.775  0.7498 -1.6984  0.6145
 6493TIP3   OH219484   2.622   5.855   3.148  0.3673  0.0415 -0.0709
 6493TIP3    H119485   2.654   5.944   3.135  1.2539 -0.2934 -0.2510
 6493TIP3    H219486   2.683   5.817   3.212 -0.3351 -0.2587  0.4274
 6494TIP3   OH219487   5.557   0.635   1.065 -0.3305  0.0528 -0.5278
 6494TIP3    H119488   5.650   0.612   1.069  0.5190  2.9144 -0.8770
 6494TIP3    H219489   5.516   0.584   1.134  1.3211 -1.9431 -0.9178
 6495TIP3   OH219490   1.325   5.638   4.029 -0.3804  0.7964 -0.1388
 6495TIP3    H119491   1.309   5.601   3.942 -2.4881 -0.6651  0.7800
 6495TIP3    H219492   1.418   5.658   4.030 -0.0271 -0.4593 -2.2274
 6496TIP3   OH219493   6.227   5.375   3.732  0.1599  0.6460  0.4575
 6496TIP3    H119494   6.213   5.434   3.806  1.4280  0.0629  1.1984
 6496TIP3    H219495   6.254   5.432   3.660 -0.6387  1.1726  0.5634
 6497TIP3   OH219496   6.112   4.367   0.300  0.0921 -0.0389 -0.6056
 6497TIP3    H119497   6.020   4.389   0.291 -0.2990 -0.6949  1.3983
 6497TIP3    H219498   6.143   4.358   0.210 -1.9059 -0.3037 -1.3161
 6498TIP3   OH219499   3.772   3.895   3.791  0.1248  0.3250  0.2599
 6498TIP3    H119500   3.689   3.882   3.837  0.7460  1.1586  1.6931
 6498TIP3    H219501   3.812   3.970   3.834  2.3477 -1.0007  0.6810
 6499TIP3   OH219502   2.826   2.174   1.908 -0.7557 -0.0556  0.4586
 6499TIP3    H119503   2.804   2.216   1.991  0.6613 -0.8211  1.2720
 6499TIP3    H219504   2.862   2.088   1.933 -0.9998 -0.6179 -0.9894
 6500TIP3   OH219505   4.850   2.911   1.670  0.4241  0.0640  0.4669
 6500TIP3    H119506   4.912   2.851   1.626  0.4626  0.7659 -0.4776
 6500TIP3    H219507   4.795   2.943   1.599 -1.1480 -0.6645  1.3248
 6501TIP3   OH219508   1.512   0.498   1.888 -0.3891 -0.2708  0.3485
 6501TIP3    H119509   1.437   0.467   1.939 -0.1770  1.1317  1.5982
 6501TIP3    H219510   1.521   0.590   1.913  1.4243 -0.2711 -0.1728
 6502TIP3   OH219511   3.348   2.836   4.703 -0.3306 -0.1845  0.7169
 6502TIP3    H119512   3.294   2.875   4.634 -0.1007 -1.6297 -0.3346
 6502TIP3    H219513   3.322   2.881   4.783  1.2487  3.4716 -0.6318
 6503TIP3   OH219514   0.302   1.945   2.321 -1.0081  0.2897  0.4883
 6503TIP3    H119515   0.270   1.871   2.270 -1.4622  0.5141  0.4364
 6503TIP3    H219516   0.390   1.961   2.288 -1.3837  0.5915 -0.4149
 6504TIP3   OH219517   0.446   0.556   2.426 -0.0100  0.5916 -0.4311
 6504TIP3    H119518   0.367   0.589   2.469 -0.5474 -0.2114 -0.7818
 6504TIP3    H219519   0.453   0.609   2.346  0.7791  1.8255  0.4246
 6505TIP3   OH219520   2.451   1.331   1.951  0.2173  0.2134 -0.1272
 6505TIP3    H119521   2.357   1.319   1.938 -0.1458  0.0083  2.2413
 6505TIP3    H219522   2.487   1.243   1.945  0.2837  0.3042 -1.1405
 6506TIP3   OH219523   2.827   2.409   1.326  0.4260 -0.2571 -0.2329
 6506TIP3    H119524   2.766   2.339   1.347 -0.5364  1.2569  2.7255
 6506TIP3    H219525   2.784   2.459   1.257  0.0797 -1.2523 -0.7548
 6507TIP3   OH219526   3.184   2.305   4.616 -0.0918 -0.3682  0.5883
 6507TIP3    H119527   3.185   2.384   4.671  0.9927  0.4397 -0.5563
 6507TIP3    H219528   3.210   2.235   4.676 -1.1028  0.1116  1.6312
 6508TIP3   OH219529   4.357   1.176   3.328 -0.0648 -0.5280  0.3405
 6508TIP3    H119530   4.276   1.218   3.356 -0.7959 -1.1949 -0.7100
 6508TIP3    H219531   4.422   1.247   3.326 -0.3443 -0.1940  2.1946
 6509TIP3   OH219532   1.142   2.213   2.378 -0.0611  0.3500  0.0508
 6509TIP3    H119533   1.225   2.169   2.396  0.6456  1.7623  0.4147
 6509TIP3    H219534   1.101   2.221   2.464 -1.4916 -1.9984 -0.3386
 6510TIP3   OH219535   4.014   0.622   0.063  0.1304 -0.0250 -0.5775
 6510TIP3    H119536   4.089   0.634   0.005  0.3484 -0.1779 -0.3321
 6510TIP3    H219537   4.040   0.549   0.120 -0.5445 -0.6429 -1.0437
 6511TIP3   OH219538   5.769   5.092   4.057  0.5487 -0.3171 -0.2791
 6511TIP3    H119539   5.688   5.112   4.011 -0.5532 -0.2935  1.5623
 6511TIP3    H219540   5.810   5.022   4.006  0.5829  1.2356 -2.5232
 6512TIP3   OH219541   2.973   5.527   2.867  0.3236  0.5462 -0.7260
 6512TIP3    H119542   3.009   5.520   2.956 -1.5051 -0.8856 -0.0496
 6512TIP3    H219543   2.934   5.442   2.850 -0.5443  1.2373 -2.3945
 6513TIP3   OH219544   5.223   3.757   2.663 -0.3971 -0.0497  0.3615
 6513TIP3    H119545   5.275   3.837   2.672 -0.1047 -0.0511 -1.0518
 6513TIP3    H219546   5.232   3.713   2.747  1.0285  0.4730  0.5136
 6514TIP3   OH219547   2.527   1.966   1.580 -0.0877  0.4624 -0.1723
 6514TIP3    H119548   2.443   1.924   1.595 -0.5645  1.1378 -0.8461
 6514TIP3    H219549   2.590   1.894   1.572 -0.7225 -0.0736 -0.3804
 6515TIP3   OH219550   6.140   3.026   2.832  0.5212 -0.0037  0.0579
 6515TIP3    H119551   6.072   3.026   2.764 -1.8876 -0.0595  2.3188
 6515TIP3    H219552   6.198   3.098   2.808 -0.3314  0.0744 -1.9462
 6516TIP3   OH219553   4.971   0.810   0.425 -0.5917  0.1002  0.1177
 6516TIP3    H119554   4.960   0.717   0.403  1.8251 -0.2770  0.2051
 6516TIP3    H219555   5.004   0.849   0.344  0.1908  0.4627  0.5979
 6517TIP3   OH219556   3.902   4.653   0.795  0.0053 -0.2341  0.2168
 6517TIP3    H119557   3.834   4.622   0.735 -3.5640  1.2216  3.1605
 6517TIP3    H219558   3.919   4.742   0.767  0.3787 -0.4423 -0.2342
 6518TIP3   OH219559   3.044   4.091   1.040  0.0371  0.3913 -0.0210
 6518TIP3    H119560   2.955   4.123   1.024 -0.6819 -1.2116  0.5127
 6518TIP3    H219561   3.089   4.102   0.957 -0.9853  0.2606 -0.6085
 6519TIP3   OH219562   3.827   3.180   3.850  0.2116  0.2518 -0.0257
 6519TIP3    H119563   3.918   3.206   3.833  0.4650  0.0372  0.9032
 6519TIP3    H219564   3.774   3.244   3.803  0.8416  0.1038 -0.9702
 6520TIP3   OH219565   4.384   2.656   3.390 -0.5136  0.0041  0.0694
 6520TIP3    H119566   4.375   2.588   3.323 -0.0533  1.4154 -1.5063
 6520TIP3    H219567   4.406   2.735   3.340 -0.7401  1.2455  1.8623
 6521TIP3   OH219568   4.796   3.244   2.228  0.5393  0.2198 -0.3437
 6521TIP3    H119569   4.815   3.303   2.155  0.7830  0.5212 -0.0446
 6521TIP3    H219570   4.794   3.157   2.189  0.4502  0.3996 -0.7449
 6522TIP3   OH219571   1.901   5.830   1.531 -0.0805 -0.0185  0.0429
 6522TIP3    H119572   1.819   5.809   1.486  0.4205 -1.6128 -0.1672
 6522TIP3    H219573   1.953   5.750   1.526  0.8966  0.4833  1.4952
 6523TIP3   OH219574   0.483   2.688   4.704 -0.3414  0.5399  0.2490
 6523TIP3    H119575   0.424   2.712   4.633 -0.1999 -0.1492 -0.1156
 6523TIP3    H219576   0.477   2.760   4.767 -2.1998  0.1168  0.6208
 6524TIP3   OH219577   3.488   4.077   0.234  0.0849 -0.2071  0.8671
 6524TIP3    H119578   3.534   3.993   0.239  0.2689 -0.0975  1.0103
 6524TIP3    H219579   3.557   4.141   0.214  0.1571  0.1024  2.0393
 6525TIP3   OH219580   1.402   1.374   0.330 -0.2344 -0.3727  0.3267
 6525TIP3    H119581   1.455   1.311   0.378  0.4446 -1.0351 -1.2336
 6525TIP3    H219582   1.384   1.331   0.246  0.9871  1.8017 -1.1485
 6526TIP3   OH219583   3.606   0.485   1.947 -0.3142  0.1534 -0.1866
 6526TIP3    H119584   3.698   0.460   1.943  0.1800  1.8369  0.0106
 6526TIP3    H219585   3.603   0.559   2.008 -1.5874  0.9365 -1.1440
 6527TIP3   OH219586   2.159   1.880   1.976 -0.4838  0.1671 -0.2402
 6527TIP3    H119587   2.170   1.927   1.894 -2.2267 -2.0658 -1.8864
 6527TIP3    H219588   2.069   1.899   2.003 -0.4600 -0.4039  0.2751
 6528TIP3   OH219589   2.882   3.867   5.066  0.2780  0.3060 -0.3613
 6528TIP3    H119590   2.804   3.922   5.078  1.0891  1.8943 -1.8514
 6528TIP3    H219591   2.849   3.786   5.029 -1.0524 -0.6472  2.6005
 6529TIP3   OH219592   5.803   2.739   2.839 -0.3565  0.4615  0.3444
 6529TIP3    H119593   5.852   2.818   2.862 -1.1225  0.7656  0.9694
 6529TIP3    H219594   5.749   2.765   2.764 -1.2544  0.7900  1.0955
 6530TIP3   OH219595   3.228   5.888   3.385 -0.2585  0.0947 -0.5638
 6530TIP3    H119596   3.260   5.835   3.458  1.9734  3.1086  0.8598
 6530TIP3    H219597   3.173   5.955   3.427 -2.1255 -0.3485 -2.1653
 6531TIP3   OH219598   4.956   1.085   4.560  0.8303  0.3410  0.1310
 6531TIP3    H119599   4.941   1.171   4.599  1.5201  0.9054 -0.8028
 6531TIP3    H219600   5.023   1.101   4.493  0.4982 -0.8046 -0.4861
 6532TIP3   OH219601   6.280   2.071   3.800  0.5775 -0.0028  0.2634
 6532TIP3    H119602   6.322   2.115   3.725  1.7461 -1.8036 -0.2001
 6532TIP3    H219603   6.304   1.979   3.790 -2.1381 -0.8823  0.9405
 6533TIP3   OH219604   2.049   1.569   4.647 -0.4288  0.3186 -0.8309
 6533TIP3    H119605   2.105   1.625   4.700 -0.5756  0.7583 -1.1325
 6533TIP3    H219606   1.960   1.590   4.675 -0.4559 -2.6508  1.9733
 6534TIP3   OH219607   2.893   0.426   5.068  0.5979  0.0053  0.4300
 6534TIP3    H119608   2.914   0.370   5.142 -1.3225 -2.0667 -0.4800
 6534TIP3    H219609   2.867   0.365   4.998 -1.3781  1.9726 -0.6970
 6535TIP3   OH219610   2.802   0.667   4.527  0.4391  0.0515  0.3579
 6535TIP3    H119611   2.783   0.599   4.592  1.6178  0.0853  0.7741
 6535TIP3    H219612   2.767   0.633   4.445 -0.0333 -0.5262  0.7943
 6536TIP3   OH219613   4.597   5.647   0.946  0.5271  0.1204  0.1157
 6536TIP3    H119614   4.594   5.615   0.856 -1.3669 -1.0408  0.5509
 6536TIP3    H219615   4.588   5.569   1.000 -2.1532  1.0891  1.2442
 6537TIP3   OH219616   2.023   5.170   1.027  0.2633  0.1325 -0.7527
 6537TIP3    H119617   2.020   5.265   1.033  1.3831  0.0847  2.0453
 6537TIP3    H219618   1.931   5.143   1.029 -0.0347  1.1399  0.2493
 6538TIP3   OH219619   1.689   1.533   1.785 -0.5891  0.2396  0.1813
 6538TIP3    H119620   1.698   1.438   1.791  0.7335  0.1941 -1.7172
 6538TIP3    H219621   1.741   1.557   1.708 -1.7590  2.3774 -0.0112
 6539TIP3   OH219622   0.512   0.803   4.215 -0.4344 -0.5258 -0.0917
 6539TIP3    H119623   0.533   0.860   4.289 -0.0041  0.4963 -0.9724
 6539TIP3    H219624   0.481   0.722   4.255 -0.9919  0.2944  1.1961
 6540TIP3   OH219625   5.775   0.487   0.321 -0.1254  0.4661  0.6864
 6540TIP3    H119626   5.718   0.542   0.375 -0.4457  0.7378  0.0744
 6540TIP3    H219627   5.742   0.498   0.232  0.2347 -0.1845  0.4651
 6541TIP3   OH219628   0.836   5.124   0.134 -0.1295 -0.0228 -0.3117
 6541TIP3    H119629   0.920   5.166   0.151 -0.7540  0.9686  0.4119
 6541TIP3    H219630   0.823   5.134   0.040  0.9675 -0.9920 -0.5905
 6542TIP3   OH219631   0.007   2.585   3.198  0.1994  0.0665  0.7463
 6542TIP3    H119632   0.095   2.612   3.226 -0.0798  0.3927  1.3251
 6542TIP3    H219633  -0.052   2.636   3.253 -0.3492 -0.8114  0.9737
 6543TIP3   OH219634   4.393   4.126   2.163 -0.3592 -0.3427 -0.0335
 6543TIP3    H119635   4.402   4.119   2.258  2.2384 -3.3314 -0.3365
 6543TIP3    H219636   4.301   4.105   2.146 -0.7991 -0.0526  1.7490
 6544TIP3   OH219637   2.872   0.885   4.877  0.4872 -0.0293 -0.1710
 6544TIP3    H119638   2.954   0.841   4.854  0.1333 -0.1275 -1.2966
 6544TIP3    H219639   2.814   0.814   4.905  1.0444  0.1309  1.5140
 6545TIP3   OH219640   3.522   3.811   3.637  0.6768  0.0134  0.0715
 6545TIP3    H119641   3.581   3.742   3.667 -0.3385 -0.5816  0.7336
 6545TIP3    H219642   3.442   3.798   3.686 -0.0544  0.7595 -0.8813
 6546TIP3   OH219643   4.912   1.809   3.023  0.2042  0.7626 -0.1180
 6546TIP3    H119644   4.865   1.727   3.036  1.0356  0.0498 -1.3877
 6546TIP3    H219645   4.858   1.875   3.066 -1.6107 -0.1097 -0.9595
 6547TIP3   OH219646   1.798   5.451   2.862  0.6570  0.6256 -0.3377
 6547TIP3    H119647   1.884   5.482   2.891 -0.3414  3.3497 -0.0505
 6547TIP3    H219648   1.796   5.470   2.768  0.0783  1.3397 -0.1869
 6548TIP3   OH219649   4.295   2.955   1.722  0.3310  0.1380  0.4124
 6548TIP3    H119650   4.246   3.033   1.693 -1.1958 -1.4976 -1.7639
 6548TIP3    H219651   4.247   2.924   1.799 -1.1245 -0.4765 -0.6901
 6549TIP3   OH219652   5.614   4.852   0.329  0.4246 -0.6480 -0.3701
 6549TIP3    H119653   5.651   4.911   0.264  0.7931 -0.5684 -0.0918
 6549TIP3    H219654   5.685   4.839   0.393  0.2467 -1.1419 -0.2671
 6550TIP3   OH219655   1.792   5.817   0.660  0.0622 -0.2852  0.4363
 6550TIP3    H119656   1.707   5.773   0.668 -0.4370  0.4447 -0.6148
 6550TIP3    H219657   1.786   5.866   0.578  1.1535  0.5470  0.8347
 6551TIP3   OH219658   5.165   2.522   1.744 -0.1180  0.4703 -0.2848
 6551TIP3    H119659   5.151   2.449   1.683  3.1404 -1.0900  0.5968
 6551TIP3    H219660   5.144   2.486   1.830  0.9685  0.7426  0.1041
 6552TIP3   OH219661   3.038   3.398   1.644  0.9500  0.1585  0.4842
 6552TIP3    H119662   3.105   3.435   1.587  0.1083  0.7858 -0.1077
 6552TIP3    H219663   3.017   3.468   1.705  0.0240  0.3547 -0.0484
 6553TIP3   OH219664   0.041   3.992   4.010 -0.3844  0.2696  0.6850
 6553TIP3    H119665  -0.052   4.011   4.020 -0.6170 -0.1669 -0.5078
 6553TIP3    H219666   0.044   3.902   3.979  0.3440  0.8267 -0.9656
 6554TIP3   OH219667   1.446   1.072   1.784 -0.1482 -0.1198  0.4472
 6554TIP3    H119668   1.401   1.147   1.822  1.2103  0.8200  0.2675
 6554TIP3    H219669   1.488   1.029   1.858  0.1046  0.0290  0.3917
 6555TIP3   OH219670   3.736   4.191   2.879 -0.1438  0.0379  0.3168
 6555TIP3    H119671   3.687   4.265   2.914  0.2584  1.0425 -1.1501
 6555TIP3    H219672   3.826   4.223   2.872 -0.3923  0.3928 -2.7290
 6556TIP3   OH219673   5.983   1.009   1.791  1.0596 -0.0301 -0.4019
 6556TIP3    H119674   5.960   0.994   1.883 -0.4149  1.8443 -0.3882
 6556TIP3    H219675   5.967   0.925   1.748 -1.4141 -0.1120  0.5080
 6557TIP3   OH219676   5.832   4.516   0.733 -0.3749 -0.0477  0.2218
 6557TIP3    H119677   5.918   4.498   0.695 -0.6875  1.8066 -1.5702
 6557TIP3    H219678   5.850   4.579   0.803 -0.1645 -0.7963  0.8640
 6558TIP3   OH219679   4.761   1.371   2.432 -0.4239 -0.3334 -0.1327
 6558TIP3    H119680   4.759   1.466   2.425  1.3951 -0.2544  0.0556
 6558TIP3    H219681   4.750   1.354   2.526  0.2933 -0.2642 -0.0368
 6559TIP3   OH219682   1.501   1.125   4.543  0.2958 -0.5271  0.5751
 6559TIP3    H119683   1.488   1.038   4.506  1.3720 -0.9094  1.0483
 6559TIP3    H219684   1.419   1.172   4.525 -1.3183 -2.3994  2.4344
 6560TIP3   OH219685   0.051   0.260   4.960  0.4358 -0.6129 -0.0009
 6560TIP3    H119686   0.121   0.320   4.934  0.6646 -1.0429 -0.3949
 6560TIP3    H219687   0.042   0.200   4.886 -0.9073 -0.0732 -0.2931
 6561TIP3   OH219688   1.050   3.837   0.027 -0.7024 -0.0595 -0.0847
 6561TIP3    H119689   1.067   3.929   0.046 -1.8537  0.6825 -2.2056
 6561TIP3    H219690   1.032   3.836  -0.067 -0.4796 -2.5067 -0.1565
 6562TIP3   OH219691   6.257   4.789   4.009 -0.5275  0.0962 -0.1362
 6562TIP3    H119692   6.270   4.855   3.941  0.1791 -0.2537 -0.3515
 6562TIP3    H219693   6.195   4.727   3.970 -1.7325  0.9606  0.3190
 6563TIP3   OH219694   2.359   2.789   5.131 -0.3839 -0.3051  0.3615
 6563TIP3    H119695   2.451   2.804   5.154  0.7546 -1.9037 -2.5918
 6563TIP3    H219696   2.318   2.759   5.211  1.7702  0.0227  1.6570
 6564TIP3   OH219697   0.292   4.102   3.202  0.0902 -0.2637 -0.6638
 6564TIP3    H119698   0.341   4.092   3.121  0.2075  0.7511 -0.7273
 6564TIP3    H219699   0.292   4.014   3.241  3.7239  0.0235  0.3280
 6565TIP3   OH219700   0.253   5.231   3.710  0.4432  0.1311 -0.1692
 6565TIP3    H119701   0.297   5.305   3.667  0.7159  0.2081  0.2350
 6565TIP3    H219702   0.190   5.200   3.646 -0.3313  1.3164 -0.0097
 6566TIP3   OH219703   1.871   5.817   4.223 -0.2019 -0.3002  0.0253
 6566TIP3    H119704   1.912   5.816   4.137 -2.3024  0.1692 -1.0450
 6566TIP3    H219705   1.842   5.727   4.237  0.3074 -0.4189  0.3466
 6567TIP3   OH219706   3.484   0.503   0.349 -0.7690 -0.2194 -1.0632
 6567TIP3    H119707   3.572   0.524   0.319 -1.0726  0.6953 -1.3373
 6567TIP3    H219708   3.497   0.441   0.420  0.1249  0.3862 -0.6841
 6568TIP3   OH219709   5.696   5.431   3.653 -0.0807  0.3786 -1.2649
 6568TIP3    H119710   5.645   5.359   3.688  0.8874 -0.3150 -1.2459
 6568TIP3    H219711   5.716   5.486   3.729 -0.2345  0.2951 -1.1654
 6569TIP3   OH219712   2.239   3.775   0.197 -0.4154 -0.1047  0.4335
 6569TIP3    H119713   2.205   3.720   0.126  1.5709 -1.3601  0.3887
 6569TIP3    H219714   2.319   3.814   0.161 -0.0958  0.3017  1.5541
 6570TIP3   OH219715   1.967   0.656   3.757 -0.0165 -0.0059 -0.9351
 6570TIP3    H119716   2.020   0.618   3.827  0.3980 -2.7227 -2.5760
 6570TIP3    H219717   1.878   0.656   3.791  0.3484 -0.0625  0.0370
 6571TIP3   OH219718   0.358   3.172   5.134 -0.0210  0.4551 -0.2180
 6571TIP3    H119719   0.323   3.250   5.178  0.4975  0.6494 -0.1426
 6571TIP3    H219720   0.437   3.203   5.090  0.8483 -0.2801  0.7825
 6572TIP3   OH219721   2.807   0.279   4.555  0.2974  0.1907  0.5284
 6572TIP3    H119722   2.739   0.211   4.548  1.3359 -0.7803 -0.5120
 6572TIP3    H219723   2.854   0.274   4.472  0.8746  1.7038  0.7382
 6573TIP3   OH219724   5.397   0.093   0.650 -0.1322  0.1483  0.6736
 6573TIP3    H119725   5.352   0.103   0.734 -1.4892  1.1833 -0.1468
 6573TIP3    H219726   5.401  -0.002   0.637 -3.2002 -0.0178  0.2518
 6574TIP3   OH219727   0.456   3.125   0.963 -0.4505 -0.5787  0.1013
 6574TIP3    H119728   0.453   3.049   0.905 -0.5366 -0.7940  0.3781
 6574TIP3    H219729   0.364   3.153   0.970 -0.5751 -1.1367  0.8717
 6575TIP3   OH219730   3.252   5.056   2.079 -0.3996 -0.1488  0.3221
 6575TIP3    H119731   3.308   5.133   2.082 -0.9987  0.3147 -0.0716
 6575TIP3    H219732   3.283   5.000   2.151  0.1845  0.3509  0.4649
 6576TIP3   OH219733   4.967   1.770   0.062  0.2316  0.3727  0.3596
 6576TIP3    H119734   4.913   1.785   0.139  0.2532  0.2403  0.4010
 6576TIP3    H219735   5.053   1.804   0.085  0.5189 -0.5954  0.7753
 6577TIP3   OH219736   3.168   3.532   0.749 -0.2667 -0.2620  0.1235
 6577TIP3    H119737   3.226   3.573   0.685 -0.2777  0.1712  0.3890
 6577TIP3    H219738   3.101   3.488   0.697 -0.3011  0.1275 -0.1616
 6578TIP3   OH219739   0.829   5.596   1.854  0.3477  0.3536  0.2197
 6578TIP3    H119740   0.806   5.650   1.929  0.5947 -0.6975  1.0667
 6578TIP3    H219741   0.840   5.508   1.889  0.9552 -0.0727 -0.9646
 6579TIP3   OH219742   6.108   1.984   3.464  0.5578  0.1516 -0.1695
 6579TIP3    H119743   6.057   1.995   3.383  1.1515  0.4851 -0.5062
 6579TIP3    H219744   6.042   1.981   3.533  0.0657  0.3912 -0.6145
 6580TIP3   OH219745   3.716   0.442   1.305 -0.5198  0.0202 -0.8442
 6580TIP3    H119746   3.704   0.455   1.399  3.2943  2.0782 -0.4548
 6580TIP3    H219747   3.798   0.394   1.298 -1.3710 -1.2253 -3.1651
 6581TIP3   OH219748   5.192   2.585   1.228 -0.1310 -0.1283 -0.4689
 6581TIP3    H119749   5.237   2.500   1.219 -1.1085 -0.7630  0.4161
 6581TIP3    H219750   5.238   2.629   1.300 -0.2619 -0.3380 -0.2557
 6582TIP3   OH219751   0.457   4.285   2.931 -0.4168  0.5996  0.0436
 6582TIP3    H119752   0.449   4.292   2.836  2.3260  1.3346 -0.2411
 6582TIP3    H219753   0.439   4.193   2.949  0.7093  0.0173 -1.4779
 6583TIP3   OH219754   5.771   0.157   5.075 -0.2779  0.1912  0.2190
 6583TIP3    H119755   5.751   0.114   5.158  1.5753 -3.6814 -1.1115
 6583TIP3    H219756   5.697   0.136   5.019  0.1068 -0.3192 -0.1067
 6584TIP3   OH219757   3.520   3.444   4.985  1.2068  0.3752  0.3711
 6584TIP3    H119758   3.566   3.523   5.011  1.2220  0.0467  1.4031
 6584TIP3    H219759   3.441   3.444   5.039 -0.5887  1.4614 -2.0740
 6585TIP3   OH219760   4.637   2.037   1.693  0.0409 -0.1070  0.3767
 6585TIP3    H119761   4.683   1.954   1.688 -3.1902 -1.9771 -1.2663
 6585TIP3    H219762   4.583   2.030   1.771 -0.1050  0.5644  0.3422
 6586TIP3   OH219763   2.603   3.658   2.775 -1.0197  0.4931 -0.0185
 6586TIP3    H119764   2.698   3.653   2.767 -0.9023  1.2758  0.7788
 6586TIP3    H219765   2.570   3.613   2.697 -0.0217 -0.8286  0.2971
 6587TIP3   OH219766   0.877   4.804   1.880 -0.0596  0.2727 -0.0636
 6587TIP3    H119767   0.919   4.859   1.813  0.1792  1.4179  0.9872
 6587TIP3    H219768   0.943   4.796   1.949 -0.2930 -0.9127  0.0420
 6588TIP3   OH219769   2.584   5.115   4.787  0.5956 -0.7524  0.0675
 6588TIP3    H119770   2.677   5.101   4.806  0.9150 -1.2864 -1.7397
 6588TIP3    H219771   2.560   5.041   4.732 -0.6274 -0.0254 -0.4015
 6589TIP3   OH219772   5.909   0.300   0.746 -0.3771  0.2966  0.1242
 6589TIP3    H119773   5.844   0.251   0.797 -1.5510 -0.6516 -2.1356
 6589TIP3    H219774   5.870   0.387   0.736 -0.3035  0.3803  0.5521
 6590TIP3   OH219775   3.940   3.108   3.573 -0.7796  0.3622 -0.1900
 6590TIP3    H119776   3.901   3.066   3.497 -2.7249  0.5290  0.6598
 6590TIP3    H219777   3.866   3.144   3.622  0.5264  1.5984  1.0018
 6591TIP3   OH219778   0.690   4.338   2.446  0.6713 -0.2226 -0.1266
 6591TIP3    H119779   0.643   4.294   2.375 -0.6923  0.0765  0.5583
 6591TIP3    H219780   0.719   4.267   2.503 -1.0163 -0.3375  0.6655
 6592TIP3   OH219781   1.015   4.752   4.084 -0.6891 -0.0417 -0.0849
 6592TIP3    H119782   1.043   4.837   4.051 -2.1638  0.8157  0.7577
 6592TIP3    H219783   1.087   4.722   4.139 -0.1203  0.6184 -0.4635
 6593TIP3   OH219784   0.718   2.747   3.824 -0.2874  0.9198 -0.3563
 6593TIP3    H119785   0.789   2.798   3.862 -0.0049 -0.1414  0.5956
 6593TIP3    H219786   0.751   2.721   3.738  0.7900 -0.1262  0.3354
 6594TIP3   OH219787   3.011   2.315   0.327  0.2189  0.3248 -0.5622
 6594TIP3    H119788   3.044   2.384   0.384  1.9180 -0.0072 -1.1094
 6594TIP3    H219789   2.928   2.350   0.293  0.6205  1.7205 -0.1545
 6595TIP3   OH219790   5.286   3.845   3.043 -0.2133  0.0284  0.7557
 6595TIP3    H119791   5.213   3.828   3.103 -2.8261  1.4060 -1.7457
 6595TIP3    H219792   5.301   3.762   2.999  0.2683 -0.4530  1.8066
 6596TIP3   OH219793   0.066   1.134   4.818  0.4846 -0.2431 -0.1634
 6596TIP3    H119794   0.045   1.223   4.845 -0.7819 -0.7073  0.4534
 6596TIP3    H219795   0.053   1.134   4.723  1.2996  0.4254 -0.2857
 6597TIP3   OH219796   1.649   1.817   0.868 -0.0089  0.3152 -0.0870
 6597TIP3    H119797   1.622   1.855   0.951  2.2366 -0.2109  0.9496
 6597TIP3    H219798   1.695   1.888   0.823  2.4053 -0.4873  0.9744
 6598TIP3   OH219799   4.227   5.695   1.541  0.1132  0.0640  0.0648
 6598TIP3    H119800   4.320   5.671   1.547 -0.1828 -1.1054  0.3853
 6598TIP3    H219801   4.182   5.610   1.539 -1.0697  0.6001  1.9202
 6599TIP3   OH219802   5.415   2.078   3.575 -0.2077 -0.0277  0.1475
 6599TIP3    H119803   5.396   2.115   3.662  0.3771  0.6883 -0.0097
 6599TIP3    H219804   5.401   2.151   3.515  0.1910 -0.2835 -0.2635
 6600TIP3   OH219805   3.687   4.512   1.524  0.2689  0.2868 -0.4150
 6600TIP3    H119806   3.636   4.431   1.518 -0.6257  0.9139 -2.2057
 6600TIP3    H219807   3.743   4.511   1.446  1.8168  0.3974  0.6655
 6601TIP3   OH219808   6.272   2.114   2.092 -0.2813  0.3234  0.0180
 6601TIP3    H119809   6.304   2.204   2.099 -1.9685  1.2036 -2.3342
 6601TIP3    H219810   6.320   2.078   2.017 -0.1973 -0.5030  0.4558
 6602TIP3   OH219811   2.496   5.137   1.227 -0.2016 -0.3704  0.2501
 6602TIP3    H119812   2.576   5.092   1.254 -0.4008 -0.9924 -0.1794
 6602TIP3    H219813   2.467   5.090   1.148 -0.2912  0.6521 -0.3444
 6603TIP3   OH219814   1.144   2.255   0.264  0.1385 -0.3630  0.4283
 6603TIP3    H119815   1.235   2.284   0.265 -0.7678  2.8204  1.8617
 6603TIP3    H219816   1.100   2.318   0.207 -1.6040 -0.2039  1.8828
 6604TIP3   OH219817   4.107   2.127   2.161  0.1981 -0.0948  0.2321
 6604TIP3    H119818   4.201   2.146   2.167  0.1623 -0.2277  1.2915
 6604TIP3    H219819   4.095   2.047   2.211 -0.5221  0.0415  0.2862
 6605TIP3   OH219820   0.918   3.108   2.108  0.2347  0.1632  0.5491
 6605TIP3    H119821   0.917   3.016   2.079 -0.4514  0.1659  0.5514
 6605TIP3    H219822   0.825   3.133   2.112  0.3953  1.9338 -2.9202
 6606TIP3   OH219823   5.244   4.326   2.116 -0.1024  0.1986  0.7351
 6606TIP3    H119824   5.313   4.275   2.159 -0.6687 -0.3329  1.0303
 6606TIP3    H219825   5.174   4.264   2.101 -0.5547  0.7535  0.5048
 6607TIP3   OH219826   4.340   3.937   1.572  0.0539 -0.2295 -0.0566
 6607TIP3    H119827   4.269   3.881   1.541 -1.3357  0.9271  0.9046
 6607TIP3    H219828   4.312   4.026   1.549  1.8805  0.1640 -0.9118
 6608TIP3   OH219829   6.009   0.511   0.461  0.5767  0.3566  0.1009
 6608TIP3    H119830   5.928   0.549   0.426  0.9598 -0.2486 -1.4969
 6608TIP3    H219831   6.027   0.563   0.540 -1.2206  0.6637  0.3582
 6609TIP3   OH219832   5.081   4.706   2.023  0.6189  0.2299 -0.0794
 6609TIP3    H119833   5.029   4.630   1.997 -1.1266  1.3113  0.1039
 6609TIP3    H219834   5.078   4.706   2.119  0.3956  0.6619 -0.0837
 6610TIP3   OH219835   1.302   3.546   4.877  0.0131 -0.0156  0.0782
 6610TIP3    H119836   1.286   3.457   4.906 -1.2899 -0.2077 -1.0889
 6610TIP3    H219837   1.239   3.599   4.927 -1.6455 -0.2430 -1.6348
 6611TIP3   OH219838   1.841   1.312   1.898 -0.5642 -0.7653 -0.0712
 6611TIP3    H119839   1.867   1.295   1.807 -0.3971 -3.0197  0.3383
 6611TIP3    H219840   1.918   1.286   1.949 -0.7996  0.1196  0.7442
 6612TIP3   OH219841   1.395   3.294   2.258  0.0156  0.4410 -0.6263
 6612TIP3    H119842   1.469   3.238   2.236 -1.7348 -1.8845 -0.9331
 6612TIP3    H219843   1.358   3.320   2.174 -0.9208 -0.4081 -0.4901
 6613TIP3   OH219844   6.060   5.502   3.917 -0.4689 -0.0576 -0.0337
 6613TIP3    H119845   6.022   5.422   3.954  1.9398 -1.1936  0.1424
 6613TIP3    H219846   6.105   5.543   3.991 -0.4856  0.7449 -0.4535
 6614TIP3   OH219847   0.502   4.949   3.512  0.2046 -0.5756  0.1868
 6614TIP3    H119848   0.537   5.033   3.480 -1.0017 -0.3172 -0.4793
 6614TIP3    H219849   0.536   4.943   3.601  1.2067  0.0966 -0.1286
 6615TIP3   OH219850   0.532   1.734   1.929 -0.1130 -0.0033 -0.4727
 6615TIP3    H119851   0.590   1.808   1.913  0.5758 -0.7219 -1.4033
 6615TIP3    H219852   0.485   1.722   1.847  1.1050 -1.7090 -0.9733
 6616TIP3   OH219853   2.055   2.219   0.691  0.2854  0.1608 -0.1587
 6616TIP3    H119854   2.084   2.168   0.615  2.5884  1.2950 -0.1396
 6616TIP3    H219855   2.083   2.168   0.767 -1.7359 -0.8191 -0.0104
 6617TIP3   OH219856   5.402   0.779   2.614  1.2084 -0.2014 -0.4845
 6617TIP3    H119857   5.463   0.846   2.645 -0.7892  1.1562  0.7128
 6617TIP3    H219858   5.351   0.822   2.546  0.3147 -0.6667 -0.1331
 6618TIP3   OH219859   0.020   4.537   1.502  0.5908  0.2951  0.3864
 6618TIP3    H119860  -0.039   4.612   1.506  2.4503  1.7738  1.8436
 6618TIP3    H219861   0.033   4.512   1.593  0.7440 -1.2301 -0.0295
 6619TIP3   OH219862   5.912   3.362   3.643 -0.1105  0.2265 -0.3172
 6619TIP3    H119863   5.853   3.388   3.572  1.5560 -0.3718 -1.9780
 6619TIP3    H219864   5.912   3.266   3.640 -1.3636  0.1121  1.6836
 6620TIP3   OH219865   1.914   2.220   4.480 -0.2283  0.0368  0.0406
 6620TIP3    H119866   1.883   2.132   4.456 -0.5609  0.4649 -1.2127
 6620TIP3    H219867   1.880   2.276   4.411 -1.9388  1.5405  1.9963
 6621TIP3   OH219868   0.738   1.933   2.153  0.0134  0.2259  0.2275
 6621TIP3    H119869   0.789   1.853   2.149  3.7054  2.3928 -0.7935
 6621TIP3    H219870   0.732   1.963   2.063  0.0074  1.8159  0.7202
 6622TIP3   OH219871   2.585   5.913   4.599  0.1915 -0.2894  0.2049
 6622TIP3    H119872   2.555   5.841   4.542 -0.1340 -0.0694  0.0937
 6622TIP3    H219873   2.680   5.904   4.600  0.2419 -0.0177 -0.7575
 6623TIP3   OH219874   4.989   3.318   0.173  0.2508 -0.0712  0.4113
 6623TIP3    H119875   4.894   3.320   0.186 -0.3071 -1.3599 -2.6392
 6623TIP3    H219876   5.012   3.409   0.156 -0.6933  0.1100 -0.0053
 6624TIP3   OH219877   4.613   2.159   1.953  0.1703  0.5364 -0.0785
 6624TIP3    H119878   4.528   2.136   1.989  0.7045 -1.1195  0.2029
 6624TIP3    H219879   4.594   2.228   1.889 -1.3087  0.5190  0.3047
 6625TIP3   OH219880   3.357   3.910   4.084 -0.1761  0.0568  0.5057
 6625TIP3    H119881   3.303   3.974   4.130  0.0947 -0.3675  1.4533
 6625TIP3    H219882   3.328   3.826   4.119 -0.7586 -0.3812 -0.9636
 6626TIP3   OH219883   0.355   3.141   2.989 -0.1603  0.3639  0.0233
 6626TIP3    H119884   0.436   3.135   2.939 -0.4405  0.0300 -0.3988
 6626TIP3    H219885   0.384   3.141   3.081  0.3083  0.0745 -0.1181
 6627TIP3   OH219886   1.089   1.426   2.464  0.4139 -0.2992 -0.1501
 6627TIP3    H119887   1.122   1.387   2.383 -1.0341  0.1282 -0.9787
 6627TIP3    H219888   1.009   1.473   2.438  0.2684  0.3969  1.4100
 6628TIP3   OH219889   1.403   2.237   4.102 -0.1404  0.1346  0.2165
 6628TIP3    H119890   1.308   2.240   4.100 -0.1385  1.2124  0.9712
 6628TIP3    H219891   1.424   2.146   4.123 -0.9358 -0.6634 -2.1398
 6629TIP3   OH219892   4.055   4.925   4.582 -0.4279  0.4724  0.0297
 6629TIP3    H119893   4.137   4.911   4.536 -1.2189 -1.4865 -0.8885
 6629TIP3    H219894   4.081   4.951   4.671  1.1348  1.0628 -0.5679
 6630TIP3   OH219895   2.878   5.545   1.903  0.7763 -0.0659 -0.1982
 6630TIP3    H119896   2.870   5.557   1.998 -2.1012  2.4028 -0.6084
 6630TIP3    H219897   2.836   5.461   1.886 -0.3696  0.3327  0.5553
 6631TIP3   OH219898   6.010   1.777   1.503  0.0799 -0.5123 -0.3775
 6631TIP3    H119899   6.086   1.829   1.479  0.6467 -1.1723 -0.0456
 6631TIP3    H219900   5.938   1.840   1.508  0.9591  0.4419  1.1225
 6632TIP3   OH219901   2.678   2.186   0.952  0.2517 -0.1318  0.2551
 6632TIP3    H119902   2.618   2.195   0.878 -0.4280  0.4307  0.8573
 6632TIP3    H219903   2.734   2.113   0.928  1.2966  1.2176 -1.6659
 6633TIP3   OH219904   4.617   3.571   4.804  0.5936 -0.0870 -0.4097
 6633TIP3    H119905   4.626   3.666   4.803  3.1294 -0.2681 -1.1761
 6633TIP3    H219906   4.652   3.544   4.890 -2.4306 -0.2573  0.9091
 6634TIP3   OH219907   4.617   4.347   0.757  0.0942 -0.2225 -0.0581
 6634TIP3    H119908   4.611   4.330   0.663  0.3874  0.9650 -0.3149
 6634TIP3    H219909   4.546   4.409   0.775  0.5217  0.1674  0.3359
 6635TIP3   OH219910   4.471   3.700   2.410 -0.4202  0.0429 -1.3169
 6635TIP3    H119911   4.566   3.688   2.401 -0.7204 -2.6241 -1.7079
 6635TIP3    H219912   4.462   3.783   2.458  2.0729  0.5866 -1.6473
 6636TIP3   OH219913   3.737   4.891   0.732 -0.3960  0.1291  0.1303
 6636TIP3    H119914   3.708   4.841   0.809 -1.3443  0.5214  0.0299
 6636TIP3    H219915   3.699   4.845   0.658 -0.0095  0.1276 -0.0715
 6637TIP3   OH219916   3.947   4.080   3.916  0.3197  0.0007  0.3082
 6637TIP3    H119917   3.923   4.158   3.966  1.3673  0.0818  0.6967
 6637TIP3    H219918   4.015   4.110   3.856  2.6089 -1.0933  2.1921
 6638TIP3   OH219919   6.290   5.728   4.591 -0.5088 -0.3014 -0.4079
 6638TIP3    H119920   6.317   5.788   4.660 -1.0907 -0.7239  0.1930
 6638TIP3    H219921   6.288   5.782   4.512  1.0525 -0.0161 -0.2972
 6639TIP3   OH219922   0.732   5.148   3.581  0.2981 -0.0330 -0.0562
 6639TIP3    H119923   0.702   5.091   3.652  0.3136  0.0220 -0.0053
 6639TIP3    H219924   0.749   5.232   3.624  0.9825 -0.1992 -0.0010
 6640TIP3   OH219925   0.586   1.523   4.750 -0.2253  0.4512 -0.4362
 6640TIP3    H119926   0.630   1.481   4.823 -1.6885  0.2531  0.3671
 6640TIP3    H219927   0.651   1.523   4.679  1.0483  0.2211  0.7026
   6.33520   5.97288   5.17267   0.00000   0.00000  -2.11173   0.00000  -2.11173  -2.98644
