Title
19927
    1ASP      N    1   5.895   3.515   4.648 -0.4165 -0.6303  0.1117
    1ASP    HT1    2   5.879   3.611   4.611 -0.2428 -0.2321  1.0344
    1ASP    HT2    3   5.912   3.447   4.572 -0.7955 -2.2459  1.4000
    1ASP    HT3    4   5.979   3.531   4.707 -0.7219 -0.1150  0.4250
    1ASP     CA    5   5.780   3.486   4.736  0.2162  0.2782 -0.0859
    1ASP     HA    6   5.783   3.530   4.834 -2.1318  0.2233  0.0868
    1ASP     CB    7   5.649   3.521   4.670  0.4473  0.2513 -0.4404
    1ASP    HB1    8   5.555   3.499   4.725 -0.1768 -0.6081 -1.8116
    1ASP    HB2    9   5.635   3.470   4.572 -0.4907 -1.5002  0.5623
    1ASP     CG   10   5.643   3.670   4.631  0.6254  0.0934 -0.1797
    1ASP    OD1   11   5.744   3.736   4.640 -0.0950  0.5261  0.1223
    1ASP    OD2   12   5.529   3.716   4.598 -0.2334  0.5835 -0.2583
    1ASP      C   13   5.775   3.337   4.770  0.5937 -0.4140 -0.4023
    1ASP      O   14   5.873   3.273   4.774  0.3305 -0.7147 -0.1238
    2ALA      N   15   5.661   3.274   4.808  0.4148 -0.2066  0.7291
    2ALA     HN   16   5.575   3.321   4.827 -0.0460 -0.2321 -1.0430
    2ALA     CA   17   5.661   3.143   4.860  0.0303  0.4100  0.0850
    2ALA     HA   18   5.733   3.079   4.811 -0.5140 -1.0800  1.1647
    2ALA     CB   19   5.701   3.147   5.006  0.1893 -0.4455 -1.1062
    2ALA    HB1   20   5.708   3.043   5.046 -1.4078  0.1324  0.8395
    2ALA    HB2   21   5.626   3.187   5.077  2.8164  0.0109  1.6288
    2ALA    HB3   22   5.799   3.198   5.019 -1.1012  1.5468  1.8298
    2ALA      C   23   5.525   3.079   4.847  0.0785 -0.3572  0.6801
    2ALA      O   24   5.424   3.152   4.841 -0.0329  0.1654  0.2418
    3ASP      N   25   5.519   2.947   4.844  0.5958  0.6853 -0.0468
    3ASP     HN   26   5.601   2.890   4.849 -0.4335 -0.7494  3.4172
    3ASP     CA   27   5.398   2.867   4.832 -0.8264 -0.1018  0.1272
    3ASP     HA   28   5.353   2.902   4.741 -1.1094  1.3114  0.7940
    3ASP     CB   29   5.430   2.716   4.845  0.6422  0.4185 -0.0619
    3ASP    HB1   30   5.341   2.650   4.833  1.1522 -0.5901  1.4118
    3ASP    HB2   31   5.485   2.696   4.939  1.5222  0.8051 -0.4863
    3ASP     CG   32   5.511   2.668   4.719  0.1738 -1.1218 -0.6464
    3ASP    OD1   33   5.581   2.567   4.736 -0.2002 -0.6015  0.2029
    3ASP    OD2   34   5.496   2.723   4.606 -0.2772  0.0861  0.0440
    3ASP      C   35   5.295   2.903   4.935 -0.1169 -0.4220 -0.0683
    3ASP      O   36   5.325   2.947   5.047 -0.6040  0.2199 -0.0278
    4GLY      N   37   5.164   2.887   4.893 -0.3432 -0.1393 -0.2351
    4GLY     HN   38   5.152   2.840   4.806 -1.0699 -0.5128  0.0578
    4GLY     CA   39   5.055   2.901   4.982  0.2934  0.3954  0.0047
    4GLY    HA1   40   4.971   2.929   4.920 -0.5063 -0.4942  0.6483
    4GLY    HA2   41   5.075   2.967   5.065 -0.8296  0.0436  0.5810
    4GLY      C   42   5.022   2.771   5.051 -0.0401 -0.5707 -0.8864
    4GLY      O   43   5.110   2.684   5.051  0.3500 -0.2738  0.4526
    5PRO      N   44   4.904   2.767   5.121  0.5840 -0.2499 -0.6134
    5PRO     CD   45   4.816   2.884   5.138  0.8673  0.4428 -0.1866
    5PRO    HD1   46   4.755   2.892   5.046  1.3497  1.4195 -0.4403
    5PRO    HD2   47   4.869   2.980   5.156 -0.2833  1.4499 -1.8486
    5PRO     CA   48   4.847   2.646   5.179  0.3894  0.2358  0.1232
    5PRO     HA   49   4.920   2.614   5.253 -0.5035 -0.5865  0.6808
    5PRO     CB   50   4.707   2.694   5.240  0.1065 -0.5095  0.3060
    5PRO    HB1   51   4.700   2.642   5.338  0.6247 -1.3995 -0.1187
    5PRO    HB2   52   4.630   2.676   5.161  0.3671 -2.0481  0.3816
    5PRO     CG   53   4.726   2.847   5.262 -0.0674  0.6700 -0.0877
    5PRO    HG1   54   4.633   2.906   5.277 -0.0805  0.2542  1.6417
    5PRO    HG2   55   4.792   2.847   5.352  1.5831  1.3663 -1.2451
    5PRO      C   56   4.832   2.525   5.085 -0.5835 -0.4844  0.1357
    5PRO      O   57   4.844   2.532   4.962  0.1546 -0.2586 -0.3512
    6GLY      N   58   4.814   2.408   5.147 -0.1744  0.0439  0.8156
    6GLY     HN   59   4.812   2.409   5.247 -0.6163 -1.1121  0.8287
    6GLY     CA   60   4.801   2.275   5.085  0.7071 -0.0738 -0.1326
    6GLY    HA1   61   4.769   2.210   5.165 -1.3643 -1.4725 -2.0103
    6GLY    HA2   62   4.896   2.248   5.041  0.6658  1.5671 -1.3015
    6GLY      C   63   4.680   2.263   4.995 -0.2442  0.2323  0.1100
    6GLY      O   64   4.591   2.345   4.999  0.1790 -0.4050 -0.1726
    7ASP      N   65   4.687   2.166   4.904  0.0936 -0.2972  0.1542
    7ASP     HN   66   4.759   2.097   4.909 -0.9604 -1.4253  0.5132
    7ASP     CA   67   4.573   2.120   4.822 -0.9916 -0.7761 -0.8553
    7ASP     HA   68   4.539   2.207   4.767 -2.0429 -1.2840 -1.0225
    7ASP     CB   69   4.628   2.017   4.730 -0.8166  0.2313  0.0144
    7ASP    HB1   70   4.558   1.954   4.671  0.5779  0.1422 -1.6107
    7ASP    HB2   71   4.688   1.940   4.784  1.0033  1.0639 -0.7231
    7ASP     CG   72   4.713   2.081   4.620 -0.1880  0.6420 -0.0963
    7ASP    OD1   73   4.700   2.195   4.579  0.1233  0.0114  0.5922
    7ASP    OD2   74   4.784   2.001   4.557 -0.3342 -0.2088 -0.1363
    7ASP      C   75   4.455   2.069   4.905 -0.7459 -0.6189  0.3022
    7ASP      O   76   4.479   1.997   5.000 -0.3792  0.1427  0.2973
    8PRO      N   77   4.326   2.109   4.893 -0.0383  0.1511  0.8724
    8PRO     CD   78   4.289   2.222   4.804 -0.5010  0.1513 -0.8217
    8PRO    HD1   79   4.277   2.182   4.701 -1.4605 -1.3972 -0.1273
    8PRO    HD2   80   4.366   2.301   4.818  0.1747 -0.7259  0.6223
    8PRO     CA   81   4.215   2.072   4.988 -0.9579  1.2858  0.0066
    8PRO     HA   82   4.260   2.111   5.078 -0.0735  0.7162 -0.1797
    8PRO     CB   83   4.098   2.148   4.922  0.2928  0.6473 -0.1442
    8PRO    HB1   84   4.016   2.189   4.984 -0.8080 -0.7555 -0.6088
    8PRO    HB2   85   4.041   2.089   4.847 -0.0721 -1.2597  1.5317
    8PRO     CG   86   4.164   2.270   4.862  0.2312 -0.0936  0.3301
    8PRO    HG1   87   4.106   2.329   4.787  0.0143 -0.3973  0.2575
    8PRO    HG2   88   4.193   2.328   4.952  1.1441 -1.7353  1.1246
    8PRO      C   89   4.188   1.911   4.987 -0.0375  0.2106 -0.2849
    8PRO      O   90   4.151   1.856   4.886  0.2600 -0.0726 -0.1075
    9ASP      N   91   4.199   1.844   5.097  0.0592 -0.9945 -0.7671
    9ASP     HN   92   4.223   1.892   5.181 -0.4403 -1.3010 -0.4401
    9ASP     CA   93   4.160   1.708   5.107  0.1136 -0.8870  0.2365
    9ASP     HA   94   4.216   1.652   5.034 -0.4569 -0.9306 -0.1674
    9ASP     CB   95   4.205   1.661   5.246  0.3217  0.1172  0.6496
    9ASP    HB1   96   4.177   1.555   5.264  0.5165  0.1180  0.9583
    9ASP    HB2   97   4.147   1.725   5.315 -0.8742  1.7523 -1.7050
    9ASP     CG   98   4.351   1.672   5.257 -0.4669  0.8033  0.6088
    9ASP    OD1   99   4.422   1.645   5.157 -0.4569 -0.0899 -0.2766
    9ASP    OD2  100   4.399   1.687   5.370 -0.5453 -0.2684  0.1034
    9ASP      C  101   4.009   1.680   5.080 -0.3163  0.6467  0.5717
    9ASP      O  102   3.927   1.772   5.102 -0.2383 -0.0070  0.0212
   10ALA      N  103   3.975   1.564   5.019 -0.2082  0.6614  0.1245
   10ALA     HN  104   4.038   1.488   5.010 -2.5006 -1.1736 -1.6379
   10ALA     CA  105   3.839   1.524   4.972 -0.4060 -0.2085 -0.3077
   10ALA     HA  106   3.802   1.614   4.924 -0.1743 -0.1138 -0.3087
   10ALA     CB  107   3.838   1.417   4.863 -0.1245 -0.5193  0.5104
   10ALA    HB1  108   3.741   1.387   4.819  1.4472 -1.7672 -2.4411
   10ALA    HB2  109   3.892   1.326   4.898  1.2835  0.7247  1.7175
   10ALA    HB3  110   3.917   1.444   4.789  1.7815 -1.4057  2.1286
   10ALA      C  111   3.735   1.491   5.088 -0.1445  0.2517 -0.5058
   10ALA      O  112   3.760   1.444   5.198 -0.5823 -0.3825  0.4912
   11GLY      N  113   3.605   1.519   5.062  0.5041  0.4309 -0.0104
   11GLY     HN  114   3.573   1.581   4.991 -1.6414  0.5228  0.9481
   11GLY     CA  115   3.491   1.487   5.151 -0.3449  0.1204  0.3175
   11GLY    HA1  116   3.523   1.412   5.221 -0.2548  0.6516  0.8501
   11GLY    HA2  117   3.412   1.456   5.085  1.7192  0.3083 -2.4542
   11GLY      C  118   3.437   1.611   5.225 -0.6510  0.3872  0.2296
   11GLY    OT1  119   3.416   1.595   5.346 -0.2633 -0.0074 -0.6008
   11GLY    OT2  120   3.413   1.717   5.168 -0.3255 -0.0980 -0.3441
   12SOD    SOD  121   3.098   2.781   1.422 -0.3651  0.3782 -0.1642
   13SOD    SOD  122   0.812   0.867   4.542  0.4284 -0.0274  0.0371
   14SOD    SOD  123   2.841   3.988   1.982  0.2411 -0.5892  0.0087
   15SOD    SOD  124   0.379   4.917   0.733 -0.1866  0.7299  0.2621
   16SOD    SOD  125   2.074   5.632   0.835  0.1867 -0.2211 -0.3636
   17SOD    SOD  126   4.337   3.858   4.873  0.3431  0.1135 -0.1849
   18SOD    SOD  127   4.564   1.174   1.319  0.5744 -0.1263 -0.0875
   19SOD    SOD  128   2.202   5.973   1.493 -0.7945  0.2238 -0.1631
   20SOD    SOD  129   3.836   0.670   4.501 -0.0678  0.2564  0.1298
   21SOD    SOD  130   2.342   2.840   4.897  0.2696  0.1053  0.2021
   22SOD    SOD  131   4.011   2.951   0.861 -0.4918 -0.9883 -0.3314
   23SOD    SOD  132   3.077   1.281   0.701 -0.4995 -0.5897 -0.0749
   24SOD    SOD  133   3.693   4.785   4.996 -0.3265 -0.4295 -0.1436
   25SOD    SOD  134   5.651   5.558   1.777 -0.2604 -0.3390 -0.3156
   26SOD    SOD  135   5.772   1.950   4.429  0.1741  0.4448 -0.0286
   27SOD    SOD  136   5.067   2.802   4.478 -0.3111  0.3733  0.0541
   28SOD    SOD  137   0.088   1.962   3.999  0.0606 -0.0732  0.3155
   29SOD    SOD  138   2.270   3.655   4.200  0.3176 -0.0285 -0.1763
   30SOD    SOD  139   1.424   5.310   2.075 -0.0899 -0.4140 -0.1633
   31SOD    SOD  140   4.932   2.264   1.908  0.5222  0.4606 -0.1600
   32SOD    SOD  141   0.315   1.949   1.383  0.0153 -0.1984  0.1599
   33SOD    SOD  142   5.128   5.587   3.214  0.1953  0.1595  0.0916
   34CLA    CLA  143   2.221   2.992   0.606  0.2838 -0.0111  0.2615
   35CLA    CLA  144   1.745   0.087   2.712  0.1792 -0.1384 -0.3763
   36CLA    CLA  145   1.842   0.273   1.162  0.2968  0.3658 -0.2713
   37CLA    CLA  146   2.350   3.051   5.055  0.3011  0.1135  0.1004
   38CLA    CLA  147   1.435   1.028   2.313 -0.4357  0.3219  0.5748
   39CLA    CLA  148   3.040   5.732   1.492 -0.3298  0.2510  0.7977
   40CLA    CLA  149   2.167   2.472   4.275  0.5786 -0.0250 -0.0580
   41CLA    CLA  150   2.642   5.325   1.767 -0.1218 -0.3162  0.0630
   42CLA    CLA  151   3.017   3.381   0.931  0.1940 -0.3114 -0.0449
   43CLA    CLA  152   3.867   4.812   2.147 -0.0321 -0.2154 -0.2759
   44CLA    CLA  153   0.358   0.519   4.483  0.2991  0.0360  0.2035
   45CLA    CLA  154   5.272   0.284   4.370  0.1757 -0.3091 -0.3294
   46CLA    CLA  155   0.682   5.804   1.344  0.1621  0.1525 -0.1579
   47CLA    CLA  156   5.102   0.621   2.925  0.0166 -0.0641  0.2008
   48CLA    CLA  157   0.172   5.238   0.444  0.3009 -0.0750 -0.1923
   49CLA    CLA  158   1.409   0.288   0.882 -0.2028 -0.0293  0.2277
   50CLA    CLA  159   1.672   2.144   4.995 -0.2427 -0.0510 -0.4135
   51CLA    CLA  160   1.073   3.332   0.287  0.0152  0.3054 -0.0973
   52TIP3   OH2  161   5.179   1.176   0.563  0.3796  0.4686  0.3524
   52TIP3    H1  162   5.126   1.253   0.583 -0.1621 -0.1492  1.4096
   52TIP3    H2  163   5.252   1.181   0.625 -0.6570 -0.8174  1.7727
   53TIP3   OH2  164   2.332   3.978   1.456 -0.2288 -0.0346  0.6393
   53TIP3    H1  165   2.376   4.025   1.528  2.2931  2.5075 -2.2774
   53TIP3    H2  166   2.250   4.026   1.443 -1.5639 -1.5657  2.7481
   54TIP3   OH2  167   3.991   5.669   4.324  0.1089 -0.0496 -0.3446
   54TIP3    H1  168   3.944   5.616   4.259  1.1892 -0.4975 -0.7792
   54TIP3    H2  169   4.066   5.704   4.276  1.4861 -1.1831  0.8784
   55TIP3   OH2  170   4.475   0.190   3.556 -0.1134  0.1233  0.2922
   55TIP3    H1  171   4.500   0.218   3.645  2.9382 -0.3197 -0.2914
   55TIP3    H2  172   4.508   0.259   3.499  1.5734 -1.4036 -0.6957
   56TIP3   OH2  173   0.477   0.755   3.743 -0.5042 -0.0180 -0.0407
   56TIP3    H1  174   0.479   0.794   3.656 -0.5203 -0.2135 -0.1309
   56TIP3    H2  175   0.436   0.669   3.730  1.5353 -1.0294 -0.2494
   57TIP3   OH2  176   4.847   1.287   3.919 -0.3657  0.6303  0.0147
   57TIP3    H1  177   4.936   1.309   3.894 -0.0068  1.6289  1.9837
   57TIP3    H2  178   4.799   1.283   3.836  1.1658  1.6556 -0.9655
   58TIP3   OH2  179   1.759   0.050   4.055  0.4563 -0.0198 -0.1706
   58TIP3    H1  180   1.812   0.125   4.082  0.2711  0.8657 -2.0981
   58TIP3    H2  181   1.695   0.038   4.125  0.7058  1.3943  0.3191
   59TIP3   OH2  182   3.842   4.192   0.659 -0.3612 -0.3102  0.3689
   59TIP3    H1  183   3.759   4.160   0.695 -0.5333 -2.2348 -1.5147
   59TIP3    H2  184   3.906   4.124   0.682  0.3385  0.3051  0.2937
   60TIP3   OH2  185   5.165   4.979   1.586 -0.1620  0.1422 -0.0370
   60TIP3    H1  186   5.070   4.989   1.594 -0.5129 -1.4131 -1.4432
   60TIP3    H2  187   5.202   5.056   1.628 -2.0871  1.2829 -0.3204
   61TIP3   OH2  188   4.060   0.095   0.619  0.4937 -0.1116 -0.1035
   61TIP3    H1  189   4.006   0.148   0.678 -0.4441 -0.5348 -0.5600
   61TIP3    H2  190   4.112   0.159   0.571  0.3486  0.3142  0.2880
   62TIP3   OH2  191   5.862   4.560   1.301  0.1697  0.3906  0.1999
   62TIP3    H1  192   5.823   4.636   1.344  0.4865  0.8541 -0.3163
   62TIP3    H2  193   5.921   4.598   1.236  0.8098 -0.3035  0.3776
   63TIP3   OH2  194   5.193   1.537   4.448 -0.3877 -0.2884 -0.0873
   63TIP3    H1  195   5.185   1.451   4.407 -1.8585 -0.4952  0.5805
   63TIP3    H2  196   5.104   1.560   4.474  0.3026  0.3447  1.9396
   64TIP3   OH2  197   4.827   0.778   3.596  0.0733 -0.1319  0.5628
   64TIP3    H1  198   4.813   0.864   3.636 -0.4646  0.3145 -0.5585
   64TIP3    H2  199   4.753   0.725   3.625  0.9267 -0.5711  2.0984
   65TIP3   OH2  200   5.600   2.262   2.299 -0.2619  0.4430  0.2447
   65TIP3    H1  201   5.645   2.346   2.289  0.6302 -0.0064  0.4399
   65TIP3    H2  202   5.666   2.196   2.277 -0.9282 -0.2157  0.1806
   66TIP3   OH2  203   5.659   1.261   2.730  0.3786 -0.0292 -0.3556
   66TIP3    H1  204   5.707   1.240   2.810 -0.9206  0.5659  0.6344
   66TIP3    H2  205   5.610   1.181   2.709 -0.4976  0.2857  0.3878
   67TIP3   OH2  206   0.792   1.569   0.659 -0.5052  0.0387  0.0764
   67TIP3    H1  207   0.852   1.507   0.617  0.0976  1.3014 -0.9651
   67TIP3    H2  208   0.726   1.513   0.701  1.1280 -1.3747  0.8796
   68TIP3   OH2  209   6.225   3.753   4.003  0.7525 -0.7849 -0.2451
   68TIP3    H1  210   6.132   3.762   4.020  1.1421  0.9122  1.3032
   68TIP3    H2  211   6.233   3.763   3.908 -0.4493  1.7376 -0.1593
   69TIP3   OH2  212   1.695   4.527   2.496  0.0272  0.3646 -0.0633
   69TIP3    H1  213   1.639   4.535   2.573 -1.8478 -0.1513 -1.2808
   69TIP3    H2  214   1.650   4.463   2.441  0.3260  1.9932 -2.3597
   70TIP3   OH2  215   5.758   2.409   5.120  0.5206  0.4156  0.8640
   70TIP3    H1  216   5.690   2.413   5.052  1.2439 -1.0635  0.0068
   70TIP3    H2  217   5.732   2.335   5.174  1.4968 -0.2495  0.4460
   71TIP3   OH2  218   4.733   1.867   2.789  0.2662  0.3437  0.5926
   71TIP3    H1  219   4.781   1.939   2.831  0.0681  2.5190 -2.5497
   71TIP3    H2  220   4.796   1.796   2.783  0.5898  0.2725  3.4912
   72TIP3   OH2  221   2.848   1.430   1.281  0.0591  0.3929  0.3039
   72TIP3    H1  222   2.872   1.387   1.363 -2.0801 -0.4662  0.5323
   72TIP3    H2  223   2.899   1.384   1.214 -0.6137 -1.1201  0.7919
   73TIP3   OH2  224   6.044   1.867   1.131 -0.0089  0.6917 -0.6850
   73TIP3    H1  225   6.109   1.934   1.151 -0.0116  0.8320 -1.1301
   73TIP3    H2  226   6.006   1.895   1.047 -1.6457  1.3840  0.2310
   74TIP3   OH2  227   2.606   5.230   2.941  0.2206 -0.1305  0.3364
   74TIP3    H1  228   2.642   5.141   2.940  0.6335  0.0326 -0.7513
   74TIP3    H2  229   2.599   5.254   2.848 -0.8129  0.6084  0.5864
   75TIP3   OH2  230   6.212   1.135   4.580  0.4612 -0.3578 -0.0257
   75TIP3    H1  231   6.173   1.209   4.627  1.2197 -0.2978  0.5202
   75TIP3    H2  232   6.196   1.060   4.637  1.9374 -0.1820  0.6681
   76TIP3   OH2  233   4.694   5.038   3.766 -0.3318  0.2720 -0.5583
   76TIP3    H1  234   4.732   5.114   3.810  0.6402 -0.4105 -0.1733
   76TIP3    H2  235   4.689   4.971   3.835  0.6989 -0.6426 -1.3362
   77TIP3   OH2  236   1.356   0.335   2.859 -0.1990 -0.4823  0.1261
   77TIP3    H1  237   1.393   0.395   2.924  0.2509 -1.4297  0.7694
   77TIP3    H2  238   1.415   0.342   2.784  1.0684 -1.6519  0.9785
   78TIP3   OH2  239   3.348   4.814   2.611  0.3067 -0.5774  0.6363
   78TIP3    H1  240   3.298   4.776   2.684  0.2915 -2.0341 -0.0914
   78TIP3    H2  241   3.313   4.903   2.602 -0.5358 -0.7847  1.6185
   79TIP3   OH2  242   2.674   4.721   3.916  0.2098  0.2355 -0.7315
   79TIP3    H1  243   2.599   4.673   3.882 -0.5814  0.4021  0.7003
   79TIP3    H2  244   2.735   4.653   3.946 -0.8614  0.0419  1.1895
   80TIP3   OH2  245   5.495   1.215   3.264 -0.3286  0.1007  0.0291
   80TIP3    H1  246   5.454   1.179   3.342 -0.2133  0.8633  0.4505
   80TIP3    H2  247   5.453   1.300   3.252 -0.0710  0.1511 -0.5139
   81TIP3   OH2  248   6.119   0.033   2.521  0.3237 -0.5892 -0.0136
   81TIP3    H1  249   6.101  -0.036   2.457 -1.4603  0.2977 -0.5183
   81TIP3    H2  250   6.207   0.013   2.553  0.6299 -1.9711 -1.5747
   82TIP3   OH2  251   5.736   1.913   2.489  0.1978 -0.0108 -0.1707
   82TIP3    H1  252   5.744   1.846   2.557 -0.2526 -2.5406 -2.4640
   82TIP3    H2  253   5.645   1.940   2.493  0.1489 -0.2126  0.1633
   83TIP3   OH2  254   1.479   3.111   1.111  0.1175 -0.1207 -0.4688
   83TIP3    H1  255   1.424   3.187   1.134  0.9357  0.5218 -0.6113
   83TIP3    H2  256   1.454   3.090   1.021  1.1766  1.1488 -1.0946
   84TIP3   OH2  257   4.456   3.503   2.501 -0.2478 -0.0154  0.2479
   84TIP3    H1  258   4.391   3.442   2.464 -1.3947  0.7422  0.9493
   84TIP3    H2  259   4.445   3.583   2.450  0.8435 -0.1759 -0.2744
   85TIP3   OH2  260   0.849   5.326   0.111  0.3236  0.0261  0.8157
   85TIP3    H1  261   0.768   5.360   0.149 -0.6222 -0.9714 -0.2449
   85TIP3    H2  262   0.906   5.403   0.106 -1.1914  1.1668 -0.0688
   86TIP3   OH2  263   1.072   2.919   0.599  0.0768  0.2191  0.2016
   86TIP3    H1  264   1.017   2.942   0.524  1.2942 -0.6269 -0.9971
   86TIP3    H2  265   1.159   2.905   0.561  1.1992  1.7185  2.0651
   87TIP3   OH2  266   3.123   1.399   4.860  0.0107 -0.0008 -0.2218
   87TIP3    H1  267   3.031   1.426   4.850 -0.3241 -1.1592 -0.4985
   87TIP3    H2  268   3.166   1.474   4.899 -1.2227  0.2979  0.6409
   88TIP3   OH2  269   6.297   5.692   3.296  0.3212 -0.2945 -0.4453
   88TIP3    H1  270   6.295   5.682   3.391 -1.6467 -0.4436 -0.4598
   88TIP3    H2  271   6.302   5.786   3.282 -2.3174 -0.0089 -0.0977
   89TIP3   OH2  272   0.222   2.840   4.795 -0.0623 -0.0914 -0.3166
   89TIP3    H1  273   0.248   2.805   4.709  0.5482 -1.1422  0.2756
   89TIP3    H2  274   0.219   2.763   4.852  1.6712  0.8600  1.1309
   90TIP3   OH2  275   1.392   3.945   2.637 -0.1099 -0.3423 -0.5567
   90TIP3    H1  276   1.330   3.881   2.672  0.6279 -0.1813  1.1415
   90TIP3    H2  277   1.348   3.981   2.560 -0.9964 -2.0927 -0.9175
   91TIP3   OH2  278   2.708   0.773   1.880  0.0068  0.1853  0.7780
   91TIP3    H1  279   2.723   0.721   1.801  0.5576  0.5727  0.6168
   91TIP3    H2  280   2.647   0.841   1.852  0.2021  0.3224  0.6833
   92TIP3   OH2  281   1.514   1.537   4.040  0.1325  0.2598 -0.1716
   92TIP3    H1  282   1.592   1.515   3.990  1.4811 -0.5660  2.1181
   92TIP3    H2  283   1.544   1.604   4.102 -1.4832  1.3474 -0.5167
   93TIP3   OH2  284   3.982   5.340   2.590  0.5157 -0.3597 -0.1151
   93TIP3    H1  285   4.043   5.270   2.615  2.8362  1.3908 -0.5101
   93TIP3    H2  286   3.970   5.391   2.670  1.0697  0.3419 -0.4655
   94TIP3   OH2  287   0.377   0.691   3.034 -0.2804  0.4340 -0.1540
   94TIP3    H1  288   0.470   0.692   3.011 -0.0772  0.5471  0.6317
   94TIP3    H2  289   0.368   0.617   3.095 -1.2996 -1.4660 -2.4798
   95TIP3   OH2  290   4.864   0.395   2.916 -0.4096 -0.4441  0.5820
   95TIP3    H1  291   4.851   0.376   2.823 -0.0267 -0.4395  0.5265
   95TIP3    H2  292   4.943   0.448   2.919 -1.1023  0.6096  0.8067
   96TIP3   OH2  293   4.662   4.258   2.150  0.4377 -0.6300 -0.1979
   96TIP3    H1  294   4.684   4.188   2.212  1.1465 -1.8749 -1.7761
   96TIP3    H2  295   4.603   4.216   2.087 -0.3376  0.6188 -0.3343
   97TIP3   OH2  296   1.810   0.379   4.081  0.0121  0.7583 -0.3695
   97TIP3    H1  297   1.875   0.446   4.100 -1.3613  2.1208 -0.1879
   97TIP3    H2  298   1.731   0.429   4.058 -0.5172 -0.8052 -2.1993
   98TIP3   OH2  299   6.271   0.417   0.632 -0.3611  0.5280  0.6714
   98TIP3    H1  300   6.288   0.425   0.538 -0.0131 -0.5596  0.6242
   98TIP3    H2  301   6.261   0.323   0.646 -0.8949  0.7212  1.6483
   99TIP3   OH2  302   1.624   2.805   3.689  0.0760  0.2549  0.6623
   99TIP3    H1  303   1.619   2.725   3.741  0.1008 -0.5624 -0.5410
   99TIP3    H2  304   1.545   2.854   3.712 -0.1039 -0.2634  1.1717
  100TIP3   OH2  305   0.389   4.136   4.210  0.1109  0.2507 -0.0010
  100TIP3    H1  306   0.390   4.192   4.288 -1.4861  0.6619 -0.2509
  100TIP3    H2  307   0.443   4.183   4.146  0.4181  0.5126  0.4413
  101TIP3   OH2  308   3.141   1.094   3.518 -0.6846 -0.1728 -0.2439
  101TIP3    H1  309   3.169   1.145   3.443  1.2415  3.2295  2.4880
  101TIP3    H2  310   3.054   1.127   3.539  0.0455  1.1850  0.7721
  102TIP3   OH2  311   3.376   2.658   3.865  0.4312  0.0209 -0.6701
  102TIP3    H1  312   3.354   2.583   3.810 -0.1483 -0.2359 -0.0888
  102TIP3    H2  313   3.349   2.633   3.953 -1.9478  1.7838 -0.8055
  103TIP3   OH2  314   5.502   3.633   1.276 -0.0763 -0.0956  0.2356
  103TIP3    H1  315   5.476   3.656   1.365 -0.6391 -0.6436  0.2234
  103TIP3    H2  316   5.428   3.583   1.241 -0.8167  1.9439 -1.3082
  104TIP3   OH2  317   4.903   3.642   1.438 -0.9172 -0.0477  0.9459
  104TIP3    H1  318   4.811   3.667   1.433 -0.2810  2.3108 -0.9069
  104TIP3    H2  319   4.951   3.724   1.425  1.4647 -1.1595  2.1238
  105TIP3   OH2  320   0.816   1.892   3.473  0.0238 -0.0564 -0.1687
  105TIP3    H1  321   0.910   1.911   3.472  0.0607 -0.1181  1.1046
  105TIP3    H2  322   0.785   1.920   3.386  0.6883  2.6707  0.3876
  106TIP3   OH2  323   4.173   5.519   4.969  0.5124 -0.3818 -0.8009
  106TIP3    H1  324   4.136   5.581   5.032  0.8986  0.7810 -1.6649
  106TIP3    H2  325   4.265   5.512   4.993  0.8475  0.6940 -1.6806
  107TIP3   OH2  326   2.994   2.570   3.666 -0.0302  0.0890 -0.1558
  107TIP3    H1  327   2.946   2.617   3.735  0.0157 -0.0048 -0.0602
  107TIP3    H2  328   2.971   2.616   3.585  0.3581  0.5479 -0.0095
  108TIP3   OH2  329   0.626   3.440   2.809  0.0585  0.4921 -0.0988
  108TIP3    H1  330   0.717   3.415   2.794  0.9351  2.7543  1.1287
  108TIP3    H2  331   0.581   3.414   2.728  1.6355 -1.2093 -0.4926
  109TIP3   OH2  332   2.602   0.436   1.778  0.3567 -0.7347 -0.1685
  109TIP3    H1  333   2.641   0.351   1.794  2.0419 -0.0446 -0.4281
  109TIP3    H2  334   2.572   0.433   1.687 -0.1764 -1.2411  0.0147
  110TIP3   OH2  335   5.749   3.807   4.904  0.2759 -0.4885 -0.8075
  110TIP3    H1  336   5.795   3.890   4.900 -0.0278 -0.3654 -2.3876
  110TIP3    H2  337   5.762   3.768   4.818  1.6217 -2.7551  0.3262
  111TIP3   OH2  338   3.520   1.844   0.943 -0.1861 -0.5584 -0.0962
  111TIP3    H1  339   3.508   1.795   1.024 -1.1141 -0.5816 -0.2389
  111TIP3    H2  340   3.555   1.780   0.881  2.2152 -0.1390  0.7370
  112TIP3   OH2  341   0.053   4.033   4.354 -0.1711 -0.3406 -0.0265
  112TIP3    H1  342   0.085   4.093   4.422 -1.4393  0.4879 -0.1129
  112TIP3    H2  343  -0.023   3.990   4.395 -0.9277  0.1451 -0.8974
  113TIP3   OH2  344   2.310   2.691   4.427  0.2918  0.0810 -0.0933
  113TIP3    H1  345   2.287   2.625   4.362 -0.2390 -0.3557  0.5211
  113TIP3    H2  346   2.397   2.664   4.458  0.3422  0.0240 -0.2838
  114TIP3   OH2  347   1.969   1.015   0.529 -0.3464  0.2547 -0.5126
  114TIP3    H1  348   2.010   1.082   0.583 -0.2521  0.0975 -0.3861
  114TIP3    H2  349   1.930   0.954   0.592 -1.4523  0.8079 -0.6286
  115TIP3   OH2  350   4.191   4.565   4.870 -0.1409  0.0849 -0.5317
  115TIP3    H1  351   4.229   4.630   4.812 -0.4998 -1.0620 -2.1101
  115TIP3    H2  352   4.155   4.617   4.943 -0.9517  1.7228 -2.0153
  116TIP3   OH2  353   2.603   5.901   2.017  0.7430 -0.2856  0.1225
  116TIP3    H1  354   2.644   5.831   1.967 -0.0162 -1.3641  0.9561
  116TIP3    H2  355   2.675   5.941   2.066  1.1048 -0.8076  0.0208
  117TIP3   OH2  356   3.806   0.048   2.468 -0.3587 -0.3540 -0.1871
  117TIP3    H1  357   3.828   0.062   2.376  2.3714 -0.9985  0.2690
  117TIP3    H2  358   3.737  -0.017   2.468 -2.0599  1.3535 -1.8094
  118TIP3   OH2  359   2.545   2.526   3.319 -0.1565 -0.1514 -0.2561
  118TIP3    H1  360   2.617   2.529   3.381 -0.3073  3.6604 -0.0389
  118TIP3    H2  361   2.584   2.547   3.235 -0.6688 -0.6321 -0.6266
  119TIP3   OH2  362   5.908   1.772   0.518  0.1035  0.2457  0.1230
  119TIP3    H1  363   5.872   1.856   0.490 -1.6165 -0.8830 -1.2127
  119TIP3    H2  364   5.999   1.774   0.487 -0.9351  0.1706 -3.3436
  120TIP3   OH2  365   5.768   1.095   4.838 -0.3045 -0.2940 -0.2321
  120TIP3    H1  366   5.727   1.008   4.837 -0.5496 -0.1859  0.0715
  120TIP3    H2  367   5.749   1.129   4.926 -1.4070  0.6300 -0.8015
  121TIP3   OH2  368   1.710   4.431   0.015  0.0498  0.2944 -0.0142
  121TIP3    H1  369   1.753   4.366   0.071 -2.6471 -0.0504  1.9030
  121TIP3    H2  370   1.722   4.514   0.060 -0.7409  0.2706  0.2726
  122TIP3   OH2  371   4.685   4.685   2.919  0.6211  0.1175  0.2249
  122TIP3    H1  372   4.648   4.612   2.969  2.6017 -0.4249  1.0027
  122TIP3    H2  373   4.698   4.650   2.831  0.0761  0.0524  0.1679
  123TIP3   OH2  374   5.316   2.445   0.171 -0.0844  0.1329  0.0756
  123TIP3    H1  375   5.369   2.375   0.208  0.9904  0.5559 -0.6254
  123TIP3    H2  376   5.338   2.446   0.078 -0.5605  0.9733 -0.0417
  124TIP3   OH2  377   1.860   1.792   4.338 -0.1086  0.2785 -0.5777
  124TIP3    H1  378   1.845   1.862   4.274 -1.2639  1.2737  0.7043
  124TIP3    H2  379   1.928   1.826   4.395 -0.1373  0.0352 -0.3964
  125TIP3   OH2  380   4.569   3.594   0.284  0.0220  0.0740 -0.2597
  125TIP3    H1  381   4.575   3.668   0.344 -0.8996  0.5143 -0.6900
  125TIP3    H2  382   4.637   3.610   0.219  0.3693  0.1111  0.1114
  126TIP3   OH2  383   5.499   3.687   0.029  0.8269  0.0839  0.2808
  126TIP3    H1  384   5.476   3.769   0.073  1.2554 -0.2618  1.1823
  126TIP3    H2  385   5.471   3.699  -0.061 -0.6249  0.6013  0.7749
  127TIP3   OH2  386   4.363   0.594   0.398  0.1115 -0.0428  0.5706
  127TIP3    H1  387   4.270   0.611   0.410  0.3049  1.2825  0.3087
  127TIP3    H2  388   4.406   0.678   0.414  1.0681 -0.0987 -1.3983
  128TIP3   OH2  389   4.815   1.374   2.730  0.3358  0.7627  0.1595
  128TIP3    H1  390   4.796   1.292   2.685 -2.1951  0.6663  1.2369
  128TIP3    H2  391   4.805   1.441   2.662  2.7432  0.2417 -0.8047
  129TIP3   OH2  392   6.088   4.656   1.825  0.3411 -0.0601 -0.2494
  129TIP3    H1  393   6.128   4.637   1.741  0.5978  2.2269 -0.6936
  129TIP3    H2  394   6.021   4.721   1.806  0.0241  0.0854  1.2408
  130TIP3   OH2  395   1.575   0.811   3.241  0.1495  0.0824  0.3039
  130TIP3    H1  396   1.645   0.746   3.239 -1.5447 -1.8581  1.4122
  130TIP3    H2  397   1.525   0.791   3.320 -0.5779  2.6194  0.5855
  131TIP3   OH2  398   6.098   3.402   0.390  0.1371 -0.3198 -0.0288
  131TIP3    H1  399   6.109   3.323   0.442  0.1113 -0.9441 -0.9497
  131TIP3    H2  400   6.162   3.393   0.319  0.7269  0.8880  0.3223
  132TIP3   OH2  401   3.898   4.704   1.821  0.3178  0.0692  0.1914
  132TIP3    H1  402   3.811   4.679   1.788  0.2467 -0.2695  0.6252
  132TIP3    H2  403   3.887   4.707   1.916  0.5126  1.0607  0.1857
  133TIP3   OH2  404   3.200   2.975   1.328  0.6546  0.3947  0.2415
  133TIP3    H1  405   3.154   3.037   1.272 -2.6667 -1.0515  1.1083
  133TIP3    H2  406   3.231   3.027   1.402  0.8352  1.5149 -0.6031
  134TIP3   OH2  407   4.790   5.473   4.630  0.2649 -0.1008 -0.1253
  134TIP3    H1  408   4.723   5.483   4.563  2.3743 -1.3087 -2.6244
  134TIP3    H2  409   4.742   5.449   4.709 -2.2921  0.3232 -1.4374
  135TIP3   OH2  410   2.018   3.878   4.017 -0.8661 -0.3626 -0.4471
  135TIP3    H1  411   2.010   3.946   4.084 -0.4418  0.4971 -1.2422
  135TIP3    H2  412   2.072   3.810   4.058 -0.3172  0.3122 -0.0312
  136TIP3   OH2  413   0.263   0.348   2.636  0.1211 -0.2798 -0.2774
  136TIP3    H1  414   0.327   0.416   2.657  0.1923  0.2374 -1.9849
  136TIP3    H2  415   0.213   0.335   2.717  1.3409  0.4442  0.6133
  137TIP3   OH2  416   5.784   5.080   1.564  0.4245  0.4179  0.0525
  137TIP3    H1  417   5.819   5.116   1.482  0.9596 -0.2106  0.0032
  137TIP3    H2  418   5.836   5.122   1.633 -0.0274  0.9491  0.0816
  138TIP3   OH2  419   0.276   0.203   0.163 -0.3765 -0.0717  0.6919
  138TIP3    H1  420   0.225   0.170   0.089  0.4689 -1.0279  0.5010
  138TIP3    H2  421   0.324   0.278   0.128  1.2831 -1.4957 -0.2503
  139TIP3   OH2  422   3.697   5.728   4.546  0.6957 -0.3235 -0.0847
  139TIP3    H1  423   3.676   5.696   4.458 -1.6045  0.5714  0.0659
  139TIP3    H2  424   3.641   5.805   4.557  0.3176 -0.8700  2.4648
  140TIP3   OH2  425   3.260   4.597   1.739 -0.4149 -0.2607  0.4369
  140TIP3    H1  426   3.280   4.685   1.771 -2.2352  0.3611  0.0094
  140TIP3    H2  427   3.198   4.562   1.803 -2.8736  0.3995 -1.4076
  141TIP3   OH2  428   1.231   0.737   0.022 -0.1720 -0.3348 -0.1017
  141TIP3    H1  429   1.219   0.674   0.094 -0.5855  1.0168  1.0485
  141TIP3    H2  430   1.262   0.817   0.065  1.9506 -0.2031 -1.7153
  142TIP3   OH2  431   0.791   1.684   2.522  0.0402 -0.3148  0.1863
  142TIP3    H1  432   0.802   1.591   2.502 -0.6326 -0.6003  1.0878
  142TIP3    H2  433   0.714   1.711   2.472  0.2176 -0.2469 -0.0516
  143TIP3   OH2  434   5.533   1.131   3.661  0.2737 -0.1080  0.0667
  143TIP3    H1  435   5.539   1.036   3.662 -0.9942 -0.2099  0.1324
  143TIP3    H2  436   5.449   1.149   3.619  1.4422  1.0551 -1.9083
  144TIP3   OH2  437   4.435   3.659   0.008 -0.5889 -0.4856 -0.0252
  144TIP3    H1  438   4.356   3.685   0.056  0.6483  0.8050  1.4114
  144TIP3    H2  439   4.498   3.729   0.026  0.9657 -1.5960 -0.9333
  145TIP3   OH2  440   0.135   1.689   3.501 -0.2683  0.1689 -0.0086
  145TIP3    H1  441   0.040   1.687   3.485  0.1006  0.0618 -2.7817
  145TIP3    H2  442   0.170   1.744   3.431  1.7533  0.0885  0.8689
  146TIP3   OH2  443   6.319   4.868   2.074 -0.5323 -0.3378  0.2371
  146TIP3    H1  444   6.357   4.931   2.012 -1.2755 -0.1416 -0.0328
  146TIP3    H2  445   6.240   4.912   2.107 -0.6442 -0.8222  0.6215
  147TIP3   OH2  446   5.304   0.167   3.330 -0.5790  0.6550  0.0037
  147TIP3    H1  447   5.274   0.244   3.282  0.3143  1.5932  0.8889
  147TIP3    H2  448   5.269   0.178   3.418 -0.7475 -0.1448  0.0463
  148TIP3   OH2  449   3.120   1.700   4.355  0.1198 -1.0284  0.5781
  148TIP3    H1  450   3.026   1.706   4.342  0.3453  1.4577 -0.5199
  148TIP3    H2  451   3.134   1.731   4.444 -0.0044  0.3754  0.1340
  149TIP3   OH2  452   5.736   5.642   4.446  0.0106  0.0915  0.3255
  149TIP3    H1  453   5.677   5.691   4.503 -1.9246 -1.2329 -0.4516
  149TIP3    H2  454   5.703   5.552   4.447  1.9978 -0.7149 -0.1959
  150TIP3   OH2  455   1.508   3.028   2.395  0.0280  0.3563  0.9166
  150TIP3    H1  456   1.472   3.102   2.345  1.9398 -0.5775 -2.1213
  150TIP3    H2  457   1.592   3.061   2.427  0.7788 -0.3184 -0.2507
  151TIP3   OH2  458   1.780   1.456   2.976  0.0492 -0.7097  0.0674
  151TIP3    H1  459   1.711   1.506   3.018  1.2277  0.3316  0.8378
  151TIP3    H2  460   1.784   1.490   2.887  1.4136  1.2680  0.8179
  152TIP3   OH2  461   2.800   4.456   3.414 -0.5324 -0.1564 -0.0496
  152TIP3    H1  462   2.722   4.499   3.381 -0.5286 -0.6091 -0.6760
  152TIP3    H2  463   2.853   4.439   3.336  0.0109 -0.2037  0.3214
  153TIP3   OH2  464   4.648   4.635   1.992  0.0474 -0.0776  0.1673
  153TIP3    H1  465   4.626   4.648   2.085 -3.0881 -1.5417 -0.2392
  153TIP3    H2  466   4.730   4.682   1.980  0.9400 -0.3912  3.8451
  154TIP3   OH2  467   3.325   1.996   3.036  0.2582 -0.5207  0.0800
  154TIP3    H1  468   3.263   1.924   3.048 -0.8172  0.4004  0.2483
  154TIP3    H2  469   3.300   2.035   2.952  0.7623 -0.2922  0.0357
  155TIP3   OH2  470   4.268   4.022   3.919  0.0688  0.6913  0.4141
  155TIP3    H1  471   4.304   4.001   3.833 -0.0040 -1.3063  0.8211
  155TIP3    H2  472   4.188   4.071   3.899  0.0153  0.2117 -0.6665
  156TIP3   OH2  473   0.709   4.572   2.528  0.4748 -0.0760 -0.2422
  156TIP3    H1  474   0.794   4.603   2.496  0.5098  0.0661 -0.0074
  156TIP3    H2  475   0.653   4.572   2.450  0.4974  0.4856 -0.2570
  157TIP3   OH2  476   4.022   3.682   3.211 -0.2767 -0.1144 -0.3115
  157TIP3    H1  477   4.105   3.635   3.212 -1.1706 -1.7415  0.1808
  157TIP3    H2  478   4.045   3.770   3.179  1.7071 -0.3357  0.3519
  158TIP3   OH2  479   5.659   5.393   4.477 -0.0796 -0.0972 -0.0138
  158TIP3    H1  480   5.650   5.332   4.404  1.5169  0.6380 -0.8852
  158TIP3    H2  481   5.602   5.358   4.546 -1.7465 -0.7112 -1.6451
  159TIP3   OH2  482   1.118   2.186   0.494  0.4495 -0.3742 -0.3220
  159TIP3    H1  483   1.158   2.114   0.542 -1.5274 -1.8423 -0.7253
  159TIP3    H2  484   1.137   2.166   0.402  0.3787 -0.0862 -0.3983
  160TIP3   OH2  485   2.406   0.793   2.604  0.4318  0.0484  0.1123
  160TIP3    H1  486   2.378   0.718   2.552  0.9488  1.0235 -1.6740
  160TIP3    H2  487   2.373   0.776   2.692 -2.5811 -0.5915 -1.0385
  161TIP3   OH2  488   3.361   3.394   3.384 -0.3728 -0.2040  0.0161
  161TIP3    H1  489   3.333   3.384   3.293 -0.8338 -0.0407  0.1387
  161TIP3    H2  490   3.411   3.476   3.384  2.0459 -1.5937 -0.6593
  162TIP3   OH2  491   0.955   5.197   5.082  0.5532  0.3704  0.3694
  162TIP3    H1  492   0.915   5.200   4.995  1.2315 -0.0789  0.0356
  162TIP3    H2  493   0.918   5.118   5.123  0.0546  0.7110  0.5811
  163TIP3   OH2  494   1.470   2.709   3.930  0.1066 -0.6037  0.0161
  163TIP3    H1  495   1.512   2.761   3.998 -0.9757  1.1933 -0.6327
  163TIP3    H2  496   1.523   2.629   3.925  2.4285  0.8292  0.3653
  164TIP3   OH2  497   2.125   0.140   2.878 -0.4306  0.0457 -0.0818
  164TIP3    H1  498   2.092   0.198   2.945 -2.8846 -0.6090 -0.6073
  164TIP3    H2  499   2.092   0.053   2.903  0.5486 -0.5876 -0.9114
  165TIP3   OH2  500   1.130   5.218   3.125 -0.3361  0.1047  0.6171
  165TIP3    H1  501   1.065   5.149   3.144 -0.6196  0.1110 -0.2830
  165TIP3    H2  502   1.185   5.221   3.203  1.3509 -3.0066 -0.2871
  166TIP3   OH2  503   2.597   5.216   2.647 -0.0717 -0.2135 -0.2650
  166TIP3    H1  504   2.637   5.296   2.616 -0.0613  0.5925  1.6702
  166TIP3    H2  505   2.649   5.146   2.607  1.7744  0.7774  0.2685
  167TIP3   OH2  506   2.344   1.582   4.774 -0.3474 -0.4403  0.3204
  167TIP3    H1  507   2.282   1.629   4.718  2.5243  1.4363 -1.5733
  167TIP3    H2  508   2.323   1.610   4.863 -1.5135  0.9742 -0.3702
  168TIP3   OH2  509   1.458   5.612   0.696 -0.0961 -0.0053 -0.1353
  168TIP3    H1  510   1.517   5.576   0.762 -1.8048 -1.3903  0.7316
  168TIP3    H2  511   1.417   5.535   0.656 -0.4886  0.8702 -1.5017
  169TIP3   OH2  512   2.995   5.565   1.185 -0.1892  0.7131  0.2208
  169TIP3    H1  513   2.998   5.627   1.258 -0.7544  0.7571  0.2088
  169TIP3    H2  514   2.970   5.618   1.110  2.4827  1.1076 -0.4920
  170TIP3   OH2  515   1.342   3.353   1.078  0.0831 -0.0838 -0.0519
  170TIP3    H1  516   1.339   3.376   0.985 -1.3227  0.0678  0.0193
  170TIP3    H2  517   1.414   3.406   1.114  1.8002 -1.4061 -1.3642
  171TIP3   OH2  518   2.400   2.254   1.907  0.4951  0.2429  0.0429
  171TIP3    H1  519   2.462   2.320   1.938  1.3636  0.8733 -2.7390
  171TIP3    H2  520   2.316   2.299   1.904  0.6507  0.5466  0.2659
  172TIP3   OH2  521   4.028   4.179   3.844 -0.3892 -0.2749 -0.0760
  172TIP3    H1  522   4.072   4.263   3.831 -0.5319 -0.5743 -3.0242
  172TIP3    H2  523   3.976   4.192   3.924  0.2376  2.1425  0.0217
  173TIP3   OH2  524   3.387   0.769   2.745  0.3278  0.3656  0.0370
  173TIP3    H1  525   3.477   0.785   2.720 -0.2342  2.2505 -0.9434
  173TIP3    H2  526   3.390   0.763   2.841  1.5906 -0.5615 -0.0303
  174TIP3   OH2  527   1.576   4.604   3.968 -0.1952 -0.6972 -0.4883
  174TIP3    H1  528   1.597   4.527   4.021 -0.7598 -0.0507  0.7185
  174TIP3    H2  529   1.504   4.574   3.911  0.4233 -1.4033 -0.9183
  175TIP3   OH2  530   5.106   1.726   3.840  0.2372 -0.0753 -0.2076
  175TIP3    H1  531   5.152   1.653   3.883  0.6661  0.6262  0.5518
  175TIP3    H2  532   5.051   1.763   3.909 -1.9721 -1.2515 -1.2307
  176TIP3   OH2  533   5.649   0.911   0.931 -0.0617  0.6033  0.2189
  176TIP3    H1  534   5.619   0.903   1.021  1.4350  0.1519  0.7145
  176TIP3    H2  535   5.691   0.827   0.912 -0.1145  0.7897 -0.8085
  177TIP3   OH2  536   1.908   4.565   0.216  0.0792  0.6311  0.1679
  177TIP3    H1  537   1.949   4.615   0.287  2.0236 -0.9189  0.2133
  177TIP3    H2  538   1.914   4.623   0.140  0.8076  1.1110  0.5731
  178TIP3   OH2  539   1.017   1.628   3.009 -0.2783 -0.0405  0.0239
  178TIP3    H1  540   0.957   1.573   3.059 -0.6667  0.4992  0.1581
  178TIP3    H2  541   1.068   1.674   3.075 -0.6664  0.5363 -0.0699
  179TIP3   OH2  542   4.650   1.413   0.123 -0.1135 -0.1525  0.2067
  179TIP3    H1  543   4.613   1.426   0.036  2.1316 -0.3572 -0.8578
  179TIP3    H2  544   4.640   1.497   0.167 -2.9564 -0.5545  0.5137
  180TIP3   OH2  545   0.630   1.955   0.384  0.0116  0.3053  0.0821
  180TIP3    H1  546   0.713   2.001   0.367  0.3920 -0.6897 -0.8955
  180TIP3    H2  547   0.656   1.864   0.402 -0.6344  0.5926  3.0585
  181TIP3   OH2  548   1.201   4.209   3.314  0.1442  0.4491 -0.2735
  181TIP3    H1  549   1.227   4.299   3.296  0.8102  0.1133 -1.0508
  181TIP3    H2  550   1.175   4.174   3.229  0.2329 -0.1937 -0.0435
  182TIP3   OH2  551   1.767   4.017   5.091  0.3437  0.0253 -0.0707
  182TIP3    H1  552   1.729   4.041   5.176  0.6696  0.7381 -0.1237
  182TIP3    H2  553   1.706   3.952   5.056  2.0498 -3.1150  2.2846
  183TIP3   OH2  554   5.724   1.250   4.302 -0.1271  0.1057 -0.2686
  183TIP3    H1  555   5.695   1.337   4.275  0.3461  1.2633  2.6131
  183TIP3    H2  556   5.643   1.202   4.318 -0.3983 -0.2310 -2.3017
  184TIP3   OH2  557   1.676   1.157   4.632  0.2141 -0.4514  0.2618
  184TIP3    H1  558   1.725   1.233   4.601 -0.5600  0.8511  2.0440
  184TIP3    H2  559   1.742   1.099   4.670  0.5339  0.9214  1.9191
  185TIP3   OH2  560   6.232   2.436   3.138  0.2693 -0.2292  0.1246
  185TIP3    H1  561   6.267   2.478   3.217 -0.0883  0.7373 -0.2209
  185TIP3    H2  562   6.175   2.367   3.171 -0.5155  0.6789  0.7454
  186TIP3   OH2  563   2.341   3.361   0.455 -0.6432 -0.2765  0.3999
  186TIP3    H1  564   2.341   3.438   0.398  0.3313 -0.5150  0.0608
  186TIP3    H2  565   2.359   3.288   0.397  0.3883 -0.5214  1.0113
  187TIP3   OH2  566   4.940   3.692   4.051  0.0325  0.0852 -0.6490
  187TIP3    H1  567   4.995   3.740   3.988 -3.4118  2.0610 -2.4238
  187TIP3    H2  568   4.907   3.618   4.002 -0.7054  0.2223 -0.3672
  188TIP3   OH2  569   4.488   0.899   2.876  0.1800  0.2345 -0.2122
  188TIP3    H1  570   4.489   0.834   2.806  0.7633  1.3570 -1.2899
  188TIP3    H2  571   4.575   0.894   2.915  0.1567  0.2308 -0.1608
  189TIP3   OH2  572   3.962   5.203   3.839 -0.1584  0.4952  0.5965
  189TIP3    H1  573   3.881   5.164   3.869 -1.0389  0.6580 -1.3842
  189TIP3    H2  574   3.937   5.253   3.760  2.1603 -1.2054 -1.3743
  190TIP3   OH2  575   1.875   5.739   0.964  0.3083 -0.3626 -0.6853
  190TIP3    H1  576   1.787   5.759   0.930  0.0287  0.9510  0.7357
  190TIP3    H2  577   1.916   5.824   0.975  1.4292 -0.9271 -0.4276
  191TIP3   OH2  578   6.165   3.188   0.585 -0.1889  0.8392  0.0537
  191TIP3    H1  579   6.260   3.202   0.593  0.1083 -0.9493  0.2052
  191TIP3    H2  580   6.152   3.099   0.618 -1.7216  0.5116 -1.3290
  192TIP3   OH2  581   5.329   2.026   0.432  0.2559  0.3210  0.2928
  192TIP3    H1  582   5.411   2.044   0.387  1.0535 -0.4419  1.3718
  192TIP3    H2  583   5.352   2.030   0.525 -0.5566 -1.4595  0.6074
  193TIP3   OH2  584   2.368   0.215   1.749  0.2555 -0.2025 -0.0684
  193TIP3    H1  585   2.359   0.265   1.830 -1.4811  0.5570 -0.6626
  193TIP3    H2  586   2.457   0.231   1.720 -0.0422  2.0869  0.1051
  194TIP3   OH2  587   5.714   5.385   3.284  0.5456  0.1259 -0.0667
  194TIP3    H1  588   5.806   5.366   3.300  0.2616 -0.3773  1.1049
  194TIP3    H2  589   5.707   5.480   3.293  1.3180  0.4462 -2.3344
  195TIP3   OH2  590   5.733   2.729   1.071 -0.2743  0.6430  0.0667
  195TIP3    H1  591   5.664   2.678   1.029 -0.7803  1.0427  0.4085
  195TIP3    H2  592   5.720   2.818   1.039 -0.7233  0.9735  1.1314
  196TIP3   OH2  593   0.562   4.578   4.513  0.7118 -0.5686 -0.0972
  196TIP3    H1  594   0.634   4.623   4.557  0.8202 -0.9905  0.1694
  196TIP3    H2  595   0.594   4.563   4.424 -0.0779  1.6125 -0.8018
  197TIP3   OH2  596   3.811   0.430   1.159  0.7205  0.7114 -0.6399
  197TIP3    H1  597   3.899   0.437   1.196  0.7143  0.4341 -0.5703
  197TIP3    H2  598   3.754   0.464   1.228  0.5607 -1.2313  0.2577
  198TIP3   OH2  599   1.197   4.601   3.715  0.4155 -0.9860  0.2858
  198TIP3    H1  600   1.116   4.549   3.709 -0.5633  0.6706 -2.1270
  198TIP3    H2  601   1.167   4.691   3.722  2.0721 -0.3867  0.0308
  199TIP3   OH2  602   3.412   4.206   3.603 -0.4159  0.3952  0.0110
  199TIP3    H1  603   3.441   4.120   3.634 -2.1943  0.1545  1.1467
  199TIP3    H2  604   3.328   4.189   3.561 -0.2417  1.4364 -0.7801
  200TIP3   OH2  605   1.194   5.200   4.382 -0.0186 -0.2615 -0.1121
  200TIP3    H1  606   1.185   5.225   4.291  1.1592  0.8998  0.0616
  200TIP3    H2  607   1.267   5.137   4.382  0.8520  0.7269  0.1728
  201TIP3   OH2  608   0.146   3.532   2.323 -0.2559 -0.0735  0.0604
  201TIP3    H1  609   0.065   3.566   2.361 -0.2584 -0.9690  0.9076
  201TIP3    H2  610   0.171   3.460   2.381 -1.1368 -2.6504 -2.5310
  202TIP3   OH2  611   5.462   2.027   3.193 -0.1401  0.5183  0.3349
  202TIP3    H1  612   5.518   2.023   3.116 -0.7690 -0.4197 -0.0910
  202TIP3    H2  613   5.507   1.974   3.259  0.6849  1.7845  0.8343
  203TIP3   OH2  614   2.134   2.905   1.238 -0.0298  0.1720  0.0897
  203TIP3    H1  615   2.062   2.945   1.286  1.1864  0.3235  1.9029
  203TIP3    H2  616   2.103   2.816   1.219 -0.8687  0.3775  0.4354
  204TIP3   OH2  617   3.134   3.494   4.822  0.3294  0.4018 -0.2784
  204TIP3    H1  618   3.176   3.475   4.906 -2.9471 -1.1055  1.2146
  204TIP3    H2  619   3.064   3.556   4.843  0.5810  1.4676 -2.2990
  205TIP3   OH2  620   4.980   1.090   1.275 -0.5047  0.5404  0.1788
  205TIP3    H1  621   5.023   1.021   1.223  0.0767  0.2055  1.0912
  205TIP3    H2  622   5.031   1.169   1.255 -1.3051  0.7822 -1.0410
  206TIP3   OH2  623   0.138   3.067   1.998  0.1745 -0.0836 -0.0641
  206TIP3    H1  624   0.068   3.030   1.945 -1.4468  0.6787  1.4320
  206TIP3    H2  625   0.110   3.157   2.015  0.3976 -0.3990  2.3406
  207TIP3   OH2  626   5.779   1.445   4.595 -0.3114 -0.0643 -0.4950
  207TIP3    H1  627   5.705   1.404   4.551  0.0135  0.1112 -1.2343
  207TIP3    H2  628   5.741   1.514   4.648 -0.7808 -0.7432  0.0745
  208TIP3   OH2  629   2.388   2.848   2.340 -0.2854 -0.0106  0.3113
  208TIP3    H1  630   2.453   2.797   2.388  0.7486  0.5943 -0.4180
  208TIP3    H2  631   2.304   2.815   2.372  0.3690 -0.6770  1.4076
  209TIP3   OH2  632   5.051   3.891   0.520  0.0978  0.6475 -1.0157
  209TIP3    H1  633   5.130   3.912   0.469 -0.4118  1.2993 -1.5577
  209TIP3    H2  634   5.001   3.833   0.462  1.0134 -1.3112  0.0620
  210TIP3   OH2  635   0.780   0.184   4.257  0.1290 -0.5156 -0.1947
  210TIP3    H1  636   0.744   0.158   4.172  0.1008 -0.6207 -0.1507
  210TIP3    H2  637   0.722   0.254   4.288 -0.5916 -1.3257  0.3060
  211TIP3   OH2  638   2.533   4.424   0.091  0.1423 -0.1638  0.1523
  211TIP3    H1  639   2.577   4.355   0.042  0.2359 -0.5548  0.7744
  211TIP3    H2  640   2.601   4.490   0.105  0.4423 -0.5835  0.7605
  212TIP3   OH2  641   3.587   2.620   4.181 -0.2055 -0.5069  0.4648
  212TIP3    H1  642   3.622   2.572   4.106  0.3257  0.0835  0.3314
  212TIP3    H2  643   3.664   2.641   4.234 -0.3065  0.9741  0.0708
  213TIP3   OH2  644   2.930   4.028   2.891 -0.6476 -0.1462  0.0707
  213TIP3    H1  645   2.872   4.027   2.815 -2.2995  0.3967  1.2698
  213TIP3    H2  646   2.894   4.096   2.948  0.5200 -0.5621  1.3587
  214TIP3   OH2  647   3.359   0.276   2.073 -0.3428  0.5357 -0.6912
  214TIP3    H1  648   3.335   0.368   2.079 -2.5467  0.0267 -1.0463
  214TIP3    H2  649   3.280   0.232   2.043  1.0151 -1.3312 -1.7432
  215TIP3   OH2  650   2.865   0.262   1.542  0.4415 -0.2739  0.6172
  215TIP3    H1  651   2.803   0.217   1.486  1.6087  0.0374 -1.0004
  215TIP3    H2  652   2.816   0.282   1.622 -0.7090 -2.4723  0.5375
  216TIP3   OH2  653   6.172   2.115   4.550  0.2208  0.4130 -0.2451
  216TIP3    H1  654   6.191   2.096   4.458 -2.1942 -0.7578 -0.5881
  216TIP3    H2  655   6.116   2.193   4.547 -0.2103  0.1288  0.1703
  217TIP3   OH2  656   1.982   1.041   4.650  0.2276 -0.2522  0.4120
  217TIP3    H1  657   1.931   1.010   4.725 -0.8537  0.6441  0.0731
  217TIP3    H2  658   2.073   1.030   4.676 -0.1362 -0.7256  1.5262
  218TIP3   OH2  659   2.644   2.365   1.578  0.3118  0.0149  0.2584
  218TIP3    H1  660   2.696   2.292   1.612 -0.7120 -1.8771 -1.9229
  218TIP3    H2  661   2.554   2.333   1.580 -0.1248  1.0849 -1.0652
  219TIP3   OH2  662   1.643   3.693   0.747 -0.2269 -0.2649  0.2124
  219TIP3    H1  663   1.731   3.707   0.781 -0.4951 -0.0999  0.8519
  219TIP3    H2  664   1.656   3.665   0.657  0.4625  0.1580  0.1786
  220TIP3   OH2  665   4.528   4.108   4.314 -0.3601 -0.9084 -0.0169
  220TIP3    H1  666   4.435   4.127   4.302 -0.4487 -1.1735  0.2418
  220TIP3    H2  667   4.568   4.131   4.230 -0.4337  0.6001  0.3234
  221TIP3   OH2  668   5.263   3.833   3.013 -0.0303  0.0495 -0.1083
  221TIP3    H1  669   5.273   3.928   3.005  1.4097  0.0297  1.1256
  221TIP3    H2  670   5.294   3.813   3.101  0.4728 -1.6715 -0.6426
  222TIP3   OH2  671   4.583   4.755   3.455 -0.4476  0.5196  0.2420
  222TIP3    H1  672   4.503   4.764   3.507 -0.4523 -0.2160  0.3819
  222TIP3    H2  673   4.651   4.734   3.520 -0.2982  0.3739  0.0393
  223TIP3   OH2  674   3.684   1.017   2.233 -0.6822  0.1894 -0.1518
  223TIP3    H1  675   3.723   0.957   2.169 -0.5157 -1.8742  1.7530
  223TIP3    H2  676   3.749   1.087   2.242 -1.0608  0.9903 -2.7279
  224TIP3   OH2  677   1.246   1.463   1.698  0.0408 -0.4606  0.0307
  224TIP3    H1  678   1.201   1.434   1.777  1.0297 -0.1913  0.7055
  224TIP3    H2  679   1.283   1.383   1.660 -3.0730 -1.1489 -1.9638
  225TIP3   OH2  680   3.673   3.499   4.809  0.2314 -0.7997  0.7300
  225TIP3    H1  681   3.586   3.472   4.778  0.1132  0.6170 -0.2363
  225TIP3    H2  682   3.729   3.490   4.733  0.2804  1.1854  0.5008
  226TIP3   OH2  683   4.113   3.276   1.009 -0.1582 -0.3505  0.1742
  226TIP3    H1  684   4.073   3.350   0.962  0.4901 -1.3095 -1.9808
  226TIP3    H2  685   4.046   3.250   1.073 -1.3666  0.5747 -0.6696
  227TIP3   OH2  686   3.623   4.345   4.773  0.0204 -0.1667  0.1403
  227TIP3    H1  687   3.532   4.330   4.801 -0.7648  2.8480 -0.4654
  227TIP3    H2  688   3.675   4.323   4.851 -1.2751 -1.1258  0.7824
  228TIP3   OH2  689   4.103   3.927   2.161 -0.6721  0.2959 -0.5119
  228TIP3    H1  690   4.052   3.846   2.163  1.0843 -0.8663  1.3699
  228TIP3    H2  691   4.089   3.967   2.247 -0.1375  1.0897 -0.7738
  229TIP3   OH2  692   1.435   0.823   4.752  0.5237  0.0736  0.2912
  229TIP3    H1  693   1.488   0.762   4.700  0.0998 -0.8308  0.9176
  229TIP3    H2  694   1.476   0.824   4.838  1.4428  1.8477 -0.0979
  230TIP3   OH2  695   0.200   2.032   3.475 -0.2633 -0.1296 -0.2708
  230TIP3    H1  696   0.163   2.082   3.403  0.9653  0.6484 -0.3917
  230TIP3    H2  697   0.247   1.960   3.433  1.0187  0.7017 -0.3246
  231TIP3   OH2  698   4.761   0.089   4.139  0.3626  0.1586 -0.0887
  231TIP3    H1  699   4.750   0.139   4.220  1.4362 -0.1302  0.2623
  231TIP3    H2  700   4.841   0.037   4.154  0.3921 -0.1456 -1.2054
  232TIP3   OH2  701   3.923   0.421   4.543 -0.0472 -0.5037 -0.1320
  232TIP3    H1  702   3.876   0.338   4.556 -0.5204 -0.0815  0.9697
  232TIP3    H2  703   3.923   0.462   4.630 -2.6129  2.1148 -1.2118
  233TIP3   OH2  704   2.623   2.084   2.169  0.3384  0.0155  0.6898
  233TIP3    H1  705   2.699   2.033   2.197  1.6741  2.4679  1.8150
  233TIP3    H2  706   2.548   2.040   2.210  1.3991 -1.0542  1.5401
  234TIP3   OH2  707   1.469   5.862   3.347  0.2595  0.0599  0.9916
  234TIP3    H1  708   1.399   5.829   3.291  2.0129  1.8701 -2.6649
  234TIP3    H2  709   1.427   5.927   3.403 -1.3029 -0.3713  0.3772
  235TIP3   OH2  710   6.004   3.642   1.084  0.2085  0.0066  0.0793
  235TIP3    H1  711   5.909   3.641   1.069  0.1448 -1.8257  0.4676
  235TIP3    H2  712   6.041   3.592   1.011  0.9807  1.2891 -0.4592
  236TIP3   OH2  713   2.682   0.060   0.348 -0.2960 -0.2278 -0.2852
  236TIP3    H1  714   2.765   0.025   0.318  0.9279  0.5921  1.9356
  236TIP3    H2  715   2.634  -0.016   0.381 -0.4150 -0.6816 -1.4531
  237TIP3   OH2  716   1.628   1.983   3.597  0.4081  0.4930 -0.0357
  237TIP3    H1  717   1.584   1.968   3.681  1.3492  1.6144  0.6869
  237TIP3    H2  718   1.713   1.939   3.606  0.2699  0.0767 -0.6564
  238TIP3   OH2  719   3.988   2.383   1.282 -0.0208 -0.2910  0.8802
  238TIP3    H1  720   4.027   2.315   1.337 -2.1724 -2.2220  0.2112
  238TIP3    H2  721   4.019   2.362   1.193 -1.1221 -0.8116  0.5925
  239TIP3   OH2  722   5.258   3.937   1.146 -0.3226  0.0039 -0.1406
  239TIP3    H1  723   5.311   3.929   1.067  2.2379 -2.8583  1.6616
  239TIP3    H2  724   5.296   4.011   1.193  0.6354 -0.6226  0.0935
  240TIP3   OH2  725   5.584   0.236   3.403  0.7836  0.7743  0.0816
  240TIP3    H1  726   5.614   0.152   3.370  1.0992  0.2968  1.5217
  240TIP3    H2  727   5.497   0.247   3.363  0.9171 -0.0145 -0.4621
  241TIP3   OH2  728   1.001   1.067   0.590  0.0191  0.2892  0.1473
  241TIP3    H1  729   1.059   1.133   0.552 -2.2200  3.2269  1.4670
  241TIP3    H2  730   0.912   1.098   0.571 -1.1658 -1.8269  1.7113
  242TIP3   OH2  731   3.167   4.755   1.972  0.2058  0.3866 -0.0704
  242TIP3    H1  732   3.173   4.826   1.909  2.8901  1.0661  0.8052
  242TIP3    H2  733   3.257   4.725   1.984 -0.4374 -1.0340  1.9592
  243TIP3   OH2  734   2.878   0.077   0.662  0.0990  0.2002  0.6663
  243TIP3    H1  735   2.934   0.141   0.619 -0.9715 -0.6083 -2.2136
  243TIP3    H2  736   2.789   0.104   0.639 -0.3798 -2.9630 -2.0485
  244TIP3   OH2  737   0.154   4.621   1.921 -0.1464 -0.4527 -0.0724
  244TIP3    H1  738   0.230   4.673   1.947  1.1141 -1.9484 -0.5606
  244TIP3    H2  739   0.086   4.685   1.900  0.6036  0.9003  1.4393
  245TIP3   OH2  740   3.391   5.942   0.137 -0.4671  0.2651 -0.5781
  245TIP3    H1  741   3.371   5.960   0.045  0.9691 -0.8611 -1.1596
  245TIP3    H2  742   3.461   5.876   0.134  0.4127  1.0171  1.3009
  246TIP3   OH2  743   6.179   0.998   2.970 -0.3758  0.3828 -0.1230
  246TIP3    H1  744   6.243   1.022   3.037  0.1327 -0.7752 -0.1745
  246TIP3    H2  745   6.099   0.978   3.019  0.7037 -3.1060  0.5230
  247TIP3   OH2  746   4.739   1.189   3.260  0.0176 -0.0179 -0.2341
  247TIP3    H1  747   4.716   1.112   3.314  0.6362  1.2298  1.9462
  247TIP3    H2  748   4.825   1.215   3.292  0.0941  1.2314 -1.3840
  248TIP3   OH2  749   2.905   5.839   4.271  0.4395  0.4348  0.0687
  248TIP3    H1  750   2.929   5.753   4.236  2.6844  1.1217 -0.2483
  248TIP3    H2  751   2.893   5.824   4.365  0.0641 -0.3686 -0.1040
  249TIP3   OH2  752   6.014   5.953   3.402 -0.1941  0.2045 -0.4578
  249TIP3    H1  753   5.971   5.904   3.473 -2.6845  0.6614 -1.5275
  249TIP3    H2  754   6.080   6.006   3.446 -1.8423  0.7089  1.6200
  250TIP3   OH2  755   3.560   4.071   0.698 -0.1669 -0.2635 -0.2497
  250TIP3    H1  756   3.555   4.135   0.627 -0.9349 -0.1996 -0.1486
  250TIP3    H2  757   3.472   4.033   0.703 -0.4722  0.5450  1.3985
  251TIP3   OH2  758   2.537   1.899   2.394 -0.2121 -0.1423 -0.3963
  251TIP3    H1  759   2.617   1.857   2.427  0.2034  0.4585 -0.6226
  251TIP3    H2  760   2.497   1.833   2.337 -0.9402 -1.2069  1.2487
  252TIP3   OH2  761   1.434   5.213   2.990 -0.3754 -0.2139 -0.4261
  252TIP3    H1  762   1.470   5.299   3.011  0.7806 -1.0942  1.5628
  252TIP3    H2  763   1.341   5.219   3.012  0.2793 -0.3121  2.9300
  253TIP3   OH2  764   3.277   0.924   2.496 -0.1680 -0.1796  0.0997
  253TIP3    H1  765   3.372   0.913   2.498 -0.2359 -1.1702 -1.0160
  253TIP3    H2  766   3.248   0.889   2.580  0.4641  0.3611  0.5567
  254TIP3   OH2  767   3.234   3.884   4.717  0.2545  0.7130  0.0350
  254TIP3    H1  768   3.178   3.939   4.771 -0.4812  0.0496 -0.0304
  254TIP3    H2  769   3.267   3.817   4.777  0.8548  1.0075  0.0391
  255TIP3   OH2  770   2.711   4.241   2.260 -0.2483 -0.8957 -0.3139
  255TIP3    H1  771   2.733   4.257   2.352 -0.2244 -0.4529 -0.3923
  255TIP3    H2  772   2.754   4.312   2.213 -0.7880 -0.7527 -0.5977
  256TIP3   OH2  773   1.257   3.414   3.254 -0.3137  0.0957  0.3946
  256TIP3    H1  774   1.246   3.337   3.198  3.1581 -1.6199  1.7760
  256TIP3    H2  775   1.201   3.398   3.329 -1.0851 -0.0950 -0.2077
  257TIP3   OH2  776   2.871   5.904   3.222 -0.3055  0.1459  0.3335
  257TIP3    H1  777   2.797   5.845   3.236 -0.8175  0.3090 -1.4907
  257TIP3    H2  778   2.839   5.969   3.159  1.2714  0.4423 -0.2135
  258TIP3   OH2  779   4.047   1.888   0.497  0.2986 -0.5217  0.7572
  258TIP3    H1  780   4.138   1.894   0.524  0.0336  0.3403  1.4784
  258TIP3    H2  781   4.025   1.975   0.465  0.1145 -1.0744 -0.7278
  259TIP3   OH2  782   0.890   0.154   2.880  0.1750  0.3514  0.2922
  259TIP3    H1  783   0.916   0.174   2.970 -0.0101 -0.5645  0.5591
  259TIP3    H2  784   0.819   0.091   2.889  1.9354 -1.8654 -0.5144
  260TIP3   OH2  785   5.517   1.916   1.775 -0.1993 -0.1278 -0.0055
  260TIP3    H1  786   5.464   1.880   1.846 -1.6191  1.1944 -0.3436
  260TIP3    H2  787   5.562   1.991   1.815  0.1019 -0.2267 -0.1552
  261TIP3   OH2  788   3.481   4.848   0.112 -0.1639  0.2219  0.2507
  261TIP3    H1  789   3.424   4.771   0.108 -0.6602  0.6281 -0.6570
  261TIP3    H2  790   3.421   4.921   0.124  0.3703  0.3898  2.3003
  262TIP3   OH2  791   6.233   0.912   0.580  0.1785  0.0288 -0.0711
  262TIP3    H1  792   6.201   0.947   0.497 -0.7938 -1.4173 -0.3527
  262TIP3    H2  793   6.232   0.817   0.567 -0.0643 -0.2281  1.6273
  263TIP3   OH2  794   0.805   1.490   4.903  0.0419  0.0493  0.2854
  263TIP3    H1  795   0.721   1.490   4.948 -0.6639 -1.1372 -0.9393
  263TIP3    H2  796   0.791   1.433   4.827  1.7195  0.4808 -0.3891
  264TIP3   OH2  797   2.322   4.133   4.613  0.0888 -0.2999  0.1087
  264TIP3    H1  798   2.358   4.220   4.597 -3.2774  0.9467 -1.8240
  264TIP3    H2  799   2.360   4.079   4.544  1.9035 -0.3193  1.0832
  265TIP3   OH2  800   0.869   3.923   1.246 -0.4262 -0.0486 -0.0155
  265TIP3    H1  801   0.808   3.993   1.270 -0.4617 -0.0510 -0.0986
  265TIP3    H2  802   0.814   3.858   1.202 -0.2259  0.3202 -0.8215
  266TIP3   OH2  803   4.329   4.738   4.155  0.1389 -0.3397  0.0125
  266TIP3    H1  804   4.240   4.731   4.120  0.0562 -0.4743  0.2463
  266TIP3    H2  805   4.386   4.739   4.078 -0.1766  1.7255 -0.2633
  267TIP3   OH2  806   6.014   4.713   2.559 -0.2468  0.2362 -0.4643
  267TIP3    H1  807   6.055   4.795   2.583  2.0609 -1.1599  0.6618
  267TIP3    H2  808   6.029   4.706   2.464  0.3133  0.6917 -0.4147
  268TIP3   OH2  809   2.693   3.692   0.712  0.3092  0.2706 -0.2926
  268TIP3    H1  810   2.737   3.608   0.717 -0.9313 -0.3712  0.4556
  268TIP3    H2  811   2.758   3.752   0.675  1.7417 -0.6529  0.6381
  269TIP3   OH2  812   5.135   3.600   0.745  0.2273 -0.0718  0.4881
  269TIP3    H1  813   5.040   3.599   0.735  0.2810  1.8029 -0.7195
  269TIP3    H2  814   5.159   3.693   0.739  2.2146 -0.5736 -0.1322
  270TIP3   OH2  815   4.054   4.028   0.695 -0.5717  0.3683 -0.1532
  270TIP3    H1  816   4.072   4.028   0.789 -0.3390 -0.1887 -0.1981
  270TIP3    H2  817   4.127   3.979   0.656 -1.6490 -1.0708 -0.4308
  271TIP3   OH2  818   5.382   2.424   3.610  0.2303 -0.3076  0.2491
  271TIP3    H1  819   5.328   2.427   3.531 -1.1943 -2.6713  1.0161
  271TIP3    H2  820   5.472   2.425   3.578 -0.2907 -2.4960 -1.5824
  272TIP3   OH2  821   1.235   0.146   3.489 -0.4555 -0.1915  0.0710
  272TIP3    H1  822   1.290   0.103   3.425 -0.8026 -1.4007  0.5526
  272TIP3    H2  823   1.258   0.105   3.572 -1.7934 -0.4640  0.3350
  273TIP3   OH2  824   5.417   2.921   2.921  0.5312  0.2511 -0.4704
  273TIP3    H1  825   5.427   2.891   3.012  0.3510  1.5202 -0.0064
  273TIP3    H2  826   5.359   2.857   2.881  1.2190 -0.7583  0.0848
  274TIP3   OH2  827   3.019   0.500   3.084  0.2940 -0.0271 -0.1564
  274TIP3    H1  828   3.103   0.455   3.092  0.8443  0.9834 -0.0563
  274TIP3    H2  829   2.974   0.455   3.013  1.5176  0.3123 -1.1768
  275TIP3   OH2  830   6.329   4.504   0.487 -0.4853  0.1835 -0.2167
  275TIP3    H1  831   6.317   4.461   0.571 -0.7863  0.5492 -0.0722
  275TIP3    H2  832   6.241   4.514   0.452 -0.2353 -2.6015 -1.9224
  276TIP3   OH2  833   2.936   2.732   0.257  0.4273 -0.4788  0.4200
  276TIP3    H1  834   2.841   2.745   0.254  0.6561  1.1669 -0.4817
  276TIP3    H2  835   2.955   2.723   0.351 -0.2104  2.9126  0.9955
  277TIP3   OH2  836   2.189   3.319   0.026  0.0873  0.4312  0.6328
  277TIP3    H1  837   2.170   3.247   0.086  1.1995 -0.2724  0.1648
  277TIP3    H2  838   2.144   3.295  -0.055  2.2835 -0.9319 -0.2757
  278TIP3   OH2  839   0.345   0.525   3.687 -0.4659 -0.1576  0.6910
  278TIP3    H1  840   0.264   0.575   3.682  0.0268  0.6651  0.7184
  278TIP3    H2  841   0.324   0.440   3.647 -0.9810  0.5133 -0.5206
  279TIP3   OH2  842   5.261   2.381   2.702 -0.2169 -0.1874 -0.1958
  279TIP3    H1  843   5.318   2.332   2.642  0.4157 -1.3760  1.3060
  279TIP3    H2  844   5.321   2.422   2.764 -0.8706  0.8946 -0.2395
  280TIP3   OH2  845   4.113   5.029   4.826  0.3119  0.5268  0.2395
  280TIP3    H1  846   4.180   5.097   4.824 -0.2043  1.0284 -0.2503
  280TIP3    H2  847   4.053   5.051   4.755 -0.4834  0.1942  0.7845
  281TIP3   OH2  848   1.510   2.549   4.211  1.0209 -0.4403 -0.3101
  281TIP3    H1  849   1.519   2.644   4.203  0.0746 -0.4900 -2.8134
  281TIP3    H2  850   1.444   2.536   4.278  0.6992  0.6930 -0.4008
  282TIP3   OH2  851   3.233   2.705   0.262  0.5291 -0.2650  0.1443
  282TIP3    H1  852   3.145   2.719   0.228  0.3184  0.6729  1.0259
  282TIP3    H2  853   3.239   2.764   0.337  1.5370 -1.0821  0.7378
  283TIP3   OH2  854   1.163   4.249   1.202  0.3371 -0.3740  0.4380
  283TIP3    H1  855   1.247   4.252   1.247  0.8604 -0.2195 -0.5098
  283TIP3    H2  856   1.160   4.162   1.162  1.0403  0.3259 -1.2827
  284TIP3   OH2  857   2.111   5.606   4.818 -0.0523 -0.1258  0.1711
  284TIP3    H1  858   2.122   5.582   4.910  0.6751 -0.1912  0.0737
  284TIP3    H2  859   2.161   5.539   4.771 -0.4822 -0.1334 -0.2745
  285TIP3   OH2  860   5.446   4.113   5.103 -0.2930 -0.1443 -0.2971
  285TIP3    H1  861   5.488   4.151   5.026 -0.2058 -0.5308 -0.4411
  285TIP3    H2  862   5.468   4.173   5.174  1.5825 -1.0023 -0.1107
  286TIP3   OH2  863   3.560   3.865   1.359 -0.1734  0.6693 -0.0005
  286TIP3    H1  864   3.494   3.931   1.340 -0.8242 -0.0197 -0.2132
  286TIP3    H2  865   3.611   3.901   1.431 -0.1971  1.6131 -0.4525
  287TIP3   OH2  866   6.158   1.582   1.019  0.2857 -0.2174 -0.0972
  287TIP3    H1  867   6.228   1.642   0.992  0.2020 -0.3810 -0.6739
  287TIP3    H2  868   6.082   1.639   1.033 -0.0343 -0.2781 -1.4851
  288TIP3   OH2  869   2.420   1.933   4.394 -0.3584  0.0357 -0.4535
  288TIP3    H1  870   2.333   1.972   4.386 -0.0280  0.7542 -0.6169
  288TIP3    H2  871   2.431   1.918   4.488 -0.4311  0.4795 -0.3704
  289TIP3   OH2  872   0.840   1.085   4.928 -0.0512 -0.4414 -0.4424
  289TIP3    H1  873   0.917   1.136   4.902 -0.2810 -0.0386 -0.3447
  289TIP3    H2  874   0.766   1.134   4.892 -0.1807 -1.6454 -1.8780
  290TIP3   OH2  875   3.469   0.324   0.986 -0.1037  0.1086  0.9510
  290TIP3    H1  876   3.411   0.280   0.924  2.4338 -1.0093 -0.7933
  290TIP3    H2  877   3.465   0.270   1.065  0.3569 -1.3818  0.0032
  291TIP3   OH2  878   1.600   5.897   4.591  0.4469  0.1162  0.2769
  291TIP3    H1  879   1.566   5.966   4.534  1.8736  0.0256 -0.7314
  291TIP3    H2  880   1.695   5.910   4.589  0.6276 -0.9815  1.2502
  292TIP3   OH2  881   0.475   4.407   4.147 -0.6345 -0.3084  0.8648
  292TIP3    H1  882   0.409   4.409   4.217 -1.5467 -0.4461  0.0343
  292TIP3    H2  883   0.437   4.461   4.077  0.9145  1.0564  1.0173
  293TIP3   OH2  884   2.277   1.623   2.620  0.1219  0.0199 -0.3856
  293TIP3    H1  885   2.275   1.716   2.597 -1.3250 -0.4010 -2.1782
  293TIP3    H2  886   2.309   1.621   2.711 -2.3780  2.4756  0.6973
  294TIP3   OH2  887   5.456   1.238   1.016 -0.8273  0.1771  0.1796
  294TIP3    H1  888   5.542   1.196   1.017 -1.0011 -0.3700 -2.0256
  294TIP3    H2  889   5.459   1.301   1.088  1.2758 -0.1092  0.4051
  295TIP3   OH2  890   5.183   5.182   2.494  0.1001 -0.3388  0.7090
  295TIP3    H1  891   5.207   5.265   2.534 -1.1945  0.8555 -0.8519
  295TIP3    H2  892   5.194   5.196   2.400 -1.8380 -1.3143  0.2694
  296TIP3   OH2  893   4.138   0.911   0.876 -0.0816 -0.0786  0.4017
  296TIP3    H1  894   4.234   0.909   0.883 -0.0642 -1.0905 -0.0725
  296TIP3    H2  895   4.108   0.926   0.966  0.5465  2.1944  0.3167
  297TIP3   OH2  896   6.023   1.658   3.579 -0.4052  0.2103  0.4158
  297TIP3    H1  897   5.936   1.619   3.585  1.0805 -3.3802  0.7506
  297TIP3    H2  898   6.060   1.649   3.667 -0.1521  3.1839  0.7404
  298TIP3   OH2  899   2.001   3.899   0.710 -0.2696 -0.2832 -0.6852
  298TIP3    H1  900   1.969   3.931   0.626 -1.4813 -0.8110 -0.4424
  298TIP3    H2  901   2.088   3.865   0.691 -0.1880  0.3803 -1.5437
  299TIP3   OH2  902   3.135   1.368   0.254 -0.4249 -0.0890  0.9927
  299TIP3    H1  903   3.100   1.283   0.278 -0.2756 -0.2374  0.6936
  299TIP3    H2  904   3.074   1.431   0.292 -0.3402 -0.3204  1.5139
  300TIP3   OH2  905   3.097   0.171   0.949  0.5108 -0.0277 -0.1241
  300TIP3    H1  906   3.098   0.260   0.985  1.1655 -0.2277  0.3695
  300TIP3    H2  907   3.008   0.141   0.963  0.8335 -0.2286  1.6813
  301TIP3   OH2  908   2.375   3.290   2.243 -0.0090  0.0587 -0.4313
  301TIP3    H1  909   2.428   3.235   2.185 -1.0747 -2.3009  0.6818
  301TIP3    H2  910   2.430   3.304   2.320  0.6395  1.4614 -1.1234
  302TIP3   OH2  911   2.239   5.797   5.023 -0.2326 -0.1630  0.5063
  302TIP3    H1  912   2.191   5.860   4.969  0.6735 -0.5342 -0.7811
  302TIP3    H2  913   2.171   5.756   5.077 -1.3257 -0.3066 -0.8919
  303TIP3   OH2  914   5.607   2.332   0.552 -0.0989 -0.2415 -0.0299
  303TIP3    H1  915   5.635   2.310   0.463  2.0870 -0.6708  0.6957
  303TIP3    H2  916   5.594   2.427   0.550 -0.6365 -0.3317 -0.9510
  304TIP3   OH2  917   1.112   3.696   2.006 -0.3415 -0.6289 -0.3815
  304TIP3    H1  918   1.085   3.756   2.076 -1.2004  0.4387 -1.5797
  304TIP3    H2  919   1.035   3.641   1.991 -0.6915  0.0898 -1.4046
  305TIP3   OH2  920   3.461   0.429   4.639 -0.2936 -0.2549  0.5989
  305TIP3    H1  921   3.373   0.456   4.613  0.1084  0.4648 -0.0927
  305TIP3    H2  922   3.455   0.335   4.652 -0.9476 -0.3699 -0.4105
  306TIP3   OH2  923   4.743   4.895   1.646 -0.0354  0.7130  0.1539
  306TIP3    H1  924   4.787   4.974   1.677 -2.0294  2.3526 -0.9846
  306TIP3    H2  925   4.658   4.896   1.688 -0.0394 -0.9583  0.2595
  307TIP3   OH2  926   4.316   1.882   2.466 -0.2419  0.0477  0.1487
  307TIP3    H1  927   4.409   1.867   2.483  0.0041  1.3809  0.0997
  307TIP3    H2  928   4.276   1.888   2.552 -0.3111 -0.6156  0.1701
  308TIP3   OH2  929   1.771   3.158   0.183  0.0260  0.3947  0.2934
  308TIP3    H1  930   1.695   3.182   0.237 -0.5068 -1.5000  0.4516
  308TIP3    H2  931   1.735   3.143   0.096  0.1245 -0.9857  0.4806
  309TIP3   OH2  932   2.405   5.070   0.782 -0.4573  0.1003 -0.5552
  309TIP3    H1  933   2.424   5.009   0.711  0.1557 -0.6877  0.2646
  309TIP3    H2  934   2.466   5.142   0.769  0.1961 -0.4160 -0.3791
  310TIP3   OH2  935   2.458   4.131   3.691 -0.0233 -0.3172 -0.2488
  310TIP3    H1  936   2.428   4.077   3.618 -0.5350  0.7903 -0.8820
  310TIP3    H2  937   2.541   4.167   3.661 -0.3600  0.3459 -0.4047
  311TIP3   OH2  938   3.093   0.171   2.075  0.3055 -0.4478  0.0011
  311TIP3    H1  939   3.073   0.263   2.059  0.1278 -0.4807  0.0300
  311TIP3    H2  940   3.031   0.123   2.019 -0.8500 -0.5746  1.3400
  312TIP3   OH2  941   2.462   3.752   4.254 -0.0476  0.8514 -0.1283
  312TIP3    H1  942   2.544   3.702   4.260 -0.8299 -0.4171  0.4074
  312TIP3    H2  943   2.471   3.819   4.322  1.1092  1.6206 -1.0009
  313TIP3   OH2  944   5.187   0.853   5.123  0.4409  0.6110 -0.1827
  313TIP3    H1  945   5.095   0.867   5.102  0.3434 -1.1972 -1.1697
  313TIP3    H2  946   5.225   0.941   5.123 -1.4923  1.5278  1.5028
  314TIP3   OH2  947   2.085   4.145   4.960  0.3981 -0.1713  0.2542
  314TIP3    H1  948   2.170   4.108   4.936 -0.3421 -1.8389  0.0742
  314TIP3    H2  949   2.033   4.069   4.988 -1.1767  0.7451 -0.0840
  315TIP3   OH2  950   4.699   0.823   2.386 -0.0563 -0.2567  1.0446
  315TIP3    H1  951   4.754   0.890   2.426 -0.8967  0.8210  0.4400
  315TIP3    H2  952   4.713   0.832   2.292  0.3082 -1.3797  0.9655
  316TIP3   OH2  953   6.245   0.893   2.102 -0.3951  0.3052  0.4772
  316TIP3    H1  954   6.261   0.799   2.098  0.7131  0.4134  1.7832
  316TIP3    H2  955   6.333   0.932   2.106 -0.8037  1.4632 -0.8261
  317TIP3   OH2  956   2.135   4.061   1.237 -0.8749 -1.0007 -0.7087
  317TIP3    H1  957   2.106   4.027   1.152 -0.8162 -1.5759 -0.5019
  317TIP3    H2  958   2.109   3.993   1.300 -1.7564 -0.1583 -0.1455
  318TIP3   OH2  959   4.091   5.224   4.118  0.1744 -0.0310 -0.5093
  318TIP3    H1  960   4.082   5.139   4.161  0.6525 -0.3555 -1.0363
  318TIP3    H2  961   4.078   5.205   4.025 -0.1222  0.5433 -0.5875
  319TIP3   OH2  962   3.659   0.394   2.901 -0.1101 -0.1623 -1.2469
  319TIP3    H1  963   3.655   0.314   2.849 -0.5025  0.5016 -2.2814
  319TIP3    H2  964   3.681   0.462   2.837 -1.3865  0.8061 -0.6846
  320TIP3   OH2  965   1.587   1.954   4.724  0.0353 -0.0908  0.0081
  320TIP3    H1  966   1.675   1.923   4.704 -0.4921 -0.1645 -2.5931
  320TIP3    H2  967   1.587   1.968   4.818  2.9218  0.2209  0.0472
  321TIP3   OH2  968   1.449   2.634   1.387  0.0833 -0.3788 -0.4227
  321TIP3    H1  969   1.525   2.673   1.343  0.0762 -0.6261 -0.6612
  321TIP3    H2  970   1.390   2.707   1.403  0.3234 -0.2016 -0.3368
  322TIP3   OH2  971   4.449   5.526   3.707  0.2897 -0.2327  0.4706
  322TIP3    H1  972   4.458   5.590   3.635 -0.8319 -0.6244 -0.0346
  322TIP3    H2  973   4.489   5.446   3.673 -0.8801 -0.6317 -0.0219
  323TIP3   OH2  974   2.945   1.257   1.506  0.7193  0.2139 -0.2810
  323TIP3    H1  975   3.014   1.323   1.494  0.2817  1.0576  1.4627
  323TIP3    H2  976   2.975   1.204   1.579  1.3623 -2.0274 -2.0451
  324TIP3   OH2  977   3.558   0.010   0.511 -0.0771  0.5104  0.0944
  324TIP3    H1  978   3.651   0.030   0.508 -0.1696  0.8529 -0.8941
  324TIP3    H2  979   3.526   0.056   0.588  0.4389  0.9943  0.0262
  325TIP3   OH2  980   0.196   5.742   3.169  0.0822  0.6022 -0.1184
  325TIP3    H1  981   0.138   5.670   3.194  0.3522  0.4795  0.1738
  325TIP3    H2  982   0.138   5.813   3.141 -0.1858 -0.3171 -2.1143
  326TIP3   OH2  983   5.058   2.530   4.021  0.2711 -0.1426  0.1717
  326TIP3    H1  984   5.103   2.508   3.940  1.0805  1.1895  0.2330
  326TIP3    H2  985   5.064   2.451   4.074  1.0696 -0.5249 -0.4655
  327TIP3   OH2  986   0.808   4.483   0.254 -0.3068  0.1341  0.2717
  327TIP3    H1  987   0.746   4.414   0.232  1.2980 -1.5912  0.9560
  327TIP3    H2  988   0.893   4.449   0.228  0.7042  1.2687  1.9206
  328TIP3   OH2  989   5.516   0.064   1.647 -0.1962  0.0741 -0.6179
  328TIP3    H1  990   5.429   0.043   1.614  0.1125  0.1086 -1.4577
  328TIP3    H2  991   5.502   0.087   1.739 -0.8588 -1.4945 -0.3047
  329TIP3   OH2  992   0.733   4.444   2.970 -0.0387  0.3123  0.1467
  329TIP3    H1  993   0.700   4.524   3.010 -0.9464  0.3735 -0.6781
  329TIP3    H2  994   0.676   4.374   3.004  0.5312  0.0627  0.5995
  330TIP3   OH2  995   4.132   3.835   5.004  0.3987  0.3284  0.3348
  330TIP3    H1  996   4.137   3.803   5.094  0.1716 -1.8314 -0.3687
  330TIP3    H2  997   4.040   3.857   4.991  0.2416 -0.3115  0.3352
  331TIP3   OH2  998   1.797   3.669   1.882 -0.2871 -0.0864 -0.2953
  331TIP3    H1  999   1.878   3.619   1.873  0.4037  0.4160  2.3373
  331TIP3    H2 1000   1.811   3.748   1.831  0.6552 -0.2764 -0.3328
  332TIP3   OH2 1001   0.266   5.312   3.877 -0.0756  1.2889  0.0849
  332TIP3    H1 1002   0.211   5.359   3.814  0.2945 -0.2951 -1.4961
  332TIP3    H2 1003   0.355   5.321   3.842 -0.2005 -2.2924 -1.5509
  333TIP3   OH2 1004   0.927   1.383   0.511 -0.0269 -0.6219 -0.1678
  333TIP3    H1 1005   0.987   1.449   0.476 -0.1884 -0.2945  0.1617
  333TIP3    H2 1006   0.866   1.366   0.440  1.0650 -1.7409 -0.8932
  334TIP3   OH2 1007   3.525   1.200   4.358 -0.7957 -0.4216  0.1653
  334TIP3    H1 1008   3.482   1.196   4.443 -1.2151 -0.3775 -0.0441
  334TIP3    H2 1009   3.456   1.223   4.297 -0.7507 -1.6305 -0.3762
  335TIP3   OH2 1010   4.195   2.971   0.495 -0.3667 -0.1586  0.7029
  335TIP3    H1 1011   4.116   2.966   0.443 -0.6997 -1.0242  1.2801
  335TIP3    H2 1012   4.165   3.000   0.582  0.2414  1.8425  0.3140
  336TIP3   OH2 1013   2.775   3.047   4.894 -0.1180 -0.7012 -0.1614
  336TIP3    H1 1014   2.833   2.995   4.950  0.9687  0.9619  0.3207
  336TIP3    H2 1015   2.718   3.093   4.956  0.2803  0.2172 -0.4617
  337TIP3   OH2 1016   1.252   5.095   3.595 -0.0968  0.1452 -0.4341
  337TIP3    H1 1017   1.347   5.087   3.599  0.0461  1.1772 -1.1760
  337TIP3    H2 1018   1.236   5.155   3.522 -1.3446 -0.4167 -0.6447
  338TIP3   OH2 1019   2.270   0.036   0.839  0.3790 -0.0996  0.4075
  338TIP3    H1 1020   2.304   0.073   0.757 -1.2926  0.0616 -0.2466
  338TIP3    H2 1021   2.215   0.105   0.876 -1.3057 -1.2039  0.1040
  339TIP3   OH2 1022   1.420   1.616   4.911 -0.3427  0.5263  0.4249
  339TIP3    H1 1023   1.366   1.636   4.835 -0.3694 -0.7932  0.0731
  339TIP3    H2 1024   1.411   1.692   4.968  1.0836  2.3528 -1.6387
  340TIP3   OH2 1025   1.233   1.694   4.117  0.1988 -0.2224  0.7547
  340TIP3    H1 1026   1.290   1.768   4.097  0.0667 -0.0989  0.8331
  340TIP3    H2 1027   1.273   1.652   4.192 -0.8279  0.9814  2.0328
  341TIP3   OH2 1028   4.790   0.576   1.585 -0.2273 -0.2695  0.4199
  341TIP3    H1 1029   4.698   0.556   1.569 -0.0791 -0.3846 -0.3430
  341TIP3    H2 1030   4.827   0.496   1.621  0.0148 -0.8952 -1.1574
  342TIP3   OH2 1031   0.311   1.216   0.274  0.1391 -0.3895 -0.2892
  342TIP3    H1 1032   0.359   1.226   0.191 -1.1427  0.7424 -0.9282
  342TIP3    H2 1033   0.219   1.213   0.248 -0.2204 -1.6557  0.9860
  343TIP3   OH2 1034   3.932   1.135   2.006  0.1755 -0.0729 -0.3954
  343TIP3    H1 1035   3.924   1.224   1.972 -0.9345 -0.0373 -0.0795
  343TIP3    H2 1036   3.875   1.082   1.951 -0.5405 -0.2632  0.5062
  344TIP3   OH2 1037   5.522   4.980   4.763  0.1936  0.3241  0.6781
  344TIP3    H1 1038   5.485   4.915   4.703  0.7257  0.9338 -0.3328
  344TIP3    H2 1039   5.533   4.932   4.846 -1.2209 -0.3326  0.5233
  345TIP3   OH2 1040   0.296   1.842   3.306 -0.2517  0.3366 -0.0101
  345TIP3    H1 1041   0.369   1.816   3.250  0.7432  1.7853  0.5287
  345TIP3    H2 1042   0.218   1.827   3.253  0.3926 -1.4536 -0.5271
  346TIP3   OH2 1043   0.488   5.579   0.564  0.3435  0.0309  0.1607
  346TIP3    H1 1044   0.568   5.574   0.511  0.4801 -2.6503  0.4844
  346TIP3    H2 1045   0.417   5.565   0.502  0.3517 -0.7470  0.3178
  347TIP3   OH2 1046   0.053   4.146   0.376  0.4338 -0.0151 -0.4724
  347TIP3    H1 1047  -0.015   4.083   0.354  0.1830 -0.1395  0.6469
  347TIP3    H2 1048   0.048   4.212   0.306  1.4029 -1.7370 -2.2777
  348TIP3   OH2 1049   5.032   0.173   4.506 -0.0902 -0.0735 -0.1513
  348TIP3    H1 1050   5.102   0.220   4.460 -0.3276 -0.1954 -0.6419
  348TIP3    H2 1051   5.070   0.087   4.526  0.1315  0.1023  0.1950
  349TIP3   OH2 1052   5.742   1.293   5.053 -0.1433 -0.0932  0.4980
  349TIP3    H1 1053   5.804   1.356   5.088 -0.2281  0.4917 -0.3620
  349TIP3    H2 1054   5.659   1.341   5.048 -0.6863 -0.8709  1.6633
  350TIP3   OH2 1055   1.043   4.088   4.134  0.5885 -0.0650  0.0520
  350TIP3    H1 1056   1.020   4.091   4.041  1.3969 -1.1047 -0.2137
  350TIP3    H2 1057   1.021   3.998   4.160 -0.7072  0.5545  1.1771
  351TIP3   OH2 1058   4.688   5.185   0.046  0.3884  0.2461  0.4003
  351TIP3    H1 1059   4.718   5.130   0.119  0.3821 -0.9928 -0.5104
  351TIP3    H2 1060   4.674   5.271   0.086  0.3682 -0.4042  1.8711
  352TIP3   OH2 1061   4.961   0.930   3.966  0.5810 -0.3474 -0.0415
  352TIP3    H1 1062   5.008   0.847   3.958 -2.5999 -2.4317  1.1495
  352TIP3    H2 1063   4.996   0.970   4.045  2.3478 -0.3654 -0.7789
  353TIP3   OH2 1064   1.510   2.506   4.548 -0.3674 -0.0698 -0.4296
  353TIP3    H1 1065   1.430   2.508   4.495 -0.3463  0.4773 -0.4389
  353TIP3    H2 1066   1.568   2.569   4.506 -0.7352  1.1700  0.8504
  354TIP3   OH2 1067   4.627   1.598   0.382 -0.3649  0.3243 -0.1453
  354TIP3    H1 1068   4.602   1.673   0.436 -1.0744  0.8492 -1.1635
  354TIP3    H2 1069   4.672   1.636   0.307  0.7070 -0.4031  0.1097
  355TIP3   OH2 1070   3.543   2.819   4.520  0.5979  0.7327 -0.5526
  355TIP3    H1 1071   3.595   2.855   4.593 -1.4206 -0.8755  1.8521
  355TIP3    H2 1072   3.567   2.726   4.518 -1.0344  0.2762 -0.3520
  356TIP3   OH2 1073   5.731   1.109   0.474 -0.4716  0.0240  0.1218
  356TIP3    H1 1074   5.666   1.039   0.465 -1.4597  0.7647  1.1532
  356TIP3    H2 1075   5.768   1.096   0.561  1.3695 -0.8531 -0.7506
  357TIP3   OH2 1076   5.379   5.498   0.708  0.4473 -0.4925 -0.5915
  357TIP3    H1 1077   5.354   5.564   0.643  1.7036  1.0243  0.4028
  357TIP3    H2 1078   5.470   5.476   0.687  0.1480 -1.7331 -0.7209
  358TIP3   OH2 1079   4.306   0.348   5.181  0.1852  0.0968 -0.1804
  358TIP3    H1 1080   4.312   0.253   5.165 -0.4676 -0.4536  2.3304
  358TIP3    H2 1081   4.257   0.382   5.107  0.5996 -1.4891 -1.2427
  359TIP3   OH2 1082   5.991   5.806   1.246 -0.0657  0.5011 -0.9507
  359TIP3    H1 1083   6.057   5.830   1.312  0.5620  2.1506 -2.1097
  359TIP3    H2 1084   6.042   5.779   1.170 -0.7664 -0.1929 -1.1814
  360TIP3   OH2 1085   3.150   3.725   3.658  0.5003  0.2639  0.3220
  360TIP3    H1 1086   3.113   3.700   3.743  1.1784  2.2114  1.2535
  360TIP3    H2 1087   3.077   3.762   3.610  0.2934 -0.0495  0.3919
  361TIP3   OH2 1088   3.178   0.175   3.275 -0.9408 -0.1097 -0.2698
  361TIP3    H1 1089   3.153   0.102   3.332 -0.1324 -1.2682 -1.3651
  361TIP3    H2 1090   3.109   0.178   3.209 -1.5813  0.8829  0.4081
  362TIP3   OH2 1091   1.478   2.188   2.066  0.4306  0.2388 -0.3660
  362TIP3    H1 1092   1.427   2.253   2.018 -0.8202 -0.4947 -0.1057
  362TIP3    H2 1093   1.412   2.139   2.115  1.4566 -0.4759  0.3273
  363TIP3   OH2 1094   2.259   1.315   0.411  0.3511 -0.5642  0.0392
  363TIP3    H1 1095   2.186   1.346   0.464  2.2094 -0.5808  2.8407
  363TIP3    H2 1096   2.265   1.378   0.338 -2.4141 -0.6395 -0.3394
  364TIP3   OH2 1097   2.710   1.138   5.140 -0.2834 -0.3449 -0.0464
  364TIP3    H1 1098   2.767   1.214   5.141  1.0441 -1.2399  2.6188
  364TIP3    H2 1099   2.625   1.171   5.170 -0.6739  0.6120 -2.0438
  365TIP3   OH2 1100   0.048   3.086   0.941 -0.4502  0.2878 -0.1826
  365TIP3    H1 1101   0.061   3.181   0.947 -1.7606  0.5237 -0.8512
  365TIP3    H2 1102   0.125   3.055   0.893  0.6205  0.8184  1.0992
  366TIP3   OH2 1103   1.279   5.833   3.976  0.4120 -0.0665 -0.3356
  366TIP3    H1 1104   1.282   5.830   3.881 -2.6588 -2.2088 -0.5286
  366TIP3    H2 1105   1.205   5.890   3.996  0.2243 -0.6390  0.7025
  367TIP3   OH2 1106   4.564   1.571   1.611  0.0567 -0.4397 -0.0561
  367TIP3    H1 1107   4.533   1.592   1.699  1.4532  2.5223 -0.1420
  367TIP3    H2 1108   4.647   1.526   1.624 -0.7130 -1.8632  0.1068
  368TIP3   OH2 1109   2.923   1.243   3.602  0.1784  0.4216  0.1467
  368TIP3    H1 1110   2.847   1.186   3.620  0.0650 -0.1619 -1.8945
  368TIP3    H2 1111   2.892   1.331   3.622  0.2674 -0.1295  3.1247
  369TIP3   OH2 1112   6.297   5.449   3.111  0.0232 -0.5917 -0.3536
  369TIP3    H1 1113   6.331   5.519   3.167  0.0321 -1.8442  1.2854
  369TIP3    H2 1114   6.346   5.459   3.029  1.0910  0.3959  0.3650
  370TIP3   OH2 1115   3.690   5.233   4.971 -0.2107 -0.4165 -0.0030
  370TIP3    H1 1116   3.751   5.300   5.002  1.8281 -1.7421 -0.8857
  370TIP3    H2 1117   3.658   5.266   4.887  1.6707 -0.9699 -0.9979
  371TIP3   OH2 1118   5.429   1.635   3.131  0.5297  0.4733  0.0847
  371TIP3    H1 1119   5.361   1.686   3.087 -0.9031 -1.2729  0.1794
  371TIP3    H2 1120   5.384   1.591   3.203  1.9608 -0.0207  0.7188
  372TIP3   OH2 1121   2.538   1.416   4.884  0.2988  0.5205 -0.8509
  372TIP3    H1 1122   2.475   1.477   4.845  0.2268  0.1027 -1.4003
  372TIP3    H2 1123   2.535   1.435   4.978  0.2236  1.3070 -1.0040
  373TIP3   OH2 1124   2.623   4.388   0.894 -0.3427  0.5751  0.4588
  373TIP3    H1 1125   2.718   4.393   0.884 -0.4633  1.1079 -0.6230
  373TIP3    H2 1126   2.609   4.313   0.951  0.5780 -1.7966 -2.2024
  374TIP3   OH2 1127   3.727   3.690   3.547 -0.3696  0.1322  0.0227
  374TIP3    H1 1128   3.776   3.636   3.485  0.7770  0.7344  0.3715
  374TIP3    H2 1129   3.778   3.771   3.554 -0.8085  0.3242  1.2753
  375TIP3   OH2 1130   5.623   4.352   4.342 -0.8263 -0.7356 -0.2152
  375TIP3    H1 1131   5.702   4.327   4.295  0.9396  2.6777  0.5383
  375TIP3    H2 1132   5.656   4.398   4.420 -3.5508  0.3777  0.3880
  376TIP3   OH2 1133   2.990   0.175   3.066  0.0902 -0.0269  0.5729
  376TIP3    H1 1134   3.000   0.240   2.996 -0.9999  1.2746  1.5722
  376TIP3    H2 1135   2.935   0.107   3.027 -0.5766  0.7259  0.1775
  377TIP3   OH2 1136   0.606   0.355   4.630 -0.4556  0.2034 -0.4009
  377TIP3    H1 1137   0.596   0.341   4.536  0.3808  0.6602 -0.5724
  377TIP3    H2 1138   0.536   0.304   4.670 -0.1240 -0.9174 -1.2124
  378TIP3   OH2 1139   0.616   3.125   1.452 -0.1828  0.2097 -0.3306
  378TIP3    H1 1140   0.608   3.033   1.429 -1.2766  0.3387 -0.5562
  378TIP3    H2 1141   0.664   3.164   1.379 -2.5754  0.3925 -1.9181
  379TIP3   OH2 1142   1.102   0.090   4.338  0.2530  0.3506  0.7900
  379TIP3    H1 1143   1.054   0.123   4.413 -0.2197  0.4955  0.4269
  379TIP3    H2 1144   1.079   0.149   4.266 -0.8012 -0.8853  0.0679
  380TIP3   OH2 1145   2.374   5.930   4.216  0.6638 -0.2066 -0.1511
  380TIP3    H1 1146   2.436   5.953   4.147  0.7941  0.2919  0.1201
  380TIP3    H2 1147   2.414   5.856   4.262  0.2419 -1.0075 -1.0400
  381TIP3   OH2 1148   1.580   2.949   1.307 -0.1538  0.1440 -0.0440
  381TIP3    H1 1149   1.607   3.010   1.376 -0.2429  0.1707 -0.0334
  381TIP3    H2 1150   1.531   3.003   1.245 -0.6166 -0.0052  0.1903
  382TIP3   OH2 1151   3.497   3.405   5.113  0.0664 -0.2372 -0.2702
  382TIP3    H1 1152   3.435   3.340   5.147  0.2193 -0.7543 -0.9438
  382TIP3    H2 1153   3.578   3.355   5.099  0.3306  0.2070 -0.3436
  383TIP3   OH2 1154   4.801   0.527   3.355 -0.1210 -0.2457 -0.1512
  383TIP3    H1 1155   4.796   0.558   3.264 -1.7524  1.6895  0.5170
  383TIP3    H2 1156   4.893   0.537   3.379  0.3839 -0.9777 -1.6077
  384TIP3   OH2 1157   2.206   4.970   3.283 -0.5620 -0.2306 -0.2016
  384TIP3    H1 1158   2.133   4.930   3.330 -0.1243  1.0273  1.6900
  384TIP3    H2 1159   2.169   5.048   3.243  0.0747  1.8514  2.8666
  385TIP3   OH2 1160   0.647   4.946   3.669 -0.2064  0.5027  0.0720
  385TIP3    H1 1161   0.671   4.898   3.589 -0.3641 -0.6488  0.6987
  385TIP3    H2 1162   0.554   4.968   3.657 -0.7786 -1.3987  0.7632
  386TIP3   OH2 1163   3.592   3.610   1.970  0.2926  0.2345  0.1918
  386TIP3    H1 1164   3.581   3.572   1.883  1.3181  0.1371  0.0884
  386TIP3    H2 1165   3.529   3.682   1.973 -0.9037 -0.7783 -0.0119
  387TIP3   OH2 1166   4.185   3.370   1.392  0.1025 -0.2342 -0.1800
  387TIP3    H1 1167   4.164   3.298   1.332  1.7806 -0.7051 -0.2430
  387TIP3    H2 1168   4.130   3.442   1.362 -2.6246 -1.7883  0.6723
  388TIP3   OH2 1169   6.140   1.068   1.218  0.1136 -0.1716  0.6983
  388TIP3    H1 1170   6.225   1.034   1.244 -0.4655 -0.6085  2.1632
  388TIP3    H2 1171   6.153   1.104   1.130  1.8749  0.0902  1.0367
  389TIP3   OH2 1172   2.602   2.843   3.806 -0.5876 -0.5501  0.0659
  389TIP3    H1 1173   2.672   2.823   3.743 -1.2078 -6.6820  0.7027
  389TIP3    H2 1174   2.642   2.831   3.892 -1.8058 -2.2014  0.4706
  390TIP3   OH2 1175   5.038   0.134   2.635 -0.4258 -0.1446  1.1609
  390TIP3    H1 1176   5.042   0.093   2.721  1.3448 -0.3507  1.0068
  390TIP3    H2 1177   4.952   0.177   2.633 -1.0335 -1.2140  2.5131
  391TIP3   OH2 1178   5.414   0.740   1.447  0.4197  0.0113 -0.3516
  391TIP3    H1 1179   5.350   0.699   1.506 -0.6511 -0.6078 -1.8861
  391TIP3    H2 1180   5.489   0.681   1.449  0.7031  0.3789  0.9274
  392TIP3   OH2 1181   2.650   2.280   3.726 -0.4252 -0.1014 -0.6567
  392TIP3    H1 1182   2.570   2.228   3.735 -0.0285 -0.6243 -0.1304
  392TIP3    H2 1183   2.718   2.228   3.768  0.0236  0.7536 -0.2928
  393TIP3   OH2 1184   6.045   3.016   0.293 -0.0271 -0.2246 -0.7729
  393TIP3    H1 1185   5.966   3.053   0.331  2.0928  3.2245  0.8193
  393TIP3    H2 1186   6.068   2.944   0.351 -0.8684  0.1213  0.0158
  394TIP3   OH2 1187   3.489   5.848   1.444  0.1160 -0.6884 -0.1068
  394TIP3    H1 1188   3.459   5.900   1.519 -1.1187 -0.4986 -0.7173
  394TIP3    H2 1189   3.584   5.842   1.457  0.3320  1.7729 -0.0351
  395TIP3   OH2 1190   5.793   4.077   4.043  0.1910  0.3899  0.4960
  395TIP3    H1 1191   5.771   4.152   3.988 -0.7433 -0.5864 -0.5122
  395TIP3    H2 1192   5.849   4.022   3.988  2.1152  1.0111  1.7398
  396TIP3   OH2 1193   5.482   4.109   0.550 -0.3290 -0.7237  0.1445
  396TIP3    H1 1194   5.527   4.192   0.569  2.5230 -1.9643 -0.5436
  396TIP3    H2 1195   5.427   4.128   0.474 -0.4045  0.7353  0.5313
  397TIP3   OH2 1196   4.569   4.728   4.639 -0.1318 -0.3108  0.0151
  397TIP3    H1 1197   4.507   4.720   4.566  0.9055  0.8719 -1.0259
  397TIP3    H2 1198   4.559   4.818   4.669 -0.8156 -0.8852  1.6229
  398TIP3   OH2 1199   5.765   0.911   3.552  0.3120 -0.6916 -0.8712
  398TIP3    H1 1200   5.717   0.837   3.514  0.0501 -1.0826  0.1987
  398TIP3    H2 1201   5.732   0.918   3.641 -0.3959  1.3632 -1.2422
  399TIP3   OH2 1202   2.730   0.320   3.800 -0.0407  0.0215  1.4029
  399TIP3    H1 1203   2.635   0.328   3.793 -0.0953 -1.2309  0.2274
  399TIP3    H2 1204   2.751   0.241   3.750  1.9699  2.1083 -1.4252
  400TIP3   OH2 1205   4.870   0.165   1.763 -0.3466 -0.4116 -0.2813
  400TIP3    H1 1206   4.938   0.099   1.749  1.2012  0.6526  1.7321
  400TIP3    H2 1207   4.916   0.249   1.758 -2.1079  0.5535 -1.8905
  401TIP3   OH2 1208   4.675   2.738   2.226  0.3836 -0.0853 -0.3280
  401TIP3    H1 1209   4.610   2.758   2.159  0.4145 -1.6241 -0.8754
  401TIP3    H2 1210   4.706   2.650   2.203  2.0158  0.2486  0.4257
  402TIP3   OH2 1211   6.127   3.298   0.998 -0.9558 -0.0513 -0.3140
  402TIP3    H1 1212   6.219   3.282   0.978 -0.8254  0.2593  0.0333
  402TIP3    H2 1213   6.108   3.382   0.955  0.0351  2.0231  2.9038
  403TIP3   OH2 1214   1.936   3.868   1.745 -0.0025  0.0479 -0.3923
  403TIP3    H1 1215   1.950   3.918   1.825  0.8636  0.4444 -0.7753
  403TIP3    H2 1216   1.861   3.909   1.703  0.9218  1.3009 -0.8904
  404TIP3   OH2 1217   6.170   5.839   1.433  0.0199 -0.1981  0.4530
  404TIP3    H1 1218   6.266   5.847   1.430 -0.0805  0.7131 -1.0129
  404TIP3    H2 1219   6.145   5.883   1.514  0.9419 -1.9401  1.7569
  405TIP3   OH2 1220   2.102   0.709   4.614  0.1167 -0.4398  0.4192
  405TIP3    H1 1221   2.096   0.693   4.708 -0.4862 -0.8506  0.3153
  405TIP3    H2 1222   2.020   0.751   4.590  0.2506 -0.3692  0.0676
  406TIP3   OH2 1223   2.594   5.077   4.878 -0.2261  0.1331 -0.5599
  406TIP3    H1 1224   2.565   5.020   4.950  0.7350 -1.2528 -1.2266
  406TIP3    H2 1225   2.568   5.030   4.799 -1.3851  1.7040 -1.1505
  407TIP3   OH2 1226   2.366   1.985   2.076 -0.1076  0.5344 -0.3584
  407TIP3    H1 1227   2.396   2.071   2.047 -0.6363  0.8993  0.1233
  407TIP3    H2 1228   2.293   1.964   2.018  0.0436  0.3945 -0.4980
  408TIP3   OH2 1229   1.032   4.283   2.702 -0.3415 -0.2319 -0.4124
  408TIP3    H1 1230   0.937   4.293   2.696 -0.4790 -1.6588 -1.0598
  408TIP3    H2 1231   1.046   4.188   2.709  0.9248  0.0482  2.1246
  409TIP3   OH2 1232   2.455   5.644   2.767 -0.0484  0.2277 -0.3046
  409TIP3    H1 1233   2.482   5.719   2.714  1.3126  0.8241  1.1526
  409TIP3    H2 1234   2.395   5.680   2.831  1.1080  0.2399  0.8090
  410TIP3   OH2 1235   4.136   1.499   2.390  0.1853  0.4371 -0.1766
  410TIP3    H1 1236   4.166   1.583   2.428 -0.4652 -0.2868  2.1167
  410TIP3    H2 1237   4.174   1.433   2.448 -0.8392 -0.7708 -0.8547
  411TIP3   OH2 1238   4.386   5.445   0.922  0.3378 -0.3899 -0.4629
  411TIP3    H1 1239   4.355   5.516   0.978 -0.0813 -1.2045  0.3545
  411TIP3    H2 1240   4.478   5.433   0.945  0.0960 -0.9054  0.2667
  412TIP3   OH2 1241   6.020   4.977   4.630  0.2424 -0.0779  0.0089
  412TIP3    H1 1242   6.008   4.955   4.538  0.5521 -1.1268  0.2034
  412TIP3    H2 1243   6.112   5.003   4.636  0.1968  0.0850  0.0046
  413TIP3   OH2 1244   5.175   4.146   0.844 -0.0184  0.0855  0.1626
  413TIP3    H1 1245   5.243   4.078   0.842 -1.5595 -1.6068 -3.3670
  413TIP3    H2 1246   5.106   4.109   0.899 -0.2805 -0.6833 -0.6504
  414TIP3   OH2 1247   2.383   3.557   2.625  0.4741 -0.2158 -0.2679
  414TIP3    H1 1248   2.324   3.481   2.625  2.0240 -1.5127  1.0398
  414TIP3    H2 1249   2.370   3.597   2.711 -0.7988  1.4476 -1.1847
  415TIP3   OH2 1250   1.278   3.100   1.518  0.1548  0.0631 -0.5898
  415TIP3    H1 1251   1.325   3.166   1.568 -0.8430 -0.7467  1.5223
  415TIP3    H2 1252   1.215   3.149   1.465 -1.1992  0.8300  1.6195
  416TIP3   OH2 1253   4.224   4.518   1.017 -0.9362 -0.1778  0.3015
  416TIP3    H1 1254   4.276   4.535   0.939 -0.2465 -2.0763  0.2985
  416TIP3    H2 1255   4.143   4.480   0.983 -1.0563 -0.0680  0.4653
  417TIP3   OH2 1256   3.579   2.276   4.533  0.5156 -0.4977 -0.7085
  417TIP3    H1 1257   3.593   2.225   4.613  1.5759 -0.2120 -0.6946
  417TIP3    H2 1258   3.624   2.226   4.465  1.8702  0.5612 -0.6345
  418TIP3   OH2 1259   3.821   5.814   5.117  0.0350 -0.4286  0.0296
  418TIP3    H1 1260   3.827   5.909   5.108  0.0518 -0.4833 -0.5845
  418TIP3    H2 1261   3.767   5.801   5.195 -0.3024  0.0924 -0.1075
  419TIP3   OH2 1262   1.084   2.500   0.690  0.2917 -0.1973  0.6371
  419TIP3    H1 1263   1.097   2.484   0.597 -0.9867 -0.0669  0.4095
  419TIP3    H2 1264   1.119   2.588   0.704 -2.7629  1.3598 -0.5742
  420TIP3   OH2 1265   0.818   3.839   0.619 -0.1193 -0.0727 -0.1302
  420TIP3    H1 1266   0.767   3.891   0.557  0.2332  0.0562 -0.3154
  420TIP3    H2 1267   0.909   3.852   0.592  0.0301 -0.0838  0.3654
  421TIP3   OH2 1268   0.358   2.703   2.720 -0.0167 -0.1687 -0.2120
  421TIP3    H1 1269   0.342   2.753   2.640  0.2839 -2.3229 -1.7041
  421TIP3    H2 1270   0.287   2.728   2.779 -0.8566  0.7051 -1.5561
  422TIP3   OH2 1271   3.262   4.126   1.884  0.3994  0.6276  0.1255
  422TIP3    H1 1272   3.278   4.140   1.977 -0.6223  1.6737  0.1669
  422TIP3    H2 1273   3.193   4.059   1.882  2.3792 -1.5561  0.0124
  423TIP3   OH2 1274   0.883   3.395   4.041  0.3368 -0.0553  0.3979
  423TIP3    H1 1275   0.822   3.425   3.973  1.5507  2.6024  0.3552
  423TIP3    H2 1276   0.909   3.308   4.012 -2.0943 -0.5991 -0.4586
  424TIP3   OH2 1277   0.790   4.882   1.368 -0.0131  0.1175 -0.1556
  424TIP3    H1 1278   0.764   4.889   1.276 -1.0806 -2.3940 -0.1167
  424TIP3    H2 1279   0.717   4.837   1.410  1.6443 -1.2821  1.3531
  425TIP3   OH2 1280   4.896   2.100   0.656 -0.6881 -0.0457  0.4899
  425TIP3    H1 1281   4.860   2.188   0.663 -0.7535 -0.0982  0.8329
  425TIP3    H2 1282   4.839   2.046   0.711  0.2309 -0.0300  1.5033
  426TIP3   OH2 1283   1.269   3.414   5.060 -0.0603  0.2040  0.1745
  426TIP3    H1 1284   1.177   3.422   5.034  0.0009  0.5074  0.0395
  426TIP3    H2 1285   1.271   3.343   5.124 -0.0443 -1.3447 -1.4656
  427TIP3   OH2 1286   3.478   4.815   4.466 -0.1241  0.6294 -0.5360
  427TIP3    H1 1287   3.498   4.863   4.547 -0.5255 -3.5632  2.3493
  427TIP3    H2 1288   3.382   4.818   4.459 -0.4727 -2.1911  1.5445
  428TIP3   OH2 1289   2.848   5.292   3.881  0.0825  0.1836 -0.3321
  428TIP3    H1 1290   2.842   5.386   3.895 -0.0444  0.4424 -1.9093
  428TIP3    H2 1291   2.919   5.281   3.819  1.4261 -0.9702  1.3196
  429TIP3   OH2 1292   4.677   1.773   2.244  0.1756 -0.2930 -1.0658
  429TIP3    H1 1293   4.703   1.708   2.310  0.5243  1.5793  0.7372
  429TIP3    H2 1294   4.695   1.730   2.161 -1.3345 -3.2167 -0.0509
  430TIP3   OH2 1295   2.252   2.547   0.040  0.4385  0.0086 -0.2430
  430TIP3    H1 1296   2.244   2.602   0.118  0.7359  1.2806 -1.0879
  430TIP3    H2 1297   2.318   2.482   0.063  0.3110  0.1826  0.6582
  431TIP3   OH2 1298   1.376   1.287   2.180  0.2996  0.2914 -0.2420
  431TIP3    H1 1299   1.396   1.201   2.217  3.2333  0.5442 -0.9470
  431TIP3    H2 1300   1.402   1.279   2.088 -0.6552  1.5532 -0.6445
  432TIP3   OH2 1301   3.755   5.573   3.807  0.7770 -0.0251 -0.1430
  432TIP3    H1 1302   3.668   5.583   3.768  0.0932 -1.7593  0.8142
  432TIP3    H2 1303   3.815   5.575   3.733 -0.1373  0.4753 -0.8938
  433TIP3   OH2 1304   1.444   1.477   2.940 -0.1682  0.0247  1.0758
  433TIP3    H1 1305   1.401   1.412   2.996 -1.3773 -0.6346 -0.5170
  433TIP3    H2 1306   1.374   1.505   2.881  1.0862  0.6107 -0.1543
  434TIP3   OH2 1307   3.452   5.267   1.662 -0.2833 -0.3784 -0.0939
  434TIP3    H1 1308   3.477   5.341   1.606 -1.5771 -1.2469 -1.9162
  434TIP3    H2 1309   3.413   5.204   1.602 -1.1362 -1.6575  1.7221
  435TIP3   OH2 1310   3.376   5.149   1.089 -0.9114 -0.0371  0.1153
  435TIP3    H1 1311   3.454   5.102   1.120 -0.3404  0.3492 -0.6856
  435TIP3    H2 1312   3.320   5.081   1.053 -0.5621 -0.2270 -0.0789
  436TIP3   OH2 1313   0.698   0.874   3.933 -0.0666 -0.7073  0.5849
  436TIP3    H1 1314   0.640   0.882   4.009 -0.5651 -0.7490  0.2147
  436TIP3    H2 1315   0.643   0.834   3.865  0.6780 -1.6710  0.5301
  437TIP3   OH2 1316   0.182   5.830   3.809 -0.5180  0.9046  0.2904
  437TIP3    H1 1317   0.223   5.821   3.723  0.4167  2.5198  0.5221
  437TIP3    H2 1318   0.227   5.904   3.849 -1.4147  0.6201  1.9073
  438TIP3   OH2 1319   2.004   5.820   4.212  0.3239 -0.1585  0.2950
  438TIP3    H1 1320   1.968   5.817   4.301 -0.0275 -0.3948  0.1486
  438TIP3    H2 1321   1.998   5.912   4.186  2.0842  0.2529  1.1761
  439TIP3   OH2 1322   4.358   1.426  -0.002  0.3342 -0.3500 -0.3990
  439TIP3    H1 1323   4.370   1.348   0.052  2.4752  0.3257  0.1979
  439TIP3    H2 1324   4.324   1.492   0.058 -1.9561 -0.8805 -1.0094
  440TIP3   OH2 1325   5.160   1.957   5.040  0.6431 -0.3192  0.3754
  440TIP3    H1 1326   5.218   1.891   5.076 -0.5219 -0.8147  1.4073
  440TIP3    H2 1327   5.166   2.031   5.100 -1.5312 -1.2599  1.8887
  441TIP3   OH2 1328   1.146   5.843   1.508  0.1483 -0.2379 -0.1526
  441TIP3    H1 1329   1.209   5.772   1.523 -0.7415 -1.0736 -0.2719
  441TIP3    H2 1330   1.062   5.798   1.498 -0.0919  0.6531 -2.6079
  442TIP3   OH2 1331   4.908   3.208   4.505 -0.0818 -0.7631  0.2496
  442TIP3    H1 1332   4.857   3.279   4.467  1.5253  0.7067  0.6984
  442TIP3    H2 1333   4.986   3.203   4.451  1.0296 -0.3799  1.7401
  443TIP3   OH2 1334   4.677   4.183   1.205 -0.0805  0.0909 -0.3770
  443TIP3    H1 1335   4.641   4.177   1.294  0.3996  0.8434 -0.1315
  443TIP3    H2 1336   4.645   4.267   1.171 -1.4715 -0.8158 -1.4756
  444TIP3   OH2 1337   1.154   3.043   2.921  0.0240 -0.1832 -0.0758
  444TIP3    H1 1338   1.143   2.961   2.970 -0.1305 -0.4726 -0.5948
  444TIP3    H2 1339   1.136   3.020   2.830  1.6251  0.0712 -0.4813
  445TIP3   OH2 1340   0.819   3.524   0.342  0.1922  0.0257 -0.8954
  445TIP3    H1 1341   0.907   3.512   0.378 -0.3300  1.2159  0.9276
  445TIP3    H2 1342   0.833   3.571   0.260  1.3251 -1.1197 -1.3873
  446TIP3   OH2 1343   4.239   5.751   4.493  0.5907  0.2555 -0.5725
  446TIP3    H1 1344   4.241   5.709   4.407 -0.2290  1.1171 -1.0266
  446TIP3    H2 1345   4.169   5.706   4.540  0.1945  0.6163 -0.8076
  447TIP3   OH2 1346   5.736   5.558   1.532 -0.2444  0.1751  0.7837
  447TIP3    H1 1347   5.741   5.612   1.453  0.1695  1.2870  1.5464
  447TIP3    H2 1348   5.733   5.468   1.499 -1.0429  0.6455 -0.5247
  448TIP3   OH2 1349   1.313   1.024   0.928  0.0069 -0.0695  0.0898
  448TIP3    H1 1350   1.267   0.984   1.002  1.1682  1.0553  1.4683
  448TIP3    H2 1351   1.315   0.956   0.861 -0.7270 -1.2498  1.2320
  449TIP3   OH2 1352   1.066   1.262   4.901 -0.0956  0.8400  0.0494
  449TIP3    H1 1353   1.134   1.297   4.844 -1.0698  0.6182 -1.2943
  449TIP3    H2 1354   1.054   1.330   4.968  0.7142  1.3325 -0.2810
  450TIP3   OH2 1355   1.641   1.667  -0.004  0.1948 -0.2382 -0.3359
  450TIP3    H1 1356   1.572   1.617   0.039  0.8713 -0.2128  0.8018
  450TIP3    H2 1357   1.685   1.714   0.067  1.5678 -0.4851 -0.9955
  451TIP3   OH2 1358   2.427   3.459   2.936  0.8115 -0.5037  0.3496
  451TIP3    H1 1359   2.401   3.436   3.025  0.9916 -1.4814  0.1584
  451TIP3    H2 1360   2.374   3.403   2.880 -0.9883  1.6643 -0.2954
  452TIP3   OH2 1361   0.365   5.265   4.353 -0.4357 -0.8291 -0.1645
  452TIP3    H1 1362   0.434   5.309   4.403 -0.8071  0.0533 -0.4098
  452TIP3    H2 1363   0.354   5.319   4.275  0.4109 -2.3973 -1.4323
  453TIP3   OH2 1364   1.777   4.125   4.745 -0.3459  0.0358  0.2666
  453TIP3    H1 1365   1.692   4.107   4.706 -0.1568  0.4960 -0.4045
  453TIP3    H2 1366   1.783   4.221   4.746  0.3553  0.0083 -0.1573
  454TIP3   OH2 1367   5.787   5.650   4.844 -0.0128 -0.5147 -0.8091
  454TIP3    H1 1368   5.712   5.695   4.806  0.5761 -0.5781 -2.1128
  454TIP3    H2 1369   5.752   5.567   4.875 -0.8519  0.2822  0.4285
  455TIP3   OH2 1370   2.936   4.484   4.520  0.0301 -0.0988  0.2487
  455TIP3    H1 1371   2.988   4.526   4.452 -0.7709  3.6092  1.7181
  455TIP3    H2 1372   2.937   4.391   4.496  1.9188  0.6470 -3.2908
  456TIP3   OH2 1373   1.366   3.958   4.315 -0.0593 -0.3625 -0.0848
  456TIP3    H1 1374   1.331   3.994   4.396  1.5206  1.2368 -0.0456
  456TIP3    H2 1375   1.301   3.893   4.287 -1.4786  0.2974  1.5217
  457TIP3   OH2 1376   2.441   3.192   3.633  0.5534  0.0466 -0.4287
  457TIP3    H1 1377   2.519   3.197   3.689 -0.2800  2.3539  0.6660
  457TIP3    H2 1378   2.382   3.133   3.679  0.4234  0.8475  0.4741
  458TIP3   OH2 1379   2.946   4.354   3.617 -0.4146  0.5889  0.3419
  458TIP3    H1 1380   3.009   4.422   3.642 -1.7697  0.9966  2.9476
  458TIP3    H2 1381   2.891   4.395   3.550  1.3573  0.5639 -1.2170
  459TIP3   OH2 1382   3.799   3.500   2.161  0.0573  0.2061 -0.0184
  459TIP3    H1 1383   3.717   3.537   2.127  0.1353 -0.9810 -1.6366
  459TIP3    H2 1384   3.773   3.444   2.233 -0.7225 -1.0117 -1.2074
  460TIP3   OH2 1385   4.599   5.106   3.479 -0.8545 -0.0836 -0.5191
  460TIP3    H1 1386   4.561   5.082   3.564 -0.2212  2.2736  0.5268
  460TIP3    H2 1387   4.671   5.044   3.467 -1.6654 -1.1826  0.0909
  461TIP3   OH2 1388   2.775   5.529   0.187 -0.5524  0.3330 -0.2381
  461TIP3    H1 1389   2.843   5.591   0.158 -0.6707  0.1178 -0.9918
  461TIP3    H2 1390   2.815   5.443   0.174 -1.3950  0.1486 -1.8748
  462TIP3   OH2 1391   1.145   0.510   0.201  0.2277  0.1593  0.4888
  462TIP3    H1 1392   1.155   0.569   0.276  0.2269  1.1307 -0.2521
  462TIP3    H2 1393   1.139   0.423   0.240 -0.6308  0.7140  1.6742
  463TIP3   OH2 1394   4.222   5.152   2.637  0.9853  0.1286  0.1454
  463TIP3    H1 1395   4.258   5.064   2.650  1.4093  0.1120 -1.0614
  463TIP3    H2 1396   4.241   5.173   2.546  0.3902  1.2554  0.2622
  464TIP3   OH2 1397   2.052   2.150   0.292 -0.1653 -0.1875  0.0165
  464TIP3    H1 1398   2.049   2.139   0.387  0.5598  0.1185  0.0825
  464TIP3    H2 1399   2.056   2.245   0.280 -1.3430 -0.1683 -0.3654
  465TIP3   OH2 1400   0.285   2.051   2.995 -0.4731  0.2959 -0.1364
  465TIP3    H1 1401   0.295   1.959   2.974  1.5420  0.7249 -1.3292
  465TIP3    H2 1402   0.321   2.097   2.919  0.7135  2.0106  1.3624
  466TIP3   OH2 1403   3.207   5.110   1.504 -0.2394 -0.1615  0.6483
  466TIP3    H1 1404   3.166   5.041   1.452 -0.0876 -2.3726  3.1788
  466TIP3    H2 1405   3.217   5.184   1.444 -1.1131 -2.0688 -2.0405
  467TIP3   OH2 1406   6.001   4.683   0.756 -0.1437  0.3129 -0.0245
  467TIP3    H1 1407   5.980   4.766   0.714  0.1549  0.4236  0.0407
  467TIP3    H2 1408   5.962   4.617   0.699  1.5648  0.3705 -1.3595
  468TIP3   OH2 1409   0.876   1.206   5.169 -0.1971 -0.2953 -0.0339
  468TIP3    H1 1410   0.851   1.150   5.095  1.8532 -0.7215 -0.4526
  468TIP3    H2 1411   0.970   1.217   5.160  0.0253  0.0959  2.2442
  469TIP3   OH2 1412   0.162   4.453   3.994 -0.2801 -0.3464 -0.3474
  469TIP3    H1 1413   0.238   4.427   3.943  0.1606 -1.4706  0.8424
  469TIP3    H2 1414   0.110   4.373   4.004  0.8531 -0.8149  2.9423
  470TIP3   OH2 1415   0.589   2.617   3.047  0.2052 -0.1725  0.2279
  470TIP3    H1 1416   0.562   2.570   3.126 -0.2774 -2.2630 -1.0947
  470TIP3    H2 1417   0.529   2.692   3.041 -0.0461 -0.2509  1.5642
  471TIP3   OH2 1418   5.352   5.940   2.428  0.1572  0.1196  0.2538
  471TIP3    H1 1419   5.406   5.882   2.481  1.0960  0.6728 -0.0783
  471TIP3    H2 1420   5.351   6.023   2.476 -1.0756 -0.1149  0.6637
  472TIP3   OH2 1421   6.092   5.644   1.825 -0.0601  0.3560 -0.3466
  472TIP3    H1 1422   6.077   5.613   1.736 -1.2850 -3.3137  0.9670
  472TIP3    H2 1423   6.187   5.655   1.830  0.3417 -1.9378 -1.4391
  473TIP3   OH2 1424   3.456   5.050   4.030 -0.2286 -0.4563  0.1221
  473TIP3    H1 1425   3.466   5.129   4.083 -0.8800  0.6145 -1.3183
  473TIP3    H2 1426   3.393   4.997   4.079 -1.3283  0.8083  0.1279
  474TIP3   OH2 1427   6.008   4.060   1.463 -0.1919  0.6145 -0.4379
  474TIP3    H1 1428   6.075   3.996   1.440 -2.1692 -1.5501 -0.5765
  474TIP3    H2 1429   5.968   4.084   1.380 -0.8641  0.3483 -0.2032
  475TIP3   OH2 1430   6.227   1.596   3.805  0.0389 -0.2607 -0.1713
  475TIP3    H1 1431   6.273   1.680   3.807  0.8692 -0.7307  1.2913
  475TIP3    H2 1432   6.228   1.566   3.895 -1.8601 -1.0036 -0.3580
  476TIP3   OH2 1433   1.349   3.681   5.151 -0.1604  0.0550 -0.0043
  476TIP3    H1 1434   1.322   3.598   5.111 -0.6573  0.0145  0.4068
  476TIP3    H2 1435   1.284   3.697   5.219  0.7354  0.0648  0.8719
  477TIP3   OH2 1436   2.430   0.263   3.756  0.6260  0.0041 -0.8684
  477TIP3    H1 1437   2.352   0.250   3.810 -0.0753  0.0275 -1.8500
  477TIP3    H2 1438   2.430   0.189   3.696  2.1391 -0.7576 -0.0075
  478TIP3   OH2 1439   6.196   2.142   1.761 -0.2192 -0.4534  0.1309
  478TIP3    H1 1440   6.280   2.104   1.785 -0.4935 -1.0089  0.2273
  478TIP3    H2 1441   6.201   2.232   1.791  0.5580 -0.3190 -0.3679
  479TIP3   OH2 1442   3.227   5.568   0.422 -0.0619 -0.7245 -0.1369
  479TIP3    H1 1443   3.269   5.498   0.472 -0.8468  0.4650  2.3564
  479TIP3    H2 1444   3.280   5.646   0.440 -0.0911 -0.3396 -1.6094
  480TIP3   OH2 1445   4.618   3.690   3.577 -0.2325  0.0635  0.3850
  480TIP3    H1 1446   4.624   3.612   3.631  0.2298 -0.2812 -0.1497
  480TIP3    H2 1447   4.599   3.761   3.638  0.1616 -0.3371  0.9745
  481TIP3   OH2 1448   4.401   4.956   4.994 -0.2256  0.0463 -0.0191
  481TIP3    H1 1449   4.493   4.970   4.976  0.4704 -2.5988  0.9203
  481TIP3    H2 1450   4.398   4.931   5.087 -1.9184  0.3124  0.0342
  482TIP3   OH2 1451   3.246   2.947   3.444  0.1293 -0.2222 -0.1673
  482TIP3    H1 1452   3.313   2.923   3.507  1.2953 -0.5191 -1.4564
  482TIP3    H2 1453   3.236   3.042   3.454  0.9178 -0.1414 -0.0995
  483TIP3   OH2 1454   5.967   0.105   5.094 -0.2024  0.1029  0.0983
  483TIP3    H1 1455   6.036   0.159   5.056  0.1273  0.1203  0.7157
  483TIP3    H2 1456   5.894   0.165   5.108  0.1015  0.3576  0.6178
  484TIP3   OH2 1457   5.699   1.376   2.163  0.5140  1.0005  0.8298
  484TIP3    H1 1458   5.627   1.342   2.109  3.6622 -0.4769 -2.8579
  484TIP3    H2 1459   5.748   1.299   2.190  1.4273  2.0217  2.2127
  485TIP3   OH2 1460   2.482   1.006   2.924  0.5104  0.1990 -0.1391
  485TIP3    H1 1461   2.533   1.085   2.910 -0.5902  1.0806  0.7176
  485TIP3    H2 1462   2.401   1.035   2.966 -0.9392 -1.0714 -1.8420
  486TIP3   OH2 1463   4.415   0.891   3.827  0.4141 -0.2625  0.2314
  486TIP3    H1 1464   4.399   0.802   3.797 -1.2372 -0.1471  0.6426
  486TIP3    H2 1465   4.486   0.883   3.891  0.6307 -1.1934 -0.1109
  487TIP3   OH2 1466   2.861   1.026   1.952  0.4027 -0.4512  0.1606
  487TIP3    H1 1467   2.816   1.069   2.024  1.3926  0.8219  0.0518
  487TIP3    H2 1468   2.795   0.968   1.913 -0.3365 -0.6469  1.6407
  488TIP3   OH2 1469   0.966   0.191   3.430  0.1228  0.2279  0.2790
  488TIP3    H1 1470   0.942   0.135   3.503  0.9960  0.4036  0.7118
  488TIP3    H2 1471   1.061   0.194   3.432  0.1004  1.5469  0.1235
  489TIP3   OH2 1472   4.736   2.990   1.068  0.2025 -0.6193 -0.0162
  489TIP3    H1 1473   4.670   2.921   1.061  0.5666 -0.9047 -0.7719
  489TIP3    H2 1474   4.812   2.955   1.022  0.7504 -0.1313  0.4999
  490TIP3   OH2 1475   2.110   5.050   0.550  0.2396 -0.5856 -0.3235
  490TIP3    H1 1476   2.190   5.089   0.515  0.7679  0.6199  1.9907
  490TIP3    H2 1477   2.138   4.964   0.583  0.9926  0.3597  1.6910
  491TIP3   OH2 1478   4.389   3.973   3.678  0.1412 -0.0634  0.3385
  491TIP3    H1 1479   4.356   3.975   3.588  1.2323 -2.7870 -0.2133
  491TIP3    H2 1480   4.449   4.048   3.683  0.9418 -0.5042 -1.6065
  492TIP3   OH2 1481   2.912   1.124   0.660  0.0193  0.2156  0.6660
  492TIP3    H1 1482   2.887   1.055   0.598  0.9255  2.2143 -2.1621
  492TIP3    H2 1483   2.831   1.173   0.675 -0.0994  0.0263  0.6518
  493TIP3   OH2 1484   4.670   4.016   2.275  0.0308 -0.5343 -0.0472
  493TIP3    H1 1485   4.642   3.992   2.363 -2.7148  0.3972 -0.5773
  493TIP3    H2 1486   4.637   3.945   2.220 -1.3084  0.5343 -0.6830
  494TIP3   OH2 1487   0.661   3.054   0.388  0.0276  0.3923 -0.2245
  494TIP3    H1 1488   0.617   2.975   0.356 -0.9041  1.6952 -2.3089
  494TIP3    H2 1489   0.590   3.109   0.422  0.4811  0.9506 -0.1692
  495TIP3   OH2 1490   0.097   1.055   0.452  0.1409 -0.3576 -0.3704
  495TIP3    H1 1491   0.129   1.142   0.426  0.5661 -0.6982 -1.0117
  495TIP3    H2 1492   0.046   1.072   0.531  2.1259  0.2017  0.8913
  496TIP3   OH2 1493   5.415   5.586   2.274  0.2943  0.6626 -0.0591
  496TIP3    H1 1494   5.378   5.645   2.340  1.5855  1.7687 -0.2777
  496TIP3    H2 1495   5.455   5.644   2.210  1.9266 -0.4437 -0.0998
  497TIP3   OH2 1496   3.680   4.076   0.186 -0.3058  0.4581 -0.0436
  497TIP3    H1 1497   3.728   4.106   0.109 -0.0328 -0.1119 -0.1060
  497TIP3    H2 1498   3.718   4.124   0.259 -0.6186  1.0617 -0.2680
  498TIP3   OH2 1499   2.023   3.601   4.713  0.2602  0.2592 -0.1289
  498TIP3    H1 1500   2.010   3.667   4.644 -0.4221 -1.2604 -1.5146
  498TIP3    H2 1501   2.082   3.537   4.673  1.2179  0.1907  1.3293
  499TIP3   OH2 1502   2.635   0.195   2.906 -0.3019 -0.2456  0.6716
  499TIP3    H1 1503   2.557   0.147   2.877  0.2218 -0.9774  0.4376
  499TIP3    H2 1504   2.649   0.261   2.838 -0.6190 -0.2118  0.6335
  500TIP3   OH2 1505   3.628   2.895   4.787 -0.3550 -0.4862 -0.3251
  500TIP3    H1 1506   3.721   2.875   4.784 -0.2771 -0.0849 -2.5967
  500TIP3    H2 1507   3.617   2.948   4.866  1.1080 -1.5089  0.6054
  501TIP3   OH2 1508   4.834   1.794   0.927 -0.1656 -0.2260  0.2243
  501TIP3    H1 1509   4.836   1.735   1.003  0.4698 -0.0079  0.3786
  501TIP3    H2 1510   4.871   1.743   0.856 -0.9153 -0.4881  0.0078
  502TIP3   OH2 1511   4.116   4.918   1.402  0.6543 -0.1356  0.1993
  502TIP3    H1 1512   4.111   4.914   1.497  1.5661 -0.4168  0.2449
  502TIP3    H2 1513   4.194   4.971   1.384  0.1695  0.3941 -0.3938
  503TIP3   OH2 1514   1.981   5.298   0.538 -1.0692 -0.3410  0.9209
  503TIP3    H1 1515   1.886   5.298   0.549 -1.1152 -2.4185  0.8693
  503TIP3    H2 1516   2.006   5.206   0.543  0.5257 -0.2788 -2.6871
  504TIP3   OH2 1517   4.598   4.753   2.257 -0.1471  0.4540  0.1561
  504TIP3    H1 1518   4.682   4.739   2.300  0.1869  2.7279  0.3755
  504TIP3    H2 1519   4.546   4.801   2.322 -1.8120 -1.2691  0.1930
  505TIP3   OH2 1520   3.975   2.889   2.284 -0.4981 -0.2069  0.1780
  505TIP3    H1 1521   3.926   2.874   2.204 -0.4542 -0.0204  0.1164
  505TIP3    H2 1522   4.015   2.975   2.272 -1.0325  0.1157  0.6796
  506TIP3   OH2 1523   1.079   5.156   2.497  0.3801  0.1614 -0.4935
  506TIP3    H1 1524   1.135   5.090   2.457 -0.3872 -1.7488  1.3893
  506TIP3    H2 1525   1.037   5.111   2.570 -1.5091  2.2861 -0.1570
  507TIP3   OH2 1526   0.279   5.628   1.271 -0.1460 -0.2522  0.1765
  507TIP3    H1 1527   0.270   5.707   1.218  1.8360  0.0862  0.2869
  507TIP3    H2 1528   0.296   5.661   1.360  2.5507 -0.7176 -0.0939
  508TIP3   OH2 1529   3.145   0.948   3.096  0.4461  0.7996  0.5208
  508TIP3    H1 1530   3.221   1.006   3.093  1.6749 -0.7744 -0.1653
  508TIP3    H2 1531   3.174   0.868   3.051 -1.7382  0.2894 -0.1098
  509TIP3   OH2 1532   2.795   1.660   0.080 -0.2585 -0.3537 -0.2610
  509TIP3    H1 1533   2.716   1.623   0.041 -0.4459  0.3152 -0.5244
  509TIP3    H2 1534   2.802   1.617   0.166  0.1051 -1.7553 -0.9610
  510TIP3   OH2 1535   3.873   1.345   1.306 -0.1789  0.3566 -0.0002
  510TIP3    H1 1536   3.928   1.331   1.229  1.2800 -0.3187  1.1213
  510TIP3    H2 1537   3.806   1.277   1.300  0.1277  0.0938 -0.4975
  511TIP3   OH2 1538   3.222   2.671   5.107 -0.0963 -0.2410  0.2337
  511TIP3    H1 1539   3.210   2.754   5.061  1.8586  1.2567  2.2171
  511TIP3    H2 1540   3.158   2.673   5.177 -0.5550 -0.7853 -0.1621
  512TIP3   OH2 1541   5.443   1.822   3.855 -0.1559  0.4031 -0.0594
  512TIP3    H1 1542   5.454   1.778   3.939  1.2560 -0.9589 -0.8886
  512TIP3    H2 1543   5.500   1.773   3.795 -1.0622  1.3758 -1.7921
  513TIP3   OH2 1544   2.772   4.115   3.657 -0.0107 -0.0930 -0.8074
  513TIP3    H1 1545   2.834   4.187   3.652  0.3273 -0.3718 -0.6840
  513TIP3    H2 1546   2.773   4.076   3.569  0.2048 -0.2775 -0.7218
  514TIP3   OH2 1547   0.790   2.523   0.753  0.2198  0.6072 -0.1177
  514TIP3    H1 1548   0.763   2.615   0.749  0.3346  0.6913  0.8323
  514TIP3    H2 1549   0.883   2.524   0.731  0.6065  0.9279  1.4409
  515TIP3   OH2 1550   4.519   1.625   4.390  0.7806  0.1988  0.5678
  515TIP3    H1 1551   4.490   1.629   4.482  0.5508 -0.6013  0.5358
  515TIP3    H2 1552   4.553   1.536   4.379 -0.1149 -0.0502 -0.3811
  516TIP3   OH2 1553   4.047   2.569   3.983 -0.5877 -0.0642 -0.1642
  516TIP3    H1 1554   3.967   2.574   3.931 -0.0540  0.0304 -0.9869
  516TIP3    H2 1555   4.062   2.475   3.995  0.7942 -0.2402 -2.6039
  517TIP3   OH2 1556   5.946   3.052   2.119 -0.2623  0.0057 -0.5170
  517TIP3    H1 1557   5.944   3.092   2.032  2.7012  1.6358  0.0228
  517TIP3    H2 1558   5.890   3.108   2.172 -0.9453 -0.1519 -1.0604
  518TIP3   OH2 1559   5.218   5.990   0.230  0.6105 -0.0728  0.2623
  518TIP3    H1 1560   5.144   5.941   0.265 -0.4809  0.4760 -1.1573
  518TIP3    H2 1561   5.293   5.932   0.239 -0.2597 -1.1770  0.4936
  519TIP3   OH2 1562   4.571   0.222   1.757  0.0552 -0.4639 -0.0024
  519TIP3    H1 1563   4.656   0.210   1.801  0.1828  1.5581  0.4220
  519TIP3    H2 1564   4.571   0.315   1.732 -1.7565 -0.6071 -0.6179
  520TIP3   OH2 1565   4.072   5.966   1.621 -0.1968 -0.3895  0.6208
  520TIP3    H1 1566   4.109   5.881   1.647  1.2162  0.2406  0.7654
  520TIP3    H2 1567   4.031   5.999   1.701  0.8812 -0.1258  1.0838
  521TIP3   OH2 1568   1.014   4.793   3.038  0.4231  0.1323  0.2765
  521TIP3    H1 1569   1.057   4.805   2.953  0.9034  2.3188  0.7845
  521TIP3    H2 1570   0.928   4.833   3.026  1.1739  2.1566  1.3320
  522TIP3   OH2 1571   5.536   3.443   4.285  0.0572  0.3563  0.1542
  522TIP3    H1 1572   5.536   3.373   4.349  0.8242  0.3675  0.1649
  522TIP3    H2 1573   5.628   3.462   4.268 -0.0691  2.6772  1.5844
  523TIP3   OH2 1574   4.722   4.387   1.910 -0.1191  0.1112 -0.1965
  523TIP3    H1 1575   4.736   4.358   2.000  1.7776  0.6300 -0.2937
  523TIP3    H2 1576   4.677   4.471   1.919  0.2007  0.2339  0.2736
  524TIP3   OH2 1577   1.190   1.685   2.414 -0.3516 -0.1908  0.5007
  524TIP3    H1 1578   1.175   1.608   2.360 -1.9831 -1.5673  2.7804
  524TIP3    H2 1579   1.285   1.691   2.422 -0.2105 -2.3045  0.7275
  525TIP3   OH2 1580   4.789   5.632   0.073 -0.3322  0.0870 -0.4637
  525TIP3    H1 1581   4.791   5.536   0.080  0.9511  0.1962  0.9900
  525TIP3    H2 1582   4.710   5.658   0.120 -1.7258 -0.3144 -2.4300
  526TIP3   OH2 1583   1.920   1.838   3.264 -0.0253  0.0052  0.1131
  526TIP3    H1 1584   1.933   1.764   3.205  1.1493  0.6973 -0.5341
  526TIP3    H2 1585   1.869   1.802   3.337  1.0289 -1.5816  0.1079
  527TIP3   OH2 1586   2.414   0.258   4.642  0.0105  0.3506 -0.1951
  527TIP3    H1 1587   2.451   0.346   4.650  2.7745 -0.6071 -1.3148
  527TIP3    H2 1588   2.371   0.243   4.726  0.5450  2.3059  0.4819
  528TIP3   OH2 1589   2.700   2.071   3.115  0.1039 -0.1779 -0.0369
  528TIP3    H1 1590   2.632   2.115   3.064  0.8396  1.1826  0.1141
  528TIP3    H2 1591   2.664   2.067   3.204  0.3801  0.9644  0.1455
  529TIP3   OH2 1592   2.843   3.117   4.596  0.0511  0.0995  0.5104
  529TIP3    H1 1593   2.822   3.069   4.675 -1.5994 -0.7085 -0.3736
  529TIP3    H2 1594   2.850   3.208   4.624  0.4285 -0.2867  1.7266
  530TIP3   OH2 1595   4.671   5.873   1.887 -0.0538 -0.1213  0.4010
  530TIP3    H1 1596   4.586   5.906   1.858  0.0513  1.0033  1.3170
  530TIP3    H2 1597   4.735   5.918   1.831 -0.0519 -1.6246 -0.9001
  531TIP3   OH2 1598   4.547   5.619   1.077 -0.4570  0.0292 -0.0288
  531TIP3    H1 1599   4.609   5.551   1.051 -0.1092  0.4419 -0.3021
  531TIP3    H2 1600   4.581   5.698   1.036 -1.2644  0.2271 -0.3233
  532TIP3   OH2 1601   5.900   0.924   0.670 -0.6265 -0.3397 -0.1416
  532TIP3    H1 1602   5.970   0.865   0.642 -0.5068 -0.4395  0.3513
  532TIP3    H2 1603   5.824   0.867   0.684 -0.4982 -0.3931  0.3789
  533TIP3   OH2 1604   5.594   3.348   0.236 -0.0663  0.8534 -0.1315
  533TIP3    H1 1605   5.573   3.438   0.263  1.7802  1.6275 -1.0192
  533TIP3    H2 1606   5.623   3.357   0.145  2.4270 -0.2296  0.4664
  534TIP3   OH2 1607   0.707   4.119   4.556  0.2864 -0.6129  0.4199
  534TIP3    H1 1608   0.743   4.032   4.535  0.0741 -0.1980 -1.9518
  534TIP3    H2 1609   0.698   4.162   4.471  1.6676  2.2817  1.5851
  535TIP3   OH2 1610   5.132   5.911   4.075 -0.6390  0.8033 -0.5795
  535TIP3    H1 1611   5.099   5.911   4.165  1.5095  0.1842  0.2696
  535TIP3    H2 1612   5.121   5.820   4.046  0.8695  0.4227 -0.0368
  536TIP3   OH2 1613   4.651   0.549   2.717 -0.1019  0.3512  0.2101
  536TIP3    H1 1614   4.634   0.530   2.809 -0.0609  1.5829  0.4922
  536TIP3    H2 1615   4.576   0.601   2.689  0.4001  0.9058 -0.1419
  537TIP3   OH2 1616   0.276   0.819   1.640 -0.2640 -0.2177  0.7068
  537TIP3    H1 1617   0.224   0.844   1.716  0.1612  1.5267  0.4615
  537TIP3    H2 1618   0.242   0.733   1.615 -0.6544 -0.6785  2.6384
  538TIP3   OH2 1619   0.575   3.761   4.329  0.6318  0.2947 -0.3109
  538TIP3    H1 1620   0.525   3.711   4.265  0.4921 -1.3683  1.0311
  538TIP3    H2 1621   0.589   3.846   4.287 -2.8801  0.6915 -0.9662
  539TIP3   OH2 1622   6.061   4.358   3.018  0.3104  0.1754 -0.2047
  539TIP3    H1 1623   6.078   4.311   2.937  0.1701  1.1627 -0.8155
  539TIP3    H2 1624   6.145   4.399   3.040 -0.2278  1.8414 -1.1294
  540TIP3   OH2 1625   4.147   2.744   3.555 -0.0465  0.5668 -0.3750
  540TIP3    H1 1626   4.115   2.835   3.554  2.2985  1.4472 -0.4553
  540TIP3    H2 1627   4.142   2.718   3.647 -1.3436  0.4937 -0.4373
  541TIP3   OH2 1628   2.011   5.361   2.257  0.3581 -0.1435 -0.2628
  541TIP3    H1 1629   2.016   5.267   2.275  0.0105 -0.0739  0.2055
  541TIP3    H2 1630   1.992   5.367   2.163  3.4379 -0.4963 -1.0104
  542TIP3   OH2 1631   2.513   2.268   3.013  0.0780 -0.4208 -0.1083
  542TIP3    H1 1632   2.531   2.353   3.054  1.9004 -1.3184  1.1495
  542TIP3    H2 1633   2.418   2.258   3.017 -0.1460  1.4453 -0.0850
  543TIP3   OH2 1634   3.993   5.005   3.411 -0.5692  0.1069 -0.4139
  543TIP3    H1 1635   3.929   4.972   3.473 -0.3176 -0.3679 -0.4102
  543TIP3    H2 1636   3.942   5.021   3.331 -0.4086 -1.7777 -0.9195
  544TIP3   OH2 1637   1.902   3.821   4.576  0.6527  0.2420 -0.0682
  544TIP3    H1 1638   1.944   3.908   4.576 -0.6695  0.8997 -0.3186
  544TIP3    H2 1639   1.872   3.809   4.666  0.6972  0.1179 -0.0706
  545TIP3   OH2 1640   5.068   4.665   0.716  0.2687 -0.5476 -0.2437
  545TIP3    H1 1641   5.149   4.615   0.730  0.4848 -0.5268 -1.3730
  545TIP3    H2 1642   5.086   4.751   0.753  0.1469 -1.0573  1.0630
  546TIP3   OH2 1643   0.735   4.552   0.621  0.2703  0.2825  0.4742
  546TIP3    H1 1644   0.830   4.552   0.605  0.4123 -1.3419  1.0754
  546TIP3    H2 1645   0.699   4.610   0.554  1.4478 -1.1593 -1.5220
  547TIP3   OH2 1646   1.246   4.094   4.632 -0.1351  0.0554 -0.2246
  547TIP3    H1 1647   1.199   4.026   4.680 -0.6149  0.9432  0.5880
  547TIP3    H2 1648   1.180   4.132   4.573 -1.0010  2.4493  2.1051
  548TIP3   OH2 1649   4.730   3.006   3.172 -0.5850  0.0366 -0.0296
  548TIP3    H1 1650   4.638   3.005   3.146 -0.6804 -0.6616  0.3258
  548TIP3    H2 1651   4.736   2.942   3.243 -0.0492  0.9032  0.7240
  549TIP3   OH2 1652   4.719   4.970   2.608 -0.5033  0.1357  0.1429
  549TIP3    H1 1653   4.739   5.051   2.655  0.2377  0.5424 -0.8239
  549TIP3    H2 1654   4.728   4.901   2.673 -1.1753  0.8230  0.9888
  550TIP3   OH2 1655   0.640   4.613   1.819  0.2596  0.2169 -0.1697
  550TIP3    H1 1656   0.713   4.671   1.798 -0.1536  0.9426  0.3740
  550TIP3    H2 1657   0.664   4.574   1.903 -0.2265  0.8914  0.2923
  551TIP3   OH2 1658   4.640   5.767   0.833 -0.1138 -0.5037  0.3369
  551TIP3    H1 1659   4.605   5.846   0.793 -1.4587 -1.2190  0.0426
  551TIP3    H2 1660   4.679   5.719   0.760  1.4331  0.2154  0.6377
  552TIP3   OH2 1661   3.533   1.735   4.863  0.4593  0.3034  0.2587
  552TIP3    H1 1662   3.596   1.802   4.891  0.6862  0.0783  0.2818
  552TIP3    H2 1663   3.454   1.755   4.914  0.4764  0.6456  0.1557
  553TIP3   OH2 1664   5.733   3.156   4.255 -0.2201 -0.1669 -0.1772
  553TIP3    H1 1665   5.652   3.132   4.301 -0.9397  0.2304 -1.2087
  553TIP3    H2 1666   5.776   3.217   4.315 -2.0676  1.8520 -0.7562
  554TIP3   OH2 1667   6.203   0.233   0.018  0.0156  0.0627 -0.0857
  554TIP3    H1 1668   6.253   0.170   0.070 -2.1820 -1.0654  0.7875
  554TIP3    H2 1669   6.267   0.298  -0.009  1.6870 -0.5501  2.1271
  555TIP3   OH2 1670   3.360   2.146   4.279  0.0912  0.2483 -0.0850
  555TIP3    H1 1671   3.366   2.082   4.207  1.1868  0.2295  0.0065
  555TIP3    H2 1672   3.420   2.216   4.254  0.0214  0.5351  0.5305
  556TIP3   OH2 1673   5.713   5.429   1.142  0.1361  0.3626 -0.3273
  556TIP3    H1 1674   5.704   5.357   1.205  0.0738  2.1801  1.8928
  556TIP3    H2 1675   5.657   5.403   1.069 -1.3144 -1.0574  1.1688
  557TIP3   OH2 1676   4.334   1.881   3.591  0.0669 -0.4293 -0.1541
  557TIP3    H1 1677   4.313   1.935   3.514 -1.3712 -0.8469 -0.0805
  557TIP3    H2 1678   4.385   1.940   3.648  0.3608  0.1685 -1.0103
  558TIP3   OH2 1679   1.993   1.646   0.691 -0.1628  0.0801  0.2207
  558TIP3    H1 1680   2.023   1.733   0.719  0.3059  0.0711 -0.2253
  558TIP3    H2 1681   1.965   1.603   0.772  0.7370  0.2122  0.6270
  559TIP3   OH2 1682   3.748   2.374   1.473 -0.3853 -0.3838 -0.3096
  559TIP3    H1 1683   3.837   2.338   1.470 -0.6223 -0.9461 -0.9423
  559TIP3    H2 1684   3.758   2.461   1.509  0.7199  0.3708 -2.2771
  560TIP3   OH2 1685   1.482   3.462   4.122  0.1140  0.1111  0.3139
  560TIP3    H1 1686   1.387   3.457   4.127  0.2212 -0.6660  2.2518
  560TIP3    H2 1687   1.499   3.540   4.069 -1.5994  0.6207  0.4632
  561TIP3   OH2 1688   1.740   2.648   2.473 -0.6989 -0.4359  0.1700
  561TIP3    H1 1689   1.710   2.564   2.509  1.0164 -1.3583 -0.4055
  561TIP3    H2 1690   1.708   2.713   2.535 -3.7591 -1.2539 -0.3632
  562TIP3   OH2 1691   4.456   2.640   2.651 -0.3789 -0.2985 -0.1600
  562TIP3    H1 1692   4.492   2.556   2.679  0.3537 -0.4128 -1.3531
  562TIP3    H2 1693   4.530   2.686   2.612 -0.4235  1.5132  1.7336
  563TIP3   OH2 1694   2.560   0.752   4.407 -0.2755 -0.6443 -0.3187
  563TIP3    H1 1695   2.477   0.782   4.444 -0.1347 -0.3099 -0.2693
  563TIP3    H2 1696   2.537   0.675   4.356 -0.5373 -0.8609  0.1232
  564TIP3   OH2 1697   2.978   1.226   3.089  0.3265 -0.9807 -0.4142
  564TIP3    H1 1698   2.947   1.146   3.134  0.6622 -0.9254 -0.0795
  564TIP3    H2 1699   2.990   1.199   2.998  0.2638 -1.2656 -0.3398
  565TIP3   OH2 1700   1.548   5.093   3.566 -0.2387 -0.0709  0.2056
  565TIP3    H1 1701   1.591   5.029   3.510 -1.1814  0.2883 -0.9827
  565TIP3    H2 1702   1.615   5.160   3.582 -0.2524  0.3812 -1.4377
  566TIP3   OH2 1703   5.985   1.190   0.612 -0.4693  0.2067  0.2605
  566TIP3    H1 1704   5.951   1.241   0.686  0.8386 -0.3423  1.2798
  566TIP3    H2 1705   5.962   1.099   0.633 -0.5199  0.0973 -0.2594
  567TIP3   OH2 1706   0.907   3.678   3.706 -0.6089 -0.4367  0.2309
  567TIP3    H1 1707   0.976   3.619   3.736 -1.2167 -1.3919 -0.1848
  567TIP3    H2 1708   0.944   3.765   3.716  0.1886 -0.8649  1.1846
  568TIP3   OH2 1709   0.214   4.784   1.629 -0.2983 -0.9702  0.1803
  568TIP3    H1 1710   0.271   4.710   1.650 -1.1386 -1.3156  1.3364
  568TIP3    H2 1711   0.161   4.796   1.707  0.2486  1.2706  0.2833
  569TIP3   OH2 1712   2.863   3.228   3.790 -0.1900  0.5314 -0.7323
  569TIP3    H1 1713   2.884   3.159   3.853  1.5159 -0.4871 -2.3139
  569TIP3    H2 1714   2.768   3.231   3.788 -0.2975  0.1048  1.3139
  570TIP3   OH2 1715   6.109   0.178   2.093 -0.5918  0.5861 -0.2364
  570TIP3    H1 1716   6.028   0.193   2.141 -0.9747 -0.1490 -0.6404
  570TIP3    H2 1717   6.138   0.266   2.066 -0.0395  1.0813  1.8371
  571TIP3   OH2 1718   4.490   3.902   5.086  0.1417 -0.2516  0.0649
  571TIP3    H1 1719   4.567   3.856   5.119 -0.0444 -0.4081  0.2795
  571TIP3    H2 1720   4.443   3.929   5.164 -1.2132 -2.1389 -0.0312
  572TIP3   OH2 1721   2.577   2.226   0.485 -0.0487  0.4510 -0.4497
  572TIP3    H1 1722   2.598   2.191   0.572  1.2932  0.6593 -0.6709
  572TIP3    H2 1723   2.484   2.206   0.473 -0.4135  0.9765  1.2917
  573TIP3   OH2 1724   4.706   4.013   2.562 -0.4625  0.2935  0.1323
  573TIP3    H1 1725   4.729   4.046   2.649  0.6992  0.1352 -0.0916
  573TIP3    H2 1726   4.729   3.920   2.565  1.2878  0.6398 -0.8628
  574TIP3   OH2 1727   5.644   5.349   5.155 -0.0608 -0.1023 -0.2433
  574TIP3    H1 1728   5.631   5.367   5.062 -1.6136  0.2154  0.0149
  574TIP3    H2 1729   5.568   5.387   5.198  0.2484 -0.9221  1.0887
  575TIP3   OH2 1730   0.837   1.211   0.923 -0.0900 -0.1072  0.0497
  575TIP3    H1 1731   0.916   1.264   0.942 -0.2604  0.3779 -0.5695
  575TIP3    H2 1732   0.801   1.250   0.844 -1.6453  0.4580  1.0042
  576TIP3   OH2 1733   2.368   1.845   4.891  0.1912 -0.3855 -0.1305
  576TIP3    H1 1734   2.383   1.777   4.958  1.3145  0.5534  0.6179
  576TIP3    H2 1735   2.429   1.822   4.821 -0.8970 -1.2982 -0.8088
  577TIP3   OH2 1736   3.080   3.769   5.075 -0.5098 -0.4965 -1.0743
  577TIP3    H1 1737   3.020   3.707   5.033 -1.6149 -1.7543  2.0912
  577TIP3    H2 1738   3.162   3.721   5.086 -0.4630 -0.4218 -1.0897
  578TIP3   OH2 1739   0.281   0.708   0.239  0.6115 -0.3970 -0.5448
  578TIP3    H1 1740   0.335   0.636   0.272  0.4287  0.2829  1.3919
  578TIP3    H2 1741   0.287   0.775   0.307  1.3688  1.7590 -2.6290
  579TIP3   OH2 1742   0.388   4.008   5.176  0.5438  0.2148  0.4142
  579TIP3    H1 1743   0.343   4.022   5.093  1.3939  0.4766 -0.0094
  579TIP3    H2 1744   0.476   3.980   5.152  0.1103 -2.1082  1.2306
  580TIP3   OH2 1745   3.706   0.176   1.163 -0.0138 -0.1341 -0.2926
  580TIP3    H1 1746   3.680   0.136   1.246 -0.1877  1.0018  0.2167
  580TIP3    H2 1747   3.713   0.270   1.182  0.0416  0.1353 -1.5313
  581TIP3   OH2 1748   0.801   2.353   1.538 -1.0008  0.5803  0.0062
  581TIP3    H1 1749   0.794   2.380   1.447  0.6971  0.9949 -0.0288
  581TIP3    H2 1750   0.890   2.321   1.547 -1.6522 -1.0307  1.1295
  582TIP3   OH2 1751   5.212   2.919   3.429 -0.3411 -0.4814  0.2557
  582TIP3    H1 1752   5.264   2.855   3.478  1.2459  0.2655 -0.3960
  582TIP3    H2 1753   5.248   2.917   3.340  0.8323  2.3764  0.5533
  583TIP3   OH2 1754   2.485   0.134   5.098 -0.6774  0.3418 -0.1090
  583TIP3    H1 1755   2.546   0.155   5.027  0.0123  0.7923  0.5945
  583TIP3    H2 1756   2.458   0.044   5.081  0.5673 -0.0400 -0.1698
  584TIP3   OH2 1757   5.502   4.387   0.317  0.1782 -0.2082 -0.5392
  584TIP3    H1 1758   5.491   4.436   0.399  0.2276 -0.8588 -0.1327
  584TIP3    H2 1759   5.513   4.454   0.250 -0.8734  0.3648 -0.1658
  585TIP3   OH2 1760   1.972   3.893   2.397 -0.2841  0.2681  0.5151
  585TIP3    H1 1761   2.057   3.875   2.436 -0.2575 -0.9060 -0.0462
  585TIP3    H2 1762   1.992   3.937   2.314 -0.1864 -0.6231  0.0581
  586TIP3   OH2 1763   5.161   4.921   4.563  0.4004  0.5418 -0.2613
  586TIP3    H1 1764   5.253   4.905   4.539 -0.0904 -0.3597 -1.6791
  586TIP3    H2 1765   5.111   4.880   4.492 -1.1155  0.2449  0.9401
  587TIP3   OH2 1766   4.571   3.153   1.226 -0.5042  0.2074 -0.0175
  587TIP3    H1 1767   4.493   3.182   1.178 -1.1436 -0.4244  0.6229
  587TIP3    H2 1768   4.625   3.109   1.160 -0.9023  0.2444 -0.3691
  588TIP3   OH2 1769   0.551   2.691   5.084  0.2308  0.0139  0.4143
  588TIP3    H1 1770   0.551   2.747   5.162  0.7720 -1.0875  1.2251
  588TIP3    H2 1771   0.639   2.702   5.047 -0.2108  0.9917 -0.4103
  589TIP3   OH2 1772   6.279   5.395   0.304  0.1197  0.3368  0.4558
  589TIP3    H1 1773   6.250   5.310   0.270  0.5621 -0.1862  1.3135
  589TIP3    H2 1774   6.348   5.372   0.367  0.0762  1.3190  0.8777
  590TIP3   OH2 1775   4.443   1.858   1.688 -0.0922 -0.0260  0.5833
  590TIP3    H1 1776   4.403   1.911   1.619  0.3691  1.9047  1.7181
  590TIP3    H2 1777   4.370   1.838   1.747  0.0734  1.0739  1.1807
  591TIP3   OH2 1778   1.926   1.637   1.774 -0.1070 -0.6546 -0.1438
  591TIP3    H1 1779   1.844   1.592   1.794  0.8941 -2.7585 -0.4955
  591TIP3    H2 1780   1.900   1.714   1.724 -2.1002  0.6707  2.6651
  592TIP3   OH2 1781   0.355   0.832   2.708  0.2441 -0.1648  0.1773
  592TIP3    H1 1782   0.366   0.918   2.750 -1.7292  0.4957 -0.5561
  592TIP3    H2 1783   0.303   0.781   2.770 -0.1071 -0.2181 -0.1567
  593TIP3   OH2 1784   0.559   2.625   3.983  0.0862  0.2590 -0.4120
  593TIP3    H1 1785   0.652   2.621   3.961  0.0593 -0.3284 -0.4362
  593TIP3    H2 1786   0.514   2.596   3.904 -0.1157  0.4804 -0.3802
  594TIP3   OH2 1787   4.987   2.027   0.089 -1.1029  0.3867 -0.0284
  594TIP3    H1 1788   4.943   2.050   0.172 -1.9874  0.6866 -0.5632
  594TIP3    H2 1789   4.976   1.932   0.082  0.2531  0.1256  0.8924
  595TIP3   OH2 1790   3.394   4.430   2.093  0.1216 -0.1715  1.2117
  595TIP3    H1 1791   3.431   4.345   2.115 -0.4482 -0.1481  2.3309
  595TIP3    H2 1792   3.438   4.491   2.152  1.1901  0.4705 -0.1996
  596TIP3   OH2 1793   4.958   3.631   5.145  0.5658  0.2427 -0.4469
  596TIP3    H1 1794   4.956   3.544   5.186  0.5445  0.6863  0.5065
  596TIP3    H2 1795   4.872   3.639   5.103 -0.0717  0.4499  0.8482
  597TIP3   OH2 1796   2.774   0.468   0.753  0.2634  0.7709  0.2782
  597TIP3    H1 1797   2.714   0.501   0.686 -0.8819 -1.3725  0.1825
  597TIP3    H2 1798   2.852   0.440   0.704  0.0963  0.7255  0.0368
  598TIP3   OH2 1799   4.404   3.362   4.140  0.2834 -0.3600  0.1732
  598TIP3    H1 1800   4.492   3.325   4.132  0.4000 -0.0119 -0.1601
  598TIP3    H2 1801   4.417   3.451   4.172  0.2493  0.6434 -2.3987
  599TIP3   OH2 1802   1.100   1.244   4.550 -0.1189  0.7846  0.0303
  599TIP3    H1 1803   1.031   1.302   4.582  0.9132  2.9531 -1.4185
  599TIP3    H2 1804   1.179   1.273   4.596  0.4269  0.5895 -0.7652
  600TIP3   OH2 1805   6.276   2.721   3.660  0.0704  0.0305  0.4839
  600TIP3    H1 1806   6.272   2.630   3.629  1.1870 -0.2643  1.1340
  600TIP3    H2 1807   6.364   2.729   3.697  0.4887  1.7750 -0.7912
  601TIP3   OH2 1808   0.803   1.358   0.244 -0.3102 -0.3341  0.2633
  601TIP3    H1 1809   0.864   1.287   0.263  1.5059  1.1001  0.0828
  601TIP3    H2 1810   0.831   1.391   0.159 -1.6145  0.1270 -0.0092
  602TIP3   OH2 1811   2.265   1.617   3.201 -0.1292  0.1473  0.0089
  602TIP3    H1 1812   2.293   1.623   3.110  0.0372 -2.1148 -0.1265
  602TIP3    H2 1813   2.172   1.597   3.196 -0.0736 -0.1905  0.3445
  603TIP3   OH2 1814   1.797   0.129   2.100 -0.4672 -0.2943  0.0230
  603TIP3    H1 1815   1.832   0.196   2.159  0.0938 -0.5213 -0.0458
  603TIP3    H2 1816   1.705   0.151   2.091 -0.2720  0.5155 -0.0622
  604TIP3   OH2 1817   4.303   2.019   1.516 -0.5264  0.0051 -0.0119
  604TIP3    H1 1818   4.209   2.033   1.524 -0.3856  1.3469 -0.5038
  604TIP3    H2 1819   4.326   2.056   1.430  0.4746 -0.1418  0.1789
  605TIP3   OH2 1820   3.014   3.536   1.498 -0.6323 -0.0461  0.6783
  605TIP3    H1 1821   3.005   3.466   1.563 -1.0165 -1.0292 -0.3849
  605TIP3    H2 1822   3.100   3.521   1.458 -0.8186 -0.0823  0.2781
  606TIP3   OH2 1823   4.284   2.959   5.184 -0.4115 -0.2837 -0.3019
  606TIP3    H1 1824   4.246   2.893   5.242 -0.3312 -0.9027 -0.9453
  606TIP3    H2 1825   4.347   2.911   5.131  1.7204  0.7749  1.0871
  607TIP3   OH2 1826   0.447   3.222   2.416  0.5385 -0.6699 -0.2321
  607TIP3    H1 1827   0.443   3.207   2.321  0.1202 -1.9479 -0.0247
  607TIP3    H2 1828   0.357   3.240   2.441  0.7154  0.1139 -0.1327
  608TIP3   OH2 1829   5.936   1.499   2.820  0.3710  0.4503  0.6861
  608TIP3    H1 1830   5.972   1.475   2.735 -0.4074 -0.8182  0.7040
  608TIP3    H2 1831   5.985   1.578   2.845  1.2765  0.2820 -0.4854
  609TIP3   OH2 1832   6.131   2.466   2.196  0.1896 -0.1412 -0.4620
  609TIP3    H1 1833   6.219   2.448   2.229  0.1191 -0.4443 -0.4362
  609TIP3    H2 1834   6.076   2.396   2.233 -0.5667  1.4551  1.5691
  610TIP3   OH2 1835   5.516   2.164   1.005  0.2843 -0.2231  0.1110
  610TIP3    H1 1836   5.551   2.077   1.023 -1.3762 -0.9677 -0.0605
  610TIP3    H2 1837   5.430   2.165   1.048 -0.2326  0.8977 -0.8815
  611TIP3   OH2 1838   3.029   5.329   4.758  0.1590  0.4448 -0.6836
  611TIP3    H1 1839   2.987   5.257   4.805  1.4067  0.1636  0.0564
  611TIP3    H2 1840   2.986   5.408   4.793 -2.4914  0.0845 -2.7966
  612TIP3   OH2 1841   1.337   4.674   2.876 -0.1166  0.0106 -0.1468
  612TIP3    H1 1842   1.281   4.610   2.834 -1.1644  1.0214 -0.3384
  612TIP3    H2 1843   1.295   4.758   2.860  1.0464  0.7311  0.3712
  613TIP3   OH2 1844   5.559   2.069   4.347  0.1054  0.3107 -0.2810
  613TIP3    H1 1845   5.548   2.045   4.255  1.1149 -3.0464  0.3091
  613TIP3    H2 1846   5.476   2.046   4.388  0.6590 -1.2403  0.0729
  614TIP3   OH2 1847   2.876   4.730   0.853  0.3147  0.3103  0.0969
  614TIP3    H1 1848   2.793   4.777   0.852  0.4867  0.6289  0.6485
  614TIP3    H2 1849   2.860   4.652   0.800 -0.1300  0.7155 -0.3725
  615TIP3   OH2 1850   4.468   0.735   2.655 -0.0144  0.2996  0.2049
  615TIP3    H1 1851   4.389   0.703   2.611 -0.3126  0.6761  0.4533
  615TIP3    H2 1852   4.521   0.774   2.585 -0.8281  1.5771  0.2609
  616TIP3   OH2 1853   1.873   1.341   0.759  0.3202 -0.6402  0.2729
  616TIP3    H1 1854   1.795   1.382   0.796  0.7732  0.2179  0.3013
  616TIP3    H2 1855   1.840   1.288   0.686 -0.2629 -0.0825  0.1215
  617TIP3   OH2 1856   5.346   0.603   4.345  0.1782  0.0186 -0.1454
  617TIP3    H1 1857   5.344   0.514   4.311 -2.0317  0.5282 -1.6313
  617TIP3    H2 1858   5.256   0.634   4.334  1.2411  3.0306 -1.4621
  618TIP3   OH2 1859   2.075   3.897   5.117  0.2702 -0.1528 -0.0252
  618TIP3    H1 1860   2.163   3.864   5.135 -0.2128 -1.7006 -0.3421
  618TIP3    H2 1861   2.017   3.835   5.163 -0.6803  0.3184 -0.5712
  619TIP3   OH2 1862   2.541   3.461   0.899  0.4127  0.3829  0.5282
  619TIP3    H1 1863   2.627   3.460   0.856 -0.0070  0.5797 -0.3506
  619TIP3    H2 1864   2.484   3.411   0.840 -0.0024 -0.0269  1.2661
  620TIP3   OH2 1865   5.315   3.008   4.022  0.3191  0.3111  0.0243
  620TIP3    H1 1866   5.234   3.014   3.971  0.0476 -0.9056  0.2728
  620TIP3    H2 1867   5.385   3.010   3.957  0.0070 -0.4287 -0.3490
  621TIP3   OH2 1868   3.802   1.738   2.692 -0.5979  0.1030 -0.3417
  621TIP3    H1 1869   3.822   1.650   2.723 -0.9980 -0.5263 -1.7594
  621TIP3    H2 1870   3.737   1.725   2.623  0.4230  1.3557 -1.6143
  622TIP3   OH2 1871   0.428   3.188   4.782  0.3850 -0.2007  0.0795
  622TIP3    H1 1872   0.429   3.151   4.694 -0.6695 -0.8684  0.3327
  622TIP3    H2 1873   0.399   3.279   4.769  1.9176  0.2553 -0.4238
  623TIP3   OH2 1874   4.301   5.209   1.761  0.0743  0.5750 -0.4039
  623TIP3    H1 1875   4.295   5.250   1.847  1.5490  0.8405 -0.4052
  623TIP3    H2 1876   4.360   5.135   1.773 -1.0088 -0.3912 -0.8452
  624TIP3   OH2 1877   6.017   0.889   2.264 -0.1630 -0.0974  0.3217
  624TIP3    H1 1878   6.041   0.803   2.229 -0.4207  0.1670 -0.5355
  624TIP3    H2 1879   6.094   0.943   2.251 -0.4925  0.1860 -0.4792
  625TIP3   OH2 1880   4.599   0.364   3.380  0.1242  0.7559 -0.3565
  625TIP3    H1 1881   4.664   0.431   3.359  0.0353  1.4126  1.3334
  625TIP3    H2 1882   4.600   0.305   3.304  1.3523  1.7730 -1.1662
  626TIP3   OH2 1883   2.995   5.525   2.386  0.4313  0.2017  0.2816
  626TIP3    H1 1884   2.952   5.602   2.348 -0.4560 -0.7601 -0.7186
  626TIP3    H2 1885   3.032   5.557   2.469  3.0481  2.5491 -1.5973
  627TIP3   OH2 1886   0.933   0.074   1.978 -0.0930 -0.1304 -0.3825
  627TIP3    H1 1887   0.881   0.137   1.929  0.1298  0.2084 -0.1889
  627TIP3    H2 1888   1.010   0.124   2.007  0.6896 -0.7907 -1.2602
  628TIP3   OH2 1889   5.078   0.648   4.314  0.1883  0.3863  0.3917
  628TIP3    H1 1890   5.041   0.584   4.375  0.4466 -1.3895 -1.2453
  628TIP3    H2 1891   5.002   0.684   4.268  0.2298 -1.0304 -0.8332
  629TIP3   OH2 1892   1.989   4.841   0.988 -0.1509  0.3384  0.1613
  629TIP3    H1 1893   2.077   4.808   0.973 -0.7227 -0.6426 -1.2602
  629TIP3    H2 1894   1.967   4.888   0.908 -0.4825  1.6338  0.9812
  630TIP3   OH2 1895   3.533   5.847   1.890  0.3630 -0.3860  0.7142
  630TIP3    H1 1896   3.569   5.783   1.951 -0.2829 -0.7208  0.7604
  630TIP3    H2 1897   3.543   5.807   1.803  0.0863 -0.4893  0.7292
  631TIP3   OH2 1898   5.350   3.966   3.763 -0.3130 -0.6078 -0.2399
  631TIP3    H1 1899   5.271   3.972   3.818 -0.5170 -1.1618 -0.4577
  631TIP3    H2 1900   5.327   4.013   3.683 -0.4242 -0.7612 -0.2995
  632TIP3   OH2 1901   5.602   3.110   0.447  0.2716 -0.4734 -0.2503
  632TIP3    H1 1902   5.536   3.077   0.509 -0.6094  0.9829 -0.3625
  632TIP3    H2 1903   5.624   3.197   0.480  2.2374 -0.9722 -0.1791
  633TIP3   OH2 1904   3.425   4.921   1.586  0.0093  0.4001 -0.3639
  633TIP3    H1 1905   3.402   4.839   1.543 -0.7179 -0.2901  1.2496
  633TIP3    H2 1906   3.368   4.986   1.545  1.0955  0.2861 -2.1647
  634TIP3   OH2 1907   4.731   4.383   3.257 -0.0708  0.3767  0.2096
  634TIP3    H1 1908   4.724   4.318   3.327  0.1860 -1.6696 -1.5639
  634TIP3    H2 1909   4.824   4.404   3.253  0.1604 -0.7258 -0.5305
  635TIP3   OH2 1910   0.064   1.297   3.423 -0.4696  0.1463 -0.0346
  635TIP3    H1 1911   0.019   1.346   3.491 -3.0906 -1.1980 -0.6975
  635TIP3    H2 1912   0.057   1.205   3.451  0.9131 -0.2081 -0.7456
  636TIP3   OH2 1913   5.240   4.490   5.046 -1.0736 -0.5623  0.3870
  636TIP3    H1 1914   5.298   4.477   5.121 -0.3590  0.0821 -0.0372
  636TIP3    H2 1915   5.192   4.570   5.066 -1.7361 -1.0288  0.6810
  637TIP3   OH2 1916   5.343   1.400   4.677 -0.5843  0.3586  0.4349
  637TIP3    H1 1917   5.328   1.460   4.751  1.8837  1.2415  0.3520
  637TIP3    H2 1918   5.264   1.405   4.625 -2.7884 -0.9413  3.3892
  638TIP3   OH2 1919   3.498   3.630   3.359 -0.2107  0.3519 -0.3734
  638TIP3    H1 1920   3.527   3.685   3.432  0.4615  1.3043 -1.3263
  638TIP3    H2 1921   3.579   3.593   3.324 -0.6649 -1.4377  0.3607
  639TIP3   OH2 1922   1.985   3.153   1.708  0.1565  0.4518 -0.1426
  639TIP3    H1 1923   2.014   3.176   1.620 -1.4714 -1.0517 -1.1338
  639TIP3    H2 1924   2.062   3.112   1.748  0.5200 -0.1594 -1.4027
  640TIP3   OH2 1925   2.211   1.476   0.173 -0.1862  0.3650 -0.0194
  640TIP3    H1 1926   2.128   1.522   0.157 -0.7137 -0.6814 -0.3752
  640TIP3    H2 1927   2.200   1.391   0.130  0.6677 -0.2031  0.8472
  641TIP3   OH2 1928   4.661   0.163   4.854 -0.4714  0.1187  0.2904
  641TIP3    H1 1929   4.719   0.168   4.778 -0.7960  0.2254  0.0470
  641TIP3    H2 1930   4.712   0.201   4.926 -0.4385  0.7301 -0.0476
  642TIP3   OH2 1931   2.940   2.980   1.507 -0.2639  0.3400  0.2352
  642TIP3    H1 1932   2.903   3.068   1.508  1.3082  1.0531  2.1783
  642TIP3    H2 1933   2.864   2.922   1.504 -1.3301  1.7297 -0.9762
  643TIP3   OH2 1934   5.090   0.714   3.852  0.3587  0.5607  0.5174
  643TIP3    H1 1935   5.094   0.738   3.759  0.3959  0.0592  0.3848
  643TIP3    H2 1936   5.181   0.699   3.877  0.4490  1.7006  0.9129
  644TIP3   OH2 1937   4.875   4.731   3.284 -0.3900  0.4694 -0.0502
  644TIP3    H1 1938   4.953   4.771   3.323 -0.4844  0.2882  0.3302
  644TIP3    H2 1939   4.815   4.720   3.358 -1.0416  1.2304 -0.4472
  645TIP3   OH2 1940   0.600   1.218   4.838  0.5143 -0.0381 -0.4346
  645TIP3    H1 1941   0.524   1.196   4.891  1.6631  2.0089  2.2839
  645TIP3    H2 1942   0.579   1.304   4.800  0.7802 -0.2853 -1.1626
  646TIP3   OH2 1943   2.235   1.297   4.067 -1.0458 -0.1022  0.0769
  646TIP3    H1 1944   2.226   1.345   4.149 -1.9876 -1.0357  0.5595
  646TIP3    H2 1945   2.183   1.218   4.081  0.3598 -1.2115 -0.7139
  647TIP3   OH2 1946   6.206   2.284   0.127 -0.2287 -0.1805 -0.5602
  647TIP3    H1 1947   6.168   2.284   0.038 -0.4426 -0.3000 -0.4690
  647TIP3    H2 1948   6.144   2.335   0.179 -0.7087 -1.0810 -0.2206
  648TIP3   OH2 1949   5.336   2.026   4.511 -0.7179 -0.2437  0.2351
  648TIP3    H1 1950   5.349   2.086   4.585  0.5616  0.3173 -0.4207
  648TIP3    H2 1951   5.320   1.941   4.552 -3.0339  0.5722  1.2023
  649TIP3   OH2 1952   5.113   4.399   2.196 -0.3080  0.2514 -0.0727
  649TIP3    H1 1953   5.054   4.326   2.175 -0.4418 -0.0741  1.2791
  649TIP3    H2 1954   5.063   4.453   2.258 -0.3631  1.7411 -1.3645
  650TIP3   OH2 1955   0.696   2.308   2.379  0.1081  0.0229  0.0077
  650TIP3    H1 1956   0.662   2.397   2.364  0.5099  0.2206  0.2474
  650TIP3    H2 1957   0.695   2.267   2.293  2.0032  0.9979 -0.5236
  651TIP3   OH2 1958   2.148   4.092   0.333  0.9900 -0.4926 -0.9581
  651TIP3    H1 1959   2.178   4.115   0.421 -0.0891 -2.0868 -0.1399
  651TIP3    H2 1960   2.063   4.050   0.346  0.7614 -0.6747 -2.7774
  652TIP3   OH2 1961   3.840   5.867   3.659 -0.2521 -0.1042  0.2852
  652TIP3    H1 1962   3.895   5.942   3.637  0.1369 -1.0136 -2.1576
  652TIP3    H2 1963   3.874   5.835   3.743  1.9247  0.3241 -0.3882
  653TIP3   OH2 1964   1.808   2.533   1.515 -0.0884  0.3334  0.1905
  653TIP3    H1 1965   1.751   2.485   1.455  0.2668  1.3125 -0.9576
  653TIP3    H2 1966   1.897   2.510   1.488  0.0881 -0.1304  1.1107
  654TIP3   OH2 1967   3.786   3.938   4.730  0.1045 -0.3250  0.0862
  654TIP3    H1 1968   3.849   3.905   4.794 -0.7572 -2.0814  0.1013
  654TIP3    H2 1969   3.706   3.953   4.780 -0.1010 -0.1290 -0.2968
  655TIP3   OH2 1970   5.346   3.984   1.476 -0.0097 -0.2999  0.1716
  655TIP3    H1 1971   5.324   4.045   1.405  1.7235 -0.9827 -1.0424
  655TIP3    H2 1972   5.427   4.019   1.513 -0.2685 -0.5976  1.0313
  656TIP3   OH2 1973   1.435   0.028   1.430  0.8032 -0.0072 -0.5102
  656TIP3    H1 1974   1.401   0.080   1.357  0.6253  0.5833 -0.0185
  656TIP3    H2 1975   1.517   0.072   1.455  0.2924  0.4928  0.3727
  657TIP3   OH2 1976   1.925   4.765   0.042 -0.0474  0.1995 -0.2424
  657TIP3    H1 1977   1.902   4.836   0.103  2.2468  0.1832  0.7302
  657TIP3    H2 1978   1.891   4.795  -0.042 -0.0841  1.9701  0.3467
  658TIP3   OH2 1979   5.999   0.681   0.279  0.2280 -0.2791  0.0138
  658TIP3    H1 1980   6.069   0.616   0.276  0.4944  0.0296 -0.6741
  658TIP3    H2 1981   5.985   0.698   0.372 -0.7377 -2.2603  0.2869
  659TIP3   OH2 1982   5.287   4.976   3.985 -0.3716 -0.3280  0.0668
  659TIP3    H1 1983   5.200   4.940   3.972  0.2605 -2.0975  0.4224
  659TIP3    H2 1984   5.335   4.907   4.031  1.3486  0.4171 -0.5248
  660TIP3   OH2 1985   0.353   4.248   2.393 -0.3834 -0.2388 -0.1222
  660TIP3    H1 1986   0.407   4.237   2.315 -1.7537  1.1775 -1.3219
  660TIP3    H2 1987   0.337   4.342   2.398 -0.2366 -0.2802  1.9549
  661TIP3   OH2 1988   2.674   2.627   3.110  0.0070 -0.5267  0.0157
  661TIP3    H1 1989   2.745   2.564   3.120 -0.2857 -0.6210  1.8130
  661TIP3    H2 1990   2.713   2.711   3.135  0.5894  0.2187 -3.0244
  662TIP3   OH2 1991   4.828   5.529   3.990  0.0679 -0.0112  0.1753
  662TIP3    H1 1992   4.900   5.535   4.053 -0.8337 -0.7085  1.3008
  662TIP3    H2 1993   4.784   5.613   3.996 -0.0396 -0.0888  0.5194
  663TIP3   OH2 1994   3.349   0.659   4.250 -0.6334 -0.2644  0.0053
  663TIP3    H1 1995   3.261   0.662   4.288 -0.9056  0.3048 -0.6577
  663TIP3    H2 1996   3.357   0.570   4.217 -0.2201 -0.9250  1.7652
  664TIP3   OH2 1997   1.755   5.826   4.032 -0.0402 -0.7899  0.0779
  664TIP3    H1 1998   1.779   5.853   3.944  0.8787  0.3300  0.6456
  664TIP3    H2 1999   1.782   5.735   4.038  1.5248 -0.3646 -0.2396
  665TIP3   OH2 2000   2.641   2.990   2.420  0.4921  0.3066  0.4093
  665TIP3    H1 2001   2.622   2.918   2.480  1.5743  0.2316  0.6862
  665TIP3    H2 2002   2.693   2.950   2.350 -0.0280  0.5620 -0.1289
  666TIP3   OH2 2003   3.927   5.617   3.333  0.0817 -0.5538  0.6838
  666TIP3    H1 2004   3.890   5.704   3.319 -0.3712 -0.8244  0.1168
  666TIP3    H2 2005   3.856   5.557   3.312  1.0071 -1.1083 -1.1016
  667TIP3   OH2 2006   3.350   5.739   4.406 -0.7895  0.1511 -0.0211
  667TIP3    H1 2007   3.419   5.785   4.358 -0.3010  0.2362  0.7421
  667TIP3    H2 2008   3.269   5.783   4.379 -0.4023  0.9782  0.1144
  668TIP3   OH2 2009   4.621   0.804   4.002  0.0788  0.0234 -0.2340
  668TIP3    H1 2010   4.685   0.835   4.065  2.4115 -1.3891 -1.7534
  668TIP3    H2 2011   4.604   0.713   4.028 -1.4509  0.3985  0.2032
  669TIP3   OH2 2012   1.878   5.935   1.279  0.0630  0.1271 -0.3821
  669TIP3    H1 2013   1.876   5.965   1.188 -0.5711 -2.6807 -1.3869
  669TIP3    H2 2014   1.787   5.937   1.307  0.2294  0.7438  0.1511
  670TIP3   OH2 2015   2.028   5.256   1.009  0.5378 -0.6482 -0.5036
  670TIP3    H1 2016   2.121   5.241   1.026  0.4525  0.3441  1.0883
  670TIP3    H2 2017   2.024   5.345   0.974  0.2221 -0.8763 -1.0571
  671TIP3   OH2 2018   0.412   4.622   1.658 -0.0678 -0.1795 -0.2451
  671TIP3    H1 2019   0.428   4.549   1.598 -2.7066 -1.0663  0.0033
  671TIP3    H2 2020   0.480   4.613   1.725  0.2145 -1.8895 -0.7083
  672TIP3   OH2 2021   0.650   5.035   0.273  0.0418 -0.0883 -0.1532
  672TIP3    H1 2022   0.585   4.999   0.213 -0.3875  1.9500 -0.9876
  672TIP3    H2 2023   0.623   5.126   0.286 -0.0426 -0.4891  3.3717
  673TIP3   OH2 2024   1.719   1.010   1.467  0.5238  0.0212  0.0148
  673TIP3    H1 2025   1.765   0.944   1.415 -1.8206 -0.0882 -2.1042
  673TIP3    H2 2026   1.628   0.981   1.469 -0.2697  2.3030  0.5021
  674TIP3   OH2 2027   4.510   1.124   4.670  0.3584  0.3911 -0.3140
  674TIP3    H1 2028   4.490   1.051   4.728 -1.7357 -0.5922 -2.1105
  674TIP3    H2 2029   4.589   1.097   4.624 -0.9244 -1.3121 -1.6682
  675TIP3   OH2 2030   0.624   2.098   5.193 -0.0186 -0.1541  0.4743
  675TIP3    H1 2031   0.663   2.010   5.186  2.4677  0.9014  0.0469
  675TIP3    H2 2032   0.596   2.119   5.104 -0.1378 -0.2890  0.4785
  676TIP3   OH2 2033   0.988   5.729   2.670  0.0082  0.1405  0.0689
  676TIP3    H1 2034   0.908   5.677   2.670  0.0510  0.0281 -1.4586
  676TIP3    H2 2035   1.056   5.669   2.699 -0.2140 -0.2111 -0.1358
  677TIP3   OH2 2036   0.835   3.254   1.982  0.2242  0.0347 -0.1525
  677TIP3    H1 2037   0.772   3.190   2.015  0.4869  0.5903  1.5113
  677TIP3    H2 2038   0.888   3.278   2.058  0.1900  2.1713 -0.7353
  678TIP3   OH2 2039   6.281   4.690   3.465 -0.1606 -0.1883 -0.1238
  678TIP3    H1 2040   6.222   4.730   3.402 -0.1992 -1.7198 -1.1113
  678TIP3    H2 2041   6.253   4.598   3.470  1.4974 -0.7302  0.1175
  679TIP3   OH2 2042   2.620   3.770   3.297 -0.5798 -0.4721 -0.3198
  679TIP3    H1 2043   2.671   3.851   3.289 -0.7140 -0.3204  0.3124
  679TIP3    H2 2044   2.686   3.703   3.316 -0.3673 -0.6751 -1.6602
  680TIP3   OH2 2045   3.579   4.326   0.365 -0.2596 -0.1246 -0.2856
  680TIP3    H1 2046   3.662   4.282   0.384  0.2126  0.2741 -1.3603
  680TIP3    H2 2047   3.599   4.387   0.294 -1.0343  1.3996  0.7375
  681TIP3   OH2 2048   0.907   1.748   0.196 -0.1907  0.6302  0.3030
  681TIP3    H1 2049   0.889   1.821   0.137  0.1975  1.1041  0.7652
  681TIP3    H2 2050   0.850   1.763   0.271  0.0158  0.5508  0.4770
  682TIP3   OH2 2051   5.095   2.578   2.605  0.1430  0.3584 -0.3170
  682TIP3    H1 2052   5.159   2.508   2.615 -0.1885  0.0431 -0.3995
  682TIP3    H2 2053   5.139   2.656   2.641 -0.1910 -0.2703  1.5451
  683TIP3   OH2 2054   2.848   2.470   0.815 -0.5158  0.1251  0.0291
  683TIP3    H1 2055   2.824   2.476   0.908  1.9429  0.6260  0.7011
  683TIP3    H2 2056   2.848   2.561   0.785  0.6805  0.1642  0.1154
  684TIP3   OH2 2057   6.016   5.800   4.910  0.0782  0.1683  0.1572
  684TIP3    H1 2058   5.969   5.880   4.887  1.1794  0.6561 -0.4481
  684TIP3    H2 2059   5.950   5.731   4.900 -0.4342  0.7923 -0.9688
  685TIP3   OH2 2060   3.326   4.145   0.375  0.0248  0.0012 -0.1677
  685TIP3    H1 2061   3.409   4.191   0.361  0.5266 -1.1611 -1.1960
  685TIP3    H2 2062   3.296   4.177   0.460  0.7113  1.6513 -0.4931
  686TIP3   OH2 2063   4.073   4.967   3.757 -0.3234  0.2314  0.1806
  686TIP3    H1 2064   4.103   4.979   3.667 -1.8597 -0.2277 -0.4178
  686TIP3    H2 2065   4.041   5.053   3.783  0.2576  0.3997  0.3460
  687TIP3   OH2 2066   1.686   2.255   1.739  0.5717  0.2387  0.1271
  687TIP3    H1 2067   1.653   2.300   1.817 -0.6524 -0.7359  0.2112
  687TIP3    H2 2068   1.745   2.318   1.698 -1.1793  2.0064  0.1456
  688TIP3   OH2 2069   0.359   1.406   4.822 -0.4336  0.0625  0.0731
  688TIP3    H1 2070   0.329   1.336   4.879 -2.1819 -0.2142 -1.1156
  688TIP3    H2 2071   0.279   1.451   4.794  0.6075  2.6525  0.9041
  689TIP3   OH2 2072   1.897   3.379   0.610  0.7851  0.3501  0.0834
  689TIP3    H1 2073   1.955   3.329   0.667  0.5081  0.1621  0.2048
  689TIP3    H2 2074   1.938   3.377   0.524  0.3460 -0.8207 -0.1132
  690TIP3   OH2 2075   0.897   5.211   2.901 -0.1247  0.0053 -0.2499
  690TIP3    H1 2076   0.883   5.165   2.984  1.3364  0.8920  0.5430
  690TIP3    H2 2077   0.958   5.282   2.923 -0.6375  1.0064 -1.8575
  691TIP3   OH2 2078   5.503   5.992   3.728 -0.5985  0.3904 -0.2334
  691TIP3    H1 2079   5.408   5.992   3.739 -0.8153 -2.0889 -1.6350
  691TIP3    H2 2080   5.534   5.921   3.784 -0.0067 -1.1907 -2.4340
  692TIP3   OH2 2081   2.457   5.032   4.421 -0.3914  0.3092 -0.1117
  692TIP3    H1 2082   2.465   4.946   4.381 -1.3985 -0.0274  0.3667
  692TIP3    H2 2083   2.366   5.058   4.405 -0.1938  1.1297  0.0412
  693TIP3   OH2 2084   4.482   1.177   5.010 -0.2999  0.7366  0.4329
  693TIP3    H1 2085   4.457   1.263   5.044 -1.4968  0.1148  1.2085
  693TIP3    H2 2086   4.399   1.131   4.998  0.3574 -1.1355  2.3158
  694TIP3   OH2 2087   0.085   4.550   4.690  0.0236  1.0816 -0.4331
  694TIP3    H1 2088   0.074   4.618   4.622 -2.4365 -1.3363 -2.7162
  694TIP3    H2 2089   0.146   4.488   4.651 -1.2052 -0.2033 -0.3668
  695TIP3   OH2 2090   4.786   0.555   2.294 -0.7082 -0.1262  0.5839
  695TIP3    H1 2091   4.728   0.582   2.222  0.3845  2.2887  0.5154
  695TIP3    H2 2092   4.758   0.609   2.368  2.0784  2.0099  0.2491
  696TIP3   OH2 2093   0.402   4.178   3.656 -0.0202  0.2950 -0.4208
  696TIP3    H1 2094   0.491   4.212   3.659  0.1254 -0.1242  0.1813
  696TIP3    H2 2095   0.352   4.239   3.711  0.1114 -0.0612  0.1098
  697TIP3   OH2 2096   0.197   1.031   3.658 -0.6378 -0.2192 -0.0679
  697TIP3    H1 2097   0.105   1.013   3.644 -0.1950 -2.5778 -0.3640
  697TIP3    H2 2098   0.237   1.024   3.572 -0.0875  0.1432  0.1508
  698TIP3   OH2 2099   5.835   2.871   4.764 -0.6130  0.6106  0.5711
  698TIP3    H1 2100   5.915   2.895   4.811  1.0076 -0.4398 -1.3996
  698TIP3    H2 2101   5.802   2.794   4.811  0.2399  0.3435  0.7653
  699TIP3   OH2 2102   1.482   1.927   3.350 -0.3884  0.6043  0.1975
  699TIP3    H1 2103   1.548   1.922   3.419 -0.1876  2.1852  0.1555
  699TIP3    H2 2104   1.403   1.957   3.395 -0.0357  2.4923 -0.3395
  700TIP3   OH2 2105   1.017   3.805   1.454  0.5141  0.1394  0.4415
  700TIP3    H1 2106   0.989   3.869   1.388 -0.5788 -1.1315 -0.3832
  700TIP3    H2 2107   0.959   3.821   1.528 -1.1724 -1.1601 -0.5198
  701TIP3   OH2 2108   3.751   1.659   0.866  0.4440 -0.1226 -0.0596
  701TIP3    H1 2109   3.793   1.706   0.794 -0.7353  0.2414 -0.5441
  701TIP3    H2 2110   3.719   1.578   0.826 -2.9056  1.3884 -0.8126
  702TIP3   OH2 2111   3.781   1.100   1.693  0.2211 -0.5443  0.0040
  702TIP3    H1 2112   3.718   1.152   1.643  1.0300  0.4602 -0.0176
  702TIP3    H2 2113   3.859   1.098   1.638  1.1367  0.6006  1.1742
  703TIP3   OH2 2114   4.934   2.473   3.304  0.2445  0.1350 -0.2719
  703TIP3    H1 2115   4.855   2.479   3.358 -0.8498 -1.6122 -1.5642
  703TIP3    H2 2116   4.925   2.543   3.240 -0.8954 -0.7220 -1.1088
  704TIP3   OH2 2117   5.492   5.752   4.119 -0.0887 -0.0886  0.2494
  704TIP3    H1 2118   5.486   5.845   4.098 -1.9979 -0.2160  0.0258
  704TIP3    H2 2119   5.470   5.746   4.212  0.3895 -0.2927  0.3546
  705TIP3   OH2 2120   6.016   2.672   0.750 -0.1491 -0.1851  0.7965
  705TIP3    H1 2121   5.976   2.740   0.804 -0.2128  0.4889 -0.0811
  705TIP3    H2 2122   5.991   2.590   0.792 -1.5806  0.2662  0.8704
  706TIP3   OH2 2123   1.322   3.293   4.452  0.3117 -0.2517 -0.4076
  706TIP3    H1 2124   1.389   3.353   4.419 -0.1117  1.5388  1.7025
  706TIP3    H2 2125   1.241   3.344   4.448 -0.4245 -1.3998 -0.3496
  707TIP3   OH2 2126   3.460   2.672   4.817  0.0197 -0.4427 -0.3742
  707TIP3    H1 2127   3.532   2.728   4.788 -1.3316  1.5889 -0.0012
  707TIP3    H2 2128   3.385   2.699   4.763 -1.1506 -0.5020  1.1392
  708TIP3   OH2 2129   3.878   0.605   4.728 -1.0764  0.0587  0.3974
  708TIP3    H1 2130   3.935   0.681   4.743 -0.4357 -0.0662 -1.2303
  708TIP3    H2 2131   3.882   0.556   4.810  2.1415 -0.5651  0.0042
  709TIP3   OH2 2132   0.390   4.946   0.205  0.0478  0.3483 -0.0605
  709TIP3    H1 2133   0.345   5.012   0.152 -0.3498  0.3086  0.2312
  709TIP3    H2 2134   0.406   4.874   0.144  0.6989  0.8040 -0.4448
  710TIP3   OH2 2135   1.646   1.471   0.833 -0.0054  0.0593 -0.5848
  710TIP3    H1 2136   1.575   1.435   0.779 -1.4042  0.5909  0.8402
  710TIP3    H2 2137   1.633   1.566   0.831  0.5401  0.1533 -0.1342
  711TIP3   OH2 2138   2.023   0.963   2.373 -0.2166 -0.9794 -0.3989
  711TIP3    H1 2139   1.987   1.040   2.418  1.1808 -0.4763 -0.0973
  711TIP3    H2 2140   1.959   0.944   2.304 -0.5101  0.5762 -0.6016
  712TIP3   OH2 2141   5.530   4.113   2.997 -0.3730 -0.4783  0.4626
  712TIP3    H1 2142   5.503   4.191   3.045 -0.8199 -0.2284 -0.1878
  712TIP3    H2 2143   5.613   4.137   2.956 -0.5912 -0.2864  0.1301
  713TIP3   OH2 2144   2.311   5.233   3.531 -0.6893  0.0165 -0.6084
  713TIP3    H1 2145   2.405   5.231   3.514 -0.5230  2.7323 -0.3538
  713TIP3    H2 2146   2.272   5.257   3.447 -0.8834  1.6658 -0.0738
  714TIP3   OH2 2147   0.959   5.064   0.340 -0.0645  0.4239 -0.2180
  714TIP3    H1 2148   0.960   5.041   0.433 -1.2029 -0.8092 -0.4759
  714TIP3    H2 2149   0.868   5.051   0.313  0.1519  1.2089 -1.4037
  715TIP3   OH2 2150   2.807   0.070   3.685  0.0400 -0.0924 -0.0420
  715TIP3    H1 2151   2.820   0.015   3.608  0.6925  1.0126 -0.7607
  715TIP3    H2 2152   2.896   0.087   3.717 -0.0383  1.4676 -0.5512
  716TIP3   OH2 2153   2.950   0.996   4.110 -0.3718 -0.1196 -0.3154
  716TIP3    H1 2154   2.873   1.029   4.064  0.6106  1.5584 -0.8514
  716TIP3    H2 2155   2.919   0.919   4.158 -2.7309  1.3719  0.7239
  717TIP3   OH2 2156   1.054   2.289   4.010 -0.0345  0.1307 -0.1031
  717TIP3    H1 2157   0.993   2.360   4.034  1.3226  0.5344  2.5303
  717TIP3    H2 2158   1.140   2.330   4.011  0.5881 -1.1054 -0.6911
  718TIP3   OH2 2159   5.596   3.176   1.678  0.2130 -0.2860 -0.0417
  718TIP3    H1 2160   5.686   3.172   1.711  0.0814 -0.0203  0.3631
  718TIP3    H2 2161   5.572   3.085   1.664  1.6468 -0.3086 -3.2768
  719TIP3   OH2 2162   5.730   1.416   3.021 -0.1081 -0.1828 -0.0515
  719TIP3    H1 2163   5.757   1.452   2.937 -0.2299 -2.3969 -1.0959
  719TIP3    H2 2164   5.780   1.466   3.086 -0.7007  2.2041 -1.3174
  720TIP3   OH2 2165   5.342   3.269   0.305 -0.0480  0.3006 -0.3035
  720TIP3    H1 2166   5.303   3.334   0.246  1.9666  1.6317 -0.2843
  720TIP3    H2 2167   5.434   3.265   0.278  0.2637 -1.2429  0.8740
  721TIP3   OH2 2168   0.796   3.094   3.032 -0.5309  0.4845 -0.1599
  721TIP3    H1 2169   0.824   3.181   3.002  1.5071 -0.2448 -0.5519
  721TIP3    H2 2170   0.825   3.090   3.123 -0.4442  0.1621 -0.2006
  722TIP3   OH2 2171   4.711   4.314   3.884 -0.0782 -0.2806 -0.1487
  722TIP3    H1 2172   4.723   4.322   3.978 -0.2959 -0.7424 -0.0770
  722TIP3    H2 2173   4.619   4.335   3.869 -0.1853 -0.7594 -0.1846
  723TIP3   OH2 2174   2.571   5.762   0.939  0.1656  0.1123  0.1532
  723TIP3    H1 2175   2.582   5.817   0.862  0.1899  0.5075  0.4384
  723TIP3    H2 2176   2.591   5.673   0.908  3.6693  0.6429  0.4812
  724TIP3   OH2 2177   0.069   0.545   3.073 -0.3799 -0.3081 -0.3562
  724TIP3    H1 2178   0.157   0.529   3.039 -0.7726 -1.1438 -1.0244
  724TIP3    H2 2179   0.069   0.637   3.098  1.2427 -0.7003  1.3408
  725TIP3   OH2 2180   3.502   2.987   0.256  0.0685 -0.0863 -0.2035
  725TIP3    H1 2181   3.490   2.940   0.339 -0.6667  2.1615  1.0380
  725TIP3    H2 2182   3.564   3.057   0.277 -1.3321  1.4840 -1.1380
  726TIP3   OH2 2183   6.186   5.051   2.379 -0.0091  0.2728  0.0282
  726TIP3    H1 2184   6.179   5.144   2.357 -0.4702  0.1170 -0.5162
  726TIP3    H2 2185   6.279   5.032   2.373 -0.0675  0.3231 -1.5340
  727TIP3   OH2 2186   3.819   1.773   0.629 -0.4657  0.0184 -0.2484
  727TIP3    H1 2187   3.773   1.846   0.589 -1.1544 -0.2520  0.0379
  727TIP3    H2 2188   3.910   1.783   0.601 -0.4724  1.2147  0.1194
  728TIP3   OH2 2189   6.107   2.401   3.996 -0.1246 -0.0086 -0.2042
  728TIP3    H1 2190   6.036   2.464   4.008  2.0566  2.3306  1.5572
  728TIP3    H2 2191   6.108   2.350   4.077  0.3982  0.2293 -0.0536
  729TIP3   OH2 2192   2.508   3.059   0.541 -0.1103  0.3027 -0.4324
  729TIP3    H1 2193   2.422   3.027   0.567 -0.6223  1.6845 -0.3433
  729TIP3    H2 2194   2.493   3.099   0.455  0.3465  0.9688 -0.2042
  730TIP3   OH2 2195   0.609   3.408   3.822  0.1679 -0.2569  0.2755
  730TIP3    H1 2196   0.538   3.349   3.796  0.9066 -1.2975  0.5847
  730TIP3    H2 2197   0.628   3.458   3.742 -1.9035  1.1327  0.5651
  731TIP3   OH2 2198   6.142   4.276   3.656 -0.0020 -0.4593  0.7169
  731TIP3    H1 2199   6.086   4.289   3.733 -0.9195  0.9364 -0.1551
  731TIP3    H2 2200   6.231   4.277   3.691 -0.2367  2.7610  1.5082
  732TIP3   OH2 2201   3.907   4.311   0.069  0.4466  0.2569 -0.1501
  732TIP3    H1 2202   3.873   4.257  -0.002  0.2963  1.2353 -0.8440
  732TIP3    H2 2203   3.839   4.377   0.084  1.2055  1.0743 -0.2452
  733TIP3   OH2 2204   0.411   2.656   0.868  0.1128  0.3115  0.3069
  733TIP3    H1 2205   0.444   2.648   0.779 -1.2934 -0.4708 -0.1764
  733TIP3    H2 2206   0.485   2.631   0.924  0.4416 -1.1323 -0.7190
  734TIP3   OH2 2207   1.834   4.965   3.136  0.1685  0.1106  0.8737
  734TIP3    H1 2208   1.777   4.988   3.063  1.0941  2.3533  0.7651
  734TIP3    H2 2209   1.778   4.968   3.213 -0.0346  1.6630  0.6941
  735TIP3   OH2 2210   3.545   2.874   0.496 -0.4763 -0.5999 -0.1140
  735TIP3    H1 2211   3.604   2.798   0.499  0.0291 -0.2868 -1.5439
  735TIP3    H2 2212   3.538   2.901   0.588 -0.1233 -1.9514  0.3446
  736TIP3   OH2 2213   4.585   3.254   3.361  0.2015 -0.2402  0.3662
  736TIP3    H1 2214   4.569   3.322   3.427 -0.3383  0.1770 -0.1812
  736TIP3    H2 2215   4.679   3.259   3.344  0.4131 -0.5912  1.3515
  737TIP3   OH2 2216   4.389   2.913   2.500  0.0063 -0.0601 -0.2964
  737TIP3    H1 2217   4.458   2.967   2.461 -0.7475  1.0195 -0.1649
  737TIP3    H2 2218   4.388   2.833   2.447  0.4339  0.4908 -1.1453
  738TIP3   OH2 2219   3.597   2.031   2.515  0.1697  0.2786 -0.2939
  738TIP3    H1 2220   3.622   2.105   2.460  0.9700  0.1930 -0.0663
  738TIP3    H2 2221   3.522   2.062   2.565  0.2838  0.8202 -0.4501
  739TIP3   OH2 2222   4.999   0.168   0.124 -0.2924 -0.0250  0.2897
  739TIP3    H1 2223   5.044   0.098   0.077 -0.4259 -1.0299  1.5785
  739TIP3    H2 2224   5.049   0.178   0.205 -0.9903  0.5127  0.6663
  740TIP3   OH2 2225   1.057   3.446   1.856  0.5796 -0.5605 -0.5546
  740TIP3    H1 2226   0.983   3.503   1.836  2.2597  0.8999 -3.2104
  740TIP3    H2 2227   1.023   3.357   1.844 -1.4736 -0.0992  1.3258
  741TIP3   OH2 2228   5.608   2.889   2.409  0.3028 -0.0661  0.0186
  741TIP3    H1 2229   5.642   2.887   2.320  0.9830 -1.8664  0.2785
  741TIP3    H2 2230   5.546   2.962   2.409  0.0252 -0.2342 -2.0157
  742TIP3   OH2 2231   1.058   3.564   0.859 -0.5134  0.3876  0.3105
  742TIP3    H1 2232   1.115   3.592   0.931 -0.8832  1.7592  0.1141
  742TIP3    H2 2233   1.115   3.562   0.782 -1.1402  4.7207 -0.5288
  743TIP3   OH2 2234   4.320   1.262   0.898 -0.0642  0.4427 -0.2180
  743TIP3    H1 2235   4.248   1.321   0.919 -1.5852 -1.7555  1.1711
  743TIP3    H2 2236   4.309   1.242   0.805 -0.4351  1.1420 -0.3292
  744TIP3   OH2 2237   3.174   3.600   2.555  0.7006  0.3778 -0.1098
  744TIP3    H1 2238   3.256   3.551   2.561 -0.1498 -1.1313 -0.4924
  744TIP3    H2 2239   3.188   3.675   2.613  2.2371  0.0059  0.0632
  745TIP3   OH2 2240   5.312   0.206   0.632  0.8246  0.2442  0.3552
  745TIP3    H1 2241   5.277   0.154   0.559  1.0625  0.9080 -0.2477
  745TIP3    H2 2242   5.345   0.141   0.694 -1.3439 -0.4065  0.9151
  746TIP3   OH2 2243   1.084   0.061   1.228 -0.2226 -0.3268  0.0365
  746TIP3    H1 2244   1.063   0.135   1.171  0.2268 -1.1332 -1.2043
  746TIP3    H2 2245   1.179   0.058   1.231 -0.2375 -0.4348  0.6579
  747TIP3   OH2 2246   0.845   4.274   1.726 -0.3858 -0.1804 -0.0803
  747TIP3    H1 2247   0.879   4.359   1.696  0.5557 -0.1619  0.9637
  747TIP3    H2 2248   0.790   4.244   1.654 -0.8597  1.3829 -0.4241
  748TIP3   OH2 2249   0.386   5.875   1.428  0.2461  0.6069  0.4257
  748TIP3    H1 2250   0.473   5.854   1.394  0.7657  1.8291  0.9587
  748TIP3    H2 2251   0.342   5.920   1.356 -0.0863 -0.3027  0.0408
  749TIP3   OH2 2252   1.005   3.626   4.984  0.2460  0.5444  0.3188
  749TIP3    H1 2253   1.049   3.596   4.905 -0.9274  1.6231 -0.7900
  749TIP3    H2 2254   1.034   3.717   4.995  0.4391  0.3893  1.1645
  750TIP3   OH2 2255   4.059   4.078   1.926  1.1138  0.2295  0.7810
  750TIP3    H1 2256   4.075   4.053   2.016  1.1911 -0.9180  0.4616
  750TIP3    H2 2257   4.069   3.997   1.876  3.0714  1.1987 -0.5182
  751TIP3   OH2 2258   4.456   4.657   1.643 -0.6395  0.7688  0.2908
  751TIP3    H1 2259   4.401   4.642   1.720  1.9542 -0.0283  2.1047
  751TIP3    H2 2260   4.485   4.570   1.617  0.4971  1.2276 -0.0346
  752TIP3   OH2 2261   5.345   4.690   3.134  0.6863  0.2247 -0.0606
  752TIP3    H1 2262   5.268   4.670   3.081 -0.3924 -0.5404  1.6976
  752TIP3    H2 2263   5.417   4.645   3.090  0.0213  0.4239 -1.3930
  753TIP3   OH2 2264   3.466   5.185   5.172 -0.1700 -0.2763 -0.1594
  753TIP3    H1 2265   3.544   5.191   5.117 -0.2673 -0.0993 -0.2786
  753TIP3    H2 2266   3.497   5.203   5.260 -0.0715 -0.2344 -0.2027
  754TIP3   OH2 2267   2.329   4.355   4.977  0.2701 -1.1039  0.0144
  754TIP3    H1 2268   2.276   4.374   5.054 -0.2889  0.3184 -0.6733
  754TIP3    H2 2269   2.293   4.413   4.909  2.0788 -0.7999 -0.7368
  755TIP3   OH2 2270   4.489   5.259   1.399  0.1903 -0.0492 -0.5485
  755TIP3    H1 2271   4.575   5.217   1.401 -0.3729 -1.2563 -0.9140
  755TIP3    H2 2272   4.494   5.327   1.465  1.7737  0.6001 -1.2852
  756TIP3   OH2 2273   0.970   4.358   2.110  0.0371  0.0164 -0.0459
  756TIP3    H1 2274   0.938   4.447   2.094  1.0927  0.5822  0.8642
  756TIP3    H2 2275   1.047   4.350   2.054  1.3169  0.5404  1.5617
  757TIP3   OH2 2276   0.774   2.075   1.590 -0.2289  0.5324  0.6156
  757TIP3    H1 2277   0.778   2.150   1.531 -2.2142 -0.3699 -0.7977
  757TIP3    H2 2278   0.847   2.019   1.563 -0.7213  0.4367 -0.5917
  758TIP3   OH2 2279   0.154   3.841   4.976  0.3721 -0.6492 -0.4420
  758TIP3    H1 2280   0.059   3.857   4.977  0.1927 -1.6400  1.0252
  758TIP3    H2 2281   0.192   3.928   4.960 -0.7383  0.0241  0.3643
  759TIP3   OH2 2282   1.713   2.716   2.751 -0.1963  0.4277  0.3204
  759TIP3    H1 2283   1.806   2.734   2.739  0.1001 -1.0413  0.1684
  759TIP3    H2 2284   1.702   2.708   2.845  0.9500 -4.2178  0.3238
  760TIP3   OH2 2285   0.357   2.140   0.921  0.0696 -0.6989  0.9977
  760TIP3    H1 2286   0.406   2.084   0.861 -0.4545 -0.9222  0.7682
  760TIP3    H2 2287   0.404   2.223   0.920 -0.0259 -0.6444  0.1418
  761TIP3   OH2 2288   1.255   4.900   3.807  0.4006  0.2411 -0.2042
  761TIP3    H1 2289   1.293   4.956   3.739  0.4377  0.2490 -0.1764
  761TIP3    H2 2290   1.300   4.926   3.888  0.3005  0.2874 -0.1625
  762TIP3   OH2 2291   0.139   4.428   0.262 -0.3742 -0.2833  0.0867
  762TIP3    H1 2292   0.160   4.509   0.216 -0.5001 -0.0037  0.5141
  762TIP3    H2 2293   0.066   4.452   0.319  0.8621 -0.1823  1.6942
  763TIP3   OH2 2294   5.023   2.860   2.942  0.3046  0.4096  0.0519
  763TIP3    H1 2295   5.024   2.939   2.996  0.4996  0.6675 -0.3296
  763TIP3    H2 2296   5.006   2.891   2.853 -0.6474 -0.0706  0.0497
  764TIP3   OH2 2297   1.050   5.361   4.820 -0.4887 -0.3839 -0.1865
  764TIP3    H1 2298   1.037   5.356   4.914 -1.2922  1.5071 -0.1339
  764TIP3    H2 2299   1.085   5.449   4.805  0.7689 -1.0775 -1.5532
  765TIP3   OH2 2300   5.129   0.383   1.008  0.3720 -0.1410 -0.2418
  765TIP3    H1 2301   5.164   0.306   0.963 -2.2161 -0.7539 -1.3638
  765TIP3    H2 2302   5.108   0.445   0.937 -3.1417 -0.8588  0.0020
  766TIP3   OH2 2303   0.892   3.286   0.525  0.1018  0.9230  0.8841
  766TIP3    H1 2304   0.802   3.315   0.507 -0.5798 -1.7867 -0.5848
  766TIP3    H2 2305   0.941   3.311   0.447 -0.2958 -0.8989 -0.0035
  767TIP3   OH2 2306   3.773   2.122   4.051 -0.4784  0.0312 -0.1144
  767TIP3    H1 2307   3.728   2.038   4.064 -0.2875 -0.0292  0.1549
  767TIP3    H2 2308   3.703   2.182   4.024 -0.5583 -0.2971 -0.6448
  768TIP3   OH2 2309   1.114   2.301   3.545 -0.3313 -0.0825 -0.6157
  768TIP3    H1 2310   1.161   2.267   3.621 -2.3720 -1.9042 -0.0981
  768TIP3    H2 2311   1.182   2.348   3.495  1.6649 -1.2064  0.8718
  769TIP3   OH2 2312   0.916   0.944   0.844  0.2445 -0.2874  0.3502
  769TIP3    H1 2313   0.943   0.955   0.753 -0.2901 -0.3804  0.1718
  769TIP3    H2 2314   0.907   1.034   0.877 -0.6277 -0.2187 -0.0272
  770TIP3   OH2 2315   2.249   3.846   4.835  0.1062 -0.3667 -0.2425
  770TIP3    H1 2316   2.260   3.928   4.884 -0.6763 -1.0520  1.1557
  770TIP3    H2 2317   2.159   3.850   4.802  0.0734 -0.6534 -0.1890
  771TIP3   OH2 2318   2.147   6.005   4.459  0.2551  0.6203 -0.4391
  771TIP3    H1 2319   2.153   5.937   4.392  1.3708  0.4646 -0.2004
  771TIP3    H2 2320   2.153   5.958   4.542  0.2272  0.9377 -0.2546
  772TIP3   OH2 2321   5.523   0.693   2.546  0.0373 -0.3491 -0.2079
  772TIP3    H1 2322   5.495   0.717   2.635 -0.6377  0.8666 -0.7243
  772TIP3    H2 2323   5.609   0.652   2.558  1.0293  1.8434  0.8257
  773TIP3   OH2 2324   6.379   2.357   3.801 -0.2712  0.0528 -0.0917
  773TIP3    H1 2325   6.306   2.380   3.859  0.5487 -0.7786  1.3289
  773TIP3    H2 2326   6.341   2.356   3.714 -1.6048  1.1312  0.4458
  774TIP3   OH2 2327   0.832   1.804   0.815 -0.3160  0.3238  0.7011
  774TIP3    H1 2328   0.824   1.718   0.773  0.7033  1.1477 -1.3560
  774TIP3    H2 2329   0.743   1.839   0.815 -0.5250 -0.1950  0.2704
  775TIP3   OH2 2330   5.992   3.403   2.789 -0.1394  0.2616 -0.0999
  775TIP3    H1 2331   5.919   3.348   2.759 -0.7858  1.6764 -1.2299
  775TIP3    H2 2332   6.060   3.392   2.723  0.7915 -1.1600  1.0205
  776TIP3   OH2 2333   2.670   0.980   2.502  0.7551 -0.4401  0.1740
  776TIP3    H1 2334   2.590   1.014   2.541  1.3106  0.4865  0.5424
  776TIP3    H2 2335   2.652   0.975   2.408  0.2436 -0.3292  0.2650
  777TIP3   OH2 2336   5.310   1.192   2.821  0.6147 -0.4156  0.0289
  777TIP3    H1 2337   5.366   1.255   2.776 -0.4959 -0.5091 -1.5824
  777TIP3    H2 2338   5.249   1.246   2.872 -0.1060 -0.1477 -1.0670
  778TIP3   OH2 2339   1.408   3.627   3.146  0.0586  0.2505  0.3316
  778TIP3    H1 2340   1.431   3.645   3.237  1.1603 -0.0594  0.1348
  778TIP3    H2 2341   1.356   3.547   3.149 -0.2476  0.4629  0.7216
  779TIP3   OH2 2342   4.192   2.733   2.084  0.2225  0.0984 -0.3830
  779TIP3    H1 2343   4.115   2.770   2.128 -0.3551 -1.0017 -0.4188
  779TIP3    H2 2344   4.169   2.641   2.070  0.1650  0.4935 -3.4808
  780TIP3   OH2 2345   1.086   0.145   4.070 -0.3365 -0.4264 -0.2654
  780TIP3    H1 2346   1.032   0.223   4.062 -1.4188 -1.0141  0.9027
  780TIP3    H2 2347   1.024   0.072   4.067  0.6984 -1.3208 -1.9671
  781TIP3   OH2 2348   5.007   3.846   3.566 -0.4597 -0.3449  0.5998
  781TIP3    H1 2349   5.079   3.783   3.576  0.6511  0.1042 -3.1110
  781TIP3    H2 2350   4.941   3.798   3.516  0.0161  1.0414 -1.4798
  782TIP3   OH2 2351   3.071   5.679   4.833 -0.0981  0.5136 -0.4159
  782TIP3    H1 2352   3.107   5.595   4.861 -0.6144  0.3531 -0.2252
  782TIP3    H2 2353   3.036   5.662   4.746  0.0101  0.5929 -0.4754
  783TIP3   OH2 2354   5.639   5.256   0.895  0.1357  0.6034 -0.0962
  783TIP3    H1 2355   5.678   5.177   0.933  1.5330  1.1209 -0.3742
  783TIP3    H2 2356   5.562   5.273   0.948  1.3519  0.6122  1.7670
  784TIP3   OH2 2357   0.605   2.605   2.342 -0.0788  0.2232 -0.6446
  784TIP3    H1 2358   0.685   2.591   2.393 -1.0831 -0.7631  0.7135
  784TIP3    H2 2359   0.577   2.694   2.365 -0.1125  0.0636 -0.0558
  785TIP3   OH2 2360   1.715   2.345   0.417 -0.3683  0.5134  0.2252
  785TIP3    H1 2361   1.775   2.360   0.490  0.9073 -2.3172 -0.1328
  785TIP3    H2 2362   1.772   2.327   0.342 -1.6053 -1.3179 -0.3423
  786TIP3   OH2 2363   1.147   0.592   1.816  0.7429  0.2010  0.4911
  786TIP3    H1 2364   1.065   0.615   1.773  0.8049  0.8095  0.6873
  786TIP3    H2 2365   1.214   0.602   1.748  1.1222  3.0632  1.1208
  787TIP3   OH2 2366   3.633   0.264   3.380 -0.4102 -0.5487  0.0731
  787TIP3    H1 2367   3.704   0.284   3.319 -2.0356 -0.1130 -1.7833
  787TIP3    H2 2368   3.654   0.178   3.414  1.1170 -0.3265 -0.2420
  788TIP3   OH2 2369   3.278   4.518   4.599 -0.3058 -0.9515 -0.1332
  788TIP3    H1 2370   3.263   4.443   4.541  1.3305 -0.6717 -0.9907
  788TIP3    H2 2371   3.348   4.568   4.555  0.8258 -0.5980  1.9532
  789TIP3   OH2 2372   1.529   3.760   1.906  1.1314 -0.3065 -1.1260
  789TIP3    H1 2373   1.603   3.709   1.937  0.6052 -1.5039 -1.7623
  789TIP3    H2 2374   1.519   3.735   1.814  0.0562 -0.0482 -1.0949
  790TIP3   OH2 2375   5.590   0.271   2.633  0.7644  0.2002  0.1614
  790TIP3    H1 2376   5.559   0.251   2.722 -0.7400  2.2378  0.1566
  790TIP3    H2 2377   5.512   0.269   2.579  1.1411  2.0522 -0.5179
  791TIP3   OH2 2378   0.931   1.971   5.030 -0.3525 -0.0149  0.3780
  791TIP3    H1 2379   1.015   1.957   4.987  0.6951 -0.9530  2.5394
  791TIP3    H2 2380   0.945   2.047   5.086 -1.8881  1.6078 -1.3056
  792TIP3   OH2 2381   1.140   2.157   0.235  0.1688  0.0251  0.1402
  792TIP3    H1 2382   1.152   2.089   0.168 -1.2800  0.3462 -0.4803
  792TIP3    H2 2383   1.150   2.239   0.187  1.3495  0.2829  0.7792
  793TIP3   OH2 2384   3.327   4.166   4.572 -0.6875 -0.1447  0.0271
  793TIP3    H1 2385   3.237   4.155   4.603 -0.3004 -1.9310  0.6443
  793TIP3    H2 2386   3.373   4.206   4.646 -0.6833 -0.5340  0.2394
  794TIP3   OH2 2387   1.568   3.449   2.450 -0.3337  0.3284  0.4924
  794TIP3    H1 2388   1.632   3.475   2.515  0.1055 -1.7804  0.9717
  794TIP3    H2 2389   1.619   3.404   2.382 -1.0942  0.1673  0.0068
  795TIP3   OH2 2390   0.092   0.177   0.804  0.1830  0.3555  0.1884
  795TIP3    H1 2391   0.062   0.193   0.714  2.5696  0.6290 -0.6339
  795TIP3    H2 2392   0.011   0.170   0.855 -1.2410  2.2577 -1.6139
  796TIP3   OH2 2393   2.557   1.295   2.035 -0.0437 -0.0588 -0.1202
  796TIP3    H1 2394   2.605   1.212   2.037  0.3524  0.1437  1.8827
  796TIP3    H2 2395   2.613   1.353   1.983  0.7910 -0.4519  0.3087
  797TIP3   OH2 2396   1.641   4.708   1.303  0.0604  0.0924 -0.2173
  797TIP3    H1 2397   1.648   4.634   1.364 -0.7079  0.2363  0.0554
  797TIP3    H2 2398   1.662   4.670   1.218 -0.9579 -0.6123 -0.1806
  798TIP3   OH2 2399   3.188   1.669   1.108  0.6773 -0.6782  0.1126
  798TIP3    H1 2400   3.100   1.692   1.137  0.0841 -1.0832 -1.2694
  798TIP3    H2 2401   3.243   1.679   1.186 -0.5003  0.0471  0.8770
  799TIP3   OH2 2402   3.039   0.672   0.970 -0.0021 -0.2109 -0.4658
  799TIP3    H1 2403   3.039   0.666   0.875  0.8601 -0.4187 -0.4565
  799TIP3    H2 2404   3.108   0.735   0.992 -0.7181  0.4367 -0.0033
  800TIP3   OH2 2405   1.374   1.621   1.393 -0.1861  0.0537  0.8135
  800TIP3    H1 2406   1.376   1.587   1.304 -0.3810  2.3430 -0.1319
  800TIP3    H2 2407   1.282   1.639   1.411  0.1067  2.4275  0.2566
  801TIP3   OH2 2408   0.174   1.562   1.109  0.3546 -0.2755  0.9311
  801TIP3    H1 2409   0.255   1.534   1.152  1.2483  0.5427 -0.1477
  801TIP3    H2 2410   0.122   1.481   1.102  1.5824 -1.0713  0.5870
  802TIP3   OH2 2411   1.530   3.695   3.399 -0.2661 -0.0605 -0.5356
  802TIP3    H1 2412   1.460   3.759   3.390  0.3136  0.4245 -1.9213
  802TIP3    H2 2413   1.608   3.746   3.421  0.1797 -0.2686 -1.5419
  803TIP3   OH2 2414   4.436   4.276   0.578  0.0061 -0.4675 -0.6078
  803TIP3    H1 2415   4.344   4.260   0.597  0.2654 -0.3545  0.9261
  803TIP3    H2 2416   4.447   4.371   0.591  0.1520 -0.3135 -1.7416
  804TIP3   OH2 2417   1.048   0.743   3.834  0.6017  0.1557 -0.8356
  804TIP3    H1 2418   1.050   0.833   3.866 -0.4469 -0.0003 -0.2674
  804TIP3    H2 2419   0.982   0.700   3.889 -1.6273 -0.0351 -3.4531
  805TIP3   OH2 2420   4.858   5.768   1.144 -0.3228 -0.0024  0.6383
  805TIP3    H1 2421   4.942   5.807   1.121 -0.1623 -0.0854  1.0770
  805TIP3    H2 2422   4.847   5.697   1.081  0.0879 -0.1976  0.7833
  806TIP3   OH2 2423   0.436   0.421   2.289 -0.0416  0.1134 -0.1434
  806TIP3    H1 2424   0.355   0.385   2.324 -0.0791  1.2497  1.0264
  806TIP3    H2 2425   0.408   0.487   2.226  0.0198 -2.4417 -3.0899
  807TIP3   OH2 2426   1.837   5.407   1.161 -0.3938  0.0222  0.3195
  807TIP3    H1 2427   1.885   5.444   1.236  1.0546 -2.0686  0.5124
  807TIP3    H2 2428   1.897   5.343   1.124 -1.5506  0.1653 -1.9559
  808TIP3   OH2 2429   1.034   0.674   4.951 -0.5246  0.0609 -0.2855
  808TIP3    H1 2430   1.054   0.710   4.865  0.2716 -1.6531 -0.8654
  808TIP3    H2 2431   1.120   0.651   4.988 -0.8225  1.1568  1.1535
  809TIP3   OH2 2432   4.823   4.449   0.684 -0.3514  0.2181  0.2422
  809TIP3    H1 2433   4.898   4.401   0.649 -2.6880 -1.8651 -2.4949
  809TIP3    H2 2434   4.849   4.541   0.681  1.8819 -0.3779 -1.1507
  810TIP3   OH2 2435   6.190   3.997   0.292  0.0351 -0.3076  0.6947
  810TIP3    H1 2436   6.147   3.931   0.237  1.3318 -0.8697  0.3152
  810TIP3    H2 2437   6.145   3.992   0.376 -1.0901 -0.3813  0.1072
  811TIP3   OH2 2438   4.233   4.870   0.837  0.2001 -0.3689  0.1350
  811TIP3    H1 2439   4.290   4.872   0.760 -2.0815  2.0043 -1.6653
  811TIP3    H2 2440   4.179   4.792   0.825  0.2836 -0.3566 -0.3558
  812TIP3   OH2 2441   0.164   1.859   2.673  0.3744 -0.1219 -0.2746
  812TIP3    H1 2442   0.141   1.773   2.707  0.8949 -0.1936 -0.0973
  812TIP3    H2 2443   0.259   1.859   2.669  0.4226  0.7222  0.4696
  813TIP3   OH2 2444   1.479   2.969   0.193  0.5369 -0.1525 -0.0214
  813TIP3    H1 2445   1.395   2.935   0.163 -0.2538  0.7375  1.0903
  813TIP3    H2 2446   1.473   3.064   0.179  1.5463 -0.1153 -0.3453
  814TIP3   OH2 2447   3.114   3.549   3.451 -0.3150 -0.5117  0.2603
  814TIP3    H1 2448   3.205   3.518   3.449 -0.2044 -0.1433 -0.8538
  814TIP3    H2 2449   3.107   3.596   3.534  0.7647  0.1510  0.0005
  815TIP3   OH2 2450   2.449   5.885   2.613  0.3651  0.1346 -0.0475
  815TIP3    H1 2451   2.356   5.902   2.628  0.0613 -0.9157 -0.6039
  815TIP3    H2 2452   2.484   5.967   2.577 -0.4949  0.3343 -0.4458
  816TIP3   OH2 2453   5.560   0.228   3.074 -0.5066  0.3457  0.3906
  816TIP3    H1 2454   5.533   0.163   3.010  1.5406 -0.7660  0.5741
  816TIP3    H2 2455   5.524   0.310   3.041 -0.5131 -0.3790 -1.5653
  817TIP3   OH2 2456   4.086   0.181   3.890 -0.2840 -0.4115 -0.4717
  817TIP3    H1 2457   4.001   0.165   3.850 -0.0023 -0.9804 -0.8564
  817TIP3    H2 2458   4.094   0.276   3.894 -0.3232 -0.3445 -1.7481
  818TIP3   OH2 2459   6.030   1.056   3.572  0.7036 -0.6019 -0.4987
  818TIP3    H1 2460   6.013   1.087   3.661 -1.0296 -0.1796 -0.9414
  818TIP3    H2 2461   5.948   1.014   3.545  0.7563  0.3462 -2.3281
  819TIP3   OH2 2462   1.878   0.815   3.197  0.1488 -0.1868 -0.0022
  819TIP3    H1 2463   1.907   0.762   3.122 -1.2506 -1.7762  0.5334
  819TIP3    H2 2464   1.898   0.762   3.273  0.9585  1.1457  0.7537
  820TIP3   OH2 2465   5.166   2.371   4.574 -0.5701 -0.3307 -0.3921
  820TIP3    H1 2466   5.137   2.392   4.662  0.6689 -2.3379  0.5756
  820TIP3    H2 2467   5.262   2.370   4.579 -0.4720 -0.6391 -1.7032
  821TIP3   OH2 2468   4.021   3.609   1.346 -0.1918  0.2240 -0.2247
  821TIP3    H1 2469   3.944   3.625   1.401 -0.2907 -0.1287 -0.2603
  821TIP3    H2 2470   3.992   3.631   1.257 -0.1443  0.4316 -0.1899
  822TIP3   OH2 2471   4.535   4.365   4.484 -0.2803  0.0658  0.7140
  822TIP3    H1 2472   4.546   4.437   4.421 -0.6495 -0.8612 -0.4380
  822TIP3    H2 2473   4.531   4.286   4.430 -4.0086 -0.4985  1.5743
  823TIP3   OH2 2474   6.006   2.901   4.322  0.2432  0.3890  0.0387
  823TIP3    H1 2475   5.977   2.810   4.323  1.9139 -0.1910 -0.6507
  823TIP3    H2 2476   5.950   2.945   4.385 -1.0135 -0.9789 -0.0686
  824TIP3   OH2 2477   5.880   1.287   1.728  0.1734 -0.2382  0.1313
  824TIP3    H1 2478   5.938   1.222   1.688  0.7515 -0.1626  0.8195
  824TIP3    H2 2479   5.935   1.330   1.794 -0.2639  0.8025 -0.1685
  825TIP3   OH2 2480   2.724   5.249   1.303 -0.3588 -0.2529  0.2728
  825TIP3    H1 2481   2.741   5.343   1.299 -1.2094 -0.1018 -0.0652
  825TIP3    H2 2482   2.752   5.223   1.391 -0.3699  0.3711  0.4641
  826TIP3   OH2 2483   0.430   1.977   0.130  0.1049  0.3501 -0.4608
  826TIP3    H1 2484   0.473   1.959   0.213  1.1592  0.8451 -0.8823
  826TIP3    H2 2485   0.429   2.073   0.123 -0.8667  0.3442 -0.5719
  827TIP3   OH2 2486   1.672   1.297   1.370 -0.2819  0.7935  1.1965
  827TIP3    H1 2487   1.721   1.340   1.300  0.2732 -0.1933  0.9681
  827TIP3    H2 2488   1.699   1.206   1.366 -1.0206  0.5244  2.0412
  828TIP3   OH2 2489   4.697   3.879   0.943  0.3214 -0.3827 -0.0770
  828TIP3    H1 2490   4.750   3.915   0.872  0.5071  1.7490  1.0846
  828TIP3    H2 2491   4.752   3.889   1.021 -0.9235 -0.1870  0.7925
  829TIP3   OH2 2492   0.929   1.521   0.029 -0.0354 -0.4696  0.1581
  829TIP3    H1 2493   0.868   1.521  -0.044  2.0993 -1.3230 -1.7511
  829TIP3    H2 2494   0.949   1.614   0.044 -1.3825 -0.2146  0.5071
  830TIP3   OH2 2495   0.716   4.350   1.990  0.0390  0.1835  0.5979
  830TIP3    H1 2496   0.791   4.305   2.029 -1.1346 -1.2252  1.3403
  830TIP3    H2 2497   0.710   4.315   1.901 -0.5034 -0.7145  0.9735
  831TIP3   OH2 2498   2.717   5.313   4.830  0.0380  0.7365 -0.0893
  831TIP3    H1 2499   2.785   5.323   4.897 -0.9152 -0.4056  1.0966
  831TIP3    H2 2500   2.693   5.221   4.833 -2.3362  1.2774  0.3655
  832TIP3   OH2 2501   3.978   1.275   1.057  0.0553  0.1413  0.0413
  832TIP3    H1 2502   3.936   1.304   0.976 -2.4680 -0.3149  1.1021
  832TIP3    H2 2503   4.010   1.187   1.037  0.4349  0.4523 -0.7608
  833TIP3   OH2 2504   4.758   2.490   2.214  0.3254  0.0328 -0.1650
  833TIP3    H1 2505   4.795   2.417   2.164  1.0026  0.1113  0.2077
  833TIP3    H2 2506   4.820   2.504   2.285 -0.8112 -0.3203  0.9298
  834TIP3   OH2 2507   2.015   2.237   3.153 -0.3604 -0.5991 -0.1675
  834TIP3    H1 2508   1.932   2.190   3.157 -0.3874 -0.7282 -1.7279
  834TIP3    H2 2509   2.051   2.229   3.242 -1.6552 -1.1771  0.3276
  835TIP3   OH2 2510   0.774   2.265   0.085  0.0184  0.5784 -0.4292
  835TIP3    H1 2511   0.784   2.348   0.131  0.1273  0.1889  0.2635
  835TIP3    H2 2512   0.863   2.231   0.076  0.2246  1.4992 -2.5873
  836TIP3   OH2 2513   5.902   1.965   4.014 -0.1273  0.0428 -0.1626
  836TIP3    H1 2514   5.953   2.035   3.974  1.4510 -1.0508 -0.1787
  836TIP3    H2 2515   5.891   1.992   4.105 -0.8353  0.9805 -0.5102
  837TIP3   OH2 2516   4.828   4.437   2.799 -0.5429 -0.2573 -0.5125
  837TIP3    H1 2517   4.770   4.472   2.731 -1.1971  0.0711  0.2009
  837TIP3    H2 2518   4.770   4.422   2.874  0.5231  1.3538  0.6869
  838TIP3   OH2 2519   4.216   5.962   2.153 -0.7647 -0.1330  0.0938
  838TIP3    H1 2520   4.174   5.891   2.203 -1.0837  1.5996  2.4284
  838TIP3    H2 2521   4.146   6.025   2.139 -0.4576 -0.1656 -1.8913
  839TIP3   OH2 2522   1.585   0.822   1.874 -0.0013 -0.2269 -0.0871
  839TIP3    H1 2523   1.655   0.825   1.940 -1.0287  0.2742  1.0153
  839TIP3    H2 2524   1.521   0.760   1.910 -1.4048  1.3570  0.2811
  840TIP3   OH2 2525   2.985   4.838   2.510 -0.6589 -0.2716  0.2388
  840TIP3    H1 2526   3.025   4.851   2.424 -0.6849 -0.0767  0.2540
  840TIP3    H2 2527   2.966   4.745   2.515 -2.5061  0.0176 -0.7737
  841TIP3   OH2 2528   0.899   5.756   1.558 -0.7438 -0.3245  0.0267
  841TIP3    H1 2529   0.851   5.718   1.631 -0.8174  0.0011  0.1489
  841TIP3    H2 2530   0.832   5.783   1.496 -0.7293  0.2115  0.2376
  842TIP3   OH2 2531   0.706   1.096   0.549  0.3355  0.3379 -0.1507
  842TIP3    H1 2532   0.667   1.029   0.605  2.3400 -0.1796  0.7443
  842TIP3    H2 2533   0.677   1.179   0.587 -2.5015  0.0711 -1.5100
  843TIP3   OH2 2534   5.219   1.272   4.357  0.3119 -0.1368  0.0149
  843TIP3    H1 2535   5.158   1.234   4.294  0.1438  1.9507 -1.1859
  843TIP3    H2 2536   5.299   1.221   4.347 -0.5230 -1.4877  0.0059
  844TIP3   OH2 2537   1.694   5.607   2.667 -0.0630 -0.0198 -0.1572
  844TIP3    H1 2538   1.703   5.652   2.583  1.5546  0.6897  0.3447
  844TIP3    H2 2539   1.720   5.517   2.649  0.7801  0.2489 -0.3229
  845TIP3   OH2 2540   1.047   1.558   0.299  0.7469  0.0628 -0.4864
  845TIP3    H1 2541   1.087   1.622   0.357  1.0406  0.7583 -1.4231
  845TIP3    H2 2542   0.970   1.603   0.263  1.0679 -0.0230 -1.2998
  846TIP3   OH2 2543   2.893   2.007   3.462 -0.2812 -0.0862 -0.2745
  846TIP3    H1 2544   2.815   1.959   3.491 -0.9518  0.5771 -0.9423
  846TIP3    H2 2545   2.866   2.098   3.460  0.6665  0.2125 -0.0576
  847TIP3   OH2 2546   2.797   0.640   4.824 -0.1239  0.0189  0.2584
  847TIP3    H1 2547   2.746   0.561   4.809 -0.9698  0.6905 -0.4969
  847TIP3    H2 2548   2.826   0.633   4.915 -1.3600 -0.5072  0.6331
  848TIP3   OH2 2549   0.135   2.438   4.948  0.6740 -0.1313 -0.0412
  848TIP3    H1 2550   0.151   2.436   5.043  1.2397 -0.2295 -0.1378
  848TIP3    H2 2551   0.221   2.455   4.909  0.0698  2.2976 -0.4397
  849TIP3   OH2 2552   0.815   5.201   3.695  0.3014 -0.0643  0.6269
  849TIP3    H1 2553   0.752   5.130   3.678  0.5980 -0.0552 -0.6182
  849TIP3    H2 2554   0.888   5.157   3.739 -1.5893  0.3548  4.5730
  850TIP3   OH2 2555   0.037   5.127   3.585  0.3458  0.0783  0.4455
  850TIP3    H1 2556   0.072   5.084   3.508 -2.4776 -0.7606 -0.5070
  850TIP3    H2 2557   0.032   5.058   3.651 -1.4814 -0.4087 -0.1509
  851TIP3   OH2 2558   3.247   4.245   4.183  0.3537  0.1157 -0.3914
  851TIP3    H1 2559   3.301   4.180   4.229  1.5136  0.6505 -0.9513
  851TIP3    H2 2560   3.283   4.247   4.094 -0.7548  0.3244 -0.8466
  852TIP3   OH2 2561   1.620   4.446   4.748  0.1504 -0.3474  0.0569
  852TIP3    H1 2562   1.633   4.376   4.812  1.2562 -1.7947 -1.6436
  852TIP3    H2 2563   1.535   4.427   4.708 -0.4828  0.4842  0.9725
  853TIP3   OH2 2564   0.821   2.853   0.705 -0.3668 -0.1384  0.2568
  853TIP3    H1 2565   0.904   2.844   0.658 -0.3304 -0.4387  0.3766
  853TIP3    H2 2566   0.799   2.946   0.697 -0.5504 -0.2590 -0.6686
  854TIP3   OH2 2567   6.096   1.707   2.855 -0.4596  0.8465  0.3558
  854TIP3    H1 2568   6.130   1.730   2.769 -0.3684 -1.1660 -0.1908
  854TIP3    H2 2569   6.172   1.715   2.914  0.5258 -1.5470 -0.4789
  855TIP3   OH2 2570   1.891   0.338   4.697 -0.7454 -0.2459  0.0367
  855TIP3    H1 2571   1.982   0.364   4.716 -1.0397  1.1099 -0.2740
  855TIP3    H2 2572   1.851   0.325   4.783 -0.0161 -1.8473  0.1719
  856TIP3   OH2 2573   2.069   5.142   3.122  0.1773  0.4330  0.6035
  856TIP3    H1 2574   2.045   5.225   3.161 -2.1924  0.0960  0.0024
  856TIP3    H2 2575   1.991   5.088   3.129  1.1531 -1.2146 -0.4338
  857TIP3   OH2 2576   3.807   4.537   4.652 -0.1176  0.6703 -0.1115
  857TIP3    H1 2577   3.827   4.584   4.733 -0.3171  1.4676 -0.5069
  857TIP3    H2 2578   3.763   4.457   4.681  1.2614  0.1601  0.6257
  858TIP3   OH2 2579   4.713   3.673   1.978  0.3472  0.4084  0.4282
  858TIP3    H1 2580   4.806   3.653   1.992  0.4711  0.2689 -0.5361
  858TIP3    H2 2581   4.711   3.728   1.900 -0.3794  0.4466  0.4649
  859TIP3   OH2 2582   1.672   2.387   1.347  0.1901  0.4746 -0.1127
  859TIP3    H1 2583   1.595   2.408   1.293 -0.2129 -1.0405 -0.1993
  859TIP3    H2 2584   1.696   2.298   1.320  2.7013  1.3134 -0.8900
  860TIP3   OH2 2585   3.563   5.497   4.477  0.6169  0.4075  0.1345
  860TIP3    H1 2586   3.486   5.543   4.444 -1.0866 -1.0188  1.8824
  860TIP3    H2 2587   3.581   5.537   4.562  0.1024 -0.9920  0.9422
  861TIP3   OH2 2588   2.839   3.908   4.104 -0.1529  0.2687 -0.6604
  861TIP3    H1 2589   2.857   3.928   4.013 -1.2840 -0.6216 -1.1057
  861TIP3    H2 2590   2.916   3.861   4.134  0.4882  1.1031 -0.9626
  862TIP3   OH2 2591   3.665   4.687   1.681 -0.0596  0.3405 -0.1063
  862TIP3    H1 2592   3.575   4.659   1.700  0.4852 -0.6591  1.1279
  862TIP3    H2 2593   3.657   4.782   1.668 -1.0131  0.6536  2.1562
  863TIP3   OH2 2594   0.455   3.457   3.022 -0.2254  0.4065  0.2753
  863TIP3    H1 2595   0.395   3.496   2.958 -1.2461 -0.4569  0.6963
  863TIP3    H2 2596   0.519   3.410   2.968 -1.2675 -0.5875 -0.1211
  864TIP3   OH2 2597   0.081   1.161   4.352  0.1150 -0.0930  0.1325
  864TIP3    H1 2598   0.106   1.172   4.261 -0.4753  1.4233  0.1370
  864TIP3    H2 2599   0.086   1.066   4.366  1.4991 -0.2434 -1.0803
  865TIP3   OH2 2600   4.117   2.981   3.841  0.4728 -0.0342 -0.5561
  865TIP3    H1 2601   4.187   2.920   3.815  0.4947 -0.4884  0.5311
  865TIP3    H2 2602   4.159   3.068   3.838  0.8736 -0.2286 -0.6352
  866TIP3   OH2 2603   5.738   2.376   0.306 -0.0854  0.3047 -0.4592
  866TIP3    H1 2604   5.699   2.388   0.219  0.8396  1.5837 -0.7272
  866TIP3    H2 2605   5.831   2.365   0.289  0.4136  2.6767  0.4744
  867TIP3   OH2 2606   3.105   3.325   3.716  0.3591 -0.0481  0.0552
  867TIP3    H1 2607   3.014   3.304   3.734 -0.1682  1.0207 -1.1543
  867TIP3    H2 2608   3.155   3.266   3.771 -1.0667  0.4232  1.9504
  868TIP3   OH2 2609   5.169   5.204   2.151 -0.8921 -0.3271  0.4321
  868TIP3    H1 2610   5.150   5.287   2.196  0.2083 -0.9090  2.0591
  868TIP3    H2 2611   5.101   5.144   2.184 -1.9804  0.0023 -1.1055
  869TIP3   OH2 2612   1.067   4.867   4.344 -0.3711 -0.2839 -0.0068
  869TIP3    H1 2613   1.078   4.782   4.302 -1.6107  0.2866 -1.5931
  869TIP3    H2 2614   1.154   4.905   4.346  0.5949 -2.3145  2.5105
  870TIP3   OH2 2615   6.089   1.581   0.694 -0.1271  0.2166  0.1734
  870TIP3    H1 2616   6.065   1.657   0.746 -0.5499 -0.0787  0.4231
  870TIP3    H2 2617   6.023   1.576   0.625  1.3555  1.5646 -1.4340
  871TIP3   OH2 2618   5.961   4.970   0.298  0.3782  0.3169  0.2779
  871TIP3    H1 2619   5.984   4.940   0.210 -0.4603  1.9254 -0.5208
  871TIP3    H2 2620   5.938   4.890   0.345  1.4030 -0.6378 -0.7718
  872TIP3   OH2 2621   5.110   2.222   0.445  0.1734  0.2515 -0.2561
  872TIP3    H1 2622   5.054   2.185   0.513 -0.9065  1.7140 -0.3088
  872TIP3    H2 2623   5.175   2.153   0.428 -0.2785 -0.6392  1.3473
  873TIP3   OH2 2624   1.845   1.546   3.736  0.4441 -0.1243  0.1427
  873TIP3    H1 2625   1.843   1.637   3.765  2.6789  0.6116 -1.6795
  873TIP3    H2 2626   1.918   1.506   3.784  1.8592  0.1397 -1.6482
  874TIP3   OH2 2627   0.374   5.466   4.752 -0.6025 -0.0606  0.0518
  874TIP3    H1 2628   0.385   5.530   4.681 -0.2161  1.1754  1.1770
  874TIP3    H2 2629   0.461   5.427   4.762 -0.3475  0.6350  0.6252
  875TIP3   OH2 2630   3.101   0.688   0.477  0.4576  0.0544  0.2873
  875TIP3    H1 2631   3.017   0.708   0.437  0.5334 -0.9987 -0.4352
  875TIP3    H2 2632   3.086   0.605   0.522  1.0152  0.0455  0.4579
  876TIP3   OH2 2633   4.452   2.758   4.339  0.2775  0.4726 -0.4314
  876TIP3    H1 2634   4.542   2.765   4.371  0.4467  0.7937 -0.9666
  876TIP3    H2 2635   4.427   2.667   4.357 -0.2358  1.0600  2.1380
  877TIP3   OH2 2636   1.553   5.582   3.731  1.1251 -0.1526  0.3769
  877TIP3    H1 2637   1.504   5.513   3.686  0.5101  1.1807 -1.0866
  877TIP3    H2 2638   1.569   5.546   3.819  0.2707 -1.8850 -0.1236
  878TIP3   OH2 2639   1.102   2.781   2.977  0.0723  0.3762 -0.2598
  878TIP3    H1 2640   1.025   2.725   2.982  0.6621 -0.3505  1.0107
  878TIP3    H2 2641   1.144   2.756   2.894 -1.0384  0.7930 -0.9708
  879TIP3   OH2 2642   3.629   2.049   2.812 -0.0819  0.3833 -0.5955
  879TIP3    H1 2643   3.618   2.022   2.721  1.3322  0.7943 -0.9238
  879TIP3    H2 2644   3.575   2.128   2.821  0.5271  0.9082 -1.3792
  880TIP3   OH2 2645   2.244   4.540   3.968 -0.3395  0.2129  0.0609
  880TIP3    H1 2646   2.199   4.509   3.889 -0.4754  0.4860  0.0312
  880TIP3    H2 2647   2.181   4.599   4.009  1.0521  3.0210 -1.5313
  881TIP3   OH2 2648   0.995   1.561   3.547  0.0213  0.1628  0.9846
  881TIP3    H1 2649   1.029   1.595   3.464 -2.7066  2.7411  0.7790
  881TIP3    H2 2650   0.998   1.466   3.537 -1.0186  0.3616 -2.4643
  882TIP3   OH2 2651   0.742   0.852   1.287 -0.0225 -0.4856 -0.5767
  882TIP3    H1 2652   0.831   0.857   1.321 -0.6647 -1.6781  1.4214
  882TIP3    H2 2653   0.729   0.935   1.240  1.7419  0.1709  0.0463
  883TIP3   OH2 2654   1.640   1.645   1.380 -0.0978 -0.0762 -0.0487
  883TIP3    H1 2655   1.669   1.709   1.314 -0.2808  1.7209  1.5302
  883TIP3    H2 2656   1.546   1.636   1.364 -0.3874  1.3071  0.6681
  884TIP3   OH2 2657   0.691   2.840   0.166  0.1102  0.3654  0.3041
  884TIP3    H1 2658   0.685   2.876   0.078  0.4755  0.4706  0.3201
  884TIP3    H2 2659   0.784   2.843   0.187  0.2467 -1.2560  0.0365
  885TIP3   OH2 2660   6.323   3.184   1.289  0.0850  0.2425 -0.0565
  885TIP3    H1 2661   6.260   3.113   1.301 -0.0834  0.6455  1.9229
  885TIP3    H2 2662   6.270   3.263   1.285  0.3439  0.3767 -0.7963
  886TIP3   OH2 2663   3.904   4.227   2.253  0.3679  0.3767  0.8423
  886TIP3    H1 2664   3.887   4.320   2.266  1.3697  0.5285  1.1454
  886TIP3    H2 2665   3.836   4.198   2.192  0.4994  1.4680  0.1600
  887TIP3   OH2 2666   4.325   4.367   2.742 -0.6774 -0.3329 -0.3058
  887TIP3    H1 2667   4.271   4.418   2.803 -1.8951 -1.8355 -0.0641
  887TIP3    H2 2668   4.393   4.329   2.797 -0.6761 -0.1965 -0.2122
  888TIP3   OH2 2669   2.333   4.378   3.668  0.2164 -0.5702  0.4115
  888TIP3    H1 2670   2.380   4.297   3.687  2.3789  0.5786  0.2236
  888TIP3    H2 2671   2.324   4.378   3.572  0.9943 -0.1835  0.3363
  889TIP3   OH2 2672   1.801   0.366   1.446  0.1592 -0.1983 -0.0920
  889TIP3    H1 2673   1.761   0.291   1.491  0.4376 -0.7427 -0.7402
  889TIP3    H2 2674   1.801   0.342   1.354  1.1652  0.1774 -0.2011
  890TIP3   OH2 2675   1.981   2.444   2.079 -0.7004  0.1480  0.1319
  890TIP3    H1 2676   1.958   2.392   2.156 -0.3400 -0.3599 -0.0957
  890TIP3    H2 2677   1.898   2.462   2.036 -0.7953 -0.6213 -0.0183
  891TIP3   OH2 2678   3.693   5.732   3.468  0.1669  0.4144  0.0987
  891TIP3    H1 2679   3.608   5.720   3.512  0.3330  0.4616  0.4419
  891TIP3    H2 2680   3.753   5.755   3.540  0.4366  0.5280 -0.1628
  892TIP3   OH2 2681   4.215   5.796   0.612 -0.1775  0.2308 -0.4797
  892TIP3    H1 2682   4.136   5.781   0.662  0.1116 -0.4449 -0.2171
  892TIP3    H2 2683   4.286   5.794   0.677 -0.0333  2.0000 -0.5290
  893TIP3   OH2 2684   1.595   1.126   0.031 -0.0629 -0.2727 -0.4374
  893TIP3    H1 2685   1.501   1.131   0.011 -0.7174 -1.4429  1.9349
  893TIP3    H2 2686   1.598   1.083   0.117  2.5489  1.4347  0.4276
  894TIP3   OH2 2687   6.009   4.061   4.686  0.5891 -0.4867  0.7328
  894TIP3    H1 2688   6.005   4.067   4.782  0.6722 -1.5680  0.8170
  894TIP3    H2 2689   5.920   4.079   4.657  0.3998 -0.8587  1.0692
  895TIP3   OH2 2690   2.312   2.778   1.004  0.6940  0.6243 -0.7846
  895TIP3    H1 2691   2.332   2.689   0.974 -0.7492  0.4830 -1.4145
  895TIP3    H2 2692   2.339   2.778   1.096  2.5334  0.1733 -1.2691
  896TIP3   OH2 2693   4.736   2.455   1.372 -0.3491 -0.1115 -0.0816
  896TIP3    H1 2694   4.751   2.523   1.438  1.2754  0.2934 -0.8276
  896TIP3    H2 2695   4.726   2.502   1.290 -0.0050 -0.7281 -0.4871
  897TIP3   OH2 2696   3.250   5.555   0.993 -0.6705 -0.1750  0.2715
  897TIP3    H1 2697   3.274   5.643   1.023 -1.6304  0.6175 -1.2055
  897TIP3    H2 2698   3.155   5.552   0.999 -0.6671 -1.0305  0.0591
  898TIP3   OH2 2699   0.188   0.779   4.535  0.9988 -0.5760 -0.0264
  898TIP3    H1 2700   0.240   0.699   4.533  2.7473  0.2807  3.5438
  898TIP3    H2 2701   0.098   0.749   4.547  1.4461 -2.0108 -0.1158
  899TIP3   OH2 2702   5.682   3.975   1.308 -0.0395 -0.7931  0.1410
  899TIP3    H1 2703   5.674   4.023   1.391  1.9042  0.2574 -0.2220
  899TIP3    H2 2704   5.707   4.042   1.244 -0.0411 -1.8402 -0.9887
  900TIP3   OH2 2705   0.015   5.196   1.214  0.2898 -0.0952  0.4009
  900TIP3    H1 2706  -0.005   5.265   1.151  0.6592  0.9480  1.3846
  900TIP3    H2 2707   0.100   5.221   1.251 -0.4313 -0.0451  2.1252
  901TIP3   OH2 2708   3.453   0.131   3.200 -0.1303 -0.7663 -0.9836
  901TIP3    H1 2709   3.382   0.104   3.259  0.9156 -2.1960 -0.2911
  901TIP3    H2 2710   3.516   0.176   3.258  0.3095 -1.0385 -1.2440
  902TIP3   OH2 2711   3.215   3.565   1.143  0.1087 -0.1116  0.1424
  902TIP3    H1 2712   3.137   3.599   1.187 -0.2112 -1.2570  0.4967
  902TIP3    H2 2713   3.181   3.506   1.076  0.6388  0.6848 -0.8582
  903TIP3   OH2 2714   3.613   4.196   3.264 -0.1908 -0.8136 -0.3727
  903TIP3    H1 2715   3.637   4.117   3.312 -1.7549 -0.5359  0.9527
  903TIP3    H2 2716   3.558   4.165   3.193 -1.3019 -0.9108  0.4989
  904TIP3   OH2 2717   4.578   0.979   1.441 -0.2357  0.2064 -0.8691
  904TIP3    H1 2718   4.542   0.926   1.512 -0.3785  0.9478 -0.3716
  904TIP3    H2 2719   4.650   0.927   1.405  0.7674  0.4058  0.7584
  905TIP3   OH2 2720   2.885   4.976   0.499  0.3891  0.0193  0.4302
  905TIP3    H1 2721   2.959   5.035   0.504  2.6133 -2.4696 -0.7809
  905TIP3    H2 2722   2.836   4.992   0.580  1.3251  2.7944  0.5516
  906TIP3   OH2 2723   4.603   2.080   0.748  0.1099  0.3844 -0.4325
  906TIP3    H1 2724   4.633   2.165   0.715 -0.4039  1.2331  1.1736
  906TIP3    H2 2725   4.544   2.102   0.820 -0.8675 -1.3336 -0.6561
  907TIP3   OH2 2726   0.287   4.537   0.498 -0.1534  0.1528 -0.1296
  907TIP3    H1 2727   0.197   4.504   0.499 -0.5114  1.0747 -0.4160
  907TIP3    H2 2728   0.331   4.486   0.431 -0.2043 -0.9436  0.6505
  908TIP3   OH2 2729   3.545   2.297   0.629  0.0907  0.1584 -0.0227
  908TIP3    H1 2730   3.493   2.371   0.662  0.8672  0.0859  1.4486
  908TIP3    H2 2731   3.482   2.225   0.624 -1.0032  1.1631 -2.7615
  909TIP3   OH2 2732   4.593   4.169   1.472  0.0249  0.1323  0.2477
  909TIP3    H1 2733   4.511   4.176   1.424 -0.2002  0.5179  0.6899
  909TIP3    H2 2734   4.580   4.221   1.551  0.1932 -0.9526  1.0101
  910TIP3   OH2 2735   0.236   4.231   0.947  0.0309 -0.0594 -0.4835
  910TIP3    H1 2736   0.208   4.148   0.986  0.7586 -0.0757  0.0253
  910TIP3    H2 2737   0.231   4.217   0.853 -1.3691 -0.1560 -0.4166
  911TIP3   OH2 2738   5.760   2.935   1.753 -0.2294 -0.1561 -0.3042
  911TIP3    H1 2739   5.707   2.855   1.758 -0.9943  0.1356 -2.6251
  911TIP3    H2 2740   5.851   2.904   1.748 -0.5074 -0.8979 -0.9713
  912TIP3   OH2 2741   2.031   5.773   0.384 -0.1651  0.4687 -0.0841
  912TIP3    H1 2742   1.942   5.762   0.352 -0.5273 -0.4442  1.1632
  912TIP3    H2 2743   2.063   5.852   0.340 -0.4436 -0.8931 -2.9966
  913TIP3   OH2 2744   0.277   5.126   0.787  0.6369 -0.0339  0.4083
  913TIP3    H1 2745   0.191   5.149   0.821  0.2653 -2.2949  1.1848
  913TIP3    H2 2746   0.336   5.191   0.826 -0.3950  0.0825  1.8634
  914TIP3   OH2 2747   3.597   2.292   3.912 -0.1390 -0.4621  0.1475
  914TIP3    H1 2748   3.621   2.254   3.827 -1.5092 -1.9450  0.3704
  914TIP3    H2 2749   3.523   2.239   3.941 -0.8524  1.1800  1.4414
  915TIP3   OH2 2750   0.103   3.731   3.537  0.3473  0.2449  0.4802
  915TIP3    H1 2751   0.061   3.768   3.615 -1.1215 -2.8441  1.2818
  915TIP3    H2 2752   0.166   3.668   3.572 -1.7480 -2.6824 -0.6886
  916TIP3   OH2 2753   1.752   4.952   1.374 -0.9727  0.5000  0.2613
  916TIP3    H1 2754   1.738   4.862   1.346 -2.2581  0.7229  0.1312
  916TIP3    H2 2755   1.771   4.999   1.293 -4.3587  1.0811 -0.3507
  917TIP3   OH2 2756   3.289   3.099   4.111  0.3679  0.3500  0.0186
  917TIP3    H1 2757   3.322   3.023   4.158 -0.3145 -0.2644 -0.4787
  917TIP3    H2 2758   3.273   3.164   4.180  0.9844  0.0628  0.4404
  918TIP3   OH2 2759   4.368   0.080   1.704  0.2344 -0.1141  0.0151
  918TIP3    H1 2760   4.406   0.013   1.761 -0.4955 -1.4843 -1.0477
  918TIP3    H2 2761   4.438   0.144   1.693  1.3943 -1.3220  0.0893
  919TIP3   OH2 2762   4.031   3.567   5.032  0.4776  0.1938  0.2423
  919TIP3    H1 2763   4.080   3.604   5.105  0.3568  1.2086 -0.1625
  919TIP3    H2 2764   4.082   3.591   4.955 -0.0990  0.3316 -0.1060
  920TIP3   OH2 2765   3.372   3.048   4.982 -0.7271  0.1292 -0.1021
  920TIP3    H1 2766   3.413   3.077   4.901 -0.9123  0.6108 -0.0273
  920TIP3    H2 2767   3.431   3.078   5.051  0.0903 -1.3782 -0.0966
  921TIP3   OH2 2768   1.210   1.746   0.424 -0.0429  0.1702  0.1286
  921TIP3    H1 2769   1.265   1.772   0.497 -0.4834 -0.0624  0.5513
  921TIP3    H2 2770   1.263   1.762   0.346  1.3239 -1.7143  0.5859
  922TIP3   OH2 2771   2.036   5.184   2.678 -0.3389 -0.2241  0.4104
  922TIP3    H1 2772   2.121   5.200   2.719 -1.2239  1.0712  1.8531
  922TIP3    H2 2773   2.055   5.125   2.606  1.6192 -0.9160  1.4156
  923TIP3   OH2 2774   1.606   0.841   0.798  0.1731  0.2406 -0.0324
  923TIP3    H1 2775   1.549   0.772   0.765  0.1897  0.1873  0.0505
  923TIP3    H2 2776   1.575   0.857   0.887 -0.6386  1.2047 -0.4749
  924TIP3   OH2 2777   5.082   3.078   1.536 -0.0875  0.5630  0.2233
  924TIP3    H1 2778   5.084   3.017   1.610  3.0787 -0.0322 -0.2322
  924TIP3    H2 2779   4.989   3.088   1.516 -0.9592 -0.4494  3.2674
  925TIP3   OH2 2780   5.479   0.433   0.662  0.0318 -0.2678 -0.2562
  925TIP3    H1 2781   5.395   0.468   0.633 -0.2156 -1.1988 -0.6943
  925TIP3    H2 2782   5.458   0.348   0.702  0.6056  0.0994  0.8907
  926TIP3   OH2 2783   2.580   3.296   4.594  0.2606  0.1045  0.3396
  926TIP3    H1 2784   2.637   3.244   4.650  0.6040  0.5935  0.4528
  926TIP3    H2 2785   2.593   3.386   4.624 -3.0163  0.0028  2.6308
  927TIP3   OH2 2786   4.306   5.472   0.252 -0.2151  0.1472  0.1598
  927TIP3    H1 2787   4.379   5.514   0.207 -1.0695  1.0704 -0.4086
  927TIP3    H2 2788   4.318   5.495   0.344  0.0272  0.5670  0.0256
  928TIP3   OH2 2789   6.066   5.947   0.050  0.1759  0.3155 -0.0908
  928TIP3    H1 2790   5.998   5.902   0.001 -0.2679  1.0575 -0.1781
  928TIP3    H2 2791   6.116   5.995  -0.017 -0.1765  0.9995  0.1200
  929TIP3   OH2 2792   5.320   3.368   2.793 -0.4742 -0.2022 -0.4383
  929TIP3    H1 2793   5.361   3.438   2.844  0.8351  0.1445 -1.8681
  929TIP3    H2 2794   5.258   3.327   2.853  2.4882 -1.2522  2.1668
  930TIP3   OH2 2795   1.668   5.628   3.322  0.3960  0.1905 -0.5685
  930TIP3    H1 2796   1.592   5.682   3.341  0.0242 -0.9422  1.5032
  930TIP3    H2 2797   1.633   5.548   3.284  0.2545 -1.1203  2.0822
  931TIP3   OH2 2798   4.730   2.333   2.901  0.5903  0.3601  0.0727
  931TIP3    H1 2799   4.708   2.321   2.809 -0.1199  1.2742  0.1097
  931TIP3    H2 2800   4.808   2.388   2.900 -0.0859  1.3521  0.0154
  932TIP3   OH2 2801   0.161   1.773   1.309  0.0637 -0.5370 -0.4305
  932TIP3    H1 2802   0.159   1.712   1.383 -0.3212 -1.2288 -0.9887
  932TIP3    H2 2803   0.148   1.717   1.233  1.2107  0.0649 -1.0941
  933TIP3   OH2 2804   1.453   3.031   3.746 -0.1503 -0.2086 -0.9424
  933TIP3    H1 2805   1.460   3.085   3.667  1.3541 -0.5683 -1.0978
  933TIP3    H2 2806   1.491   3.084   3.815  0.9879 -0.8909 -1.0180
  934TIP3   OH2 2807   5.440   4.126   3.487  0.0334  0.3221  0.4232
  934TIP3    H1 2808   5.478   4.041   3.467  1.4459  0.4961  2.1524
  934TIP3    H2 2809   5.514   4.186   3.490 -0.7212  1.2576  1.0074
  935TIP3   OH2 2810   2.606   3.466   3.177 -0.2144  0.4362 -0.1709
  935TIP3    H1 2811   2.628   3.450   3.269  0.9862 -0.2906 -0.5544
  935TIP3    H2 2812   2.519   3.506   3.179 -0.3172  0.1816  1.2588
  936TIP3   OH2 2813   5.685   2.406   0.056 -0.3655  0.1517 -0.0167
  936TIP3    H1 2814   5.606   2.392   0.005 -0.2374 -0.7236  0.0206
  936TIP3    H2 2815   5.757   2.388  -0.006 -0.1881  0.6341  0.0375
  937TIP3   OH2 2816   3.016   3.039   2.860 -0.2936 -0.3631 -0.0887
  937TIP3    H1 2817   3.083   2.986   2.904  0.0637  1.1862  1.3690
  937TIP3    H2 2818   2.962   3.073   2.932 -1.0584  0.4891 -1.0423
  938TIP3   OH2 2819   4.923   4.971   3.063 -0.3558  0.4257  0.0254
  938TIP3    H1 2820   4.855   5.028   3.098 -0.1758  0.3240  0.5451
  938TIP3    H2 2821   4.896   4.882   3.089  0.3923  0.4521  0.9633
  939TIP3   OH2 2822   3.621   0.534   2.134  0.3366  0.3926 -0.7119
  939TIP3    H1 2823   3.648   0.626   2.133 -1.7709  1.0604 -2.0555
  939TIP3    H2 2824   3.526   0.537   2.148  0.4836 -1.7124  1.4649
  940TIP3   OH2 2825   0.689   0.076   4.026  0.4563  0.6649  0.0531
  940TIP3    H1 2826   0.766   0.026   3.997 -0.4692 -0.3389 -0.8112
  940TIP3    H2 2827   0.615   0.027   3.989 -0.5214  2.5522 -0.5993
  941TIP3   OH2 2828   1.170   1.386   0.108 -0.7237 -0.5690  0.4524
  941TIP3    H1 2829   1.150   1.438   0.186  0.4923  2.8922 -1.3490
  941TIP3    H2 2830   1.084   1.367   0.069 -1.1829  0.6724  0.8304
  942TIP3   OH2 2831   4.080   0.803   2.070  0.1421  0.0121 -0.0704
  942TIP3    H1 2832   4.067   0.779   1.978 -0.4630 -0.6426  0.1840
  942TIP3    H2 2833   4.129   0.885   2.066  0.3493 -0.1438 -0.9760
  943TIP3   OH2 2834   6.053   3.136   3.510 -0.5178 -0.1138  0.3680
  943TIP3    H1 2835   6.107   3.125   3.432  1.2900 -0.2105  1.5568
  943TIP3    H2 2836   6.065   3.055   3.560 -1.7616 -0.1203  0.6895
  944TIP3   OH2 2837   1.965   4.271   2.254 -0.1920 -0.1319 -0.8626
  944TIP3    H1 2838   2.009   4.201   2.207  0.0989 -0.2622 -0.3952
  944TIP3    H2 2839   2.005   4.352   2.222  1.4457 -0.3039  0.6198
  945TIP3   OH2 2840   2.610   0.219   3.362  0.4882  0.5404 -0.4824
  945TIP3    H1 2841   2.705   0.223   3.351  0.4558  1.3942 -0.5797
  945TIP3    H2 2842   2.591   0.287   3.427 -0.0629  0.4586 -0.5516
  946TIP3   OH2 2843   6.278   5.050   4.286  0.5580  0.6348  0.5585
  946TIP3    H1 2844   6.206   4.994   4.316 -0.7052  1.7505 -0.2747
  946TIP3    H2 2845   6.328   4.995   4.225 -0.7353  0.4177 -0.3480
  947TIP3   OH2 2846   1.712   4.191   2.826 -0.6413 -0.3465 -0.6357
  947TIP3    H1 2847   1.701   4.118   2.888 -0.3013 -1.3434 -1.7040
  947TIP3    H2 2848   1.794   4.172   2.781 -1.0750  0.1387 -1.6630
  948TIP3   OH2 2849   1.287   1.872   1.923 -0.4573 -0.1267  0.0413
  948TIP3    H1 2850   1.251   1.787   1.947 -0.8050  0.3231  1.1664
  948TIP3    H2 2851   1.297   1.919   2.006  0.3033  0.7103 -0.4990
  949TIP3   OH2 2852   5.227   2.683   4.232  0.4939 -0.0923 -0.8840
  949TIP3    H1 2853   5.209   2.602   4.278 -1.8514  0.5764 -0.4947
  949TIP3    H2 2854   5.213   2.662   4.139 -0.7455 -0.0291 -0.7331
  950TIP3   OH2 2855   4.518   2.257   3.314  0.4510  0.2939 -0.0627
  950TIP3    H1 2856   4.526   2.182   3.256 -1.4175 -1.7389  2.0931
  950TIP3    H2 2857   4.447   2.310   3.276 -2.6563 -2.3873  1.5032
  951TIP3   OH2 2858   2.278   2.278   3.921  0.5309  0.4492 -0.6604
  951TIP3    H1 2859   2.189   2.269   3.956  0.9866  1.0461  0.7022
  951TIP3    H2 2860   2.269   2.342   3.851  0.1804  2.0722  0.7882
  952TIP3   OH2 2861   2.322   4.190   4.232 -0.3297 -0.4286  0.1617
  952TIP3    H1 2862   2.234   4.218   4.210 -0.3397 -0.6059 -0.0221
  952TIP3    H2 2863   2.370   4.193   4.149 -0.2861 -0.7864  0.1738
  953TIP3   OH2 2864   6.048   5.370   3.006  0.4085 -0.3556 -0.2971
  953TIP3    H1 2865   6.131   5.389   3.049  0.4348  0.0380 -0.5163
  953TIP3    H2 2866   5.984   5.423   3.053  0.5236  0.4995 -1.0822
  954TIP3   OH2 2867   5.935   3.935   3.871 -0.0706  0.0062  0.4988
  954TIP3    H1 2868   5.945   3.847   3.906 -0.9274  0.1574  1.1374
  954TIP3    H2 2869   5.854   3.931   3.819 -0.3618  0.5331  0.9098
  955TIP3   OH2 2870   1.369   2.686   2.077 -0.1373  0.4539 -0.2176
  955TIP3    H1 2871   1.437   2.725   2.132 -1.0075  1.4999  0.1726
  955TIP3    H2 2872   1.396   2.706   1.987 -0.1407  1.2497 -0.0479
  956TIP3   OH2 2873   3.110   5.625   2.599  0.5802 -0.0231 -0.3099
  956TIP3    H1 2874   3.080   5.701   2.648  1.3925  0.0347  0.1123
  956TIP3    H2 2875   3.196   5.605   2.636  1.0173 -0.2471 -1.4043
  957TIP3   OH2 2876   1.317   0.480   4.420  0.3312 -0.6615  0.2904
  957TIP3    H1 2877   1.330   0.389   4.393  2.4975 -0.1197 -0.7419
  957TIP3    H2 2878   1.334   0.480   4.514  0.0883 -1.3710  0.3396
  958TIP3   OH2 2879   3.743   1.088   5.113  0.0018 -0.3280  0.6194
  958TIP3    H1 2880   3.690   1.008   5.122  0.8835 -0.9331  0.5040
  958TIP3    H2 2881   3.762   1.093   5.019  0.6103 -0.4162  0.7362
  959TIP3   OH2 2882   5.468   2.827   3.170  0.3891 -0.1071 -0.7552
  959TIP3    H1 2883   5.429   2.741   3.179  0.0547  0.0452 -0.7219
  959TIP3    H2 2884   5.546   2.825   3.225 -0.4999  0.1384  0.5410
  960TIP3   OH2 2885   0.851   1.320   1.286 -0.0338 -0.1945 -0.0159
  960TIP3    H1 2886   0.925   1.378   1.271  0.8293 -1.7116 -2.2667
  960TIP3    H2 2887   0.776   1.367   1.250 -0.1050  1.0505  1.6346
  961TIP3   OH2 2888   2.612   0.791   0.113 -0.1324  0.1739 -0.0379
  961TIP3    H1 2889   2.707   0.808   0.114  0.5431 -2.9245  0.8637
  961TIP3    H2 2890   2.598   0.744   0.031 -1.0183  1.0119 -0.3808
  962TIP3   OH2 2891   0.155   5.174   2.900 -0.4424 -0.2705 -0.3475
  962TIP3    H1 2892   0.064   5.202   2.918 -0.4351 -1.1864  1.3685
  962TIP3    H2 2893   0.146   5.099   2.842 -1.0187 -1.9207  1.7190
  963TIP3   OH2 2894   4.019   3.416   0.020  0.1971 -0.0748 -0.9293
  963TIP3    H1 2895   4.039   3.328   0.052  1.0805  0.5785  0.3936
  963TIP3    H2 2896   3.939   3.441   0.067 -0.0366 -0.1408 -1.2824
  964TIP3   OH2 2897   0.398   3.477   2.193  0.3333  0.0153  0.3216
  964TIP3    H1 2898   0.308   3.501   2.218  0.1632 -1.0216  0.7916
  964TIP3    H2 2899   0.401   3.382   2.205  1.6578  0.0973  0.8473
  965TIP3   OH2 2900   3.086   5.829   3.676 -0.0208 -0.5376 -0.0519
  965TIP3    H1 2901   3.006   5.802   3.721  1.2212 -1.1876  1.8522
  965TIP3    H2 2902   3.082   5.925   3.676  0.3375 -0.4877  2.2358
  966TIP3   OH2 2903   5.787   5.827   0.533  0.3364 -0.1409 -0.4879
  966TIP3    H1 2904   5.811   5.836   0.626 -2.3148  0.2232  0.2361
  966TIP3    H2 2905   5.842   5.891   0.488  0.1807  1.1850  1.1244
  967TIP3   OH2 2906   5.630   3.407   3.493 -0.3272  0.4602  0.2953
  967TIP3    H1 2907   5.671   3.344   3.552  0.6665  1.0496  0.2608
  967TIP3    H2 2908   5.604   3.356   3.417  0.1788  0.0304  0.4041
  968TIP3   OH2 2909   1.759   4.631   2.207  0.3335 -0.0711  0.3525
  968TIP3    H1 2910   1.702   4.566   2.250  0.1162 -0.4902 -0.5414
  968TIP3    H2 2911   1.844   4.589   2.202  0.1493 -0.3815 -0.3915
  969TIP3   OH2 2912   5.310   4.714   0.233 -0.6041 -0.2772 -0.4843
  969TIP3    H1 2913   5.384   4.662   0.203 -1.4299 -0.4437 -2.3588
  969TIP3    H2 2914   5.259   4.654   0.287 -1.6021 -1.5290 -2.6936
  970TIP3   OH2 2915   1.632   1.131   5.114 -0.1687 -0.5223 -0.4521
  970TIP3    H1 2916   1.596   1.044   5.093  2.6409 -1.2631 -2.9100
  970TIP3    H2 2917   1.627   1.179   5.032  0.5122  0.7927  0.2548
  971TIP3   OH2 2918   5.394   0.680   5.142  0.0594 -0.5413 -0.1411
  971TIP3    H1 2919   5.317   0.731   5.118 -0.0110 -1.0096 -0.9138
  971TIP3    H2 2920   5.432   0.728   5.216 -0.7101 -0.0609 -0.0509
  972TIP3   OH2 2921   2.715   2.223   1.043  0.5177  0.0303 -0.2296
  972TIP3    H1 2922   2.647   2.159   1.066 -0.1923  0.6919 -0.4465
  972TIP3    H2 2923   2.673   2.308   1.054  1.7038  0.5130  0.8525
  973TIP3   OH2 2924   4.303   1.326   1.642 -0.1018 -0.1214  0.4173
  973TIP3    H1 2925   4.209   1.321   1.622  0.2516  0.1032 -1.5140
  973TIP3    H2 2926   4.314   1.273   1.720 -1.7222 -0.8411  0.1950
  974TIP3   OH2 2927   3.364   5.313   3.239 -0.1897 -0.0731 -0.0093
  974TIP3    H1 2928   3.425   5.373   3.195 -0.0702  0.9077  1.4012
  974TIP3    H2 2929   3.281   5.326   3.194 -0.4701  2.1126  1.0154
  975TIP3   OH2 2930   5.838   1.849   3.011  0.0337 -0.2624  0.5949
  975TIP3    H1 2931   5.879   1.844   2.924 -0.1797 -0.7087  0.5122
  975TIP3    H2 2932   5.910   1.835   3.072  0.0559 -0.8150  0.4578
  976TIP3   OH2 2933   2.678   1.506   3.570  0.1436  0.7708 -0.5996
  976TIP3    H1 2934   2.645   1.471   3.487 -0.5651 -3.0690  1.0833
  976TIP3    H2 2935   2.600   1.514   3.625  0.9729 -0.0216  0.7348
  977TIP3   OH2 2936   4.347   5.454   4.701 -0.4744 -0.7805 -0.2707
  977TIP3    H1 2937   4.274   5.400   4.732 -1.0786 -0.2455 -0.7238
  977TIP3    H2 2938   4.395   5.478   4.780  0.7173 -3.2189 -0.1672
  978TIP3   OH2 2939   5.861   3.554   0.447  1.1061  0.3909 -0.0183
  978TIP3    H1 2940   5.914   3.493   0.396  0.1521 -1.1003  0.6974
  978TIP3    H2 2941   5.814   3.606   0.382  0.1235 -1.2811 -0.7194
  979TIP3   OH2 2942   2.523   4.879   4.657 -0.0464  0.0307  0.1982
  979TIP3    H1 2943   2.583   4.807   4.636 -0.1176  0.3673 -1.2555
  979TIP3    H2 2944   2.477   4.896   4.575 -0.4347  1.3619  0.6759
  980TIP3   OH2 2945   2.929   0.063   4.918  0.2616 -0.0828 -0.2393
  980TIP3    H1 2946   2.944   0.078   5.011  1.5155  0.1774 -0.4738
  980TIP3    H2 2947   3.014   0.038   4.883 -0.3964 -1.1379 -1.1500
  981TIP3   OH2 2948   5.030   5.116   3.733 -0.4143 -0.6073 -0.3054
  981TIP3    H1 2949   5.117   5.091   3.704  0.3306  1.1797  0.2923
  981TIP3    H2 2950   5.021   5.074   3.819  0.6347  0.6796  0.4757
  982TIP3   OH2 2951   4.875   3.648   0.774  0.6761 -0.5170  0.3283
  982TIP3    H1 2952   4.854   3.738   0.751  1.7306 -0.5865 -1.0852
  982TIP3    H2 2953   4.792   3.600   0.761 -0.2921  0.4220  2.5147
  983TIP3   OH2 2954   3.985   1.192   2.701 -0.5142  0.2292  0.7531
  983TIP3    H1 2955   3.934   1.130   2.650  0.6428  0.8037 -1.2135
  983TIP3    H2 2956   3.955   1.180   2.791 -1.0090 -2.4660  0.3112
  984TIP3   OH2 2957   1.592   4.559   3.585 -0.4053  0.1529 -0.5705
  984TIP3    H1 2958   1.533   4.516   3.647  2.2746 -0.7528  1.5839
  984TIP3    H2 2959   1.590   4.503   3.507 -0.4437 -1.3898  0.4726
  985TIP3   OH2 2960   2.871   0.381   2.874 -0.3301  0.0238  0.0450
  985TIP3    H1 2961   2.780   0.402   2.897 -0.0908  1.9687 -0.5599
  985TIP3    H2 2962   2.870   0.367   2.780  0.0754  0.6705 -0.0650
  986TIP3   OH2 2963   0.501   2.820   1.721 -0.1577 -0.5325 -0.1781
  986TIP3    H1 2964   0.581   2.783   1.757 -0.9956 -1.1905  1.0880
  986TIP3    H2 2965   0.513   2.814   1.626  1.2047 -0.7754 -0.0168
  987TIP3   OH2 2966   0.202   1.184   4.097  0.3581  0.2596  0.4583
  987TIP3    H1 2967   0.187   1.089   4.106 -0.1820  0.1012 -1.5336
  987TIP3    H2 2968   0.296   1.194   4.113  0.4970 -0.6843  0.3475
  988TIP3   OH2 2969   4.599   5.239   4.314 -0.3839  0.5949 -0.2948
  988TIP3    H1 2970   4.565   5.313   4.265 -1.0011  0.1790 -0.4943
  988TIP3    H2 2971   4.525   5.208   4.366  0.4224  1.5269  1.5572
  989TIP3   OH2 2972   3.795   5.159   4.341 -0.2946 -0.0552  0.1244
  989TIP3    H1 2973   3.778   5.086   4.282  2.4396  0.4567 -1.4959
  989TIP3    H2 2974   3.800   5.236   4.284 -0.1275  0.9057  1.3772
  990TIP3   OH2 2975   2.533   2.429   1.331 -0.7879  0.0491 -0.0830
  990TIP3    H1 2976   2.582   2.427   1.413  0.4124  0.1304 -0.7663
  990TIP3    H2 2977   2.532   2.521   1.306  0.4430 -0.1677 -1.0427
  991TIP3   OH2 2978   2.148   1.421   0.813  0.4123 -0.0088 -0.7041
  991TIP3    H1 2979   2.057   1.393   0.804 -0.7902  2.6307  1.8422
  991TIP3    H2 2980   2.168   1.465   0.731 -0.2926 -1.2733 -1.5971
  992TIP3   OH2 2981   6.026   2.390   5.197  0.5758  0.5652 -0.3501
  992TIP3    H1 2982   5.934   2.412   5.187  0.3409  0.8746  1.8711
  992TIP3    H2 2983   6.053   2.358   5.111 -2.1061 -1.3760 -0.5928
  993TIP3   OH2 2984   4.148   3.239   4.088  0.4737  0.5585  0.0588
  993TIP3    H1 2985   4.239   3.253   4.113  0.3538 -0.7477  1.4001
  993TIP3    H2 2986   4.125   3.315   4.035  2.6564  0.4013 -1.2219
  994TIP3   OH2 2987   4.042   1.776   2.981  0.3584  0.3184  0.8787
  994TIP3    H1 2988   4.003   1.809   2.900  0.2254 -0.3871  0.6533
  994TIP3    H2 2989   4.100   1.706   2.953  0.0392 -0.1736  1.4222
  995TIP3   OH2 2990   6.292   4.806   2.747 -0.2492  0.3974 -0.1108
  995TIP3    H1 2991   6.362   4.857   2.706 -0.9985  1.0934 -0.5439
  995TIP3    H2 2992   6.212   4.837   2.706 -0.7050 -1.5103 -0.7802
  996TIP3   OH2 2993   0.790   0.163   3.777 -0.3124  0.4680 -0.4453
  996TIP3    H1 2994   0.732   0.109   3.723 -0.7666  1.8833 -1.4267
  996TIP3    H2 2995   0.747   0.167   3.862 -1.7367  1.5520 -1.1755
  997TIP3   OH2 2996   5.363   3.452   4.073 -0.4694 -0.2355  0.3976
  997TIP3    H1 2997   5.418   3.399   4.131 -0.4380 -0.4282  0.1928
  997TIP3    H2 2998   5.332   3.523   4.129 -0.6407 -0.5544  0.7188
  998TIP3   OH2 2999   1.391   1.754   0.218  0.2778  0.0850 -0.5557
  998TIP3    H1 3000   1.411   1.818   0.150 -0.4101 -0.1070 -0.9456
  998TIP3    H2 3001   1.477   1.730   0.254  0.6380  0.3016 -1.2461
  999TIP3   OH2 3002   1.118   3.226   3.118 -0.7495 -0.0090 -0.0916
  999TIP3    H1 3003   1.137   3.154   3.058  0.8998 -1.6891  2.2101
  999TIP3    H2 3004   1.060   3.188   3.184 -1.5263  1.3980  0.0762
 1000TIP3   OH2 3005   2.341   1.627   4.455  0.0263 -0.9254 -0.4143
 1000TIP3    H1 3006   2.374   1.716   4.441 -1.0655 -0.7110 -1.9047
 1000TIP3    H2 3007   2.249   1.639   4.479  0.2836 -1.6097  0.9850
 1001TIP3   OH2 3008   1.909   0.642   1.554 -0.2670  0.7112 -0.4347
 1001TIP3    H1 3009   1.960   0.565   1.532  0.6321  1.2816 -0.4136
 1001TIP3    H2 3010   1.930   0.706   1.485  0.8721  1.7492  0.8132
 1002TIP3   OH2 3011   3.103   4.407   1.568 -0.3046  0.6102  0.4760
 1002TIP3    H1 3012   3.163   4.451   1.629  1.5552 -1.0050 -0.0703
 1002TIP3    H2 3013   3.069   4.478   1.513 -0.3905  1.8209  1.9981
 1003TIP3   OH2 3014   1.787   5.796   2.952  0.2115 -0.1785  0.2728
 1003TIP3    H1 3015   1.736   5.833   3.024  2.8622  1.6347  1.3629
 1003TIP3    H2 3016   1.732   5.810   2.875 -1.3833  0.6647  1.5006
 1004TIP3   OH2 3017   5.415   2.379   4.045 -0.1944 -0.2322  0.4397
 1004TIP3    H1 3018   5.427   2.370   4.139 -0.7013 -1.7848  0.3726
 1004TIP3    H2 3019   5.331   2.336   4.027  0.4378 -0.9693 -0.8743
 1005TIP3   OH2 3020   5.561   3.694   2.400 -0.1944  0.3096  0.3556
 1005TIP3    H1 3021   5.530   3.785   2.401  1.6530  0.9854  0.8071
 1005TIP3    H2 3022   5.555   3.665   2.491 -2.1489 -0.5647 -0.0058
 1006TIP3   OH2 3023   3.022   1.476   1.924 -0.5498  0.5653 -0.1035
 1006TIP3    H1 3024   3.091   1.485   1.859 -0.7280 -0.3816 -0.4370
 1006TIP3    H2 3025   3.066   1.487   2.008  0.1142 -0.5517 -0.2854
 1007TIP3   OH2 3026   2.015   5.225   0.088  0.3230 -0.3788 -0.2242
 1007TIP3    H1 3027   1.931   5.270   0.090  0.0297 -0.9355  0.6097
 1007TIP3    H2 3028   2.060   5.261   0.012  0.4566  1.9402  0.8719
 1008TIP3   OH2 3029   3.688   3.275   1.812  0.0928  0.3533 -0.4845
 1008TIP3    H1 3030   3.775   3.269   1.772  0.2165  0.3136 -0.2128
 1008TIP3    H2 3031   3.631   3.227   1.752  0.3277  0.0563 -0.4714
 1009TIP3   OH2 3032   4.238   1.763   4.640  0.0117  0.2504  0.0274
 1009TIP3    H1 3033   4.190   1.782   4.560  2.2590  1.6981 -1.0966
 1009TIP3    H2 3034   4.199   1.821   4.706 -1.3929 -0.4541 -0.1462
 1010TIP3   OH2 3035   0.835   0.314   0.218  0.7339  0.3938 -0.1332
 1010TIP3    H1 3036   0.779   0.255   0.268 -2.0975  0.4801 -2.8603
 1010TIP3    H2 3037   0.886   0.257   0.161 -1.0626  0.3934 -1.8513
 1011TIP3   OH2 3038   4.745   0.454   1.846 -0.4409  0.0880  0.6064
 1011TIP3    H1 3039   4.721   0.472   1.937 -0.5872  0.5620  0.4815
 1011TIP3    H2 3040   4.840   0.455   1.845 -0.4364 -0.1156  0.7910
 1012TIP3   OH2 3041   4.121   4.649   0.762  0.2748  0.1035 -0.1125
 1012TIP3    H1 3042   4.044   4.593   0.756  0.8740 -0.6208 -1.2807
 1012TIP3    H2 3043   4.159   4.648   0.674  2.3917 -0.6871  0.7506
 1013TIP3   OH2 3044   2.583   5.228   3.786 -0.3022  0.2569  0.2069
 1013TIP3    H1 3045   2.566   5.310   3.740  0.2814 -0.2130 -0.8639
 1013TIP3    H2 3046   2.676   5.232   3.808 -0.4784  0.2866  1.0027
 1014TIP3   OH2 3047   4.382   2.560   1.374 -0.3727  0.0663  0.2079
 1014TIP3    H1 3048   4.335   2.494   1.424  1.4992 -1.5848 -0.0797
 1014TIP3    H2 3049   4.457   2.584   1.429  0.0609  0.4603 -0.5335
 1015TIP3   OH2 3050   5.702   1.817   2.085  0.0757  0.4352 -0.0579
 1015TIP3    H1 3051   5.706   1.744   2.147 -1.5040 -0.5046 -0.9650
 1015TIP3    H2 3052   5.772   1.799   2.022 -1.2564 -1.2523 -1.1657
 1016TIP3   OH2 3053   0.316   1.156   1.661 -0.0052  0.1918 -0.9723
 1016TIP3    H1 3054   0.235   1.105   1.660 -0.6701  1.2163 -0.4595
 1016TIP3    H2 3055   0.294   1.237   1.614  0.0141  1.4975  1.1263
 1017TIP3   OH2 3056   1.463   1.478   0.647 -0.4305 -0.5457 -0.5784
 1017TIP3    H1 3057   1.491   1.466   0.556 -1.1235  1.0210 -1.0375
 1017TIP3    H2 3058   1.372   1.450   0.647 -0.3111 -0.9382 -0.2551
 1018TIP3   OH2 3059   5.958   3.099   1.077 -0.1357 -0.2409  0.2583
 1018TIP3    H1 3060   6.022   3.163   1.047  1.0959 -1.3987  0.3401
 1018TIP3    H2 3061   5.873   3.140   1.060  0.6066  1.0558 -0.4466
 1019TIP3   OH2 3062   4.293   5.284   3.059  0.5213 -0.2532  0.0887
 1019TIP3    H1 3063   4.360   5.239   3.111  0.8415 -0.0306 -0.1249
 1019TIP3    H2 3064   4.214   5.231   3.069  1.2808 -1.7510 -1.4262
 1020TIP3   OH2 3065   1.036   4.119   5.141 -0.1652 -0.3129 -0.2113
 1020TIP3    H1 3066   1.095   4.194   5.147 -1.9473  1.0852  1.2650
 1020TIP3    H2 3067   1.038   4.079   5.228  0.7635 -2.0391 -0.9851
 1021TIP3   OH2 3068   4.717   2.204   1.511 -0.1744  0.4490 -0.5597
 1021TIP3    H1 3069   4.640   2.242   1.554  0.4672  0.9327  0.2000
 1021TIP3    H2 3070   4.755   2.276   1.461  0.2217  0.4401 -0.2864
 1022TIP3   OH2 3071   2.695   2.503   4.709 -0.1555  0.3622  0.2217
 1022TIP3    H1 3072   2.782   2.466   4.693 -0.7262 -0.1697 -1.9376
 1022TIP3    H2 3073   2.697   2.589   4.667 -0.0189  1.3021  2.0618
 1023TIP3   OH2 3074   1.693   3.294   4.181 -0.0823  0.5430 -0.6373
 1023TIP3    H1 3075   1.619   3.332   4.134  0.4442  1.8169 -0.4760
 1023TIP3    H2 3076   1.719   3.218   4.129 -2.3659 -0.7998  0.0295
 1024TIP3   OH2 3077   6.033   4.968   2.638  0.6859  0.4166 -0.1162
 1024TIP3    H1 3078   6.063   5.009   2.557  0.7618  1.2262  0.3124
 1024TIP3    H2 3079   5.998   5.041   2.690  0.7526 -0.0768  0.6285
 1025TIP3   OH2 3080   3.337   2.191   3.660 -0.1245  0.0353 -0.0508
 1025TIP3    H1 3081   3.318   2.282   3.641 -1.2133 -0.3833 -1.0516
 1025TIP3    H2 3082   3.290   2.141   3.594 -0.0070 -1.2880  0.8047
 1026TIP3   OH2 3083   2.246   2.280   3.015 -0.5977 -0.1096 -0.2542
 1026TIP3    H1 3084   2.231   2.290   2.921 -1.4215  0.5206 -0.0652
 1026TIP3    H2 3085   2.159   2.265   3.051 -0.2865 -0.3301  0.4196
 1027TIP3   OH2 3086   5.159   3.395   2.307  0.3023 -0.1572  0.1762
 1027TIP3    H1 3087   5.204   3.412   2.389  0.2486 -0.3491  0.2440
 1027TIP3    H2 3088   5.119   3.480   2.284  0.7151  0.0181  0.1010
 1028TIP3   OH2 3089   4.071   5.361   0.514 -0.5698  0.0842  0.1097
 1028TIP3    H1 3090   4.021   5.416   0.574 -0.8210  1.5568 -1.3944
 1028TIP3    H2 3091   4.150   5.338   0.563  0.9569  4.1668 -0.1130
 1029TIP3   OH2 3092   6.042   2.448   3.438 -0.2509  0.6466 -0.0875
 1029TIP3    H1 3093   6.021   2.446   3.345 -1.9103  1.8069  0.2237
 1029TIP3    H2 3094   6.066   2.539   3.456  0.4224  0.3538  0.5559
 1030TIP3   OH2 3095   5.025   5.268   3.075  0.0697  0.1194 -0.3959
 1030TIP3    H1 3096   5.020   5.206   3.001  0.9272  0.3528 -0.6636
 1030TIP3    H2 3097   5.100   5.324   3.054  1.0497 -0.5241  1.2033
 1031TIP3   OH2 3098   1.424   4.488   3.795 -0.1235  0.1688  0.1417
 1031TIP3    H1 3099   1.392   4.417   3.852 -1.1826 -1.0599 -1.8694
 1031TIP3    H2 3100   1.346   4.537   3.772  0.1794  0.2174 -0.8125
 1032TIP3   OH2 3101   3.423   2.342   1.387  0.3159  0.5677 -0.4485
 1032TIP3    H1 3102   3.502   2.294   1.414 -0.8837 -0.8813  0.7005
 1032TIP3    H2 3103   3.351   2.281   1.406 -1.1536  2.1794 -0.6350
 1033TIP3   OH2 3104   5.983   0.081   3.335 -0.1381 -0.2009 -0.0586
 1033TIP3    H1 3105   5.945  -0.001   3.303  0.6048 -0.9141  0.8458
 1033TIP3    H2 3106   5.942   0.094   3.420  1.1356 -0.6406  0.6422
 1034TIP3   OH2 3107   4.125   4.758   3.478 -0.2114  0.0200  0.1522
 1034TIP3    H1 3108   4.042   4.784   3.438  0.6885 -0.2988 -2.0443
 1034TIP3    H2 3109   4.107   4.673   3.517 -1.3815  0.7940  1.4015
 1035TIP3   OH2 3110   3.800   5.379   3.232  0.1365  0.7670  0.7090
 1035TIP3    H1 3111   3.775   5.287   3.240 -1.0800  0.9888 -0.2910
 1035TIP3    H2 3112   3.885   5.384   3.275  0.7576 -1.0620 -0.2121
 1036TIP3   OH2 3113   1.319   2.029   2.208  0.2487 -0.1370  1.0133
 1036TIP3    H1 3114   1.240   2.006   2.258 -0.8010 -1.7338 -1.2331
 1036TIP3    H2 3115   1.377   1.954   2.220  0.3471 -0.1348  0.5528
 1037TIP3   OH2 3116   6.053   5.455   4.766 -0.4594  0.0726 -0.0262
 1037TIP3    H1 3117   6.035   5.529   4.709 -2.0730 -1.4624 -1.6225
 1037TIP3    H2 3118   6.121   5.487   4.826  0.9245  1.9410 -2.4193
 1038TIP3   OH2 3119   0.665   3.087   1.702 -0.2930 -0.2791 -0.0559
 1038TIP3    H1 3120   0.684   3.005   1.748  0.4165 -0.3752 -0.4964
 1038TIP3    H2 3121   0.646   3.060   1.612 -0.6527 -0.0120 -0.0583
 1039TIP3   OH2 3122   2.741   5.466   2.514 -0.7560  0.3323 -0.7619
 1039TIP3    H1 3123   2.720   5.522   2.440 -2.0627 -0.0121 -0.6746
 1039TIP3    H2 3124   2.823   5.424   2.490 -0.1092  1.7447 -1.1286
 1040TIP3   OH2 3125   4.192   0.699   1.181  0.2548  0.6271 -0.1647
 1040TIP3    H1 3126   4.277   0.679   1.142 -0.8680  0.4624 -2.7134
 1040TIP3    H2 3127   4.173   0.789   1.152 -0.7101  0.4255 -0.1804
 1041TIP3   OH2 3128   5.176   3.769   4.366 -0.6023  0.1879 -0.2862
 1041TIP3    H1 3129   5.107   3.767   4.299 -1.9627  2.5250  0.9462
 1041TIP3    H2 3130   5.227   3.847   4.346  0.5123 -0.4414 -0.0015
 1042TIP3   OH2 3131   3.762   3.819   2.823  0.3260 -0.4166 -0.6587
 1042TIP3    H1 3132   3.714   3.899   2.844  0.5217  0.4365 -3.1440
 1042TIP3    H2 3133   3.696   3.759   2.789  0.4500 -0.6456 -0.4993
 1043TIP3   OH2 3134   4.898   1.740   3.663  0.5717 -0.2292 -0.2919
 1043TIP3    H1 3135   4.928   1.662   3.615 -0.5993 -0.1012 -1.2980
 1043TIP3    H2 3136   4.917   1.720   3.755  2.0819 -0.8592 -0.7155
 1044TIP3   OH2 3137   0.795   5.525   0.403 -0.0960  0.4679  0.1832
 1044TIP3    H1 3138   0.861   5.594   0.401  0.5379 -0.1019  0.7420
 1044TIP3    H2 3139   0.816   5.475   0.482  0.0126 -0.8785 -0.6669
 1045TIP3   OH2 3140   0.033   3.494   3.298  0.1331  0.4036 -0.1563
 1045TIP3    H1 3141  -0.017   3.487   3.379 -2.5696  0.4848 -1.6912
 1045TIP3    H2 3142   0.082   3.412   3.293 -0.1999  0.1006  1.2229
 1046TIP3   OH2 3143   1.520   3.306   0.184  0.4230 -0.2091  0.4572
 1046TIP3    H1 3144   1.518   3.268   0.096 -0.9234  2.2018 -0.6764
 1046TIP3    H2 3145   1.591   3.371   0.180 -1.3842  1.8972  0.1102
 1047TIP3   OH2 3146   4.739   1.720   0.144 -0.0351  0.6089 -0.1900
 1047TIP3    H1 3147   4.806   1.707   0.076 -1.0922 -0.2003 -1.1389
 1047TIP3    H2 3148   4.753   1.809   0.176  2.5068 -0.0687  0.8096
 1048TIP3   OH2 3149   0.084   5.944   2.098  0.4162  0.2206 -0.6610
 1048TIP3    H1 3150   0.001   5.912   2.133  0.4941 -0.5282 -1.1442
 1048TIP3    H2 3151   0.124   5.992   2.170 -0.1484  0.0582 -0.2342
 1049TIP3   OH2 3152   3.755   5.860   0.659 -0.1060  0.0692  0.6760
 1049TIP3    H1 3153   3.680   5.804   0.679 -1.4122  1.2106 -0.7181
 1049TIP3    H2 3154   3.786   5.827   0.574  1.7856 -1.1454  1.7611
 1050TIP3   OH2 3155   4.690   1.880   1.836  0.0169 -0.2591 -0.4791
 1050TIP3    H1 3156   4.680   1.820   1.910  2.1346 -0.0162  0.0528
 1050TIP3    H2 3157   4.608   1.870   1.787 -1.8210  0.1613  2.2658
 1051TIP3   OH2 3158   0.470   4.925   1.211  0.1510  0.2356 -0.0737
 1051TIP3    H1 3159   0.503   4.840   1.182  0.3982 -0.3149  1.7043
 1051TIP3    H2 3160   0.546   4.983   1.207 -0.0296  0.4094 -1.3355
 1052TIP3   OH2 3161   0.296   3.356   4.515 -0.0338  0.6416  0.0924
 1052TIP3    H1 3162   0.358   3.380   4.446  0.7188 -0.7174  0.2527
 1052TIP3    H2 3163   0.210   3.363   4.473  0.4270 -0.3631 -1.0681
 1053TIP3   OH2 3164   1.469   5.080   0.411 -0.3037 -0.0365  0.0018
 1053TIP3    H1 3165   1.462   4.996   0.457 -0.0390 -0.2180 -0.2873
 1053TIP3    H2 3166   1.496   5.057   0.323  2.5982  0.5173  0.6496
 1054TIP3   OH2 3167   3.869   2.951   2.967  0.0741  0.3631  0.7637
 1054TIP3    H1 3168   3.878   2.894   2.891 -1.5605  0.0750  0.7678
 1054TIP3    H2 3169   3.777   2.976   2.968  0.7512  3.2142  0.6399
 1055TIP3   OH2 3170   3.910   2.553   2.659  0.2452 -0.4953  0.9325
 1055TIP3    H1 3171   4.001   2.579   2.674 -0.2624  2.1586  0.0280
 1055TIP3    H2 3172   3.914   2.490   2.588  1.2860  1.4128 -0.8102
 1056TIP3   OH2 3173   4.289   0.839   4.456  0.0143 -0.0352  0.4850
 1056TIP3    H1 3174   4.305   0.920   4.407 -2.8269 -0.6002 -1.6863
 1056TIP3    H2 3175   4.338   0.772   4.408 -2.3960 -0.5071 -1.5093
 1057TIP3   OH2 3176   2.718   2.908   0.428  0.1441 -0.7641  0.2799
 1057TIP3    H1 3177   2.678   2.975   0.484 -0.4060 -0.7242 -0.1520
 1057TIP3    H2 3178   2.811   2.931   0.427 -0.2281  0.9410 -1.0822
 1058TIP3   OH2 3179   3.727   1.516   1.508 -0.3055 -0.1522 -0.2788
 1058TIP3    H1 3180   3.700   1.445   1.567 -0.0616 -1.1634 -1.3482
 1058TIP3    H2 3181   3.741   1.473   1.424  1.9246  0.8194 -0.4527
 1059TIP3   OH2 3182   2.113   1.464   4.963  0.1074  0.1213 -0.1465
 1059TIP3    H1 3183   2.198   1.423   4.945 -0.6666 -0.6233 -2.4812
 1059TIP3    H2 3184   2.123   1.503   5.050  2.4068 -1.0423  0.1890
 1060TIP3   OH2 3185   2.990   0.387   1.891 -0.1461  0.0864  0.5036
 1060TIP3    H1 3186   2.972   0.312   1.833  0.5107  1.3284 -1.4104
 1060TIP3    H2 3187   2.907   0.404   1.935 -0.7577 -0.7215 -0.3029
 1061TIP3   OH2 3188   1.518   4.538   0.602 -0.3216  0.3626 -0.0925
 1061TIP3    H1 3189   1.584   4.524   0.535  0.3216 -0.7075  0.7257
 1061TIP3    H2 3190   1.451   4.473   0.584  1.5409 -2.4981  2.3108
 1062TIP3   OH2 3191   1.484  -0.013   2.191  0.4862  0.1809 -0.2923
 1062TIP3    H1 3192   1.493   0.068   2.142 -0.0929 -0.0457 -0.7755
 1062TIP3    H2 3193   1.568  -0.023   2.235  0.4316  1.2429  0.0887
 1063TIP3   OH2 3194   4.932   2.580   1.627  0.1102  0.3659 -0.6498
 1063TIP3    H1 3195   4.957   2.642   1.559 -0.1127 -0.7867 -1.8260
 1063TIP3    H2 3196   4.874   2.630   1.685 -0.3061  1.1743 -1.7327
 1064TIP3   OH2 3197   0.504   4.602   3.356 -0.0129 -0.2721  0.1803
 1064TIP3    H1 3198   0.423   4.637   3.319  0.8025 -0.0881 -1.5088
 1064TIP3    H2 3199   0.496   4.507   3.345  0.9209 -0.1404 -2.0884
 1065TIP3   OH2 3200   2.954   1.596   3.566 -0.3135 -0.3976  0.1389
 1065TIP3    H1 3201   2.959   1.652   3.488 -0.5472 -0.1645  0.2884
 1065TIP3    H2 3202   2.860   1.578   3.576 -0.3110 -0.1793  0.5400
 1066TIP3   OH2 3203   2.190   2.336   2.758  0.2763  0.1534 -0.2024
 1066TIP3    H1 3204   2.118   2.394   2.732  0.7014  0.1106 -1.5821
 1066TIP3    H2 3205   2.155   2.248   2.746  0.0345  0.1212  0.7034
 1067TIP3   OH2 3206   2.438   3.988   4.412  0.4697 -0.0769  0.1218
 1067TIP3    H1 3207   2.380   4.042   4.358 -1.0770 -0.4476  1.3334
 1067TIP3    H2 3208   2.525   4.003   4.376  0.1444  3.2387  0.4021
 1068TIP3   OH2 3209   3.859   1.970   3.599  0.1507  0.4635  0.1988
 1068TIP3    H1 3210   3.798   1.898   3.612 -1.7519  2.0695  0.6773
 1068TIP3    H2 3211   3.919   1.939   3.531 -0.8929 -1.3590  0.0511
 1069TIP3   OH2 3212   5.469   2.236   0.266 -0.4520  0.4496 -0.0298
 1069TIP3    H1 3213   5.538   2.285   0.312 -1.8536  2.3150  0.2152
 1069TIP3    H2 3214   5.515   2.192   0.195  1.0651  1.3054  0.3625
 1070TIP3   OH2 3215   4.847   0.214   0.338  0.7510 -0.6034  0.1768
 1070TIP3    H1 3216   4.800   0.134   0.314  3.9189 -3.4048  2.2594
 1070TIP3    H2 3217   4.893   0.240   0.258 -0.6201 -0.5731 -0.6289
 1071TIP3   OH2 3218   5.982   5.504   2.622  0.3195 -0.3609 -0.3576
 1071TIP3    H1 3219   5.973   5.549   2.706 -0.5685  0.3394 -0.8135
 1071TIP3    H2 3220   6.025   5.568   2.565 -0.2022 -0.3771 -0.7775
 1072TIP3   OH2 3221   3.257   3.185   1.515  0.4548  0.2949 -0.1271
 1072TIP3    H1 3222   3.184   3.225   1.561  0.7264  0.7884 -0.1160
 1072TIP3    H2 3223   3.295   3.256   1.463  1.0616  0.1040  0.0410
 1073TIP3   OH2 3224   0.397   2.296   4.091 -0.1337  0.4203  0.1553
 1073TIP3    H1 3225   0.390   2.389   4.113  0.9532  0.3972  0.6625
 1073TIP3    H2 3226   0.482   2.289   4.048 -0.1357 -0.3734  0.2780
 1074TIP3   OH2 3227   0.478   3.122   5.055 -0.2856  0.4327 -0.4877
 1074TIP3    H1 3228   0.518   3.126   4.968  2.5779  1.1596  0.7317
 1074TIP3    H2 3229   0.413   3.192   5.055  0.9141  1.6116 -1.5391
 1075TIP3   OH2 3230   6.191   2.634   1.876 -0.4841  0.3109 -0.2974
 1075TIP3    H1 3231   6.255   2.640   1.806  0.2585 -1.5582  0.1604
 1075TIP3    H2 3232   6.194   2.719   1.920  0.8355  0.6435 -0.9975
 1076TIP3   OH2 3233   0.929   4.505   1.613  0.2800  0.2548 -0.2981
 1076TIP3    H1 3234   0.969   4.491   1.527 -0.9593 -0.3364 -0.8098
 1076TIP3    H2 3235   0.837   4.525   1.594 -0.5283 -1.9174  0.9259
 1077TIP3   OH2 3236   1.395   0.657   3.454 -0.2912 -0.2766  0.3640
 1077TIP3    H1 3237   1.348   0.699   3.526 -0.3762  2.0583 -0.9697
 1077TIP3    H2 3238   1.486   0.658   3.482  0.1131  3.3059 -0.6418
 1078TIP3   OH2 3239   0.570   4.809   1.541 -0.1148 -0.6908  0.1538
 1078TIP3    H1 3240   0.567   4.897   1.579  1.7334 -1.2520  1.7442
 1078TIP3    H2 3241   0.487   4.769   1.568 -1.0218  0.5411 -0.6634
 1079TIP3   OH2 3242   5.359   0.136   0.911  0.2903 -0.1691 -0.4478
 1079TIP3    H1 3243   5.365   0.080   0.988  0.6080 -0.4431 -0.6643
 1079TIP3    H2 3244   5.440   0.187   0.911  1.1237 -1.3948 -1.5096
 1080TIP3   OH2 3245   1.535   1.564   3.544 -0.1449 -0.3712 -0.7924
 1080TIP3    H1 3246   1.514   1.479   3.504 -1.0594  0.2068 -1.5953
 1080TIP3    H2 3247   1.556   1.543   3.635 -1.5173 -1.3486 -0.6633
 1081TIP3   OH2 3248   3.617   2.470   3.482  0.0921 -0.3771  0.6570
 1081TIP3    H1 3249   3.647   2.454   3.571 -1.1861 -0.1137  1.1667
 1081TIP3    H2 3250   3.623   2.385   3.439 -1.6095 -1.1137  1.7597
 1082TIP3   OH2 3251   5.174   2.928   2.342  0.2489  0.0976 -0.2477
 1082TIP3    H1 3252   5.190   2.865   2.412  0.6577  1.6668  1.1295
 1082TIP3    H2 3253   5.100   2.980   2.372  0.5965  0.9699 -0.8540
 1083TIP3   OH2 3254   2.194   0.447   1.813  0.2062  0.2277 -0.3550
 1083TIP3    H1 3255   2.285   0.453   1.840 -0.1657  1.5643  0.6971
 1083TIP3    H2 3256   2.163   0.365   1.851  1.0637 -0.4388 -1.0648
 1084TIP3   OH2 3257   0.387   1.093   3.456  0.4784  0.5208  0.4469
 1084TIP3    H1 3258   0.414   1.184   3.442  0.2533  0.6499  0.8434
 1084TIP3    H2 3259   0.443   1.042   3.398  1.5542  0.7868  1.2341
 1085TIP3   OH2 3260   1.350   2.568   3.728 -0.2711  0.1193  0.2709
 1085TIP3    H1 3261   1.422   2.622   3.760  0.6768 -0.3728 -0.9084
 1085TIP3    H2 3262   1.307   2.535   3.806  1.9942 -1.1173  1.0856
 1086TIP3   OH2 3263   6.302   0.171   1.219 -0.7080 -0.0692 -0.2387
 1086TIP3    H1 3264   6.323   0.184   1.311  1.9384 -0.4656 -0.7102
 1086TIP3    H2 3265   6.255   0.251   1.194 -4.3218 -1.2375  2.1008
 1087TIP3   OH2 3266   3.560   1.228   2.885 -0.1179 -0.1086 -0.3459
 1087TIP3    H1 3267   3.528   1.261   2.970  2.0291  1.3754 -0.0519
 1087TIP3    H2 3268   3.554   1.303   2.826 -0.2173 -0.7294 -1.1414
 1088TIP3   OH2 3269   5.134   0.323   3.546 -0.5680  0.3193  0.1178
 1088TIP3    H1 3270   5.081   0.253   3.510  0.6404 -0.9039  0.6236
 1088TIP3    H2 3271   5.105   0.331   3.637 -0.9713  0.7386 -0.0486
 1089TIP3   OH2 3272   5.158   0.900   0.465 -0.5307  0.1762 -0.3058
 1089TIP3    H1 3273   5.153   0.996   0.471 -0.9974  0.1379 -0.0368
 1089TIP3    H2 3274   5.130   0.869   0.551  1.8669 -0.1649  0.4159
 1090TIP3   OH2 3275   2.003   2.862   4.491  0.3110 -0.2048  0.3020
 1090TIP3    H1 3276   2.055   2.783   4.510 -1.1506 -0.8513  1.8615
 1090TIP3    H2 3277   1.920   2.847   4.536 -2.1261 -0.1536 -3.6486
 1091TIP3   OH2 3278   0.476   0.703   4.716 -0.1577 -0.0197  0.4458
 1091TIP3    H1 3279   0.461   0.632   4.653 -0.3816 -1.1914  1.7607
 1091TIP3    H2 3280   0.411   0.769   4.694 -0.3269 -0.4736 -0.4557
 1092TIP3   OH2 3281   0.064   4.611   2.573  0.2239  0.6311 -0.2804
 1092TIP3    H1 3282  -0.010   4.662   2.607 -0.0231  0.1993 -0.1511
 1092TIP3    H2 3283   0.141   4.664   2.593  0.2053 -0.0666  1.9745
 1093TIP3   OH2 3284   1.266   0.257   0.367  0.2969  0.2304 -0.1778
 1093TIP3    H1 3285   1.308   0.176   0.395  1.0225  0.6941  0.0869
 1093TIP3    H2 3286   1.258   0.309   0.447  0.3998  0.6733 -0.4521
 1094TIP3   OH2 3287   2.610   4.327   4.952  0.0082 -0.4142  1.1170
 1094TIP3    H1 3288   2.526   4.348   4.992  0.5192  2.1154  1.0472
 1094TIP3    H2 3289   2.602   4.355   4.861  0.5555 -1.2233  0.8089
 1095TIP3   OH2 3290   4.267   1.777   4.037  0.1444 -0.3863 -0.0273
 1095TIP3    H1 3291   4.363   1.774   4.035  0.1105 -1.5140 -1.2291
 1095TIP3    H2 3292   4.241   1.765   3.946 -1.1572 -1.7140  0.4777
 1096TIP3   OH2 3293   0.749   4.189   2.513  0.1114 -0.7707 -0.0820
 1096TIP3    H1 3294   0.750   4.241   2.593 -2.0834 -0.2960 -0.3242
 1096TIP3    H2 3295   0.780   4.249   2.445 -0.6770 -0.3339 -0.0561
 1097TIP3   OH2 3296   3.675   4.141   2.117  0.6151 -0.3658  0.4439
 1097TIP3    H1 3297   3.611   4.109   2.054  1.1180 -0.9238  0.1996
 1097TIP3    H2 3298   3.708   4.223   2.078 -1.6531  1.2536  1.7176
 1098TIP3   OH2 3299   3.204   5.976   2.088 -0.3444  0.3565  0.2889
 1098TIP3    H1 3300   3.244   6.051   2.134  2.5705 -0.6572 -0.3977
 1098TIP3    H2 3301   3.199   5.908   2.155  1.5365 -0.3130 -0.2023
 1099TIP3   OH2 3302   6.060   4.893   4.369 -0.1831  0.1609 -0.3777
 1099TIP3    H1 3303   6.046   4.923   4.278  0.6908  0.8675 -0.2971
 1099TIP3    H2 3304   6.025   4.804   4.371  1.0600 -0.4114 -1.8046
 1100TIP3   OH2 3305   5.584   4.171   2.324 -0.8236 -0.1619 -0.1560
 1100TIP3    H1 3306   5.513   4.218   2.281 -0.2993  1.9622  1.1557
 1100TIP3    H2 3307   5.643   4.239   2.356  1.1499 -1.8064 -0.0328
 1101TIP3   OH2 3308   3.591   2.088   4.716  0.0038  0.4978  0.0782
 1101TIP3    H1 3309   3.589   2.018   4.651  0.3613  0.4158  0.1584
 1101TIP3    H2 3310   3.564   2.046   4.797  0.8007  0.3217  0.2537
 1102TIP3   OH2 3311   2.694   1.890   3.595  0.1895  0.3646 -0.4700
 1102TIP3    H1 3312   2.731   1.931   3.674 -0.4477 -0.0037  0.0297
 1102TIP3    H2 3313   2.605   1.866   3.621 -0.8176  2.2097 -1.9535
 1103TIP3   OH2 3314   1.133   4.508   3.286  0.5322  0.5162 -0.1206
 1103TIP3    H1 3315   1.127   4.530   3.193  1.4719  1.2635 -0.0206
 1103TIP3    H2 3316   1.067   4.563   3.328 -0.1549 -0.0944 -0.3737
 1104TIP3   OH2 3317   1.187   3.690   3.967 -0.2662 -0.0579 -0.0797
 1104TIP3    H1 3318   1.190   3.603   4.009 -1.5307 -0.1162 -0.0657
 1104TIP3    H2 3319   1.181   3.671   3.874 -1.7362 -0.0352 -0.0115
 1105TIP3   OH2 3320   2.701   0.873   0.651 -0.1572 -0.2875 -0.6977
 1105TIP3    H1 3321   2.792   0.860   0.627 -0.4128 -1.3253 -1.1794
 1105TIP3    H2 3322   2.703   0.897   0.743  0.6045 -0.1953 -0.7336
 1106TIP3   OH2 3323   2.684   4.798   1.586  0.7737  0.2261 -0.4610
 1106TIP3    H1 3324   2.624   4.870   1.566  1.2461  0.2657 -1.8703
 1106TIP3    H2 3325   2.718   4.771   1.500  4.0781  1.3335  0.3645
 1107TIP3   OH2 3326   5.673   0.214   1.473  0.2374  0.0621 -0.1653
 1107TIP3    H1 3327   5.638   0.284   1.528 -0.1723  0.9493 -1.4920
 1107TIP3    H2 3328   5.623   0.136   1.499  0.4954  0.3118  1.1270
 1108TIP3   OH2 3329   3.090   4.292   2.249  0.4172  0.5153 -0.1385
 1108TIP3    H1 3330   3.112   4.371   2.199  1.5895  0.0645 -0.3744
 1108TIP3    H2 3331   3.164   4.279   2.308 -0.0570 -0.0577  0.3489
 1109TIP3   OH2 3332   1.164   4.154   2.391 -0.1090  0.3015  0.4923
 1109TIP3    H1 3333   1.199   4.217   2.454  0.7860 -0.5542  0.8803
 1109TIP3    H2 3334   1.242   4.113   2.352 -0.6646 -0.0912 -0.2354
 1110TIP3   OH2 3335   0.154   0.939   2.173  0.1148  0.0160  0.1604
 1110TIP3    H1 3336   0.194   0.973   2.254 -0.3555  1.3391 -0.1335
 1110TIP3    H2 3337   0.217   0.876   2.140  1.2187  0.8755  0.5590
 1111TIP3   OH2 3338   5.857   3.280   0.244 -0.3832 -0.1545  0.1963
 1111TIP3    H1 3339   5.765   3.300   0.259  0.4113  2.2135  2.6940
 1111TIP3    H2 3340   5.897   3.280   0.331  2.5640  2.4069 -0.9318
 1112TIP3   OH2 3341   0.641   0.497   2.483  0.4741 -0.2093 -0.4260
 1112TIP3    H1 3342   0.585   0.455   2.417 -0.7196  0.4605  0.1360
 1112TIP3    H2 3343   0.653   0.430   2.550 -2.4451  0.6052  1.0735
 1113TIP3   OH2 3344   2.691   3.641   4.359  0.1467 -1.0663  0.3505
 1113TIP3    H1 3345   2.745   3.588   4.417  0.5969 -1.2247 -0.2091
 1113TIP3    H2 3346   2.736   3.725   4.354 -0.2680 -0.8119  0.7872
 1114TIP3   OH2 3347   2.616   3.053   0.102 -0.0811  0.1325 -0.1652
 1114TIP3    H1 3348   2.706   3.075   0.126 -0.4148 -0.1773  1.4983
 1114TIP3    H2 3349   2.619   2.959   0.083 -0.2911 -0.2000  1.3078
 1115TIP3   OH2 3350   4.437   3.602   0.611 -0.5438  0.1000 -0.0904
 1115TIP3    H1 3351   4.472   3.571   0.694  0.3899 -1.0553 -0.8822
 1115TIP3    H2 3352   4.370   3.537   0.588 -0.0924 -0.1599 -0.7078
 1116TIP3   OH2 3353   2.452   2.248   1.113 -0.7311  0.0871  1.0492
 1116TIP3    H1 3354   2.478   2.303   1.187 -3.9337  1.0340  1.6063
 1116TIP3    H2 3355   2.407   2.174   1.154  2.2147 -2.3580  0.2222
 1117TIP3   OH2 3356   1.532   3.708   2.299 -0.0173 -0.4397  0.3681
 1117TIP3    H1 3357   1.500   3.618   2.304  0.2620 -0.5101  1.1020
 1117TIP3    H2 3358   1.623   3.702   2.330  0.1753  0.0130 -0.0996
 1118TIP3   OH2 3359   3.994   1.740   0.277 -0.2619  0.3655 -0.4403
 1118TIP3    H1 3360   3.912   1.772   0.239 -0.5560 -0.4791 -0.5465
 1118TIP3    H2 3361   4.018   1.807   0.342  0.7884  2.3354 -2.7196
 1119TIP3   OH2 3362   2.152   0.434   1.126  0.2658  0.3179  0.0909
 1119TIP3    H1 3363   2.075   0.398   1.169  0.2328 -0.0710 -0.2824
 1119TIP3    H2 3364   2.223   0.419   1.188  0.5944 -2.0121 -0.7375
 1120TIP3   OH2 3365   5.626   3.298   3.230 -0.1909 -0.4367 -0.0054
 1120TIP3    H1 3366   5.633   3.235   3.158  1.5100 -0.4402  0.1246
 1120TIP3    H2 3367   5.602   3.381   3.188  1.3949 -0.2927 -0.6882
 1121TIP3   OH2 3368   6.090   0.665   0.974  0.3530  0.0638 -0.3400
 1121TIP3    H1 3369   6.178   0.703   0.982  0.3445 -0.1847  1.1544
 1121TIP3    H2 3370   6.042   0.699   1.050 -0.0866 -1.7904  0.2578
 1122TIP3   OH2 3371   4.064   3.251   4.609  0.4769 -0.0480 -0.2411
 1122TIP3    H1 3372   4.045   3.235   4.516  2.5083  1.2911 -0.9508
 1122TIP3    H2 3373   4.100   3.168   4.640 -0.9705 -0.7651 -0.3899
 1123TIP3   OH2 3374   2.212   3.609   4.431 -0.1416 -0.1395  0.0458
 1123TIP3    H1 3375   2.264   3.643   4.504  0.5271 -1.1097  0.0550
 1123TIP3    H2 3376   2.187   3.521   4.459  0.2059 -0.5612 -0.9310
 1124TIP3   OH2 3377   1.620   4.631   1.877  0.3211 -0.6429 -0.2041
 1124TIP3    H1 3378   1.613   4.566   1.947  0.3444 -0.5231 -0.0893
 1124TIP3    H2 3379   1.612   4.715   1.922  0.6628 -0.5560 -0.3036
 1125TIP3   OH2 3380   3.158   5.651   3.444 -0.2730 -0.8017  0.4580
 1125TIP3    H1 3381   3.183   5.660   3.536 -0.9972  0.7204  0.5394
 1125TIP3    H2 3382   3.194   5.729   3.402 -0.0574 -1.4202 -0.5305
 1126TIP3   OH2 3383   1.468   4.808   0.519 -0.6252  0.4873 -0.0744
 1126TIP3    H1 3384   1.481   4.714   0.528 -0.6258  0.1069 -2.9016
 1126TIP3    H2 3385   1.542   4.848   0.564  1.4228 -1.0410 -1.8809
 1127TIP3   OH2 3386   5.320   4.184   0.354  0.3364 -0.0059 -0.1642
 1127TIP3    H1 3387   5.388   4.250   0.340 -0.8822  1.4685  0.4729
 1127TIP3    H2 3388   5.244   4.218   0.306 -0.0770 -1.4011 -0.5338
 1128TIP3   OH2 3389   3.170   5.208   5.103 -0.2931 -0.2324 -0.3169
 1128TIP3    H1 3390   3.193   5.122   5.139 -1.0758 -1.1163 -1.8114
 1128TIP3    H2 3391   3.198   5.203   5.011 -0.0626  1.2399 -0.3391
 1129TIP3   OH2 3392   0.145   5.507   1.653 -0.3838  0.2453 -0.0662
 1129TIP3    H1 3393   0.172   5.466   1.571  0.5140  1.3756 -0.3581
 1129TIP3    H2 3394   0.204   5.582   1.663 -0.6917  0.3107  1.4499
 1130TIP3   OH2 3395   4.960   5.072   1.159 -0.0375 -0.2588 -0.4026
 1130TIP3    H1 3396   5.039   5.088   1.108 -0.7799  0.9009 -1.2192
 1130TIP3    H2 3397   4.932   4.984   1.132 -0.1199  0.1193 -1.6247
 1131TIP3   OH2 3398   0.262   5.379   1.425 -0.1575  0.1655 -0.0970
 1131TIP3    H1 3399   0.286   5.292   1.395  0.1315  0.1646  0.1258
 1131TIP3    H2 3400   0.292   5.438   1.356 -0.3064  0.0898 -0.2242
 1132TIP3   OH2 3401   0.418   1.148   4.494  0.0124 -0.3835 -0.0893
 1132TIP3    H1 3402   0.336   1.108   4.522  0.2437 -0.9588 -0.2182
 1132TIP3    H2 3403   0.413   1.150   4.398 -1.2696  2.6028 -0.0863
 1133TIP3   OH2 3404   3.090   0.554   3.923  0.4977  0.2844 -0.3963
 1133TIP3    H1 3405   3.113   0.600   4.003 -0.0790  0.7265 -0.4743
 1133TIP3    H2 3406   3.163   0.570   3.864  1.5888 -1.2121  0.4912
 1134TIP3   OH2 3407   1.915   1.214   2.492  0.3734 -0.3034  0.3109
 1134TIP3    H1 3408   1.842   1.155   2.510 -0.2426 -0.1426 -1.4677
 1134TIP3    H2 3409   1.875   1.301   2.486  0.4501 -0.3471 -1.7915
 1135TIP3   OH2 3410   4.795   0.386   3.694  0.4003  0.0117 -0.3886
 1135TIP3    H1 3411   4.805   0.298   3.731 -0.9386 -0.0418 -0.0982
 1135TIP3    H2 3412   4.825   0.377   3.604  0.8026 -0.6029 -0.2034
 1136TIP3   OH2 3413   0.398   3.632   4.168  0.3570 -0.2269  0.2221
 1136TIP3    H1 3414   0.346   3.625   4.088  0.9193  1.1875 -0.3057
 1136TIP3    H2 3415   0.335   3.656   4.235 -0.2453 -2.1718  0.3942
 1137TIP3   OH2 3416   1.377   2.799   2.436 -0.7027 -0.4233  0.1132
 1137TIP3    H1 3417   1.418   2.885   2.421  0.1370 -0.7090  0.6904
 1137TIP3    H2 3418   1.308   2.816   2.499  0.9006 -0.4897  2.0015
 1138TIP3   OH2 3419   3.804   0.662   0.467 -0.0850 -0.1094 -0.1711
 1138TIP3    H1 3420   3.828   0.569   0.475 -1.5823 -0.5309 -0.2421
 1138TIP3    H2 3421   3.749   0.679   0.543  1.0399  1.0338  0.4118
 1139TIP3   OH2 3422   0.100   2.251   0.709  0.3422 -0.2211 -0.2005
 1139TIP3    H1 3423   0.011   2.259   0.743  0.0014 -2.2499 -0.5058
 1139TIP3    H2 3424   0.156   2.290   0.776 -0.6865  0.1294  0.4660
 1140TIP3   OH2 3425   2.531   4.160   3.362  0.1486  0.0724  0.0395
 1140TIP3    H1 3426   2.464   4.224   3.340  0.9731  0.7500 -0.5456
 1140TIP3    H2 3427   2.482   4.085   3.395 -0.8371  0.9257  0.5595
 1141TIP3   OH2 3428   5.416   1.444   1.209  0.1047  0.1355  0.3394
 1141TIP3    H1 3429   5.504   1.479   1.227  0.5564 -1.0282  0.4465
 1141TIP3    H2 3430   5.391   1.399   1.289 -1.4812  2.1482  1.0807
 1142TIP3   OH2 3431   6.207   4.583   0.911 -0.1211 -0.6832  0.2356
 1142TIP3    H1 3432   6.130   4.593   0.854  0.2727 -1.1270 -0.3859
 1142TIP3    H2 3433   6.273   4.640   0.872  0.4216 -1.6220 -0.2479
 1143TIP3   OH2 3434   3.909   5.369   1.811 -0.5439 -0.1131 -0.1633
 1143TIP3    H1 3435   3.951   5.311   1.747 -0.1966 -0.8607  0.7112
 1143TIP3    H2 3436   3.834   5.319   1.842  1.1690 -1.2697  2.4755
 1144TIP3   OH2 3437   1.129   1.446   2.290  0.2684  0.1754 -0.0790
 1144TIP3    H1 3438   1.097   1.395   2.365  3.7397 -0.2566  1.2937
 1144TIP3    H2 3439   1.185   1.386   2.242  0.9811  1.4860 -0.9539
 1145TIP3   OH2 3440   3.534   2.110   1.107 -0.1165  0.3585  0.5380
 1145TIP3    H1 3441   3.541   2.038   1.045  0.1844  0.0511  0.9236
 1145TIP3    H2 3442   3.497   2.070   1.186 -0.0201  0.6421  0.7279
 1146TIP3   OH2 3443   1.533   4.194   2.615 -0.2452  0.0618 -0.0474
 1146TIP3    H1 3444   1.574   4.226   2.695  0.7516 -0.2335 -0.4309
 1146TIP3    H2 3445   1.503   4.106   2.637  1.3757 -0.6083 -0.4252
 1147TIP3   OH2 3446   2.359   0.812   4.584 -0.3328 -0.0900  0.4701
 1147TIP3    H1 3447   2.366   0.907   4.599  1.7305 -0.3079  1.2803
 1147TIP3    H2 3448   2.267   0.792   4.601 -0.4255  1.4794  2.2593
 1148TIP3   OH2 3449   0.155   1.451   3.984  0.5406 -0.8217 -0.3369
 1148TIP3    H1 3450   0.152   1.398   3.904 -2.8605  0.5566 -1.3103
 1148TIP3    H2 3451   0.115   1.396   4.051 -1.7720 -0.0798 -1.0302
 1149TIP3   OH2 3452   1.064   0.603   0.446  0.1957 -0.1621 -0.3395
 1149TIP3    H1 3453   0.976   0.576   0.421  0.2396 -1.4073  0.7783
 1149TIP3    H2 3454   1.055   0.631   0.537  0.8746  0.1608 -0.3667
 1150TIP3   OH2 3455   5.270   3.189   2.146 -0.1731  0.0000 -0.4015
 1150TIP3    H1 3456   5.230   3.262   2.194  2.7024  0.7471  1.0772
 1150TIP3    H2 3457   5.223   3.187   2.063 -1.2625  2.6719  0.0375
 1151TIP3   OH2 3458   2.333   4.591   0.486  0.2795 -0.4633  0.0993
 1151TIP3    H1 3459   2.393   4.529   0.527 -0.1537 -1.0252 -0.1031
 1151TIP3    H2 3460   2.248   4.547   0.486  0.1593 -0.2727 -0.9138
 1152TIP3   OH2 3461   3.287   1.925   4.074  0.1126  0.6331  0.0441
 1152TIP3    H1 3462   3.193   1.910   4.081 -0.0876  1.6792 -0.1859
 1152TIP3    H2 3463   3.324   1.839   4.055 -0.9081  0.4002 -0.9854
 1153TIP3   OH2 3464   4.935   2.309   4.174 -0.3374  0.0658  0.1464
 1153TIP3    H1 3465   4.849   2.350   4.167 -0.4996 -0.3501 -0.3763
 1153TIP3    H2 3466   4.930   2.257   4.254  0.1647  1.7220  1.3076
 1154TIP3   OH2 3467   0.184   0.585   1.542 -0.1962  0.0169  0.6556
 1154TIP3    H1 3468   0.117   0.536   1.493  2.3067 -0.5152 -2.5541
 1154TIP3    H2 3469   0.205   0.528   1.616  0.5488 -2.4871 -1.3586
 1155TIP3   OH2 3470   5.149   3.574   2.525  0.1997 -0.1711  0.4059
 1155TIP3    H1 3471   5.142   3.640   2.593 -1.3834 -1.3177  1.4378
 1155TIP3    H2 3472   5.153   3.491   2.573 -0.8386 -1.0018 -0.8718
 1156TIP3   OH2 3473   6.164   4.879   3.308 -0.0128 -0.2291 -0.2106
 1156TIP3    H1 3474   6.147   4.908   3.219  0.8339  0.4244 -0.1786
 1156TIP3    H2 3475   6.163   4.960   3.360 -1.4357 -0.7027  0.5337
 1157TIP3   OH2 3476   4.104   4.834   3.167 -0.1170  0.0508  0.0954
 1157TIP3    H1 3477   4.174   4.788   3.120  0.0488 -0.8405  1.1761
 1157TIP3    H2 3478   4.134   4.839   3.257 -1.2602  0.0344  0.4991
 1158TIP3   OH2 3479   1.470   1.787   1.608  0.3811  0.2583 -0.2476
 1158TIP3    H1 3480   1.453   1.709   1.555  2.0261  0.1778 -0.7067
 1158TIP3    H2 3481   1.526   1.756   1.679 -2.0447  0.2923  1.8277
 1159TIP3   OH2 3482   5.729   3.725   1.428 -0.0984 -0.2202  0.0608
 1159TIP3    H1 3483   5.685   3.764   1.353 -1.0896 -1.6534 -0.1452
 1159TIP3    H2 3484   5.659   3.683   1.478  0.8917 -1.8133  0.1935
 1160TIP3   OH2 3485   3.518   2.770   1.381  0.2806  0.2099  0.2168
 1160TIP3    H1 3486   3.493   2.744   1.470  1.2326 -1.3404  0.0626
 1160TIP3    H2 3487   3.489   2.697   1.326  1.7179  0.1012 -0.4318
 1161TIP3   OH2 3488   2.481   5.857   4.846 -0.1849  0.3345 -0.1257
 1161TIP3    H1 3489   2.416   5.838   4.914 -0.4802  0.3062 -0.4141
 1161TIP3    H2 3490   2.464   5.948   4.822 -1.2477 -0.1749 -1.4113
 1162TIP3   OH2 3491   1.156   4.888   2.800  0.2561  0.0591 -0.7671
 1162TIP3    H1 3492   1.155   4.864   2.707  0.0894 -0.0340 -0.7422
 1162TIP3    H2 3493   1.087   4.954   2.808 -0.6490 -0.8890 -0.4633
 1163TIP3   OH2 3494   4.186   1.684   3.308  0.6195  0.2926 -0.2516
 1163TIP3    H1 3495   4.274   1.683   3.346  0.7939  1.0734 -0.6088
 1163TIP3    H2 3496   4.150   1.597   3.327  0.9782  0.4001  1.0363
 1164TIP3   OH2 3497   6.158   5.931   0.846 -0.0548  0.2210  0.1058
 1164TIP3    H1 3498   6.141   5.984   0.769 -1.9036  1.7465  1.4653
 1164TIP3    H2 3499   6.107   5.851   0.832  0.3808  0.0739 -0.6571
 1165TIP3   OH2 3500   6.295   1.400   1.573  0.0119 -0.0108  0.2544
 1165TIP3    H1 3501   6.227   1.460   1.604  0.0329  0.1923 -0.0863
 1165TIP3    H2 3502   6.272   1.384   1.481  1.9274  2.1954 -0.7118
 1166TIP3   OH2 3503   2.007   1.303   2.915 -0.1385  0.1705 -0.0116
 1166TIP3    H1 3504   1.996   1.319   2.821  1.8321  0.8510 -0.1609
 1166TIP3    H2 3505   1.921   1.323   2.952 -0.7805  0.5114 -1.5804
 1167TIP3   OH2 3506   2.004   3.289   1.409  0.8478 -1.0788  0.6809
 1167TIP3    H1 3507   2.083   3.333   1.377 -0.5407 -0.2378 -1.9163
 1167TIP3    H2 3508   1.941   3.360   1.422 -0.7364 -1.9968 -1.4082
 1168TIP3   OH2 3509   1.663   5.449   3.927  0.3670  0.3868 -0.4475
 1168TIP3    H1 3510   1.697   5.378   3.873 -0.3756  0.7519 -1.4056
 1168TIP3    H2 3511   1.741   5.492   3.962  0.8324 -0.4269 -0.4549
 1169TIP3   OH2 3512   5.325   5.803   2.925  0.1159  0.2444 -0.0649
 1169TIP3    H1 3513   5.316   5.730   2.986  2.1455 -0.5078 -0.5961
 1169TIP3    H2 3514   5.372   5.871   2.974 -0.3902  0.6024 -0.0615
 1170TIP3   OH2 3515   1.712   2.397   2.596 -0.4610  0.8829 -0.7218
 1170TIP3    H1 3516   1.783   2.435   2.647 -0.4261  1.4121 -1.1526
 1170TIP3    H2 3517   1.713   2.304   2.618 -0.4949  1.1150  0.2829
 1171TIP3   OH2 3518   3.703   5.166   1.779 -0.4869 -0.1500  0.0375
 1171TIP3    H1 3519   3.625   5.201   1.735 -0.0106  0.4048 -0.3752
 1171TIP3    H2 3520   3.715   5.079   1.742 -0.8692 -0.2124  0.0558
 1172TIP3   OH2 3521   0.277   4.153   3.174  0.0149  0.1263  0.6954
 1172TIP3    H1 3522   0.186   4.127   3.191  0.3341 -0.6790  1.2351
 1172TIP3    H2 3523   0.294   4.123   3.084 -0.5071  1.0302  0.2858
 1173TIP3   OH2 3524   5.045   4.777   2.574 -0.1052  0.4738  0.1299
 1173TIP3    H1 3525   5.115   4.837   2.602  0.4422 -0.0104 -0.1773
 1173TIP3    H2 3526   4.993   4.763   2.653 -0.1804  1.2719  0.2292
 1174TIP3   OH2 3527   5.203   1.635   1.666 -0.1147  0.4264  0.5885
 1174TIP3    H1 3528   5.112   1.650   1.640  0.1508 -1.4210 -1.8803
 1174TIP3    H2 3529   5.246   1.720   1.654 -0.8187  0.5343 -1.9242
 1175TIP3   OH2 3530   4.438   0.621   1.102  0.0861 -0.4762 -0.1825
 1175TIP3    H1 3531   4.521   0.670   1.103 -0.7238  1.0205 -1.1484
 1175TIP3    H2 3532   4.465   0.529   1.099  1.7600 -0.0193 -1.6077
 1176TIP3   OH2 3533   4.295   3.913   3.436  0.2811 -0.2647  0.4934
 1176TIP3    H1 3534   4.208   3.932   3.473  0.7193  0.9373  0.9614
 1176TIP3    H2 3535   4.291   3.951   3.348  1.1228  2.0768  1.3928
 1177TIP3   OH2 3536   5.136   5.814   1.823 -0.1712 -0.0110 -0.5328
 1177TIP3    H1 3537   5.151   5.767   1.905 -0.5318 -2.1428 -1.6042
 1177TIP3    H2 3538   5.144   5.907   1.846  0.4749 -0.5677  1.7327
 1178TIP3   OH2 3539   1.265   4.011   3.548 -0.0140  0.3773 -0.4609
 1178TIP3    H1 3540   1.189   3.963   3.515 -1.9087  0.8483  2.8058
 1178TIP3    H2 3541   1.252   4.101   3.517  0.6431 -0.0287 -2.0166
 1179TIP3   OH2 3542   1.034   5.969   2.569 -0.3277  0.0427 -0.5116
 1179TIP3    H1 3543   1.049   5.959   2.475 -0.4811 -2.2743 -0.3356
 1179TIP3    H2 3544   1.005   5.883   2.599  0.1403  0.5970  1.7526
 1180TIP3   OH2 3545   5.787   0.306   1.248 -0.4993  0.2608  0.0562
 1180TIP3    H1 3546   5.758   0.395   1.228 -0.0887  0.9872  2.3624
 1180TIP3    H2 3547   5.747   0.286   1.333  0.6441 -1.1596  0.3045
 1181TIP3   OH2 3548   2.892   3.129   0.010  0.4335 -0.1671 -0.1912
 1181TIP3    H1 3549   2.911   3.159   0.099  2.2990  0.3855 -0.7271
 1181TIP3    H2 3550   2.850   3.204  -0.031  0.6647  0.0035 -0.1208
 1182TIP3   OH2 3551   2.868   0.614   4.106  0.0823 -0.4696 -0.5624
 1182TIP3    H1 3552   2.801   0.545   4.117 -0.9119  0.2341 -1.8450
 1182TIP3    H2 3553   2.922   0.582   4.034  0.6212 -0.6518 -0.0774
 1183TIP3   OH2 3554   1.000   2.969   1.570 -0.0635 -0.2816 -0.4995
 1183TIP3    H1 3555   0.991   3.059   1.539  2.3709 -0.7742 -3.0774
 1183TIP3    H2 3556   1.063   2.975   1.642 -0.5328  0.1511 -0.1203
 1184TIP3   OH2 3557   0.657   4.012   0.497  0.0516  0.4300  0.4311
 1184TIP3    H1 3558   0.673   4.105   0.516 -0.1988  0.0451  2.8461
 1184TIP3    H2 3559   0.568   3.997   0.527  0.4114 -0.7886  0.9415
 1185TIP3   OH2 3560   5.840   3.005   4.504 -0.1125 -0.8218  0.0533
 1185TIP3    H1 3561   5.845   2.986   4.598  0.3125 -1.0737 -0.0198
 1185TIP3    H2 3562   5.753   2.974   4.478 -0.7592  0.4516  0.6287
 1186TIP3   OH2 3563   1.586   2.619   0.150  0.0237 -0.0139 -0.4038
 1186TIP3    H1 3564   1.579   2.640   0.243  2.6818  1.4256 -0.4302
 1186TIP3    H2 3565   1.502   2.644   0.113 -0.1814  1.9127  1.2100
 1187TIP3   OH2 3566   5.566   3.385   0.846  0.0943  0.1437 -0.0582
 1187TIP3    H1 3567   5.493   3.443   0.868 -0.8368 -1.1099  0.3081
 1187TIP3    H2 3568   5.569   3.384   0.751  0.2787  0.9708 -0.0648
 1188TIP3   OH2 3569   1.659   2.220   3.442  0.6641  0.3769  0.4222
 1188TIP3    H1 3570   1.717   2.149   3.414  2.4113  1.3860  1.2719
 1188TIP3    H2 3571   1.598   2.179   3.503  2.3362 -0.2515  1.7476
 1189TIP3   OH2 3572   1.535   0.187   2.041 -0.3912 -0.0878 -0.0292
 1189TIP3    H1 3573   1.597   0.241   1.992  1.2489 -2.1049 -0.3466
 1189TIP3    H2 3574   1.449   0.212   2.008  0.4113  1.3419 -1.1090
 1190TIP3   OH2 3575   1.862   3.538   2.882  0.0011 -0.0612  0.0543
 1190TIP3    H1 3576   1.955   3.559   2.874  0.3581 -1.0772  1.2133
 1190TIP3    H2 3577   1.827   3.606   2.941 -0.0749  0.4923 -0.6125
 1191TIP3   OH2 3578   4.466   5.388   4.138  0.1570 -0.5304 -0.2591
 1191TIP3    H1 3579   4.487   5.344   4.056  2.4052  1.3044 -0.7660
 1191TIP3    H2 3580   4.378   5.422   4.126  0.7544  0.4251 -2.2973
 1192TIP3   OH2 3581   3.191   1.178   4.424  0.2490 -0.1767 -0.1352
 1192TIP3    H1 3582   3.107   1.133   4.426 -0.5837  1.2929 -0.4522
 1192TIP3    H2 3583   3.206   1.196   4.332  0.3189  0.6203  0.0260
 1193TIP3   OH2 3584   6.200   5.731   4.524 -0.0647  0.2777  0.1720
 1193TIP3    H1 3585   6.206   5.800   4.458 -0.2701  0.4555  0.3401
 1193TIP3    H2 3586   6.111   5.738   4.559 -1.1772 -2.0262 -1.9397
 1194TIP3   OH2 3587   0.138   3.237   2.415 -0.4795 -0.5822 -0.1283
 1194TIP3    H1 3588   0.074   3.227   2.344 -0.4447 -1.0063 -0.1018
 1194TIP3    H2 3589   0.084   3.245   2.494 -0.5554  1.0850 -0.3258
 1195TIP3   OH2 3590   4.147   4.210   1.184 -0.4038  0.0144  0.0793
 1195TIP3    H1 3591   4.200   4.145   1.231 -0.1919 -0.3950 -0.7224
 1195TIP3    H2 3592   4.209   4.256   1.129 -0.7540  0.0816 -0.2587
 1196TIP3   OH2 3593   2.168   1.737   5.115  0.0758 -0.0488 -0.5076
 1196TIP3    H1 3594   2.187   1.831   5.105 -0.2949  0.5183  2.8720
 1196TIP3    H2 3595   2.252   1.699   5.142 -0.1427 -0.3643 -0.2701
 1197TIP3   OH2 3596   1.325   1.249   4.711 -0.0246 -0.3893  0.1714
 1197TIP3    H1 3597   1.370   1.323   4.669 -0.0663 -0.6466 -0.3307
 1197TIP3    H2 3598   1.377   1.231   4.789  0.8921 -0.8316 -0.5202
 1198TIP3   OH2 3599   0.327   3.441   1.890  0.0830 -0.3951  0.3188
 1198TIP3    H1 3600   0.408   3.405   1.853  0.3098  0.9071 -0.4788
 1198TIP3    H2 3601   0.329   3.414   1.982  1.9974  0.5689  0.6027
 1199TIP3   OH2 3602   4.367   3.744   2.383  0.2448 -0.5033  0.0492
 1199TIP3    H1 3603   4.288   3.725   2.434 -1.7576  0.5073 -2.4377
 1199TIP3    H2 3604   4.382   3.838   2.397  2.0656 -1.0166  1.8131
 1200TIP3   OH2 3605   2.756   1.084   0.409 -0.0486 -0.0527 -0.4433
 1200TIP3    H1 3606   2.686   1.039   0.361  0.5887 -1.1449 -0.3763
 1200TIP3    H2 3607   2.711   1.156   0.453 -1.1192 -0.6719 -0.4772
 1201TIP3   OH2 3608   3.649   4.794   2.653 -0.4166  0.0688 -0.1682
 1201TIP3    H1 3609   3.556   4.802   2.674 -0.6843  0.2684 -1.3750
 1201TIP3    H2 3610   3.652   4.787   2.558  0.8816  1.1424 -0.2357
 1202TIP3   OH2 3611   0.806   0.737   0.401  0.0988 -0.0822  0.0057
 1202TIP3    H1 3612   0.755   0.790   0.340  1.2599  0.4127 -0.5624
 1202TIP3    H2 3613   0.782   0.770   0.487 -1.5411 -0.7765 -0.1563
 1203TIP3   OH2 3614   1.365   2.019   4.563 -0.3710 -0.2192 -0.4677
 1203TIP3    H1 3615   1.314   2.082   4.613  0.7728  1.7943 -1.6974
 1203TIP3    H2 3616   1.440   1.999   4.618 -0.8553 -0.7284  0.0225
 1204TIP3   OH2 3617   0.344   2.077   1.186  0.5408 -0.1166  0.5516
 1204TIP3    H1 3618   0.387   2.093   1.102  0.9835 -0.6940  0.6622
 1204TIP3    H2 3619   0.325   2.164   1.221 -0.5412  0.1361 -0.5862
 1205TIP3   OH2 3620   0.917   1.182   2.158 -0.1494  0.9147  0.3188
 1205TIP3    H1 3621   0.934   1.096   2.118 -0.4822  0.5409  0.9615
 1205TIP3    H2 3622   0.848   1.165   2.222 -0.4201  1.7220  0.2519
 1206TIP3   OH2 3623   3.065   2.677   0.778 -0.3463  0.0424 -0.0534
 1206TIP3    H1 3624   3.137   2.625   0.812  1.4771  1.6381 -1.2062
 1206TIP3    H2 3625   3.043   2.737   0.849  1.0486  1.0338 -0.4157
 1207TIP3   OH2 3626   5.762   0.520   0.300 -0.1480  0.0838  0.2943
 1207TIP3    H1 3627   5.800   0.545   0.216 -0.0525  1.3085  0.6842
 1207TIP3    H2 3628   5.760   0.424   0.298  0.1358  0.0869 -0.9692
 1208TIP3   OH2 3629   4.600   2.657   1.538  0.0399 -0.4094 -0.1762
 1208TIP3    H1 3630   4.643   2.721   1.481  1.7500  0.2822  1.7656
 1208TIP3    H2 3631   4.595   2.700   1.623 -0.7580 -2.0737  0.6698
 1209TIP3   OH2 3632   0.574   1.744   2.895  0.1635 -0.1690  0.0045
 1209TIP3    H1 3633   0.625   1.674   2.855 -0.1470 -1.4194  1.6797
 1209TIP3    H2 3634   0.636   1.789   2.952  0.1894  0.4807 -0.5286
 1210TIP3   OH2 3635   2.939   3.648   3.256  0.0257  0.1439  0.0977
 1210TIP3    H1 3636   2.895   3.564   3.246  1.1919 -0.6436  1.3201
 1210TIP3    H2 3637   2.999   3.636   3.329  0.6359  1.8748 -0.0592
 1211TIP3   OH2 3638   5.572   4.955   2.278 -0.0557 -0.9383 -0.5217
 1211TIP3    H1 3639   5.548   5.040   2.314  1.4088 -0.0798 -1.4821
 1211TIP3    H2 3640   5.501   4.933   2.218 -1.1493 -1.0998  0.7845
 1212TIP3   OH2 3641   0.444   2.446   4.820 -0.6472  0.0943 -0.5227
 1212TIP3    H1 3642   0.533   2.468   4.793 -0.3892 -0.9640 -0.6006
 1212TIP3    H2 3643   0.452   2.422   4.913 -1.1255  1.4610 -0.1096
 1213TIP3   OH2 3644   6.290   5.578  -0.005 -0.3642  0.4763  0.0191
 1213TIP3    H1 3645   6.255   5.643   0.057 -1.6549 -1.8355  1.8766
 1213TIP3    H2 3646   6.225   5.509  -0.007  1.7833 -1.6826 -0.3835
 1214TIP3   OH2 3647   2.809   2.118   5.108  0.0791 -0.5383 -0.2947
 1214TIP3    H1 3648   2.802   2.092   5.017  0.0617 -2.0075  0.0986
 1214TIP3    H2 3649   2.727   2.165   5.126  0.4327  0.4761 -1.2266
 1215TIP3   OH2 3650   3.836   4.542   2.563  0.4695 -0.0148  0.5615
 1215TIP3    H1 3651   3.899   4.573   2.497 -2.3609  0.4720 -2.1138
 1215TIP3    H2 3652   3.750   4.558   2.524 -1.4028 -0.4195  4.1326
 1216TIP3   OH2 3653   0.701   3.879   3.349 -0.6161 -0.2252  0.2343
 1216TIP3    H1 3654   0.687   3.958   3.297 -2.0545 -0.0151  0.8963
 1216TIP3    H2 3655   0.721   3.912   3.437 -1.4501 -0.5763  0.5676
 1217TIP3   OH2 3656   3.472   1.951   4.503  0.5391 -0.0803 -0.4962
 1217TIP3    H1 3657   3.401   2.016   4.506 -0.1961 -0.8660 -0.3152
 1217TIP3    H2 3658   3.462   1.909   4.418  0.7261 -0.2616 -0.4303
 1218TIP3   OH2 3659   6.230   3.044   4.241 -0.1033  0.0394 -0.0682
 1218TIP3    H1 3660   6.153   3.011   4.287  0.2050  1.4676  1.5539
 1218TIP3    H2 3661   6.207   3.036   4.148 -0.9335 -2.4680  0.2933
 1219TIP3   OH2 3662   4.594   5.914   2.922 -0.2673 -0.0614  0.2243
 1219TIP3    H1 3663   4.499   5.909   2.919 -0.2211 -0.7020 -0.5547
 1219TIP3    H2 3664   4.616   5.902   3.014 -0.9871  1.3175  0.6091
 1220TIP3   OH2 3665   5.826   4.790   3.378  0.0049 -0.2247 -0.1027
 1220TIP3    H1 3666   5.869   4.830   3.454  0.6674  2.0758 -1.5714
 1220TIP3    H2 3667   5.897   4.752   3.327 -0.3876 -1.3647  0.1717
 1221TIP3   OH2 3668   1.678   5.963   2.039 -0.8549  0.6909 -0.2891
 1221TIP3    H1 3669   1.769   5.951   2.064 -0.0359  1.7987 -2.4374
 1221TIP3    H2 3670   1.682   6.015   1.958 -3.3862  0.7440 -0.4683
 1222TIP3   OH2 3671   2.758   2.434   0.495  0.2542 -0.1175  0.1722
 1222TIP3    H1 3672   2.673   2.390   0.502 -0.1354  0.7658  1.1426
 1222TIP3    H2 3673   2.807   2.405   0.572  0.1378  0.8220  0.6146
 1223TIP3   OH2 3674   5.356   3.554   0.903  0.3939 -0.3233  0.0930
 1223TIP3    H1 3675   5.313   3.544   0.988  0.1472  1.0544  0.1635
 1223TIP3    H2 3676   5.287   3.587   0.845  0.8649 -0.0335 -0.3126
 1224TIP3   OH2 3677   4.148   0.639   2.879  0.5995  0.1417  0.1315
 1224TIP3    H1 3678   4.180   0.559   2.838  2.4071  1.7813 -1.8947
 1224TIP3    H2 3679   4.068   0.612   2.925  1.5584 -2.9370  0.2371
 1225TIP3   OH2 3680   5.857   2.092   4.275 -0.4892 -0.1650  0.4728
 1225TIP3    H1 3681   5.781   2.125   4.227 -0.1808  0.2999  0.3097
 1225TIP3    H2 3682   5.920   2.163   4.273  0.8013 -1.2702 -1.2079
 1226TIP3   OH2 3683   0.549   1.665   3.888 -0.1101 -0.0577  0.0350
 1226TIP3    H1 3684   0.472   1.681   3.832 -0.6630  0.4091  0.8960
 1226TIP3    H2 3685   0.612   1.731   3.860 -0.5100  0.3944  0.1650
 1227TIP3   OH2 3686   5.232   2.632   1.773 -0.4712 -0.4738  0.4101
 1227TIP3    H1 3687   5.158   2.636   1.833 -0.8370  1.3339 -0.1373
 1227TIP3    H2 3688   5.276   2.717   1.782  1.3740 -1.3672  0.4836
 1228TIP3   OH2 3689   2.412   1.092   3.743 -0.2168  0.1580  0.0415
 1228TIP3    H1 3690   2.326   1.058   3.717 -0.3434 -0.9488  1.7466
 1228TIP3    H2 3691   2.419   1.071   3.836  2.3938 -0.8574 -0.2885
 1229TIP3   OH2 3692   4.440   3.979   2.490 -0.3350 -0.4478 -0.0913
 1229TIP3    H1 3693   4.521   4.011   2.530 -0.0573 -2.1254  0.7389
 1229TIP3    H2 3694   4.419   4.046   2.425  0.7962  0.8662  0.8266
 1230TIP3   OH2 3695   5.565   3.761   1.701  0.5712 -0.3510 -0.2270
 1230TIP3    H1 3696   5.577   3.694   1.768 -1.7202 -0.3707  0.2597
 1230TIP3    H2 3697   5.641   3.818   1.711 -0.2974  0.4701  3.4699
 1231TIP3   OH2 3698   5.988   4.316   1.242  0.3293 -0.3311  0.0480
 1231TIP3    H1 3699   6.058   4.335   1.179  0.1429 -1.5693 -0.5446
 1231TIP3    H2 3700   5.946   4.401   1.256  2.2717  0.5627  0.8413
 1232TIP3   OH2 3701   4.807   3.551   0.133  0.1272  0.1988 -0.6570
 1232TIP3    H1 3702   4.813   3.645   0.149 -0.1641  0.4123 -1.7013
 1232TIP3    H2 3703   4.794   3.544   0.039 -1.7161 -0.7960 -0.3761
 1233TIP3   OH2 3704   6.133   4.448   2.517 -0.2123  0.1026 -0.2014
 1233TIP3    H1 3705   6.209   4.466   2.462  0.0882  0.2084  0.2367
 1233TIP3    H2 3706   6.095   4.534   2.534 -1.1529 -0.0515 -1.4117
 1234TIP3   OH2 3707   0.549   5.601   0.892  0.1114  0.2958  0.1971
 1234TIP3    H1 3708   0.540   5.597   0.987 -1.8579 -0.5078  0.0297
 1234TIP3    H2 3709   0.560   5.694   0.872 -1.1853  0.6719  1.1069
 1235TIP3   OH2 3710   0.688   3.512   1.144  0.3216  0.1914  0.6550
 1235TIP3    H1 3711   0.757   3.547   1.088  0.4706  0.0072  0.7221
 1235TIP3    H2 3712   0.688   3.568   1.221  1.0859 -0.4127  1.1175
 1236TIP3   OH2 3713   0.987   5.093   0.071 -0.2845  0.2090 -0.5147
 1236TIP3    H1 3714   0.955   5.184   0.065  0.3148  0.3759 -1.5557
 1236TIP3    H2 3715   0.973   5.069   0.162 -1.9810  0.7783 -0.5721
 1237TIP3   OH2 3716   5.422   2.404   4.602  0.0193 -0.1432 -0.8256
 1237TIP3    H1 3717   5.479   2.373   4.532  0.3976 -0.6134 -0.3280
 1237TIP3    H2 3718   5.464   2.484   4.634  0.0586 -0.1414 -0.8824
 1238TIP3   OH2 3719   2.947   1.244   1.789 -0.3997 -0.1379 -0.7464
 1238TIP3    H1 3720   2.900   1.176   1.838  1.5171 -0.5597  0.6042
 1238TIP3    H2 3721   2.940   1.322   1.844 -0.1005 -0.0245 -0.8694
 1239TIP3   OH2 3722   1.931   5.147   4.092 -0.1471 -0.8159 -0.3957
 1239TIP3    H1 3723   1.977   5.195   4.160 -3.1432 -0.4146  1.5015
 1239TIP3    H2 3724   1.873   5.087   4.139 -0.4869 -2.4016 -2.6554
 1240TIP3   OH2 3725   0.395   4.755   1.998  0.0977  0.7026 -0.0018
 1240TIP3    H1 3726   0.481   4.725   1.969 -0.1171  0.6665 -0.6339
 1240TIP3    H2 3727   0.373   4.826   1.937 -0.2351  0.8325  0.2698
 1241TIP3   OH2 3728   2.010   2.285   4.033 -0.5697 -0.2541 -0.2497
 1241TIP3    H1 3729   2.058   2.325   4.106 -0.4010 -0.7095 -0.1106
 1241TIP3    H2 3730   1.964   2.359   3.993 -0.4630  0.0441  0.1590
 1242TIP3   OH2 3731   0.876   2.834   3.933 -0.0067 -0.0919  0.9249
 1242TIP3    H1 3732   0.897   2.925   3.914  0.6073 -0.4433 -0.2078
 1242TIP3    H2 3733   0.809   2.811   3.869  0.7581 -0.7860  0.3481
 1243TIP3   OH2 3734   4.391   5.784   2.032  0.2254 -0.4464 -0.0121
 1243TIP3    H1 3735   4.471   5.835   2.046  1.5336 -2.6545  1.1840
 1243TIP3    H2 3736   4.320   5.843   2.060  1.2829  1.8594 -1.8562
 1244TIP3   OH2 3737   4.313   5.044   2.145  0.3379 -0.0286  0.3104
 1244TIP3    H1 3738   4.278   4.956   2.135 -1.4288  0.7658 -0.8866
 1244TIP3    H2 3739   4.251   5.101   2.099  1.2086  1.8974  1.3729
 1245TIP3   OH2 3740   4.735   5.607   3.347 -0.1293 -0.5142  1.0887
 1245TIP3    H1 3741   4.791   5.590   3.271 -0.1497  2.4261  0.2934
 1245TIP3    H2 3742   4.710   5.520   3.377  3.1601 -1.9432  0.2427
 1246TIP3   OH2 3743   5.914   5.417   3.965  0.5637  0.1630 -0.3083
 1246TIP3    H1 3744   5.920   5.429   4.060  0.3847  0.6157 -0.3537
 1246TIP3    H2 3745   5.827   5.381   3.951  2.3602 -5.4260  0.2469
 1247TIP3   OH2 3746   4.135   5.379   2.187  0.1827 -0.1614 -0.3402
 1247TIP3    H1 3747   4.193   5.345   2.119  0.5295  1.5851 -0.9680
 1247TIP3    H2 3748   4.074   5.436   2.140 -0.4189  0.0212  0.6391
 1248TIP3   OH2 3749   0.737   0.812   0.100 -0.1065  0.6851  0.2066
 1248TIP3    H1 3750   0.793   0.801   0.023  1.0847  1.7984  0.8666
 1248TIP3    H2 3751   0.728   0.907   0.110 -0.9678  0.5383  0.9393
 1249TIP3   OH2 3752   1.482   1.872   2.724  0.0627 -0.5845 -0.7273
 1249TIP3    H1 3753   1.387   1.888   2.725 -0.4451 -2.5394  3.3030
 1249TIP3    H2 3754   1.495   1.810   2.653 -2.2224 -2.3469  0.2554
 1250TIP3   OH2 3755   0.705   4.882   0.513 -0.4864 -0.3700 -0.2167
 1250TIP3    H1 3756   0.657   4.805   0.483  0.2662 -1.1741  0.5731
 1250TIP3    H2 3757   0.704   4.942   0.439 -0.3618 -1.4907 -1.1536
 1251TIP3   OH2 3758   4.773   2.639   2.774  0.2696  0.5772  0.1786
 1251TIP3    H1 3759   4.839   2.578   2.807 -0.6232 -1.6845 -1.8654
 1251TIP3    H2 3760   4.736   2.679   2.853  1.5940 -0.7824  1.5720
 1252TIP3   OH2 3761   4.114   5.074   1.943 -0.4140 -0.2076  0.4367
 1252TIP3    H1 3762   4.080   5.136   1.878 -0.7427  0.1691  0.9627
 1252TIP3    H2 3763   4.171   5.016   1.893  0.6019  1.0674  0.0903
 1253TIP3   OH2 3764   4.836   4.222   3.446 -0.6235 -0.3727 -0.2313
 1253TIP3    H1 3765   4.909   4.271   3.484 -0.8854 -0.5937  0.5712
 1253TIP3    H2 3766   4.826   4.146   3.502 -4.0903  1.6312  2.2698
 1254TIP3   OH2 3767   4.752   5.924   2.166  0.2910  0.5146  0.2136
 1254TIP3    H1 3768   4.778   6.016   2.166  1.3159  0.2342  0.5895
 1254TIP3    H2 3769   4.707   5.912   2.082 -0.0202  1.3955  0.2445
 1255TIP3   OH2 3770   6.225   1.677   3.406  0.2899  0.0992  0.1017
 1255TIP3    H1 3771   6.159   1.677   3.476  0.6100 -0.8403  0.4252
 1255TIP3    H2 3772   6.183   1.631   3.333  0.3026  0.2139  0.0224
 1256TIP3   OH2 3773   4.991   1.793   0.544 -0.3253  0.1601  0.2844
 1256TIP3    H1 3774   4.950   1.880   0.546 -0.4264  0.1299 -0.3710
 1256TIP3    H2 3775   5.010   1.778   0.452  1.6083  0.3854  0.5899
 1257TIP3   OH2 3776   1.053   5.314   1.276  0.3663 -0.0738  0.1760
 1257TIP3    H1 3777   1.104   5.369   1.216  2.0899 -0.9448  0.7716
 1257TIP3    H2 3778   1.118   5.255   1.315 -0.9117 -0.4230  1.8902
 1258TIP3   OH2 3779   3.334   5.806   3.853 -0.2957  0.2709 -0.1465
 1258TIP3    H1 3780   3.321   5.846   3.939 -1.5630 -2.2079  0.9057
 1258TIP3    H2 3781   3.249   5.812   3.810 -0.1398 -0.1133 -0.5159
 1259TIP3   OH2 3782   2.878   2.313   2.260 -0.0001  0.3718 -0.4727
 1259TIP3    H1 3783   2.798   2.263   2.276  0.8332 -1.1423 -0.8607
 1259TIP3    H2 3784   2.900   2.294   2.169  0.6630  0.9929 -0.4495
 1260TIP3   OH2 3785   3.306   4.138   0.905  0.2143 -0.2266 -0.3156
 1260TIP3    H1 3786   3.251   4.072   0.948  1.5444 -1.7280 -0.8252
 1260TIP3    H2 3787   3.258   4.220   0.916 -1.3780 -1.2262  0.5674
 1261TIP3   OH2 3788   3.894   2.139   4.627  0.9332 -0.0129  0.9344
 1261TIP3    H1 3789   3.834   2.093   4.569 -0.9581  1.8385  1.2907
 1261TIP3    H2 3790   3.977   2.092   4.619  0.4346 -0.5274 -2.3229
 1262TIP3   OH2 3791   5.083   0.573   0.805  0.8576 -0.1985  0.1709
 1262TIP3    H1 3792   5.104   0.653   0.758  1.6542  0.0194  0.8749
 1262TIP3    H2 3793   5.055   0.512   0.737 -1.3215  1.1434 -0.2179
 1263TIP3   OH2 3794   2.429   0.494   4.798 -0.8867 -0.0596  0.1186
 1263TIP3    H1 3795   2.337   0.471   4.788 -0.9012 -0.1286  0.4042
 1263TIP3    H2 3796   2.437   0.581   4.759 -0.8831 -0.4322 -0.7398
 1264TIP3   OH2 3797   1.766   3.438   0.929  0.7250  0.5695 -0.1012
 1264TIP3    H1 3798   1.824   3.506   0.894  0.6743  0.3697 -0.5821
 1264TIP3    H2 3799   1.822   3.362   0.941  1.0169  0.9979  1.4600
 1265TIP3   OH2 3800   1.149   0.841   0.355  0.3335  0.4936 -0.1785
 1265TIP3    H1 3801   1.094   0.765   0.373 -0.7531  1.0348 -1.0987
 1265TIP3    H2 3802   1.163   0.881   0.441  0.4886 -0.4390  0.2465
 1266TIP3   OH2 3803   0.383   3.767   1.132 -0.1550  0.5576 -1.1158
 1266TIP3    H1 3804   0.370   3.856   1.166 -0.8166  0.3361 -0.7528
 1266TIP3    H2 3805   0.380   3.776   1.037 -1.0560  0.8191 -1.0717
 1267TIP3   OH2 3806   5.306   2.495   2.342 -0.1579  0.1992 -0.1468
 1267TIP3    H1 3807   5.315   2.537   2.256 -0.3271 -0.3060 -0.4138
 1267TIP3    H2 3808   5.377   2.533   2.395 -1.1691  1.8874  0.0557
 1268TIP3   OH2 3809   2.674   1.256   1.483  0.3015  0.9288 -0.3113
 1268TIP3    H1 3810   2.768   1.264   1.501 -0.1217  2.2500  1.6716
 1268TIP3    H2 3811   2.669   1.203   1.404  2.6338 -1.2347  0.8667
 1269TIP3   OH2 3812   3.442   1.110   2.077  0.2517 -0.1851  0.2485
 1269TIP3    H1 3813   3.502   1.066   2.137  0.6119 -1.3462 -0.9046
 1269TIP3    H2 3814   3.448   1.203   2.100  1.9398 -0.3609  0.6545
 1270TIP3   OH2 3815   0.628   1.261   1.785 -0.0302  0.2150 -0.0026
 1270TIP3    H1 3816   0.635   1.266   1.690  0.4085  1.1998  0.0689
 1270TIP3    H2 3817   0.659   1.174   1.807  2.6827  0.9678 -0.5462
 1271TIP3   OH2 3818   4.926   0.641   5.016  0.2867  0.1485  0.0330
 1271TIP3    H1 3819   4.901   0.732   5.000 -0.7108 -0.1041  0.1116
 1271TIP3    H2 3820   4.843   0.595   5.031  0.7479 -0.8584 -0.4269
 1272TIP3   OH2 3821   1.974   5.460   2.862 -0.0335 -0.2872  0.4629
 1272TIP3    H1 3822   1.964   5.515   2.785  1.4477 -4.0729 -2.7854
 1272TIP3    H2 3823   2.069   5.460   2.879 -0.3145  0.2993  2.2044
 1273TIP3   OH2 3824   3.439   3.832   4.465 -0.1141  0.0412  0.2421
 1273TIP3    H1 3825   3.534   3.838   4.452 -0.3468  0.8931 -1.4403
 1273TIP3    H2 3826   3.426   3.852   4.557  1.3482 -0.2011  0.5343
 1274TIP3   OH2 3827   2.907   2.218   1.980 -0.0519  0.0872  0.3571
 1274TIP3    H1 3828   2.993   2.227   1.939  0.6507 -1.6420  1.3622
 1274TIP3    H2 3829   2.845   2.225   1.907  0.9267  1.1437 -0.4083
 1275TIP3   OH2 3830   1.323   1.760   3.697  0.1995  0.3727 -0.1854
 1275TIP3    H1 3831   1.227   1.764   3.699  0.0898 -1.3141 -0.7999
 1275TIP3    H2 3832   1.344   1.670   3.719  1.6749  0.7878  0.2171
 1276TIP3   OH2 3833   6.242   2.771   1.283  0.0428  0.1314 -0.2835
 1276TIP3    H1 3834   6.195   2.853   1.297  0.7769  0.6900 -0.9962
 1276TIP3    H2 3835   6.334   2.795   1.283  0.2844 -0.7622 -0.0874
 1277TIP3   OH2 3836   1.285   4.995   5.009  0.1755  0.0993  0.1143
 1277TIP3    H1 3837   1.240   4.941   5.074  0.5354  1.9828  2.0227
 1277TIP3    H2 3838   1.371   4.954   4.999 -0.8259 -1.8466 -1.4203
 1278TIP3   OH2 3839   5.772   1.729   4.007  0.0226 -0.7905  0.6682
 1278TIP3    H1 3840   5.796   1.821   4.003 -3.7115  0.3164 -1.1173
 1278TIP3    H2 3841   5.705   1.725   4.075 -0.5183 -1.9893  0.0915
 1279TIP3   OH2 3842   2.939   5.899   1.951 -0.5546  0.3058  0.1710
 1279TIP3    H1 3843   2.902   5.986   1.963  0.1921  0.4338  1.7097
 1279TIP3    H2 3844   2.999   5.908   1.877  1.8919  1.9417  2.1928
 1280TIP3   OH2 3845   2.862   4.290   0.475 -0.5134  0.0577  0.1533
 1280TIP3    H1 3846   2.943   4.250   0.506 -2.0519 -1.6738  2.2917
 1280TIP3    H2 3847   2.831   4.231   0.406 -1.2140 -0.8193  1.1699
 1281TIP3   OH2 3848   2.043   0.133   1.479 -0.0055 -0.1582 -0.5859
 1281TIP3    H1 3849   1.981   0.206   1.471 -0.5034 -0.6962 -1.7371
 1281TIP3    H2 3850   2.098   0.139   1.401  0.0270 -0.9544 -0.6258
 1282TIP3   OH2 3851   5.748   2.069   4.625  0.4395 -0.3228 -0.1996
 1282TIP3    H1 3852   5.663   2.089   4.664  1.0376 -0.9001  1.4925
 1282TIP3    H2 3853   5.812   2.098   4.691  1.6308  1.3205 -1.9726
 1283TIP3   OH2 3854   0.930   0.600   2.157  0.3473 -0.5905  0.3764
 1283TIP3    H1 3855   0.997   0.598   2.225  0.9227 -0.0558 -0.1587
 1283TIP3    H2 3856   0.974   0.639   2.082 -1.0945  1.6992  0.6166
 1284TIP3   OH2 3857   2.565   1.409   1.685 -0.4387  0.0325 -0.2445
 1284TIP3    H1 3858   2.636   1.435   1.744  0.6317 -0.5369 -1.2422
 1284TIP3    H2 3859   2.609   1.370   1.610 -1.8733 -1.7642 -0.2247
 1285TIP3   OH2 3860   1.656   1.804   1.160  0.6192  0.1303  0.0571
 1285TIP3    H1 3861   1.722   1.857   1.115  0.0885  0.1852 -0.6642
 1285TIP3    H2 3862   1.572   1.841   1.133  0.1996 -1.5362 -1.0649
 1286TIP3   OH2 3863   3.689   5.354   0.779  0.7336 -0.2717  0.5255
 1286TIP3    H1 3864   3.751   5.370   0.851  0.9814  0.2864  0.1908
 1286TIP3    H2 3865   3.603   5.371   0.818  0.8288 -0.4581  0.8256
 1287TIP3   OH2 3866   3.549   0.734   4.927 -0.2678  0.3606  0.4021
 1287TIP3    H1 3867   3.524   0.650   4.965 -0.1682  1.1952  2.4555
 1287TIP3    H2 3868   3.577   0.787   5.002  1.9690  1.4588 -1.0762
 1288TIP3   OH2 3869   3.463   1.185   3.487 -0.0269 -0.0996 -0.6333
 1288TIP3    H1 3870   3.368   1.195   3.486 -0.1061 -0.7999 -1.2338
 1288TIP3    H2 3871   3.480   1.119   3.554 -0.2001 -1.8546 -2.2299
 1289TIP3   OH2 3872   4.670   2.960   4.396 -0.6374 -0.0493 -0.2603
 1289TIP3    H1 3873   4.598   3.003   4.350  0.1129  0.8435 -0.6341
 1289TIP3    H2 3874   4.748   2.982   4.344 -0.1855 -1.7162 -0.3607
 1290TIP3   OH2 3875   1.429   2.378   1.523  0.4121  0.5748 -0.8170
 1290TIP3    H1 3876   1.523   2.371   1.541 -0.0261 -1.0323  1.1977
 1290TIP3    H2 3877   1.416   2.469   1.498  2.5927  0.6837 -1.7835
 1291TIP3   OH2 3878   4.359   3.440   0.232  0.3433  0.0307 -0.1476
 1291TIP3    H1 3879   4.373   3.406   0.144  0.1008 -0.5656  0.0397
 1291TIP3    H2 3880   4.435   3.494   0.250  1.8169 -2.0915  0.3555
 1292TIP3   OH2 3881   3.824   1.702   3.883  0.0285  0.1024  0.0823
 1292TIP3    H1 3882   3.881   1.695   3.807 -0.2473  0.2966 -0.1433
 1292TIP3    H2 3883   3.881   1.737   3.952  0.1789  0.3065 -0.1430
 1293TIP3   OH2 3884   1.336   3.345   1.792  0.1434 -0.1449 -0.3940
 1293TIP3    H1 3885   1.312   3.431   1.825 -2.2216 -0.9548  0.1715
 1293TIP3    H2 3886   1.357   3.360   1.700 -1.2004  0.9123 -0.5572
 1294TIP3   OH2 3887   0.454   4.586   3.631 -0.0298  0.2200  0.0484
 1294TIP3    H1 3888   0.446   4.612   3.540  1.0680  0.6035  0.0474
 1294TIP3    H2 3889   0.546   4.560   3.641 -0.2028 -0.0869  0.9692
 1295TIP3   OH2 3890   4.130   0.400   1.641  0.1439  0.2036  0.0325
 1295TIP3    H1 3891   4.155   0.434   1.727  1.0569  0.3093 -0.2678
 1295TIP3    H2 3892   4.092   0.314   1.659 -1.1754  0.8798  0.6945
 1296TIP3   OH2 3893   0.278   3.803   0.310  0.2814  0.0697  0.1652
 1296TIP3    H1 3894   0.360   3.761   0.334 -0.0698 -1.0124 -0.4907
 1296TIP3    H2 3895   0.288   3.893   0.342  1.6951 -0.0506  0.1364
 1297TIP3   OH2 3896   1.213   3.449   4.149 -0.5716 -0.2445 -0.2741
 1297TIP3    H1 3897   1.166   3.368   4.127  2.6543 -2.4896  0.4496
 1297TIP3    H2 3898   1.172   3.479   4.230 -1.1536 -1.7609  0.0309
 1298TIP3   OH2 3899   1.820   2.421   0.683  0.1772  0.1798  0.3890
 1298TIP3    H1 3900   1.736   2.445   0.723 -0.2787 -0.8831  0.0952
 1298TIP3    H2 3901   1.885   2.471   0.733 -0.6383  1.2522  0.4357
 1299TIP3   OH2 3902   5.582   0.710   3.407  0.2024  0.0395 -0.0306
 1299TIP3    H1 3903   5.561   0.766   3.333  1.1503  1.0763  0.4519
 1299TIP3    H2 3904   5.638   0.642   3.370 -0.9917 -0.6444 -0.6268
 1300TIP3   OH2 3905   0.017   4.914   4.057 -0.4147 -0.0480 -0.6325
 1300TIP3    H1 3906   0.050   4.841   4.110 -3.4510 -2.0273 -1.2408
 1300TIP3    H2 3907   0.096   4.950   4.016  1.4228 -1.7958  1.0822
 1301TIP3   OH2 3908   6.040   4.269   4.987  0.1326  0.1678 -0.5827
 1301TIP3    H1 3909   6.079   4.280   5.073 -1.8187  0.4098  0.3345
 1301TIP3    H2 3910   6.103   4.308   4.926  1.6920 -0.2972  0.6742
 1302TIP3   OH2 3911   2.752   5.233   0.233 -0.4865  0.3104 -0.3282
 1302TIP3    H1 3912   2.664   5.221   0.269 -1.2581  0.3792 -2.0878
 1302TIP3    H2 3913   2.745   5.202   0.143  1.2160  0.6328 -0.5963
 1303TIP3   OH2 3914   1.083   2.191   2.887  0.1517 -0.0219  0.1318
 1303TIP3    H1 3915   0.997   2.221   2.918  0.5734 -0.6765  2.0325
 1303TIP3    H2 3916   1.120   2.143   2.961  2.4952  0.9023 -0.3496
 1304TIP3   OH2 3917   4.488   5.027   0.788  0.2291  0.0411  0.2766
 1304TIP3    H1 3918   4.407   5.050   0.833 -0.4729 -2.9538  0.6947
 1304TIP3    H2 3919   4.556   5.038   0.855  0.1515  1.9182  0.1077
 1305TIP3   OH2 3920   4.803   3.268   3.673 -0.6933  0.7667  0.2270
 1305TIP3    H1 3921   4.720   3.270   3.626 -1.0397 -1.4373  0.6390
 1305TIP3    H2 3922   4.806   3.181   3.713  2.3334  0.2893 -0.7609
 1306TIP3   OH2 3923   4.586   5.852   0.077  0.0205  0.3696  0.1189
 1306TIP3    H1 3924   4.565   5.771   0.029 -2.0261  0.8142  0.1708
 1306TIP3    H2 3925   4.552   5.922   0.022  2.4617  1.3369 -0.3003
 1307TIP3   OH2 3926   3.252   4.964   4.179 -0.6268 -0.2716 -0.2075
 1307TIP3    H1 3927   3.189   4.910   4.227  0.9398 -0.4421  1.7984
 1307TIP3    H2 3928   3.289   5.023   4.245  1.6957 -0.5526 -1.1516
 1308TIP3   OH2 3929   1.349   3.544   2.016 -0.2565 -0.1233 -0.1743
 1308TIP3    H1 3930   1.263   3.585   2.002 -0.0398  0.1332 -0.7907
 1308TIP3    H2 3931   1.411   3.607   1.979  0.1082 -0.8686 -0.8479
 1309TIP3   OH2 3932   2.626   3.156   4.221 -0.4940 -0.4795  0.4485
 1309TIP3    H1 3933   2.572   3.235   4.220 -0.5453 -0.5054  1.1020
 1309TIP3    H2 3934   2.601   3.110   4.141  2.2961  1.9938 -2.1601
 1310TIP3   OH2 3935   1.017   5.833   4.235 -0.0301  0.1283 -0.1217
 1310TIP3    H1 3936   0.994   5.748   4.198 -4.0474  1.2051 -0.5638
 1310TIP3    H2 3937   1.046   5.884   4.160  0.2185 -0.1877 -0.2437
 1311TIP3   OH2 3938   5.851   2.165   1.355 -1.1688  0.5186  0.3932
 1311TIP3    H1 3939   5.871   2.245   1.306 -1.6369 -0.2328 -1.0545
 1311TIP3    H2 3940   5.759   2.148   1.336 -1.0081 -0.5104  0.4886
 1312TIP3   OH2 3941   0.246   2.728   3.675  0.3421 -0.6855  0.2610
 1312TIP3    H1 3942   0.213   2.678   3.749 -3.4441  0.3696 -0.4928
 1312TIP3    H2 3943   0.280   2.662   3.614  1.5519 -1.7089  1.9802
 1313TIP3   OH2 3944   3.191   2.672   3.129  0.2326 -0.7680 -0.1207
 1313TIP3    H1 3945   3.167   2.580   3.128  0.9441 -0.9619  0.5258
 1313TIP3    H2 3946   3.286   2.673   3.137  0.0830  0.0100  2.2893
 1314TIP3   OH2 3947   4.532   0.808   0.448 -0.2183  0.1795  0.0258
 1314TIP3    H1 3948   4.628   0.816   0.448 -0.1274 -0.2680  2.2285
 1314TIP3    H2 3949   4.501   0.898   0.462 -0.0570  0.1435  0.6545
 1315TIP3   OH2 3950   2.019   0.590   2.169 -0.1267 -0.0490  0.2539
 1315TIP3    H1 3951   1.982   0.677   2.179  0.4219  0.2415 -0.1810
 1315TIP3    H2 3952   2.040   0.583   2.076 -1.6277 -1.2529 -0.0495
 1316TIP3   OH2 3953   5.082   0.932   2.938 -0.0112 -0.9400  0.0336
 1316TIP3    H1 3954   5.121   0.959   2.854  2.9865 -1.6224  1.0640
 1316TIP3    H2 3955   5.077   0.836   2.931  1.0370 -1.0701  0.9044
 1317TIP3   OH2 3956   3.582   5.995   2.637  0.2861 -0.1325  0.2236
 1317TIP3    H1 3957   3.548   5.905   2.633 -0.3224  0.0379  1.2230
 1317TIP3    H2 3958   3.581   6.025   2.546 -2.3268 -0.1462  0.1746
 1318TIP3   OH2 3959   3.704   4.583   2.970 -0.3043  0.2625  0.1370
 1318TIP3    H1 3960   3.772   4.639   2.932 -1.9423  1.4530 -1.2147
 1318TIP3    H2 3961   3.625   4.637   2.967 -1.6680 -1.6429  0.1018
 1319TIP3   OH2 3962   0.108   4.268   4.482  0.5518  0.1132  0.6320
 1319TIP3    H1 3963   0.147   4.350   4.451  1.5061 -0.7284 -0.5227
 1319TIP3    H2 3964   0.021   4.292   4.512  0.3052  1.3409 -0.9401
 1320TIP3   OH2 3965   0.954   5.771   0.137 -0.3517 -0.2645 -0.2276
 1320TIP3    H1 3966   1.012   5.695   0.145 -0.5911 -0.6421 -1.7868
 1320TIP3    H2 3967   0.994   5.825   0.069  0.2362  1.4457  1.3639
 1321TIP3   OH2 3968   1.503   1.147   2.842 -0.6919  0.3413 -0.1538
 1321TIP3    H1 3969   1.450   1.104   2.909 -0.0354  1.3048  1.0282
 1321TIP3    H2 3970   1.580   1.091   2.833 -0.8277  0.1571 -0.1830
 1322TIP3   OH2 3971   1.257   5.684   2.504  0.1349  0.6393 -0.4958
 1322TIP3    H1 3972   1.303   5.692   2.587  2.6347  0.9248 -1.8316
 1322TIP3    H2 3973   1.225   5.594   2.503  0.9240  0.3382  0.3472
 1323TIP3   OH2 3974   3.266   0.447   5.133 -0.4837 -0.0693  0.0624
 1323TIP3    H1 3975   3.281   0.528   5.181  0.4980 -1.2955  1.9557
 1323TIP3    H2 3976   3.186   0.411   5.172 -1.4222  0.3722 -1.3789
 1324TIP3   OH2 3977   0.438   1.534   3.381 -0.3829  0.8667  0.0809
 1324TIP3    H1 3978   0.412   1.458   3.330  1.5614 -1.2836  2.0439
 1324TIP3    H2 3979   0.390   1.526   3.463  0.3412  1.3648  0.5736
 1325TIP3   OH2 3980   5.218   0.339   2.810 -0.3033 -0.4246 -0.2259
 1325TIP3    H1 3981   5.216   0.272   2.878 -0.9344 -0.6972 -0.5053
 1325TIP3    H2 3982   5.161   0.409   2.843 -0.1048 -0.2795 -0.1908
 1326TIP3   OH2 3983   0.190   3.340   1.306 -0.0864  0.3919  0.1474
 1326TIP3    H1 3984   0.106   3.295   1.292  0.3960 -0.1869 -0.9877
 1326TIP3    H2 3985   0.233   3.288   1.374 -1.1589  1.4390  1.6948
 1327TIP3   OH2 3986   2.257   4.293   3.409  0.2407  0.2344 -0.0001
 1327TIP3    H1 3987   2.215   4.378   3.404 -1.4526 -0.6308 -1.3699
 1327TIP3    H2 3988   2.211   4.247   3.479 -0.7321 -0.5016 -1.0963
 1328TIP3   OH2 3989   2.003   4.585   1.497 -0.2902  0.5090 -0.5777
 1328TIP3    H1 3990   1.925   4.564   1.447  1.3528  0.2845 -3.2456
 1328TIP3    H2 3991   2.022   4.507   1.548 -1.0964  0.0922 -0.9128
 1329TIP3   OH2 3992   0.280   5.536   0.367  0.0337  0.0344  0.0078
 1329TIP3    H1 3993   0.241   5.449   0.354 -1.1587  0.3032  1.5369
 1329TIP3    H2 3994   0.210   5.597   0.345 -0.5131  0.5259  2.7918
 1330TIP3   OH2 3995   0.706   1.499   2.825 -0.3511 -0.0944  0.5132
 1330TIP3    H1 3996   0.678   1.502   2.917 -1.6976  0.3190  0.1097
 1330TIP3    H2 3997   0.778   1.436   2.824  0.3448  0.6112  2.0097
 1331TIP3   OH2 3998   5.912   3.286   4.470 -0.3087  0.1239  0.3433
 1331TIP3    H1 3999   5.888   3.205   4.514  0.0098 -0.4392 -0.5093
 1331TIP3    H2 4000   6.007   3.283   4.463 -0.2711  0.6858  0.5158
 1332TIP3   OH2 4001   1.143   0.775   4.150 -0.3516  0.1356 -0.0290
 1332TIP3    H1 4002   1.054   0.748   4.128 -0.2417 -0.0449 -0.2560
 1332TIP3    H2 4003   1.131   0.853   4.205 -0.7821 -1.9636  3.1328
 1333TIP3   OH2 4004   6.153   3.114   2.709  0.5086 -0.2355 -0.3000
 1333TIP3    H1 4005   6.194   3.093   2.793  0.4320 -0.8131 -0.4014
 1333TIP3    H2 4006   6.205   3.066   2.645 -0.0857 -0.6680 -0.4698
 1334TIP3   OH2 4007   6.035   2.395   0.354 -0.4782 -0.0475  0.0297
 1334TIP3    H1 4008   6.103   2.461   0.367 -0.9991  0.5360 -0.1609
 1334TIP3    H2 4009   6.064   2.320   0.407 -0.8324  1.0156  1.8097
 1335TIP3   OH2 4010   2.318   3.031   2.504 -0.4437  0.1465 -0.1185
 1335TIP3    H1 4011   2.383   3.093   2.469  0.1851 -0.1770  0.4415
 1335TIP3    H2 4012   2.336   2.950   2.456 -0.5703  0.1127 -0.1065
 1336TIP3   OH2 4013   4.727   4.712   4.364  0.5821 -0.0724  0.0675
 1336TIP3    H1 4014   4.661   4.660   4.318 -0.3718  3.3173 -2.8533
 1336TIP3    H2 4015   4.680   4.752   4.437  0.1834  0.0300 -0.2431
 1337TIP3   OH2 4016   2.268   2.554   2.533  0.2201  0.2505  0.3462
 1337TIP3    H1 4017   2.266   2.517   2.621 -0.9110 -0.8888 -0.1319
 1337TIP3    H2 4018   2.240   2.645   2.544  0.1263  0.1277  1.1622
 1338TIP3   OH2 4019   3.193   2.032   3.500  0.5770  0.1839 -0.4341
 1338TIP3    H1 4020   3.207   2.018   3.406  0.2183  1.0243 -0.6215
 1338TIP3    H2 4021   3.103   2.005   3.515  0.4626  0.5667 -0.4377
 1339TIP3   OH2 4022   2.116   2.767   3.214 -0.8496  0.0701 -0.1113
 1339TIP3    H1 4023   2.059   2.724   3.279 -0.8258 -0.7631 -0.6203
 1339TIP3    H2 4024   2.055   2.803   3.149 -0.8900  1.1907  0.5218
 1340TIP3   OH2 4025   0.320   2.896   2.117 -0.3333  0.6116  0.2090
 1340TIP3    H1 4026   0.234   2.919   2.082 -1.0561 -1.7011  0.2951
 1340TIP3    H2 4027   0.358   2.840   2.050  0.5466  0.5405  0.7569
 1341TIP3   OH2 4028   0.858   1.666   1.851 -0.2291 -0.4559  0.2348
 1341TIP3    H1 4029   0.785   1.725   1.867  0.8918  0.5130  2.0670
 1341TIP3    H2 4030   0.872   1.620   1.934  1.1259 -0.7390 -0.1163
 1342TIP3   OH2 4031   5.088   0.083   0.835 -0.1214  0.8991  0.3514
 1342TIP3    H1 4032   5.060   0.165   0.795  0.0240  1.7056  1.8625
 1342TIP3    H2 4033   5.175   0.100   0.870  1.0559 -0.6909 -1.5566
 1343TIP3   OH2 4034   5.371   1.739   4.599 -0.1361  0.4970 -0.2600
 1343TIP3    H1 4035   5.279   1.713   4.598 -0.4736  1.5282 -2.0227
 1343TIP3    H2 4036   5.391   1.757   4.691 -1.6138  0.0220  0.1749
 1344TIP3   OH2 4037   0.627   1.511   1.241 -0.2627 -0.3832 -0.5567
 1344TIP3    H1 4038   0.584   1.482   1.160  1.0281  0.7747 -1.7049
 1344TIP3    H2 4039   0.586   1.594   1.262 -1.3883 -1.2043  0.6671
 1345TIP3   OH2 4040   2.211   2.197   2.251  0.0936 -0.8038  0.1391
 1345TIP3    H1 4041   2.237   2.287   2.233 -0.5041 -0.5945  0.3087
 1345TIP3    H2 4042   2.263   2.145   2.189 -1.1709 -0.1726 -1.5503
 1346TIP3   OH2 4043   2.239   3.343   1.631  0.1320 -0.8739  0.0198
 1346TIP3    H1 4044   2.233   3.249   1.646 -0.2768 -0.8254  0.1715
 1346TIP3    H2 4045   2.219   3.354   1.538  1.0179 -1.0127 -0.1982
 1347TIP3   OH2 4046   1.536   2.099   3.145 -0.2370  0.4424  0.1555
 1347TIP3    H1 4047   1.460   2.157   3.150  1.3187  2.4858  1.9782
 1347TIP3    H2 4048   1.528   2.041   3.221 -0.4767 -0.0513 -0.2373
 1348TIP3   OH2 4049   5.215   1.347   0.336  0.2563  0.2996  0.3161
 1348TIP3    H1 4050   5.126   1.382   0.335 -0.0963 -0.5413  0.6115
 1348TIP3    H2 4051   5.203   1.252   0.347  1.0999 -0.1076 -1.7404
 1349TIP3   OH2 4052   1.301   3.766   0.176  0.3794  0.0666 -0.2811
 1349TIP3    H1 4053   1.216   3.781   0.219  1.8249  3.4643  1.8984
 1349TIP3    H2 4054   1.330   3.681   0.208 -1.9383 -0.9527 -0.7146
 1350TIP3   OH2 4055   6.068   1.353   4.981 -0.1668  0.0722 -0.2155
 1350TIP3    H1 4056   5.993   1.406   5.008  1.6671  1.5280  2.5453
 1350TIP3    H2 4057   6.087   1.382   4.892  0.2205  3.6532  0.8644
 1351TIP3   OH2 4058   5.633   5.422   4.885 -0.4537  0.2886  0.1665
 1351TIP3    H1 4059   5.562   5.487   4.882  0.1936  0.9751 -2.9385
 1351TIP3    H2 4060   5.607   5.355   4.822  0.0804 -1.2576  1.5303
 1352TIP3   OH2 4061   5.324   5.373   2.633 -0.2631 -0.0671 -0.3695
 1352TIP3    H1 4062   5.333   5.300   2.695  0.4794  0.0278 -0.3612
 1352TIP3    H2 4063   5.397   5.362   2.572 -1.6650 -0.8491 -1.9789
 1353TIP3   OH2 4064   5.070   2.155   3.725 -0.3173 -0.4173 -0.8970
 1353TIP3    H1 4065   5.011   2.150   3.800  0.8242 -0.2114  0.0359
 1353TIP3    H2 4066   5.039   2.087   3.666  0.2275 -2.2335  0.8179
 1354TIP3   OH2 4067   0.666   0.656   2.260  0.0384 -0.3620 -0.0645
 1354TIP3    H1 4068   0.751   0.660   2.216  0.6101  0.2116  1.0578
 1354TIP3    H2 4069   0.683   0.606   2.340 -0.3743  0.8510  0.8058
 1355TIP3   OH2 4070   5.495   1.205   3.985  0.1926 -0.2592  0.0847
 1355TIP3    H1 4071   5.481   1.254   3.904 -1.9860  0.8283  1.0339
 1355TIP3    H2 4072   5.590   1.201   3.995  0.4907  0.0817 -2.1939
 1356TIP3   OH2 4073   6.077   3.358   2.542 -0.0321 -0.3479 -0.2444
 1356TIP3    H1 4074   6.046   3.269   2.521  1.5274 -0.9188 -0.2262
 1356TIP3    H2 4075   6.030   3.414   2.481 -0.4509 -1.2649 -0.7988
 1357TIP3   OH2 4076   2.786   2.554   2.634  0.3607 -0.3813 -0.0086
 1357TIP3    H1 4077   2.748   2.592   2.713 -2.8930 -0.5691 -1.3220
 1357TIP3    H2 4078   2.822   2.628   2.586 -0.3006  0.1630  0.3195
 1358TIP3   OH2 4079   5.469   4.829   2.035 -0.1177 -0.5820  0.4771
 1358TIP3    H1 4080   5.387   4.816   2.084 -0.7397  0.3915 -0.2509
 1358TIP3    H2 4081   5.459   4.774   1.958 -0.2480 -0.1904  0.2127
 1359TIP3   OH2 4082   5.810   5.721   4.102 -0.0433  0.3416 -0.0338
 1359TIP3    H1 4083   5.761   5.640   4.113 -0.9086  0.7720 -0.5605
 1359TIP3    H2 4084   5.814   5.759   4.190  1.3403 -0.7849  0.4220
 1360TIP3   OH2 4085   0.732   0.549   3.752 -0.0976 -0.3699  0.3969
 1360TIP3    H1 4086   0.757   0.590   3.669 -2.0669 -0.4338 -0.2871
 1360TIP3    H2 4087   0.659   0.602   3.784 -0.6287 -1.4802  1.1080
 1361TIP3   OH2 4088   2.868   1.281   2.431 -0.6013  0.0362  0.0948
 1361TIP3    H1 4089   2.962   1.269   2.444 -0.6245 -0.6988 -0.3303
 1361TIP3    H2 4090   2.828   1.250   2.512 -0.5646 -1.4720 -0.4169
 1362TIP3   OH2 4091   1.221   0.758   3.074 -0.2997  0.0003 -0.7440
 1362TIP3    H1 4092   1.198   0.732   2.985  0.8504 -0.1306 -1.0182
 1362TIP3    H2 4093   1.284   0.692   3.103  0.8581  1.1530 -0.5799
 1363TIP3   OH2 4094   3.323   1.234   4.176 -0.0988 -0.2942  0.2390
 1363TIP3    H1 4095   3.286   1.160   4.127 -0.2306  0.4798 -0.8726
 1363TIP3    H2 4096   3.314   1.309   4.117 -0.3595  0.7107  1.5009
 1364TIP3   OH2 4097   3.341   3.767   4.174 -0.6384 -0.1935 -0.2828
 1364TIP3    H1 4098   3.425   3.784   4.216 -0.3007 -0.7262 -0.7312
 1364TIP3    H2 4099   3.354   3.794   4.083 -0.7011 -1.0240 -0.5413
 1365TIP3   OH2 4100   2.674   2.008   4.892 -0.2036  0.2088 -0.2851
 1365TIP3    H1 4101   2.589   2.049   4.874  0.2884  0.9289 -1.0454
 1365TIP3    H2 4102   2.737   2.067   4.852  0.6874 -0.1568  0.5502
 1366TIP3   OH2 4103   6.312   1.382   0.971  0.8686 -0.4007 -0.4019
 1366TIP3    H1 4104   6.254   1.455   0.994 -1.0602 -1.6823 -1.0173
 1366TIP3    H2 4105   6.274   1.344   0.892  0.1991 -3.7088  1.3182
 1367TIP3   OH2 4106   5.645   5.942   4.981 -0.2176  0.1374  0.8061
 1367TIP3    H1 4107   5.675   5.943   5.072  1.0793 -2.2413  0.4905
 1367TIP3    H2 4108   5.558   5.901   4.985  0.9840 -2.6588  0.8162
 1368TIP3   OH2 4109   5.861   3.584   0.166 -0.1910  0.4349  0.5698
 1368TIP3    H1 4110   5.908   3.544   0.093  1.6532  0.6544  1.5643
 1368TIP3    H2 4111   5.770   3.557   0.155  0.3969 -1.1273 -0.7121
 1369TIP3   OH2 4112   0.100   0.788   2.855 -0.3237  0.3349  0.2070
 1369TIP3    H1 4113   0.050   0.752   2.782  0.9334 -0.2927 -0.3660
 1369TIP3    H2 4114   0.047   0.862   2.886 -2.2844 -1.1350  0.5260
 1370TIP3   OH2 4115   0.660   2.573   0.466  0.0908 -0.3254  0.1289
 1370TIP3    H1 4116   0.601   2.639   0.504 -0.6687 -0.4743 -0.7597
 1370TIP3    H2 4117   0.603   2.498   0.449  0.5226 -0.4473 -0.8194
 1371TIP3   OH2 4118   0.572   5.120   2.830  0.3946 -0.2133  0.5163
 1371TIP3    H1 4119   0.636   5.190   2.844  0.0162  0.6263 -1.5461
 1371TIP3    H2 4120   0.564   5.114   2.734 -3.1585  0.2592  0.6546
 1372TIP3   OH2 4121   5.747   4.251   0.413 -0.5203 -0.1372  0.3356
 1372TIP3    H1 4122   5.693   4.320   0.374  1.0744 -0.1604 -2.1580
 1372TIP3    H2 4123   5.710   4.169   0.379 -0.3864 -0.3066  0.5907
 1373TIP3   OH2 4124   3.536   5.831   4.896  0.0912 -0.2670  0.5946
 1373TIP3    H1 4125   3.516   5.925   4.895 -1.1095 -0.4988  0.9573
 1373TIP3    H2 4126   3.485   5.795   4.823 -0.0915 -0.7522  0.9584
 1374TIP3   OH2 4127   1.795   1.284   4.163  0.7658 -0.0037 -0.4009
 1374TIP3    H1 4128   1.732   1.217   4.137 -0.3492  0.5395  0.8007
 1374TIP3    H2 4129   1.844   1.244   4.234  0.5929  0.1847 -0.1729
 1375TIP3   OH2 4130   2.868   1.176   0.075 -0.5192  0.0856 -0.1035
 1375TIP3    H1 4131   2.962   1.185   0.085 -0.2075  0.5357 -2.8213
 1375TIP3    H2 4132   2.851   1.083   0.094  0.5930 -0.2135 -0.4982
 1376TIP3   OH2 4133   5.531   3.037   0.166 -0.0406  0.0290 -0.0135
 1376TIP3    H1 4134   5.556   3.101   0.232 -1.8483 -0.4155  1.1726
 1376TIP3    H2 4135   5.603   2.974   0.165  0.4911  0.5991  0.7872
 1377TIP3   OH2 4136   5.172   2.262   4.047 -0.4100 -0.5105  0.0600
 1377TIP3    H1 4137   5.103   2.275   4.112 -0.2268 -1.4219  0.4494
 1377TIP3    H2 4138   5.143   2.188   3.994 -0.3606 -0.0396 -0.6447
 1378TIP3   OH2 4139   5.351   0.613   3.848  0.4769 -0.4884  0.2284
 1378TIP3    H1 4140   5.389   0.552   3.912 -1.2347 -1.9001 -0.0029
 1378TIP3    H2 4141   5.393   0.590   3.765 -1.1374 -2.4254 -0.1369
 1379TIP3   OH2 4142   5.661   3.353   0.570 -0.3700 -0.3728  0.3341
 1379TIP3    H1 4143   5.677   3.439   0.531 -0.1259 -0.6470 -0.1839
 1379TIP3    H2 4144   5.744   3.331   0.613 -0.7084  0.0267  1.2189
 1380TIP3   OH2 4145   4.195   2.756   1.492  0.2553 -0.4302  0.6127
 1380TIP3    H1 4146   4.271   2.701   1.472 -0.6344 -1.2234 -0.8205
 1380TIP3    H2 4147   4.232   2.842   1.509  1.4794 -0.7366 -0.2752
 1381TIP3   OH2 4148   2.841   4.335   2.700 -0.0636 -0.1574  0.1294
 1381TIP3    H1 4149   2.790   4.288   2.766 -0.4801 -1.1506 -0.8463
 1381TIP3    H2 4150   2.882   4.265   2.649  0.6240  0.5967 -0.3615
 1382TIP3   OH2 4151   4.317   3.645   4.835 -0.6515 -0.1464 -0.2372
 1382TIP3    H1 4152   4.259   3.601   4.773 -1.5606 -1.2641  1.3312
 1382TIP3    H2 4153   4.358   3.574   4.884 -1.1917  0.6973  1.5047
 1383TIP3   OH2 4154   0.645   5.224   4.154 -0.1935 -0.0079 -0.4336
 1383TIP3    H1 4155   0.684   5.235   4.241  0.8478 -1.5335 -0.6598
 1383TIP3    H2 4156   0.681   5.141   4.122 -1.0956  0.1760 -2.0453
 1384TIP3   OH2 4157   4.454   1.404   0.464 -0.1685 -0.0550  0.2732
 1384TIP3    H1 4158   4.535   1.438   0.426  0.3903 -0.8502  0.7133
 1384TIP3    H2 4159   4.390   1.474   0.452  0.7733  0.8816  0.5639
 1385TIP3   OH2 4160   1.833   2.891   3.529 -0.4449  0.0808  0.4090
 1385TIP3    H1 4161   1.898   2.924   3.592  0.9655 -0.5662 -0.6662
 1385TIP3    H2 4162   1.752   2.885   3.580  1.0096 -2.0743  2.7029
 1386TIP3   OH2 4163   2.064   3.253   0.418  0.2390  0.2417 -0.3452
 1386TIP3    H1 4164   2.121   3.181   0.391  1.6008  0.3475  1.9157
 1386TIP3    H2 4165   2.117   3.302   0.481 -1.1988  2.3473 -0.6712
 1387TIP3   OH2 4166   4.657   3.593   4.557 -0.0671 -0.1389 -0.1905
 1387TIP3    H1 4167   4.602   3.585   4.479 -2.0916  2.1824  0.8518
 1387TIP3    H2 4168   4.678   3.686   4.562  0.2408 -0.2659  1.8625
 1388TIP3   OH2 4169   5.815   4.343   3.892  0.2861 -0.2202 -0.3836
 1388TIP3    H1 4170   5.906   4.347   3.922 -0.0164 -0.2544  0.5890
 1388TIP3    H2 4171   5.814   4.390   3.809  0.8615  1.3377  0.4522
 1389TIP3   OH2 4172   1.600   5.024   3.989  0.2353  0.1639  0.0795
 1389TIP3    H1 4173   1.647   5.053   3.911  2.4705 -0.3171  1.1593
 1389TIP3    H2 4174   1.664   4.970   4.036  0.0232  2.7175  3.6677
 1390TIP3   OH2 4175   4.595   5.794   4.855 -0.3422  0.3301 -0.4734
 1390TIP3    H1 4176   4.535   5.814   4.783 -0.9479 -0.4956 -0.2248
 1390TIP3    H2 4177   4.673   5.845   4.837 -0.5116  0.1885 -1.6877
 1391TIP3   OH2 4178   3.788   0.148   1.823 -0.3977  0.0419 -0.3371
 1391TIP3    H1 4179   3.709   0.119   1.779 -1.8811  1.4351  1.2509
 1391TIP3    H2 4180   3.761   0.227   1.871  2.6910  2.4977 -2.2388
 1392TIP3   OH2 4181   2.524   0.379   1.533 -0.1935 -0.0876 -0.8674
 1392TIP3    H1 4182   2.596   0.432   1.499 -0.7174 -0.0909 -2.0232
 1392TIP3    H2 4183   2.471   0.359   1.456 -0.6487 -1.2975 -0.2562
 1393TIP3   OH2 4184   4.975   5.272   3.359  0.1699  0.2286  0.2401
 1393TIP3    H1 4185   4.961   5.187   3.319 -0.1249  0.8958 -1.1475
 1393TIP3    H2 4186   5.044   5.313   3.305 -0.1749  1.1188  0.4542
 1394TIP3   OH2 4187   4.444   5.958   1.719 -0.5697  0.0555 -0.5507
 1394TIP3    H1 4188   4.423   6.051   1.724  1.4057  0.5260 -0.0528
 1394TIP3    H2 4189   4.522   5.954   1.663 -0.3458 -1.2379 -0.1851
 1395TIP3   OH2 4190   4.168   5.749   3.487  0.8573 -0.2155  0.0307
 1395TIP3    H1 4191   4.158   5.694   3.565  0.7638  0.7438  0.7054
 1395TIP3    H2 4192   4.085   5.740   3.441 -0.2997  1.5609  1.6092
 1396TIP3   OH2 4193   3.456   5.567   4.998 -0.4529 -0.3672 -0.0196
 1396TIP3    H1 4194   3.539   5.543   4.956 -0.7007 -1.6986  0.2113
 1396TIP3    H2 4195   3.483   5.618   5.075  0.2289 -1.5501  0.5655
 1397TIP3   OH2 4196   5.608   0.622   4.084 -0.5266 -0.2111 -0.3403
 1397TIP3    H1 4197   5.528   0.571   4.070 -0.9518  0.1781  0.5600
 1397TIP3    H2 4198   5.640   0.594   4.170 -1.5894  2.0116  0.8779
 1398TIP3   OH2 4199   4.668   2.716   2.490  0.7204  0.1198  0.1657
 1398TIP3    H1 4200   4.662   2.725   2.395  1.8286  2.1666  0.2233
 1398TIP3    H2 4201   4.752   2.756   2.512 -0.0521  0.7607  2.1229
 1399TIP3   OH2 4202   5.643   3.082   3.039 -0.1199 -0.0633 -0.0685
 1399TIP3    H1 4203   5.598   2.998   3.029 -0.2007 -0.1728  1.0498
 1399TIP3    H2 4204   5.684   3.098   2.954 -2.0889 -0.0583 -1.0733
 1400TIP3   OH2 4205   4.537   3.466   2.094  0.0970  0.3094  0.2873
 1400TIP3    H1 4206   4.602   3.532   2.072 -0.1327  0.5899  0.4405
 1400TIP3    H2 4207   4.578   3.414   2.163  0.6247 -0.2628 -0.4486
 1401TIP3   OH2 4208   2.528   0.040   0.870 -0.4593  0.4825  0.6860
 1401TIP3    H1 4209   2.545   0.085   0.787 -0.0393  1.0937  1.0927
 1401TIP3    H2 4210   2.432   0.036   0.876 -0.6164  3.2130  1.5950
 1402TIP3   OH2 4211   0.378   5.418   2.293  0.2513 -0.1281  0.9394
 1402TIP3    H1 4212   0.324   5.342   2.318  1.8599 -1.6967 -0.1276
 1402TIP3    H2 4213   0.436   5.431   2.368  0.7804 -0.7565  0.6534
 1403TIP3   OH2 4214   6.092   2.892   3.675  0.5523 -0.5138 -0.0130
 1403TIP3    H1 4215   6.166   2.832   3.671  0.0104 -1.1637 -0.6496
 1403TIP3    H2 4216   6.025   2.844   3.723  0.2674 -0.2511 -0.1413
 1404TIP3   OH2 4217   3.579   1.286   1.585  0.4544  0.1964  0.4488
 1404TIP3    H1 4218   3.495   1.331   1.575  1.3373  1.8052  0.0349
 1404TIP3    H2 4219   3.602   1.299   1.677  0.3464 -0.0917  0.5184
 1405TIP3   OH2 4220   5.142   0.178   1.955  0.0919 -0.2465 -0.1579
 1405TIP3    H1 4221   5.110   0.242   2.019 -1.9541 -1.3929  0.0587
 1405TIP3    H2 4222   5.190   0.114   2.007 -0.9996 -0.8187  0.1769
 1406TIP3   OH2 4223   2.388   1.023   1.712 -0.1282  0.0811  0.4693
 1406TIP3    H1 4224   2.367   1.114   1.735  0.9558  0.9148 -1.5652
 1406TIP3    H2 4225   2.316   0.995   1.656  0.5193  0.4194 -0.5585
 1407TIP3   OH2 4226   0.073   5.709   4.037  0.2180 -0.0344 -0.7121
 1407TIP3    H1 4227  -0.014   5.750   4.033  0.3428  0.2941 -0.1481
 1407TIP3    H2 4228   0.130   5.769   3.987  0.6473  1.1463  1.1145
 1408TIP3   OH2 4229   6.212   0.156   0.939  0.1360 -0.5686  0.1236
 1408TIP3    H1 4230   6.163   0.080   0.971  1.8590 -3.1376 -2.8010
 1408TIP3    H2 4231   6.152   0.199   0.878  0.4395 -2.0314 -1.2734
 1409TIP3   OH2 4232   0.422   1.308   0.517  0.0892  0.1266  0.6401
 1409TIP3    H1 4233   0.335   1.306   0.557 -0.2433 -0.0253 -0.0764
 1409TIP3    H2 4234   0.409   1.273   0.429  0.7470  0.7390  0.2868
 1410TIP3   OH2 4235   3.024   3.856   4.511  0.3397  0.7894  0.2732
 1410TIP3    H1 4236   3.087   3.912   4.557  0.0266  1.3888 -0.0149
 1410TIP3    H2 4237   2.967   3.822   4.580  0.4427  0.9414  0.4330
 1411TIP3   OH2 4238   2.545   2.916   2.940 -0.3628  0.2704  0.2664
 1411TIP3    H1 4239   2.526   3.000   2.899 -0.9094 -0.7029 -1.5609
 1411TIP3    H2 4240   2.460   2.888   2.976 -0.1558  0.5214  0.9803
 1412TIP3   OH2 4241   2.355   0.456   0.838  0.0026  0.4521 -0.5346
 1412TIP3    H1 4242   2.353   0.454   0.742 -0.4530  1.1502 -0.5469
 1412TIP3    H2 4243   2.320   0.542   0.861 -0.1629  0.1785  0.2700
 1413TIP3   OH2 4244   3.232   2.511   2.699  0.0203 -0.0479 -0.4050
 1413TIP3    H1 4245   3.169   2.483   2.633 -0.6756  0.3079  0.0941
 1413TIP3    H2 4246   3.314   2.469   2.673  0.2315  1.4812 -2.5105
 1414TIP3   OH2 4247   3.578   2.521   0.798  0.1160  0.1855 -0.1338
 1414TIP3    H1 4248   3.577   2.541   0.891  0.8824  0.2691 -0.1428
 1414TIP3    H2 4249   3.528   2.592   0.757 -0.6690 -0.1301  0.2605
 1415TIP3   OH2 4250   5.111   4.001   3.291  0.0369  0.6485  0.7611
 1415TIP3    H1 4251   5.144   4.045   3.212  0.9732  0.8994  1.2760
 1415TIP3    H2 4252   5.156   3.916   3.291 -1.3079 -0.0976  0.0920
 1416TIP3   OH2 4253   0.780   0.706   0.919 -0.1536 -0.2551 -0.7402
 1416TIP3    H1 4254   0.694   0.680   0.887 -2.1095  2.2034  1.9709
 1416TIP3    H2 4255   0.795   0.792   0.880  1.4990 -0.9470 -1.7391
 1417TIP3   OH2 4256   5.945   2.849  -0.002 -0.0075  0.2103  0.1476
 1417TIP3    H1 4257   5.864   2.805   0.024  0.0679 -1.0540 -1.5774
 1417TIP3    H2 4258   6.008   2.823   0.065 -0.4522 -0.7527  0.2160
 1418TIP3   OH2 4259   0.326   4.637   4.895  0.0437 -0.0752 -0.0523
 1418TIP3    H1 4260   0.351   4.726   4.869 -0.3380 -0.4997 -1.9661
 1418TIP3    H2 4261   0.287   4.599   4.817  0.4396 -2.0348  0.6582
 1419TIP3   OH2 4262   3.802   2.773   2.780  0.1014 -0.3222  0.3471
 1419TIP3    H1 4263   3.741   2.787   2.708  1.8450  0.1291 -1.1307
 1419TIP3    H2 4264   3.837   2.685   2.765  1.4763  0.2940 -0.1962
 1420TIP3   OH2 4265   4.541   5.489   2.052 -0.2031 -0.4399  0.2142
 1420TIP3    H1 4266   4.622   5.503   2.003  0.2882 -1.5927  0.6585
 1420TIP3    H2 4267   4.558   5.529   2.138 -0.2619 -0.3331  0.1770
 1421TIP3   OH2 4268   1.211   3.942   0.858 -0.0891 -0.4442  0.5205
 1421TIP3    H1 4269   1.239   3.854   0.834 -0.6564 -0.7136  0.8257
 1421TIP3    H2 4270   1.253   3.999   0.793 -0.6788 -1.0491 -0.4138
 1422TIP3   OH2 4271   0.629   1.401   1.534  0.7963 -0.1322 -0.5176
 1422TIP3    H1 4272   0.611   1.484   1.579  1.1788 -0.5421  0.4149
 1422TIP3    H2 4273   0.619   1.422   1.441 -2.8409  0.0913 -0.2437
 1423TIP3   OH2 4274   4.744   4.306   4.181  0.5832 -0.3931  0.1249
 1423TIP3    H1 4275   4.786   4.220   4.189  1.3109 -0.0473  0.0927
 1423TIP3    H2 4276   4.785   4.359   4.249 -0.0226 -0.1293  0.2858
 1424TIP3   OH2 4277   3.338   4.469   3.692  0.1897 -0.4733 -0.7677
 1424TIP3    H1 4278   3.378   4.390   3.655  1.4679  0.3913 -1.3116
 1424TIP3    H2 4279   3.401   4.538   3.673 -0.2258  0.4299  0.9672
 1425TIP3   OH2 4280   1.370   5.885   0.801 -0.0438  0.2463 -0.8049
 1425TIP3    H1 4281   1.402   5.804   0.760 -0.9040 -0.1950 -0.6193
 1425TIP3    H2 4282   1.447   5.922   0.843  0.2439 -0.7801 -0.4041
 1426TIP3   OH2 4283   3.190   3.218   3.476 -0.3744 -0.5044 -0.5200
 1426TIP3    H1 4284   3.164   3.247   3.563 -0.1788 -0.6033 -0.4301
 1426TIP3    H2 4285   3.245   3.288   3.442  0.3446 -0.9036 -0.1863
 1427TIP3   OH2 4286   6.335   1.123   3.170  0.4937 -0.5067  0.1129
 1427TIP3    H1 4287   6.380   1.081   3.243 -1.2660 -0.9662  0.9827
 1427TIP3    H2 4288   6.339   1.217   3.190 -1.2938 -0.6975  1.6811
 1428TIP3   OH2 4289   1.602   3.192   4.604  0.4960  0.2232  0.4383
 1428TIP3    H1 4290   1.516   3.186   4.563  0.0796  0.8531  1.1876
 1428TIP3    H2 4291   1.583   3.200   4.698  1.3920 -0.3115  0.6821
 1429TIP3   OH2 4292   5.620   5.839   3.095 -0.0758  0.2599  0.5896
 1429TIP3    H1 4293   5.659   5.777   3.033 -0.5660 -0.7267  1.2440
 1429TIP3    H2 4294   5.603   5.917   3.043  3.0518  0.8872  0.3320
 1430TIP3   OH2 4295   2.330   0.741   0.865 -0.1604  0.3128  0.3651
 1430TIP3    H1 4296   2.377   0.805   0.811  0.7331 -0.3501  0.3255
 1430TIP3    H2 4297   2.259   0.790   0.905  0.0919  1.1674 -0.2142
 1431TIP3   OH2 4298   1.605   1.432   4.369 -0.0218  0.1250 -0.0171
 1431TIP3    H1 4299   1.690   1.390   4.355 -0.3088 -0.0933 -1.2519
 1431TIP3    H2 4300   1.602   1.501   4.302 -0.8772  0.0384 -0.0740
 1432TIP3   OH2 4301   1.114   1.786   4.691  0.0685  0.3864 -0.9640
 1432TIP3    H1 4302   1.208   1.768   4.690  0.2283  1.1625 -0.6451
 1432TIP3    H2 4303   1.101   1.843   4.766 -0.6278  0.4569 -1.1274
 1433TIP3   OH2 4304   3.305   4.860   4.741 -0.2277 -0.5692  0.5431
 1433TIP3    H1 4305   3.263   4.896   4.819  0.4101 -1.2969  1.2398
 1433TIP3    H2 4306   3.252   4.783   4.719 -0.6788 -0.1074 -0.0307
 1434TIP3   OH2 4307   1.891   3.062   2.080 -0.2998  0.0583  0.4243
 1434TIP3    H1 4308   1.979   3.099   2.085 -0.6589  0.9260  0.4411
 1434TIP3    H2 4309   1.833   3.132   2.109 -1.1507  0.0777 -1.2204
 1435TIP3   OH2 4310   4.357   1.715   0.748  0.7209 -0.5167  0.0880
 1435TIP3    H1 4311   4.421   1.657   0.789  0.9069  0.2285  0.8774
 1435TIP3    H2 4312   4.299   1.740   0.820  0.8500  0.5547 -0.1704
 1436TIP3   OH2 4313   4.764   0.776   1.393 -0.6556  0.5456  0.3212
 1436TIP3    H1 4314   4.844   0.828   1.405  0.4115 -0.8492 -0.4733
 1436TIP3    H2 4315   4.770   0.707   1.459  0.0782 -1.0229 -1.2968
 1437TIP3   OH2 4316   1.455   2.678   2.990  0.0237 -0.1571  0.4629
 1437TIP3    H1 4317   1.395   2.604   2.980  0.8566 -0.9325  1.0519
 1437TIP3    H2 4318   1.432   2.737   2.919 -1.0258 -0.7228  0.3116
 1438TIP3   OH2 4319   3.742   3.628   0.790  0.0260 -0.2015 -0.0029
 1438TIP3    H1 4320   3.664   3.585   0.826 -0.7648  0.9076 -0.3239
 1438TIP3    H2 4321   3.741   3.716   0.828 -0.2793  0.6698 -1.8751
 1439TIP3   OH2 4322   4.088   2.488   0.031  0.2541 -0.1562  0.1272
 1439TIP3    H1 4323   4.127   2.401   0.025 -0.1419 -0.3496  0.3055
 1439TIP3    H2 4324   4.038   2.486   0.113 -0.0684  0.1084 -0.0605
 1440TIP3   OH2 4325   5.434   4.833   4.523  0.5026 -0.9772  0.5555
 1440TIP3    H1 4326   5.415   4.739   4.530  0.5669 -1.0405 -0.0820
 1440TIP3    H2 4327   5.457   4.846   4.431 -1.0984 -0.0240  0.2622
 1441TIP3   OH2 4328   2.386   4.220   3.962  0.2963 -0.4473 -0.1638
 1441TIP3    H1 4329   2.294   4.246   3.955  0.4118 -0.0955 -0.3710
 1441TIP3    H2 4330   2.409   4.191   3.874  0.4806 -0.2189 -0.1898
 1442TIP3   OH2 4331   3.088   5.310   1.252  0.0757 -0.3230  0.4764
 1442TIP3    H1 4332   3.098   5.339   1.342 -0.7618  0.6333  0.2816
 1442TIP3    H2 4333   3.048   5.384   1.207  0.1170 -0.9227 -0.6016
 1443TIP3   OH2 4334   3.625   3.525   1.699  0.0920  0.1912  0.4393
 1443TIP3    H1 4335   3.652   3.447   1.747  0.6982  0.7434  1.0174
 1443TIP3    H2 4336   3.703   3.550   1.649 -1.2277 -1.8926 -3.0152
 1444TIP3   OH2 4337   0.601   5.354   0.690 -0.1042  0.7452 -0.2977
 1444TIP3    H1 4338   0.576   5.305   0.611 -0.8010  1.7866 -0.7432
 1444TIP3    H2 4339   0.550   5.435   0.685  1.0570  1.5397  0.4144
 1445TIP3   OH2 4340   2.612   2.757   0.212  0.3810 -0.0940 -0.0592
 1445TIP3    H1 4341   2.521   2.775   0.190  0.4872 -0.3874 -0.7583
 1445TIP3    H2 4342   2.625   2.798   0.298 -0.4144 -0.0816  0.0570
 1446TIP3   OH2 4343   6.194   5.796   2.159 -0.2294  0.2748  0.3352
 1446TIP3    H1 4344   6.112   5.753   2.135  0.2509 -0.3074 -0.2834
 1446TIP3    H2 4345   6.177   5.833   2.246 -1.4333  0.9240 -0.1504
 1447TIP3   OH2 4346   1.136   3.483   3.787  0.1706  0.1367 -0.0398
 1447TIP3    H1 4347   1.061   3.430   3.760 -0.5241  1.0306  0.0734
 1447TIP3    H2 4348   1.192   3.423   3.837 -0.8238 -0.3761  0.4902
 1448TIP3   OH2 4349   0.534   2.990   0.814  0.3671  0.0561  0.0025
 1448TIP3    H1 4350   0.573   2.923   0.871  0.5330 -0.6492 -0.9116
 1448TIP3    H2 4351   0.608   3.042   0.785  0.5703 -0.8291 -1.1462
 1449TIP3   OH2 4352   2.583   2.022   3.363  0.3980  0.3560 -0.0174
 1449TIP3    H1 4353   2.620   2.004   3.449 -0.1243  0.1784  0.1726
 1449TIP3    H2 4354   2.524   1.949   3.346  0.1557  0.6185 -0.3300
 1450TIP3   OH2 4355   2.110   4.028   2.192  0.0340  0.2324  0.5000
 1450TIP3    H1 4356   2.184   4.086   2.208  0.3050 -0.0858  0.3912
 1450TIP3    H2 4357   2.146   3.954   2.143 -0.3685  0.1160  0.3707
 1451TIP3   OH2 4358   1.216   1.600   2.812 -0.1793 -0.0957  0.5212
 1451TIP3    H1 4359   1.180   1.658   2.744  0.9822  0.0010 -0.0513
 1451TIP3    H2 4360   1.148   1.597   2.879 -1.4860 -0.3901 -0.7516
 1452TIP3   OH2 4361   2.169   5.369   4.628 -0.2013  0.2806  0.2545
 1452TIP3    H1 4362   2.095   5.338   4.576 -0.0048  1.2418 -0.6302
 1452TIP3    H2 4363   2.175   5.306   4.700 -0.8970 -0.7012 -0.5076
 1453TIP3   OH2 4364   4.166   2.300   1.852  0.7565  0.2244 -0.4155
 1453TIP3    H1 4365   4.230   2.272   1.786  2.9818 -0.4918  1.8728
 1453TIP3    H2 4366   4.140   2.219   1.896  2.9177  1.0052  2.5570
 1454TIP3   OH2 4367   4.205   1.055   1.321 -0.4716 -0.4414  0.0708
 1454TIP3    H1 4368   4.270   1.111   1.279 -0.3305 -0.3614  0.3953
 1454TIP3    H2 4369   4.244   1.031   1.405 -1.4587  0.8187  0.9332
 1455TIP3   OH2 4370   3.721   0.580   2.719 -0.3688 -0.2759  0.4888
 1455TIP3    H1 4371   3.761   0.667   2.709 -0.4812 -0.2075  0.6300
 1455TIP3    H2 4372   3.678   0.564   2.635  0.9462 -0.8617 -0.1091
 1456TIP3   OH2 4373   1.379   3.366   3.827 -0.0852  0.4324 -0.2221
 1456TIP3    H1 4374   1.462   3.339   3.866 -0.2891 -1.2140 -0.8652
 1456TIP3    H2 4375   1.400   3.383   3.735 -0.2699  1.0021 -0.1636
 1457TIP3   OH2 4376   3.044   1.925   1.597 -0.0561 -0.0942 -0.0618
 1457TIP3    H1 4377   2.988   1.857   1.559 -0.8712  0.9985 -0.8996
 1457TIP3    H2 4378   3.096   1.880   1.664 -0.1453 -1.6371 -0.9999
 1458TIP3   OH2 4379   1.678   3.495   4.962 -0.0963  0.0125  0.4062
 1458TIP3    H1 4380   1.696   3.401   4.966 -0.0092  0.0108  0.0283
 1458TIP3    H2 4381   1.670   3.513   4.868  1.7226  0.7309  0.3623
 1459TIP3   OH2 4382   1.245   3.740   3.595 -0.0144  0.5525  0.1745
 1459TIP3    H1 4383   1.154   3.761   3.572  0.0236 -0.8500 -1.4101
 1459TIP3    H2 4384   1.288   3.826   3.599 -0.9395  1.1174 -1.1613
 1460TIP3   OH2 4385   0.669   4.161   1.511  0.1120 -0.1184 -0.3231
 1460TIP3    H1 4386   0.710   4.177   1.426  2.5545 -2.7445  0.1801
 1460TIP3    H2 4387   0.635   4.071   1.505 -1.3691  0.3211  0.8808
 1461TIP3   OH2 4388   1.097   2.047   3.354  0.0583  1.0757  0.1534
 1461TIP3    H1 4389   1.071   2.139   3.341  0.5448  1.4222  1.4876
 1461TIP3    H2 4390   1.163   2.051   3.423  1.3985 -0.1093 -1.0121
 1462TIP3   OH2 4391   0.798   2.388   4.925  0.1863 -0.3282  0.2931
 1462TIP3    H1 4392   0.772   2.307   4.880 -0.4856  0.6772 -1.2406
 1462TIP3    H2 4393   0.796   2.455   4.856  0.4300  1.0589  1.5753
 1463TIP3   OH2 4394   2.148   1.087   3.410  0.8281  0.0424 -0.3107
 1463TIP3    H1 4395   2.218   1.123   3.355 -1.1774  1.9818 -1.7847
 1463TIP3    H2 4396   2.116   1.162   3.459 -1.1007 -0.4827 -0.7025
 1464TIP3   OH2 4397   0.716   4.347   0.981  0.5199  0.0380  0.3456
 1464TIP3    H1 4398   0.632   4.382   1.011  0.9661  3.8582 -2.2154
 1464TIP3    H2 4399   0.711   4.253   1.002 -2.0801  0.8979  5.1252
 1465TIP3   OH2 4400   1.464   1.562   2.045  0.7635  0.1388 -0.6290
 1465TIP3    H1 4401   1.430   1.494   2.104  2.3726 -2.2621 -2.2775
 1465TIP3    H2 4402   1.386   1.599   2.004 -0.1898 -0.5871  0.4612
 1466TIP3   OH2 4403   3.542   1.893   1.945  0.0544  0.4018  0.2383
 1466TIP3    H1 4404   3.593   1.813   1.936 -0.6125 -0.1059  0.8263
 1466TIP3    H2 4405   3.458   1.864   1.980  0.6639  1.6236  2.9661
 1467TIP3   OH2 4406   4.131   0.112   1.457  0.0929 -0.1587  0.2063
 1467TIP3    H1 4407   4.079   0.096   1.536 -1.6281  0.1124 -0.8016
 1467TIP3    H2 4408   4.080   0.070   1.387  1.1603  0.2886 -0.8631
 1468TIP3   OH2 4409   2.020   4.012   0.995  0.2234 -0.1520 -0.4706
 1468TIP3    H1 4410   1.986   4.101   0.986  0.3714 -0.1167 -0.6960
 1468TIP3    H2 4411   2.002   3.971   0.910 -0.1426 -0.4403 -0.2546
 1469TIP3   OH2 4412   5.843   0.331   3.085 -0.3718  0.4075  0.2837
 1469TIP3    H1 4413   5.850   0.236   3.095 -1.6968  0.3229  0.5892
 1469TIP3    H2 4414   5.794   0.343   3.003  1.4112  0.8920 -0.7606
 1470TIP3   OH2 4415   2.255   0.202   4.910 -0.0243 -0.3773  0.2615
 1470TIP3    H1 4416   2.315   0.168   4.977  1.4027  0.2846 -0.6416
 1470TIP3    H2 4417   2.180   0.143   4.913  1.3816 -2.2508  0.3091
 1471TIP3   OH2 4418   3.715   2.222   3.671  0.2691  0.6874  0.0644
 1471TIP3    H1 4419   3.748   2.138   3.703 -2.1287 -0.4792 -0.2315
 1471TIP3    H2 4420   3.719   2.215   3.575 -4.0596 -1.1916 -0.2565
 1472TIP3   OH2 4421   3.159   3.636   2.287  0.1423 -0.6822  0.8241
 1472TIP3    H1 4422   3.230   3.590   2.242 -1.0682 -2.3782  0.5503
 1472TIP3    H2 4423   3.178   3.626   2.380  0.6829 -0.4242  0.7426
 1473TIP3   OH2 4424   1.736   2.355   3.067  0.1631 -0.4839  0.3796
 1473TIP3    H1 4425   1.777   2.274   3.096 -0.2297 -0.2569  1.6735
 1473TIP3    H2 4426   1.650   2.328   3.035 -1.2385 -0.3808  3.5929
 1474TIP3   OH2 4427   2.291   5.936   0.592 -0.5474 -0.0937  0.0846
 1474TIP3    H1 4428   2.324   5.949   0.503 -2.0334 -0.6843 -0.5798
 1474TIP3    H2 4429   2.197   5.947   0.585 -0.7174 -0.3259  1.5674
 1475TIP3   OH2 4430   5.112   0.253   1.509  0.3296 -0.0794  0.2245
 1475TIP3    H1 4431   5.194   0.242   1.558  0.3615  1.4116  0.5384
 1475TIP3    H2 4432   5.096   0.166   1.471  1.0536 -0.9001  1.6949
 1476TIP3   OH2 4433   4.380   2.142   1.761 -0.4697 -0.1834 -0.1862
 1476TIP3    H1 4434   4.434   2.219   1.740  0.9740 -0.8819  0.8337
 1476TIP3    H2 4435   4.364   2.100   1.677 -1.4496  1.3064 -0.7914
 1477TIP3   OH2 4436   3.643   2.741   3.459  0.1304 -0.2999  0.2385
 1477TIP3    H1 4437   3.640   2.646   3.452  1.3667 -0.3226 -0.3084
 1477TIP3    H2 4438   3.666   2.758   3.550 -0.5617 -0.5029  0.4556
 1478TIP3   OH2 4439   4.978   0.765   0.291 -0.1925  0.0856 -0.3312
 1478TIP3    H1 4440   5.014   0.762   0.203 -0.6145 -2.0156 -0.4889
 1478TIP3    H2 4441   5.038   0.821   0.340  1.1687 -0.3118 -1.4776
 1479TIP3   OH2 4442   5.026   1.479   3.348  0.0871  0.4771 -0.1456
 1479TIP3    H1 4443   4.994   1.443   3.431  2.2601 -0.1048  0.5022
 1479TIP3    H2 4444   4.990   1.568   3.346  1.3167  1.1270  2.3025
 1480TIP3   OH2 4445   4.143   4.343   4.554 -0.3881  0.5190  0.4937
 1480TIP3    H1 4446   4.177   4.431   4.574  0.1356  0.7965 -1.4767
 1480TIP3    H2 4447   4.048   4.356   4.545 -0.3017  0.9062  0.1191
 1481TIP3   OH2 4448   3.417   5.909   3.539  0.3034 -0.5672 -0.0742
 1481TIP3    H1 4449   3.363   5.898   3.461  0.2817  0.7830 -0.2724
 1481TIP3    H2 4450   3.355   5.932   3.608  0.5472  0.3544 -0.1550
 1482TIP3   OH2 4451   5.641   0.871   4.862 -0.2601  0.5037 -0.6113
 1482TIP3    H1 4452   5.674   0.865   4.951 -2.0088  1.3007  0.1337
 1482TIP3    H2 4453   5.663   0.786   4.822 -0.2954 -0.2361  0.8783
 1483TIP3   OH2 4454   6.340   3.006   1.546  0.4103  0.4316 -0.1843
 1483TIP3    H1 4455   6.319   3.032   1.636  1.8348  0.8720  0.0392
 1483TIP3    H2 4456   6.307   3.079   1.492  0.5368  0.6893  0.0821
 1484TIP3   OH2 4457   2.953   4.383   4.813 -0.0069  0.2548 -0.2684
 1484TIP3    H1 4458   2.933   4.433   4.734 -2.2600 -1.6096 -1.0096
 1484TIP3    H2 4459   2.931   4.442   4.885  0.7169  1.4800 -1.0133
 1485TIP3   OH2 4460   4.913   5.974   2.999 -0.1699  0.3290 -0.2709
 1485TIP3    H1 4461   4.887   5.892   2.957 -1.3658 -0.4594  1.8575
 1485TIP3    H2 4462   4.831   6.013   3.029  0.6164  0.5894  1.6944
 1486TIP3   OH2 4463   1.633   4.090   3.126 -0.2657  0.0323 -0.0452
 1486TIP3    H1 4464   1.549   4.105   3.084  0.5052  0.8473 -1.4029
 1486TIP3    H2 4465   1.663   4.006   3.091  0.5647  0.9048 -1.5605
 1487TIP3   OH2 4466   4.070   3.119   1.318  0.1992 -0.4404  0.4417
 1487TIP3    H1 4467   4.012   3.187   1.284  2.1772 -0.0413 -2.4458
 1487TIP3    H2 4468   4.015   3.068   1.377 -2.5512  1.0263 -0.6878
 1488TIP3   OH2 4469   3.258   2.277   2.223  0.1040  0.6606  0.2428
 1488TIP3    H1 4470   3.266   2.196   2.273  2.0995  0.4181 -0.3641
 1488TIP3    H2 4471   3.287   2.346   2.283  2.8555  0.3288 -0.5384
 1489TIP3   OH2 4472   6.062   4.378   1.566 -0.1984  0.0484  0.0632
 1489TIP3    H1 4473   6.090   4.468   1.587 -0.5786  0.1575  0.1085
 1489TIP3    H2 4474   6.037   4.382   1.474 -0.4249  0.0428  0.1233
 1490TIP3   OH2 4475   5.725   5.323   1.753 -0.1288 -0.0094 -0.5358
 1490TIP3    H1 4476   5.672   5.308   1.674 -0.7240  0.1290 -0.1677
 1490TIP3    H2 4477   5.676   5.280   1.823  1.4135 -1.9273 -0.5510
 1491TIP3   OH2 4478   5.969   5.530   3.404 -0.2235 -0.1912 -0.4291
 1491TIP3    H1 4479   5.985   5.458   3.465 -0.1579  0.7957  0.7571
 1491TIP3    H2 4480   5.983   5.609   3.456  1.2498  0.7130 -2.0744
 1492TIP3   OH2 4481   0.255   2.377   3.551 -0.1487 -0.0320  0.0207
 1492TIP3    H1 4482   0.161   2.365   3.536  0.1251  0.1803 -2.1733
 1492TIP3    H2 4483   0.294   2.293   3.526  0.4101  0.5361 -1.0754
 1493TIP3   OH2 4484   2.018   0.582   5.022 -0.0644  0.3084 -0.1474
 1493TIP3    H1 4485   1.942   0.640   5.009 -0.4772 -0.3112 -0.5613
 1493TIP3    H2 4486   1.991   0.523   5.092 -1.2013 -1.8821 -2.2681
 1494TIP3   OH2 4487   1.303   1.548   4.333  0.2608  0.5911  0.4182
 1494TIP3    H1 4488   1.346   1.565   4.417  1.3114  1.7198 -0.3225
 1494TIP3    H2 4489   1.318   1.455   4.317  0.7201  0.5350  1.1191
 1495TIP3   OH2 4490   3.845   3.227   3.654  0.2186  0.2215 -0.4571
 1495TIP3    H1 4491   3.814   3.167   3.722 -0.4553  1.0774  0.0199
 1495TIP3    H2 4492   3.765   3.256   3.611  0.6516 -0.4748 -1.7817
 1496TIP3   OH2 4493   1.593   1.270   4.886 -0.1322 -0.0491 -0.3126
 1496TIP3    H1 4494   1.610   1.246   4.795 -0.8665  0.7012 -0.6648
 1496TIP3    H2 4495   1.624   1.361   4.893  0.7139 -0.3785  0.4269
 1497TIP3   OH2 4496   2.875   0.594   3.732  0.4243  0.3781 -0.2000
 1497TIP3    H1 4497   2.902   0.533   3.664 -0.8136  0.7784 -1.0804
 1497TIP3    H2 4498   2.929   0.571   3.808  0.1019 -1.7062 -0.5411
 1498TIP3   OH2 4499   6.125   1.203   4.047 -0.7148 -0.7299 -0.3235
 1498TIP3    H1 4500   6.167   1.118   4.062  0.7537 -0.0951 -0.6831
 1498TIP3    H2 4501   6.078   1.193   3.964 -0.0291 -1.0002 -0.6823
 1499TIP3   OH2 4502   5.927   3.644   2.450 -0.3336  0.0025 -0.2220
 1499TIP3    H1 4503   5.879   3.727   2.448  0.3655  0.4235 -2.0652
 1499TIP3    H2 4504   6.017   3.669   2.470  0.1778 -0.0865 -2.1967
 1500TIP3   OH2 4505   5.556   1.018   2.444 -0.6969 -0.4751 -0.0238
 1500TIP3    H1 4506   5.646   1.046   2.424 -0.7648 -0.6586 -0.6262
 1500TIP3    H2 4507   5.556   1.001   2.538  0.0068 -0.8377 -0.0782
 1501TIP3   OH2 4508   1.211   0.048   0.849  0.4303  0.2526 -0.5547
 1501TIP3    H1 4509   1.272   0.122   0.847  2.1569 -0.9938  1.8241
 1501TIP3    H2 4510   1.143   0.074   0.911 -0.4938  0.8692 -1.7742
 1502TIP3   OH2 4511   4.305   5.748   0.908  0.6290  0.1132  0.2207
 1502TIP3    H1 4512   4.260   5.820   0.953  1.1993  0.7114 -0.1522
 1502TIP3    H2 4513   4.397   5.762   0.927  0.8054 -0.0969 -0.4749
 1503TIP3   OH2 4514   2.510   3.929   0.177 -0.2816 -0.2189 -0.5015
 1503TIP3    H1 4515   2.566   3.902   0.104  2.1753 -0.1855  1.2223
 1503TIP3    H2 4516   2.541   3.876   0.251 -2.0240  0.4174  0.7363
 1504TIP3   OH2 4517   1.065   5.381   0.809 -0.1615  0.0813 -0.2168
 1504TIP3    H1 4518   0.999   5.404   0.875 -0.3526  2.1018 -1.0231
 1504TIP3    H2 4519   1.146   5.374   0.859 -0.5402  0.2321  0.4371
 1505TIP3   OH2 4520   5.097   5.615   4.062  0.1890 -0.2395  0.5051
 1505TIP3    H1 4521   5.148   5.581   3.988 -0.7634  0.6333 -0.6123
 1505TIP3    H2 4522   5.139   5.578   4.139  0.0807 -2.7365 -0.5381
 1506TIP3   OH2 4523   0.503   0.531   1.252  0.4284  0.0844 -0.5785
 1506TIP3    H1 4524   0.533   0.507   1.164 -2.4977  0.4857 -1.7974
 1506TIP3    H2 4525   0.459   0.452   1.285 -2.7581  1.2645 -1.5939
 1507TIP3   OH2 4526   5.644   1.787   3.193 -0.0148 -0.1561 -0.1964
 1507TIP3    H1 4527   5.583   1.715   3.172  0.1221 -0.5301  0.6651
 1507TIP3    H2 4528   5.700   1.793   3.116 -0.7289 -0.2368 -0.7367
 1508TIP3   OH2 4529   3.001   3.456   2.986 -0.0207 -0.4837 -0.4488
 1508TIP3    H1 4530   3.084   3.434   2.943 -0.6117 -1.4883 -1.1155
 1508TIP3    H2 4531   2.958   3.372   2.999  0.2491 -0.2799  2.4252
 1509TIP3   OH2 4532   2.939   5.565   4.162 -0.3577 -0.2922  0.3812
 1509TIP3    H1 4533   3.015   5.536   4.111 -0.0646 -0.3986  0.8733
 1509TIP3    H2 4534   2.893   5.484   4.184 -1.2437 -0.1528 -0.8722
 1510TIP3   OH2 4535   5.841   5.428   0.727  0.3817  0.6951  0.2289
 1510TIP3    H1 4536   5.799   5.384   0.801  1.0058  0.5106  0.4828
 1510TIP3    H2 4537   5.876   5.509   0.765 -0.2975  1.1553 -0.1194
 1511TIP3   OH2 4538   4.512   2.094   1.994 -0.7737  1.0802 -0.2898
 1511TIP3    H1 4539   4.494   2.004   2.021 -0.1530  1.3829  1.1724
 1511TIP3    H2 4540   4.471   2.101   1.908 -0.7735 -0.6179 -0.4614
 1512TIP3   OH2 4541   3.019   1.313   2.780  0.7341  0.1977  0.0218
 1512TIP3    H1 4542   3.081   1.266   2.724 -0.0411  0.3028 -0.9514
 1512TIP3    H2 4543   2.933   1.281   2.753  0.3141  0.6005  0.8364
 1513TIP3   OH2 4544   3.971   2.583   1.007 -0.2322  0.2992  0.4042
 1513TIP3    H1 4545   4.042   2.624   1.055 -0.2901  0.9834 -0.0879
 1513TIP3    H2 4546   3.989   2.489   1.012  0.6408  0.4659  0.3741
 1514TIP3   OH2 4547   3.012   3.462   0.366 -0.0253  0.0819 -0.4986
 1514TIP3    H1 4548   3.030   3.543   0.319 -0.1145  0.1453 -0.4265
 1514TIP3    H2 4549   2.930   3.480   0.413 -0.1215 -0.0987 -0.5945
 1515TIP3   OH2 4550   5.386   5.589   4.879 -0.0887 -0.0446 -0.0727
 1515TIP3    H1 4551   5.301   5.546   4.891 -0.7443  1.7729  2.7254
 1515TIP3    H2 4552   5.370   5.659   4.816 -0.9391  0.8131  1.0576
 1516TIP3   OH2 4553   2.525   5.603   2.142  0.8305  0.2603  0.4056
 1516TIP3    H1 4554   2.606   5.618   2.191  0.1310 -0.8618  1.9695
 1516TIP3    H2 4555   2.456   5.631   2.201 -0.0243 -0.4694 -0.2292
 1517TIP3   OH2 4556   2.233   0.518   3.284 -0.5193  0.1749 -0.0774
 1517TIP3    H1 4557   2.140   0.506   3.305 -0.2235 -0.7320  0.7511
 1517TIP3    H2 4558   2.268   0.567   3.358  0.0713 -1.1981  0.5878
 1518TIP3   OH2 4559   4.977   2.906   4.287 -0.4673  0.2157  0.0178
 1518TIP3    H1 4560   4.987   2.854   4.207  2.2928  0.0655  0.3710
 1518TIP3    H2 4561   4.936   2.987   4.258  0.0897 -0.0172 -1.5035
 1519TIP3   OH2 4562   2.438   5.531   3.213  0.8583 -0.0906  0.2449
 1519TIP3    H1 4563   2.493   5.563   3.142  2.9220 -2.0870  0.8184
 1519TIP3    H2 4564   2.423   5.439   3.192  1.6545 -0.7855  2.4240
 1520TIP3   OH2 4565   4.873   5.659   0.671 -0.1961  0.1995 -0.2303
 1520TIP3    H1 4566   4.811   5.614   0.613 -0.3155 -1.0931  0.8358
 1520TIP3    H2 4567   4.959   5.630   0.640 -0.2879 -1.7055  1.0677
 1521TIP3   OH2 4568   2.825   0.315   1.077 -0.3042  0.5075 -0.3478
 1521TIP3    H1 4569   2.782   0.235   1.106  0.6562 -0.9026 -2.5314
 1521TIP3    H2 4570   2.773   0.345   1.003  1.5040 -0.4194 -2.1094
 1522TIP3   OH2 4571   3.435   3.843   2.298 -0.2165 -0.5299 -0.6831
 1522TIP3    H1 4572   3.412   3.838   2.391  0.4290 -0.8244 -0.5374
 1522TIP3    H2 4573   3.531   3.841   2.296 -0.2381 -1.9660 -1.4411
 1523TIP3   OH2 4574   5.089   1.372   3.812  0.0525 -0.1972  0.4575
 1523TIP3    H1 4575   5.120   1.283   3.798  0.8096 -0.0078  0.8202
 1523TIP3    H2 4576   5.168   1.420   3.838 -0.3422  0.5765  0.2461
 1524TIP3   OH2 4577   3.608   2.036   0.258 -0.3692 -0.1593 -0.2760
 1524TIP3    H1 4578   3.515   2.016   0.268 -0.0164 -1.7224  0.2820
 1524TIP3    H2 4579   3.641   2.040   0.347  0.8831 -4.0877 -0.3660
 1525TIP3   OH2 4580   4.055   4.924   1.107 -0.2676 -0.7318  0.0880
 1525TIP3    H1 4581   4.136   4.882   1.137 -1.1781  0.0782  4.4239
 1525TIP3    H2 4582   4.006   4.939   1.188 -3.6850  1.0555 -2.1198
 1526TIP3   OH2 4583   4.229   0.392   0.247  0.3387 -0.3696 -0.1368
 1526TIP3    H1 4584   4.294   0.365   0.181 -0.6416  1.1165 -1.8117
 1526TIP3    H2 4585   4.259   0.478   0.276  0.3871 -0.7194  0.8717
 1527TIP3   OH2 4586   1.908   1.083   3.275  0.1637  0.1416  0.6728
 1527TIP3    H1 4587   1.918   0.993   3.246  0.2330 -0.3117  2.0474
 1527TIP3    H2 4588   1.996   1.109   3.304  0.1445  0.6569  0.2882
 1528TIP3   OH2 4589   5.549   0.583   4.941  0.0014 -0.2101 -0.2396
 1528TIP3    H1 4590   5.643   0.570   4.954 -0.1214 -1.8525 -0.7600
 1528TIP3    H2 4591   5.521   0.635   5.017  1.4397  0.9417 -0.4632
 1529TIP3   OH2 4592   4.805   5.150   4.631  0.0804 -0.5423  0.0332
 1529TIP3    H1 4593   4.825   5.243   4.644 -0.8478 -0.3266  0.0230
 1529TIP3    H2 4594   4.859   5.105   4.696  0.7685 -0.0206 -0.1641
 1530TIP3   OH2 4595   0.054   0.629   2.068  0.1274  0.0777 -0.7659
 1530TIP3    H1 4596   0.109   0.635   2.146 -0.2226 -0.5192 -0.4700
 1530TIP3    H2 4597   0.007   0.546   2.078 -3.3535  2.0236  0.6407
 1531TIP3   OH2 4598   0.318   5.680   2.529  0.1717 -0.3898 -0.3774
 1531TIP3    H1 4599   0.381   5.697   2.459  0.2024 -0.4018 -0.3526
 1531TIP3    H2 4600   0.357   5.719   2.607 -0.6695  1.2131 -0.7082
 1532TIP3   OH2 4601   0.213   3.895   2.748  0.2371  0.3318 -0.4962
 1532TIP3    H1 4602   0.199   3.934   2.662 -0.1357 -0.5682 -0.8525
 1532TIP3    H2 4603   0.294   3.844   2.739  1.1528  1.6079  0.1871
 1533TIP3   OH2 4604   5.281   1.735   4.249 -0.5667 -0.1001  0.4246
 1533TIP3    H1 4605   5.248   1.706   4.334 -0.9397 -0.2698  0.2271
 1533TIP3    H2 4606   5.214   1.706   4.187  0.3585 -1.1873 -0.0943
 1534TIP3   OH2 4607   6.325   2.171   2.436  0.0658 -0.7375  0.2786
 1534TIP3    H1 4608   6.271   2.096   2.414 -1.6684  0.5593 -0.0784
 1534TIP3    H2 4609   6.313   2.183   2.530  0.9606 -1.3457  0.4832
 1535TIP3   OH2 4610   5.854   0.327   2.107 -0.1085 -0.6995 -0.2330
 1535TIP3    H1 4611   5.806   0.409   2.096  0.6377  0.0074  1.3504
 1535TIP3    H2 4612   5.814   0.267   2.045 -1.5172  0.5018 -0.5517
 1536TIP3   OH2 4613   5.590   4.855   1.106 -0.2229 -0.1207  0.4597
 1536TIP3    H1 4614   5.542   4.774   1.093  2.0489 -1.5106  0.1279
 1536TIP3    H2 4615   5.618   4.853   1.198  0.1650  0.0830  0.3511
 1537TIP3   OH2 4616   2.536   1.446   4.302 -0.0107 -0.0576 -0.0739
 1537TIP3    H1 4617   2.474   1.512   4.333  0.4319  0.0926  0.5040
 1537TIP3    H2 4618   2.564   1.400   4.380 -1.5180 -2.0344 -0.6243
 1538TIP3   OH2 4619   1.512   2.157   0.537  0.2192 -0.7098 -0.6627
 1538TIP3    H1 4620   1.509   2.146   0.632  2.4916 -2.5163 -0.7172
 1538TIP3    H2 4621   1.529   2.250   0.525 -0.8452 -0.3075  0.6490
 1539TIP3   OH2 4622   4.521   3.874   2.090  0.3373 -0.5182 -0.0401
 1539TIP3    H1 4623   4.438   3.835   2.063  0.5633  0.7283 -2.8598
 1539TIP3    H2 4624   4.587   3.810   2.063  0.4906  0.2184 -1.4986
 1540TIP3   OH2 4625   3.015   5.890   1.240  0.2215 -0.0925 -0.2465
 1540TIP3    H1 4626   3.062   5.875   1.321 -0.7391  2.7381  0.9762
 1540TIP3    H2 4627   2.925   5.860   1.257 -0.2994  1.6328  0.2602
 1541TIP3   OH2 4628   0.645   5.756   3.800  0.8754 -0.0505 -0.5825
 1541TIP3    H1 4629   0.696   5.726   3.875  0.9207 -0.4604 -0.7714
 1541TIP3    H2 4630   0.707   5.754   3.727  0.7324 -0.0225 -0.7057
 1542TIP3   OH2 4631   4.112   3.535   4.679  0.2502 -0.1936 -0.2880
 1542TIP3    H1 4632   4.122   3.440   4.688  0.5940 -0.2568 -1.2768
 1542TIP3    H2 4633   4.151   3.556   4.594  1.2693  1.0101  0.4434
 1543TIP3   OH2 4634   4.095   0.641   0.438 -0.1432 -0.4867  0.1706
 1543TIP3    H1 4635   4.058   0.656   0.351 -1.1981 -3.3372  0.0100
 1543TIP3    H2 4636   4.037   0.687   0.498 -1.2524 -1.0718 -0.4346
 1544TIP3   OH2 4637   5.095   4.631   1.607 -0.2072  0.1966 -0.2604
 1544TIP3    H1 4638   5.033   4.578   1.657 -0.8087  1.3574  0.2468
 1544TIP3    H2 4639   5.091   4.718   1.646  2.7124  0.0403  0.6657
 1545TIP3   OH2 4640   6.206   1.906   4.771  0.4459 -0.0062  0.6063
 1545TIP3    H1 4641   6.208   1.945   4.683 -0.4907 -1.7952 -0.2646
 1545TIP3    H2 4642   6.141   1.957   4.818  0.3084  0.4214 -0.0254
 1546TIP3   OH2 4643   3.904   2.983   0.467  0.2607  0.1144 -0.2274
 1546TIP3    H1 4644   3.859   2.900   0.450 -0.5274  0.4354  0.2746
 1546TIP3    H2 4645   3.847   3.030   0.527  1.6515  0.2006  1.0775
 1547TIP3   OH2 4646   2.054   2.301   2.476 -0.2457 -0.2009 -0.0856
 1547TIP3    H1 4647   2.064   2.248   2.555  0.5381 -0.3377 -0.2709
 1547TIP3    H2 4648   2.109   2.257   2.410  1.1226  1.3189 -0.0033
 1548TIP3   OH2 4649   2.244   0.061   1.277  0.3325  0.0976 -0.0103
 1548TIP3    H1 4650   2.329   0.103   1.259 -0.3858  1.2078 -0.9553
 1548TIP3    H2 4651   2.196   0.070   1.195 -2.1279  2.9677  1.5454
 1549TIP3   OH2 4652   1.977   3.569   4.967 -0.2274  0.3056  0.3540
 1549TIP3    H1 4653   1.973   3.564   4.872  1.1606 -0.6490  0.3187
 1549TIP3    H2 4654   1.894   3.609   4.993 -0.9807 -0.2153 -1.1862
 1550TIP3   OH2 4655   1.247   2.105   5.143 -0.3321  0.0640  0.0392
 1550TIP3    H1 4656   1.332   2.138   5.170  0.0423 -0.8225 -0.0153
 1550TIP3    H2 4657   1.206   2.177   5.096  0.0567  0.7642  0.7667
 1551TIP3   OH2 4658   4.987   5.640   2.438  0.6492  0.1809  0.0618
 1551TIP3    H1 4659   4.959   5.567   2.493  1.7524  0.5830  1.2035
 1551TIP3    H2 4660   4.918   5.706   2.450  0.2628 -0.1972 -0.0204
 1552TIP3   OH2 4661   6.062   0.581   3.684  0.3767  0.0112  0.1442
 1552TIP3    H1 4662   6.109   0.499   3.668  1.2043  0.5690 -0.3473
 1552TIP3    H2 4663   6.044   0.581   3.778 -0.3949 -1.1280  0.0175
 1553TIP3   OH2 4664   5.181   4.510   1.956 -0.3416  0.0681  0.4269
 1553TIP3    H1 4665   5.167   4.605   1.958 -1.3366  0.0090 -1.6339
 1553TIP3    H2 4666   5.179   4.484   2.049  0.2307  2.0623  1.0534
 1554TIP3   OH2 4667   0.898   0.942   3.196  0.0809  0.8519  0.4298
 1554TIP3    H1 4668   0.908   0.941   3.100 -3.0351  2.8173 -0.0580
 1554TIP3    H2 4669   0.885   0.850   3.219  0.2273  0.3987 -1.1202
 1555TIP3   OH2 4670   4.283   3.861   4.145  0.5368  0.0810 -0.1467
 1555TIP3    H1 4671   4.291   3.903   4.060  0.2801 -0.6895 -0.5678
 1555TIP3    H2 4672   4.266   3.932   4.207  0.1463  0.5810 -0.8264
 1556TIP3   OH2 4673   0.212   3.146   3.103 -0.3371  0.9346 -0.2259
 1556TIP3    H1 4674   0.306   3.129   3.114  0.9250  5.0388 -2.5412
 1556TIP3    H2 4675   0.193   3.217   3.164 -2.1520 -0.1501  0.5549
 1557TIP3   OH2 4676   4.904   5.685   2.919 -0.1007  0.4879 -0.0785
 1557TIP3    H1 4677   4.823   5.711   2.875  0.2086  0.1731 -0.8424
 1557TIP3    H2 4678   4.966   5.668   2.849  1.4820  3.3016  0.4971
 1558TIP3   OH2 4679   4.076   0.939   3.178  0.1289  0.7762 -0.3242
 1558TIP3    H1 4680   4.133   0.907   3.108 -0.4086 -0.6999 -0.1225
 1558TIP3    H2 4681   4.084   0.875   3.248 -0.6173  1.3496  0.3141
 1559TIP3   OH2 4682   3.865   3.902   5.043 -0.3299  0.0552  0.3268
 1559TIP3    H1 4683   3.797   3.841   5.072 -1.2608  0.9542  0.1104
 1559TIP3    H2 4684   3.852   3.979   5.098  0.8635  0.0482  0.6283
 1560TIP3   OH2 4685   2.015   3.478   2.401  0.9125  0.0037  0.3231
 1560TIP3    H1 4686   2.082   3.524   2.350 -0.0413  0.3115 -0.6981
 1560TIP3    H2 4687   2.012   3.525   2.485  1.8400  0.0908  0.3181
 1561TIP3   OH2 4688   1.730   0.614   4.958 -0.2416 -0.1335  0.4219
 1561TIP3    H1 4689   1.673   0.547   4.995  0.0962  0.0038  1.2239
 1561TIP3    H2 4690   1.713   0.612   4.864 -0.3384 -1.2446  0.4539
 1562TIP3   OH2 4691   1.615   5.277   3.305  0.4534 -0.0583  0.5121
 1562TIP3    H1 4692   1.545   5.212   3.293  0.1964  0.6438 -3.0801
 1562TIP3    H2 4693   1.592   5.348   3.245  3.0145  1.3164  1.0083
 1563TIP3   OH2 4694   6.123   2.717   0.185  0.6723  0.2295  0.8527
 1563TIP3    H1 4695   6.204   2.767   0.190  0.6031  0.4175  0.1352
 1563TIP3    H2 4696   6.132   2.650   0.253  1.2129  0.5572  1.1076
 1564TIP3   OH2 4697   4.751   1.244   0.691 -0.0689  0.1317 -0.0651
 1564TIP3    H1 4698   4.743   1.340   0.695 -2.0303 -0.0285  1.2950
 1564TIP3    H2 4699   4.810   1.228   0.618 -0.4690  2.3601 -0.9572
 1565TIP3   OH2 4700   5.244   1.736   3.602 -0.2390  0.2383 -0.1322
 1565TIP3    H1 4701   5.166   1.776   3.566  0.1852  0.9867 -0.2416
 1565TIP3    H2 4702   5.221   1.713   3.692 -0.4439  0.8656 -0.0228
 1566TIP3   OH2 4703   0.346   5.411   4.120 -0.3016  0.0099  0.1161
 1566TIP3    H1 4704   0.305   5.380   4.040  0.1390 -0.4444  0.0581
 1566TIP3    H2 4705   0.394   5.489   4.093  1.6531 -1.3380 -0.5798
 1567TIP3   OH2 4706   0.916   3.109   1.219 -0.3610 -0.4822 -0.4896
 1567TIP3    H1 4707   0.938   3.150   1.302 -1.0370 -1.7919  0.3712
 1567TIP3    H2 4708   0.828   3.143   1.198 -0.9789 -1.5372  0.2918
 1568TIP3   OH2 4709   5.522   0.363   4.786  0.9403 -0.0437 -0.4618
 1568TIP3    H1 4710   5.433   0.343   4.818  0.6716 -0.6497 -1.5327
 1568TIP3    H2 4711   5.551   0.437   4.839  0.1747 -0.4676  0.5776
 1569TIP3   OH2 4712   5.703   4.763   4.912  0.3245 -0.5842 -0.1847
 1569TIP3    H1 4713   5.628   4.799   4.958 -0.9745 -1.5823 -1.4320
 1569TIP3    H2 4714   5.758   4.839   4.892 -0.6034  0.2242  0.3038
 1570TIP3   OH2 4715   2.694   2.859   5.081  0.3592 -0.1085  0.7980
 1570TIP3    H1 4716   2.654   2.804   5.148 -0.6096 -0.5461 -0.1165
 1570TIP3    H2 4717   2.771   2.811   5.053  0.8499  0.1442  1.6850
 1571TIP3   OH2 4718   4.787   1.615   2.978 -0.3364 -0.0466 -0.2549
 1571TIP3    H1 4719   4.862   1.642   3.032 -1.7656  2.5850  0.6164
 1571TIP3    H2 4720   4.826   1.572   2.902  2.0858  1.4185  0.0440
 1572TIP3   OH2 4721   4.852   3.947   0.715  0.8571  0.0010 -0.2406
 1572TIP3    H1 4722   4.911   3.920   0.644  1.2058 -0.0537  0.0662
 1572TIP3    H2 4723   4.800   4.018   0.677  2.3146  1.2608  0.0079
 1573TIP3   OH2 4724   3.030   4.387   3.028  0.4061 -0.4743 -0.6397
 1573TIP3    H1 4725   3.048   4.437   2.949 -1.2713  0.6362 -0.3707
 1573TIP3    H2 4726   2.940   4.409   3.051  1.0890 -0.0358  2.0941
 1574TIP3   OH2 4727   3.995   1.751   4.103 -0.1961 -0.0635  0.5873
 1574TIP3    H1 4728   4.066   1.791   4.052  1.3300 -0.3420  2.3716
 1574TIP3    H2 4729   4.040   1.700   4.171 -2.1205 -0.4076  1.6887
 1575TIP3   OH2 4730   6.218   0.432   4.434 -0.4352 -0.3595  0.2953
 1575TIP3    H1 4731   6.162   0.378   4.491 -2.9450  0.2952 -1.3894
 1575TIP3    H2 4732   6.168   0.512   4.421 -0.1354 -0.5786 -3.0155
 1576TIP3   OH2 4733   4.772   2.586   1.126  0.1318  0.2441 -0.0581
 1576TIP3    H1 4734   4.867   2.577   1.126  0.0448 -0.8557 -0.8430
 1576TIP3    H2 4735   4.750   2.604   1.034 -0.5314 -0.9851 -0.1552
 1577TIP3   OH2 4736   1.780   5.252   3.518 -0.4096  0.3115 -0.1381
 1577TIP3    H1 4737   1.853   5.313   3.518  0.3083 -0.4914 -1.2800
 1577TIP3    H2 4738   1.730   5.275   3.439 -0.4789 -0.1725 -0.2384
 1578TIP3   OH2 4739   1.109   4.474   1.417 -0.0587 -0.3128  0.1765
 1578TIP3    H1 4740   1.176   4.540   1.402  0.2180 -0.5802  0.2226
 1578TIP3    H2 4741   1.099   4.431   1.332 -0.1123 -0.3291  0.1910
 1579TIP3   OH2 4742   5.460   1.131   4.304 -0.7364 -0.1293 -0.0731
 1579TIP3    H1 4743   5.465   1.067   4.374  0.3742 -0.4642 -0.4368
 1579TIP3    H2 4744   5.455   1.079   4.224  3.2333  0.0434 -0.6470
 1580TIP3   OH2 4745   4.159   0.627   5.078  0.4375 -0.1565  0.9273
 1580TIP3    H1 4746   4.209   0.644   5.158  1.2507  0.3276  0.3429
 1580TIP3    H2 4747   4.223   0.642   5.007 -0.2392 -0.6583  0.1997
 1581TIP3   OH2 4748   0.335   2.904   3.400  0.1447  0.1109 -0.6524
 1581TIP3    H1 4749   0.397   2.860   3.458 -1.0861 -2.6666 -1.2816
 1581TIP3    H2 4750   0.263   2.931   3.457 -0.2495 -1.0234 -0.5905
 1582TIP3   OH2 4751   3.856   0.982   0.761 -0.3856 -0.3895 -0.0337
 1582TIP3    H1 4752   3.918   0.916   0.792  0.5772 -0.0825 -1.2607
 1582TIP3    H2 4753   3.872   0.988   0.667 -3.1364 -1.2151 -0.6647
 1583TIP3   OH2 4754   2.814   0.286   4.769  0.0241 -0.3031  0.0113
 1583TIP3    H1 4755   2.842   0.335   4.846  0.3476 -1.2322  0.4964
 1583TIP3    H2 4756   2.818   0.194   4.796 -1.8348 -0.5543 -0.4448
 1584TIP3   OH2 4757   3.858   1.435   2.479  0.1172  0.0951  0.5265
 1584TIP3    H1 4758   3.951   1.443   2.458 -0.1185 -1.6128 -1.5500
 1584TIP3    H2 4759   3.856   1.407   2.570  1.7748 -1.5843  0.1225
 1585TIP3   OH2 4760   1.470   5.148   2.227 -0.1541 -0.2908 -0.0060
 1585TIP3    H1 4761   1.515   5.064   2.226  0.3289 -0.0364  0.1768
 1585TIP3    H2 4762   1.377   5.125   2.215 -0.1534 -0.9290  1.0416
 1586TIP3   OH2 4763   3.832   5.946   4.242 -0.2770 -0.3183  0.1078
 1586TIP3    H1 4764   3.814   5.961   4.149 -1.6514  1.5407  0.6127
 1586TIP3    H2 4765   3.912   5.996   4.259 -1.0473  0.8780  0.2996
 1587TIP3   OH2 4766   0.081   3.207   0.642  0.1257 -0.0122  0.2910
 1587TIP3    H1 4767   0.129   3.282   0.606 -0.7731 -0.2177 -1.4516
 1587TIP3    H2 4768   0.149   3.150   0.677  0.9872  0.7124 -0.1593
 1588TIP3   OH2 4769   1.516   3.498   4.396 -0.2641  0.0243 -0.0432
 1588TIP3    H1 4770   1.599   3.543   4.412 -0.8939  1.1023  0.2943
 1588TIP3    H2 4771   1.509   3.494   4.301  0.3730 -0.4918 -0.0836
 1589TIP3   OH2 4772   2.354   0.333   2.981 -0.2467  0.0105  0.5074
 1589TIP3    H1 4773   2.391   0.279   3.052 -3.0132 -2.2579  0.4158
 1589TIP3    H2 4774   2.355   0.275   2.905 -0.5477  1.2003 -0.4197
 1590TIP3   OH2 4775   6.088   0.551   2.963  0.4508  0.2374  0.3645
 1590TIP3    H1 4776   6.069   0.464   2.928 -0.7262  0.5223  0.2678
 1590TIP3    H2 4777   6.065   0.544   3.056  0.7466  0.3285  0.4446
 1591TIP3   OH2 4778   6.020   1.661   4.714  0.1646  0.3546 -0.3155
 1591TIP3    H1 4779   6.036   1.734   4.654  0.7216 -0.2165 -0.8730
 1591TIP3    H2 4780   6.047   1.694   4.799 -0.8690  1.2629 -0.3139
 1592TIP3   OH2 4781   2.544   0.262   0.230 -0.1710 -0.1824  0.4939
 1592TIP3    H1 4782   2.601   0.206   0.284 -0.0333  0.7131  1.3128
 1592TIP3    H2 4783   2.463   0.212   0.221 -0.5774  0.0309  2.3998
 1593TIP3   OH2 4784   1.744   2.624   4.387  0.5970  0.1447  0.0997
 1593TIP3    H1 4785   1.784   2.661   4.308  0.3897 -1.5086 -0.8305
 1593TIP3    H2 4786   1.796   2.546   4.406 -1.4786 -1.4561 -0.5085
 1594TIP3   OH2 4787   0.490   3.207   0.198 -0.8571  0.2701  0.1260
 1594TIP3    H1 4788   0.575   3.193   0.240 -1.3544  0.8674  1.4073
 1594TIP3    H2 4789   0.510   3.214   0.105  0.8721  2.9066  0.5658
 1595TIP3   OH2 4790   1.863   4.159   1.836  0.0994 -0.3411  0.3015
 1595TIP3    H1 4791   1.869   4.077   1.885 -1.8708 -2.9129 -3.3458
 1595TIP3    H2 4792   1.784   4.201   1.871  1.7662  0.8486  3.0356
 1596TIP3   OH2 4793   4.870   0.795   4.246 -0.0803  0.7038 -0.0650
 1596TIP3    H1 4794   4.780   0.814   4.218 -0.2124 -0.5002 -0.5163
 1596TIP3    H2 4795   4.915   0.879   4.240 -0.8262  1.0468 -1.2077
 1597TIP3   OH2 4796   1.620   3.136   0.624 -0.6764 -0.7699  0.0209
 1597TIP3    H1 4797   1.622   3.060   0.567  0.3076  0.3684 -1.5424
 1597TIP3    H2 4798   1.711   3.165   0.629 -1.1705  0.9968 -0.4244
 1598TIP3   OH2 4799   0.786   2.848   4.935  0.1504 -0.7824  0.6727
 1598TIP3    H1 4800   0.839   2.839   4.855  2.2228 -1.9211  2.0879
 1598TIP3    H2 4801   0.699   2.870   4.903  1.8133  3.4621 -1.7380
 1599TIP3   OH2 4802   5.022   0.735   1.691  0.0481  0.0103 -0.1021
 1599TIP3    H1 4803   4.967   0.686   1.630 -1.5481  0.0415  1.2653
 1599TIP3    H2 4804   5.022   0.825   1.657 -3.4052  0.7701  1.4920
 1600TIP3   OH2 4805   1.760   1.094   3.003  0.4483  0.5240 -0.5201
 1600TIP3    H1 4806   1.750   1.189   3.009  0.3808  0.4879 -0.0361
 1600TIP3    H2 4807   1.806   1.069   3.083 -2.4808 -0.2251  1.1160
 1601TIP3   OH2 4808   0.781   4.248   1.236  0.6664 -0.4613 -0.3903
 1601TIP3    H1 4809   0.750   4.181   1.175  0.1895 -1.8310  1.2784
 1601TIP3    H2 4810   0.794   4.326   1.182  0.4837 -1.6717 -2.2573
 1602TIP3   OH2 4811   4.243   0.028   4.901  0.5501  0.1120 -0.2404
 1602TIP3    H1 4812   4.276   0.118   4.898  2.3729 -0.3950  1.6023
 1602TIP3    H2 4813   4.169   0.032   4.961 -1.2259  0.8100 -2.3662
 1603TIP3   OH2 4814   5.651   5.771   3.893 -0.3796 -0.4349 -0.6099
 1603TIP3    H1 4815   5.581   5.736   3.948  1.5803 -0.3307  2.1773
 1603TIP3    H2 4816   5.727   5.773   3.950  1.1222  2.5755 -2.4621
 1604TIP3   OH2 4817   2.304   5.814   2.999 -0.2003 -0.8175  0.2006
 1604TIP3    H1 4818   2.235   5.770   2.949 -0.1357 -2.1259  1.2260
 1604TIP3    H2 4819   2.269   5.820   3.088  0.1650  0.4217  0.2698
 1605TIP3   OH2 4820   2.162   5.912   1.264  0.5227 -1.0691  0.1968
 1605TIP3    H1 4821   2.143   6.003   1.243  0.5128 -0.6529  1.9116
 1605TIP3    H2 4822   2.228   5.886   1.200  0.1675 -0.0232 -0.6259
 1606TIP3   OH2 4823   1.776   2.213   4.719  0.1342 -0.7029  0.4405
 1606TIP3    H1 4824   1.729   2.230   4.637  1.7453  0.3724 -0.2995
 1606TIP3    H2 4825   1.707   2.212   4.786 -0.9841  0.7029 -0.6233
 1607TIP3   OH2 4826   4.396   3.069   3.983  0.0813  0.5596 -0.3142
 1607TIP3    H1 4827   4.410   3.024   3.900 -0.1666  1.3369 -0.7815
 1607TIP3    H2 4828   4.334   3.139   3.963  1.2784  1.8041  0.1444
 1608TIP3   OH2 4829   1.026   5.576   3.631  0.1301 -0.0469 -0.3409
 1608TIP3    H1 4830   1.070   5.549   3.711 -1.1333 -0.8202  0.1207
 1608TIP3    H2 4831   1.092   5.564   3.562  1.4298  1.2203  0.6395
 1609TIP3   OH2 4832   2.122   1.991   4.268 -0.1487 -0.4186  0.2239
 1609TIP3    H1 4833   2.046   2.026   4.220 -1.4987 -3.0108  0.2946
 1609TIP3    H2 4834   2.129   2.048   4.345  1.0306  2.8099 -2.0275
 1610TIP3   OH2 4835   2.974   5.525   0.863 -0.3458 -0.5437  0.4042
 1610TIP3    H1 4836   2.932   5.492   0.784  0.5782 -0.7939  0.0079
 1610TIP3    H2 4837   2.959   5.620   0.859 -1.6418 -0.7142  0.7425
 1611TIP3   OH2 4838   0.221   5.159   0.145  0.5326 -0.2210 -0.3363
 1611TIP3    H1 4839   0.195   5.172   0.236 -1.7217 -0.9451 -0.8322
 1611TIP3    H2 4840   0.204   5.243   0.103 -0.4548 -0.5071 -0.5240
 1612TIP3   OH2 4841   3.849   2.002   1.980 -0.2815  0.4038 -0.1862
 1612TIP3    H1 4842   3.834   1.996   2.074 -0.7006  1.7989 -0.1365
 1612TIP3    H2 4843   3.885   1.917   1.956  0.8379  0.3902  1.4046
 1613TIP3   OH2 4844   0.986   0.949   2.336  0.2827  0.3691 -0.4506
 1613TIP3    H1 4845   1.021   0.935   2.248 -0.3386 -0.5362 -0.5743
 1613TIP3    H2 4846   1.042   0.897   2.393 -0.5273 -0.6976 -0.5890
 1614TIP3   OH2 4847   1.451   3.427   0.827 -0.5836  0.1662 -0.0451
 1614TIP3    H1 4848   1.445   3.405   0.734 -2.9922  0.3862 -0.0127
 1614TIP3    H2 4849   1.528   3.483   0.834  0.9563 -1.6290 -1.4864
 1615TIP3   OH2 4850   3.400   1.726   4.353 -0.2687 -0.2889  0.1967
 1615TIP3    H1 4851   3.427   1.664   4.286  1.2892 -0.0848  0.5952
 1615TIP3    H2 4852   3.306   1.711   4.363  0.2888 -3.8872  1.5730
 1616TIP3   OH2 4853   6.225   3.485   3.730 -0.1619  0.7410  0.1446
 1616TIP3    H1 4854   6.272   3.557   3.771  0.2394  0.1508  0.7470
 1616TIP3    H2 4855   6.206   3.516   3.641  2.6639  0.4855 -0.6521
 1617TIP3   OH2 4856   0.573   0.564   0.786  0.0792 -0.3616  0.5530
 1617TIP3    H1 4857   0.621   0.559   0.703  0.4646  0.6636  0.7039
 1617TIP3    H2 4858   0.518   0.485   0.786  0.0700 -0.3827 -0.6753
 1618TIP3   OH2 4859   5.173   4.904   0.352  0.5397 -0.2530 -0.1214
 1618TIP3    H1 4860   5.249   4.855   0.320  1.1597  1.4852 -1.4839
 1618TIP3    H2 4861   5.202   4.996   0.351 -1.1638  0.3229  0.5479
 1619TIP3   OH2 4862   1.494   3.693   3.997  0.2376 -0.2580  1.3565
 1619TIP3    H1 4863   1.403   3.721   4.004  0.1013 -0.0925 -0.5202
 1619TIP3    H2 4864   1.543   3.760   4.044 -0.4841  0.5755  0.9512
 1620TIP3   OH2 4865   5.968   5.159   2.827 -0.3638  0.1083  0.0306
 1620TIP3    H1 4866   5.889   5.184   2.781  1.1401 -0.3093 -3.0120
 1620TIP3    H2 4867   5.987   5.233   2.884 -1.4679  1.4085 -1.2189
 1621TIP3   OH2 4868   3.393   5.792   0.436  0.1476  0.0979 -0.1608
 1621TIP3    H1 4869   3.482   5.778   0.403  0.2381 -1.5879  0.6908
 1621TIP3    H2 4870   3.351   5.846   0.369  1.0762 -1.1223 -1.8032
 1622TIP3   OH2 4871   3.014   4.093   2.109  0.0818 -0.3889 -0.1392
 1622TIP3    H1 4872   3.061   4.023   2.155  0.3204  1.0644  2.0047
 1622TIP3    H2 4873   3.061   4.173   2.134  0.5877  0.5036 -3.4817
 1623TIP3   OH2 4874   1.440   0.110   3.269  0.9396  0.3428 -0.0893
 1623TIP3    H1 4875   1.488   0.028   3.255  0.1859 -0.3387  1.1517
 1623TIP3    H2 4876   1.472   0.168   3.200 -0.5639 -1.8653 -2.8568
 1624TIP3   OH2 4877   5.082   0.947   2.046 -0.6752 -0.7717 -0.0328
 1624TIP3    H1 4878   5.127   0.883   2.101 -1.2579 -1.0167  0.1629
 1624TIP3    H2 4879   5.071   1.023   2.102  2.0645  0.4230 -0.9221
 1625TIP3   OH2 4880   1.523   0.839   1.581  0.1662 -0.2448  0.1930
 1625TIP3    H1 4881   1.544   0.820   1.672  0.3071 -0.7693  0.0562
 1625TIP3    H2 4882   1.565   0.769   1.532  0.8014  0.4986 -0.3474
 1626TIP3   OH2 4883   4.640   2.284   0.298 -0.3152 -0.7719  0.0886
 1626TIP3    H1 4884   4.635   2.305   0.205 -0.7470  0.0606  0.2865
 1626TIP3    H2 4885   4.569   2.334   0.338  0.1557 -0.7477  0.9296
 1627TIP3   OH2 4886   1.576   0.945   0.529 -0.5693 -0.1767 -0.2176
 1627TIP3    H1 4887   1.613   0.899   0.605 -0.3488  0.0442 -0.1886
 1627TIP3    H2 4888   1.535   0.876   0.477  0.1002 -0.4642 -0.3736
 1628TIP3   OH2 4889   3.219   2.247   1.925  0.0616 -0.3025 -0.0106
 1628TIP3    H1 4890   3.241   2.246   2.018 -0.5405  1.0670  0.1854
 1628TIP3    H2 4891   3.288   2.298   1.884  0.6910 -1.4705 -0.4442
 1629TIP3   OH2 4892   5.989   1.627   1.266  0.6073 -0.3344 -0.0355
 1629TIP3    H1 4893   6.006   1.711   1.223 -1.1241 -0.6171 -1.3880
 1629TIP3    H2 4894   5.960   1.650   1.354  0.1009  0.5217 -0.4095
 1630TIP3   OH2 4895   4.042   0.943   1.151  0.3613  0.5238  0.3093
 1630TIP3    H1 4896   4.114   0.980   1.201 -0.4541  3.9907 -0.7974
 1630TIP3    H2 4897   3.964   0.960   1.203 -0.1380  1.1795 -0.6168
 1631TIP3   OH2 4898   5.251   1.326   2.029  0.0359 -0.3083  0.2402
 1631TIP3    H1 4899   5.291   1.407   1.996 -1.2218 -0.0436 -0.6902
 1631TIP3    H2 4900   5.165   1.324   1.989 -0.8688 -0.9298  2.1014
 1632TIP3   OH2 4901   4.760   2.643   0.103  0.0042 -0.0638  0.1465
 1632TIP3    H1 4902   4.743   2.673   0.014  1.3189  0.2243 -0.0307
 1632TIP3    H2 4903   4.854   2.659   0.116  0.2193 -1.7610  0.9429
 1633TIP3   OH2 4904   0.220   3.189   0.284 -0.9698  0.4392 -0.0322
 1633TIP3    H1 4905   0.310   3.192   0.251 -0.9636 -0.1789 -0.0857
 1633TIP3    H2 4906   0.229   3.203   0.379 -0.8382  0.5886 -0.0668
 1634TIP3   OH2 4907   5.162   5.181   0.990 -0.1667  0.2323  0.0078
 1634TIP3    H1 4908   5.179   5.273   0.971 -0.1635 -0.1659 -2.2016
 1634TIP3    H2 4909   5.246   5.137   0.973 -0.1539 -0.1782  1.0932
 1635TIP3   OH2 4910   6.247   0.690   3.526  0.1167 -0.5013 -0.3555
 1635TIP3    H1 4911   6.169   0.661   3.572  0.6103 -1.4789 -0.1011
 1635TIP3    H2 4912   6.238   0.785   3.520 -0.8359 -0.5526  0.1240
 1636TIP3   OH2 4913   1.620   3.388   1.366  0.2197 -0.4018  0.6539
 1636TIP3    H1 4914   1.703   3.421   1.400 -1.1090  1.8115  2.0401
 1636TIP3    H2 4915   1.616   3.422   1.276  0.8958 -0.7293  0.4963
 1637TIP3   OH2 4916   0.043   1.440   5.106  0.0643 -0.0512  0.1513
 1637TIP3    H1 4917  -0.011   1.405   5.178 -0.5126 -0.9531 -0.6974
 1637TIP3    H2 4918  -0.012   1.507   5.066 -0.6247 -1.2447 -0.9624
 1638TIP3   OH2 4919   3.823   3.571   2.998  0.1826 -0.8218 -0.0204
 1638TIP3    H1 4920   3.868   3.628   3.061 -0.6034  1.3181 -1.2887
 1638TIP3    H2 4921   3.878   3.574   2.919  0.0790 -1.7855 -0.1430
 1639TIP3   OH2 4922   6.138   3.871   2.301  0.5333 -0.2828  0.6843
 1639TIP3    H1 4923   6.125   3.930   2.375 -1.6041 -0.8216  0.8030
 1639TIP3    H2 4924   6.086   3.909   2.230  0.1377 -1.3387  0.3791
 1640TIP3   OH2 4925   1.037   1.750   2.614 -0.0109  0.4681 -0.3691
 1640TIP3    H1 4926   1.081   1.716   2.536 -0.0486  0.9134 -0.5868
 1640TIP3    H2 4927   0.947   1.718   2.607  0.0174  0.4061 -0.4436
 1641TIP3   OH2 4928   2.369   2.160   2.479 -0.4716 -0.5287  0.1255
 1641TIP3    H1 4929   2.398   2.231   2.536 -0.4698 -1.4815  1.3498
 1641TIP3    H2 4930   2.320   2.203   2.409  0.2291  0.7315  0.3904
 1642TIP3   OH2 4931   6.268   5.295   2.034 -0.3519 -0.5023 -0.0893
 1642TIP3    H1 4932   6.174   5.279   2.043 -0.0505 -2.2584  0.2661
 1642TIP3    H2 4933   6.279   5.387   2.058 -2.1701  0.1770 -1.6190
 1643TIP3   OH2 4934   1.552   1.029   4.354 -0.6381 -0.1763 -0.2701
 1643TIP3    H1 4935   1.587   1.089   4.420  0.3376 -1.6701  0.5981
 1643TIP3    H2 4936   1.460   1.056   4.345 -0.4044  1.0126  0.5805
 1644TIP3   OH2 4937   1.575   4.092   0.055 -0.4620  0.2776 -0.5593
 1644TIP3    H1 4938   1.549   4.146  -0.019  0.9956  0.1913 -1.1709
 1644TIP3    H2 4939   1.669   4.078   0.042 -0.5191 -1.1369  0.4090
 1645TIP3   OH2 4940   4.637   3.775   0.488  0.1534  0.0903 -0.0349
 1645TIP3    H1 4941   4.630   3.870   0.496  1.0174  0.1402  0.2537
 1645TIP3    H2 4942   4.573   3.740   0.550 -0.6461  0.4758 -0.6303
 1646TIP3   OH2 4943   1.061   2.514   1.165 -0.4724  0.0239 -0.2804
 1646TIP3    H1 4944   1.046   2.476   1.078  0.7766 -0.3745 -0.3404
 1646TIP3    H2 4945   1.135   2.465   1.200 -0.2521  0.9319  0.5591
 1647TIP3   OH2 4946   3.722   2.223   5.058 -0.3155 -0.2163  0.1459
 1647TIP3    H1 4947   3.744   2.233   4.965  0.2598 -0.4209  0.2563
 1647TIP3    H2 4948   3.640   2.271   5.068  0.5565  1.4077 -0.0667
 1648TIP3   OH2 4949   3.158   3.888   1.264  0.0022 -0.2405  0.1391
 1648TIP3    H1 4950   3.106   3.968   1.275  0.7808  0.2969  0.0317
 1648TIP3    H2 4951   3.181   3.862   1.353  1.2315  0.6760  0.1165
 1649TIP3   OH2 4952   2.364   2.375   1.650 -0.0419  0.3960  0.0307
 1649TIP3    H1 4953   2.324   2.453   1.687 -0.4732  0.3880 -0.4074
 1649TIP3    H2 4954   2.361   2.311   1.721 -0.5909  0.4731  0.0840
 1650TIP3   OH2 4955   6.044   5.343   4.418 -0.9291 -0.5604  0.3595
 1650TIP3    H1 4956   6.078   5.423   4.379 -2.2083  0.0733  0.4757
 1650TIP3    H2 4957   6.015   5.370   4.506 -1.1107 -1.2076  0.5034
 1651TIP3   OH2 4958   0.386   5.828   0.453  0.3941 -0.3751  0.0109
 1651TIP3    H1 4959   0.332   5.764   0.405  1.5258 -1.0851 -0.3471
 1651TIP3    H2 4960   0.412   5.783   0.533 -0.8205  0.5305  0.9744
 1652TIP3   OH2 4961   6.115   3.994   2.055  0.3952 -0.3359 -0.2214
 1652TIP3    H1 4962   6.077   3.964   1.972 -2.5641  0.5894  0.6552
 1652TIP3    H2 4963   6.086   4.085   2.062  0.4216 -0.4522  1.8844
 1653TIP3   OH2 4964   5.437   0.431   2.965 -0.5397  0.0201  0.4872
 1653TIP3    H1 4965   5.510   0.465   2.913 -0.1127  1.0346  1.7218
 1653TIP3    H2 4966   5.362   0.431   2.904 -0.6042  3.3343  0.4222
 1654TIP3   OH2 4967   2.128   2.798   2.417  0.1269 -0.2003 -0.3104
 1654TIP3    H1 4968   2.129   2.704   2.399  1.5842 -0.2120 -0.2803
 1654TIP3    H2 4969   2.071   2.835   2.350 -0.3180 -1.0855 -0.4318
 1655TIP3   OH2 4970   1.373   5.623   0.202 -0.2599 -0.4849  0.3995
 1655TIP3    H1 4971   1.380   5.679   0.125  1.9353 -0.7233  0.3543
 1655TIP3    H2 4972   1.349   5.683   0.273 -0.1263  0.1347 -0.0709
 1656TIP3   OH2 4973   3.946   0.566   1.526  0.0382 -0.8789 -0.0562
 1656TIP3    H1 4974   3.999   0.504   1.576 -1.5095 -1.6887  0.6344
 1656TIP3    H2 4975   3.940   0.526   1.439  1.3053 -0.3121 -0.4312
 1657TIP3   OH2 4976   2.414   0.910   3.339 -0.4494 -0.3481  0.3003
 1657TIP3    H1 4977   2.384   1.001   3.333 -0.4121 -0.3680 -0.2747
 1657TIP3    H2 4978   2.433   0.897   3.432  0.7406  0.6096  0.2160
 1658TIP3   OH2 4979   3.136   2.310   3.870  0.0353 -0.1073  0.3308
 1658TIP3    H1 4980   3.069   2.361   3.916 -1.2166 -1.1678 -0.2219
 1658TIP3    H2 4981   3.155   2.361   3.791 -1.0410 -0.3414 -0.1095
 1659TIP3   OH2 4982   0.001   5.594   1.301 -0.1913 -0.1252  0.7461
 1659TIP3    H1 4983   0.093   5.590   1.276 -0.4975  0.2995 -0.5359
 1659TIP3    H2 4984   0.002   5.621   1.393  0.9748 -1.0420  1.0304
 1660TIP3   OH2 4985   0.822   0.326   0.793 -0.5389 -0.2239  0.0287
 1660TIP3    H1 4986   0.798   0.343   0.702 -1.3794 -1.2248  0.0430
 1660TIP3    H2 4987   0.772   0.248   0.817  2.1914 -2.0460  0.2887
 1661TIP3   OH2 4988   3.042   5.019   1.183  0.1935  0.4846 -0.3670
 1661TIP3    H1 4989   3.051   5.113   1.202 -0.6418  0.6485 -0.7458
 1661TIP3    H2 4990   3.129   4.993   1.153  0.4633  1.1139 -0.1574
 1662TIP3   OH2 4991   0.783   0.366   2.704 -0.4247 -0.1850 -0.0996
 1662TIP3    H1 4992   0.767   0.325   2.789  0.4873 -0.9773 -0.2947
 1662TIP3    H2 4993   0.827   0.298   2.653 -1.0927  0.2357 -1.2611
 1663TIP3   OH2 4994   0.043   3.363   0.884 -0.2142  0.4815  0.3855
 1663TIP3    H1 4995   0.112   3.429   0.894 -0.3005  0.7034 -0.4296
 1663TIP3    H2 4996   0.056   3.328   0.796  1.2476 -2.2289  1.5615
 1664TIP3   OH2 4997   1.792   4.934   4.215 -0.2044  0.8557  0.1607
 1664TIP3    H1 4998   1.778   4.861   4.275 -0.2150  0.4471 -0.3283
 1664TIP3    H2 4999   1.824   4.893   4.134  2.8373  1.6144  0.8333
 1665TIP3   OH2 5000   3.297   2.650   4.263 -0.0256 -0.0498 -0.2159
 1665TIP3    H1 5001   3.386   2.634   4.294 -0.1879 -0.4134  0.0623
 1665TIP3    H2 5002   3.274   2.573   4.212 -0.4391 -0.2706  0.2967
 1666TIP3   OH2 5003   4.830   4.823   2.390 -0.0497  0.1376  0.1087
 1666TIP3    H1 5004   4.898   4.796   2.452  0.0248  0.7075  0.2816
 1666TIP3    H2 5005   4.768   4.873   2.443 -1.7325 -2.1015  0.4017
 1667TIP3   OH2 5006   3.239   1.139   0.610  0.0751 -0.0859 -0.3064
 1667TIP3    H1 5007   3.298   1.098   0.674 -0.0033  0.6178  0.2278
 1667TIP3    H2 5008   3.276   1.115   0.525  1.1062  0.2932  0.0206
 1668TIP3   OH2 5009   1.197   2.932   3.829 -0.2634  0.3617 -0.4978
 1668TIP3    H1 5010   1.209   2.910   3.921  1.7546 -0.8580 -0.9909
 1668TIP3    H2 5011   1.283   2.920   3.790 -0.3638  3.5726 -2.0516
 1669TIP3   OH2 5012   0.936   0.406   5.029  0.1462 -0.3224  0.2029
 1669TIP3    H1 5013   0.964   0.495   5.007  0.2101 -0.4731 -0.3319
 1669TIP3    H2 5014   0.860   0.419   5.086 -0.2504  0.0734 -0.4055
 1670TIP3   OH2 5015   0.752   4.603   4.852  0.2968 -0.7894  0.0620
 1670TIP3    H1 5016   0.817   4.569   4.913  0.8427 -1.1993 -0.7330
 1670TIP3    H2 5017   0.712   4.525   4.814  0.5514 -0.5442 -0.7186
 1671TIP3   OH2 5018   5.880   2.352   2.913  0.1247  0.1500  0.4282
 1671TIP3    H1 5019   5.936   2.343   2.990 -0.9520  0.6730  1.3048
 1671TIP3    H2 5020   5.941   2.362   2.840  1.2080 -1.9810  0.9447
 1672TIP3   OH2 5021   0.481   0.461   0.297  0.6445 -0.0983  0.0596
 1672TIP3    H1 5022   0.537   0.495   0.227  0.2111  0.1012 -0.1934
 1672TIP3    H2 5023   0.525   0.380   0.324  1.5647  0.5398  0.5253
 1673TIP3   OH2 5024   4.805   2.958   2.019 -0.4165  0.3692  0.4477
 1673TIP3    H1 5025   4.813   2.963   2.114 -1.5288 -1.1192  0.6515
 1673TIP3    H2 5026   4.781   3.046   1.992  1.1290  1.1208  1.3902
 1674TIP3   OH2 5027   2.240   3.611   4.992  0.3985 -0.2325  0.0167
 1674TIP3    H1 5028   2.273   3.679   4.933  0.9502 -0.8822 -0.4374
 1674TIP3    H2 5029   2.146   3.631   5.000  0.7466  1.2415  0.8088
 1675TIP3   OH2 5030   2.659   3.484   1.978  0.0529 -0.0511  0.0219
 1675TIP3    H1 5031   2.691   3.463   2.066  0.3965 -1.6452 -0.4707
 1675TIP3    H2 5032   2.686   3.411   1.923 -0.1998  0.8930 -1.4282
 1676TIP3   OH2 5033   3.478   2.644   2.882  0.2546  0.3994  0.8617
 1676TIP3    H1 5034   3.391   2.614   2.853 -1.3125  2.3332  3.1650
 1676TIP3    H2 5035   3.498   2.589   2.958  0.5930  0.5970  0.9182
 1677TIP3   OH2 5036   0.491   5.499   3.739  0.1178 -0.4591  0.2608
 1677TIP3    H1 5037   0.578   5.520   3.703 -0.8082  1.7260 -0.8965
 1677TIP3    H2 5038   0.484   5.554   3.817 -1.2180  1.5572 -1.1825
 1678TIP3   OH2 5039   5.551   1.757   0.508 -0.2323  0.2947  0.3401
 1678TIP3    H1 5040   5.573   1.663   0.504 -1.0066  0.0796  0.9426
 1678TIP3    H2 5041   5.490   1.764   0.581  0.6571  1.4469  0.9885
 1679TIP3   OH2 5042   2.207   1.642   3.562  0.1808 -0.6234  0.2223
 1679TIP3    H1 5043   2.180   1.631   3.653  0.3165 -2.0320  0.1002
 1679TIP3    H2 5044   2.265   1.569   3.545 -0.2719 -0.6842 -1.1724
 1680TIP3   OH2 5045   2.706   5.044   2.235 -0.2729  0.4817 -0.5580
 1680TIP3    H1 5046   2.773   5.068   2.171  1.0169 -0.7997  0.2697
 1680TIP3    H2 5047   2.661   5.126   2.254  1.0224  1.3699 -1.1552
 1681TIP3   OH2 5048   4.182   5.387   3.835  0.7262 -0.3144  0.1257
 1681TIP3    H1 5049   4.110   5.324   3.831 -2.0185  2.5729 -1.3222
 1681TIP3    H2 5050   4.237   5.367   3.760  0.8887 -1.9883  0.6720
 1682TIP3   OH2 5051   4.026   5.527   1.998 -0.0504  0.5164  0.0863
 1682TIP3    H1 5052   3.996   5.610   1.960 -1.6512 -0.9855 -2.2069
 1682TIP3    H2 5053   3.979   5.460   1.948  0.3187 -1.7792  2.6053
 1683TIP3   OH2 5054   5.854   3.682   2.827  0.2659  0.2830 -0.6242
 1683TIP3    H1 5055   5.911   3.744   2.873  1.6695 -0.8992 -0.6951
 1683TIP3    H2 5056   5.908   3.604   2.816 -1.3927 -0.8928 -0.7109
 1684TIP3   OH2 5057   2.843   5.380   3.181  0.1954  0.8383 -0.7414
 1684TIP3    H1 5058   2.872   5.289   3.178 -0.4391  0.6584 -1.8370
 1684TIP3    H2 5059   2.831   5.398   3.274  1.1946  0.0895 -0.4443
 1685TIP3   OH2 5060   0.608   1.619   2.100  0.2018 -0.1829 -0.4720
 1685TIP3    H1 5061   0.624   1.687   2.034  1.8637 -0.5095 -0.4500
 1685TIP3    H2 5062   0.601   1.538   2.050 -0.9016 -0.1354 -0.4208
 1686TIP3   OH2 5063   4.773   1.434   1.696 -0.4731  0.4956 -0.1205
 1686TIP3    H1 5064   4.830   1.458   1.769 -0.1340  1.3472 -0.6499
 1686TIP3    H2 5065   4.728   1.355   1.726  1.6706 -0.7729 -0.0706
 1687TIP3   OH2 5066   3.194   2.031   0.535  0.0049 -0.2059 -0.3512
 1687TIP3    H1 5067   3.274   2.068   0.573  0.1287  0.8243 -1.5488
 1687TIP3    H2 5068   3.155   1.981   0.606  1.1815  0.1285  0.5669
 1688TIP3   OH2 5069   5.024   4.074   1.977  0.1393 -0.1057 -0.3733
 1688TIP3    H1 5070   5.069   4.131   1.915  0.6926 -0.8151 -0.6489
 1688TIP3    H2 5071   5.071   3.990   1.970 -0.3000 -0.4285  0.4163
 1689TIP3   OH2 5072   3.391   5.409   2.905 -0.3825 -0.4959 -0.0957
 1689TIP3    H1 5073   3.325   5.354   2.946  0.9607 -1.9991  0.1687
 1689TIP3    H2 5074   3.466   5.351   2.893  0.2237  0.6005 -2.2150
 1690TIP3   OH2 5075   6.074   4.969   1.477  0.2800  0.0466  0.0184
 1690TIP3    H1 5076   6.120   4.885   1.477  1.3114  0.5932 -0.0724
 1690TIP3    H2 5077   6.062   4.989   1.570 -0.5608 -0.5045  0.0371
 1691TIP3   OH2 5078   3.360   2.282   0.997 -0.3352 -0.1587 -0.6625
 1691TIP3    H1 5079   3.307   2.213   0.957  0.3040 -0.3253 -1.2434
 1691TIP3    H2 5080   3.427   2.235   1.048 -1.9396  0.0299  1.7996
 1692TIP3   OH2 5081   0.651   3.790   1.738  0.5246 -0.4278  0.2891
 1692TIP3    H1 5082   0.568   3.743   1.729  0.3508 -0.3723  1.4237
 1692TIP3    H2 5083   0.625   3.879   1.761  0.8524  0.2553 -1.8240
 1693TIP3   OH2 5084   4.494   4.713   0.861  0.7949 -0.2810 -0.1889
 1693TIP3    H1 5085   4.459   4.748   0.942 -1.0488 -2.5479  0.1223
 1693TIP3    H2 5086   4.532   4.788   0.816 -0.6119  1.5547  1.5175
 1694TIP3   OH2 5087   2.752   2.943   2.132 -0.6686 -0.2730  0.0402
 1694TIP3    H1 5088   2.799   2.897   2.201  0.4650  1.2631  0.3631
 1694TIP3    H2 5089   2.802   2.925   2.052  0.3032  1.0335  0.3154
 1695TIP3   OH2 5090   3.394   3.411   0.254  0.9440  0.1389 -0.5636
 1695TIP3    H1 5091   3.375   3.504   0.240  0.7642  0.1336 -0.3489
 1695TIP3    H2 5092   3.327   3.381   0.315  1.6014  0.1083  0.1473
 1696TIP3   OH2 5093   5.141   1.676   5.130  0.0558 -0.5923  0.1473
 1696TIP3    H1 5094   5.050   1.703   5.136  0.8535  3.1544 -1.4813
 1696TIP3    H2 5095   5.185   1.725   5.200  1.3604  1.4408 -1.9249
 1697TIP3   OH2 5096   5.713   5.824   3.546 -0.0950  0.1374 -0.1319
 1697TIP3    H1 5097   5.728   5.888   3.616  1.4380  0.3994 -0.6506
 1697TIP3    H2 5098   5.797   5.779   3.537 -0.7446 -0.9919 -0.7334
 1698TIP3   OH2 5099   4.053   0.507   3.870  0.2299 -0.3305 -0.7044
 1698TIP3    H1 5100   4.074   0.587   3.918  1.6610 -0.8516 -0.3938
 1698TIP3    H2 5101   3.987   0.533   3.806  1.6125  1.4151 -1.5215
 1699TIP3   OH2 5102   5.885   0.142   4.788  0.4132  0.2630 -0.1072
 1699TIP3    H1 5103   5.951   0.078   4.814 -1.0472 -1.4589 -0.4015
 1699TIP3    H2 5104   5.802   0.103   4.816 -0.5980  1.7141 -0.9491
 1700TIP3   OH2 5105   5.237   5.390   3.280  0.4438 -0.3028  0.0381
 1700TIP3    H1 5106   5.287   5.320   3.237  2.3526  1.6610 -1.1180
 1700TIP3    H2 5107   5.297   5.426   3.345 -0.2119  0.7595  0.0791
 1701TIP3   OH2 5108   3.280   2.994   0.090  0.6848 -0.0730 -0.4157
 1701TIP3    H1 5109   3.363   3.003   0.137  0.4607  0.4088 -0.0979
 1701TIP3    H2 5110   3.302   2.943   0.013  0.9262 -1.4949  0.5536
 1702TIP3   OH2 5111   0.379   5.924   2.304 -0.1113  0.0790 -0.1179
 1702TIP3    H1 5112   0.412   5.836   2.286  0.4310  0.1163  0.6261
 1702TIP3    H2 5113   0.444   5.983   2.266 -0.5280  0.1612 -0.7083
 1703TIP3   OH2 5114   0.551   4.011   1.880  0.0714  0.0064  0.3531
 1703TIP3    H1 5115   0.639   4.038   1.908  0.4493 -0.8745  0.0734
 1703TIP3    H2 5116   0.492   4.055   1.941  0.6664  1.0796  0.1909
 1704TIP3   OH2 5117   3.180   5.829   1.010  0.7255  0.5133  0.1759
 1704TIP3    H1 5118   3.111   5.825   0.944  0.3777 -0.8861  0.5863
 1704TIP3    H2 5119   3.137   5.870   1.086 -0.1454 -1.6176  0.9215
 1705TIP3   OH2 5120  -0.006   4.128   2.760 -0.8038  0.1444 -0.4964
 1705TIP3    H1 5121   0.040   4.044   2.761  0.3255  0.7447 -0.3590
 1705TIP3    H2 5122   0.064   4.193   2.760 -1.6554  1.0848 -1.5175
 1706TIP3   OH2 5123   2.347   0.338   0.564 -0.3031  0.1511 -0.1288
 1706TIP3    H1 5124   2.352   0.254   0.518 -1.8434 -1.3734  2.2770
 1706TIP3    H2 5125   2.273   0.383   0.522 -0.2030 -0.1801 -0.6782
 1707TIP3   OH2 5126   1.420   1.976   1.084 -0.0983 -0.1827  0.1200
 1707TIP3    H1 5127   1.448   2.049   1.139 -1.2517  0.0548  0.4302
 1707TIP3    H2 5128   1.334   2.002   1.051  1.3771  0.6550 -3.6130
 1708TIP3   OH2 5129   5.024   1.089   1.758 -0.1435 -0.2893  0.1251
 1708TIP3    H1 5130   5.034   1.184   1.760 -0.5392 -0.2063 -1.0194
 1708TIP3    H2 5131   5.076   1.057   1.832  1.6804  0.6804 -0.6677
 1709TIP3   OH2 5132   4.677   0.238   0.725  0.7014 -0.0628  0.3940
 1709TIP3    H1 5133   4.679   0.333   0.723  0.6457 -0.0661 -0.0571
 1709TIP3    H2 5134   4.721   0.211   0.644  2.0802 -0.4448  1.2393
 1710TIP3   OH2 5135   6.036   0.359   3.398 -0.1246 -0.1227  0.1398
 1710TIP3    H1 5136   6.077   0.343   3.482  1.5204  1.2426 -0.3440
 1710TIP3    H2 5137   6.011   0.272   3.366  0.7094 -0.8069  1.2913
 1711TIP3   OH2 5138   4.810   5.058   1.989 -0.4092  0.8541  0.3727
 1711TIP3    H1 5139   4.730   5.005   1.989 -1.0514  1.5751 -2.8418
 1711TIP3    H2 5140   4.782   5.144   1.957  1.4804  1.5037  0.3165
 1712TIP3   OH2 5141   3.377   0.910   3.825  0.0312  0.5486 -0.1419
 1712TIP3    H1 5142   3.347   0.941   3.911 -1.5682 -2.6122  0.6050
 1712TIP3    H2 5143   3.296   0.900   3.774  0.6943 -0.2626 -1.0646
 1713TIP3   OH2 5144   3.854   4.849   0.577  0.0429 -0.1622  0.6617
 1713TIP3    H1 5145   3.876   4.841   0.670 -1.9414  1.0732  1.2960
 1713TIP3    H2 5146   3.835   4.942   0.565 -0.4479 -0.4273 -0.8229
 1714TIP3   OH2 5147   5.588   4.399   1.987 -0.6047  0.2695  0.1198
 1714TIP3    H1 5148   5.601   4.336   1.916  0.8925 -0.7614  1.2692
 1714TIP3    H2 5149   5.553   4.348   2.060  1.3768  0.5646  1.3370
 1715TIP3   OH2 5150   1.138   4.957   1.058  0.3732 -0.0888  0.4881
 1715TIP3    H1 5151   1.120   4.868   1.088 -0.7782  0.1950  0.6890
 1715TIP3    H2 5152   1.206   4.946   0.991  2.9228 -0.7470  2.9954
 1716TIP3   OH2 5153   4.023   0.681   1.835  0.0379  0.0739 -0.3327
 1716TIP3    H1 5154   3.976   0.674   1.752  1.1060 -0.4866 -0.9143
 1716TIP3    H2 5155   4.052   0.592   1.854  0.8356  0.3903  0.0170
 1717TIP3   OH2 5156   5.013   0.063   4.900 -0.1831  0.1975  0.4231
 1717TIP3    H1 5157   5.104   0.038   4.887  0.9925  3.5957  1.0852
 1717TIP3    H2 5158   4.989   0.111   4.821 -1.7018 -1.1559 -0.0183
 1718TIP3   OH2 5159   5.170   4.871   1.093 -0.5453 -0.2497  0.8499
 1718TIP3    H1 5160   5.080   4.859   1.065  0.2314 -1.0253 -1.5837
 1718TIP3    H2 5161   5.201   4.782   1.112 -0.1918 -0.0332  1.2917
 1719TIP3   OH2 5162   0.154  -0.012   5.124 -0.2737  0.2682 -0.0660
 1719TIP3    H1 5163   0.208   0.048   5.072  0.5048 -1.5742 -1.5148
 1719TIP3    H2 5164   0.074  -0.024   5.071 -0.6698  0.4457  0.4847
 1720TIP3   OH2 5165   3.248   0.619   3.382 -0.4395 -0.1800 -0.2062
 1720TIP3    H1 5166   3.224   0.708   3.358  0.7676  0.6194  1.3964
 1720TIP3    H2 5167   3.171   0.584   3.427 -0.2118  0.7890  0.9621
 1721TIP3   OH2 5168   4.434   5.273   2.340 -0.4695  0.1114 -0.2930
 1721TIP3    H1 5169   4.499   5.203   2.346  0.4690  0.8615 -1.3796
 1721TIP3    H2 5170   4.356   5.230   2.304  0.0601 -0.4001 -0.8366
 1722TIP3   OH2 5171   0.154   0.974   2.514 -0.3654 -0.0230  0.0239
 1722TIP3    H1 5172   0.195   0.962   2.600 -1.8110 -1.0104  0.6178
 1722TIP3    H2 5173   0.225   0.962   2.452  0.2271 -2.1248  0.9881
 1723TIP3   OH2 5174   3.181   0.348   3.514  0.4218 -0.4343 -0.3309
 1723TIP3    H1 5175   3.189   0.305   3.599  3.0082 -0.7241 -0.6171
 1723TIP3    H2 5176   3.185   0.276   3.450  0.1661 -0.1073 -0.7173
 1724TIP3   OH2 5177   1.616   3.098   2.909  0.2333  0.3029  0.3541
 1724TIP3    H1 5178   1.594   3.165   2.974 -1.4822  0.0036  0.1381
 1724TIP3    H2 5179   1.673   3.144   2.847  0.9698  0.9008  1.4438
 1725TIP3   OH2 5180   1.960   4.701   4.930  0.0782  0.2688 -0.0204
 1725TIP3    H1 5181   1.990   4.610   4.938 -0.8160  0.0696  1.4597
 1725TIP3    H2 5182   1.983   4.741   5.014 -1.0483  0.9204 -0.0039
 1726TIP3   OH2 5183   4.238   2.726   3.830 -0.0161 -0.4050  0.0812
 1726TIP3    H1 5184   4.166   2.669   3.855  1.7475 -2.5538  0.6386
 1726TIP3    H2 5185   4.283   2.746   3.912  1.7353 -1.6715 -0.5003
 1727TIP3   OH2 5186   4.113   2.927   1.077 -0.0260 -0.0482  0.0332
 1727TIP3    H1 5187   4.141   2.844   1.116  1.4383 -0.1346 -1.1227
 1727TIP3    H2 5188   4.122   2.991   1.148  0.1393 -0.6311  0.5493
 1728TIP3   OH2 5189   1.343   0.449   4.713  0.5905 -0.4942  0.0957
 1728TIP3    H1 5190   1.430   0.416   4.688  0.6158 -2.0142  1.9634
 1728TIP3    H2 5191   1.290   0.370   4.723 -0.9375  0.4028 -0.6476
 1729TIP3   OH2 5192   1.931   3.767   1.162  0.0554 -0.0724  0.3191
 1729TIP3    H1 5193   1.852   3.794   1.209  0.8919  1.6712  0.8186
 1729TIP3    H2 5194   1.953   3.842   1.107  1.5593 -0.3716  0.4603
 1730TIP3   OH2 5195   0.406   3.244   3.823 -0.7809  0.3505  0.0984
 1730TIP3    H1 5196   0.329   3.296   3.800 -1.6422 -1.4838 -1.3670
 1730TIP3    H2 5197   0.377   3.153   3.816  2.0277 -0.5162 -2.6797
 1731TIP3   OH2 5198   4.799   3.959   1.201 -0.2101  0.0234 -0.1874
 1731TIP3    H1 5199   4.802   3.918   1.287  0.2702 -1.6782 -0.9794
 1731TIP3    H2 5200   4.758   4.044   1.217  1.9766  0.7934  2.1176
 1732TIP3   OH2 5201   3.600   2.837   3.781  0.3616 -0.0140 -0.2162
 1732TIP3    H1 5202   3.548   2.768   3.824  0.3386  1.2704  1.9736
 1732TIP3    H2 5203   3.536   2.888   3.732  0.2002 -0.8170 -0.8619
 1733TIP3   OH2 5204   0.427   4.586   0.197  0.2938 -0.2536  0.3501
 1733TIP3    H1 5205   0.455   4.535   0.121  0.0821 -0.6199  0.5127
 1733TIP3    H2 5206   0.338   4.613   0.177  0.3240 -0.1395  0.3655
 1734TIP3   OH2 5207   2.898   2.885   1.909  0.5935  0.0308  0.8435
 1734TIP3    H1 5208   2.918   2.792   1.913  2.1527  0.2945 -0.0403
 1734TIP3    H2 5209   2.970   2.923   1.859  0.7456  1.9268  2.3791
 1735TIP3   OH2 5210   6.342   4.827   1.764  0.4904  0.0547 -0.1708
 1735TIP3    H1 5211   6.255   4.801   1.793 -0.3924  0.4159 -2.2694
 1735TIP3    H2 5212   6.346   4.922   1.780  0.1513  0.1849 -0.7952
 1736TIP3   OH2 5213   5.996   3.771   1.343 -0.3345 -0.4514  0.3012
 1736TIP3    H1 5214   5.903   3.759   1.364  0.3775 -6.8108  2.0909
 1736TIP3    H2 5215   6.008   3.724   1.260  1.4284 -1.1011  0.8768
 1737TIP3   OH2 5216   4.962   5.070   4.832 -0.1173  0.4423 -0.4575
 1737TIP3    H1 5217   4.990   4.981   4.853 -0.0375  0.4250 -0.6309
 1737TIP3    H2 5218   4.917   5.101   4.910 -1.5469 -0.3187 -0.9525
 1738TIP3   OH2 5219   4.543   1.522   3.944  0.1418 -0.5269  0.7740
 1738TIP3    H1 5220   4.466   1.486   3.987  0.9531 -0.7281  2.1573
 1738TIP3    H2 5221   4.549   1.612   3.977 -0.1917 -0.1039 -0.2995
 1739TIP3   OH2 5222   5.189   3.182   1.155  0.0378 -0.3345 -0.6106
 1739TIP3    H1 5223   5.255   3.196   1.087 -1.0885  0.9229 -1.4843
 1739TIP3    H2 5224   5.106   3.176   1.108 -0.9457  1.8467  0.7113
 1740TIP3   OH2 5225   2.829   4.880   1.076  0.1668  0.0401  0.3228
 1740TIP3    H1 5226   2.902   4.923   1.122  1.2846  0.5306 -1.7934
 1740TIP3    H2 5227   2.871   4.821   1.013 -1.3038 -0.7730  0.0532
 1741TIP3   OH2 5228   0.307   5.083   4.599 -0.3432  0.3915 -0.1122
 1741TIP3    H1 5229   0.221   5.111   4.566 -0.1707  1.0829  0.0105
 1741TIP3    H2 5230   0.356   5.165   4.610 -0.3022  0.1677  1.6016
 1742TIP3   OH2 5231   2.693   5.129   4.550 -0.1677 -0.0177 -0.0821
 1742TIP3    H1 5232   2.605   5.104   4.521 -0.6315  2.3077 -0.8829
 1742TIP3    H2 5233   2.685   5.222   4.572  1.9022  0.0291  0.6822
 1743TIP3   OH2 5234   5.446   5.545   3.881 -0.2117  0.3103 -0.0964
 1743TIP3    H1 5235   5.441   5.606   3.955 -0.6949  0.7253 -0.4570
 1743TIP3    H2 5236   5.355   5.518   3.867 -0.0974  0.0982 -0.4228
 1744TIP3   OH2 5237   6.280   5.808   0.208  0.3932 -0.2490  0.6049
 1744TIP3    H1 5238   6.210   5.856   0.164  0.3910 -2.3465 -1.9071
 1744TIP3    H2 5239   6.233   5.747   0.265  0.2859  0.1066  0.9049
 1745TIP3   OH2 5240   2.524   3.857   1.652 -0.0844  0.0544  0.7044
 1745TIP3    H1 5241   2.446   3.853   1.596  1.3902 -1.3838 -1.3720
 1745TIP3    H2 5242   2.505   3.797   1.724 -0.1586 -1.9556 -0.8934
 1746TIP3   OH2 5243   5.098   3.844   1.373 -0.6412  0.0715 -0.0306
 1746TIP3    H1 5244   5.033   3.907   1.344 -1.0935 -0.3404  0.0525
 1746TIP3    H2 5245   5.171   3.853   1.312  0.3088  2.2838  1.3299
 1747TIP3   OH2 5246   4.908   4.734   2.003  0.0096  0.1637  0.7286
 1747TIP3    H1 5247   4.998   4.719   1.977 -0.6041  0.0061 -1.5200
 1747TIP3    H2 5248   4.897   4.829   2.002 -0.3384  0.1472 -1.0606
 1748TIP3   OH2 5249   3.136   5.916   0.287 -0.5565 -0.4640 -0.2320
 1748TIP3    H1 5250   3.117   6.010   0.276  0.4950 -0.2128  0.0115
 1748TIP3    H2 5251   3.210   5.900   0.228 -0.6496 -1.1184 -0.1701
 1749TIP3   OH2 5252   5.628   4.855   0.219 -0.3689  0.1011 -0.2813
 1749TIP3    H1 5253   5.620   4.767   0.182 -0.3742  0.6072 -1.5212
 1749TIP3    H2 5254   5.677   4.905   0.153 -0.9466  1.2070  0.1032
 1750TIP3   OH2 5255   1.660   0.575   4.698 -0.1886  0.3365 -0.6400
 1750TIP3    H1 5256   1.731   0.599   4.638  0.0130  2.2251  0.3012
 1750TIP3    H2 5257   1.631   0.489   4.667  2.8014 -0.7297 -0.7837
 1751TIP3   OH2 5258   0.806   2.169   3.962 -0.0003 -0.7919  0.1044
 1751TIP3    H1 5259   0.861   2.189   3.887 -0.8614 -2.4711 -1.0157
 1751TIP3    H2 5260   0.866   2.172   4.037  1.3627 -1.3673 -0.9198
 1752TIP3   OH2 5261   6.130   3.991   3.574  0.0807 -0.4576 -0.4053
 1752TIP3    H1 5262   6.097   4.006   3.485  0.3039  0.8883 -0.2863
 1752TIP3    H2 5263   6.128   4.078   3.615 -0.8197 -1.2000  1.1899
 1753TIP3   OH2 5264   5.190   1.733   2.818 -0.2370 -0.0556  0.2944
 1753TIP3    H1 5265   5.168   1.641   2.805 -2.3615  0.2599  1.2609
 1753TIP3    H2 5266   5.225   1.737   2.908 -1.3901  0.2534  0.7419
 1754TIP3   OH2 5267   3.843   0.748   2.432 -0.3514  0.1884  0.2273
 1754TIP3    H1 5268   3.843   0.841   2.409 -0.4587  0.1170 -0.0712
 1754TIP3    H2 5269   3.935   0.724   2.438 -0.2727 -0.2251 -1.9516
 1755TIP3   OH2 5270   3.204   5.957   4.470 -0.5033 -0.3931 -0.0583
 1755TIP3    H1 5271   3.185   6.046   4.441 -0.6408 -1.1095 -2.4256
 1755TIP3    H2 5272   3.131   5.934   4.528 -2.1854  0.0069 -1.8975
 1756TIP3   OH2 5273   2.556   5.077   1.608 -0.2637  0.2335 -0.2261
 1756TIP3    H1 5274   2.466   5.074   1.640 -0.0768 -1.4614  0.2255
 1756TIP3    H2 5275   2.593   5.156   1.649 -1.4871  0.9014 -0.3424
 1757TIP3   OH2 5276   3.556   2.583   1.671 -0.8226 -0.7770 -0.0907
 1757TIP3    H1 5277   3.525   2.502   1.630  0.6799 -1.0786 -0.6928
 1757TIP3    H2 5278   3.651   2.583   1.656 -0.7355  0.8888  0.2730
 1758TIP3   OH2 5279   4.883   2.933   3.460 -0.0711  0.5696 -0.1177
 1758TIP3    H1 5280   4.819   2.866   3.435 -0.0010  0.5312 -0.1919
 1758TIP3    H2 5281   4.959   2.915   3.406  0.4374 -0.1039  0.7833
 1759TIP3   OH2 5282   5.958   4.217   2.113 -0.6611 -0.7556  0.1123
 1759TIP3    H1 5283   5.884   4.170   2.074 -2.4196  2.4836 -0.7674
 1759TIP3    H2 5284   5.965   4.297   2.062  2.8624 -0.4483  0.8649
 1760TIP3   OH2 5285   0.978   0.377   4.004  0.2078 -0.2000  0.5269
 1760TIP3    H1 5286   0.968   0.396   3.910  1.8136 -2.5041 -0.2029
 1760TIP3    H2 5287   1.071   0.394   4.021  0.1972 -0.9545  1.3837
 1761TIP3   OH2 5288   5.016   5.541   1.350  0.5059  0.2736  0.2756
 1761TIP3    H1 5289   4.992   5.603   1.280  0.5800 -0.1026 -0.0874
 1761TIP3    H2 5290   4.953   5.558   1.420 -0.5959 -0.4286 -0.5126
 1762TIP3   OH2 5291   1.155   2.505   1.666 -0.1779 -0.2178 -0.5622
 1762TIP3    H1 5292   1.178   2.421   1.704 -1.5868 -0.8743 -1.0980
 1762TIP3    H2 5293   1.135   2.487   1.574  0.4340  0.8685 -0.9324
 1763TIP3   OH2 5294   2.010   0.905   4.217 -0.5697  0.5872  0.3582
 1763TIP3    H1 5295   1.920   0.875   4.205 -0.0549 -0.0473 -2.7275
 1763TIP3    H2 5296   2.062   0.825   4.222 -0.0033  0.9527  0.3719
 1764TIP3   OH2 5297   3.063   1.916   3.243  0.2026 -0.1877 -0.7241
 1764TIP3    H1 5298   3.011   1.940   3.319  1.4132  0.5570 -0.0917
 1764TIP3    H2 5299   3.061   1.820   3.241  1.0091 -0.2647  0.8863
 1765TIP3   OH2 5300   3.861   2.993   4.545  0.2111 -0.1754 -0.0294
 1765TIP3    H1 5301   3.955   2.985   4.526 -0.0200 -0.9610 -0.8929
 1765TIP3    H2 5302   3.819   2.989   4.459 -0.8285 -2.9433  0.5182
 1766TIP3   OH2 5303   5.702   4.180   1.140 -0.4464  0.1963 -0.4745
 1766TIP3    H1 5304   5.784   4.221   1.166  0.4968  0.5808 -3.6498
 1766TIP3    H2 5305   5.634   4.238   1.175  0.6054  0.4828  1.2303
 1767TIP3   OH2 5306   2.183   4.772   2.884  0.4565  0.0868 -0.1256
 1767TIP3    H1 5307   2.153   4.762   2.793  0.8854  0.9482 -0.3743
 1767TIP3    H2 5308   2.112   4.736   2.937 -0.1973  0.3892 -0.7768
 1768TIP3   OH2 5309   2.599   4.481   1.971  0.3718  0.0462 -0.0774
 1768TIP3    H1 5310   2.577   4.514   1.884  0.1736  1.0760  0.3494
 1768TIP3    H2 5311   2.668   4.540   2.003 -1.3443  1.3470  1.4766
 1769TIP3   OH2 5312   4.622   3.543   3.933 -0.1600  0.2702 -0.2131
 1769TIP3    H1 5313   4.593   3.634   3.926  1.1694  0.8898  1.6335
 1769TIP3    H2 5314   4.699   3.538   3.877 -0.3935  0.1755 -0.5345
 1770TIP3   OH2 5315   0.308   3.550   3.588 -0.4922 -0.0650  0.0808
 1770TIP3    H1 5316   0.362   3.472   3.582 -0.4988 -0.2204  1.7056
 1770TIP3    H2 5317   0.356   3.617   3.539  0.6995 -0.4622  0.6834
 1771TIP3   OH2 5318   0.401   1.247   0.851  0.1239  0.2233 -0.0178
 1771TIP3    H1 5319   0.423   1.156   0.872  1.5354  0.7516  0.9414
 1771TIP3    H2 5320   0.308   1.245   0.827  0.3095 -1.5674 -0.6852
 1772TIP3   OH2 5321   2.652   0.196   4.537 -0.1376  0.0472  0.0067
 1772TIP3    H1 5322   2.562   0.220   4.557 -1.1484  0.6530 -4.2405
 1772TIP3    H2 5323   2.705   0.250   4.596 -2.5385  1.5760  0.9064
 1773TIP3   OH2 5324   0.300   0.868   0.453  0.0320 -0.4179 -0.0742
 1773TIP3    H1 5325   0.246   0.947   0.448  0.2656 -0.2066  0.5823
 1773TIP3    H2 5326   0.258   0.814   0.520  0.5977 -0.2727  0.4048
 1774TIP3   OH2 5327   0.474   1.551   0.435  0.2958  0.2980  0.1160
 1774TIP3    H1 5328   0.403   1.594   0.482 -1.0511 -0.2295 -1.3481
 1774TIP3    H2 5329   0.473   1.460   0.465 -1.2423 -0.3013 -1.5741
 1775TIP3   OH2 5330   1.495   2.906   4.750 -0.1493 -0.4984  0.4635
 1775TIP3    H1 5331   1.469   2.815   4.735  1.9210 -1.0072 -0.3593
 1775TIP3    H2 5332   1.444   2.957   4.688 -0.1023 -1.3071 -0.2547
 1776TIP3   OH2 5333   5.519   0.194   4.213  0.6261  0.2761  0.3010
 1776TIP3    H1 5334   5.596   0.216   4.265  0.8798  0.6356 -0.2088
 1776TIP3    H2 5335   5.445   0.208   4.271  0.5805  4.3536 -0.4379
 1777TIP3   OH2 5336   2.967   2.488   1.172  0.1612 -0.2869  0.1366
 1777TIP3    H1 5337   2.882   2.487   1.128 -0.1095  1.9627  0.5220
 1777TIP3    H2 5338   2.954   2.434   1.251 -1.0599  0.4317  0.4419
 1778TIP3   OH2 5339   4.768   5.827   2.419  0.0916 -0.0648  0.4383
 1778TIP3    H1 5340   4.821   5.895   2.461  0.3597 -0.4786  0.7817
 1778TIP3    H2 5341   4.771   5.848   2.326  0.0111  0.5045  0.5641
 1779TIP3   OH2 5342   1.970   3.868   3.739 -0.4975 -0.2948  0.0491
 1779TIP3    H1 5343   1.981   3.891   3.831 -0.2729  1.3390 -0.3551
 1779TIP3    H2 5344   1.876   3.858   3.727 -0.4737 -1.2755  0.6154
 1780TIP3   OH2 5345   4.259   2.161   4.194  0.1126  0.3261  0.5483
 1780TIP3    H1 5346   4.255   2.107   4.273  0.5659 -0.7651 -0.1598
 1780TIP3    H2 5347   4.167   2.177   4.171 -0.0227  0.7782  1.3632
 1781TIP3   OH2 5348   2.119   1.965   1.933  0.2874 -0.3568  0.3747
 1781TIP3    H1 5349   2.053   2.025   1.968  1.1931 -0.2204  1.9223
 1781TIP3    H2 5350   2.089   1.878   1.959 -0.2388 -0.4628 -0.5545
 1782TIP3   OH2 5351   1.869   3.006   0.609  0.3684  0.0792 -0.1791
 1782TIP3    H1 5352   1.837   2.917   0.595  0.2448 -0.0442  0.8557
 1782TIP3    H2 5353   1.951   2.995   0.656  0.4998  0.5030 -0.3072
 1783TIP3   OH2 5354   4.056   0.713   4.450  0.2048 -0.1266  0.4013
 1783TIP3    H1 5355   4.118   0.784   4.465 -0.2842  0.1232  1.3071
 1783TIP3    H2 5356   4.105   0.634   4.472  1.0933 -0.1937 -1.6481
 1784TIP3   OH2 5357   5.460   1.017   1.697  0.0888 -0.7966 -0.2558
 1784TIP3    H1 5358   5.526   0.956   1.663  0.2527 -0.2727 -0.9070
 1784TIP3    H2 5359   5.422   0.973   1.773  1.5300 -0.9056  0.4268
 1785TIP3   OH2 5360   3.146   1.963   3.826  0.8179 -0.2289  0.7963
 1785TIP3    H1 5361   3.098   2.018   3.888  0.9021  1.5944 -0.6523
 1785TIP3    H2 5362   3.127   2.001   3.741 -0.6602 -3.6571 -0.5909
 1786TIP3   OH2 5363   1.944   1.437   3.376  0.3622  0.0833 -0.0860
 1786TIP3    H1 5364   1.860   1.392   3.366  0.7918 -0.7037 -0.2739
 1786TIP3    H2 5365   1.953   1.490   3.297  0.7622 -1.0704 -0.8362
 1787TIP3   OH2 5366   0.892   3.372   3.024  0.1537 -0.5764  0.2820
 1787TIP3    H1 5367   0.924   3.426   2.951 -1.6745  1.1638  0.7016
 1787TIP3    H2 5368   0.971   3.331   3.059  1.3047 -0.0839 -1.5739
 1788TIP3   OH2 5369   5.116   2.548   4.782  0.0290  0.0619  0.3447
 1788TIP3    H1 5370   5.034   2.535   4.733 -0.2403  1.3794  0.4076
 1788TIP3    H2 5371   5.090   2.602   4.857  1.1069  1.2523 -0.1149
 1789TIP3   OH2 5372   5.088   0.665   1.400  0.1756  0.7402 -0.1608
 1789TIP3    H1 5373   5.146   0.653   1.475 -1.0850 -0.1694  0.7192
 1789TIP3    H2 5374   5.073   0.577   1.368 -0.5746  0.9758 -0.4715
 1790TIP3   OH2 5375   1.763   1.370   1.095  0.0773  0.1605  0.2473
 1790TIP3    H1 5376   1.839   1.428   1.107 -1.5126  2.0525  2.0368
 1790TIP3    H2 5377   1.731   1.392   1.008  1.1684 -0.1647 -0.2538
 1791TIP3   OH2 5378   3.078   4.481   2.762 -0.1983  0.4951  0.4041
 1791TIP3    H1 5379   2.989   4.462   2.734 -0.5318  0.6272  1.3231
 1791TIP3    H2 5380   3.131   4.412   2.722 -0.9565 -0.6102  1.2117
 1792TIP3   OH2 5381   2.701   5.789   1.801  0.1613 -0.1247  0.2087
 1792TIP3    H1 5382   2.640   5.831   1.740 -0.4390 -0.5471  0.5102
 1792TIP3    H2 5383   2.777   5.847   1.802 -1.8038  2.7402  2.9387
 1793TIP3   OH2 5384   0.867   0.795   1.825  0.4877 -0.0226  0.0557
 1793TIP3    H1 5385   0.799   0.736   1.858  0.0701 -0.2334 -1.1196
 1793TIP3    H2 5386   0.826   0.837   1.749  2.1060 -1.1288 -1.4924
 1794TIP3   OH2 5387   1.259   5.031   0.072  0.1868  0.5424 -1.1638
 1794TIP3    H1 5388   1.171   5.064   0.057 -0.0972  0.8207  0.8770
 1794TIP3    H2 5389   1.247   4.947   0.115  0.7742  2.0111  2.2110
 1795TIP3   OH2 5390   0.706   5.050   1.944  0.3876  0.1177  0.0407
 1795TIP3    H1 5391   0.691   5.050   1.850  1.7771  2.9981 -0.2792
 1795TIP3    H2 5392   0.625   5.084   1.982  0.0898 -0.3652 -0.1512
 1796TIP3   OH2 5393   3.526   3.766   3.072 -0.0550  0.0382  0.0111
 1796TIP3    H1 5394   3.586   3.840   3.070  1.7522 -1.3564  0.4743
 1796TIP3    H2 5395   3.491   3.767   3.162 -0.1988  0.4179 -0.0443
 1797TIP3   OH2 5396   1.109   1.474   4.007 -0.4398  0.3901  0.0276
 1797TIP3    H1 5397   1.152   1.479   3.921 -0.6290  0.2784 -0.0737
 1797TIP3    H2 5398   1.151   1.544   4.058  0.5088 -0.2955  0.2230
 1798TIP3   OH2 5399   3.239   4.218   1.411  0.6046 -0.0254 -0.8224
 1798TIP3    H1 5400   3.302   4.199   1.481  1.6670  1.3890 -1.3610
 1798TIP3    H2 5401   3.184   4.287   1.447  0.9347  0.4627 -1.2420
 1799TIP3   OH2 5402   2.884   0.646   5.090  0.1231 -0.7984 -0.2227
 1799TIP3    H1 5403   2.850   0.734   5.108 -2.2286 -1.6517 -0.0690
 1799TIP3    H2 5404   2.955   0.634   5.153  1.5817  1.5208 -1.3036
 1800TIP3   OH2 5405   6.246   3.049   4.638  0.5575  0.1389 -0.2378
 1800TIP3    H1 5406   6.340   3.063   4.625  0.8387 -0.1092  1.2790
 1800TIP3    H2 5407   6.241   2.996   4.718 -0.9093  1.6006  0.7091
 1801TIP3   OH2 5408   0.712   0.092   1.199 -0.0648 -0.4344  0.1188
 1801TIP3    H1 5409   0.767   0.041   1.139 -0.7533 -0.1407 -0.7764
 1801TIP3    H2 5410   0.623   0.077   1.168 -0.4009  0.0453  0.8319
 1802TIP3   OH2 5411   1.177   3.217   3.999 -0.2628  0.1668  0.1948
 1802TIP3    H1 5412   1.264   3.255   4.008 -0.9057  2.0253 -0.9056
 1802TIP3    H2 5413   1.167   3.200   3.905 -0.5550 -1.4341  0.4854
 1803TIP3   OH2 5414   1.453   4.011   1.067  1.0692  0.3871 -0.6892
 1803TIP3    H1 5415   1.468   4.053   1.151  1.4914  0.2395 -0.6887
 1803TIP3    H2 5416   1.358   3.996   1.064  1.1729 -0.6035  0.2474
 1804TIP3   OH2 5417   2.192   2.191   5.116  0.0211 -0.3700 -0.1911
 1804TIP3    H1 5418   2.224   2.105   5.141 -0.1250  0.0722  1.7274
 1804TIP3    H2 5419   2.111   2.175   5.069  0.6603 -1.3111 -0.9928
 1805TIP3   OH2 5420   0.366   5.379   2.770 -0.6944  0.6666 -0.5267
 1805TIP3    H1 5421   0.289   5.323   2.774  0.3257 -0.7010  0.6232
 1805TIP3    H2 5422   0.397   5.370   2.680 -0.3800 -0.8711 -0.2833
 1806TIP3   OH2 5423   3.752   3.652   5.076  0.2988  0.0056  0.0255
 1806TIP3    H1 5424   3.844   3.641   5.053  0.2432 -1.0628  0.2961
 1806TIP3    H2 5425   3.704   3.620   5.000  0.1481  0.3106 -0.0084
 1807TIP3   OH2 5426   1.410   1.925   4.067  0.0323  0.8142 -0.5618
 1807TIP3    H1 5427   1.341   1.950   4.006 -1.8521  0.2601  1.2477
 1807TIP3    H2 5428   1.417   1.999   4.127 -0.1641  0.1971  0.2402
 1808TIP3   OH2 5429   5.622   1.782   4.514  0.6715  0.1703  0.2691
 1808TIP3    H1 5430   5.531   1.804   4.536  0.7036 -0.1577  0.7374
 1808TIP3    H2 5431   5.656   1.739   4.592  1.3704  0.6841  0.2642
 1809TIP3   OH2 5432   2.757   3.206   0.943 -0.2546  0.3379  0.2015
 1809TIP3    H1 5433   2.842   3.247   0.928 -1.4302  2.2586 -1.7854
 1809TIP3    H2 5434   2.712   3.265   1.003 -1.4775  1.4076 -1.6556
 1810TIP3   OH2 5435   0.627   2.629   2.766 -0.3196  0.2119 -0.2981
 1810TIP3    H1 5436   0.545   2.591   2.733 -1.2528  0.9617  1.0513
 1810TIP3    H2 5437   0.618   2.625   2.861  1.0686  0.6486 -0.1367
 1811TIP3   OH2 5438   4.314   3.535   4.461 -0.5722 -0.2456 -0.1709
 1811TIP3    H1 5439   4.343   3.600   4.397  2.7140  0.7127  2.0050
 1811TIP3    H2 5440   4.377   3.463   4.452 -1.7308 -1.3256  0.1539
 1812TIP3   OH2 5441   5.711   1.880   1.602  0.0729 -0.3405 -0.2662
 1812TIP3    H1 5442   5.705   1.784   1.602  0.7543 -0.4493  1.9460
 1812TIP3    H2 5443   5.652   1.907   1.673  0.4292  0.8404 -0.3980
 1813TIP3   OH2 5444   3.094   0.305   1.350  0.2031 -0.0900 -0.2553
 1813TIP3    H1 5445   3.140   0.236   1.397 -0.1594 -0.3308 -0.2590
 1813TIP3    H2 5446   3.158   0.337   1.286  0.2196 -0.7256 -0.5578
 1814TIP3   OH2 5447   1.009   3.999   2.699  0.6508  0.7158  0.1552
 1814TIP3    H1 5448   1.051   3.913   2.690  0.4468  0.7824 -1.6480
 1814TIP3    H2 5449   0.917   3.979   2.716  0.2460  0.5365 -2.0538
 1815TIP3   OH2 5450   0.990   1.291   3.571  0.6360  0.1441 -0.2221
 1815TIP3    H1 5451   0.989   1.207   3.523 -1.9187  0.0879 -0.2150
 1815TIP3    H2 5452   1.011   1.267   3.661 -0.7148 -0.6279 -0.0819
 1816TIP3   OH2 5453   4.604   1.904   0.540  0.3015  0.1149 -0.3804
 1816TIP3    H1 5454   4.616   1.968   0.610 -0.8302  0.9921 -0.9515
 1816TIP3    H2 5455   4.509   1.895   0.531  0.4154  0.0699 -1.8415
 1817TIP3   OH2 5456   3.236   2.457   3.646  0.1150 -0.4983 -0.3535
 1817TIP3    H1 5457   3.273   2.492   3.565  0.9160  0.7221  0.5146
 1817TIP3    H2 5458   3.149   2.497   3.651 -0.8731 -2.3333 -1.7149
 1818TIP3   OH2 5459   3.151   1.669   2.747 -0.0366  0.3873  0.3073
 1818TIP3    H1 5460   3.116   1.750   2.782  2.1515  1.3260  0.4798
 1818TIP3    H2 5461   3.122   1.602   2.808 -0.5526  1.2590  1.0421
 1819TIP3   OH2 5462   4.359   4.251   1.000 -0.3952 -0.0183 -0.0072
 1819TIP3    H1 5463   4.433   4.286   1.050 -0.3293  0.1452 -0.2172
 1819TIP3    H2 5464   4.399   4.192   0.936 -0.5635 -1.0974  0.8552
 1820TIP3   OH2 5465   2.689   0.806   1.242 -0.2267  0.4520 -0.0896
 1820TIP3    H1 5466   2.752   0.734   1.234 -0.4074  0.2333  0.3417
 1820TIP3    H2 5467   2.608   0.770   1.206 -0.1163  0.7150 -0.5975
 1821TIP3   OH2 5468   1.665   2.808   2.267 -0.7422  0.0044  0.3479
 1821TIP3    H1 5469   1.602   2.876   2.289 -1.1619 -0.2201 -0.1358
 1821TIP3    H2 5470   1.685   2.766   2.351 -0.5100  0.6862  0.6402
 1822TIP3   OH2 5471   2.649   1.353   1.000  0.3954  0.6923 -0.4034
 1822TIP3    H1 5472   2.583   1.285   1.016  0.7341  0.3278 -0.5340
 1822TIP3    H2 5473   2.642   1.412   1.075  0.8699 -0.1056  0.2828
 1823TIP3   OH2 5474   5.123   0.388   4.074  0.0608  0.5632  0.2102
 1823TIP3    H1 5475   5.106   0.477   4.104  0.0878  0.4516  0.5624
 1823TIP3    H2 5476   5.145   0.340   4.154 -0.7110  0.0622  0.1244
 1824TIP3   OH2 5477   5.328   1.293   1.709 -0.7691  0.2829  0.0098
 1824TIP3    H1 5478   5.330   1.315   1.615  0.6796 -0.6320 -0.2117
 1824TIP3    H2 5479   5.384   1.216   1.716 -1.9107 -0.4522  1.4573
 1825TIP3   OH2 5480   1.348   4.088   2.948  0.4112  0.2456  0.2769
 1825TIP3    H1 5481   1.257   4.100   2.921  0.0732 -0.8321  0.8880
 1825TIP3    H2 5482   1.352   3.998   2.980  1.7858  0.1581 -0.0786
 1826TIP3   OH2 5483   5.534   5.776   2.112  0.2176  0.4808  0.4417
 1826TIP3    H1 5484   5.584   5.851   2.144 -0.8986  1.0229  0.9461
 1826TIP3    H2 5485   5.477   5.812   2.044  0.1174 -0.0331  0.2417
 1827TIP3   OH2 5486   1.242   2.131   3.772  0.0650 -0.6474  0.3847
 1827TIP3    H1 5487   1.175   2.136   3.841  0.2989 -0.3135  0.5912
 1827TIP3    H2 5488   1.324   2.148   3.817  0.0493  1.4177 -0.2512
 1828TIP3   OH2 5489   2.539   0.820   3.575  0.4799 -0.5981 -0.2430
 1828TIP3    H1 5490   2.536   0.821   3.670 -0.5902 -2.9546 -0.1918
 1828TIP3    H2 5491   2.620   0.772   3.554  0.0298 -1.2661 -0.4806
 1829TIP3   OH2 5492   1.515   5.527   2.098  0.3692  0.6186 -0.5749
 1829TIP3    H1 5493   1.483   5.617   2.100  0.7354  0.8102 -2.1542
 1829TIP3    H2 5494   1.584   5.528   2.032  1.8597 -0.3640  0.8778
 1830TIP3   OH2 5495   1.446   4.734   1.657 -0.4864 -0.4275  0.1731
 1830TIP3    H1 5496   1.408   4.646   1.661  0.4282 -0.8725 -0.6910
 1830TIP3    H2 5497   1.540   4.719   1.656 -0.3224  0.5779  0.0880
 1831TIP3   OH2 5498   6.124   2.087   1.403  0.3148 -0.1946  0.1178
 1831TIP3    H1 5499   6.154   2.004   1.440  1.8927 -0.2431 -1.1407
 1831TIP3    H2 5500   6.042   2.065   1.359 -0.4078 -0.5960  1.5948
 1832TIP3   OH2 5501   6.066   2.907   4.897  0.3693 -0.2513 -0.5002
 1832TIP3    H1 5502   6.046   2.873   4.985 -3.7156  4.6403  0.9237
 1832TIP3    H2 5503   6.148   2.955   4.909 -0.4708  0.9187  0.9700
 1833TIP3   OH2 5504   2.071   3.569   4.122  0.3982  0.0252 -0.1069
 1833TIP3    H1 5505   1.987   3.595   4.161 -0.0515 -0.3461 -0.8205
 1833TIP3    H2 5506   2.050   3.545   4.032  1.0397 -1.4508  0.1129
 1834TIP3   OH2 5507   0.204   4.813   3.766 -0.1733  0.2222 -0.4032
 1834TIP3    H1 5508   0.209   4.890   3.823 -1.0511  0.6442 -0.8619
 1834TIP3    H2 5509   0.273   4.827   3.701 -0.2685  0.5896 -0.4291
 1835TIP3   OH2 5510   6.290   4.265   3.245 -0.1121 -0.3233 -0.1096
 1835TIP3    H1 5511   6.344   4.201   3.290  2.0839  1.6004  0.1726
 1835TIP3    H2 5512   6.259   4.219   3.167 -0.5336 -2.3943  1.1935
 1836TIP3   OH2 5513   1.739   2.018   2.431  0.5283 -0.2154 -0.1466
 1836TIP3    H1 5514   1.813   2.022   2.371  1.1717  1.5471  0.6813
 1836TIP3    H2 5515   1.740   1.930   2.467  1.2650 -0.6937 -1.3053
 1837TIP3   OH2 5516   1.357   1.002   3.034  0.0560  0.0456 -0.3704
 1837TIP3    H1 5517   1.312   0.927   2.995 -0.8464  0.3466  0.0502
 1837TIP3    H2 5518   1.426   0.964   3.088 -0.6928 -0.5078  0.2093
 1838TIP3   OH2 5519   0.454   3.784   2.586 -0.1826 -0.2494  0.1249
 1838TIP3    H1 5520   0.507   3.704   2.588  1.7346  0.9875  1.6663
 1838TIP3    H2 5521   0.458   3.813   2.495  1.9822 -0.1044  0.2246
 1839TIP3   OH2 5522   5.256   2.005   2.320 -0.8604 -0.4654  0.3699
 1839TIP3    H1 5523   5.312   2.065   2.271  1.1246 -2.5717 -0.0982
 1839TIP3    H2 5524   5.191   1.974   2.256  0.0952 -1.2057 -0.2676
 1840TIP3   OH2 5525   0.597   1.234   5.208  0.0213  0.1750  0.7054
 1840TIP3    H1 5526   0.550   1.201   5.132  0.8112  1.9828 -0.6626
 1840TIP3    H2 5527   0.689   1.236   5.181  0.4053  0.2878  1.9382
 1841TIP3   OH2 5528   4.760   2.163   2.519 -0.0110  0.8020 -0.0859
 1841TIP3    H1 5529   4.719   2.244   2.550 -0.4922  0.0238  1.4226
 1841TIP3    H2 5530   4.852   2.172   2.544 -0.2029  0.6032  0.7390
 1842TIP3   OH2 5531   0.758   5.949   4.078 -0.3305  0.2918 -0.2529
 1842TIP3    H1 5532   0.755   5.853   4.075 -1.6898  0.0684  3.2984
 1842TIP3    H2 5533   0.851   5.970   4.076  0.0883 -1.2751  0.7122
 1843TIP3   OH2 5534   0.790   2.227   3.511  0.6279 -0.3916 -0.2864
 1843TIP3    H1 5535   0.845   2.164   3.559  1.1635 -1.6497 -2.4160
 1843TIP3    H2 5536   0.705   2.222   3.553  1.7580  0.8121  2.4251
 1844TIP3   OH2 5537   2.776   0.365   2.080 -0.1017  0.1520 -0.5882
 1844TIP3    H1 5538   2.684   0.390   2.071 -0.2711 -0.1657  0.2036
 1844TIP3    H2 5539   2.797   0.386   2.171 -0.1313 -2.1855  0.0104
 1845TIP3   OH2 5540   1.434   5.038   3.296 -0.0495 -0.0867  0.1003
 1845TIP3    H1 5541   1.439   4.987   3.215  1.5934 -0.3377  0.3335
 1845TIP3    H2 5542   1.416   4.973   3.364 -0.9794  0.0694  0.0274
 1846TIP3   OH2 5543   4.557   1.928   1.342 -0.0317  0.5321  0.2404
 1846TIP3    H1 5544   4.625   1.944   1.408  0.3704 -0.5166  0.1010
 1846TIP3    H2 5545   4.506   2.009   1.340 -0.3941  0.4051  2.2218
 1847TIP3   OH2 5546   5.421   1.483   0.781 -0.1712 -0.5741 -0.3447
 1847TIP3    H1 5547   5.517   1.482   0.782 -0.1609 -0.2777 -0.7430
 1847TIP3    H2 5548   5.398   1.570   0.748 -0.6260  0.5647  2.6728
 1848TIP3   OH2 5549   0.768   5.241   4.405  0.3284  0.1980  0.0105
 1848TIP3    H1 5550   0.808   5.251   4.491  1.1438  1.4564 -0.4843
 1848TIP3    H2 5551   0.745   5.149   4.400 -0.5513  0.2693  1.9153
 1849TIP3   OH2 5552   0.001   1.662  -0.032  0.2448  0.2678  0.9787
 1849TIP3    H1 5553   0.013   1.580   0.016 -1.4530  0.3957  1.6929
 1849TIP3    H2 5554   0.009   1.730   0.035  2.9572  0.8561  0.1882
 1850TIP3   OH2 5555   4.144   4.316   0.649 -0.5881 -0.9085  0.3409
 1850TIP3    H1 5556   4.127   4.393   0.594  2.1020  0.3881  1.2028
 1850TIP3    H2 5557   4.129   4.242   0.590 -0.5583  0.3465 -1.3130
 1851TIP3   OH2 5558   2.148   3.771   3.237 -0.1798 -0.1782  0.1934
 1851TIP3    H1 5559   2.139   3.702   3.303  2.7524 -0.1011  0.8071
 1851TIP3    H2 5560   2.157   3.851   3.288  1.0163  0.0304 -0.3170
 1852TIP3   OH2 5561   2.679   0.132   4.253 -0.0574 -0.1064 -0.2646
 1852TIP3    H1 5562   2.635   0.124   4.337  1.9055  0.6142  0.9068
 1852TIP3    H2 5563   2.756   0.076   4.260  1.7537  2.2129 -0.3715
 1853TIP3   OH2 5564   1.871   5.714   2.151  0.4320  0.7624 -0.9048
 1853TIP3    H1 5565   1.961   5.731   2.124  0.3635  2.1902 -0.3255
 1853TIP3    H2 5566   1.862   5.759   2.235  0.0177 -1.8358  0.5504
 1854TIP3   OH2 5567   4.078   5.739   4.768  0.1931 -0.4108 -0.1254
 1854TIP3    H1 5568   4.026   5.678   4.716 -0.6564 -0.7443  1.0668
 1854TIP3    H2 5569   4.135   5.683   4.821 -0.2878 -0.1750  0.6643
 1855TIP3   OH2 5570   4.149   2.067   1.098 -0.4896 -0.1538  0.2615
 1855TIP3    H1 5571   4.154   1.986   1.148 -1.0323 -0.2001  0.2447
 1855TIP3    H2 5572   4.218   2.059   1.031  0.7641  0.2417  1.4602
 1856TIP3   OH2 5573   0.827   3.644   0.085  0.2265  0.0935  0.0400
 1856TIP3    H1 5574   0.899   3.705   0.067  0.3576  0.7073  2.3550
 1856TIP3    H2 5575   0.790   3.625  -0.001  1.3375  2.0321 -0.9340
 1857TIP3   OH2 5576   4.731   2.002   3.231 -0.6533 -0.1501  0.2115
 1857TIP3    H1 5577   4.695   1.966   3.149 -1.2346 -0.8155  0.7441
 1857TIP3    H2 5578   4.809   2.050   3.204  0.7518 -2.6287 -0.4604
 1858TIP3   OH2 5579   3.153   5.276   2.559  0.0198 -0.3649  0.8779
 1858TIP3    H1 5580   3.107   5.233   2.487  1.3492  1.0621 -0.9104
 1858TIP3    H2 5581   3.094   5.267   2.633 -1.4371 -1.8434 -0.3707
 1859TIP3   OH2 5582   0.861   2.728   1.440  0.5757  0.0432 -0.0022
 1859TIP3    H1 5583   0.773   2.742   1.476  0.3369  1.3865 -1.0362
 1859TIP3    H2 5584   0.919   2.779   1.496  0.2697  1.7022 -1.1181
 1860TIP3   OH2 5585   4.207   2.837   1.823  0.6755 -0.1510 -0.0407
 1860TIP3    H1 5586   4.174   2.818   1.911 -0.3164  0.9458 -0.1461
 1860TIP3    H2 5587   4.182   2.928   1.808  0.9333 -0.2952 -1.4194
 1861TIP3   OH2 5588   4.870   2.983   2.274  0.3053 -0.4167  0.5551
 1861TIP3    H1 5589   4.895   2.907   2.328  0.5976  1.4492  3.2421
 1861TIP3    H2 5590   4.910   3.058   2.318 -3.6449  1.8556  0.7042
 1862TIP3   OH2 5591   3.013   5.658   2.095  0.5598 -0.0291  0.4217
 1862TIP3    H1 5592   3.014   5.740   2.046  1.8072  0.1110  0.6339
 1862TIP3    H2 5593   2.974   5.594   2.036  1.1779  0.3429 -0.4105
 1863TIP3   OH2 5594   4.063   4.024   1.517 -0.5206  0.9230 -0.4800
 1863TIP3    H1 5595   4.030   4.110   1.541  0.4259  1.3815 -0.7753
 1863TIP3    H2 5596   3.989   3.982   1.473 -1.4623  1.0140  0.9351
 1864TIP3   OH2 5597   1.499   4.685   0.216 -0.5968  0.2220  0.1187
 1864TIP3    H1 5598   1.539   4.620   0.274 -2.8542 -0.0107  1.5218
 1864TIP3    H2 5599   1.440   4.635   0.160  0.9913  0.5494 -1.9636
 1865TIP3   OH2 5600   5.519   3.317   1.342 -0.0248  0.0955 -0.3332
 1865TIP3    H1 5601   5.426   3.294   1.341  0.1620 -0.6889 -1.7331
 1865TIP3    H2 5602   5.565   3.233   1.332  0.9297  0.2271  2.2422
 1866TIP3   OH2 5603   2.418   1.614   5.059  0.1680 -0.3819 -0.1947
 1866TIP3    H1 5604   2.414   1.534   5.111  0.6273  1.0235  2.1105
 1866TIP3    H2 5605   2.499   1.657   5.087  0.0427  0.7972 -1.5446
 1867TIP3   OH2 5606   1.414   1.104   3.460 -0.2407 -0.5716  0.2734
 1867TIP3    H1 5607   1.355   1.055   3.402 -0.0751 -1.9135  1.2049
 1867TIP3    H2 5608   1.499   1.100   3.416 -0.7545  1.1882 -0.9683
 1868TIP3   OH2 5609   5.439   1.758   1.013  0.0981  0.2622  0.2913
 1868TIP3    H1 5610   5.438   1.796   1.101  0.6266 -0.2730  0.5380
 1868TIP3    H2 5611   5.358   1.707   1.008  1.9119 -3.1410  2.0663
 1869TIP3   OH2 5612   1.740   5.349   4.375 -0.0869  0.2211 -0.0199
 1869TIP3    H1 5613   1.686   5.327   4.451 -0.0930 -0.6046 -0.2536
 1869TIP3    H2 5614   1.698   5.305   4.302  0.8976 -0.4341 -0.2038
 1870TIP3   OH2 5615   5.344   2.227   2.217  0.4161 -0.2785  0.0852
 1870TIP3    H1 5616   5.436   2.241   2.240  1.3230 -0.9130 -2.7432
 1870TIP3    H2 5617   5.303   2.312   2.230  1.5150  0.1595  0.8455
 1871TIP3   OH2 5618   2.523   5.805   2.363 -0.1433  0.2488  0.2138
 1871TIP3    H1 5619   2.611   5.767   2.364 -0.1638  0.2009  0.1637
 1871TIP3    H2 5620   2.510   5.837   2.452 -0.6941 -1.1314  0.6369
 1872TIP3   OH2 5621   5.094   5.387   2.756  0.0481 -0.1965 -0.0430
 1872TIP3    H1 5622   5.009   5.407   2.718 -0.0901 -0.3460  0.1776
 1872TIP3    H2 5623   5.158   5.409   2.688 -0.2069 -0.6826 -0.4476
 1873TIP3   OH2 5624   0.789   2.121   2.562  0.1349  0.4629 -0.1200
 1873TIP3    H1 5625   0.841   2.181   2.616  0.7315 -0.1735  0.0281
 1873TIP3    H2 5626   0.753   2.176   2.493  0.4029  1.0541  0.2042
 1874TIP3   OH2 5627   2.083   4.514   2.202 -0.7801 -0.5264  0.3977
 1874TIP3    H1 5628   2.136   4.512   2.123 -0.5737  2.1803  0.3947
 1874TIP3    H2 5629   2.145   4.496   2.273 -0.1261  1.0770  0.2606
 1875TIP3   OH2 5630   0.225   5.154   3.148  0.1584  0.3949  0.0178
 1875TIP3    H1 5631   0.270   5.238   3.153  3.2987 -1.1299 -0.5026
 1875TIP3    H2 5632   0.195   5.148   3.057 -0.7153  1.1892  0.2318
 1876TIP3   OH2 5633   2.265   4.094   0.077  0.5499  0.3001 -0.0763
 1876TIP3    H1 5634   2.330   4.024   0.085  1.0689  0.5214 -1.8543
 1876TIP3    H2 5635   2.224   4.099   0.163 -0.3621 -3.0065 -0.2125
 1877TIP3   OH2 5636   5.409   2.495   2.921  0.0391  0.3762  0.2651
 1877TIP3    H1 5637   5.415   2.514   3.015  0.3722 -0.0929  0.3425
 1877TIP3    H2 5638   5.482   2.435   2.904 -0.1374  0.3043 -0.2539
 1878TIP3   OH2 5639   0.483   4.714   0.767  0.4911  0.2132 -0.0693
 1878TIP3    H1 5640   0.451   4.626   0.748 -0.8088  0.4682  0.8173
 1878TIP3    H2 5641   0.567   4.700   0.811  0.5343 -0.5564 -0.3754
 1879TIP3   OH2 5642   4.968   2.719   1.998 -0.1178  0.7095 -0.1944
 1879TIP3    H1 5643   5.052   2.752   2.029 -0.1967 -0.9997  2.1516
 1879TIP3    H2 5644   4.905   2.786   2.023  0.3511  1.2487 -0.4472
 1880TIP3   OH2 5645   0.574   5.496   2.897 -0.0495  0.0774 -0.0491
 1880TIP3    H1 5646   0.510   5.455   2.839  0.0489 -0.5035  0.2400
 1880TIP3    H2 5647   0.573   5.588   2.873  0.1596 -0.1903 -1.1344
 1881TIP3   OH2 5648   1.139   1.988   4.878 -0.3323 -0.2355 -0.1911
 1881TIP3    H1 5649   1.229   1.964   4.898 -0.2078  1.0081  0.8134
 1881TIP3    H2 5650   1.143   2.080   4.852 -1.1987 -0.4206 -1.0566
 1882TIP3   OH2 5651   5.141   4.201   3.499  0.4906 -0.0105  0.0068
 1882TIP3    H1 5652   5.237   4.192   3.502  0.3277 -1.9955  1.2444
 1882TIP3    H2 5653   5.112   4.132   3.441 -0.2789 -0.6893  1.1519
 1883TIP3   OH2 5654   4.261   0.353   1.407  0.2304  0.1182 -0.4236
 1883TIP3    H1 5655   4.227   0.388   1.489  3.0533 -0.0413  0.8901
 1883TIP3    H2 5656   4.234   0.261   1.407  0.0726  0.1613  0.2202
 1884TIP3   OH2 5657   3.214   3.340   3.171 -0.5365 -0.1909 -0.6640
 1884TIP3    H1 5658   3.142   3.402   3.172 -0.3289  0.0694  0.8551
 1884TIP3    H2 5659   3.187   3.272   3.110 -1.5346  0.5002 -1.0151
 1885TIP3   OH2 5660   4.868   0.178   3.085  0.3417 -0.2880 -0.1192
 1885TIP3    H1 5661   4.872   0.258   3.033 -0.6905  0.3347  0.7248
 1885TIP3    H2 5662   4.776   0.168   3.107  0.8301 -0.0147  2.3565
 1886TIP3   OH2 5663   1.408   4.853   1.249  0.6290 -0.0160 -0.1996
 1886TIP3    H1 5664   1.320   4.816   1.245  0.4063 -0.0185  2.6477
 1886TIP3    H2 5665   1.465   4.778   1.265  0.8233  0.2579  0.4179
 1887TIP3   OH2 5666   5.212   2.439   3.366 -0.0372 -0.2651 -0.4430
 1887TIP3    H1 5667   5.117   2.451   3.376 -0.2981 -1.9934 -0.4466
 1887TIP3    H2 5668   5.220   2.351   3.329  1.5307  0.3786 -1.7340
 1888TIP3   OH2 5669   4.100   0.096   4.161 -0.2317  0.2001 -0.0142
 1888TIP3    H1 5670   4.137   0.167   4.213  2.2161 -1.4095  0.5947
 1888TIP3    H2 5671   4.085   0.135   4.075  1.4427  1.3811  0.1798
 1889TIP3   OH2 5672   5.030   3.586   1.922  0.2072 -0.9117  0.4532
 1889TIP3    H1 5673   4.988   3.568   1.838  1.2185  1.1040 -0.5524
 1889TIP3    H2 5674   5.121   3.557   1.910  0.3258 -0.7238  0.8925
 1890TIP3   OH2 5675   5.302   1.876   1.599 -0.1113  0.2325  0.6813
 1890TIP3    H1 5676   5.260   1.958   1.571 -2.0151 -0.2963  1.7904
 1890TIP3    H2 5677   5.392   1.901   1.620 -0.0438  1.5867 -1.0727
 1891TIP3   OH2 5678   1.623   3.137   1.554 -0.4988 -0.1572 -0.9670
 1891TIP3    H1 5679   1.644   3.159   1.644 -0.1869 -0.8139 -0.8706
 1891TIP3    H2 5680   1.619   3.221   1.508 -1.0610  0.2081 -0.2655
 1892TIP3   OH2 5681   4.103   0.362   4.297  0.3996 -0.0756 -0.4923
 1892TIP3    H1 5682   4.033   0.346   4.234 -0.2585 -0.5040  0.3242
 1892TIP3    H2 5683   4.059   0.398   4.374  1.0194 -0.6891  0.1675
 1893TIP3   OH2 5684   0.220   3.501   0.170 -0.1323  0.4153 -0.2663
 1893TIP3    H1 5685   0.191   3.588   0.145 -1.3829  0.1892  0.3402
 1893TIP3    H2 5686   0.168   3.441   0.117 -0.3905  0.0083  0.4248
 1894TIP3   OH2 5687   1.526   5.347   2.405 -0.1366  0.5769  0.2850
 1894TIP3    H1 5688   1.562   5.300   2.480 -1.9505 -1.0967  0.2015
 1894TIP3    H2 5689   1.541   5.287   2.331 -1.2114  0.7553 -0.0967
 1895TIP3   OH2 5690   0.236   5.618   3.592 -0.2535 -0.3310 -0.4234
 1895TIP3    H1 5691   0.157   5.580   3.630 -0.5416 -0.1234 -0.8107
 1895TIP3    H2 5692   0.307   5.589   3.650 -0.7217  0.2350  0.4464
 1896TIP3   OH2 5693   4.334   3.945   1.481 -0.5158 -0.1760  0.0816
 1896TIP3    H1 5694   4.244   3.977   1.483 -0.2180  0.6716  0.1550
 1896TIP3    H2 5695   4.326   3.853   1.456 -1.2526  0.4612 -2.1852
 1897TIP3   OH2 5696   3.820   4.195   0.389  0.0445  0.3993  0.4821
 1897TIP3    H1 5697   3.906   4.211   0.349  0.3432  0.6643  1.2107
 1897TIP3    H2 5698   3.838   4.186   0.482 -0.5277 -1.0527  0.4903
 1898TIP3   OH2 5699   0.180   3.745   4.286  0.0139 -0.1401 -0.2092
 1898TIP3    H1 5700   0.158   3.834   4.314  0.3271 -0.6351  1.7289
 1898TIP3    H2 5701   0.110   3.690   4.321 -0.7443 -0.5930 -2.2786
 1899TIP3   OH2 5702   0.759   4.192   5.051 -0.7129  0.1101  0.0171
 1899TIP3    H1 5703   0.842   4.143   5.052 -0.5213  0.2588 -2.5888
 1899TIP3    H2 5704   0.692   4.126   5.067 -0.3347 -0.7587 -1.7863
 1900TIP3   OH2 5705   0.364   0.384   0.802  0.7707 -0.4659 -0.3640
 1900TIP3    H1 5706   0.287   0.422   0.844  0.8990 -0.1390 -0.4175
 1900TIP3    H2 5707   0.415   0.347   0.874  1.3374  0.7182 -0.1380
 1901TIP3   OH2 5708   2.974   5.614   4.584  0.0819  0.1296 -0.4149
 1901TIP3    H1 5709   3.023   5.586   4.507  0.5021  0.3865 -0.2443
 1901TIP3    H2 5710   2.905   5.548   4.594 -0.1279  0.2272 -1.1529
 1902TIP3   OH2 5711   4.203   2.321   3.325  0.5304  0.2829  0.1834
 1902TIP3    H1 5712   4.190   2.415   3.333  0.1405  0.5121 -2.3143
 1902TIP3    H2 5713   4.135   2.281   3.380 -1.8243  1.4895 -1.6832
 1903TIP3   OH2 5714   4.978   4.055   2.779  0.4999 -0.0803  0.1227
 1903TIP3    H1 5715   4.971   4.108   2.700  0.2615  0.2646  0.3692
 1903TIP3    H2 5716   5.057   4.087   2.823  0.7352 -0.3992 -0.0688
 1904TIP3   OH2 5717   2.104   1.078   5.129  0.3293 -0.1392  0.3504
 1904TIP3    H1 5718   2.031   1.076   5.190  1.0858  1.0384  1.3223
 1904TIP3    H2 5719   2.068   1.118   5.050 -1.0247 -2.8902 -0.5698
 1905TIP3   OH2 5720   0.349   4.482   4.661 -0.0355 -0.4414  0.0863
 1905TIP3    H1 5721   0.394   4.398   4.667 -1.3348 -1.0721  2.3670
 1905TIP3    H2 5722   0.417   4.545   4.636  1.7435 -1.6172  1.6788
 1906TIP3   OH2 5723   4.270   3.015   1.486  0.3678 -0.5183 -0.7161
 1906TIP3    H1 5724   4.343   3.077   1.484 -0.1113  0.1001  0.5285
 1906TIP3    H2 5725   4.207   3.051   1.424  0.5026 -0.2899 -0.7223
 1907TIP3   OH2 5726   4.626   3.311   2.922 -0.1153 -0.4178 -0.4269
 1907TIP3    H1 5727   4.623   3.330   2.828 -0.3302  0.2303 -0.2973
 1907TIP3    H2 5728   4.547   3.352   2.957 -0.0167 -0.6239  0.0411
 1908TIP3   OH2 5729   4.362   0.623   4.872 -0.2960  0.7604  0.0639
 1908TIP3    H1 5730   4.327   0.650   4.787 -1.7247  0.3846  0.5035
 1908TIP3    H2 5731   4.406   0.540   4.854  0.5279  1.3100 -0.5316
 1909TIP3   OH2 5732   5.708   3.090   1.274 -0.4206 -0.2488 -0.2330
 1909TIP3    H1 5733   5.771   3.050   1.334  0.7432 -1.5928 -2.2371
 1909TIP3    H2 5734   5.762   3.128   1.204 -1.7110  1.4835 -0.3698
 1910TIP3   OH2 5735   1.011   2.365   4.734  0.1234  0.2738 -0.3552
 1910TIP3    H1 5736   0.956   2.328   4.803 -2.6779 -0.8407 -2.9500
 1910TIP3    H2 5737   1.001   2.460   4.744 -1.7983  0.1071 -0.3081
 1911TIP3   OH2 5738   3.253   3.939   0.084 -0.6961  0.0304 -0.2578
 1911TIP3    H1 5739   3.287   3.978   0.003  0.3029  2.6026  1.2913
 1911TIP3    H2 5740   3.329   3.936   0.142 -1.7968  0.0372  1.2292
 1912TIP3   OH2 5741   5.875   3.890   0.371  0.0096  0.1208 -0.2106
 1912TIP3    H1 5742   5.939   3.943   0.417 -0.7951  0.7142  0.2471
 1912TIP3    H2 5743   5.908   3.800   0.378  0.0114  0.2202  1.3594
 1913TIP3   OH2 5744   2.544   4.032   2.309 -0.0137  0.7053  0.4637
 1913TIP3    H1 5745   2.614   4.094   2.289  1.0123 -0.1861  1.1196
 1913TIP3    H2 5746   2.549   4.021   2.404 -1.2742  0.8779  0.5537
 1914TIP3   OH2 5747   5.443   5.946   1.911 -0.2263 -0.2713 -0.1606
 1914TIP3    H1 5748   5.410   6.008   1.976  1.7448 -0.2900  0.9200
 1914TIP3    H2 5749   5.454   5.998   1.831 -2.6347 -0.2446 -0.5410
 1915TIP3   OH2 5750   3.930   3.479   1.921  0.2517  0.0229  0.0445
 1915TIP3    H1 5751   3.880   3.510   1.996  0.7904  0.0664  0.3932
 1915TIP3    H2 5752   3.976   3.401   1.954  0.0218 -0.3100 -0.4128
 1916TIP3   OH2 5753   6.065   3.195   2.988  0.5089 -0.3894  0.1567
 1916TIP3    H1 5754   6.088   3.276   2.943 -2.0830  1.3058  1.6514
 1916TIP3    H2 5755   5.991   3.160   2.938  0.4228 -0.8444  0.5869
 1917TIP3   OH2 5756   2.434   3.157   0.275 -0.2218  0.0838 -0.6732
 1917TIP3    H1 5757   2.357   3.116   0.235 -0.0449 -1.0382  0.0898
 1917TIP3    H2 5758   2.507   3.128   0.222  0.4101 -3.8309  1.9311
 1918TIP3   OH2 5759   0.229   1.676   0.521  0.1412 -1.0414 -0.7930
 1918TIP3    H1 5760   0.167   1.621   0.569 -0.6917 -0.7337 -1.4917
 1918TIP3    H2 5761   0.234   1.756   0.573  2.1868 -2.1241  0.8150
 1919TIP3   OH2 5762   1.498   2.000   1.441  0.8141  0.0394 -0.6171
 1919TIP3    H1 5763   1.478   1.909   1.461 -0.4264  0.2824 -0.6569
 1919TIP3    H2 5764   1.571   2.022   1.499 -0.4425 -0.2812  1.1856
 1920TIP3   OH2 5765   0.080   4.972   2.415  0.8989 -0.4769 -0.1896
 1920TIP3    H1 5766   0.130   5.035   2.363 -1.8224  1.1990 -0.9842
 1920TIP3    H2 5767   0.087   4.890   2.366  2.7865 -0.3290 -0.2530
 1921TIP3   OH2 5768   2.326   0.140   0.157  0.1986 -0.6153  0.3278
 1921TIP3    H1 5769   2.262   0.149   0.228 -0.8685 -0.2471 -0.6451
 1921TIP3    H2 5770   2.291   0.070   0.101 -0.1258  0.5374 -0.9748
 1922TIP3   OH2 5771   6.135   0.494   1.770 -0.2150 -0.2690  0.0466
 1922TIP3    H1 5772   6.142   0.407   1.730  1.0007  0.9372 -2.6016
 1922TIP3    H2 5773   6.114   0.477   1.862  1.4195 -3.4034 -0.0415
 1923TIP3   OH2 5774   4.973   3.218   2.401 -0.0964  0.1718  0.7533
 1923TIP3    H1 5775   4.993   3.224   2.495 -0.8968 -1.5053  1.0538
 1923TIP3    H2 5776   5.031   3.283   2.361  0.5639  0.6300  2.3549
 1924TIP3   OH2 5777   2.536   4.560   1.117  0.6333  0.1430  0.1281
 1924TIP3    H1 5778   2.576   4.502   1.052  1.8079  0.6107  0.4085
 1924TIP3    H2 5779   2.608   4.612   1.150 -0.2386  1.0878  0.5993
 1925TIP3   OH2 5780   6.230   0.049   4.264 -0.0329 -0.1127 -0.3461
 1925TIP3    H1 5781   6.276   0.049   4.348  1.3328  0.3602 -1.0667
 1925TIP3    H2 5782   6.220   0.142   4.242 -1.1309 -0.2140 -0.3214
 1926TIP3   OH2 5783   2.163   3.650   0.611 -0.4296  0.0061  0.1613
 1926TIP3    H1 5784   2.257   3.660   0.624 -0.3946  0.3529 -0.3442
 1926TIP3    H2 5785   2.136   3.587   0.678  0.2955 -0.7419 -0.2445
 1927TIP3   OH2 5786   5.709   1.662   4.753  0.2919  0.5386  0.5118
 1927TIP3    H1 5787   5.797   1.701   4.756  0.1850  0.7298  1.8438
 1927TIP3    H2 5788   5.677   1.668   4.843 -1.9545  2.4511 -0.2918
 1928TIP3   OH2 5789   0.688   5.729   1.743  0.1791  0.3254 -0.4464
 1928TIP3    H1 5790   0.650   5.746   1.657  0.1695  0.2120 -0.4657
 1928TIP3    H2 5791   0.612   5.725   1.802  0.1301 -0.1980 -0.5341
 1929TIP3   OH2 5792   1.196   5.420   3.797  0.4467 -0.2450  0.2340
 1929TIP3    H1 5793   1.174   5.340   3.845 -2.1310  1.1871  1.6259
 1929TIP3    H2 5794   1.237   5.477   3.862 -1.7466  1.1652  0.4501
 1930TIP3   OH2 5795   4.072   3.945   3.149 -0.6879  0.1089 -0.6326
 1930TIP3    H1 5796   4.118   4.005   3.208  0.0178  0.0928 -1.1457
 1930TIP3    H2 5797   4.061   3.994   3.068 -1.5773  0.1020 -0.5219
 1931TIP3   OH2 5798   3.371   2.497   3.390  0.1934 -0.4151  0.3212
 1931TIP3    H1 5799   3.401   2.547   3.314  0.1249  1.6005  1.5559
 1931TIP3    H2 5800   3.450   2.485   3.443 -0.0334 -0.5429  0.6317
 1932TIP3   OH2 5801   0.193   2.794   0.941 -0.2191 -0.0596 -0.1436
 1932TIP3    H1 5802   0.283   2.771   0.918  0.6110  2.4177  0.3304
 1932TIP3    H2 5803   0.164   2.849   0.868 -1.4108 -0.8913 -0.3195
 1933TIP3   OH2 5804   3.383   3.126   0.794 -0.1088  0.0054  0.3616
 1933TIP3    H1 5805   3.467   3.081   0.805 -0.2257 -0.2772  0.0968
 1933TIP3    H2 5806   3.395   3.179   0.715 -0.2607 -0.2221  0.1847
 1934TIP3   OH2 5807   5.388   2.209   1.519 -0.0599  0.0151  0.1466
 1934TIP3    H1 5808   5.381   2.277   1.586  0.7588  1.4167 -1.1277
 1934TIP3    H2 5809   5.299   2.179   1.506 -0.3166  0.1741  1.3747
 1935TIP3   OH2 5810   6.202   1.909   2.670  0.5643  0.1859 -0.2257
 1935TIP3    H1 5811   6.263   1.969   2.713  1.1011 -0.0026 -0.7005
 1935TIP3    H2 5812   6.127   1.964   2.646  0.1953  0.2595  1.0523
 1936TIP3   OH2 5813   5.274   3.958   4.194  0.1956 -0.2663 -0.4009
 1936TIP3    H1 5814   5.368   3.976   4.188  0.0236  0.7964 -0.1371
 1936TIP3    H2 5815   5.245   3.952   4.103  0.7302 -1.8583 -0.4873
 1937TIP3   OH2 5816   5.761   1.273   3.667  0.4142  0.7513 -0.4196
 1937TIP3    H1 5817   5.673   1.235   3.665  0.9674 -0.5529 -0.7379
 1937TIP3    H2 5818   5.750   1.361   3.631 -0.3430 -0.3075 -3.0463
 1938TIP3   OH2 5819   5.752   3.325   2.658 -0.2906 -0.0665  0.1210
 1938TIP3    H1 5820   5.658   3.342   2.666 -0.1572  1.1119 -0.6694
 1938TIP3    H2 5821   5.761   3.283   2.573 -0.0170  0.4590 -0.1083
 1939TIP3   OH2 5822   3.842   3.477   4.574 -0.1036 -0.3486 -0.1579
 1939TIP3    H1 5823   3.919   3.434   4.610 -0.0254  0.1832  0.3180
 1939TIP3    H2 5824   3.869   3.567   4.557  0.0966 -0.7749 -2.3244
 1940TIP3   OH2 5825   1.030   4.192   4.865 -0.0292 -0.7658  0.0037
 1940TIP3    H1 5826   1.060   4.185   4.956  0.3944  0.5861 -0.0086
 1940TIP3    H2 5827   0.959   4.127   4.858  0.3703 -1.3478  1.1008
 1941TIP3   OH2 5828   3.977   3.434   0.859 -0.0197 -0.2277 -0.2621
 1941TIP3    H1 5829   4.011   3.455   0.772 -1.2004  2.2746 -0.2042
 1941TIP3    H2 5830   3.897   3.487   0.866 -0.3535 -0.9630  2.0581
 1942TIP3   OH2 5831   2.073   4.325   1.758  0.1062  0.1448 -0.8895
 1942TIP3    H1 5832   2.057   4.405   1.808  0.2357  0.7201 -1.7379
 1942TIP3    H2 5833   2.012   4.260   1.794  0.7662  0.3035  0.5438
 1943TIP3   OH2 5834   4.913   5.526   3.160  0.2692 -0.6535  0.1075
 1943TIP3    H1 5835   4.892   5.577   3.081 -0.1036 -1.1556 -0.1228
 1943TIP3    H2 5836   4.911   5.435   3.131 -0.8216 -0.9021  0.8942
 1944TIP3   OH2 5837   0.943   3.888   2.105  0.2852  0.1447 -0.6639
 1944TIP3    H1 5838   0.931   3.914   2.196  0.3337  0.7044 -0.8157
 1944TIP3    H2 5839   0.854   3.888   2.069  0.3207  0.4104 -0.7489
 1945TIP3   OH2 5840   5.838   5.629   1.921  0.0181  0.1177 -0.1203
 1945TIP3    H1 5841   5.919   5.642   1.872  0.3077  0.8794  0.5370
 1945TIP3    H2 5842   5.853   5.673   2.004 -0.6713 -0.6778  0.4461
 1946TIP3   OH2 5843   4.588   5.812   3.183  0.3252  0.3089 -0.2697
 1946TIP3    H1 5844   4.502   5.823   3.222 -1.1422 -1.7892 -2.5863
 1946TIP3    H2 5845   4.635   5.753   3.242 -0.8654 -0.7028 -0.2981
 1947TIP3   OH2 5846   5.025   1.311   5.150  0.4390 -0.0437 -0.0594
 1947TIP3    H1 5847   5.016   1.250   5.077  0.7271  0.6919 -0.7314
 1947TIP3    H2 5848   4.964   1.383   5.128  1.1744  0.5998 -0.0312
 1948TIP3   OH2 5849   0.393   5.289   1.875 -0.2354  0.0262  0.2392
 1948TIP3    H1 5850   0.356   5.367   1.916  0.4455  0.4782  0.0171
 1948TIP3    H2 5851   0.408   5.314   1.784  0.0080 -0.3581  0.1687
 1949TIP3   OH2 5852   1.965   4.556   1.051  0.1001  0.6272  0.4069
 1949TIP3    H1 5853   1.947   4.640   1.009  1.0747  0.4338 -0.4414
 1949TIP3    H2 5854   2.049   4.569   1.095  1.7637 -0.6654 -2.1025
 1950TIP3   OH2 5855   2.061   0.711   3.716 -0.2706  0.0044  0.3485
 1950TIP3    H1 5856   2.134   0.686   3.773 -1.2873  0.9183  2.1620
 1950TIP3    H2 5857   1.989   0.655   3.745 -0.2638 -1.0911 -1.6115
 1951TIP3   OH2 5858   6.123   0.840   2.564  0.2617 -0.1663 -0.3116
 1951TIP3    H1 5859   6.175   0.800   2.495  0.1617  0.4188 -0.7368
 1951TIP3    H2 5860   6.142   0.934   2.557 -0.8793  0.0651 -0.5161
 1952TIP3   OH2 5861   6.282   5.794   4.778 -0.5017  0.2899 -0.0430
 1952TIP3    H1 5862   6.253   5.790   4.687 -0.2165 -0.8984 -0.1050
 1952TIP3    H2 5863   6.222   5.734   4.824 -2.0397  2.4762  0.9854
 1953TIP3   OH2 5864   4.127   4.557   1.695 -0.2808  0.1482 -0.1185
 1953TIP3    H1 5865   4.198   4.580   1.755 -1.3398 -0.8513  1.5980
 1953TIP3    H2 5866   4.049   4.597   1.733 -0.8770  0.0327 -1.1854
 1954TIP3   OH2 5867   3.235   0.575   1.939 -0.0764 -0.6111  0.3962
 1954TIP3    H1 5868   3.176   0.565   2.014  0.8520 -1.2097  1.0622
 1954TIP3    H2 5869   3.203   0.512   1.874 -1.1377  0.2010  0.0988
 1955TIP3   OH2 5870   0.822   3.594   1.843  0.6524  0.1676  0.5020
 1955TIP3    H1 5871   0.760   3.558   1.907 -0.0327 -0.6810 -0.6037
 1955TIP3    H2 5872   0.780   3.675   1.814 -0.6151 -1.0266 -1.1684
 1956TIP3   OH2 5873   2.277   3.503   0.204  0.1856 -0.0069  0.6238
 1956TIP3    H1 5874   2.276   3.431   0.141  0.6278  1.7377 -1.5107
 1956TIP3    H2 5875   2.186   3.512   0.232 -0.1753 -0.2802 -0.4303
 1957TIP3   OH2 5876   6.232   4.265   0.182 -0.2493 -0.2085  0.2259
 1957TIP3    H1 5877   6.202   4.176   0.197 -0.1547 -0.4363 -0.8143
 1957TIP3    H2 5878   6.226   4.276   0.087  0.8583  0.4938  0.2260
 1958TIP3   OH2 5879   2.340   1.270   5.068  0.0389 -0.2956 -0.0396
 1958TIP3    H1 5880   2.358   1.283   5.161 -2.2259  0.9573  0.2949
 1958TIP3    H2 5881   2.269   1.205   5.065 -0.2829  0.0724 -0.8490
 1959TIP3   OH2 5882   2.952   5.889   4.604  0.1103 -0.4619  0.5977
 1959TIP3    H1 5883   2.976   5.796   4.609 -0.0514 -0.5669 -0.2544
 1959TIP3    H2 5884   2.860   5.891   4.628  0.2435 -0.4507  1.1104
 1960TIP3   OH2 5885   6.072   1.390   1.958  0.0362  0.7956  0.1202
 1960TIP3    H1 5886   6.139   1.342   1.910  0.4998  0.4152  1.0998
 1960TIP3    H2 5887   6.101   1.385   2.050 -1.2725  0.7105  0.5566
 1961TIP3   OH2 5888   3.002   1.899   4.106  0.2697 -0.2209  0.1150
 1961TIP3    H1 5889   2.950   1.963   4.057  1.4283 -0.3766 -1.4068
 1961TIP3    H2 5890   2.941   1.863   4.171 -0.9697  0.9506 -0.3487
 1962TIP3   OH2 5891   3.780   3.195   0.612 -0.3790 -0.3607  0.0060
 1962TIP3    H1 5892   3.723   3.262   0.649 -0.5225 -1.1398  1.2290
 1962TIP3    H2 5893   3.816   3.236   0.533  0.9536  1.8670  1.6611
 1963TIP3   OH2 5894   4.421   1.686   3.427  0.1607  0.2322  0.5280
 1963TIP3    H1 5895   4.508   1.724   3.438 -0.4656  1.5786  1.1108
 1963TIP3    H2 5896   4.364   1.740   3.482 -1.0895 -0.4559 -0.0423
 1964TIP3   OH2 5897   4.299   2.978   0.077  0.4175  0.3381 -0.2021
 1964TIP3    H1 5898   4.385   2.955   0.042  0.4817 -2.0992  1.2836
 1964TIP3    H2 5899   4.238   2.925   0.026 -0.1125  1.1361 -0.4216
 1965TIP3   OH2 5900   4.384   5.750   2.330 -0.3237 -0.3777 -0.1596
 1965TIP3    H1 5901   4.412   5.696   2.256  0.3204 -0.9602  0.4845
 1965TIP3    H2 5902   4.308   5.705   2.366 -0.6489 -0.0840 -0.4675
 1966TIP3   OH2 5903   1.695   0.145   0.569 -0.2314 -0.4194  0.2403
 1966TIP3    H1 5904   1.685   0.210   0.637 -0.7885 -0.1206 -0.1235
 1966TIP3    H2 5905   1.639   0.175   0.497 -0.5351 -1.3090  0.0810
 1967TIP3   OH2 5906   3.234   4.639   2.424 -0.1762 -0.2323  0.6305
 1967TIP3    H1 5907   3.263   4.549   2.440 -0.6468 -0.7773 -1.2793
 1967TIP3    H2 5908   3.303   4.693   2.462 -0.3232 -1.3403  2.6312
 1968TIP3   OH2 5909   2.829   4.192   5.089  0.2641  0.1746 -0.6004
 1968TIP3    H1 5910   2.775   4.124   5.129  2.8148 -2.9710 -2.0406
 1968TIP3    H2 5911   2.779   4.220   5.012  0.2066 -1.9730 -1.4000
 1969TIP3   OH2 5912   3.795   3.512   1.113 -0.0112  0.4736 -0.0239
 1969TIP3    H1 5913   3.801   3.603   1.141  0.0663  0.7923 -1.0306
 1969TIP3    H2 5914   3.715   3.508   1.060  0.7449  0.3034 -1.1850
 1970TIP3   OH2 5915   2.934   2.245   1.328 -0.2393  0.1294 -0.6387
 1970TIP3    H1 5916   2.852   2.199   1.313 -1.5835  2.6236 -1.4757
 1970TIP3    H2 5917   2.959   2.222   1.418 -2.0429 -0.4050 -0.2402
 1971TIP3   OH2 5918   3.667   4.981   0.926  0.2232  0.7766 -0.2924
 1971TIP3    H1 5919   3.618   4.998   0.845  1.2476 -0.6349 -1.2695
 1971TIP3    H2 5920   3.733   4.917   0.900  0.5024  0.1907  1.7137
 1972TIP3   OH2 5921   4.966   3.604   2.302 -0.3976 -0.2781 -0.0140
 1972TIP3    H1 5922   5.000   3.608   2.392 -2.0883 -0.2718  0.6674
 1972TIP3    H2 5923   4.871   3.615   2.312 -0.7413 -1.3632 -1.7237
 1973TIP3   OH2 5924   1.761   1.652   0.512 -0.5475 -0.7028  0.4002
 1973TIP3    H1 5925   1.820   1.649   0.588  1.7010 -1.3477 -1.2544
 1973TIP3    H2 5926   1.724   1.564   0.507 -2.1719 -0.1403  1.7701
 1974TIP3   OH2 5927   2.419   4.791   1.473  0.1069 -0.0027  0.0371
 1974TIP3    H1 5928   2.329   4.769   1.448  0.5764 -1.7502 -0.2241
 1974TIP3    H2 5929   2.410   4.834   1.558 -0.9909  0.1980 -0.1630
 1975TIP3   OH2 5930   6.073   3.491   0.836  0.3794  0.3962 -0.0051
 1975TIP3    H1 5931   6.147   3.498   0.775  0.7077 -1.0108  0.1800
 1975TIP3    H2 5932   5.997   3.517   0.785  0.2838 -2.9231 -1.8375
 1976TIP3   OH2 5933   4.007   3.152   3.105 -0.0502  0.0014 -0.2897
 1976TIP3    H1 5934   3.980   3.066   3.074  0.8165 -0.8153  1.0924
 1976TIP3    H2 5935   3.929   3.188   3.147 -0.8318  0.5456 -2.0977
 1977TIP3   OH2 5936   1.205   0.407   1.078  0.5865 -0.2136  0.3290
 1977TIP3    H1 5937   1.286   0.414   1.027  0.1734  0.2303 -0.2704
 1977TIP3    H2 5938   1.159   0.489   1.062 -0.7749 -1.1317 -0.6920
 1978TIP3   OH2 5939   5.859   5.982   2.977  0.2117  0.0183 -0.6020
 1978TIP3    H1 5940   5.898   6.008   2.894  1.5479  0.7607  0.2205
 1978TIP3    H2 5941   5.933   5.952   3.030 -0.9114 -3.2022 -0.6104
 1979TIP3   OH2 5942   4.273   4.182   4.271 -0.0755  0.1386  0.5005
 1979TIP3    H1 5943   4.202   4.198   4.333 -1.2118 -2.9719  0.2112
 1979TIP3    H2 5944   4.258   4.244   4.200 -1.3218  0.8713  1.3733
 1980TIP3   OH2 5945   3.566   1.780   0.439 -0.0019  0.4928  0.0978
 1980TIP3    H1 5946   3.615   1.853   0.475  0.7100  1.1097 -1.9637
 1980TIP3    H2 5947   3.488   1.820   0.399  0.8330  0.3174 -1.8359
 1981TIP3   OH2 5948   3.163   2.147   2.857  0.4441 -0.1423 -0.6492
 1981TIP3    H1 5949   3.090   2.099   2.894 -1.4229  1.2608 -2.2909
 1981TIP3    H2 5950   3.153   2.236   2.891  2.3140 -0.2464  0.3002
 1982TIP3   OH2 5951   3.424   5.650   1.669  0.1182 -0.0722  0.2407
 1982TIP3    H1 5952   3.447   5.585   1.603 -2.1733 -0.2372 -0.4873
 1982TIP3    H2 5953   3.340   5.685   1.640  0.4138  1.9241  1.5865
 1983TIP3   OH2 5954   5.155   4.779   1.892 -0.9127 -0.1176 -0.2285
 1983TIP3    H1 5955   5.144   4.874   1.890 -0.6386 -0.0941 -1.1843
 1983TIP3    H2 5956   5.225   4.761   1.829  1.1690 -0.7007  2.1007
 1984TIP3   OH2 5957   2.449   1.064   2.613  0.4611 -0.5049  0.2294
 1984TIP3    H1 5958   2.378   1.120   2.643  0.4815 -0.8924  1.0509
 1984TIP3    H2 5959   2.419   0.975   2.636  1.5717 -0.6032  1.3860
 1985TIP3   OH2 5960   0.136   3.808   1.401  0.0357  0.2169  0.2609
 1985TIP3    H1 5961   0.166   3.718   1.412  0.3067  0.3454  0.5868
 1985TIP3    H2 5962   0.113   3.815   1.309  0.6306  0.0020  0.0925
 1986TIP3   OH2 5963   1.231   3.590   0.466  0.3403  1.0830 -0.2435
 1986TIP3    H1 5964   1.179   3.519   0.505  1.9576  1.1030  2.1933
 1986TIP3    H2 5965   1.292   3.545   0.407 -0.0932  0.6841 -0.3940
 1987TIP3   OH2 5966   4.189   2.882   4.381  0.8471  0.7623  0.0981
 1987TIP3    H1 5967   4.145   2.835   4.309  0.7056 -0.4550  0.9461
 1987TIP3    H2 5968   4.280   2.850   4.378  0.7777  0.5054  0.6151
 1988TIP3   OH2 5969   6.309   4.379   2.911 -0.0058  0.3502 -0.1286
 1988TIP3    H1 5970   6.394   4.409   2.880  0.0235  2.5285  1.7764
 1988TIP3    H2 5971   6.246   4.419   2.851  0.2302 -1.5709 -1.7725
 1989TIP3   OH2 5972   5.731   4.026   0.188 -0.1867  0.1383 -1.2075
 1989TIP3    H1 5973   5.789   4.074   0.128  2.6486 -1.4460  0.0261
 1989TIP3    H2 5974   5.789   4.000   0.260 -3.2141  1.1461  1.8202
 1990TIP3   OH2 5975   2.717   0.107   2.162  0.1965  0.4733 -0.0266
 1990TIP3    H1 5976   2.756   0.040   2.106 -2.2488  0.7926 -2.3417
 1990TIP3    H2 5977   2.729   0.188   2.113 -1.0157  0.9538  0.4491
 1991TIP3   OH2 5978   0.023   4.839   0.971 -0.1202  0.8071 -0.4904
 1991TIP3    H1 5979   0.018   4.870   1.061  0.1312 -0.5186  0.0027
 1991TIP3    H2 5980  -0.020   4.908   0.919  0.7679  2.1264  0.4813
 1992TIP3   OH2 5981   1.149   5.592   1.816 -0.2076  0.2407  0.4519
 1992TIP3    H1 5982   1.086   5.663   1.826 -0.5201  0.5873 -2.7840
 1992TIP3    H2 5983   1.096   5.512   1.818 -0.0841  0.1666  2.2905
 1993TIP3   OH2 5984   4.490   2.399   3.029  0.1935  0.7512  0.2376
 1993TIP3    H1 5985   4.425   2.331   3.012 -0.5427  0.7829  2.5924
 1993TIP3    H2 5986   4.574   2.358   3.005 -0.5052  0.2350 -1.5263
 1994TIP3   OH2 5987   4.445   5.889   4.639  0.1335  0.1677 -0.2984
 1994TIP3    H1 5988   4.355   5.861   4.618 -0.3901  2.7465 -1.9306
 1994TIP3    H2 5989   4.439   5.984   4.647  2.9210  0.5177 -1.4856
 1995TIP3   OH2 5990   1.705   2.954   0.854  0.4898 -0.3060  0.1284
 1995TIP3    H1 5991   1.729   3.024   0.915 -0.2932  0.1778 -0.1001
 1995TIP3    H2 5992   1.732   2.987   0.768  0.6361 -0.5355  0.0846
 1996TIP3   OH2 5993   0.770   4.000   3.592  0.1447  0.3150 -0.0708
 1996TIP3    H1 5994   0.724   3.937   3.648  0.6186 -1.3075 -1.4348
 1996TIP3    H2 5995   0.803   4.066   3.653 -1.7719  0.1451  1.2229
 1997TIP3   OH2 5996   4.587   2.660   0.616  0.4727  0.3182 -0.3125
 1997TIP3    H1 5997   4.648   2.634   0.547 -0.2907 -0.5241 -0.6874
 1997TIP3    H2 5998   4.511   2.696   0.570  0.2800  0.4689  0.1129
 1998TIP3   OH2 5999   0.306   1.429   3.635  0.7366  0.0461  0.1668
 1998TIP3    H1 6000   0.298   1.360   3.701  0.2465  0.9960  1.1318
 1998TIP3    H2 6001   0.229   1.419   3.580 -0.7437  1.3973  1.8806
 1999TIP3   OH2 6002   2.661   3.489   2.693  0.6935 -0.3551 -0.2452
 1999TIP3    H1 6003   2.742   3.525   2.657  0.6776 -0.0648  0.0123
 1999TIP3    H2 6004   2.591   3.532   2.642  0.7127 -1.0884 -0.9161
 2000TIP3   OH2 6005   5.972   1.544   4.407  0.0818  0.5873  0.1267
 2000TIP3    H1 6006   5.904   1.519   4.469 -0.0662  0.6662 -0.0026
 2000TIP3    H2 6007   6.000   1.461   4.368  0.6739  0.4598  0.8072
 2001TIP3   OH2 6008   0.493   1.905   4.154  0.2291 -0.4366 -0.2605
 2001TIP3    H1 6009   0.503   1.852   4.232 -1.1189  1.2148  1.1188
 2001TIP3    H2 6010   0.575   1.893   4.106  1.2622 -1.1763  1.5962
 2002TIP3   OH2 6011   3.408   3.457   2.571  0.0780  0.1830  0.5645
 2002TIP3    H1 6012   3.421   3.379   2.517  0.7707 -0.0438  1.0509
 2002TIP3    H2 6013   3.484   3.512   2.553  0.3248  0.0977  1.3125
 2003TIP3   OH2 6014   5.570   0.301   0.113  0.6982 -0.1858  0.2575
 2003TIP3    H1 6015   5.522   0.279   0.193  0.1157  1.5996  0.4664
 2003TIP3    H2 6016   5.618   0.222   0.090 -0.6083 -1.3354  1.3152
 2004TIP3   OH2 6017   1.708   4.464   1.467 -0.4702 -0.1218 -0.4860
 2004TIP3    H1 6018   1.668   4.446   1.552  0.0852  0.9931  0.0307
 2004TIP3    H2 6019   1.775   4.396   1.457 -1.3586 -1.0048 -0.6190
 2005TIP3   OH2 6020   1.871   5.590   0.179 -0.5115  0.4753  0.0272
 2005TIP3    H1 6021   1.837   5.520   0.123 -0.2136  0.9430 -0.7531
 2005TIP3    H2 6022   1.965   5.589   0.166 -0.2913 -0.1937  1.4643
 2006TIP3   OH2 6023   3.722   1.685   1.944  0.0380  0.0872 -0.6067
 2006TIP3    H1 6024   3.816   1.670   1.936  0.0072 -0.8782  0.5591
 2006TIP3    H2 6025   3.700   1.652   2.031 -1.4408 -0.0149 -0.9944
 2007TIP3   OH2 6026   4.762   1.167   0.207  0.3591 -0.6802  0.2279
 2007TIP3    H1 6027   4.744   1.260   0.193  2.1566 -0.3621 -0.1971
 2007TIP3    H2 6028   4.721   1.122   0.133 -0.3615 -0.2182  0.3415
 2008TIP3   OH2 6029   3.771   1.104   4.835  0.1781 -0.2985 -0.1572
 2008TIP3    H1 6030   3.697   1.162   4.819  0.2132 -0.2814 -0.2571
 2008TIP3    H2 6031   3.815   1.098   4.751 -0.0010 -0.7122 -0.2272
 2009TIP3   OH2 6032   5.091   5.567   1.714  0.0401 -0.1430  0.2708
 2009TIP3    H1 6033   5.135   5.556   1.629 -2.4574 -0.6759 -1.0527
 2009TIP3    H2 6034   5.131   5.646   1.752  0.9388  0.3553 -1.5905
 2010TIP3   OH2 6035   3.972   2.078   1.664  0.0155 -0.0199  0.3347
 2010TIP3    H1 6036   4.001   1.988   1.648 -0.1230  0.2553 -1.7673
 2010TIP3    H2 6037   3.877   2.073   1.661  0.0161  0.2718 -0.4208
 2011TIP3   OH2 6038   5.769   3.264   3.989  0.0777 -0.0509  0.0102
 2011TIP3    H1 6039   5.745   3.356   3.974 -2.8386 -0.8651 -1.1623
 2011TIP3    H2 6040   5.733   3.244   4.076 -0.6893 -0.4403 -0.3826
 2012TIP3   OH2 6041   4.463   4.467   2.203  0.1760  0.9102  0.1671
 2012TIP3    H1 6042   4.508   4.383   2.193  0.6686  1.1101  0.6403
 2012TIP3    H2 6043   4.518   4.516   2.264 -1.2153  0.7726  1.5896
 2013TIP3   OH2 6044   5.856   3.139  -0.000  0.1774 -0.2618  0.6706
 2013TIP3    H1 6045   5.898   3.054  -0.010  1.6506  0.3224  1.6859
 2013TIP3    H2 6046   5.865   3.161   0.092 -2.2291 -0.0067  0.9247
 2014TIP3   OH2 6047   2.791   3.443   0.751  0.5520 -0.0434 -0.1039
 2014TIP3    H1 6048   2.858   3.423   0.816  0.3644  0.1438  0.1506
 2014TIP3    H2 6049   2.796   3.372   0.688  0.9258 -0.0791 -0.0349
 2015TIP3   OH2 6050   0.573   3.622   4.579 -1.3021  0.2633  0.1938
 2015TIP3    H1 6051   0.590   3.538   4.536 -0.7178  0.3792  0.1925
 2015TIP3    H2 6052   0.553   3.682   4.507 -1.8244  0.0998  0.2030
 2016TIP3   OH2 6053   3.153   3.728   2.962 -1.0613 -0.1113 -0.2475
 2016TIP3    H1 6054   3.062   3.716   2.936 -1.1313 -0.3042  0.0777
 2016TIP3    H2 6055   3.201   3.663   2.911 -1.3108 -1.0995  0.7518
 2017TIP3   OH2 6056   1.351   1.072   1.822 -0.3357  0.2134 -0.0841
 2017TIP3    H1 6057   1.374   1.165   1.833 -0.4290  0.4869 -1.8253
 2017TIP3    H2 6058   1.284   1.073   1.753 -0.6795 -1.1219  0.2131
 2018TIP3   OH2 6059   5.018   1.737   0.245 -0.3423  0.2952 -0.6712
 2018TIP3    H1 6060   4.999   1.711   0.155 -0.2948  1.4664 -1.0386
 2018TIP3    H2 6061   5.113   1.749   0.248 -0.3120  0.0120 -0.3917
 2019TIP3   OH2 6062   3.336   1.194   4.894  0.5093  0.4185 -0.0518
 2019TIP3    H1 6063   3.265   1.259   4.893  0.3253  0.2182  0.0458
 2019TIP3    H2 6064   3.375   1.204   4.980  0.7149  0.6510 -0.1697
 2020TIP3   OH2 6065   2.750   4.137   0.291 -0.0880  0.1881 -0.4488
 2020TIP3    H1 6066   2.661   4.153   0.259  0.0573  1.9745 -0.0603
 2020TIP3    H2 6067   2.806   4.147   0.213 -0.1583 -0.3250 -0.5703
 2021TIP3   OH2 6068   5.207   2.096   3.149 -0.0934 -0.0024  0.1360
 2021TIP3    H1 6069   5.299   2.070   3.149 -0.0787 -0.0000 -0.9337
 2021TIP3    H2 6070   5.197   2.148   3.228  1.2390  1.3689 -0.5355
 2022TIP3   OH2 6071   2.575   1.031   1.912 -0.2838  0.3185  0.2487
 2022TIP3    H1 6072   2.507   1.001   1.971 -0.6903 -1.1949 -0.9170
 2022TIP3    H2 6073   2.530   1.047   1.829  0.5025  0.9759 -0.0650
 2023TIP3   OH2 6074   2.561   4.955   2.954  0.0619  0.0239 -0.7934
 2023TIP3    H1 6075   2.522   4.959   3.042  0.3797 -2.8076 -0.4159
 2023TIP3    H2 6076   2.495   4.911   2.901  0.3862  0.5717 -1.6671
 2024TIP3   OH2 6077   1.046   4.809   3.972  0.3022 -0.0049 -0.0216
 2024TIP3    H1 6078   1.064   4.715   3.969  0.8547  0.1004 -0.1335
 2024TIP3    H2 6079   1.124   4.849   3.933 -0.3251  0.4561 -0.8337
 2025TIP3   OH2 6080   2.276   5.528   4.035  0.0241  0.2287 -0.3026
 2025TIP3    H1 6081   2.309   5.594   4.096 -0.4406 -1.2926  1.7006
 2025TIP3    H2 6082   2.340   5.526   3.964  1.5247  0.8749  0.9789
 2026TIP3   OH2 6083   3.928   2.798   3.768 -0.0578 -0.3819 -0.0620
 2026TIP3    H1 6084   4.002   2.858   3.783 -0.3136  0.0413 -0.4540
 2026TIP3    H2 6085   3.851   2.848   3.794 -0.2523 -0.6338 -0.1500
 2027TIP3   OH2 6086   3.870   4.591   0.010  0.0847 -0.5413 -0.0058
 2027TIP3    H1 6087   3.939   4.641   0.053  1.2739 -1.8431 -0.3394
 2027TIP3    H2 6088   3.790   4.616   0.056  1.0011 -0.2511  1.4950
 2028TIP3   OH2 6089   1.766   5.320   2.632  0.0959 -0.0702 -0.4471
 2028TIP3    H1 6090   1.765   5.257   2.560 -1.2988 -0.2889 -0.2635
 2028TIP3    H2 6091   1.858   5.332   2.653  0.4406 -1.0643 -1.3515
 2029TIP3   OH2 6092   0.451   0.969   0.259  0.0304  0.3453  0.2455
 2029TIP3    H1 6093   0.400   1.049   0.259  3.6959  3.0133  2.2553
 2029TIP3    H2 6094   0.413   0.916   0.329  0.3995  2.6644  2.3528
 2030TIP3   OH2 6095   3.640   4.149   1.158  0.2089  0.0768  0.7325
 2030TIP3    H1 6096   3.637   4.197   1.075 -0.0730 -0.1152  0.6333
 2030TIP3    H2 6097   3.555   4.105   1.164  0.2831 -0.0247  1.0545
 2031TIP3   OH2 6098   0.123   3.051   4.330 -0.4062 -0.1446  0.2769
 2031TIP3    H1 6099   0.129   3.072   4.424  0.4624 -0.4742  0.3016
 2031TIP3    H2 6100   0.029   3.049   4.312 -0.6019 -0.7313  1.2938
 2032TIP3   OH2 6101   2.764   1.518   4.137  0.0800  0.5711 -0.1686
 2032TIP3    H1 6102   2.714   1.478   4.066 -2.0498  3.5609 -0.5681
 2032TIP3    H2 6103   2.721   1.489   4.217  0.1044  0.1577 -0.3058
 2033TIP3   OH2 6104   2.672   1.218   0.734 -0.1728  0.0302 -0.1974
 2033TIP3    H1 6105   2.581   1.245   0.721 -0.2129 -0.3897 -0.8323
 2033TIP3    H2 6106   2.665   1.138   0.787 -0.2277 -0.4442 -0.9007
 2034TIP3   OH2 6107   1.101   1.513   1.210  0.6466  0.1608 -0.1562
 2034TIP3    H1 6108   1.101   1.513   1.306  0.2893  0.8339 -0.1436
 2034TIP3    H2 6109   1.193   1.517   1.185  0.7151  1.0460  0.1833
 2035TIP3   OH2 6110   1.533   0.555   0.112  0.1575  0.2582  0.0532
 2035TIP3    H1 6111   1.576   0.600   0.040  0.3305  1.4814  0.8819
 2035TIP3    H2 6112   1.474   0.493   0.070 -0.9654  2.0724 -1.1918
 2036TIP3   OH2 6113   0.664   0.391   5.138  0.4779  0.0739  0.3796
 2036TIP3    H1 6114   0.601   0.383   5.210  0.9712 -1.0615  0.7227
 2036TIP3    H2 6115   0.617   0.438   5.069  0.0603  1.3595  1.5050
 2037TIP3   OH2 6116   3.548   5.600   1.114 -0.4428  0.0581  0.1766
 2037TIP3    H1 6117   3.469   5.610   1.166 -0.5174 -0.7939  0.2484
 2037TIP3    H2 6118   3.527   5.637   1.028 -0.4257  1.1720  0.6479
 2038TIP3   OH2 6119   2.620   3.574   0.189 -0.1926 -0.2635  0.1721
 2038TIP3    H1 6120   2.677   3.646   0.161 -1.0385 -0.4483 -2.2641
 2038TIP3    H2 6121   2.548   3.618   0.235  0.5456  0.1897  0.9384
 2039TIP3   OH2 6122   3.481   5.584   3.707  0.0769 -0.0171 -0.6538
 2039TIP3    H1 6123   3.421   5.657   3.722 -0.1112 -0.3234  0.1481
 2039TIP3    H2 6124   3.454   5.546   3.623 -1.5471 -0.7948  0.1716
 2040TIP3   OH2 6125   6.214   3.334   3.993  0.2882  0.4754 -0.1265
 2040TIP3    H1 6126   6.150   3.269   3.964 -0.2166  0.6112  0.6463
 2040TIP3    H2 6127   6.239   3.380   3.913 -1.0712  0.8477 -0.3729
 2041TIP3   OH2 6128   1.572   0.779   4.414  0.4042  0.2110 -0.1663
 2041TIP3    H1 6129   1.490   0.746   4.378 -0.8923  1.5616  1.4154
 2041TIP3    H2 6130   1.564   0.874   4.409  2.2488  0.3849 -0.7184
 2042TIP3   OH2 6131   2.866   4.192   4.478  0.9352  0.1676 -0.4717
 2042TIP3    H1 6132   2.918   4.195   4.398  0.8175  1.0157 -0.5201
 2042TIP3    H2 6133   2.928   4.161   4.545  0.9683 -0.7886 -0.9284
 2043TIP3   OH2 6134   2.981   1.709   3.831 -0.5945 -0.2863 -0.0704
 2043TIP3    H1 6135   3.012   1.800   3.832 -0.5627 -0.2762 -1.0611
 2043TIP3    H2 6136   2.972   1.688   3.738  0.2231 -1.5922  0.1347
 2044TIP3   OH2 6137   4.780   0.346   2.593 -0.1817 -0.0087  0.5182
 2044TIP3    H1 6138   4.734   0.262   2.598  0.9553 -0.6567  0.5335
 2044TIP3    H2 6139   4.720   0.409   2.632 -2.4080 -0.1883 -2.2713
 2045TIP3   OH2 6140   4.209   1.417   4.290 -0.5129  0.1245 -0.0745
 2045TIP3    H1 6141   4.134   1.369   4.326 -1.4436  0.3528 -1.6419
 2045TIP3    H2 6142   4.285   1.372   4.326 -1.3793 -0.3214  1.3051
 2046TIP3   OH2 6143   1.232   0.999   3.642 -0.0156  0.1137  0.3455
 2046TIP3    H1 6144   1.162   1.061   3.664 -0.8940 -0.2242 -1.3175
 2046TIP3    H2 6145   1.278   1.039   3.568  0.3859 -0.5059  0.2506
 2047TIP3   OH2 6146   2.714   1.147   3.981 -0.2927  0.8327 -0.1300
 2047TIP3    H1 6147   2.633   1.197   3.990 -0.5313  0.4846 -0.3343
 2047TIP3    H2 6148   2.730   1.143   3.886  0.4472  1.6701 -0.0513
 2048TIP3   OH2 6149   4.145   3.114   2.295 -0.2248 -0.0457  0.1577
 2048TIP3    H1 6150   4.216   3.171   2.263 -0.4669  0.1958  0.0394
 2048TIP3    H2 6151   4.108   3.162   2.369  0.6886 -0.8633  1.1626
 2049TIP3   OH2 6152   2.591   3.481   3.447  0.5503 -0.1234 -0.1401
 2049TIP3    H1 6153   2.526   3.546   3.472 -0.7228 -1.5041  0.2890
 2049TIP3    H2 6154   2.673   3.512   3.486  0.1768  1.6710 -0.7267
 2050TIP3   OH2 6155   0.303   5.796   4.168  0.1712  0.3828 -0.1423
 2050TIP3    H1 6156   0.283   5.890   4.173  1.3774  0.8526 -2.4950
 2050TIP3    H2 6157   0.218   5.756   4.150 -0.2078  1.1598 -0.1672
 2051TIP3   OH2 6158   2.803   2.910   3.065 -0.3362  0.0280  0.0999
 2051TIP3    H1 6159   2.721   2.898   3.017  0.2434  0.0890 -0.9208
 2051TIP3    H2 6160   2.777   2.960   3.143 -1.4572 -0.9745  0.4090
 2052TIP3   OH2 6161   2.474   1.792   3.304  0.5510 -0.1061  0.4113
 2052TIP3    H1 6162   2.421   1.712   3.312  3.1691 -2.0860 -0.3578
 2052TIP3    H2 6163   2.472   1.812   3.210  0.3854  0.4017  0.5207
 2053TIP3   OH2 6164   3.272   4.878   0.496 -0.5493  0.4031 -0.3419
 2053TIP3    H1 6165   3.265   4.888   0.401  0.1917 -0.8825 -0.5477
 2053TIP3    H2 6166   3.244   4.963   0.530 -0.0342  1.1817 -1.7363
 2054TIP3   OH2 6167   1.109   4.667   4.993 -0.0359 -0.0110  0.4607
 2054TIP3    H1 6168   1.030   4.623   5.024 -0.0174 -0.6941 -0.4169
 2054TIP3    H2 6169   1.112   4.648   4.899  1.3356 -0.2421  0.5277
 2055TIP3   OH2 6170   1.614   1.118   4.015  0.0178 -1.1332  0.3133
 2055TIP3    H1 6171   1.543   1.070   3.971  0.4029 -1.1134 -0.3417
 2055TIP3    H2 6172   1.569   1.176   4.076 -0.5530 -0.8558 -0.3567
 2056TIP3   OH2 6173   1.768   2.764   0.514  0.2462 -0.4478 -0.0527
 2056TIP3    H1 6174   1.858   2.733   0.524 -0.0823 -2.1404 -1.8024
 2056TIP3    H2 6175   1.717   2.705   0.569  0.0873 -0.0520  0.2332
 2057TIP3   OH2 6176   3.241   3.467   1.403  0.4410  0.2428  0.2694
 2057TIP3    H1 6177   3.328   3.507   1.401  1.0362 -0.9897 -0.7820
 2057TIP3    H2 6178   3.220   3.452   1.310  0.7790 -2.8083  0.5689
 2058TIP3   OH2 6179   5.365   2.769   0.670 -0.6572 -0.1656 -0.4012
 2058TIP3    H1 6180   5.361   2.709   0.595 -2.9680  0.1630 -0.6038
 2058TIP3    H2 6181   5.306   2.732   0.734  0.2073  0.3303  0.7227
 2059TIP3   OH2 6182   5.385   2.413   1.680 -0.0428  0.4056  0.1257
 2059TIP3    H1 6183   5.441   2.405   1.757  0.2211  0.6396 -0.0387
 2059TIP3    H2 6184   5.324   2.483   1.702  0.1347  0.5808  0.0599
 2060TIP3   OH2 6185   4.320   5.091   0.990 -0.0139 -0.3334 -0.1922
 2060TIP3    H1 6186   4.270   5.012   0.969  0.8514 -0.8998 -0.1863
 2060TIP3    H2 6187   4.333   5.087   1.085 -0.3400  0.0442 -0.1299
 2061TIP3   OH2 6188   5.742   1.949   3.742 -0.0751  0.1698  0.1350
 2061TIP3    H1 6189   5.707   2.034   3.717  0.4248  0.3961  0.1964
 2061TIP3    H2 6190   5.761   1.957   3.835 -0.5109 -0.1834  0.2622
 2062TIP3   OH2 6191   5.300   0.125   3.707  0.0591  0.3906  0.2315
 2062TIP3    H1 6192   5.228   0.180   3.738 -0.4144  0.6797 -1.2821
 2062TIP3    H2 6193   5.374   0.185   3.699  0.0600  0.4070  0.3562
 2063TIP3   OH2 6194   4.798   3.747   2.615  0.3897 -0.4288 -0.5143
 2063TIP3    H1 6195   4.892   3.761   2.623  0.2761  1.7375 -2.0764
 2063TIP3    H2 6196   4.771   3.717   2.702  2.2081  1.0113  0.6261
 2064TIP3   OH2 6197   2.673   1.705   1.332 -0.0474 -0.2954  0.4314
 2064TIP3    H1 6198   2.684   1.619   1.291  1.7470 -1.1419  2.4506
 2064TIP3    H2 6199   2.584   1.704   1.366 -0.6018 -0.6679 -0.9559
 2065TIP3   OH2 6200   6.148   1.570   1.750  0.0353 -0.1012 -0.1257
 2065TIP3    H1 6201   6.220   1.602   1.804  0.6802 -2.5754  0.5957
 2065TIP3    H2 6202   6.087   1.530   1.812 -0.9523  0.0861 -0.9381
 2066TIP3   OH2 6203   0.939   3.580   2.230 -0.5062  0.4566  0.1231
 2066TIP3    H1 6204   0.887   3.515   2.277 -0.6365  0.6120  0.1940
 2066TIP3    H2 6205   0.878   3.651   2.213 -0.2165  0.8136  0.5584
 2067TIP3   OH2 6206   3.899   5.702   0.456  0.4934  0.5255 -0.4509
 2067TIP3    H1 6207   3.860   5.618   0.481 -0.0999  1.3006  1.4016
 2067TIP3    H2 6208   3.989   5.680   0.430  0.7737 -0.5578  1.2745
 2068TIP3   OH2 6209   5.242   4.916   3.721 -0.0530 -0.1142  0.7997
 2068TIP3    H1 6210   5.292   4.957   3.792 -1.8849  0.4602  1.8196
 2068TIP3    H2 6211   5.197   4.842   3.763 -1.4165  0.4308  0.3493
 2069TIP3   OH2 6212   6.226   5.789   3.651  0.3516 -0.2198  0.2015
 2069TIP3    H1 6213   6.251   5.874   3.688  0.8093 -0.0068 -0.5880
 2069TIP3    H2 6214   6.278   5.725   3.700 -1.2491 -0.2244  1.9976
 2070TIP3   OH2 6215   4.209   2.667   1.148  0.0824  0.3473 -0.5143
 2070TIP3    H1 6216   4.259   2.637   1.224  1.1818  0.5661 -1.1282
 2070TIP3    H2 6217   4.270   2.658   1.075 -1.5553 -1.7554 -1.7457
 2071TIP3   OH2 6218   3.608   3.051   3.019 -0.4342  0.4709  0.4399
 2071TIP3    H1 6219   3.529   3.003   3.042 -1.2532  2.2353  1.5688
 2071TIP3    H2 6220   3.584   3.102   2.942  0.1159 -0.1452 -0.1548
 2072TIP3   OH2 6221   4.421   3.789   2.726 -0.3097  0.9412 -0.5062
 2072TIP3    H1 6222   4.477   3.840   2.784 -0.9374  1.4752 -0.3611
 2072TIP3    H2 6223   4.417   3.842   2.645 -0.4272  0.7982 -0.5934
 2073TIP3   OH2 6224   5.087   5.630   0.492  0.4173 -0.1253  0.1126
 2073TIP3    H1 6225   5.180   5.606   0.499  0.2819 -0.4254  0.9306
 2073TIP3    H2 6226   5.083   5.682   0.412  1.2334 -0.3904 -0.1221
 2074TIP3   OH2 6227   5.399   2.735   0.961  0.4968 -0.5598 -0.1313
 2074TIP3    H1 6228   5.315   2.690   0.956  0.0841  0.0940  0.5582
 2074TIP3    H2 6229   5.433   2.712   1.048  0.9024 -0.5975 -0.2973
 2075TIP3   OH2 6230   1.821   1.073   1.157 -0.1118 -0.0417  0.3891
 2075TIP3    H1 6231   1.887   1.047   1.221  1.7138 -1.7744 -1.9971
 2075TIP3    H2 6232   1.872   1.096   1.079 -2.2918  0.3568 -1.0041
 2076TIP3   OH2 6233   4.626   4.601   5.133 -0.1251  0.5562  0.1564
 2076TIP3    H1 6234   4.687   4.624   5.062  0.3338  0.3811  0.4920
 2076TIP3    H2 6235   4.559   4.547   5.090  0.5667 -0.1978 -0.0078
 2077TIP3   OH2 6236   2.839   1.749   4.270 -0.3040 -0.4748 -0.1235
 2077TIP3    H1 6237   2.761   1.740   4.324 -0.8798  1.6397 -0.5226
 2077TIP3    H2 6238   2.830   1.680   4.204 -1.8634 -0.2241 -0.2051
 2078TIP3   OH2 6239   1.420   2.356   4.962 -0.1963 -0.1146 -0.2473
 2078TIP3    H1 6240   1.455   2.272   4.991 -0.9537 -0.4549 -0.2721
 2078TIP3    H2 6241   1.495   2.414   4.959  0.0820 -0.3377  1.3910
 2079TIP3   OH2 6242   0.776   3.649   2.702 -0.5820 -0.0158 -0.6245
 2079TIP3    H1 6243   0.857   3.601   2.691 -0.0762  0.5075  0.6995
 2079TIP3    H2 6244   0.716   3.588   2.744  0.0995  0.5143  1.1727
 2080TIP3   OH2 6245   3.994   5.816   2.309 -0.1415 -0.0203 -0.1263
 2080TIP3    H1 6246   4.044   5.759   2.368  1.9220  3.0771  1.3617
 2080TIP3    H2 6247   3.904   5.809   2.339  0.0169 -2.3130  0.0444
 2081TIP3   OH2 6248   3.535   5.756   3.244  0.0286 -0.1719 -1.0063
 2081TIP3    H1 6249   3.554   5.759   3.338  0.1446 -1.5264 -0.9667
 2081TIP3    H2 6250   3.454   5.806   3.234 -0.0388 -0.0957 -0.1687
 2082TIP3   OH2 6251   5.555   2.549   0.817 -0.0912 -0.1547 -0.7467
 2082TIP3    H1 6252   5.572   2.566   0.724 -1.2556 -0.1186 -0.9780
 2082TIP3    H2 6253   5.503   2.624   0.846 -0.2850 -0.4801 -0.2359
 2083TIP3   OH2 6254   5.767   5.046   1.022 -0.2584 -0.3606  0.1848
 2083TIP3    H1 6255   5.752   4.953   1.038 -2.3647 -0.7529 -3.0097
 2083TIP3    H2 6256   5.841   5.049   0.961  1.4226  0.3364  2.1439
 2084TIP3   OH2 6257   1.973   2.502   2.773  0.1080 -0.1095  0.0630
 2084TIP3    H1 6258   2.020   2.585   2.777  0.5491 -0.2404 -1.7034
 2084TIP3    H2 6259   1.927   2.497   2.857 -0.7886  2.4126 -0.1922
 2085TIP3   OH2 6260   1.697   3.888   2.155  0.1333  0.1186 -0.5135
 2085TIP3    H1 6261   1.663   3.890   2.245  2.6597 -1.7008  0.6073
 2085TIP3    H2 6262   1.659   3.810   2.116 -1.1083  1.0065 -1.1652
 2086TIP3   OH2 6263   2.716   4.763   2.203 -0.1702 -0.0017  0.4078
 2086TIP3    H1 6264   2.727   4.855   2.229  0.2717  0.1954 -0.4581
 2086TIP3    H2 6265   2.782   4.749   2.136 -2.3230 -0.0319 -1.8314
 2087TIP3   OH2 6266   2.670   2.124   1.359 -0.4014  0.1358 -0.7387
 2087TIP3    H1 6267   2.705   2.116   1.448  1.3947  3.4588 -0.9877
 2087TIP3    H2 6268   2.587   2.171   1.371 -1.0549 -0.9562 -0.7677
 2088TIP3   OH2 6269   2.140   1.715   4.608 -0.2597  0.0348 -0.4658
 2088TIP3    H1 6270   2.149   1.780   4.677 -1.0320 -0.8405  0.5024
 2088TIP3    H2 6271   2.048   1.720   4.582 -0.7551 -1.7773  0.7967
 2089TIP3   OH2 6272   3.812   2.757   4.293 -0.0402 -0.7836  0.6105
 2089TIP3    H1 6273   3.815   2.722   4.382 -0.3564 -0.6074  0.6913
 2089TIP3    H2 6274   3.902   2.748   4.261  0.3236  0.1039  1.3164
 2090TIP3   OH2 6275   4.472   1.068   3.288  0.3128  0.1118 -0.5777
 2090TIP3    H1 6276   4.448   1.123   3.214 -0.6752  1.0262  0.4010
 2090TIP3    H2 6277   4.510   0.990   3.248  1.3046  1.2792 -1.9996
 2091TIP3   OH2 6278   5.960   4.111   0.953 -0.5980  0.1004 -0.0949
 2091TIP3    H1 6279   5.880   4.059   0.962  0.2985 -1.4144 -0.6555
 2091TIP3    H2 6280   6.025   4.064   1.004  0.4599  0.1541 -1.3453
 2092TIP3   OH2 6281   0.898   2.005   0.363 -0.1569  0.2612 -0.4338
 2092TIP3    H1 6282   0.946   2.026   0.443 -1.8700  1.9246  0.2245
 2092TIP3    H2 6283   0.952   2.040   0.292  0.7771 -0.1256  0.0749
 2093TIP3   OH2 6284   4.259   5.073   3.436 -0.1668  0.2732  0.3983
 2093TIP3    H1 6285   4.326   5.010   3.408 -1.3381  0.1320 -2.5142
 2093TIP3    H2 6286   4.176   5.032   3.411 -1.2362  1.2671  2.1473
 2094TIP3   OH2 6287   3.197   2.727   1.611 -0.7510 -0.1793  0.2274
 2094TIP3    H1 6288   3.148   2.652   1.644 -1.1823  0.2546  0.5832
 2094TIP3    H2 6289   3.275   2.731   1.666  1.0815 -2.4608 -1.9892
 2095TIP3   OH2 6290   1.769   2.153   0.753 -0.3154  0.5412  0.3478
 2095TIP3    H1 6291   1.815   2.226   0.710  1.0770  0.2441  1.3014
 2095TIP3    H2 6292   1.765   2.178   0.845 -1.6624  0.3340  0.3607
 2096TIP3   OH2 6293   1.461   4.030   3.785  0.3800  0.5777 -0.2204
 2096TIP3    H1 6294   1.405   4.049   3.710  0.2658 -1.7213 -0.8010
 2096TIP3    H2 6295   1.401   4.012   3.857  0.2459 -1.8303 -0.8288
 2097TIP3   OH2 6296   4.943   3.203   0.046 -0.0631 -0.1005  0.8388
 2097TIP3    H1 6297   4.947   3.108   0.054  0.9301 -0.0101  1.5665
 2097TIP3    H2 6298   4.850   3.224   0.052 -0.2577 -1.0023  1.0261
 2098TIP3   OH2 6299   4.139   2.984   4.632  0.5130 -0.1133 -0.2044
 2098TIP3    H1 6300   4.154   2.908   4.576 -2.0329 -0.2950 -0.7787
 2098TIP3    H2 6301   4.139   2.950   4.721  0.4846 -0.5810 -0.3842
 2099TIP3   OH2 6302   4.071   2.719   4.205  0.0797  0.2315 -1.1269
 2099TIP3    H1 6303   4.077   2.674   4.120 -1.5346 -1.8148 -0.2551
 2099TIP3    H2 6304   4.117   2.661   4.266 -2.6665 -0.7254  0.1743
 2100TIP3   OH2 6305   5.235   1.599   4.862  0.2070  0.5138  0.0394
 2100TIP3    H1 6306   5.226   1.651   4.942  2.5549  1.3711 -0.1720
 2100TIP3    H2 6307   5.159   1.623   4.810 -0.3130  1.4900  1.1917
 2101TIP3   OH2 6308   0.896   3.669   3.348  0.3838  0.2566  0.7812
 2101TIP3    H1 6309   0.952   3.601   3.309  0.5956  0.6549  0.3825
 2101TIP3    H2 6310   0.829   3.686   3.282  0.4018  0.5238  0.8320
 2102TIP3   OH2 6311   6.171   1.181   1.798  0.1428  0.3878 -0.0159
 2102TIP3    H1 6312   6.167   1.101   1.851  0.6173 -0.0239 -0.5974
 2102TIP3    H2 6313   6.218   1.155   1.719  0.6283  1.3381 -0.0437
 2103TIP3   OH2 6314   2.198   2.672   0.287 -0.0708 -0.1299 -0.0088
 2103TIP3    H1 6315   2.234   2.671   0.375 -0.8209 -1.8131  0.3156
 2103TIP3    H2 6316   2.105   2.692   0.300 -0.5429 -2.0229 -0.2276
 2104TIP3   OH2 6317   3.182   0.464   4.554  0.0406  0.0894 -0.0458
 2104TIP3    H1 6318   3.159   0.511   4.474 -2.7910 -0.8698  0.1101
 2104TIP3    H2 6319   3.179   0.532   4.623 -0.6865  0.3277 -0.3029
 2105TIP3   OH2 6320   3.989   3.274   2.471  0.5768 -0.1078  0.0688
 2105TIP3    H1 6321   3.966   3.243   2.559  0.6071 -0.0577  0.0947
 2105TIP3    H2 6322   3.906   3.273   2.423  0.8223 -1.5910 -0.3532
 2106TIP3   OH2 6323   5.283   1.418   3.336  0.1188  0.4414 -0.3333
 2106TIP3    H1 6324   5.191   1.442   3.349  0.6393  1.8875  1.0500
 2106TIP3    H2 6325   5.291   1.331   3.376 -0.7859 -0.0291 -1.1314
 2107TIP3   OH2 6326   0.826   4.922   4.079 -0.1603  0.4896 -0.2981
 2107TIP3    H1 6327   0.900   4.872   4.046  0.0539  0.6464 -0.0578
 2107TIP3    H2 6328   0.865   4.990   4.134 -0.5213  0.1193  0.4299
 2108TIP3   OH2 6329   2.972   4.613   1.439  0.0034 -0.1763 -0.0118
 2108TIP3    H1 6330   2.964   4.603   1.344  0.8067  0.8103 -0.1923
 2108TIP3    H2 6331   2.986   4.707   1.453 -0.4950 -0.2517  1.1154
 2109TIP3   OH2 6332   4.985   0.953   1.543 -0.5701 -0.0305 -0.0411
 2109TIP3    H1 6333   5.008   1.025   1.602  0.9103  1.0428 -1.8032
 2109TIP3    H2 6334   4.997   0.990   1.455  0.7989 -2.5996 -1.0236
 2110TIP3   OH2 6335   4.610   4.866   3.949  0.4623  0.3457 -0.2579
 2110TIP3    H1 6336   4.545   4.915   3.999  1.0882  0.5530  0.3714
 2110TIP3    H2 6337   4.682   4.854   4.010 -0.4899 -3.2591  0.3731
 2111TIP3   OH2 6338   4.332   4.255   3.501  0.3814  0.2783  0.3038
 2111TIP3    H1 6339   4.422   4.231   3.525  0.5316 -2.1604 -2.1673
 2111TIP3    H2 6340   4.337   4.349   3.483  1.7399  0.7834  2.7323
 2112TIP3   OH2 6341   0.199   4.442   3.658 -0.4004  0.2938 -0.0127
 2112TIP3    H1 6342   0.283   4.488   3.666 -0.8667  1.1645 -0.0137
 2112TIP3    H2 6343   0.180   4.443   3.565 -0.5090  0.2796  0.0096
 2113TIP3   OH2 6344   2.614   0.388   0.938  0.5128  0.2966 -0.6200
 2113TIP3    H1 6345   2.677   0.431   0.879  1.0842 -1.4665 -1.3542
 2113TIP3    H2 6346   2.528   0.411   0.902  0.8575 -0.9741 -2.3495
 2114TIP3   OH2 6347   0.407   0.780   1.198  0.1689  0.3436 -0.1866
 2114TIP3    H1 6348   0.434   0.692   1.223  0.1046 -0.3095 -2.1818
 2114TIP3    H2 6349   0.462   0.838   1.250  0.1742 -0.8646  1.2090
 2115TIP3   OH2 6350   1.088   2.789   3.619  0.3593  0.1817 -0.1805
 2115TIP3    H1 6351   1.162   2.779   3.558  1.6951 -0.6187  1.4876
 2115TIP3    H2 6352   1.116   2.858   3.679 -1.2572  1.4991 -0.8629
 2116TIP3   OH2 6353   4.457   3.474   1.199 -0.4534  0.4219  0.3183
 2116TIP3    H1 6354   4.549   3.458   1.175 -0.2766  0.9932  0.6113
 2116TIP3    H2 6355   4.408   3.414   1.143  0.0099  1.1667 -0.9276
 2117TIP3   OH2 6356   3.711   2.702   1.043 -0.3372 -0.0515  0.1359
 2117TIP3    H1 6357   3.805   2.690   1.053 -0.3586  0.4327  1.0197
 2117TIP3    H2 6358   3.671   2.634   1.098 -0.5344 -1.2121 -1.3899
 2118TIP3   OH2 6359  -0.031   2.209   4.988  0.2020  0.1209 -0.4366
 2118TIP3    H1 6360   0.027   2.284   4.979 -0.3343  0.5237 -0.6155
 2118TIP3    H2 6361   0.024   2.133   4.970  0.8263  0.4489  0.0888
 2119TIP3   OH2 6362   5.699   4.547   3.306  0.8656  0.2659 -0.0842
 2119TIP3    H1 6363   5.609   4.543   3.338  0.7904  1.2020 -0.1260
 2119TIP3    H2 6364   5.725   4.638   3.320  1.6639  0.1070 -0.4568
 2120TIP3   OH2 6365   1.694   2.585   1.891 -0.5904 -0.4061 -0.1069
 2120TIP3    H1 6366   1.624   2.544   1.942  1.1086 -0.7350  2.0914
 2120TIP3    H2 6367   1.684   2.678   1.909 -0.7441 -0.4066 -0.1826
 2121TIP3   OH2 6368   5.457   4.380   1.459 -0.1857  0.0822 -0.2007
 2121TIP3    H1 6369   5.365   4.390   1.482 -0.2098 -0.1094 -0.2080
 2121TIP3    H2 6370   5.492   4.321   1.526 -0.5550 -1.5350 -1.3580
 2122TIP3   OH2 6371   4.741   3.214   1.887  0.1927 -0.3598  0.3059
 2122TIP3    H1 6372   4.792   3.287   1.923 -0.6905  0.5659 -0.2672
 2122TIP3    H2 6373   4.703   3.249   1.807 -0.5493 -1.3461  0.2085
 2123TIP3   OH2 6374   1.471   0.584   1.236 -0.0393  0.3033  0.1806
 2123TIP3    H1 6375   1.535   0.601   1.305  0.9252 -1.1120 -0.3081
 2123TIP3    H2 6376   1.523   0.546   1.164 -1.4039 -0.8253 -0.2566
 2124TIP3   OH2 6377   1.996   1.762   2.541 -0.4349 -0.3347  0.2159
 2124TIP3    H1 6378   2.051   1.716   2.604 -0.2149  0.5192  0.6724
 2124TIP3    H2 6379   2.057   1.816   2.491 -0.9640  1.9175  1.8465
 2125TIP3   OH2 6380   0.985   0.857   1.441 -0.3969  0.0800  0.2864
 2125TIP3    H1 6381   1.030   0.941   1.427 -0.7953  0.3638  0.6755
 2125TIP3    H2 6382   1.056   0.794   1.456 -0.1219  0.5860  1.2422
 2126TIP3   OH2 6383   5.271   3.538   3.012  0.1432  0.0821  0.6244
 2126TIP3    H1 6384   5.270   3.496   3.098 -1.8203  1.7353  1.4876
 2126TIP3    H2 6385   5.294   3.629   3.030 -0.7345  0.5560 -0.5351
 2127TIP3   OH2 6386   1.785   4.668   0.776  0.1306  0.0146 -0.3191
 2127TIP3    H1 6387   1.751   4.720   0.703  1.3429  0.0930 -0.8601
 2127TIP3    H2 6388   1.857   4.618   0.737  0.5805 -0.1895  0.7544
 2128TIP3   OH2 6389   6.098   4.260   2.742  0.7026  0.7616  0.2837
 2128TIP3    H1 6390   6.076   4.295   2.656 -0.2538 -0.4887 -0.0118
 2128TIP3    H2 6391   6.185   4.221   2.730  0.0710 -0.4899 -0.4832
 2129TIP3   OH2 6392   2.773   0.834   4.261  0.4300  0.3323 -0.1503
 2129TIP3    H1 6393   2.695   0.807   4.309 -0.8419  0.0453 -2.2785
 2129TIP3    H2 6394   2.794   0.759   4.205  0.6531  1.3584 -1.5036
 2130TIP3   OH2 6395   1.916   3.952   2.004  0.3483 -0.7527 -0.1053
 2130TIP3    H1 6396   1.965   3.988   2.078  1.1123 -1.0119 -0.4772
 2130TIP3    H2 6397   1.839   3.911   2.044  0.8095 -0.9907  0.5621
 2131TIP3   OH2 6398   5.077   3.373   0.477  0.6098 -0.2632  1.1326
 2131TIP3    H1 6399   4.995   3.383   0.429  0.4668 -1.6192  1.0656
 2131TIP3    H2 6400   5.104   3.463   0.497 -0.3271  0.2390  0.2195
 2132TIP3   OH2 6401   5.165   2.994   4.559  0.0421  0.1706  0.1974
 2132TIP3    H1 6402   5.123   3.055   4.618 -1.5356 -0.5692 -0.1090
 2132TIP3    H2 6403   5.209   3.049   4.494 -0.9367  0.9845  0.2095
 2133TIP3   OH2 6404   0.439   2.458   2.654 -0.4451  0.0583  0.5679
 2133TIP3    H1 6405   0.389   2.539   2.648 -0.0699  0.2694  0.2877
 2133TIP3    H2 6406   0.391   2.396   2.599  1.0888  1.0245 -2.0476
 2134TIP3   OH2 6407   3.384   4.408   3.023  0.0651  0.4678 -0.0828
 2134TIP3    H1 6408   3.334   4.446   2.951 -1.3436 -0.3468  0.4174
 2134TIP3    H2 6409   3.412   4.484   3.075 -0.3134  0.9674 -0.5902
 2135TIP3   OH2 6410   4.122   0.764   1.469 -0.4894  0.2588  0.2494
 2135TIP3    H1 6411   4.061   0.693   1.486  0.1198 -0.6076 -1.0350
 2135TIP3    H2 6412   4.150   0.751   1.378  3.2762 -0.7768  1.3396
 2136TIP3   OH2 6413   2.244   1.903   2.562 -0.5014 -0.1963  0.2806
 2136TIP3    H1 6414   2.272   1.994   2.563 -0.6781 -0.1411  0.2734
 2136TIP3    H2 6415   2.233   1.882   2.469 -0.5847 -0.1857  0.2879
 2137TIP3   OH2 6416   0.243   3.529   1.073 -0.0703  0.2542 -0.5460
 2137TIP3    H1 6417   0.297   3.601   1.105 -2.1236  1.2636  0.8549
 2137TIP3    H2 6418   0.221   3.479   1.151  0.7711 -1.5633 -1.4111
 2138TIP3   OH2 6419   0.374   4.915   2.825  0.5705  0.5860 -0.3686
 2138TIP3    H1 6420   0.339   4.957   2.904  1.9374  1.1641 -0.0474
 2138TIP3    H2 6421   0.451   4.966   2.802 -0.3196  1.0128 -2.6613
 2139TIP3   OH2 6422   0.857   0.698   3.316 -0.2399  0.3792  0.0131
 2139TIP3    H1 6423   0.852   0.686   3.410  1.8006  0.0022  0.1129
 2139TIP3    H2 6424   0.905   0.621   3.284  1.1437  1.6164 -1.0190
 2140TIP3   OH2 6425   5.740   1.545   0.487  0.0736  0.0564  0.0428
 2140TIP3    H1 6426   5.715   1.508   0.572 -0.8510 -1.0789 -0.6860
 2140TIP3    H2 6427   5.789   1.624   0.508 -1.4277  0.6229  1.6058
 2141TIP3   OH2 6428   4.762   5.133   2.837  0.4984 -0.1077  0.2977
 2141TIP3    H1 6429   4.763   5.222   2.801 -0.9867 -0.4405 -0.6425
 2141TIP3    H2 6430   4.849   5.122   2.875  0.9703  1.4784 -0.2425
 2142TIP3   OH2 6431   2.269   3.775   1.823  0.5662 -0.5639 -0.0164
 2142TIP3    H1 6432   2.217   3.771   1.903  1.9667  1.0176  1.0580
 2142TIP3    H2 6433   2.242   3.857   1.781  0.0171 -1.2592 -1.0774
 2143TIP3   OH2 6434   3.987   5.447   1.194 -0.1398  0.4163 -0.1622
 2143TIP3    H1 6435   4.006   5.420   1.104 -0.2392 -0.3393  0.0337
 2143TIP3    H2 6436   3.892   5.446   1.200 -0.1090 -1.0790  0.3877
 2144TIP3   OH2 6437   3.300   5.100   2.192 -0.4030 -0.0851 -1.2001
 2144TIP3    H1 6438   3.302   5.077   2.099  0.1322 -0.1306 -1.1795
 2144TIP3    H2 6439   3.275   5.193   2.193  2.7633  0.8923 -1.5942
 2145TIP3   OH2 6440   5.760   2.875   4.112  0.1752  0.0719  0.0780
 2145TIP3    H1 6441   5.800   2.852   4.196  0.1615  1.1226  0.3945
 2145TIP3    H2 6442   5.748   2.970   4.117 -0.9616 -0.0193 -0.6264
 2146TIP3   OH2 6443   3.606   5.434   0.127 -0.2939  0.0302  0.0836
 2146TIP3    H1 6444   3.629   5.351   0.085 -1.2172  0.3072 -1.0417
 2146TIP3    H2 6445   3.676   5.494   0.100  0.7826 -0.5119  1.5018
 2147TIP3   OH2 6446   5.712   0.063   1.089 -0.6194  0.4271  0.2293
 2147TIP3    H1 6447   5.771   0.128   1.128  1.1748 -2.1387  2.1108
 2147TIP3    H2 6448   5.745  -0.021   1.121 -4.1507 -1.3169 -0.3030
 2148TIP3   OH2 6449   5.490   2.754   0.284 -0.5435 -0.6778  0.4452
 2148TIP3    H1 6450   5.442   2.835   0.303  1.2305  0.3469  0.7378
 2148TIP3    H2 6451   5.524   2.767   0.195 -0.8190 -1.4059  0.2260
 2149TIP3   OH2 6452   2.700   3.822   0.974 -0.6539  0.3401 -0.2000
 2149TIP3    H1 6453   2.682   3.765   0.900  0.2105  1.1095 -1.0420
 2149TIP3    H2 6454   2.728   3.905   0.934 -0.4967  0.8850  0.9837
 2150TIP3   OH2 6455   2.922   1.761   1.407  0.2341 -0.1350  0.0835
 2150TIP3    H1 6456   2.833   1.742   1.378 -0.2125  0.9521  0.6657
 2150TIP3    H2 6457   2.964   1.802   1.332  0.8075 -2.1585 -0.7573
 2151TIP3   OH2 6458   3.150   3.407   4.569  0.3342  0.9424 -0.0427
 2151TIP3    H1 6459   3.163   3.424   4.662  1.4618 -1.2969  0.2631
 2151TIP3    H2 6460   3.187   3.484   4.525  3.3423  0.4171  1.2954
 2152TIP3   OH2 6461   2.265   2.619   1.692  0.0010 -0.3240 -0.4106
 2152TIP3    H1 6462   2.180   2.661   1.674  0.8898  1.0979 -1.5739
 2152TIP3    H2 6463   2.302   2.670   1.764  0.3973 -0.0946 -0.7661
 2153TIP3   OH2 6464   3.888  -0.025   2.704  0.2795  0.1282  0.1831
 2153TIP3    H1 6465   3.818   0.024   2.745 -0.7188  0.2912 -1.6047
 2153TIP3    H2 6466   3.888   0.005   2.613  2.3723 -0.2062  0.0192
 2154TIP3   OH2 6467   1.777   5.232   0.772  0.0823  0.0772 -0.3059
 2154TIP3    H1 6468   1.707   5.273   0.821 -0.0336  0.3767 -0.7160
 2154TIP3    H2 6469   1.739   5.212   0.687 -0.2826 -2.1595  0.3280
 2155TIP3   OH2 6470   6.151   3.144   0.037 -0.0517 -0.5581 -0.2055
 2155TIP3    H1 6471   6.124   3.084   0.107  1.3987  0.1650  1.0347
 2155TIP3    H2 6472   6.211   3.205   0.080 -1.3050  1.6715 -1.4491
 2156TIP3   OH2 6473   1.132   2.727   4.506 -0.6746 -0.5266  0.0766
 2156TIP3    H1 6474   1.076   2.655   4.533 -0.2184 -0.8269  0.2333
 2156TIP3    H2 6475   1.072   2.791   4.467 -1.2776 -0.3104  1.3170
 2157TIP3   OH2 6476   2.686   4.571   2.878 -0.1382 -0.0632  0.0633
 2157TIP3    H1 6477   2.607   4.619   2.899  0.8773  1.0011  1.6861
 2157TIP3    H2 6478   2.704   4.592   2.786 -1.2446  0.3651 -0.0635
 2158TIP3   OH2 6479   0.848   3.863   4.083 -0.3066 -0.0030  0.1558
 2158TIP3    H1 6480   0.855   3.788   4.143 -0.7159  0.8698  1.3432
 2158TIP3    H2 6481   0.788   3.833   4.015  0.9965 -1.3902 -0.4297
 2159TIP3   OH2 6482   3.599   3.236   0.323 -0.2365 -0.2169  0.4475
 2159TIP3    H1 6483   3.538   3.307   0.306 -0.6010  0.0047  2.3825
 2159TIP3    H2 6484   3.574   3.204   0.410  0.5665 -2.0422  0.0529
 2160TIP3   OH2 6485   2.729   5.820   0.441 -0.6106  0.6308 -1.0203
 2160TIP3    H1 6486   2.796   5.753   0.423 -1.1924  0.0751 -1.1314
 2160TIP3    H2 6487   2.749   5.850   0.529 -0.3429  0.3102 -0.9675
 2161TIP3   OH2 6488   1.264   4.372   1.920 -0.4934 -0.2795 -0.3164
 2161TIP3    H1 6489   1.216   4.297   1.956 -0.9828 -0.5754 -1.5130
 2161TIP3    H2 6490   1.342   4.379   1.974 -0.8804 -1.1032  0.3729
 2162TIP3   OH2 6491   4.155   2.616   3.314 -0.2941  0.2366  0.1061
 2162TIP3    H1 6492   4.061   2.607   3.329 -0.6035  2.4978 -0.2254
 2162TIP3    H2 6493   4.187   2.667   3.388  0.2830  1.2647 -0.8241
 2163TIP3   OH2 6494   2.727   5.492   4.611  0.0337 -0.0757  0.2220
 2163TIP3    H1 6495   2.732   5.433   4.687  0.5630 -2.3240 -1.4626
 2163TIP3    H2 6496   2.635   5.490   4.585  0.1642 -0.6997 -0.2129
 2164TIP3   OH2 6497   5.598   2.306   2.898  0.5146 -0.4282 -0.0099
 2164TIP3    H1 6498   5.693   2.321   2.896  0.6592 -1.1408  0.6821
 2164TIP3    H2 6499   5.589   2.218   2.936 -0.4633  0.1360  1.1424
 2165TIP3   OH2 6500   5.041   0.755   3.229  1.0574  0.0019 -0.6698
 2165TIP3    H1 6501   5.052   0.685   3.292  1.4980  0.2015 -0.5167
 2165TIP3    H2 6502   5.047   0.712   3.143 -1.1998 -0.5302 -0.6195
 2166TIP3   OH2 6503   3.914   5.273   3.575 -0.0973 -0.1920  0.2877
 2166TIP3    H1 6504   3.974   5.285   3.501  0.2416 -1.3167  0.3499
 2166TIP3    H2 6505   3.843   5.220   3.539 -0.4602  0.1495  0.5052
 2167TIP3   OH2 6506   1.569   5.251   0.981  0.7359 -0.1970 -0.1169
 2167TIP3    H1 6507   1.571   5.155   0.979 -0.5496 -0.2729  0.8320
 2167TIP3    H2 6508   1.569   5.273   1.075  1.1740  0.7467 -0.3243
 2168TIP3   OH2 6509   4.652   5.078   1.033  0.0420  0.2672  0.0609
 2168TIP3    H1 6510   4.737   5.118   1.049 -0.4336  0.8543  1.2433
 2168TIP3    H2 6511   4.645   5.009   1.098  0.2613 -0.8450 -1.0615
 2169TIP3   OH2 6512   1.189   2.232   1.710  0.0921  0.0012 -0.0833
 2169TIP3    H1 6513   1.254   2.188   1.656  1.0966  0.3813  0.7807
 2169TIP3    H2 6514   1.162   2.166   1.774  0.4680  0.1604  0.2502
 2170TIP3   OH2 6515   4.134   1.323   1.385  0.4555 -0.7009 -0.5440
 2170TIP3    H1 6516   4.172   1.366   1.308 -0.5005 -0.2822 -0.8051
 2170TIP3    H2 6517   4.043   1.355   1.387  0.4189 -0.8383  0.6620
 2171TIP3   OH2 6518   2.790   4.210   1.943 -0.4281  0.2594  0.4002
 2171TIP3    H1 6519   2.703   4.208   1.904  0.2433  2.5092 -1.4296
 2171TIP3    H2 6520   2.789   4.286   2.001  0.9303  1.8046 -1.4664
 2172TIP3   OH2 6521   0.221   5.050   3.947 -0.4362 -0.7163  0.4023
 2172TIP3    H1 6522   0.201   5.140   3.919  0.6376 -0.8720 -0.9424
 2172TIP3    H2 6523   0.294   5.060   4.009  0.8012 -0.7336 -0.9872
 2173TIP3   OH2 6524   2.715   0.468   0.190  0.3640 -0.3372 -0.3200
 2173TIP3    H1 6525   2.659   0.391   0.182 -1.4938  1.1579 -2.9538
 2173TIP3    H2 6526   2.665   0.528   0.246  1.4661 -0.6808  1.0961
 2174TIP3   OH2 6527   4.765   1.933   4.110  0.2970 -0.0731  0.3945
 2174TIP3    H1 6528   4.826   1.903   4.177  0.1183  0.1494  0.6561
 2174TIP3    H2 6529   4.704   1.991   4.156 -0.8984 -1.2958  0.3993
 2175TIP3   OH2 6530   3.056   2.386   2.468 -0.0623  0.4058 -0.3154
 2175TIP3    H1 6531   3.140   2.419   2.439  1.0576 -2.5857 -0.7823
 2175TIP3    H2 6532   2.999   2.392   2.391  0.9134 -1.1928 -1.1995
 2176TIP3   OH2 6533   0.219   2.191   3.236 -0.4992  0.2300 -0.1684
 2176TIP3    H1 6534   0.242   2.147   3.154 -0.6428  1.5499 -0.9350
 2176TIP3    H2 6535   0.274   2.269   3.238 -0.2257  0.0336  1.1899
 2177TIP3   OH2 6536   4.710   0.191   2.002 -0.5109  0.2839 -0.3085
 2177TIP3    H1 6537   4.665   0.109   2.022  0.1549  0.5093  2.7091
 2177TIP3    H2 6538   4.765   0.171   1.926  0.2124 -2.3564  0.8071
 2178TIP3   OH2 6539   5.045   2.821   0.468  0.2759  0.8695 -0.5550
 2178TIP3    H1 6540   5.053   2.910   0.501  0.4688 -0.1965  2.6090
 2178TIP3    H2 6541   5.128   2.779   0.491 -0.0860 -0.3284 -1.3430
 2179TIP3   OH2 6542   2.773   5.345   4.166  0.1726 -0.5952 -0.2493
 2179TIP3    H1 6543   2.702   5.342   4.230  0.1017 -1.5616 -0.3611
 2179TIP3    H2 6544   2.735   5.308   4.086  0.3041  0.4540 -0.8178
 2180TIP3   OH2 6545   3.541   5.499   3.188  0.3220 -0.1996  0.2965
 2180TIP3    H1 6546   3.636   5.492   3.191  0.3680 -2.2805 -2.0746
 2180TIP3    H2 6547   3.523   5.593   3.197  2.6479  0.3394 -0.0755
 2181TIP3   OH2 6548   3.504   0.851   0.413 -0.2957  0.2640 -0.2927
 2181TIP3    H1 6549   3.543   0.873   0.498 -0.4446  0.5853 -0.3077
 2181TIP3    H2 6550   3.481   0.758   0.421 -1.8667  0.7002  0.6334
 2182TIP3   OH2 6551   0.812   5.441   1.269 -0.0986  0.0704  0.1974
 2182TIP3    H1 6552   0.834   5.534   1.276  2.2606 -0.2685 -1.3269
 2182TIP3    H2 6553   0.887   5.396   1.308 -0.6099 -1.2051 -0.2342
 2183TIP3   OH2 6554   5.305   3.941   2.688 -0.7520  0.2046 -0.0397
 2183TIP3    H1 6555   5.389   3.898   2.705 -0.3029  0.1174 -2.1921
 2183TIP3    H2 6556   5.306   4.020   2.742  1.0827  0.6304 -0.6613
 2184TIP3   OH2 6557   1.988   5.243   4.482  0.0435 -0.2276  0.2576
 2184TIP3    H1 6558   1.928   5.171   4.502 -0.5560  0.0593 -0.4560
 2184TIP3    H2 6559   1.935   5.305   4.431  0.4859  0.8153  1.0190
 2185TIP3   OH2 6560   3.357   0.165   1.176 -0.9775  0.4479 -0.6181
 2185TIP3    H1 6561   3.346   0.141   1.268 -0.5213 -1.3263 -0.9971
 2185TIP3    H2 6562   3.379   0.083   1.132 -0.0536  1.4557 -2.1321
 2186TIP3   OH2 6563   1.146   4.772   0.126  0.3982 -0.0071 -0.5985
 2186TIP3    H1 6564   1.204   4.711   0.172  1.4392  1.2968 -0.0902
 2186TIP3    H2 6565   1.071   4.782   0.185  0.5696 -0.2353 -0.3339
 2187TIP3   OH2 6566   1.752   3.891   1.329  0.2709  0.3576  0.6617
 2187TIP3    H1 6567   1.674   3.836   1.337  0.9499 -0.5427  1.3286
 2187TIP3    H2 6568   1.786   3.898   1.418  0.4285  1.5395  0.5209
 2188TIP3   OH2 6569   6.180   4.076   2.518 -0.4862  0.1355  0.0745
 2188TIP3    H1 6570   6.219   4.063   2.605 -0.9495 -1.5502  0.0639
 2188TIP3    H2 6571   6.253   4.104   2.463  0.1328 -0.3076  0.6576
 2189TIP3   OH2 6572   4.692   0.971   5.055  0.0926  0.1198  0.0615
 2189TIP3    H1 6573   4.624   1.037   5.038  0.7782  0.5857 -0.9790
 2189TIP3    H2 6574   4.706   0.976   5.150 -0.5409  0.7963  0.1321
 2190TIP3   OH2 6575   5.690   1.503   3.562  0.0575  0.6376  0.7705
 2190TIP3    H1 6576   5.616   1.533   3.509  0.1886 -0.1175  0.1433
 2190TIP3    H2 6577   5.718   1.581   3.611 -0.3861  1.2211  0.1142
 2191TIP3   OH2 6578   5.141   2.097   4.345  0.0542  0.1905  0.5937
 2191TIP3    H1 6579   5.080   2.124   4.414 -1.0875 -1.4241  0.2841
 2191TIP3    H2 6580   5.223   2.080   4.391 -0.0945  1.0965  1.2267
 2192TIP3   OH2 6581   3.281   5.894   3.292  0.5610  0.4611  0.2285
 2192TIP3    H1 6582   3.225   5.853   3.225  1.9839 -1.5565  0.1800
 2192TIP3    H2 6583   3.245   5.982   3.302 -0.8206  0.2255 -1.8763
 2193TIP3   OH2 6584   1.712   3.286   2.195 -0.1746  0.4627 -0.1531
 2193TIP3    H1 6585   1.674   3.325   2.116 -1.6137 -1.4436 -0.4793
 2193TIP3    H2 6586   1.640   3.235   2.233  0.9791 -0.0316  1.4699
 2194TIP3   OH2 6587   1.512   3.168   3.983 -0.6380  0.5279  0.0538
 2194TIP3    H1 6588   1.591   3.124   4.016 -0.7973  0.8881  0.9611
 2194TIP3    H2 6589   1.445   3.147   4.049 -1.3357  0.1293 -0.7656
 2195TIP3   OH2 6590   3.377   0.128   4.162 -0.0427 -0.4893 -0.4232
 2195TIP3    H1 6591   3.369   0.213   4.205 -2.2002 -0.0382 -1.6020
 2195TIP3    H2 6592   3.408   0.069   4.231  0.8259  1.0721  0.5769
 2196TIP3   OH2 6593   6.042   2.348   2.686  0.1295 -0.2627 -0.3884
 2196TIP3    H1 6594   6.085   2.427   2.652 -0.4669 -0.3905 -1.4838
 2196TIP3    H2 6595   6.114   2.288   2.705  0.5721  0.4485  0.2171
 2197TIP3   OH2 6596   5.666   1.542   1.294 -0.2820 -0.8080 -0.2746
 2197TIP3    H1 6597   5.690   1.494   1.373 -2.9413 -1.0156  0.4959
 2197TIP3    H2 6598   5.668   1.634   1.321 -1.3273 -0.8862  0.1147
 2198TIP3   OH2 6599   1.940   5.089   1.841 -0.1673  0.0796 -0.0526
 2198TIP3    H1 6600   2.016   5.147   1.846 -0.0099  0.0278 -1.5540
 2198TIP3    H2 6601   1.969   5.007   1.881  0.0816  0.5343  0.7234
 2199TIP3   OH2 6602   3.326   0.144   5.100  0.5740  0.5515 -0.0405
 2199TIP3    H1 6603   3.368   0.127   5.184 -3.6623 -1.3128  1.9789
 2199TIP3    H2 6604   3.303   0.237   5.103  1.0542  0.6559  0.5454
 2200TIP3   OH2 6605   2.627   1.412   4.611 -0.0018  0.3652  0.0877
 2200TIP3    H1 6606   2.581   1.410   4.695  1.0723 -1.0143  0.6935
 2200TIP3    H2 6607   2.695   1.345   4.619  0.3169  0.3878 -1.7881
 2201TIP3   OH2 6608   6.158   1.552   0.235 -0.2195 -0.2163  0.4838
 2201TIP3    H1 6609   6.245   1.589   0.256 -1.0270  0.7215  2.4506
 2201TIP3    H2 6610   6.118   1.535   0.320 -1.3916 -2.1520 -0.3877
 2202TIP3   OH2 6611   0.139   3.996   1.054  0.1574 -0.0677 -0.0649
 2202TIP3    H1 6612   0.112   3.911   1.019  0.5011 -0.2474  0.0977
 2202TIP3    H2 6613   0.062   4.028   1.100 -0.2034  0.0313 -0.7136
 2203TIP3   OH2 6614   4.893   4.568   0.224  0.0456 -0.3262  0.3335
 2203TIP3    H1 6615   4.901   4.488   0.275  0.6023 -1.1695 -1.0352
 2203TIP3    H2 6616   4.944   4.633   0.273  1.8494 -1.4961  0.1033
 2204TIP3   OH2 6617   3.534   0.966   3.606  0.1749  0.3118  0.2029
 2204TIP3    H1 6618   3.494   0.957   3.693 -0.0830 -2.3826 -0.0986
 2204TIP3    H2 6619   3.556   0.876   3.581  0.6609  1.0711 -2.3385
 2205TIP3   OH2 6620   3.073   0.562   2.184 -0.1291  0.1364 -0.3030
 2205TIP3    H1 6621   2.991   0.529   2.221 -0.6177  1.1116 -0.4871
 2205TIP3    H2 6622   3.085   0.647   2.225  0.8408 -0.0219 -0.2297
 2206TIP3   OH2 6623   3.255   5.889   0.655  0.5150  0.2786  0.0567
 2206TIP3    H1 6624   3.313   5.851   0.588 -0.2012 -0.0915 -0.3622
 2206TIP3    H2 6625   3.263   5.831   0.730 -2.0314 -1.8926 -1.2134
 2207TIP3   OH2 6626   1.938   4.693   3.041  0.5376  0.2630  0.2546
 2207TIP3    H1 6627   1.942   4.775   3.091 -0.3540  0.2988  0.2842
 2207TIP3    H2 6628   1.868   4.708   2.977 -0.0175 -0.6756  0.6270
 2208TIP3   OH2 6629   2.709   1.106   3.701 -0.0942  0.2103 -0.2917
 2208TIP3    H1 6630   2.744   1.017   3.695 -1.2668 -0.2442 -0.7420
 2208TIP3    H2 6631   2.616   1.094   3.720  0.0334  1.3855  1.2318
 2209TIP3   OH2 6632   6.263   4.592   3.838 -0.1836  0.4647  0.2055
 2209TIP3    H1 6633   6.356   4.570   3.846 -0.3255 -0.3763 -0.2881
 2209TIP3    H2 6634   6.251   4.666   3.897  0.0146 -1.7071  3.1685
 2210TIP3   OH2 6635   3.385   0.031   2.191  0.2039  0.1455 -0.2366
 2210TIP3    H1 6636   3.382   0.125   2.175  2.7599  0.6709  1.6148
 2210TIP3    H2 6637   3.378  -0.009   2.105 -1.5245  1.9501 -1.0203
 2211TIP3   OH2 6638   1.728   4.342   0.735 -0.6188  0.0361 -0.3690
 2211TIP3    H1 6639   1.787   4.396   0.683  0.6055  0.4290  1.3373
 2211TIP3    H2 6640   1.653   4.398   0.752  0.0835  0.7904  0.3313
 2212TIP3   OH2 6641   1.969   2.867   2.997 -0.3445 -0.2459  0.1791
 2212TIP3    H1 6642   1.884   2.825   3.015 -0.2237 -0.3039  0.6321
 2212TIP3    H2 6643   1.946   2.945   2.946 -0.9422  1.1079  2.3689
 2213TIP3   OH2 6644   0.582   4.659   3.070 -0.3047 -0.5393  0.1857
 2213TIP3    H1 6645   0.596   4.642   3.163  0.6403 -0.3228  0.0963
 2213TIP3    H2 6646   0.498   4.618   3.050  0.0494 -1.6337  0.8618
 2214TIP3   OH2 6647   2.767   3.226   0.528  0.1074  0.1724 -0.0906
 2214TIP3    H1 6648   2.841   3.178   0.564  0.4745  0.0822 -0.9243
 2214TIP3    H2 6649   2.692   3.197   0.580  0.6027  0.0248  0.5570
 2215TIP3   OH2 6650   1.683   3.321   3.070  0.1511  0.8303 -0.6014
 2215TIP3    H1 6651   1.696   3.393   3.009 -4.0940  2.4408  0.0844
 2215TIP3    H2 6652   1.699   3.359   3.156  0.6563  0.1306 -0.3749
 2216TIP3   OH2 6653   6.329   3.353   2.634 -0.2781 -0.3012 -0.2596
 2216TIP3    H1 6654   6.243   3.322   2.606  0.7833 -2.7189 -1.0708
 2216TIP3    H2 6655   6.338   3.439   2.592 -1.3269 -1.0541 -2.1352
 2217TIP3   OH2 6656   1.224   2.703   2.734 -0.3499 -0.3101  0.1035
 2217TIP3    H1 6657   1.232   2.610   2.713 -1.1310 -0.0393 -1.6132
 2217TIP3    H2 6658   1.314   2.736   2.730 -0.0736 -0.9644  0.6714
 2218TIP3   OH2 6659   3.545   3.297   2.187 -0.2020  0.1961  0.3955
 2218TIP3    H1 6660   3.608   3.243   2.139  1.7413  1.7225  1.1181
 2218TIP3    H2 6661   3.460   3.266   2.156  0.8668 -1.6902 -0.9072
 2219TIP3   OH2 6662   4.761   1.677   3.244  0.4499 -0.0753 -0.3795
 2219TIP3    H1 6663   4.723   1.703   3.161  0.8435  2.3069  0.1229
 2219TIP3    H2 6664   4.705   1.717   3.310  1.2454 -0.2983  0.4566
 2220TIP3   OH2 6665   5.165   2.605   0.860  0.0637  0.5130  0.0436
 2220TIP3    H1 6666   5.114   2.569   0.932  0.6647 -1.5240 -0.4836
 2220TIP3    H2 6667   5.138   2.555   0.783  1.3252  0.8174 -0.6366
 2221TIP3   OH2 6668   2.962   2.755   1.229  0.1900 -0.3352  0.3217
 2221TIP3    H1 6669   2.888   2.781   1.174 -0.0924 -1.9300 -0.0895
 2221TIP3    H2 6670   2.967   2.660   1.220 -0.4572 -0.8361  3.7605
 2222TIP3   OH2 6671   2.673   3.636   3.874 -0.2376  0.4467 -0.3737
 2222TIP3    H1 6672   2.733   3.643   3.800  0.0447  0.5067 -0.1411
 2222TIP3    H2 6673   2.600   3.694   3.851 -0.8704 -0.6848 -1.2829
 2223TIP3   OH2 6674   5.610   0.991   2.710 -0.5463  0.0022 -0.3062
 2223TIP3    H1 6675   5.577   0.915   2.758 -1.6346  1.2873  1.0984
 2223TIP3    H2 6676   5.705   0.984   2.716 -0.6427 -0.2061  1.6085
 2224TIP3   OH2 6677   2.381   5.042   3.856 -0.4994 -0.0032  0.0481
 2224TIP3    H1 6678   2.335   5.119   3.889  0.3173  1.3379 -1.6977
 2224TIP3    H2 6679   2.465   5.077   3.824  0.2853 -1.7882  0.0444
 2225TIP3   OH2 6680   2.449   4.741   2.246  0.2635  0.0873 -0.3941
 2225TIP3    H1 6681   2.425   4.682   2.175  0.1350 -1.2947  0.7679
 2225TIP3    H2 6682   2.544   4.754   2.235  0.2970 -0.3487 -0.6440
 2226TIP3   OH2 6683   4.045   5.196   5.076  1.1629 -0.1349  0.0433
 2226TIP3    H1 6684   4.132   5.220   5.044  0.9540  0.6539  0.0387
 2226TIP3    H2 6685   3.988   5.266   5.045  0.5040 -0.6966 -0.0352
 2227TIP3   OH2 6686   5.750   3.194   2.259  0.2082 -0.0981 -0.3819
 2227TIP3    H1 6687   5.727   3.285   2.278 -0.2109 -0.1473 -0.6385
 2227TIP3    H2 6688   5.676   3.161   2.207  0.4948 -0.4963 -0.5405
 2228TIP3   OH2 6689   6.300   2.020   1.143  0.0734 -0.5329 -0.1662
 2228TIP3    H1 6690   6.345   2.103   1.128 -0.1480 -0.4597 -0.4565
 2228TIP3    H2 6691   6.340   1.984   1.222 -0.1311  0.0587  0.2151
 2229TIP3   OH2 6692   1.735   4.775   2.861  0.0094  0.4839 -0.2252
 2229TIP3    H1 6693   1.692   4.823   2.932 -0.7230  0.6701 -0.7846
 2229TIP3    H2 6694   1.723   4.830   2.784  0.4224  0.0726 -0.5898
 2230TIP3   OH2 6695   3.700   2.289   2.110 -0.6849  0.1385 -0.8168
 2230TIP3    H1 6696   3.697   2.194   2.110  1.5318  0.0236 -0.4544
 2230TIP3    H2 6697   3.716   2.313   2.019  2.6903 -0.1208 -0.4229
 2231TIP3   OH2 6698   4.206   0.357   3.710 -0.2655 -0.1552  0.3946
 2231TIP3    H1 6699   4.289   0.320   3.742 -1.1198 -0.9864  1.7579
 2231TIP3    H2 6700   4.171   0.405   3.785 -1.5966 -0.8556  0.2537
 2232TIP3   OH2 6701   5.901   0.821   1.984  0.1107  0.0058 -0.0164
 2232TIP3    H1 6702   5.943   0.903   2.009  1.3920 -1.1610  1.9886
 2232TIP3    H2 6703   5.808   0.840   1.985  0.4051  1.6685 -0.5953
 2233TIP3   OH2 6704   0.465   0.961   3.226  0.7534 -0.0889  0.2448
 2233TIP3    H1 6705   0.375   0.952   3.195  0.6730  0.4786  0.3172
 2233TIP3    H2 6706   0.518   0.952   3.146  0.6759 -1.0394  0.2833
 2234TIP3   OH2 6707   4.411   1.151   3.032  0.2049 -0.0128 -0.4558
 2234TIP3    H1 6708   4.331   1.177   2.987  0.0697 -0.5799 -0.5473
 2234TIP3    H2 6709   4.481   1.174   2.971 -0.0118 -1.3345 -1.2500
 2235TIP3   OH2 6710   2.645   0.841   4.685 -0.1225  0.3197 -0.0140
 2235TIP3    H1 6711   2.722   0.789   4.707  0.1183  1.0120  0.8383
 2235TIP3    H2 6712   2.590   0.782   4.633 -1.2972 -1.8962  3.3705
 2236TIP3   OH2 6713   2.505   5.157   2.001  0.4183  0.0949  0.1554
 2236TIP3    H1 6714   2.540   5.220   2.063 -2.4324  1.3378  0.6568
 2236TIP3    H2 6715   2.518   5.198   1.915 -0.1696  0.7599  0.3717
 2237TIP3   OH2 6716   2.716   2.082   0.269  0.3916  0.4241 -0.1799
 2237TIP3    H1 6717   2.756   2.158   0.226  0.1737  0.7656  0.2147
 2237TIP3    H2 6718   2.681   2.117   0.351  0.0746 -0.0562 -0.1095
 2238TIP3   OH2 6719   5.881   5.723   2.178  0.1790  0.4848  0.4054
 2238TIP3    H1 6720   5.792   5.758   2.189 -0.5833 -1.3389  0.5021
 2238TIP3    H2 6721   5.914   5.715   2.268 -0.9783 -2.0947  0.7107
 2239TIP3   OH2 6722   4.672   2.787   3.324 -0.1797 -0.0273  0.1584
 2239TIP3    H1 6723   4.584   2.777   3.287  0.2631  0.5943 -1.1412
 2239TIP3    H2 6724   4.700   2.697   3.342 -1.4093 -0.1836  1.4707
 2240TIP3   OH2 6725   2.631   2.795   4.104 -0.1780 -0.0971  0.0716
 2240TIP3    H1 6726   2.593   2.762   4.185 -2.0604  2.5187  0.3798
 2240TIP3    H2 6727   2.724   2.771   4.109 -0.4314 -0.8113  2.5200
 2241TIP3   OH2 6728   1.975   5.667   1.223  0.1848 -0.1195 -0.1884
 2241TIP3    H1 6729   1.895   5.690   1.177 -0.7737 -0.3755  1.2919
 2241TIP3    H2 6730   2.007   5.750   1.259  0.1212 -0.1415 -0.0798
 2242TIP3   OH2 6731   2.278   4.103   3.197  0.3249 -0.3111  0.5345
 2242TIP3    H1 6732   2.253   4.181   3.247  2.2829  0.2015  0.7807
 2242TIP3    H2 6733   2.231   4.112   3.114 -0.9020  0.1790  1.2519
 2243TIP3   OH2 6734   2.321   4.872   3.635  0.3705  0.3071  0.2304
 2243TIP3    H1 6735   2.314   4.925   3.714  1.5784 -0.5662  0.9574
 2243TIP3    H2 6736   2.238   4.826   3.629 -0.2568  1.4057  0.2104
 2244TIP3   OH2 6737   3.736   1.181   0.887 -0.4727 -0.3985  0.1919
 2244TIP3    H1 6738   3.665   1.141   0.938 -1.0942 -1.0033 -1.1171
 2244TIP3    H2 6739   3.785   1.107   0.852  0.4457  0.0185  0.5499
 2245TIP3   OH2 6740   3.693   4.300   1.603  0.1018  0.0079  0.0168
 2245TIP3    H1 6741   3.672   4.307   1.510  0.0393  1.3602  0.1087
 2245TIP3    H2 6742   3.612   4.323   1.648  0.0800 -0.8239  0.4206
 2246TIP3   OH2 6743   2.746   1.130   2.176 -0.0387 -0.0360 -0.3017
 2246TIP3    H1 6744   2.783   1.149   2.263 -1.5318 -1.7043  0.7781
 2246TIP3    H2 6745   2.678   1.065   2.193 -1.6615  0.9461 -2.5125
 2247TIP3   OH2 6746   2.127   2.531   0.712  0.2349 -0.4410 -0.0633
 2247TIP3    H1 6747   2.141   2.616   0.754 -2.0201 -0.8699  1.7628
 2247TIP3    H2 6748   2.192   2.528   0.641  3.6596  0.7359  2.7399
 2248TIP3   OH2 6749   3.428   1.651   2.286  0.0627  0.1997 -0.1714
 2248TIP3    H1 6750   3.414   1.710   2.360  0.6610 -1.3336  1.2184
 2248TIP3    H2 6751   3.443   1.565   2.326 -0.9391 -0.9612 -2.1095
 2249TIP3   OH2 6752   4.315   4.689   3.105  0.2592  0.2042 -0.1075
 2249TIP3    H1 6753   4.350   4.614   3.152  1.2946  1.0888  0.5796
 2249TIP3    H2 6754   4.372   4.762   3.130 -1.0189  1.3261 -0.3517
 2250TIP3   OH2 6755   1.905   5.611   4.632 -0.2155 -0.8379  0.1954
 2250TIP3    H1 6756   1.967   5.619   4.704 -1.4123 -0.1434  1.1916
 2250TIP3    H2 6757   1.858   5.529   4.648  1.8692 -2.5529 -1.7818
 2251TIP3   OH2 6758   0.331   4.066   4.905  0.2350 -0.8273 -0.0621
 2251TIP3    H1 6759   0.280   4.145   4.923 -1.3624 -2.0977  1.3005
 2251TIP3    H2 6760   0.379   4.087   4.825  0.3469  1.7242  0.5873
 2252TIP3   OH2 6761   1.057   0.323   4.593 -0.1165  0.5091 -0.2275
 2252TIP3    H1 6762   1.070   0.371   4.512 -2.2925  1.7243  0.0473
 2252TIP3    H2 6763   0.991   0.374   4.640  1.2635  0.0124  2.4561
 2253TIP3   OH2 6764   1.353   1.476   2.608 -0.1461 -0.3241 -0.1803
 2253TIP3    H1 6765   1.340   1.398   2.662 -0.5371 -0.3052 -0.2417
 2253TIP3    H2 6766   1.328   1.549   2.664 -0.2413 -0.2794 -0.2814
 2254TIP3   OH2 6767   0.290   2.315   2.479  0.0998 -0.5599  0.1783
 2254TIP3    H1 6768   0.283   2.245   2.415 -0.4624  0.9812 -1.5040
 2254TIP3    H2 6769   0.301   2.395   2.428  0.4875  0.6433  2.0194
 2255TIP3   OH2 6770   5.186   3.356   0.100  0.1482 -0.4063  0.2486
 2255TIP3    H1 6771   5.144   3.437   0.128  1.7086  0.4137  0.2698
 2255TIP3    H2 6772   5.113   3.294   0.090 -1.0973  1.0496 -0.0383
 2256TIP3   OH2 6773   3.136   2.332   0.684  0.0031  0.4283 -0.6800
 2256TIP3    H1 6774   3.111   2.394   0.616 -1.4452  0.4212 -0.1887
 2256TIP3    H2 6775   3.153   2.386   0.761 -1.4412  0.2439 -0.1992
 2257TIP3   OH2 6776   2.715   2.812   3.555 -0.5230  0.0991 -0.0379
 2257TIP3    H1 6777   2.788   2.864   3.589 -1.2455  0.6990  0.6333
 2257TIP3    H2 6778   2.685   2.861   3.478  0.0746 -0.4029 -0.6043
 2258TIP3   OH2 6779   0.109   3.845   1.669  0.1107  0.3552 -0.3129
 2258TIP3    H1 6780   0.156   3.924   1.695  0.0756 -0.2475  1.7690
 2258TIP3    H2 6781   0.134   3.831   1.577  1.7134  1.6321 -0.1087
 2259TIP3   OH2 6782   3.957   3.794   4.392 -0.0193  0.5256  1.4669
 2259TIP3    H1 6783   4.046   3.820   4.415  1.0001  0.8989 -2.2571
 2259TIP3    H2 6784   3.966   3.706   4.356 -1.2724  0.3173  1.6241
 2260TIP3   OH2 6785   6.336   4.402   2.103 -0.2935  0.3636 -0.2044
 2260TIP3    H1 6786   6.286   4.479   2.073  2.0089  1.9739 -0.1566
 2260TIP3    H2 6787   6.340   4.413   2.198  1.9249  1.5159 -0.3609
 2261TIP3   OH2 6788   0.953   5.139   1.101  0.3951  0.0429  0.4905
 2261TIP3    H1 6789   1.022   5.073   1.096  0.9380  0.6972 -1.1708
 2261TIP3    H2 6790   0.992   5.211   1.151  0.0678 -0.5401  1.6217
 2262TIP3   OH2 6791   6.305   2.646   0.915 -0.2926 -0.5853 -0.4117
 2262TIP3    H1 6792   6.225   2.695   0.932 -0.6634 -0.9965 -0.9320
 2262TIP3    H2 6793   6.376   2.708   0.932 -0.7542  0.2387 -1.3887
 2263TIP3   OH2 6794   2.834   3.903   0.583  0.2683  0.0394  0.0152
 2263TIP3    H1 6795   2.916   3.953   0.583  1.8290 -2.3559 -1.2520
 2263TIP3    H2 6796   2.811   3.896   0.491 -0.8511 -0.1677  0.2987
 2264TIP3   OH2 6797   1.309   5.734   3.708  0.0827  0.1714 -0.3774
 2264TIP3    H1 6798   1.356   5.652   3.692  0.6071  0.3361  0.2939
 2264TIP3    H2 6799   1.366   5.802   3.670 -0.6592  0.1842 -1.5297
 2265TIP3   OH2 6800   1.877   5.285   3.844 -0.3355  0.7178  0.2474
 2265TIP3    H1 6801   1.914   5.251   3.925  0.4993 -0.7909 -0.7192
 2265TIP3    H2 6802   1.930   5.363   3.824  0.1751  0.4592  0.5864
 2266TIP3   OH2 6803   5.458   0.019   2.427  0.0305 -0.0125  0.7974
 2266TIP3    H1 6804   5.389   0.056   2.481 -1.3721 -0.4651 -0.6119
 2266TIP3    H2 6805   5.449   0.063   2.342  1.5457 -0.0190  0.6003
 2267TIP3   OH2 6806   2.216   3.338   2.673 -0.3832  0.3530  0.1290
 2267TIP3    H1 6807   2.157   3.287   2.617  1.6120  0.1047 -1.9048
 2267TIP3    H2 6808   2.295   3.285   2.680  0.5260  1.7240  0.6926
 2268TIP3   OH2 6809   5.949   1.181   3.824 -0.0462 -0.5989 -0.3846
 2268TIP3    H1 6810   5.908   1.234   3.755  1.2557  2.1612  0.8017
 2268TIP3    H2 6811   5.877   1.154   3.880 -0.8011 -0.3845 -1.2286
 2269TIP3   OH2 6812   1.894   0.478   2.547 -0.0555  0.1012  0.2905
 2269TIP3    H1 6813   1.865   0.487   2.638 -2.0430 -2.4656  0.0186
 2269TIP3    H2 6814   1.958   0.548   2.536 -0.8269  1.4406  3.2040
 2270TIP3   OH2 6815   0.472   0.370   2.906  0.5786 -0.3318 -0.2243
 2270TIP3    H1 6816   0.470   0.291   2.852  1.0862  0.4838 -1.4786
 2270TIP3    H2 6817   0.478   0.442   2.844 -0.0959  0.7283  0.8824
 2271TIP3   OH2 6818   0.046   4.232   3.726  0.0701  0.0219  0.0693
 2271TIP3    H1 6819   0.077   4.319   3.701  0.7781  0.4299  2.1202
 2271TIP3    H2 6820   0.110   4.202   3.791 -0.8615 -1.4801  0.3288
 2272TIP3   OH2 6821   1.620   5.351   4.964  0.2528 -0.6403  0.0778
 2272TIP3    H1 6822   1.691   5.339   4.901 -0.7913  0.8644 -1.5034
 2272TIP3    H2 6823   1.547   5.386   4.911 -1.5696 -1.8365  1.6627
 2273TIP3   OH2 6824   0.738   5.694   2.570  0.1051 -0.3935  0.0067
 2273TIP3    H1 6825   0.645   5.681   2.553 -0.1207 -0.9919  1.5756
 2273TIP3    H2 6826   0.778   5.696   2.483 -1.4813  0.9077 -0.7497
 2274TIP3   OH2 6827   2.859   1.966   2.289  0.6803  0.0484  0.0056
 2274TIP3    H1 6828   2.880   2.043   2.341  0.8219 -0.3790  0.5836
 2274TIP3    H2 6829   2.857   1.893   2.351  0.4360 -0.4028 -0.5117
 2275TIP3   OH2 6830   6.038   1.305   3.474 -0.3477 -0.4347  0.3194
 2275TIP3    H1 6831   6.018   1.212   3.483  0.3555 -0.6073  0.1896
 2275TIP3    H2 6832   6.108   1.320   3.538  1.4070 -0.6067 -1.4645
 2276TIP3   OH2 6833   0.888   4.377   2.368  0.0296  0.1438  0.2647
 2276TIP3    H1 6834   0.928   4.330   2.295 -0.9600 -0.7769  0.2939
 2276TIP3    H2 6835   0.962   4.412   2.418  0.7226  0.5803 -1.0299
 2277TIP3   OH2 6836   3.465   0.695   1.442 -0.1072  0.1766 -0.3528
 2277TIP3    H1 6837   3.451   0.746   1.522  0.6851 -0.5333  0.2612
 2277TIP3    H2 6838   3.382   0.649   1.428  0.3566 -1.2516  1.2248
 2278TIP3   OH2 6839   0.853   5.082   2.375  0.0301 -0.7275 -0.1250
 2278TIP3    H1 6840   0.836   5.141   2.301  1.6829 -0.8240 -0.6177
 2278TIP3    H2 6841   0.935   5.113   2.413 -0.6865 -0.7922  1.5931
 2279TIP3   OH2 6842   3.362   2.035   1.778 -0.4171  0.3531  0.1003
 2279TIP3    H1 6843   3.347   2.116   1.826 -0.5701  0.9147 -0.8608
 2279TIP3    H2 6844   3.445   2.001   1.812 -0.8016  0.4246  1.1497
 2280TIP3   OH2 6845   0.554   4.905   2.566  0.0595 -0.6859 -0.3756
 2280TIP3    H1 6846   0.645   4.883   2.587  0.0298 -0.4935 -0.0368
 2280TIP3    H2 6847   0.545   4.885   2.473  1.1026  1.4259 -0.9897
 2281TIP3   OH2 6848   1.923   0.584   3.357  0.3654  0.3040 -0.1382
 2281TIP3    H1 6849   1.974   0.650   3.404  0.4410  0.3485 -0.2823
 2281TIP3    H2 6850   1.855   0.558   3.420  1.5277 -0.9441  0.6478
 2282TIP3   OH2 6851   1.230   4.454   2.703  0.5107 -0.5104 -0.7072
 2282TIP3    H1 6852   1.168   4.381   2.702 -0.3185  0.1594  0.0680
 2282TIP3    H2 6853   1.263   4.459   2.613 -0.3514 -1.0537 -1.0625
 2283TIP3   OH2 6854   4.500   3.385   3.580 -0.4075 -0.4490  0.6682
 2283TIP3    H1 6855   4.446   3.434   3.642 -1.6894 -0.3655 -0.4597
 2283TIP3    H2 6856   4.440   3.320   3.543  0.1867 -0.2110 -0.7858
 2284TIP3   OH2 6857   1.583   4.971   2.998  0.8724 -0.2017 -0.1264
 2284TIP3    H1 6858   1.548   5.059   3.004 -0.1368 -0.6271  0.4407
 2284TIP3    H2 6859   1.507   4.914   3.008  1.6242 -1.1479  0.4011
 2285TIP3   OH2 6860   0.781   2.073   4.529 -0.6973  0.5648 -0.0649
 2285TIP3    H1 6861   0.701   2.100   4.485 -2.5395  0.6099  3.0318
 2285TIP3    H2 6862   0.766   1.981   4.553  0.0730  0.6241  0.7111
 2286TIP3   OH2 6863   1.952   0.823   1.376  0.6786  0.0399  0.5700
 2286TIP3    H1 6864   1.964   0.799   1.284  0.2786  1.8901 -0.0220
 2286TIP3    H2 6865   2.000   0.905   1.386 -0.4785  0.6322  1.6154
 2287TIP3   OH2 6866   1.196   0.705   4.664 -0.1230  0.6337  0.2230
 2287TIP3    H1 6867   1.264   0.768   4.688 -0.2025  0.4182  1.0579
 2287TIP3    H2 6868   1.236   0.620   4.682 -0.6490  0.5101  0.8036
 2288TIP3   OH2 6869   4.546   1.304   2.826  0.1013  0.2748 -0.2405
 2288TIP3    H1 6870   4.639   1.318   2.807 -0.1180 -1.2063 -2.9446
 2288TIP3    H2 6871   4.509   1.393   2.826  1.2009  0.7683 -1.1465
 2289TIP3   OH2 6872   5.668   2.362   1.252  0.1243 -0.2098  0.0531
 2289TIP3    H1 6873   5.748   2.403   1.220 -0.0326  0.3866  0.3921
 2289TIP3    H2 6874   5.637   2.422   1.321 -1.2731  0.2259 -0.9167
 2290TIP3   OH2 6875   5.496   4.601   3.934  0.1288 -0.5175  0.3374
 2290TIP3    H1 6876   5.455   4.667   3.989  1.5740 -0.1112  0.9821
 2290TIP3    H2 6877   5.518   4.529   3.994 -0.6326 -1.2162 -0.1985
 2291TIP3   OH2 6878   3.482   2.950   2.030  0.2971 -0.3851  0.7888
 2291TIP3    H1 6879   3.478   2.902   1.947 -0.0425 -0.3393  0.7747
 2291TIP3    H2 6880   3.415   3.018   2.020 -1.0930 -1.5525  1.8429
 2292TIP3   OH2 6881   3.589   4.294   2.418  0.1400 -0.4278  0.4846
 2292TIP3    H1 6882   3.662   4.283   2.356  1.7529 -0.4662  2.2897
 2292TIP3    H2 6883   3.628   4.275   2.504 -1.9467 -0.1365  1.5458
 2293TIP3   OH2 6884   2.919   1.540   2.528 -0.1384  0.0730  0.2709
 2293TIP3    H1 6885   2.919   1.468   2.465 -0.2141 -0.3025  0.6950
 2293TIP3    H2 6886   2.837   1.529   2.577  0.4676 -0.3323  1.2211
 2294TIP3   OH2 6887   5.369   5.151   1.759 -0.1994 -0.1083  0.4083
 2294TIP3    H1 6888   5.297   5.133   1.819  0.5148  0.1927  1.3764
 2294TIP3    H2 6889   5.385   5.245   1.768  1.2077 -0.3989  1.2606
 2295TIP3   OH2 6890   0.191   0.529   2.395  0.1797 -0.2637 -0.9548
 2295TIP3    H1 6891   0.209   0.466   2.464 -0.3350  0.2490 -0.3407
 2295TIP3    H2 6892   0.151   0.477   2.325 -3.0754 -0.2352  0.7117
 2296TIP3   OH2 6893   3.330   3.528   3.703 -0.1522  0.4486 -0.1152
 2296TIP3    H1 6894   3.281   3.596   3.658  0.3081  1.3359  0.6815
 2296TIP3    H2 6895   3.267   3.457   3.714 -1.3940  1.6662  1.1270
 2297TIP3   OH2 6896   2.487   3.020   4.048  0.4261  0.0278  0.0185
 2297TIP3    H1 6897   2.547   2.945   4.049  2.3055  1.4412  1.4086
 2297TIP3    H2 6898   2.415   2.994   4.106  0.6433 -0.9853 -0.1455
 2298TIP3   OH2 6899   0.160   3.856   0.709 -0.5912  0.1875  0.2099
 2298TIP3    H1 6900   0.120   3.808   0.781 -2.8973 -1.8924 -2.2494
 2298TIP3    H2 6901   0.120   3.943   0.713 -1.4461 -0.2258  0.8445
 2299TIP3   OH2 6902   3.170   1.704   0.194 -0.1140  0.0331  0.8512
 2299TIP3    H1 6903   3.119   1.700   0.113 -3.5961 -0.4904  2.8480
 2299TIP3    H2 6904   3.238   1.638   0.184  1.3037  1.7610 -2.5688
 2300TIP3   OH2 6905   4.850   0.080   0.568 -0.2831  0.1326 -0.0942
 2300TIP3    H1 6906   4.861   0.123   0.483  0.9114 -0.2459 -0.1483
 2300TIP3    H2 6907   4.938   0.052   0.593 -0.9999 -2.3895 -0.0982
 2301TIP3   OH2 6908   6.026   0.831   4.918 -0.5348 -0.6296 -0.1080
 2301TIP3    H1 6909   6.001   0.838   4.826 -2.0827 -1.3361  0.2087
 2301TIP3    H2 6910   6.074   0.748   4.923 -0.8365 -0.8165 -0.2228
 2302TIP3   OH2 6911   0.636   4.820   3.920  0.1189 -0.0614 -0.0211
 2302TIP3    H1 6912   0.704   4.851   3.980 -0.4882  2.5874 -0.5663
 2302TIP3    H2 6913   0.642   4.880   3.845 -2.4084 -0.1255 -0.3448
 2303TIP3   OH2 6914   0.115   1.494   4.692  0.1885  0.7896 -0.3781
 2303TIP3    H1 6915   0.092   1.578   4.731 -0.6870  0.5621 -0.3950
 2303TIP3    H2 6916   0.038   1.439   4.705  0.0998  0.5184 -1.8622
 2304TIP3   OH2 6917   2.598   4.904   1.905 -0.0160  0.3669  0.0888
 2304TIP3    H1 6918   2.593   4.988   1.949 -0.4638  1.2129 -1.5116
 2304TIP3    H2 6919   2.681   4.866   1.934  0.4177  1.5571  0.4605
 2305TIP3   OH2 6920   5.865   2.597   2.520 -0.1721 -0.4219 -0.2410
 2305TIP3    H1 6921   5.935   2.534   2.506  0.6286  0.0822  1.3185
 2305TIP3    H2 6922   5.908   2.683   2.513 -1.3834  0.0903 -3.1740
 2306TIP3   OH2 6923   4.510   4.971   1.779 -0.0594 -0.1213  0.3852
 2306TIP3    H1 6924   4.528   4.972   1.873 -2.4418 -1.5874  0.9323
 2306TIP3    H2 6925   4.421   4.936   1.772 -0.4935  1.2738 -2.3498
 2307TIP3   OH2 6926   4.625   5.583   2.300 -0.8114 -0.0728  0.2021
 2307TIP3    H1 6927   4.562   5.561   2.369 -0.5634  0.0207  0.4569
 2307TIP3    H2 6928   4.666   5.664   2.330 -1.5307  0.6143 -0.6005
 2308TIP3   OH2 6929   1.355   4.098   5.061  0.1061 -0.5364  0.5317
 2308TIP3    H1 6930   1.375   4.192   5.057 -0.9779 -0.2802  0.8718
 2308TIP3    H2 6931   1.431   4.056   5.021  0.2177  0.5361 -0.4222
 2309TIP3   OH2 6932   5.264   3.286   2.533  0.1541 -0.4640  0.5714
 2309TIP3    H1 6933   5.323   3.325   2.598  0.0234  0.8024 -0.0414
 2309TIP3    H2 6934   5.320   3.225   2.484  0.1501 -1.7955  2.1219
 2310TIP3   OH2 6935   4.932   1.954   4.908 -0.2308  0.0114 -1.4039
 2310TIP3    H1 6936   5.014   1.937   4.954 -0.9866  0.5907  0.2073
 2310TIP3    H2 6937   4.886   1.870   4.909 -0.7242  0.2815 -0.0800
 2311TIP3   OH2 6938   6.171   5.821   3.988 -0.3942 -0.5718 -0.0297
 2311TIP3    H1 6939   6.120   5.902   3.996  0.4422  0.0991 -1.1105
 2311TIP3    H2 6940   6.111   5.759   3.948 -0.7377 -0.1745 -0.1432
 2312TIP3   OH2 6941   5.987   1.828   5.001 -0.1556  0.2735  0.2113
 2312TIP3    H1 6942   5.945   1.908   4.970  0.3177  0.3830 -0.1559
 2312TIP3    H2 6943   5.916   1.764   5.007 -0.7656  1.0382  1.6820
 2313TIP3   OH2 6944   5.280   4.992   5.053  0.0793 -0.2853  0.4242
 2313TIP3    H1 6945   5.234   5.038   5.123 -0.7765  0.7296 -0.7556
 2313TIP3    H2 6946   5.210   4.961   4.995  0.6265 -2.9161  1.0204
 2314TIP3   OH2 6947   6.251   1.165   0.688 -0.0200 -0.0313 -0.3313
 2314TIP3    H1 6948   6.172   1.201   0.648  0.5278  0.5545 -0.9133
 2314TIP3    H2 6949   6.245   1.071   0.672 -0.5486  0.0213 -0.4546
 2315TIP3   OH2 6950   6.271   3.609   5.070  0.4335 -0.0130 -0.5342
 2315TIP3    H1 6951   6.302   3.597   4.980  1.7355  2.1000 -0.4352
 2315TIP3    H2 6952   6.185   3.650   5.060  0.7251  0.5463 -0.8560
 2316TIP3   OH2 6953   0.299   0.579   4.175  0.1166  0.2075 -0.5014
 2316TIP3    H1 6954   0.260   0.498   4.143  1.8692 -0.1624 -1.8490
 2316TIP3    H2 6955   0.342   0.554   4.257 -2.0921  0.5612  0.8542
 2317TIP3   OH2 6956   1.898   2.716   0.227  0.2653  0.5229  0.1706
 2317TIP3    H1 6957   1.812   2.716   0.269 -0.3115  1.6895 -0.9417
 2317TIP3    H2 6958   1.926   2.807   0.229  0.7243  0.4200 -0.9443
 2318TIP3   OH2 6959   0.147   1.007   3.386  0.0172  0.1882  0.2619
 2318TIP3    H1 6960   0.142   0.924   3.434 -0.4043 -0.6194 -1.0967
 2318TIP3    H2 6961   0.241   1.025   3.379  0.1722 -0.7621 -0.3451
 2319TIP3   OH2 6962   5.332   3.368   4.559 -0.6799  0.1136  0.1077
 2319TIP3    H1 6963   5.302   3.379   4.469  2.7272  1.7626 -0.9955
 2319TIP3    H2 6964   5.293   3.442   4.607 -1.4652 -0.0447 -0.2618
 2320TIP3   OH2 6965   5.443   3.953   0.180 -0.0358 -0.5863  0.1286
 2320TIP3    H1 6966   5.531   3.964   0.218 -0.4933 -0.8757  1.3151
 2320TIP3    H2 6967   5.383   3.985   0.247 -0.8444 -0.0782 -0.8067
 2321TIP3   OH2 6968   5.627   1.628   0.066  0.3925 -0.1862 -0.0754
 2321TIP3    H1 6969   5.654   1.599   0.153  2.0355 -1.9308 -1.0950
 2321TIP3    H2 6970   5.708   1.654   0.023 -0.1912 -0.6989 -1.5446
 2322TIP3   OH2 6971   6.234   5.294   1.460  0.2735 -0.0218 -0.2023
 2322TIP3    H1 6972   6.274   5.241   1.392 -1.7110 -1.4831 -0.3285
 2322TIP3    H2 6973   6.185   5.361   1.413 -0.3081 -0.4355 -0.1958
 2323TIP3   OH2 6974   3.288   0.439   3.160  0.4282 -0.0413 -0.3587
 2323TIP3    H1 6975   3.299   0.348   3.186 -0.5852  0.0018  0.2356
 2323TIP3    H2 6976   3.282   0.487   3.242 -2.2306  0.1621 -0.5949
 2324TIP3   OH2 6977   0.088   5.219   4.472 -0.2788  0.2239 -0.3310
 2324TIP3    H1 6978   0.024   5.174   4.417  0.0177 -1.3488  0.5447
 2324TIP3    H2 6979   0.150   5.258   4.411 -0.9562  0.0598 -1.1375
 2325TIP3   OH2 6980   3.280   1.453   3.992 -0.1667 -0.3357  0.2858
 2325TIP3    H1 6981   3.273   1.456   3.897 -0.3971  0.8984  0.3194
 2325TIP3    H2 6982   3.207   1.506   4.023  1.6940  2.0222  1.0153
 2326TIP3   OH2 6983   4.361   2.699   2.329 -0.1196 -0.3185 -0.1095
 2326TIP3    H1 6984   4.431   2.641   2.357  0.4150 -0.0846 -0.8875
 2326TIP3    H2 6985   4.390   2.730   2.243 -0.8590  0.3180 -0.1402
 2327TIP3   OH2 6986   4.781   4.500   1.534 -0.0760  0.3214 -0.7407
 2327TIP3    H1 6987   4.691   4.501   1.567 -0.0833  0.3597 -0.7619
 2327TIP3    H2 6988   4.834   4.472   1.609 -0.1645 -0.1879 -0.8650
 2328TIP3   OH2 6989   1.888   3.081   3.337 -0.5462 -0.0958  0.1482
 2328TIP3    H1 6990   1.806   3.063   3.290  0.1215 -1.1678 -0.6567
 2328TIP3    H2 6991   1.884   3.025   3.414  0.3844 -1.9404 -1.0486
 2329TIP3   OH2 6992   5.949   1.254   4.703  0.2764  0.1863 -0.2236
 2329TIP3    H1 6993   5.881   1.203   4.746 -0.7351  0.9130 -0.9303
 2329TIP3    H2 6994   5.909   1.339   4.686  2.0436  1.3886  1.2637
 2330TIP3   OH2 6995   3.018   0.050   1.682 -0.3504  0.3067  0.4059
 2330TIP3    H1 6996   3.027  -0.013   1.610  1.6427 -0.5975  1.3623
 2330TIP3    H2 6997   2.970   0.123   1.644  0.7796 -0.0702 -1.9144
 2331TIP3   OH2 6998   0.304   4.046   0.417 -0.3126 -0.1058  0.1360
 2331TIP3    H1 6999   0.322   4.017   0.507 -0.0015  0.3057  0.2062
 2331TIP3    H2 7000   0.210   4.065   0.417 -0.6217 -1.4998 -0.0220
 2332TIP3   OH2 7001   5.261   5.407   4.681 -0.2250 -0.6587 -0.0712
 2332TIP3    H1 7002   5.222   5.428   4.596 -0.7035 -1.0645  0.0405
 2332TIP3    H2 7003   5.285   5.314   4.674 -1.3539 -1.0306  0.6283
 2333TIP3   OH2 7004   5.278   1.162   3.462  0.1368 -0.7526 -0.1224
 2333TIP3    H1 7005   5.197   1.174   3.511 -0.2324 -0.5135 -0.7881
 2333TIP3    H2 7006   5.263   1.083   3.410 -0.3980  0.3324 -1.6794
 2334TIP3   OH2 7007   5.836   0.703   0.837 -0.0165  0.4830 -0.0246
 2334TIP3    H1 7008   5.912   0.690   0.894  0.2382  0.6284 -0.3277
 2334TIP3    H2 7009   5.865   0.670   0.752 -0.6104 -0.3262  0.0759
 2335TIP3   OH2 7010   1.287   2.793   3.414 -0.2230 -0.2951  0.1276
 2335TIP3    H1 7011   1.380   2.788   3.438 -0.2805 -3.3003  0.1176
 2335TIP3    H2 7012   1.287   2.802   3.319  0.0899 -0.8123  0.0734
 2336TIP3   OH2 7013   3.014   5.180   2.330 -0.2136  0.1992 -0.0886
 2336TIP3    H1 7014   3.058   5.228   2.259  1.0978  0.4323  0.8532
 2336TIP3    H2 7015   2.990   5.096   2.290  0.1964  0.4530 -0.9023
 2337TIP3   OH2 7016   1.612   4.150   2.002  0.6211 -0.1916 -0.4396
 2337TIP3    H1 7017   1.630   4.069   2.050  0.4653  1.1900  2.1452
 2337TIP3    H2 7018   1.547   4.125   1.937  0.9274 -2.2300 -0.0534
 2338TIP3   OH2 7019   0.346   2.225   1.699  0.4203  0.0637 -0.5600
 2338TIP3    H1 7020   0.313   2.185   1.619  0.8103  1.2564 -1.3363
 2338TIP3    H2 7021   0.438   2.243   1.681  0.0214  2.2434 -0.6314
 2339TIP3   OH2 7022   0.524   3.472   0.155  0.1674  0.3477  0.5275
 2339TIP3    H1 7023   0.441   3.473   0.204  0.8765  2.0936  1.8089
 2339TIP3    H2 7024   0.553   3.381   0.159 -1.1196 -0.0704  1.0464
 2340TIP3   OH2 7025   5.218   4.978   2.684 -0.5807  0.3536  0.3310
 2340TIP3    H1 7026   5.290   5.002   2.741 -1.2674  0.1213  1.3160
 2340TIP3    H2 7027   5.219   5.043   2.614  0.6632  0.2632  0.2554
 2341TIP3   OH2 7028   1.894   3.033   1.343  0.3839 -0.9298 -0.2913
 2341TIP3    H1 7029   1.818   3.008   1.395  0.2680 -0.2953 -0.1483
 2341TIP3    H2 7030   1.936   3.102   1.394  1.0938 -1.3156 -0.3393
 2342TIP3   OH2 7031   2.036   1.856   1.396 -0.4907 -0.3069  0.2826
 2342TIP3    H1 7032   2.025   1.951   1.393 -0.5134 -0.2834  0.9016
 2342TIP3    H2 7033   2.122   1.840   1.357 -0.7160 -0.0839 -0.3219
 2343TIP3   OH2 7034   5.411   3.309   1.832 -0.5058  0.1983  0.2940
 2343TIP3    H1 7035   5.334   3.260   1.803  0.3726 -1.0297 -0.0299
 2343TIP3    H2 7036   5.477   3.290   1.766 -0.1737  1.9732  0.0757
 2344TIP3   OH2 7037   4.684   3.424   2.668  0.1114 -0.4528  0.9318
 2344TIP3    H1 7038   4.649   3.433   2.580 -0.0147  0.1669  1.0453
 2344TIP3    H2 7039   4.649   3.499   2.716  1.1768 -0.1015  1.1843
 2345TIP3   OH2 7040   6.267   0.653   0.300  0.2325  0.4143 -0.5881
 2345TIP3    H1 7041   6.289   0.612   0.216 -0.4673  0.5602 -0.8519
 2345TIP3    H2 7042   6.273   0.747   0.282 -1.7211  0.5120 -1.0198
 2346TIP3   OH2 7043   2.537   4.957   3.501  0.0534 -0.0308 -0.9125
 2346TIP3    H1 7044   2.605   4.896   3.530  0.0242 -0.3214 -1.4291
 2346TIP3    H2 7045   2.456   4.923   3.540  0.0573 -0.2555 -1.0969
 2347TIP3   OH2 7046   0.157   5.578   4.957  0.0339 -0.2587  0.9598
 2347TIP3    H1 7047   0.124   5.659   4.920 -0.2539 -0.8125 -0.0494
 2347TIP3    H2 7048   0.157   5.516   4.884  2.7661 -0.4676  1.0403
 2348TIP3   OH2 7049   4.570   2.214   0.982 -0.1934  0.3529 -0.1524
 2348TIP3    H1 7050   4.664   2.223   0.993  0.1188 -0.4303 -1.8199
 2348TIP3    H2 7051   4.533   2.292   1.023  1.3195  1.6418 -1.1181
 2349TIP3   OH2 7052   5.403   0.891   0.785  0.8969 -0.5627  0.2499
 2349TIP3    H1 7053   5.409   0.986   0.786 -1.3365 -0.3630  0.8469
 2349TIP3    H2 7054   5.485   0.861   0.823  0.4949  1.2445  2.8100
 2350TIP3   OH2 7055   0.614   2.292   1.718 -0.7762 -0.2735 -0.5412
 2350TIP3    H1 7056   0.655   2.294   1.805 -0.8106 -1.5931 -0.4821
 2350TIP3    H2 7057   0.688   2.284   1.657 -0.7587  0.5636 -0.6496
 2351TIP3   OH2 7058   3.205   1.477   3.652 -0.5779 -0.3032  1.0055
 2351TIP3    H1 7059   3.116   1.487   3.619 -0.4848 -0.4900  0.6890
 2351TIP3    H2 7060   3.222   1.557   3.701 -0.6102  0.1280  0.3241
 2352TIP3   OH2 7061   0.560   2.153   4.933 -0.0920 -0.3685  0.1633
 2352TIP3    H1 7062   0.652   2.130   4.918 -0.5017 -1.3425 -1.0618
 2352TIP3    H2 7063   0.557   2.248   4.922  0.8873 -0.2253  0.9781
 2353TIP3   OH2 7064   4.451   5.752   3.529  0.2934 -1.0097  0.3258
 2353TIP3    H1 7065   4.367   5.714   3.504 -0.0803 -0.5166  0.8306
 2353TIP3    H2 7066   4.455   5.835   3.482 -1.4026  1.0109  3.4495
 2354TIP3   OH2 7067   0.617   2.519   1.129  0.1065 -0.1286  0.2343
 2354TIP3    H1 7068   0.690   2.506   1.189  1.3434 -2.3160 -1.5976
 2354TIP3    H2 7069   0.555   2.574   1.178  1.0448 -1.6998  3.4754
 2355TIP3   OH2 7070   4.473   0.745   0.721 -0.4855 -0.6557 -0.1018
 2355TIP3    H1 7071   4.439   0.829   0.750 -0.1008 -0.7271  0.5569
 2355TIP3    H2 7072   4.468   0.749   0.625 -0.6358  0.0364 -0.0676
 2356TIP3   OH2 7073   4.878   5.542   3.707  0.1942 -0.3543  0.2565
 2356TIP3    H1 7074   4.878   5.528   3.801  2.0284  0.2536  0.3865
 2356TIP3    H2 7075   4.921   5.464   3.671  0.6523 -0.0037  0.0394
 2357TIP3   OH2 7076   0.577   3.311   4.080  0.2804  0.1934  0.3072
 2357TIP3    H1 7077   0.518   3.236   4.077  0.1052  0.2664  1.4497
 2357TIP3    H2 7078   0.603   3.325   3.989  0.3903 -1.3023  0.0864
 2358TIP3   OH2 7079   3.436   1.689   4.007  0.5905  0.0058 -0.1985
 2358TIP3    H1 7080   3.388   1.660   3.930 -1.0518 -0.1611  0.8477
 2358TIP3    H2 7081   3.434   1.614   4.067  1.1527  0.3984  0.3323
 2359TIP3   OH2 7082   3.161   4.219   3.474  1.0120 -0.1811 -0.3141
 2359TIP3    H1 7083   3.120   4.152   3.419 -1.2192  0.9799 -0.1671
 2359TIP3    H2 7084   3.088   4.269   3.510  2.3912 -0.4308  3.1940
 2360TIP3   OH2 7085   0.421   0.813   2.166  0.2326  0.0917  0.2814
 2360TIP3    H1 7086   0.462   0.731   2.193 -1.4264 -0.8155  0.1668
 2360TIP3    H2 7087   0.432   0.871   2.241  1.1133 -0.3437  0.5024
 2361TIP3   OH2 7088   1.176   2.209   4.301 -0.1472 -0.4921 -0.1213
 2361TIP3    H1 7089   1.111   2.142   4.322  1.5848 -1.9646  0.8907
 2361TIP3    H2 7090   1.224   2.174   4.226  0.2341 -0.0079 -0.1116
 2362TIP3   OH2 7091   6.348   0.379   2.195 -0.5139 -0.1174 -0.0986
 2362TIP3    H1 7092   6.289   0.355   2.267  0.4991  0.4080  0.9318
 2362TIP3    H2 7093   6.412   0.308   2.191 -0.2535  0.1170 -0.1258
 2363TIP3   OH2 7094   0.549   1.492   4.985  0.0696  0.2568  0.2474
 2363TIP3    H1 7095   0.538   1.587   4.982  0.0673  0.2358 -0.5838
 2363TIP3    H2 7096   0.484   1.458   4.924  0.4193 -0.2525  0.1555
 2364TIP3   OH2 7097   3.600   3.627   2.472  0.4164  1.0539  0.2625
 2364TIP3    H1 7098   3.666   3.588   2.529 -0.1649  1.7629  1.4540
 2364TIP3    H2 7099   3.637   3.712   2.448 -0.0110  1.4179  0.8684
 2365TIP3   OH2 7100   1.025   4.468   1.113  0.1903 -0.2809 -0.4047
 2365TIP3    H1 7101   0.989   4.467   1.024 -1.4232 -1.5949  0.2182
 2365TIP3    H2 7102   1.075   4.386   1.119  2.8684  1.2104 -1.0363
 2366TIP3   OH2 7103   1.038   3.090   0.824  0.4093 -0.5008  0.1787
 2366TIP3    H1 7104   1.044   3.049   0.910 -0.2207  0.1689  0.5560
 2366TIP3    H2 7105   1.059   3.020   0.762 -0.2569 -1.2915  0.8247
 2367TIP3   OH2 7106   2.133   2.758   4.869 -0.1843  0.6340 -0.1824
 2367TIP3    H1 7107   2.052   2.806   4.885 -2.2536 -3.1601  2.4983
 2367TIP3    H2 7108   2.126   2.727   4.779 -1.3346  1.0419 -0.2432
 2368TIP3   OH2 7109   3.898   4.304   4.385  0.0304  0.1086  0.4741
 2368TIP3    H1 7110   3.847   4.301   4.465  0.7746 -0.1358  0.9451
 2368TIP3    H2 7111   3.881   4.391   4.349  0.1482  0.4328  1.1954
 2369TIP3   OH2 7112   1.030   1.785   3.962  0.0794  0.5804  0.9791
 2369TIP3    H1 7113   0.966   1.714   3.968  1.7760 -1.3943 -1.9702
 2369TIP3    H2 7114   1.097   1.763   4.026  0.6889 -0.6849 -0.0436
 2370TIP3   OH2 7115   1.227   3.430   1.347  0.2360  0.1124 -0.3013
 2370TIP3    H1 7116   1.243   3.417   1.254 -0.2790  3.1162 -0.9299
 2370TIP3    H2 7117   1.132   3.421   1.357  0.4700 -2.1808  0.3912
 2371TIP3   OH2 7118   0.500   1.397   1.973  0.1108 -0.8274 -0.0846
 2371TIP3    H1 7119   0.413   1.358   1.971  0.0862 -0.7361 -1.4887
 2371TIP3    H2 7120   0.546   1.358   1.898  0.7768  0.2468 -0.2583
 2372TIP3   OH2 7121   2.160   1.808   2.314 -0.4061 -0.2717 -0.4943
 2372TIP3    H1 7122   2.119   1.723   2.298 -0.6727 -0.0900 -0.7747
 2372TIP3    H2 7123   2.236   1.809   2.256 -0.8681  0.0180 -1.1037
 2373TIP3   OH2 7124   5.264   4.421   4.771  0.2195  0.1095 -0.8328
 2373TIP3    H1 7125   5.260   4.457   4.859 -0.1021  0.8626 -1.1415
 2373TIP3    H2 7126   5.309   4.337   4.780  0.5882  0.3926 -0.0243
 2374TIP3   OH2 7127   0.785   2.978   2.273 -0.4968 -0.3101  0.1652
 2374TIP3    H1 7128   0.787   3.037   2.349 -2.6352 -0.5492  0.4485
 2374TIP3    H2 7129   0.858   2.918   2.289  1.7038  2.0887 -0.0764
 2375TIP3   OH2 7130   1.176   2.119   0.988 -0.3908 -0.3835 -0.6632
 2375TIP3    H1 7131   1.159   2.214   0.982  0.7096 -0.1650 -0.4590
 2375TIP3    H2 7132   1.105   2.079   0.938 -1.7902  0.4604  0.5650
 2376TIP3   OH2 7133   5.700   0.143   0.561 -0.1660 -0.2572  0.4472
 2376TIP3    H1 7134   5.705   0.209   0.631 -1.1018  0.9543 -0.5826
 2376TIP3    H2 7135   5.719   0.060   0.605  0.8357  0.6632  1.8254
 2377TIP3   OH2 7136   5.988   5.749   3.576 -0.2337  0.2087 -0.3277
 2377TIP3    H1 7137   5.965   5.716   3.662 -2.3510  2.8355  0.2616
 2377TIP3    H2 7138   6.081   5.769   3.581 -0.4719  1.0415  1.6730
 2378TIP3   OH2 7139   1.264   0.314   1.351  0.0261 -0.2242 -0.6568
 2378TIP3    H1 7140   1.250   0.377   1.281  0.5309 -0.1659 -0.7062
 2378TIP3    H2 7141   1.356   0.290   1.345  0.1420 -0.0100  0.1595
 2379TIP3   OH2 7142   0.791   5.639   0.751 -0.0858 -0.5268  0.2511
 2379TIP3    H1 7143   0.805   5.547   0.727 -1.5755 -0.4600 -1.0135
 2379TIP3    H2 7144   0.719   5.637   0.815 -0.4625 -0.2142 -0.1561
 2380TIP3   OH2 7145   3.286   0.812   2.243 -0.2447  0.6164  1.0453
 2380TIP3    H1 7146   3.285   0.853   2.330  0.9388  0.1964  1.2825
 2380TIP3    H2 7147   3.276   0.884   2.182 -0.5110  0.9895  1.5217
 2381TIP3   OH2 7148   2.030   3.874   1.413  0.2457 -0.1986 -0.7917
 2381TIP3    H1 7149   2.032   3.798   1.472  0.3231  0.5031  0.1396
 2381TIP3    H2 7150   1.993   3.840   1.332 -2.2573 -0.6810  0.4478
 2382TIP3   OH2 7151   2.326   5.392   0.008  0.0824  0.3904 -0.0923
 2382TIP3    H1 7152   2.374   5.468   0.041 -0.8964  0.7443  0.5702
 2382TIP3    H2 7153   2.334   5.327   0.077 -1.2548  0.8283  0.4992
 2383TIP3   OH2 7154   5.763   1.727   2.691  0.4021  0.1091  0.0366
 2383TIP3    H1 7155   5.748   1.637   2.661  0.2297 -0.5617  1.9891
 2383TIP3    H2 7156   5.850   1.725   2.731  0.8114  1.0778 -0.7580
 2384TIP3   OH2 7157   4.046   5.943   1.360  0.4210 -0.4654 -0.1277
 2384TIP3    H1 7158   4.050   5.974   1.450  0.8330  0.6561 -0.5077
 2384TIP3    H2 7159   4.036   6.023   1.308  0.8277 -1.0365 -1.1112
 2385TIP3   OH2 7160   4.901   0.805   4.622  0.1950  0.0451 -0.3518
 2385TIP3    H1 7161   4.840   0.751   4.673 -0.1205  0.2095 -0.5505
 2385TIP3    H2 7162   4.966   0.834   4.686  0.1018 -0.1875 -0.1502
 2386TIP3   OH2 7163   2.812   1.208   4.371  0.3472  0.4659 -0.2277
 2386TIP3    H1 7164   2.854   1.277   4.320  0.3420  0.7240  0.1103
 2386TIP3    H2 7165   2.866   1.131   4.358  0.6583  0.6746 -0.1731
 2387TIP3   OH2 7166   2.734   2.964   4.414 -0.1965 -0.1502 -0.3028
 2387TIP3    H1 7167   2.781   3.024   4.472  0.7028 -0.6602 -0.4708
 2387TIP3    H2 7168   2.686   3.020   4.354  1.1274  0.4207 -0.8638
 2388TIP3   OH2 7169   1.129   0.217   5.055 -0.0847  0.3695 -0.0521
 2388TIP3    H1 7170   1.081   0.300   5.046  1.0918  1.0895  0.1373
 2388TIP3    H2 7171   1.064   0.156   5.091 -2.0543  0.1341 -3.5180
 2389TIP3   OH2 7172   3.808   0.338   3.209  0.9508 -0.3219 -0.6646
 2389TIP3    H1 7173   3.897   0.360   3.235  0.7070  0.2423 -0.2958
 2389TIP3    H2 7174   3.817   0.305   3.119  1.3948  0.7803 -1.0372
 2390TIP3   OH2 7175   4.938   2.014   1.118 -0.0823  0.4290 -0.0413
 2390TIP3    H1 7176   4.899   1.928   1.104 -0.9503  0.8453 -0.2850
 2390TIP3    H2 7177   4.898   2.070   1.051  1.5779  0.7066 -0.8632
 2391TIP3   OH2 7178   0.660   4.303   3.690 -0.2853  0.0788 -0.5584
 2391TIP3    H1 7179   0.672   4.273   3.600 -2.5299 -1.0485 -0.5572
 2391TIP3    H2 7180   0.683   4.395   3.688  0.0092 -0.0019 -2.2338
 2392TIP3   OH2 7181   5.376   3.050   0.649 -0.4079 -0.1256 -0.3673
 2392TIP3    H1 7182   5.304   3.113   0.655 -1.8072 -1.8075  2.3111
 2392TIP3    H2 7183   5.333   2.964   0.655  1.5626 -1.3641 -2.2747
 2393TIP3   OH2 7184   1.503   4.430   0.946 -0.2842 -0.7924 -0.1895
 2393TIP3    H1 7185   1.579   4.481   0.975  1.3244 -0.8970 -3.7102
 2393TIP3    H2 7186   1.435   4.496   0.931  0.3331 -0.2026 -0.4623
 2394TIP3   OH2 7187   4.930   2.812   2.512 -0.2405 -0.0382 -0.0501
 2394TIP3    H1 7188   4.942   2.857   2.596  2.8694  1.0502 -0.9411
 2394TIP3    H2 7189   4.968   2.726   2.525  0.7697  0.3285 -0.4369
 2395TIP3   OH2 7190   4.430   1.751   0.154 -0.0536 -0.6001  0.0484
 2395TIP3    H1 7191   4.520   1.723   0.141  0.6654  1.9595 -1.2239
 2395TIP3    H2 7192   4.391   1.751   0.067 -0.1026  1.6938 -0.0033
 2396TIP3   OH2 7193   5.547   5.520   1.979  0.1490  0.3659  0.3081
 2396TIP3    H1 7194   5.456   5.492   1.986 -0.1207  1.5741  2.2258
 2396TIP3    H2 7195   5.547   5.610   2.009  1.7801  0.8841 -1.0711
 2397TIP3   OH2 7196   4.886   3.111   4.774 -0.2533  0.5111  0.1824
 2397TIP3    H1 7197   4.980   3.126   4.780  0.2807 -1.0159 -2.6929
 2397TIP3    H2 7198   4.860   3.149   4.690 -2.0526  0.2014  0.5565
 2398TIP3   OH2 7199   1.259   0.879   3.329 -0.0937 -0.2919 -0.0426
 2398TIP3    H1 7200   1.239   0.849   3.240 -0.2563 -0.0718 -0.0810
 2398TIP3    H2 7201   1.255   0.800   3.383  0.9629 -0.6007 -0.3887
 2399TIP3   OH2 7202   2.739   1.495   1.873 -0.5946 -0.2923  0.9431
 2399TIP3    H1 7203   2.835   1.498   1.872 -0.5280 -1.6030 -1.1241
 2399TIP3    H2 7204   2.714   1.560   1.939  1.7183 -0.4593  2.0783
 2400TIP3   OH2 7205   0.187   1.243   3.812  0.0417  0.1911  0.3705
 2400TIP3    H1 7206   0.216   1.224   3.901  1.9426 -1.7115 -0.5597
 2400TIP3    H2 7207   0.199   1.161   3.765 -1.1148  1.0924 -1.6042
 2401TIP3   OH2 7208   5.837   4.781   1.734  0.3442  0.1220 -0.2588
 2401TIP3    H1 7209   5.816   4.865   1.694  0.5149  0.0661 -0.4691
 2401TIP3    H2 7210   5.784   4.778   1.813  0.6435  0.6095 -0.0323
 2402TIP3   OH2 7211   6.092   2.986   1.265  0.1142  0.1081 -0.1092
 2402TIP3    H1 7212   6.056   3.032   1.189 -1.6367  1.2063  1.2772
 2402TIP3    H2 7213   6.015   2.953   1.311  0.9047  1.3390  2.2980
 2403TIP3   OH2 7214   2.240   2.946   3.516  0.1535  0.5568 -0.1459
 2403TIP3    H1 7215   2.290   2.932   3.597  1.0187  1.5528 -0.4804
 2403TIP3    H2 7216   2.267   2.875   3.458 -1.3195 -0.8309  0.7983
 2404TIP3   OH2 7217   1.646   3.984   2.419  0.5971  0.1519 -0.4829
 2404TIP3    H1 7218   1.697   4.006   2.498  1.3504  0.2214 -0.9759
 2404TIP3    H2 7219   1.581   3.920   2.450  0.9695  0.0746  0.1709
 2405TIP3   OH2 7220   3.999   5.821   3.890  0.7540 -0.2818  0.3101
 2405TIP3    H1 7221   4.058   5.757   3.852  1.5609  0.9925 -0.6569
 2405TIP3    H2 7222   4.055   5.891   3.922 -0.1281  0.1762  0.9193
 2406TIP3   OH2 7223   0.419   5.376   3.449  0.4481 -0.1272  0.3298
 2406TIP3    H1 7224   0.389   5.448   3.394 -0.1391 -1.4777 -1.2051
 2406TIP3    H2 7225   0.402   5.405   3.538 -0.8637  1.1518 -0.2984
 2407TIP3   OH2 7226   4.904   2.594   0.610  0.0752  0.0563  0.0444
 2407TIP3    H1 7227   4.967   2.569   0.543  1.2039 -0.8420  1.4032
 2407TIP3    H2 7228   4.928   2.684   0.632  1.0287 -0.3436  0.6898
 2408TIP3   OH2 7229   1.873   2.781   4.943  0.4437  0.1388  0.1240
 2408TIP3    H1 7230   1.814   2.769   4.868 -0.5935  0.1714  0.9106
 2408TIP3    H2 7231   1.874   2.875   4.958 -0.8503 -0.0054  1.2904
 2409TIP3   OH2 7232   1.113   1.245   2.983 -0.2962 -0.0330  0.3380
 2409TIP3    H1 7233   1.118   1.155   3.014 -0.3224 -0.5656 -1.1272
 2409TIP3    H2 7234   1.090   1.296   3.061 -1.1929 -1.3993  1.0005
 2410TIP3   OH2 7235   0.050   3.708   0.500 -0.2022 -0.0922 -0.3789
 2410TIP3    H1 7236   0.093   3.725   0.416 -0.3026 -0.6806 -0.5588
 2410TIP3    H2 7237   0.100   3.758   0.564  1.2594 -1.3840 -0.4506
 2411TIP3   OH2 7238   6.024   4.671   1.105  0.6333  0.2125 -0.2931
 2411TIP3    H1 7239   5.963   4.745   1.097  0.6104  0.2787  0.4024
 2411TIP3    H2 7240   6.055   4.655   1.016 -0.7837 -0.1427 -0.7562
 2412TIP3   OH2 7241   5.606   2.965   1.008  0.0472 -0.5405  0.4725
 2412TIP3    H1 7242   5.540   2.919   0.956  0.8815 -1.0232 -0.1782
 2412TIP3    H2 7243   5.584   2.945   1.099 -1.7502  0.7437  0.3806
 2413TIP3   OH2 7244   3.769   5.116   3.295  0.2106  0.0669  0.0030
 2413TIP3    H1 7245   3.784   5.041   3.238  1.3264 -1.4228  2.0929
 2413TIP3    H2 7246   3.728   5.078   3.373  0.1767  1.7458  0.8428
 2414TIP3   OH2 7247   4.503   2.903   4.610  0.8834  0.1630  0.2545
 2414TIP3    H1 7248   4.567   2.904   4.540  1.6616  1.5868  0.9371
 2414TIP3    H2 7249   4.545   2.854   4.681  1.0385  0.6671  0.5203
 2415TIP3   OH2 7250   2.770   2.297   2.676 -0.2035  0.2023  0.1694
 2415TIP3    H1 7251   2.821   2.294   2.757  1.7045  0.0194 -0.9764
 2415TIP3    H2 7252   2.768   2.390   2.652 -2.7347  0.5864  1.5416
 2416TIP3   OH2 7253  -0.004   3.918   1.929  0.2975 -0.0803 -0.0358
 2416TIP3    H1 7254   0.006   3.874   1.845 -1.1728 -1.4114  0.4329
 2416TIP3    H2 7255   0.027   3.854   1.994 -1.2467 -0.2316  0.6069
 2417TIP3   OH2 7256   3.672   6.013   2.363  0.3872  0.0994 -0.1768
 2417TIP3    H1 7257   3.721   5.931   2.368  1.9725  1.0996  2.3811
 2417TIP3    H2 7258   3.599   5.993   2.304 -0.3056 -3.7001  1.6676
 2418TIP3   OH2 7259   1.290   5.943   1.923  0.6977 -0.2771 -0.4379
 2418TIP3    H1 7260   1.358   5.878   1.907  0.1303 -0.6141 -1.4938
 2418TIP3    H2 7261   1.303   6.009   1.856 -0.0626 -0.3803 -0.6979
 2419TIP3   OH2 7262   5.078   0.687   2.448 -0.0673  0.2351 -0.4054
 2419TIP3    H1 7263   5.068   0.592   2.442  0.4285  0.1177  0.4651
 2419TIP3    H2 7264   5.075   0.706   2.542  0.5512  0.9977 -0.5248
 2420TIP3   OH2 7265   0.288   2.539   4.217 -0.0180 -0.3694  0.4644
 2420TIP3    H1 7266   0.334   2.530   4.300  1.0826  0.9650  0.0514
 2420TIP3    H2 7267   0.280   2.634   4.205 -3.2665 -0.5306  0.6889
 2421TIP3   OH2 7268   3.862   4.416   1.113  0.4636  0.0358  0.1659
 2421TIP3    H1 7269   3.891   4.392   1.201 -1.4466 -3.9047 -0.0764
 2421TIP3    H2 7270   3.920   4.368   1.054 -0.1981  0.1538 -0.6133
 2422TIP3   OH2 7271   5.881   5.103   3.304  0.1797  0.4383  0.0216
 2422TIP3    H1 7272   5.957   5.108   3.361 -1.2584 -0.9918  2.2189
 2422TIP3    H2 7273   5.806   5.102   3.363 -1.4322 -0.9590 -1.8787
 2423TIP3   OH2 7274   2.776   3.873   0.323  0.0296 -0.2776  0.2992
 2423TIP3    H1 7275   2.752   3.966   0.315  0.0874 -0.2649  0.2714
 2423TIP3    H2 7276   2.745   3.834   0.241  1.6978  0.0851 -0.5697
 2424TIP3   OH2 7277   3.578   2.402   0.336 -0.1474 -0.3057  0.3075
 2424TIP3    H1 7278   3.593   2.391   0.430 -0.6074 -1.5897  0.2464
 2424TIP3    H2 7279   3.484   2.392   0.325 -0.3628  1.7249 -0.0752
 2425TIP3   OH2 7280   0.986   1.030   0.183  0.0302  0.1127 -0.5322
 2425TIP3    H1 7281   0.894   1.022   0.207  0.7981  1.3021  3.5769
 2425TIP3    H2 7282   1.024   0.944   0.202 -0.3203 -0.8789 -3.6651
 2426TIP3   OH2 7283   0.391   2.836   0.192  0.5249 -0.6049  0.9041
 2426TIP3    H1 7284   0.367   2.745   0.213  1.2738 -1.0485 -0.0582
 2426TIP3    H2 7285   0.485   2.832   0.176  0.1150 -0.2824 -2.0936
 2427TIP3   OH2 7286   3.594   1.962   3.071 -0.1571 -0.4812  0.1801
 2427TIP3    H1 7287   3.504   1.992   3.079 -0.3211 -0.5448 -1.1819
 2427TIP3    H2 7288   3.618   1.982   2.981  1.0006 -0.9963  0.3559
 2428TIP3   OH2 7289   1.523   0.380   0.341  0.2992 -0.6525 -0.2275
 2428TIP3    H1 7290   1.527   0.459   0.287  0.4148 -0.9967 -0.7243
 2428TIP3    H2 7291   1.432   0.378   0.373  0.2920 -0.3286 -0.2235
 2429TIP3   OH2 7292   1.936   2.819   2.214  0.4940 -0.2362  0.4689
 2429TIP3    H1 7293   1.848   2.788   2.235 -0.2021  0.5769 -1.1216
 2429TIP3    H2 7294   1.923   2.904   2.173  1.5984 -1.8430 -3.7464
 2430TIP3   OH2 7295   1.698   4.919   0.590  0.0927 -0.0790 -0.1832
 2430TIP3    H1 7296   1.754   4.952   0.659  0.1092 -1.3929  0.4576
 2430TIP3    H2 7297   1.730   4.961   0.510  1.1706  0.1484  0.3556
 2431TIP3   OH2 7298   0.914   2.087   4.253 -0.0644  0.0207  0.2139
 2431TIP3    H1 7299   0.891   2.121   4.339  2.0259 -0.0042  0.8341
 2431TIP3    H2 7300   0.878   1.998   4.251  1.4130 -0.6715  1.8450
 2432TIP3   OH2 7301   0.917   0.775   5.176  0.0371 -0.2914 -0.3576
 2432TIP3    H1 7302   0.965   0.857   5.166 -0.9521  0.3172 -0.2908
 2432TIP3    H2 7303   0.962   0.713   5.119  0.6231  0.3780 -0.6333
 2433TIP3   OH2 7304   4.913   1.708   1.805 -0.1270  0.5592  0.2089
 2433TIP3    H1 7305   4.826   1.735   1.835  0.5718  0.7635  2.2555
 2433TIP3    H2 7306   4.965   1.701   1.886  0.8343 -3.0519 -0.5271
 2434TIP3   OH2 7307   3.073   4.334   3.996 -0.3632 -0.2907  0.5677
 2434TIP3    H1 7308   3.111   4.279   4.065 -3.2926 -2.2186  0.8612
 2434TIP3    H2 7309   3.066   4.275   3.920 -1.2385  0.4473  0.0613
 2435TIP3   OH2 7310   4.245   0.986   1.596  0.4632  0.3769 -0.1784
 2435TIP3    H1 7311   4.325   0.936   1.611 -0.7693 -1.3532  0.9525
 2435TIP3    H2 7312   4.184   0.924   1.555 -1.1856  0.8021  1.4635
 2436TIP3   OH2 7313   4.284   5.617   2.848  0.1617 -0.2636  0.2933
 2436TIP3    H1 7314   4.322   5.529   2.844 -2.0109 -1.2987  0.7101
 2436TIP3    H2 7315   4.359   5.676   2.845  1.6406 -2.0923 -1.0216
 2437TIP3   OH2 7316   0.123   5.381   4.780 -0.2867 -0.1751  0.1118
 2437TIP3    H1 7317   0.095   5.369   4.689  0.5474 -1.7009  0.0251
 2437TIP3    H2 7318   0.218   5.392   4.774 -0.3976  1.2240  0.6980
 2438TIP3   OH2 7319   5.169   3.429   3.892  0.9502 -0.3347 -0.0322
 2438TIP3    H1 7320   5.149   3.336   3.901  1.4169 -0.3169  1.5678
 2438TIP3    H2 7321   5.240   3.444   3.954  1.5142  0.9127 -0.9344
 2439TIP3   OH2 7322   4.313   3.349   0.495  0.0222 -0.2276  0.4011
 2439TIP3    H1 7323   4.341   3.259   0.480 -2.6468 -0.8291 -1.7402
 2439TIP3    H2 7324   4.315   3.390   0.409 -2.2314  0.6432  0.6938
 2440TIP3   OH2 7325   3.378   5.716   4.716 -0.3195  0.3684  0.0934
 2440TIP3    H1 7326   3.285   5.721   4.739 -0.5358  0.6855 -0.8169
 2440TIP3    H2 7327   3.382   5.748   4.626  0.2728 -2.2662 -0.8981
 2441TIP3   OH2 7328   4.362   0.075   2.925 -0.7027 -0.3815  0.0538
 2441TIP3    H1 7329   4.371  -0.016   2.954 -1.9312 -0.4941  0.1633
 2441TIP3    H2 7330   4.279   0.076   2.876  0.5360  0.1314 -2.1932
 2442TIP3   OH2 7331   5.779   2.632   4.899  0.0193 -0.4069  0.2307
 2442TIP3    H1 7332   5.811   2.558   4.949  0.0916 -0.8069 -0.3928
 2442TIP3    H2 7333   5.691   2.606   4.871 -0.6887  0.4968  1.5496
 2443TIP3   OH2 7334   5.830   2.260   1.864  0.1551  0.1701  0.1083
 2443TIP3    H1 7335   5.878   2.242   1.945  1.8576  1.4065 -0.5660
 2443TIP3    H2 7336   5.874   2.205   1.798  0.8150  1.4611 -0.5567
 2444TIP3   OH2 7337   1.468   2.189   2.454 -0.0115 -0.1456 -0.3715
 2444TIP3    H1 7338   1.542   2.129   2.463  1.7159  1.6931 -1.4736
 2444TIP3    H2 7339   1.490   2.243   2.378 -2.7892  0.1294 -1.0899
 2445TIP3   OH2 7340   6.257   1.898   3.855  0.5690 -0.3212  0.3914
 2445TIP3    H1 7341   6.181   1.846   3.882  0.8230 -0.5828  0.6079
 2445TIP3    H2 7342   6.222   1.985   3.839  0.5704  0.1268  2.5590
 2446TIP3   OH2 7343   2.761   1.759   2.430  0.1886 -0.3438 -0.1770
 2446TIP3    H1 7344   2.763   1.730   2.339  1.1585  1.5896 -0.8217
 2446TIP3    H2 7345   2.838   1.718   2.470 -1.1539 -2.5863  0.3091
 2447TIP3   OH2 7346   1.278   3.593   2.503 -0.2954 -0.2475 -0.4375
 2447TIP3    H1 7347   1.250   3.658   2.439  0.7810  0.5715 -0.0991
 2447TIP3    H2 7348   1.321   3.525   2.452  0.4601  0.3488 -0.6029
 2448TIP3   OH2 7349   4.264   1.618   3.050  0.2126  0.1929  0.2892
 2448TIP3    H1 7350   4.214   1.657   3.121  0.4578 -0.4451  0.8213
 2448TIP3    H2 7351   4.355   1.643   3.069  0.2095  0.5584 -0.1574
 2449TIP3   OH2 7352   0.718   4.593   1.499  0.1142  0.0647 -0.0327
 2449TIP3    H1 7353   0.674   4.661   1.551 -0.3776 -1.0023  0.9844
 2449TIP3    H2 7354   0.717   4.627   1.410  1.2370  2.0767  0.6596
 2450TIP3   OH2 7355   0.906   5.568   4.433  0.0855  0.5216 -0.3707
 2450TIP3    H1 7356   0.929   5.480   4.463 -4.1341 -0.4800  0.6003
 2450TIP3    H2 7357   0.881   5.614   4.513  0.4329  2.0110 -1.0908
 2451TIP3   OH2 7358   5.675   5.987   0.316 -0.3758  0.2412  0.1737
 2451TIP3    H1 7359   5.635   5.911   0.358 -0.1937 -0.0422 -0.1600
 2451TIP3    H2 7360   5.631   5.993   0.231 -0.6547  0.7347  0.3482
 2452TIP3   OH2 7361   4.067   3.230   2.023  0.5644  0.2682 -0.0799
 2452TIP3    H1 7362   4.004   3.168   2.059 -0.1410  0.3692 -1.1091
 2452TIP3    H2 7363   4.140   3.229   2.085 -0.8736  0.9228  1.7121
 2453TIP3   OH2 7364   5.826   2.718   4.401 -0.1798 -0.4654  0.2038
 2453TIP3    H1 7365   5.738   2.705   4.365 -1.3613  1.9284  1.9256
 2453TIP3    H2 7366   5.833   2.651   4.470 -0.4413 -0.9910 -0.2702
 2454TIP3   OH2 7367   1.930   5.693   3.367 -0.0505  0.0058  0.1720
 2454TIP3    H1 7368   1.911   5.748   3.442  0.8541 -0.4751  0.7710
 2454TIP3    H2 7369   1.844   5.674   3.329 -0.5354  0.1033  1.1864
 2455TIP3   OH2 7370   3.447   4.802   1.843 -0.0102  0.3921 -0.0995
 2455TIP3    H1 7371   3.451   4.842   1.756  1.2261  1.1843  0.3005
 2455TIP3    H2 7372   3.476   4.871   1.903 -0.9001 -0.1223  0.9660
 2456TIP3   OH2 7373   0.522   0.757   1.763 -0.2004  0.2092  0.4528
 2456TIP3    H1 7374   0.531   0.672   1.721  1.7805  0.1696  0.8743
 2456TIP3    H2 7375   0.447   0.797   1.720  0.2756 -0.8037 -1.4216
 2457TIP3   OH2 7376   6.230   2.569   0.382 -0.2762 -0.5949 -0.1512
 2457TIP3    H1 7377   6.234   2.620   0.463 -1.8567  0.1944 -0.5475
 2457TIP3    H2 7378   6.311   2.517   0.383  0.9954  1.2853  0.6728
 2458TIP3   OH2 7379   5.564   2.957   4.451 -0.3138 -0.0253  0.2509
 2458TIP3    H1 7380   5.486   2.940   4.399 -0.4952 -1.4453  0.9439
 2458TIP3    H2 7381   5.589   2.871   4.486  1.9073  0.2818 -0.4414
 2459TIP3   OH2 7382   0.979   2.660   4.738 -0.3127  0.4155  0.7132
 2459TIP3    H1 7383   0.897   2.690   4.698 -0.0729 -0.7572 -0.7462
 2459TIP3    H2 7384   1.015   2.738   4.779 -0.9436  1.5345 -0.7719
 2460TIP3   OH2 7385   0.664   1.059   4.553 -0.9316  0.5803 -0.1317
 2460TIP3    H1 7386   0.665   1.111   4.633 -0.5512 -0.8411  0.8300
 2460TIP3    H2 7387   0.577   1.073   4.516 -0.8036  1.9520  0.0267
 2461TIP3   OH2 7388   5.130   0.070   4.161  0.4345 -0.0723 -0.0644
 2461TIP3    H1 7389   5.155   0.132   4.230 -2.1709  1.2106 -0.1565
 2461TIP3    H2 7390   5.072   0.008   4.204  0.8345 -0.8209 -0.5830
 2462TIP3   OH2 7391   2.661   1.871   3.908 -0.1898  0.1966 -0.2442
 2462TIP3    H1 7392   2.593   1.891   3.973  1.6605  0.3981  1.7375
 2462TIP3    H2 7393   2.679   1.778   3.920  0.4800  0.3356 -0.1434
 2463TIP3   OH2 7394   4.909   0.439   0.514  0.3969 -1.0150  0.0038
 2463TIP3    H1 7395   4.822   0.458   0.551  0.7674 -1.4853  1.1737
 2463TIP3    H2 7396   4.891   0.383   0.439 -0.4565  0.9098 -1.3072
 2464TIP3   OH2 7397   4.946   1.643   0.758  0.0858 -0.3405 -0.3366
 2464TIP3    H1 7398   4.989   1.703   0.697 -1.5484  1.4584  0.1992
 2464TIP3    H2 7399   4.862   1.623   0.716 -0.8580  0.5537  1.0763
 2465TIP3   OH2 7400   2.829   3.252   1.508 -0.5241  0.4695 -0.4316
 2465TIP3    H1 7401   2.826   3.310   1.432  0.8288  0.7510 -0.2929
 2465TIP3    H2 7402   2.737   3.238   1.531 -0.9041  1.7236 -1.0983
 2466TIP3   OH2 7403   3.194   5.959   4.897  0.3332  0.0493  0.1495
 2466TIP3    H1 7404   3.235   5.963   4.984  1.0537  0.2080 -0.1875
 2466TIP3    H2 7405   3.168   5.867   4.887 -2.1315  0.4983  1.5722
 2467TIP3   OH2 7406   3.835   4.913   3.146 -0.1499 -0.4076 -0.0548
 2467TIP3    H1 7407   3.804   4.923   3.055 -0.6562  1.4648  0.2811
 2467TIP3    H2 7408   3.918   4.867   3.138 -0.0974 -0.1161 -1.5072
 2468TIP3   OH2 7409   1.381   1.522   1.126  0.1529 -0.0188 -0.1827
 2468TIP3    H1 7410   1.460   1.469   1.114  0.4109  0.5515 -1.1321
 2468TIP3    H2 7411   1.383   1.584   1.054 -0.5945  0.7324  0.4253
 2469TIP3   OH2 7412   4.543   5.503   4.497 -0.3680 -0.2182  0.6198
 2469TIP3    H1 7413   4.482   5.514   4.570 -0.1245 -1.1316  0.9725
 2469TIP3    H2 7414   4.498   5.444   4.436 -0.2880 -0.0111  0.3594
 2470TIP3   OH2 7415   4.315   4.140   3.159  0.0016  0.5936 -0.3185
 2470TIP3    H1 7416   4.277   4.154   3.245  0.6291  1.6596 -0.1925
 2470TIP3    H2 7417   4.267   4.200   3.101  0.6065  0.9969 -0.4084
 2471TIP3   OH2 7418   4.088   1.444   0.580  0.1374 -0.0161 -0.6635
 2471TIP3    H1 7419   4.147   1.504   0.534 -0.2601 -0.6747 -2.0775
 2471TIP3    H2 7420   4.145   1.372   0.608  0.3233  0.2301 -0.4016
 2472TIP3   OH2 7421   0.317   1.826   2.357  0.3143 -0.6858 -0.3107
 2472TIP3    H1 7422   0.408   1.799   2.372  0.3560  0.2931  1.4645
 2472TIP3    H2 7423   0.264   1.754   2.390  0.4510 -0.1280  1.1829
 2473TIP3   OH2 7424   0.785   1.105   2.419  0.5842 -0.1161 -0.2227
 2473TIP3    H1 7425   0.875   1.081   2.400  1.3726  0.1470  2.7803
 2473TIP3    H2 7426   0.750   1.032   2.469 -1.2090 -0.5836 -2.0114
 2474TIP3   OH2 7427   0.240   0.016   3.396  0.1901  0.1588  0.6430
 2474TIP3    H1 7428   0.191   0.096   3.417 -0.3203  0.0355 -0.0243
 2474TIP3    H2 7429   0.187  -0.027   3.329  0.7266 -0.4791  0.6211
 2475TIP3   OH2 7430   6.315   5.649   2.882 -0.1230  0.0444 -0.0933
 2475TIP3    H1 7431   6.396   5.621   2.925 -0.4637  0.5538  0.9058
 2475TIP3    H2 7432   6.316   5.603   2.798 -0.1656 -2.1632  1.0437
 2476TIP3   OH2 7433   1.916   0.633   2.991 -0.1141 -0.3633 -0.3022
 2476TIP3    H1 7434   1.858   0.559   3.009  1.5274 -1.5681  0.2743
 2476TIP3    H2 7435   1.997   0.593   2.962  0.7542  1.2324 -0.1759
 2477TIP3   OH2 7436   0.657   4.285   4.309 -0.3324  0.2034 -0.1984
 2477TIP3    H1 7437   0.607   4.356   4.267 -1.2102  0.8988  1.9060
 2477TIP3    H2 7438   0.748   4.309   4.295 -0.4681 -0.7418 -3.5586
 2478TIP3   OH2 7439   5.308   2.698   1.522 -0.2439  0.4035 -0.1529
 2478TIP3    H1 7440   5.276   2.676   1.609 -0.1611 -0.4487 -0.3287
 2478TIP3    H2 7441   5.319   2.793   1.523  0.5643  0.3093  1.0254
 2479TIP3   OH2 7442   3.685   2.024   0.538  0.3178  0.2804  0.2665
 2479TIP3    H1 7443   3.647   2.066   0.615 -0.4229  0.1236 -0.0096
 2479TIP3    H2 7444   3.770   2.067   0.527  0.2053  0.6632  0.8627
 2480TIP3   OH2 7445   0.887   5.835   0.584  0.0149  0.3693 -0.9641
 2480TIP3    H1 7446   0.840   5.912   0.617  0.0597 -0.0366  0.0894
 2480TIP3    H2 7447   0.862   5.765   0.644  3.2447  0.4661  0.7137
 2481TIP3   OH2 7448   2.317   2.912   4.239 -0.3848 -0.2459  0.4216
 2481TIP3    H1 7449   2.271   2.836   4.201 -1.5303 -0.1139  1.4868
 2481TIP3    H2 7450   2.346   2.882   4.325 -0.6263  0.4479  0.7505
 2482TIP3   OH2 7451   1.256   5.851   4.966 -0.6030 -0.1324 -0.1283
 2482TIP3    H1 7452   1.223   5.939   4.979 -0.4927  0.0577 -1.1240
 2482TIP3    H2 7453   1.342   5.863   4.926 -0.6449 -0.6952 -0.3924
 2483TIP3   OH2 7454   1.837   0.476   0.404  0.1250 -0.0759  0.0849
 2483TIP3    H1 7455   1.764   0.416   0.397  0.4985 -0.5633  0.3391
 2483TIP3    H2 7456   1.804   0.548   0.458  0.3842 -1.1602  1.7512
 2484TIP3   OH2 7457   0.301   4.459   4.376 -0.1254 -0.3815  0.6498
 2484TIP3    H1 7458   0.285   4.550   4.351  0.5820 -0.8058 -1.5779
 2484TIP3    H2 7459   0.330   4.464   4.467  0.6834  1.7144  0.3347
 2485TIP3   OH2 7460   0.195   3.322   3.690 -0.6868  0.1549 -0.1065
 2485TIP3    H1 7461   0.161   3.411   3.702 -1.0962 -0.0446  0.2829
 2485TIP3    H2 7462   0.116   3.267   3.683 -0.4401 -0.1438 -0.6348
 2486TIP3   OH2 7463   2.956   5.540   3.027 -0.1272 -0.0542  0.3678
 2486TIP3    H1 7464   2.909   5.561   2.946  1.8803  0.1170 -0.8243
 2486TIP3    H2 7465   2.896   5.484   3.076 -0.4548 -2.3689 -2.3995
 2487TIP3   OH2 7466   3.883   5.568   4.059  0.3713  0.0890  0.2848
 2487TIP3    H1 7467   3.965   5.615   4.071  1.2300 -0.9387 -1.2499
 2487TIP3    H2 7468   3.858   5.588   3.969 -0.6633 -0.2467  0.4881
 2488TIP3   OH2 7469   5.668   4.873   3.153 -0.1751  0.7991  0.0359
 2488TIP3    H1 7470   5.723   4.847   3.228  0.9588  0.8367 -0.7516
 2488TIP3    H2 7471   5.655   4.967   3.166 -0.8967  0.6123  0.7487
 2489TIP3   OH2 7472   2.016   2.240   1.682  0.3184  0.3740  0.1927
 2489TIP3    H1 7473   1.996   2.325   1.723  1.4060  1.3085 -1.1096
 2489TIP3    H2 7474   2.020   2.179   1.756 -0.8944  1.3658  1.1226
 2490TIP3   OH2 7475   0.327   1.733   3.721 -0.0909  0.4391 -0.0377
 2490TIP3    H1 7476   0.271   1.686   3.659  1.6973 -1.4771 -0.3268
 2490TIP3    H2 7477   0.394   1.775   3.666  1.7519 -1.6083  0.4815
 2491TIP3   OH2 7478   5.335   3.176   0.935 -0.2870 -0.5426  0.1752
 2491TIP3    H1 7479   5.302   3.204   0.850  0.0728 -2.2534 -0.5677
 2491TIP3    H2 7480   5.422   3.215   0.942 -0.1208 -0.7961 -0.4657
 2492TIP3   OH2 7481   2.128   1.752   4.058  0.1463  0.1552 -0.4635
 2492TIP3    H1 7482   2.130   1.824   4.120  0.2607 -0.7939  0.6748
 2492TIP3    H2 7483   2.050   1.702   4.082 -0.1729  0.1234 -1.5144
 2493TIP3   OH2 7484   4.003   2.037   0.151 -0.4156 -0.3708 -0.3452
 2493TIP3    H1 7485   3.932   2.100   0.165 -0.4144 -0.3924 -0.2410
 2493TIP3    H2 7486   3.998   2.016   0.058  1.1358  1.6385 -0.9708
 2494TIP3   OH2 7487   3.880   4.697   4.882 -0.2724  0.3339 -0.6000
 2494TIP3    H1 7488   3.922   4.703   4.968  0.5275 -1.8417 -0.7622
 2494TIP3    H2 7489   3.935   4.750   4.824  1.4699 -1.2435 -0.4875
 2495TIP3   OH2 7490   4.028   3.411   3.612  0.1739 -0.1644  0.0300
 2495TIP3    H1 7491   3.991   3.480   3.666  0.5213 -0.2534  0.3913
 2495TIP3    H2 7492   3.965   3.339   3.617 -1.0927  0.7558 -1.8238
 2496TIP3   OH2 7493   4.047   2.381   4.450 -0.9436  0.1164 -0.0841
 2496TIP3    H1 7494   4.038   2.421   4.536 -1.0253 -1.0714  0.4893
 2496TIP3    H2 7495   4.031   2.287   4.465  0.5069 -0.3416 -1.1151
 2497TIP3   OH2 7496   6.217   4.094   3.016  0.5284  0.5652 -0.2686
 2497TIP3    H1 7497   6.272   4.016   3.006  0.5000  0.5326 -0.1717
 2497TIP3    H2 7498   6.248   4.154   2.948  0.1552  0.2428 -0.7267
 2498TIP3   OH2 7499   2.526   1.377   3.049  0.2693 -0.2460 -0.0798
 2498TIP3    H1 7500   2.448   1.323   3.042 -0.7777  1.3288 -1.4534
 2498TIP3    H2 7501   2.577   1.355   2.971  1.2845 -1.3181  0.8450
 2499TIP3   OH2 7502   0.769   5.471   3.684  0.4989 -0.3837  0.6944
 2499TIP3    H1 7503   0.781   5.376   3.684  0.4763 -0.3873  0.6000
 2499TIP3    H2 7504   0.851   5.506   3.649  0.5605 -0.3613  0.8642
 2500TIP3   OH2 7505   5.427   2.562   3.223 -0.3668  0.3958 -0.0662
 2500TIP3    H1 7506   5.345   2.542   3.269  0.1798  0.0619  0.7976
 2500TIP3    H2 7507   5.481   2.484   3.236 -0.4110  0.0422 -1.8187
 2501TIP3   OH2 7508   3.710   0.452   0.900 -0.6147 -0.0636 -0.6237
 2501TIP3    H1 7509   3.749   0.456   0.988  1.8753 -4.0073 -1.3265
 2501TIP3    H2 7510   3.620   0.423   0.916  0.3807 -2.7683  0.6818
 2502TIP3   OH2 7511   4.219   0.284   0.489 -0.1441  0.4894  0.1565
 2502TIP3    H1 7512   4.204   0.334   0.409  0.2619 -0.7720 -0.7501
 2502TIP3    H2 7513   4.304   0.315   0.521  0.4224 -0.0652 -0.7662
 2503TIP3   OH2 7514   0.737   4.704   5.165  0.5590  0.0696  0.4968
 2503TIP3    H1 7515   0.691   4.744   5.092 -0.2755 -1.4164  0.1657
 2503TIP3    H2 7516   0.800   4.645   5.124  0.9419  0.1377  0.9767
 2504TIP3   OH2 7517   5.673   4.039   2.707  0.2821 -0.1179 -0.1449
 2504TIP3    H1 7518   5.628   3.955   2.713  0.1426  0.0420  1.3842
 2504TIP3    H2 7519   5.765   4.018   2.722  0.3151 -0.0517 -0.2491
 2505TIP3   OH2 7520   5.144   5.076   1.899 -0.3127 -0.2170  0.0476
 2505TIP3    H1 7521   5.055   5.104   1.879 -0.8190  0.2803  2.6522
 2505TIP3    H2 7522   5.161   5.110   1.987  1.8150 -1.8045  0.3309
 2506TIP3   OH2 7523   5.965   4.433   4.216 -0.1451  0.4475  0.3479
 2506TIP3    H1 7524   6.036   4.434   4.152 -0.3329  0.0301  0.1279
 2506TIP3    H2 7525   5.930   4.344   4.212 -0.1711  0.4203  1.0198
 2507TIP3   OH2 7526   4.402   1.879   2.192 -0.3146 -0.3769  0.3276
 2507TIP3    H1 7527   4.366   1.880   2.281 -0.7194 -2.1992  0.2205
 2507TIP3    H2 7528   4.481   1.825   2.199  0.6968  0.9869 -0.0856
 2508TIP3   OH2 7529   3.473   3.282   0.562 -0.4312  0.3854  0.0245
 2508TIP3    H1 7530   3.385   3.296   0.528  0.6778  2.3216 -2.3804
 2508TIP3    H2 7531   3.509   3.371   0.571  1.9867 -0.3673 -1.2738
 2509TIP3   OH2 7532   5.322   1.107   5.071  0.1670  0.3714  0.2142
 2509TIP3    H1 7533   5.363   1.132   5.155  0.5809 -0.4229  0.2572
 2509TIP3    H2 7534   5.394   1.112   5.008 -0.0404  0.5175 -0.0076
 2510TIP3   OH2 7535   1.534   2.708   0.834  0.2086 -0.4276 -0.6310
 2510TIP3    H1 7536   1.550   2.800   0.853  2.1087 -0.4896 -1.6039
 2510TIP3    H2 7537   1.439   2.698   0.835 -0.0006  0.7986  2.6960
 2511TIP3   OH2 7538   1.668   2.139   1.245  0.3595  0.2746  0.0682
 2511TIP3    H1 7539   1.639   2.094   1.324 -0.0204 -0.5815 -0.5361
 2511TIP3    H2 7540   1.694   2.068   1.186 -1.2565  0.7646 -1.3161
 2512TIP3   OH2 7541   0.782   5.603   2.170 -0.0515 -0.2362 -0.1348
 2512TIP3    H1 7542   0.814   5.578   2.084 -1.5546  0.2871 -0.8829
 2512TIP3    H2 7543   0.855   5.649   2.211  0.5736 -0.2124 -1.2545
 2513TIP3   OH2 7544   2.992   0.442   0.282 -0.5589  0.0415  0.1521
 2513TIP3    H1 7545   2.904   0.456   0.248 -0.2172  0.0380 -0.7573
 2513TIP3    H2 7546   3.049   0.494   0.225 -0.1367  1.5080  1.8253
 2514TIP3   OH2 7547   5.994   3.410   3.233 -0.1085  0.2421  0.6135
 2514TIP3    H1 7548   6.003   3.335   3.292 -0.0026  0.0795  0.3913
 2514TIP3    H2 7549   5.939   3.379   3.162 -0.1124  0.3925  0.5494
 2515TIP3   OH2 7550   0.300   0.216   2.036  0.1727  0.1388  0.4806
 2515TIP3    H1 7551   0.270   0.162   2.109  0.5705 -1.2689 -0.3478
 2515TIP3    H2 7552   0.392   0.191   2.024 -0.4764 -1.4984 -1.9785
 2516TIP3   OH2 7553   5.707   4.640   3.782  0.4550 -0.5959  0.0841
 2516TIP3    H1 7554   5.631   4.605   3.828 -0.3926  0.9923 -0.0288
 2516TIP3    H2 7555   5.673   4.715   3.733  1.4558 -1.7732 -2.5851
 2517TIP3   OH2 7556   0.450   1.443   2.766  0.5072  0.4006 -0.1801
 2517TIP3    H1 7557   0.423   1.380   2.699 -1.3756  0.0160  0.8631
 2517TIP3    H2 7558   0.545   1.449   2.756  0.5008 -1.0643 -1.6377
 2518TIP3   OH2 7559   1.827   0.262   4.984  0.6974  0.1323 -0.3138
 2518TIP3    H1 7560   1.893   0.217   5.037 -0.0504 -0.1482  0.4011
 2518TIP3    H2 7561   1.806   0.341   5.034  0.8036  0.4430 -0.7555
 2519TIP3   OH2 7562   5.125   2.428   3.751  0.4381 -0.0551  0.4638
 2519TIP3    H1 7563   5.118   2.333   3.749  0.1895 -0.0371 -1.0098
 2519TIP3    H2 7564   5.219   2.445   3.745  0.5105 -0.2095  1.1506
 2520TIP3   OH2 7565   5.576   3.791   1.085 -0.0431  0.0069  0.2677
 2520TIP3    H1 7566   5.591   3.866   1.143  0.2438 -0.2183  0.4859
 2520TIP3    H2 7567   5.563   3.717   1.145 -0.8756 -0.0164  0.0649
 2521TIP3   OH2 7568   3.594   4.921   2.082 -0.5421 -0.1935  0.0434
 2521TIP3    H1 7569   3.590   5.012   2.112 -0.2175 -0.3926  0.6969
 2521TIP3    H2 7570   3.680   4.890   2.111 -1.4856 -1.3737  1.7615
 2522TIP3   OH2 7571   6.037   4.627   2.286  0.1494  0.9276 -0.0304
 2522TIP3    H1 7572   5.964   4.604   2.229  0.5138 -2.6691  0.7002
 2522TIP3    H2 7573   6.115   4.614   2.233  0.4129 -0.5682  0.6828
 2523TIP3   OH2 7574   0.083   2.587   2.487 -0.2507 -0.2965 -0.0503
 2523TIP3    H1 7575   0.139   2.653   2.446 -0.3389 -0.3514 -0.2608
 2523TIP3    H2 7576   0.061   2.526   2.416  0.6418 -1.1148  0.3471
 2524TIP3   OH2 7577   4.761   2.225   3.449  0.0763 -0.3135  0.5515
 2524TIP3    H1 7578   4.671   2.203   3.425 -0.3064  0.7665  0.9568
 2524TIP3    H2 7579   4.813   2.205   3.370 -0.6599 -0.0386 -0.0131
 2525TIP3   OH2 7580   3.455   3.930   0.274 -0.4847  0.4832 -0.1105
 2525TIP3    H1 7581   3.403   4.005   0.301 -0.4571 -0.0957  1.6977
 2525TIP3    H2 7582   3.541   3.966   0.251 -0.4909  1.0375  0.6783
 2526TIP3   OH2 7583   5.969   2.056   2.547 -0.0865 -0.3252  0.5394
 2526TIP3    H1 7584   5.917   1.989   2.502  1.4418 -1.4750  0.4209
 2526TIP3    H2 7585   5.982   2.124   2.481 -2.9437  0.9215  1.0982
 2527TIP3   OH2 7586   3.527   5.725   2.612  0.5145  0.0985  0.2390
 2527TIP3    H1 7587   3.537   5.689   2.700 -1.5991  0.9751  0.9131
 2527TIP3    H2 7588   3.481   5.656   2.563  0.6191  0.0772  0.1699
 2528TIP3   OH2 7589   1.854   3.531   1.486  0.6321  0.1811 -0.4133
 2528TIP3    H1 7590   1.920   3.599   1.501  1.0178 -0.5767  1.6662
 2528TIP3    H2 7591   1.797   3.536   1.562 -4.2431  3.3709 -3.7254
 2529TIP3   OH2 7592   0.963   2.945   2.693 -0.4687 -0.7272  0.4398
 2529TIP3    H1 7593   0.955   2.923   2.786 -1.4848 -1.7861  0.1222
 2529TIP3    H2 7594   0.880   2.916   2.654 -1.1747  2.0460 -0.3520
 2530TIP3   OH2 7595   3.444   2.118   0.033 -0.5645 -0.0411 -0.1007
 2530TIP3    H1 7596   3.475   2.177  -0.035  0.0619 -1.4680 -1.1007
 2530TIP3    H2 7597   3.519   2.108   0.092 -0.4073 -0.4287 -0.3613
 2531TIP3   OH2 7598   3.923   0.414   0.517  0.0562 -0.1374 -0.0530
 2531TIP3    H1 7599   3.925   0.347   0.585  0.3612 -1.8011 -1.6224
 2531TIP3    H2 7600   4.001   0.468   0.534  0.7736 -1.2411  0.2537
 2532TIP3   OH2 7601   4.355   5.122   4.621  0.0808 -0.4719 -0.1621
 2532TIP3    H1 7602   4.366   5.202   4.672 -0.0514 -0.2066 -0.5449
 2532TIP3    H2 7603   4.439   5.077   4.628  0.8042  0.5881 -1.4437
 2533TIP3   OH2 7604   2.166   2.624   2.156  0.2013 -0.2227 -0.2127
 2533TIP3    H1 7605   2.109   2.664   2.221  0.8954  0.9279 -0.2840
 2533TIP3    H2 7606   2.110   2.562   2.110 -1.0443  0.9963 -0.3991
 2534TIP3   OH2 7607   3.304   4.347   2.670 -0.6427  0.2590 -0.1167
 2534TIP3    H1 7608   3.359   4.421   2.696 -1.1636  0.1023  1.5029
 2534TIP3    H2 7609   3.353   4.270   2.698 -1.1471  0.0754  0.2551
 2535TIP3   OH2 7610   0.513   5.661   4.613  0.0845  0.4076 -0.3129
 2535TIP3    H1 7611   0.492   5.706   4.531 -0.3050  0.9494  0.0797
 2535TIP3    H2 7612   0.560   5.726   4.665  0.1589  0.1286 -0.0292
 2536TIP3   OH2 7613   0.590   5.076   1.632  0.0897 -0.6687 -0.0961
 2536TIP3    H1 7614   0.674   5.103   1.595 -0.2498 -1.1566 -1.2636
 2536TIP3    H2 7615   0.543   5.158   1.648  0.5143 -0.4217 -0.1009
 2537TIP3   OH2 7616   0.915   3.363   3.697  0.2826  0.0200  0.7531
 2537TIP3    H1 7617   0.924   3.268   3.700 -1.1578 -0.2614 -1.5413
 2537TIP3    H2 7618   0.823   3.378   3.676  0.6237  1.9033  0.4145
 2538TIP3   OH2 7619   1.918   0.563   1.809 -0.3882 -0.0502 -0.1557
 2538TIP3    H1 7620   1.900   0.610   1.727 -1.5166 -1.4671 -0.7724
 2538TIP3    H2 7621   1.980   0.494   1.784 -0.8184 -0.5547  0.1436
 2539TIP3   OH2 7622   3.387   4.151   1.652 -0.6167  0.1270  0.4902
 2539TIP3    H1 7623   3.350   4.139   1.739  1.4345 -0.3431  1.3548
 2539TIP3    H2 7624   3.455   4.084   1.645 -0.0599  0.8090 -1.0773
 2540TIP3   OH2 7625   5.504   1.478   3.815 -0.1176 -0.0927  0.3985
 2540TIP3    H1 7626   5.524   1.441   3.730  1.2921 -0.6729  0.9539
 2540TIP3    H2 7627   5.585   1.521   3.843 -0.3529 -0.4547  1.7136
 2541TIP3   OH2 7628   4.103   2.083   2.035 -0.4771  1.0901 -0.9219
 2541TIP3    H1 7629   4.091   2.096   2.129 -0.2529  0.3683 -0.7828
 2541TIP3    H2 7630   4.026   2.033   2.008  0.1898 -0.0577 -0.8034
 2542TIP3   OH2 7631   3.805   0.682   3.801  0.3654  0.0046 -0.1891
 2542TIP3    H1 7632   3.711   0.669   3.785  0.0480 -0.5668  1.8620
 2542TIP3    H2 7633   3.822   0.772   3.774 -0.9152  0.3073 -0.0597
 2543TIP3   OH2 7634   3.751   0.815   0.250  0.4180  0.2277 -0.0085
 2543TIP3    H1 7635   3.781   0.747   0.310 -0.7695  0.8465  1.3240
 2543TIP3    H2 7636   3.660   0.832   0.274 -0.4083 -0.0875 -2.5425
 2544TIP3   OH2 7637   0.229   0.090   4.045  0.1799  0.2947  0.3350
 2544TIP3    H1 7638   0.312   0.046   4.028 -0.4731 -0.5056 -0.9449
 2544TIP3    H2 7639   0.254   0.180   4.069  1.3866  0.4567 -1.3258
 2545TIP3   OH2 7640   3.232   0.927   4.274  0.2786 -0.1499 -0.7918
 2545TIP3    H1 7641   3.263   0.941   4.185  0.0471  2.0114 -0.5783
 2545TIP3    H2 7642   3.309   0.942   4.329  0.3463 -1.1654 -0.5817
 2546TIP3   OH2 7643   6.045   5.299   1.659 -0.2480  0.6469 -0.1051
 2546TIP3    H1 7644   6.121   5.308   1.601 -1.0744  3.1721 -0.9057
 2546TIP3    H2 7645   5.969   5.305   1.600 -1.1064 -0.4500  0.8478
 2547TIP3   OH2 7646   4.407   2.250   3.974 -0.6054  0.3567  0.0712
 2547TIP3    H1 7647   4.363   2.225   4.055 -1.5189  1.1680 -0.1565
 2547TIP3    H2 7648   4.337   2.285   3.918 -0.0492 -0.4738 -1.1930
 2548TIP3   OH2 7649   0.506   1.222   3.924  0.3935 -0.3010  0.5289
 2548TIP3    H1 7650   0.510   1.158   3.853 -2.1319 -0.1630  0.1679
 2548TIP3    H2 7651   0.508   1.307   3.880  2.6148 -0.0923  0.9335
 2549TIP3   OH2 7652   1.628   0.049   4.840 -0.6723 -0.0999  0.2197
 2549TIP3    H1 7653   1.670   0.121   4.888 -1.8963  0.1365  0.9677
 2549TIP3    H2 7654   1.552   0.026   4.893 -1.6240 -0.3681 -1.2282
 2550TIP3   OH2 7655   0.681   0.954   2.168  0.1904  0.1299  0.2191
 2550TIP3    H1 7656   0.734   0.965   2.246 -0.4124  0.8374  0.5417
 2550TIP3    H2 7657   0.621   0.882   2.189 -0.2846  0.6255  0.5965
 2551TIP3   OH2 7658   3.371   4.046   1.255 -0.9596  0.3833 -0.2302
 2551TIP3    H1 7659   3.314   4.114   1.290 -1.7817 -0.0648 -0.6767
 2551TIP3    H2 7660   3.312   3.978   1.224 -0.1627 -0.3693 -0.1440
 2552TIP3   OH2 7661   2.534   5.347   0.742 -0.0238 -0.1171  0.4625
 2552TIP3    H1 7662   2.459   5.351   0.683 -0.4294  0.4765  1.0060
 2552TIP3    H2 7663   2.546   5.437   0.771  1.6595  0.0150 -0.5364
 2553TIP3   OH2 7664   6.138   3.532   3.464 -0.0889  0.6469  0.4479
 2553TIP3    H1 7665   6.081   3.591   3.513 -0.3328  0.0473  0.8970
 2553TIP3    H2 7666   6.085   3.505   3.389 -0.7947 -0.6824  1.3764
 2554TIP3   OH2 7667   5.730   4.829   1.995 -0.4743 -0.5168  0.0723
 2554TIP3    H1 7668   5.639   4.848   2.018 -1.0746 -2.5427 -0.4740
 2554TIP3    H2 7669   5.774   4.914   2.002 -2.2136  0.3593  1.1376
 2555TIP3   OH2 7670   6.091   5.443   1.249 -0.3762 -0.1261 -0.0470
 2555TIP3    H1 7671   6.143   5.405   1.178  1.2214  0.0967  0.9527
 2555TIP3    H2 7672   6.115   5.536   1.250  0.3652 -0.3054  1.3691
 2556TIP3   OH2 7673   3.321   2.474   2.392  0.2935 -0.4498 -0.1132
 2556TIP3    H1 7674   3.355   2.554   2.350 -1.1812 -0.5509 -1.6033
 2556TIP3    H2 7675   3.365   2.471   2.477  0.8014  1.6495 -0.2448
 2557TIP3   OH2 7676   3.352   3.332   0.972 -0.2543 -0.5271 -0.2723
 2557TIP3    H1 7677   3.266   3.352   0.934 -0.8442 -0.6254  0.9387
 2557TIP3    H2 7678   3.387   3.262   0.918 -0.5030  0.1714 -1.3678
 2558TIP3   OH2 7679   2.856   0.883   3.638  0.3310 -0.6367 -0.0412
 2558TIP3    H1 7680   2.864   0.801   3.685 -0.8155 -1.7901 -1.7424
 2558TIP3    H2 7681   2.835   0.858   3.548  1.3648  1.4836 -0.9568
 2559TIP3   OH2 7682   5.512   3.790   2.779 -0.3077 -0.3847  0.2802
 2559TIP3    H1 7683   5.568   3.723   2.740 -0.1052 -0.2244  0.2946
 2559TIP3    H2 7684   5.511   3.770   2.872 -0.5357 -0.5794  0.2366
 2560TIP3   OH2 7685   1.211   1.607   1.972  0.3504  0.3563  0.5040
 2560TIP3    H1 7686   1.172   1.598   1.884  0.7810 -0.4647  0.3960
 2560TIP3    H2 7687   1.139   1.588   2.032  0.7084 -1.9163  0.3007
 2561TIP3   OH2 7688   4.260   4.095   4.902  0.3212 -0.0086  0.4616
 2561TIP3    H1 7689   4.184   4.132   4.857  0.7120 -0.9297 -1.0390
 2561TIP3    H2 7690   4.269   4.147   4.982 -0.7070  1.3791 -0.2859
 2562TIP3   OH2 7691   3.076   5.765   3.131  0.3923  0.2951 -0.3579
 2562TIP3    H1 7692   3.052   5.676   3.103  0.1695 -0.3912  1.8397
 2562TIP3    H2 7693   2.993   5.805   3.157  0.7053  0.5038  0.3460
 2563TIP3   OH2 7694   5.802   2.300   4.820 -0.6322 -0.4610 -0.5150
 2563TIP3    H1 7695   5.731   2.361   4.800 -1.4174 -0.4326  2.0750
 2563TIP3    H2 7696   5.882   2.350   4.804 -1.2542  1.1713  1.1015
 2564TIP3   OH2 7697   2.071   2.497   1.438 -0.6966  0.3870 -0.3796
 2564TIP3    H1 7698   2.097   2.545   1.360 -1.6762  0.0217 -0.9453
 2564TIP3    H2 7699   2.118   2.414   1.432 -0.2114  0.6371 -0.1893
 2565TIP3   OH2 7700   3.871   3.121   2.697 -1.0152 -0.3748  0.3468
 2565TIP3    H1 7701   3.911   3.042   2.733  0.8542  0.2705 -0.2284
 2565TIP3    H2 7702   3.817   3.088   2.625 -0.0583 -1.1320 -0.0537
 2566TIP3   OH2 7703   1.008   3.855   3.504  0.1237 -0.4035 -0.0596
 2566TIP3    H1 7704   0.938   3.892   3.559  0.8940  0.7675  0.1809
 2566TIP3    H2 7705   0.964   3.789   3.451 -1.3101  0.7072 -0.3404
 2567TIP3   OH2 7706   5.806   4.565   0.228 -0.2154  0.0568  0.0107
 2567TIP3    H1 7707   5.842   4.502   0.166  1.5043 -0.2303  1.2109
 2567TIP3    H2 7708   5.714   4.573   0.205 -0.0886 -1.6276 -1.2165
 2568TIP3   OH2 7709   4.238   2.571   4.388  0.5714 -0.1225  0.4886
 2568TIP3    H1 7710   4.297   2.517   4.336 -2.3294 -1.3131 -1.8704
 2568TIP3    H2 7711   4.163   2.515   4.405 -0.9447  2.0068  1.3171
 2569TIP3   OH2 7712   6.382   1.265   0.219 -0.3472  0.0707  0.2041
 2569TIP3    H1 7713   6.343   1.290   0.303 -1.7391 -1.1092 -0.0693
 2569TIP3    H2 7714   6.310   1.228   0.168  0.8448 -0.8867 -0.8566
 2570TIP3   OH2 7715   5.291   0.277   1.725 -0.2759  0.3155  0.7410
 2570TIP3    H1 7716   5.371   0.315   1.761 -0.4280  1.0636  0.3101
 2570TIP3    H2 7717   5.233   0.267   1.800 -0.5300  1.7019  0.7388
 2571TIP3   OH2 7718   0.160   1.389   2.209 -0.2303 -0.2553 -0.5893
 2571TIP3    H1 7719   0.156   1.326   2.280  1.3285  0.3255  0.0572
 2571TIP3    H2 7720   0.194   1.340   2.134  1.2599 -0.1403 -0.0082
 2572TIP3   OH2 7721   6.256   2.055   2.162  0.0604 -0.8216  0.9606
 2572TIP3    H1 7722   6.259   1.989   2.232 -0.8152 -1.1773  0.6742
 2572TIP3    H2 7723   6.324   2.117   2.186  1.2831 -2.1068  0.9525
 2573TIP3   OH2 7724   0.184   0.380   1.054 -0.3205  0.3366  0.6536
 2573TIP3    H1 7725   0.156   0.292   1.030  0.7410  0.7651 -2.7277
 2573TIP3    H2 7726   0.243   0.368   1.128 -0.9783 -1.6485  0.9126
 2574TIP3   OH2 7727   1.905   1.120   4.369  0.3240  0.2524 -0.1333
 2574TIP3    H1 7728   1.927   1.044   4.316 -0.0636 -0.5193  0.7979
 2574TIP3    H2 7729   1.927   1.095   4.458 -1.3947  0.5975  0.4205
 2575TIP3   OH2 7730   4.746   4.174   5.012 -0.3071 -0.3086 -0.1175
 2575TIP3    H1 7731   4.837   4.189   4.988 -0.2259 -0.9225 -0.1971
 2575TIP3    H2 7732   4.701   4.159   4.928 -0.7146  1.1684 -0.1906
 2576TIP3   OH2 7733   3.212   0.552   2.641 -0.3600 -0.1291 -0.2576
 2576TIP3    H1 7734   3.237   0.482   2.701 -1.8498 -0.8415 -0.4415
 2576TIP3    H2 7735   3.273   0.623   2.662  1.9137 -1.7851 -0.7807
 2577TIP3   OH2 7736   2.283   1.353   2.015 -0.4338  0.0368  0.1474
 2577TIP3    H1 7737   2.259   1.363   1.923 -0.7243  0.2098  0.2381
 2577TIP3    H2 7738   2.363   1.301   2.014 -1.4490 -1.6065 -0.1083
 2578TIP3   OH2 7739   6.104   1.073   0.401  0.1665 -0.4207 -0.2879
 2578TIP3    H1 7740   6.075   1.108   0.316 -1.6209 -1.4465 -0.1633
 2578TIP3    H2 7741   6.056   1.125   0.466 -0.0343 -0.9612  0.0037
 2579TIP3   OH2 7742   1.503   1.422   0.122 -0.3908 -0.6343  0.4936
 2579TIP3    H1 7743   1.511   1.338   0.077  0.1217  0.1147 -0.8954
 2579TIP3    H2 7744   1.411   1.447   0.112  0.0632  0.3439 -1.7704
 2580TIP3   OH2 7745   1.697   3.479   1.700 -0.4238 -0.0514  0.4957
 2580TIP3    H1 7746   1.612   3.513   1.672 -0.4196 -0.0549  0.4791
 2580TIP3    H2 7747   1.722   3.535   1.774 -0.2030  0.2697  0.1790
 2581TIP3   OH2 7748   5.813   4.388   5.109 -0.2070 -0.1750  0.5060
 2581TIP3    H1 7749   5.894   4.346   5.079 -0.1334  1.4517 -1.8124
 2581TIP3    H2 7750   5.839   4.476   5.136 -0.9835 -0.1895  1.3960
 2582TIP3   OH2 7751   4.406   3.982   1.755  0.5209 -0.2948  0.4681
 2582TIP3    H1 7752   4.370   3.905   1.799 -1.7103  1.2234  1.5371
 2582TIP3    H2 7753   4.369   3.979   1.667 -1.3930  0.6304  1.1931
 2583TIP3   OH2 7754   4.434   0.872   2.039 -0.0122 -0.5151  0.5234
 2583TIP3    H1 7755   4.528   0.888   2.053  0.0079  0.7016 -0.7635
 2583TIP3    H2 7756   4.390   0.935   2.096 -0.0047  0.0758 -0.1054
 2584TIP3   OH2 7757   0.992   0.605   1.089  0.0310  0.0065  0.4789
 2584TIP3    H1 7758   0.936   0.558   1.151  1.1429 -1.6458  0.2931
 2584TIP3    H2 7759   0.930   0.657   1.037 -1.3059 -1.2701  0.6952
 2585TIP3   OH2 7760   3.706   0.535   1.396  0.3876 -0.1425 -0.4128
 2585TIP3    H1 7761   3.617   0.566   1.413  0.3874 -0.2078 -0.2953
 2585TIP3    H2 7762   3.754   0.554   1.476  0.4093 -0.3645 -0.3718
 2586TIP3   OH2 7763   2.146   0.854   1.646 -0.2833  0.0103  0.0668
 2586TIP3    H1 7764   2.072   0.913   1.660 -1.1849 -1.2228  0.7939
 2586TIP3    H2 7765   2.104   0.769   1.629  0.9640 -0.7537  0.6888
 2587TIP3   OH2 7766   4.311   2.668   4.641  0.5371  0.1747 -0.0299
 2587TIP3    H1 7767   4.396   2.712   4.643 -0.3960  2.0798 -0.5634
 2587TIP3    H2 7768   4.292   2.657   4.548  0.1832 -0.2209  0.0858
 2588TIP3   OH2 7769   2.797   2.361   0.225  0.4064 -0.8258 -0.0889
 2588TIP3    H1 7770   2.765   2.385   0.312 -1.0010 -0.0154 -0.8001
 2588TIP3    H2 7771   2.767   2.432   0.168  2.2490 -0.7722 -1.0677
 2589TIP3   OH2 7772   4.644   4.425   3.012  0.1961  0.2746  0.9309
 2589TIP3    H1 7773   4.579   4.363   2.979  0.0249  0.7911  0.2546
 2589TIP3    H2 7774   4.669   4.391   3.098 -1.6307  0.5322  1.6195
 2590TIP3   OH2 7775   4.253   0.599   2.093  0.7268 -0.3736 -0.5663
 2590TIP3    H1 7776   4.199   0.678   2.099  0.5551 -0.6043  2.2608
 2590TIP3    H2 7777   4.204   0.533   2.140  1.4443 -1.8824 -1.8392
 2591TIP3   OH2 7778   1.594   3.653   2.955  0.0337  0.4999  0.4149
 2591TIP3    H1 7779   1.539   3.646   3.033  0.7721 -1.7257  0.8212
 2591TIP3    H2 7780   1.532   3.650   2.882 -0.5306  0.4147  0.8866
 2592TIP3   OH2 7781   6.176   0.427   1.235  0.1036  0.1551 -0.0612
 2592TIP3    H1 7782   6.201   0.514   1.204 -0.8837  0.5964  0.3683
 2592TIP3    H2 7783   6.088   0.413   1.200 -0.1241 -0.2706  0.6703
 2593TIP3   OH2 7784   0.082   3.723   0.110 -0.4874 -0.2668  0.9309
 2593TIP3    H1 7785   0.106   3.771   0.190  0.8579  0.7511 -0.0509
 2593TIP3    H2 7786   0.118   3.775   0.039 -0.3549 -1.9503 -0.2825
 2594TIP3   OH2 7787   6.191   1.590   4.096 -0.0079  0.1702 -0.2892
 2594TIP3    H1 7788   6.123   1.529   4.124 -0.4114 -0.9426 -3.2657
 2594TIP3    H2 7789   6.265   1.572   4.154 -1.4802 -0.1964  1.5482
 2595TIP3   OH2 7790   6.248   5.233   2.862 -0.2783  0.3072  0.3045
 2595TIP3    H1 7791   6.191   5.172   2.816  0.4032 -1.2140  1.3839
 2595TIP3    H2 7792   6.193   5.268   2.932  0.4618 -2.5297  2.4974
 2596TIP3   OH2 7793   3.289   2.827   1.868  0.2761 -0.0693 -0.0612
 2596TIP3    H1 7794   3.252   2.772   1.936 -0.5667 -1.0985 -1.3001
 2596TIP3    H2 7795   3.216   2.882   1.838  0.9882  1.4272  0.8222
 2597TIP3   OH2 7796   4.552   1.101   0.383  0.4488 -0.0466  0.8183
 2597TIP3    H1 7797   4.641   1.107   0.347  1.0291  0.9922  2.3267
 2597TIP3    H2 7798   4.498   1.149   0.320  1.2037  0.5077  0.5769
 2598TIP3   OH2 7799   3.541   1.343   2.164 -0.0859  0.0849 -0.2563
 2598TIP3    H1 7800   3.635   1.335   2.176  0.0289  0.5255 -0.8056
 2598TIP3    H2 7801   3.509   1.375   2.248  0.4207  1.1283 -0.4493
 2599TIP3   OH2 7802   0.009   4.090   0.651  0.1228  0.0490  0.0364
 2599TIP3    H1 7803   0.003   4.166   0.710 -1.9545  0.9322 -1.2028
 2599TIP3    H2 7804   0.025   4.129   0.565  0.6437 -1.0482 -0.3740
 2600TIP3   OH2 7805   0.167   1.339   2.572  0.1592 -0.3805  0.3602
 2600TIP3    H1 7806   0.172   1.433   2.584  0.4581 -0.4979  1.2058
 2600TIP3    H2 7807   0.142   1.305   2.657 -2.0806 -0.9115 -0.4516
 2601TIP3   OH2 7808   6.086   3.102   3.245  0.6537 -0.1501  0.1894
 2601TIP3    H1 7809   6.120   3.154   3.172  1.9742 -2.6760 -1.1704
 2601TIP3    H2 7810   6.023   3.042   3.204 -0.8659  0.3540  1.6820
 2602TIP3   OH2 7811   5.359   5.178   0.748 -0.2384  0.1657 -0.1153
 2602TIP3    H1 7812   5.418   5.253   0.735 -1.1722  0.9917  0.2495
 2602TIP3    H2 7813   5.408   5.119   0.805 -0.4324  1.7013  1.7450
 2603TIP3   OH2 7814   5.728   0.100   1.939  0.5375 -0.0283  0.3977
 2603TIP3    H1 7815   5.651   0.044   1.932 -0.4231  1.3965 -1.6242
 2603TIP3    H2 7816   5.796   0.053   1.891 -0.1821  0.3263 -1.0476
 2604TIP3   OH2 7817   1.968   1.696   4.883  0.1477 -0.1730  0.4622
 2604TIP3    H1 7818   2.028   1.744   4.940  0.7651 -1.0133  0.5451
 2604TIP3    H2 7819   1.996   1.604   4.890  0.4526 -0.2653 -1.4500
 2605TIP3   OH2 7820   3.029   2.751   3.424  0.6371  0.5714 -0.3803
 2605TIP3    H1 7821   2.998   2.838   3.398  0.3997  0.7046  0.3382
 2605TIP3    H2 7822   3.120   2.766   3.451  0.3467  0.7470  0.5188
 2606TIP3   OH2 7823   3.595   3.466   3.674  0.3506 -0.2438  0.1156
 2606TIP3    H1 7824   3.507   3.492   3.699  0.6266 -0.3897  1.2680
 2606TIP3    H2 7825   3.635   3.546   3.640  0.6806  0.5396  2.2074
 2607TIP3   OH2 7826   5.110   4.648   3.005 -0.0021 -0.7456  0.2105
 2607TIP3    H1 7827   5.065   4.691   2.933 -0.3607  1.1829  1.5096
 2607TIP3    H2 7828   5.056   4.571   3.025 -1.1232 -0.0647 -0.1311
 2608TIP3   OH2 7829   3.911   2.792   4.850 -0.0372 -0.2063  0.3070
 2608TIP3    H1 7830   3.994   2.840   4.841 -1.0980  1.6587  0.0012
 2608TIP3    H2 7831   3.937   2.707   4.884  1.8565  1.0253  2.2224
 2609TIP3   OH2 7832   3.245   2.409   4.138  0.0900 -0.5725  0.5573
 2609TIP3    H1 7833   3.199   2.402   4.055  1.1212  0.2046 -0.1043
 2609TIP3    H2 7834   3.259   2.318   4.165 -1.4899 -0.8322  0.6196
 2610TIP3   OH2 7835   3.705   4.892   2.393  0.0956  0.2514  0.2604
 2610TIP3    H1 7836   3.761   4.866   2.320  0.8339 -4.7780  2.2195
 2610TIP3    H2 7837   3.615   4.882   2.360  0.4209 -0.8447 -0.3349
 2611TIP3   OH2 7838   1.438   0.954   1.268  0.1652 -0.5330  0.5075
 2611TIP3    H1 7839   1.396   1.039   1.254  0.1619 -0.8635 -1.9900
 2611TIP3    H2 7840   1.398   0.919   1.347 -0.3165  1.4824  1.2091
 2612TIP3   OH2 7841   6.007   3.908   4.222  0.7463 -0.3983 -0.3745
 2612TIP3    H1 7842   5.960   3.825   4.232 -1.0333  0.5928 -0.1271
 2612TIP3    H2 7843   6.043   3.926   4.309  0.9498 -0.7793 -0.3745
 2613TIP3   OH2 7844   3.061   2.237   0.359  0.2172  0.7221  0.3472
 2613TIP3    H1 7845   3.036   2.321   0.397 -0.9660  0.6303 -0.1934
 2613TIP3    H2 7846   3.085   2.183   0.435  1.4448  1.6601  0.6675
 2614TIP3   OH2 7847   5.904   2.090   2.844 -0.4878 -0.1711  0.3822
 2614TIP3    H1 7848   5.929   2.099   2.752 -2.8051 -1.1513 -0.4029
 2614TIP3    H2 7849   5.855   2.169   2.864 -0.7151 -0.3477  0.5264
 2615TIP3   OH2 7850   5.493   5.353   2.412  0.1132 -0.2800  0.1817
 2615TIP3    H1 7851   5.485   5.427   2.352  0.5737 -0.4204 -0.0531
 2615TIP3    H2 7852   5.579   5.364   2.453  1.1098 -1.8218 -1.3925
 2616TIP3   OH2 7853   1.963   4.894   3.487  0.0474 -0.2392 -0.0242
 2616TIP3    H1 7854   1.997   4.982   3.499 -0.7740  0.1999 -0.7581
 2616TIP3    H2 7855   1.970   4.853   3.573  2.3067 -0.1710 -0.1091
 2617TIP3   OH2 7856   3.896   3.040   0.201  0.0882 -0.1765 -0.4393
 2617TIP3    H1 7857   3.912   3.024   0.294  2.2205 -0.2726 -0.7666
 2617TIP3    H2 7858   3.861   2.958   0.167 -0.3629 -0.2516  0.2041
 2618TIP3   OH2 7859   5.622   2.206   3.747  0.0358 -0.2416  0.2209
 2618TIP3    H1 7860   5.650   2.297   3.761 -0.8939 -0.3166  3.0872
 2618TIP3    H2 7861   5.561   2.188   3.818 -1.1679 -2.6091 -1.2823
 2619TIP3   OH2 7862   1.752   0.867   4.138  0.3086  0.4426 -0.1041
 2619TIP3    H1 7863   1.708   0.939   4.092 -2.7204  0.2497  2.2188
 2619TIP3    H2 7864   1.682   0.804   4.155  2.5517 -2.3636 -0.5932
 2620TIP3   OH2 7865   1.249   1.945   1.661 -0.1018 -0.3425  0.0712
 2620TIP3    H1 7866   1.326   1.924   1.607  0.0616  0.9486 -0.2421
 2620TIP3    H2 7867   1.270   1.911   1.748  0.2355 -1.2121 -0.3407
 2621TIP3   OH2 7868   3.946   0.823   5.038  0.4174  0.2694 -0.5375
 2621TIP3    H1 7869   3.968   0.817   4.945 -0.0130 -1.6335 -0.5606
 2621TIP3    H2 7870   4.028   0.807   5.084  0.3632 -0.1734 -0.5957
 2622TIP3   OH2 7871   6.053   2.726   3.432  0.2674 -0.1066  0.1244
 2622TIP3    H1 7872   6.004   2.765   3.359  0.6326 -1.4377 -0.8852
 2622TIP3    H2 7873   6.048   2.791   3.502 -1.1159  0.7137 -0.6769
 2623TIP3   OH2 7874   2.464   1.644   3.811 -0.3977  0.6556 -0.4341
 2623TIP3    H1 7875   2.423   1.676   3.891  0.3626 -0.4824  0.4378
 2623TIP3    H2 7876   2.459   1.548   3.818  1.7414  0.4874 -0.6135
 2624TIP3   OH2 7877   5.173   3.842   1.918 -0.0167 -0.1374 -0.0474
 2624TIP3    H1 7878   5.146   3.757   1.954  0.1114 -0.3671 -0.4906
 2624TIP3    H2 7879   5.173   3.829   1.823  0.1734  0.3082 -0.1095
 2625TIP3   OH2 7880   1.809   1.374   0.076 -0.1158  0.0912  0.3936
 2625TIP3    H1 7881   1.863   1.432   0.129 -0.0433 -0.6044  1.0909
 2625TIP3    H2 7882   1.726   1.367   0.123 -1.6287  2.6367 -1.5648
 2626TIP3   OH2 7883   1.467   5.632   5.027  0.3680 -0.1878 -0.1308
 2626TIP3    H1 7884   1.449   5.664   5.116 -1.9810  0.4055 -0.7449
 2626TIP3    H2 7885   1.503   5.708   4.982 -0.3680  0.1360 -0.1990
 2627TIP3   OH2 7886   1.632   4.385   1.712  0.3447  0.4191  0.2123
 2627TIP3    H1 7887   1.569   4.339   1.767  1.7776  0.1196  1.6691
 2627TIP3    H2 7888   1.654   4.464   1.761  3.3277 -0.9122  1.3188
 2628TIP3   OH2 7889   0.491   3.822   3.592  0.2609  0.6607 -0.5218
 2628TIP3    H1 7890   0.478   3.823   3.497  1.1296  0.4849 -0.6478
 2628TIP3    H2 7891   0.470   3.912   3.619 -0.1333  0.6745 -0.8513
 2629TIP3   OH2 7892   5.988   1.096   2.039  0.9188 -0.1989 -0.0439
 2629TIP3    H1 7893   6.018   1.167   1.982 -1.1714  0.1763 -0.7854
 2629TIP3    H2 7894   6.008   1.127   2.127  3.0966 -0.2383 -0.4831
 2630TIP3   OH2 7895   4.475   2.469   1.976 -0.3437  0.0614  0.8115
 2630TIP3    H1 7896   4.411   2.450   1.908 -1.0979  3.3109  0.4476
 2630TIP3    H2 7897   4.457   2.404   2.045 -0.9874 -1.9178 -1.0985
 2631TIP3   OH2 7898   1.012   1.905   1.532 -0.6284 -0.4134 -0.5816
 2631TIP3    H1 7899   1.093   1.911   1.584 -0.2298 -1.4156 -1.0561
 2631TIP3    H2 7900   0.973   1.821   1.558 -1.8235  0.3213  0.0562
 2632TIP3   OH2 7901   4.846   3.366   0.325  0.2267 -0.1368 -1.0348
 2632TIP3    H1 7902   4.849   3.441   0.265  1.0955 -0.6553 -1.6682
 2632TIP3    H2 7903   4.814   3.293   0.271 -1.2184 -0.1072 -0.2652
 2633TIP3   OH2 7904   2.374   1.460   3.419 -0.5014 -0.4172  0.0647
 2633TIP3    H1 7905   2.313   1.487   3.351 -1.3810  0.4451  1.1472
 2633TIP3    H2 7906   2.456   1.445   3.373 -1.0130  0.3255 -1.1527
 2634TIP3   OH2 7907   1.184   3.234   2.439 -0.0618 -0.3628 -0.3602
 2634TIP3    H1 7908   1.214   3.302   2.379  0.3619  0.1540  0.4103
 2634TIP3    H2 7909   1.089   3.229   2.424  0.1812 -1.0318 -1.8315
 2635TIP3   OH2 7910   2.177   4.343   1.214  0.1433  0.0230 -0.2020
 2635TIP3    H1 7911   2.103   4.344   1.275  0.9151  0.8627  0.7407
 2635TIP3    H2 7912   2.182   4.252   1.185 -0.1499 -0.4298  1.0933
 2636TIP3   OH2 7913   1.249   2.217   4.759 -0.4014  0.0778  0.0747
 2636TIP3    H1 7914   1.174   2.276   4.749 -0.3269  0.0981 -0.3536
 2636TIP3    H2 7915   1.307   2.263   4.819 -1.9767 -1.1426  2.7248
 2637TIP3   OH2 7916   2.614   2.297   2.434  0.4704  0.7414 -0.0971
 2637TIP3    H1 7917   2.575   2.210   2.445  1.3063  0.0371 -2.1598
 2637TIP3    H2 7918   2.647   2.320   2.521 -2.4774  0.4073  1.2030
 2638TIP3   OH2 7919   2.985   2.136   3.692  0.0382 -0.0434 -0.4043
 2638TIP3    H1 7920   2.970   2.176   3.606  0.9252 -0.0280 -0.5568
 2638TIP3    H2 7921   3.025   2.206   3.744 -0.6378 -0.0016  0.0815
 2639TIP3   OH2 7922   0.782   1.683   3.665 -0.1573 -0.1466 -0.3148
 2639TIP3    H1 7923   0.805   1.767   3.625 -0.2138  0.1722  0.3034
 2639TIP3    H2 7924   0.851   1.623   3.637  1.0524  0.6157  0.9077
 2640TIP3   OH2 7925   1.787   0.805   5.182  0.4290  0.0777 -0.0282
 2640TIP3    H1 7926   1.741   0.783   5.101  1.7858 -1.7816 -0.3723
 2640TIP3    H2 7927   1.725   0.783   5.252  0.2118 -0.9101 -0.5143
 2641TIP3   OH2 7928   5.844   3.581   0.715  0.1982  0.2429  0.8575
 2641TIP3    H1 7929   5.759   3.624   0.728  1.3255  3.5091 -1.4342
 2641TIP3    H2 7930   5.854   3.576   0.620  2.6182  0.0757  1.0688
 2642TIP3   OH2 7931   0.139   4.992   2.677 -0.4306  0.2981 -0.7972
 2642TIP3    H1 7932   0.220   4.944   2.693 -0.7837 -0.3872 -1.0264
 2642TIP3    H2 7933   0.138   5.008   2.583 -1.0278 -0.5742 -0.9560
 2643TIP3   OH2 7934   1.167   4.719   1.210 -0.8652  0.3491  0.2293
 2643TIP3    H1 7935   1.093   4.748   1.263 -3.1897 -0.5001 -2.2594
 2643TIP3    H2 7936   1.132   4.645   1.159  2.1638 -1.0713 -0.0397
 2644TIP3   OH2 7937   0.988   3.288   1.466  0.1825 -0.4098  0.2946
 2644TIP3    H1 7938   0.933   3.366   1.460  0.0866 -0.5666 -2.0480
 2644TIP3    H2 7939   0.974   3.255   1.554 -4.0527 -0.7936 -0.3007
 2645TIP3   OH2 7940   2.385   2.281   3.323 -0.3705 -0.3503  0.0016
 2645TIP3    H1 7941   2.413   2.370   3.342 -1.7204 -0.2386  1.8207
 2645TIP3    H2 7942   2.463   2.228   3.335  0.1301  0.4467  0.3259
 2646TIP3   OH2 7943   2.931   4.194   2.489  0.6414  0.2789  0.0590
 2646TIP3    H1 7944   2.976   4.109   2.494 -1.5231 -0.9408 -0.1791
 2646TIP3    H2 7945   2.959   4.232   2.406  0.9646 -0.5929 -0.2366
 2647TIP3   OH2 7946   5.498   2.269   2.560  0.0320 -0.1665 -0.2629
 2647TIP3    H1 7947   5.536   2.246   2.475  0.3329 -3.9168  0.7429
 2647TIP3    H2 7948   5.573   2.298   2.613  0.3349 -0.6243 -0.4317
 2648TIP3   OH2 7949   4.778   1.740   4.570  0.1675  0.4787 -0.0063
 2648TIP3    H1 7950   4.726   1.730   4.490  1.5968  0.7141 -1.0058
 2648TIP3    H2 7951   4.778   1.834   4.588  4.1921  1.3103 -2.9038
 2649TIP3   OH2 7952   0.692   1.903   3.893 -0.1282  0.6281  0.1269
 2649TIP3    H1 7953   0.772   1.850   3.902  0.1082  1.1929  1.5409
 2649TIP3    H2 7954   0.722   1.993   3.903 -1.0030  0.8137  1.1550
 2650TIP3   OH2 7955   0.022   0.426   2.833  0.1153 -0.0824 -0.0401
 2650TIP3    H1 7956  -0.026   0.485   2.773  0.9981 -0.5417 -1.2329
 2650TIP3    H2 7957   0.027   0.475   2.915  0.8518  1.5591 -1.0045
 2651TIP3   OH2 7958   2.676   1.719   2.022  0.0671 -0.5654 -0.3360
 2651TIP3    H1 7959   2.640   1.799   1.982  0.4048  0.1189  0.6828
 2651TIP3    H2 7960   2.611   1.694   2.088  1.0133  0.1950  0.9306
 2652TIP3   OH2 7961   0.571   4.792   4.969  0.2141  0.1580  0.3695
 2652TIP3    H1 7962   0.572   4.851   4.894  1.9425  0.2652  0.4509
 2652TIP3    H2 7963   0.618   4.715   4.939 -0.9621 -0.7061  0.6700
 2653TIP3   OH2 7964   3.413   4.097   2.797 -0.4208  0.6048  0.0144
 2653TIP3    H1 7965   3.483   4.118   2.859  0.4517 -1.6735 -0.1193
 2653TIP3    H2 7966   3.335   4.088   2.851 -0.4201  2.0240  0.3030
 2654TIP3   OH2 7967   2.713   5.769   3.418 -0.0288  0.2659 -0.4412
 2654TIP3    H1 7968   2.774   5.696   3.428  0.4409  0.7580  0.4310
 2654TIP3    H2 7969   2.722   5.819   3.499 -1.2715  0.6002 -0.4855
 2655TIP3   OH2 7970   5.855   5.640   0.328 -0.3929  0.2328  0.0999
 2655TIP3    H1 7971   5.833   5.671   0.415  1.6656  1.2956  0.3158
 2655TIP3    H2 7972   5.901   5.714   0.287 -1.4908 -0.1448 -1.9919
 2656TIP3   OH2 7973   5.045   5.134   2.840  0.1757 -0.0386 -0.4823
 2656TIP3    H1 7974   5.084   5.219   2.819 -0.4970  0.3966 -0.0190
 2656TIP3    H2 7975   5.083   5.073   2.777 -0.6833  0.9423 -2.0071
 2657TIP3   OH2 7976   1.515   4.947   1.028  0.3751 -0.4823  0.2793
 2657TIP3    H1 7977   1.469   4.933   1.111 -0.7196 -1.6388 -0.5028
 2657TIP3    H2 7978   1.606   4.924   1.047  0.3234  0.1579  1.3914
 2658TIP3   OH2 7979   6.278   1.919   1.591  0.5205  0.0941  0.5127
 2658TIP3    H1 7980   6.284   1.829   1.624 -0.7083  0.0373  0.6364
 2658TIP3    H2 7981   6.238   1.968   1.663  1.3992  0.8010  0.5330
 2659TIP3   OH2 7982   5.271   5.394   0.201 -0.1778 -0.1237 -0.1744
 2659TIP3    H1 7983   5.183   5.431   0.194  0.2065  0.9287  0.3622
 2659TIP3    H2 7984   5.268   5.314   0.148 -1.8334 -0.8209  0.8848
 2660TIP3   OH2 7985   1.776   0.676   2.016  0.2245  0.3544 -0.3138
 2660TIP3    H1 7986   1.690   0.636   2.012 -0.6175  2.0185  0.3433
 2660TIP3    H2 7987   1.827   0.631   1.949 -0.8291 -1.3720  0.0035
 2661TIP3   OH2 7988   3.453   0.554   0.181  0.0064 -0.4670  0.1775
 2661TIP3    H1 7989   3.465   0.591   0.093 -1.1678 -1.9834 -0.6711
 2661TIP3    H2 7990   3.520   0.486   0.188  0.9240  0.5009  0.9786
 2662TIP3   OH2 7991   2.320   2.437   2.287 -0.2791 -0.2772  0.3453
 2662TIP3    H1 7992   2.315   2.469   2.378  1.0538  1.4111 -0.1094
 2662TIP3    H2 7993   2.250   2.484   2.242  0.3837  0.4953  0.0959
 2663TIP3   OH2 7994   3.721   3.258   2.385 -0.2120 -0.4068 -0.0763
 2663TIP3    H1 7995   3.672   3.283   2.307  0.5868  1.1532 -0.1226
 2663TIP3    H2 7996   3.665   3.195   2.430 -2.2036  1.1624 -0.1981
 2664TIP3   OH2 7997   3.354   5.510   0.178 -0.3875 -0.3561  0.0209
 2664TIP3    H1 7998   3.428   5.454   0.157  0.5704  1.3637 -1.4816
 2664TIP3    H2 7999   3.341   5.498   0.272  1.1833 -1.3965  0.1453
 2665TIP3   OH2 8000   2.732   1.975   0.836 -0.3678  0.2675  0.7970
 2665TIP3    H1 8001   2.732   2.008   0.926 -1.6714  0.9270  0.5770
 2665TIP3    H2 8002   2.646   1.935   0.825 -0.4793  0.7927 -0.3587
 2666TIP3   OH2 8003   4.361   4.733   3.610 -0.0844  0.0739 -0.6793
 2666TIP3    H1 8004   4.376   4.820   3.646 -0.0215 -0.3599  0.3804
 2666TIP3    H2 8005   4.274   4.738   3.571 -0.8124  0.1523  0.8745
 2667TIP3   OH2 8006   5.242   2.703   4.604  0.0580 -0.5755  0.4787
 2667TIP3    H1 8007   5.336   2.715   4.609 -0.1951  1.3141  1.3550
 2667TIP3    H2 8008   5.223   2.631   4.665  1.0950 -2.3524 -1.1773
 2668TIP3   OH2 8009   2.834   0.498   2.320  0.8285  0.8733  0.0823
 2668TIP3    H1 8010   2.801   0.555   2.389  1.4886 -0.6240  1.6933
 2668TIP3    H2 8011   2.827   0.409   2.355  0.8206  0.0155 -1.9304
 2669TIP3   OH2 8012   3.504   3.130   1.650 -0.1103  0.0199  0.3712
 2669TIP3    H1 8013   3.509   3.139   1.555  0.5222 -1.0236  0.2825
 2669TIP3    H2 8014   3.418   3.164   1.674 -0.8401 -0.9797 -0.7461
 2670TIP3   OH2 8015   0.622   3.931   5.099  0.4380  0.4437  0.3772
 2670TIP3    H1 8016   0.619   3.888   5.013  0.8677  0.0989  0.5314
 2670TIP3    H2 8017   0.701   3.896   5.140  0.5327  1.0229  0.6971
 2671TIP3   OH2 8018   1.669   4.056   0.581  0.2954  0.4231 -0.2150
 2671TIP3    H1 8019   1.660   3.986   0.646 -3.0324 -0.9587 -1.9352
 2671TIP3    H2 8020   1.693   4.133   0.633  1.9625 -1.4419  2.0307
 2672TIP3   OH2 8021   4.445   3.679   3.331  0.4981 -0.6492 -0.0636
 2672TIP3    H1 8022   4.396   3.758   3.351  0.4675 -0.8273  0.5902
 2672TIP3    H2 8023   4.521   3.682   3.390  1.0368 -0.5949 -0.7537
 2673TIP3   OH2 8024   6.234   2.772   4.103  0.3343 -0.0659  0.6352
 2673TIP3    H1 8025   6.210   2.832   4.173 -3.0281  1.0090 -1.1869
 2673TIP3    H2 8026   6.170   2.700   4.111 -0.3033  0.2136 -1.3706
 2674TIP3   OH2 8027   2.391   1.965   0.566 -0.7591 -0.3435  0.0238
 2674TIP3    H1 8028   2.449   1.946   0.492  0.8218  1.7043  0.6235
 2674TIP3    H2 8029   2.303   1.952   0.531 -0.0188 -2.6505 -1.2008
 2675TIP3   OH2 8030   3.575   0.995   3.298  0.1611 -0.3102  0.0723
 2675TIP3    H1 8031   3.522   0.922   3.331 -0.9414  0.3424 -0.2196
 2675TIP3    H2 8032   3.547   1.071   3.349 -0.2874  0.3464 -1.0987
 2676TIP3   OH2 8033   1.910   1.943   2.819 -0.0674 -0.7744  0.3121
 2676TIP3    H1 8034   1.838   1.972   2.875 -1.4612 -0.3255 -1.6077
 2676TIP3    H2 8035   1.973   1.904   2.879 -1.1720  0.2679  2.2452
 2677TIP3   OH2 8036   1.441   5.976   3.664 -0.5492  0.8954 -0.7036
 2677TIP3    H1 8037   1.513   5.935   3.616 -1.7330 -2.4145  0.0639
 2677TIP3    H2 8038   1.480   6.052   3.706  2.5248 -0.7340 -0.3516
 2678TIP3   OH2 8039   6.035   1.317   2.554  0.0576  0.2160 -0.0443
 2678TIP3    H1 8040   6.099   1.246   2.560  0.1035  0.2286 -0.3691
 2678TIP3    H2 8041   5.981   1.294   2.479  0.2909  0.7049 -0.3686
 2679TIP3   OH2 8042   4.439   3.219   1.450  0.4230  0.1260 -0.7968
 2679TIP3    H1 8043   4.375   3.268   1.399 -0.3957 -0.7341 -0.6252
 2679TIP3    H2 8044   4.514   3.209   1.391 -0.0433  0.1662 -1.4028
 2680TIP3   OH2 8045   0.425   1.232   2.208 -0.0220 -0.0050 -0.4263
 2680TIP3    H1 8046   0.363   1.232   2.135 -0.4887 -2.0965 -0.1059
 2680TIP3    H2 8047   0.508   1.259   2.170 -0.5543  0.2292 -1.4441
 2681TIP3   OH2 8048   2.046   4.801   3.732 -0.4599 -0.3469 -0.6019
 2681TIP3    H1 8049   2.072   4.862   3.801 -0.4167 -0.5314 -0.4541
 2681TIP3    H2 8050   1.993   4.735   3.777 -0.2731 -0.5737 -0.7145
 2682TIP3   OH2 8051   5.890   2.076   1.636 -0.3461  0.6282 -0.0770
 2682TIP3    H1 8052   5.834   1.999   1.635  0.0457  0.2490  2.1870
 2682TIP3    H2 8053   5.899   2.100   1.544 -0.4811 -2.0243 -0.8760
 2683TIP3   OH2 8054   5.277   1.450   5.199  0.6548  0.4320  0.1676
 2683TIP3    H1 8055   5.203   1.391   5.182  0.2918  0.8402  0.3271
 2683TIP3    H2 8056   5.246   1.536   5.173  1.0784  0.6052  0.2272
 2684TIP3   OH2 8057   5.651   3.600   2.647  0.0139  0.0241  0.3219
 2684TIP3    H1 8058   5.727   3.624   2.700 -0.8569  2.6090  0.5250
 2684TIP3    H2 8059   5.687   3.543   2.579  2.5701  2.6782 -0.7557
 2685TIP3   OH2 8060   6.256   2.366   1.907  0.6233 -0.7255 -0.2849
 2685TIP3    H1 8061   6.260   2.459   1.885 -1.1800 -0.4733  0.2496
 2685TIP3    H2 8062   6.279   2.363   2.000 -1.5939 -0.4469  0.3417
 2686TIP3   OH2 8063   0.336   1.632   4.226  0.2698  0.1535  0.0730
 2686TIP3    H1 8064   0.266   1.595   4.281  0.2118 -0.1790 -0.2204
 2686TIP3    H2 8065   0.291   1.663   4.147  0.5832 -1.0736 -0.6128
 2687TIP3   OH2 8066   2.584   2.573   2.409 -0.2527  0.3504 -0.2573
 2687TIP3    H1 8067   2.619   2.491   2.443  0.9612 -0.4697 -3.1528
 2687TIP3    H2 8068   2.514   2.547   2.349 -1.2676  1.5923  0.3429
 2688TIP3   OH2 8069   0.832   3.611   4.677  0.1552  0.3696 -0.2818
 2688TIP3    H1 8070   0.843   3.548   4.748  1.0185  1.8786  0.9745
 2688TIP3    H2 8071   0.738   3.611   4.659 -0.0536 -0.1484  0.7535
 2689TIP3   OH2 8072   2.333   4.436   2.318  0.9360  0.7377  0.2119
 2689TIP3    H1 8073   2.368   4.503   2.260  1.4091  0.6650  0.4092
 2689TIP3    H2 8074   2.377   4.451   2.402  2.3869 -0.8827 -0.1988
 2690TIP3   OH2 8075   1.626   3.879   4.147 -0.4683 -0.4085  0.0114
 2690TIP3    H1 8076   1.708   3.896   4.194  0.4150 -0.0370 -1.6037
 2690TIP3    H2 8077   1.558   3.891   4.213  0.8189 -2.6190  1.9314
 2691TIP3   OH2 8078   2.478   2.336   0.789  0.4747 -0.2348  0.3159
 2691TIP3    H1 8079   2.565   2.309   0.759  1.1504  1.2476  0.8603
 2691TIP3    H2 8080   2.448   2.261   0.842  0.3315 -1.8009 -1.8566
 2692TIP3   OH2 8081   6.063   0.249   4.556  0.6663  0.4009  0.2344
 2692TIP3    H1 8082   6.038   0.157   4.571  2.0433  0.1764  1.4102
 2692TIP3    H2 8083   5.995   0.283   4.497 -0.3287 -1.1399  0.4216
 2693TIP3   OH2 8084   0.080   5.021   3.340  0.3663 -0.2772  0.5183
 2693TIP3    H1 8085   0.016   4.962   3.300  0.5143  0.1018 -0.3077
 2693TIP3    H2 8086   0.126   5.060   3.266 -1.0285  2.3477  0.9241
 2694TIP3   OH2 8087   2.763   3.933   1.736  0.1217 -0.5858  0.2781
 2694TIP3    H1 8088   2.793   3.847   1.707 -0.6505 -0.1924 -1.8828
 2694TIP3    H2 8089   2.673   3.938   1.706  0.7575  1.7322 -1.5086
 2695TIP3   OH2 8090   3.818   5.638   2.967 -0.0138  0.5591 -0.0723
 2695TIP3    H1 8091   3.816   5.710   3.030  0.6179 -0.2988  0.9602
 2695TIP3    H2 8092   3.886   5.662   2.905  0.1376  0.8941  0.2207
 2696TIP3   OH2 8093   5.350   5.853   1.011 -0.5100  0.3509 -0.1223
 2696TIP3    H1 8094   5.375   5.920   1.075  3.5064 -1.0299  0.0558
 2696TIP3    H2 8095   5.401   5.875   0.932  1.5208 -2.6952  0.1706
 2697TIP3   OH2 8096   1.928   2.377   1.190  0.4438 -0.5957  0.0583
 2697TIP3    H1 8097   1.851   2.380   1.246  0.3205  0.4909 -0.1399
 2697TIP3    H2 8098   1.937   2.285   1.166  0.0530 -0.9534  1.2289
 2698TIP3   OH2 8099   1.513   3.665   1.636  0.3935  0.1800 -0.3178
 2698TIP3    H1 8100   1.419   3.649   1.640  0.9639 -4.3493  0.8338
 2698TIP3    H2 8101   1.535   3.657   1.543 -0.3644  1.9250 -0.6783
 2699TIP3   OH2 8102   4.182   2.522   2.625  0.4368  0.1031 -0.2138
 2699TIP3    H1 8103   4.249   2.584   2.653 -0.2015  1.4150 -1.4260
 2699TIP3    H2 8104   4.152   2.556   2.540 -2.3902  0.1058  0.6957
 2700TIP3   OH2 8105   4.599   5.352   1.114 -0.4204 -0.5388  0.1632
 2700TIP3    H1 8106   4.615   5.259   1.101  0.0466 -0.3280 -0.9070
 2700TIP3    H2 8107   4.577   5.360   1.207  1.5015 -1.4606  0.7573
 2701TIP3   OH2 8108   1.093   1.303   1.003 -0.0238 -0.0934 -0.1964
 2701TIP3    H1 8109   1.146   1.224   0.993 -1.0776 -0.9307  0.5795
 2701TIP3    H2 8110   1.124   1.343   1.084 -0.3743 -0.4254  0.1036
 2702TIP3   OH2 8111   5.142   0.259   2.223  0.1486 -0.4401  0.2881
 2702TIP3    H1 8112   5.093   0.327   2.269  1.2730  1.3472 -1.0022
 2702TIP3    H2 8113   5.155   0.190   2.289  0.2757  1.2518  2.1453
 2703TIP3   OH2 8114   3.230   0.322   2.460  0.3428  0.4208  0.1924
 2703TIP3    H1 8115   3.326   0.319   2.455  0.3690 -0.0157  0.9138
 2703TIP3    H2 8116   3.210   0.414   2.476  0.5659  0.7568 -1.3090
 2704TIP3   OH2 8117   2.771   3.782   0.072  0.3494  0.1811  0.2244
 2704TIP3    H1 8118   2.733   3.802  -0.013 -1.1629  1.4040  1.1423
 2704TIP3    H2 8119   2.863   3.762   0.053 -0.0194  0.1412 -1.7043
 2705TIP3   OH2 8120   1.954   4.403   4.872 -0.5555 -0.1032  0.5475
 2705TIP3    H1 8121   1.866   4.391   4.908 -1.3122 -1.6618 -1.5881
 2705TIP3    H2 8122   1.999   4.322   4.893 -0.6810 -0.6055 -0.9723
 2706TIP3   OH2 8123   0.720   1.832   5.161 -0.6826  0.0132  0.0368
 2706TIP3    H1 8124   0.751   1.767   5.225 -1.6572 -1.1412 -0.6220
 2706TIP3    H2 8125   0.800   1.870   5.125 -0.1069  0.4147  1.6411
 2707TIP3   OH2 8126   5.035   1.724   4.122 -0.2428  0.2698 -0.4440
 2707TIP3    H1 8127   4.988   1.642   4.137 -1.7176  1.0797 -0.4412
 2707TIP3    H2 8128   4.989   1.788   4.176  0.4269  1.2551 -1.0161
 2708TIP3   OH2 8129   2.747   1.495   2.276  0.0276 -0.0279  0.5893
 2708TIP3    H1 8130   2.781   1.407   2.291 -0.7043 -0.3133  0.6135
 2708TIP3    H2 8131   2.657   1.492   2.308 -0.7213  0.0988 -1.3509
 2709TIP3   OH2 8132   4.288   1.448   4.015  0.3586 -0.2485  0.2952
 2709TIP3    H1 8133   4.260   1.463   4.106  1.5411  2.3731  0.3171
 2709TIP3    H2 8134   4.221   1.492   3.962  0.1150 -1.0555 -0.0789
 2710TIP3   OH2 8135   0.290   4.003   2.118  0.5245 -0.1443  0.1003
 2710TIP3    H1 8136   0.338   4.086   2.119 -0.2179  0.3122  1.7377
 2710TIP3    H2 8137   0.199   4.027   2.136 -0.1692 -1.1026 -1.8384
 2711TIP3   OH2 8138   3.067   3.066   2.099  0.0392 -0.1370 -0.8982
 2711TIP3    H1 8139   3.069   3.081   2.194  0.6831 -0.6246 -0.8248
 2711TIP3    H2 8140   3.032   2.977   2.090  1.3054 -0.6450 -1.0293
 2712TIP3   OH2 8141   2.286   5.085   1.870 -0.5286 -0.5133  0.1968
 2712TIP3    H1 8142   2.218   5.149   1.847  1.2056  1.0820 -0.7845
 2712TIP3    H2 8143   2.358   5.138   1.906  1.6325 -1.6395 -2.1259
 2713TIP3   OH2 8144   0.785   5.726   1.065  0.6293  0.2435 -0.4694
 2713TIP3    H1 8145   0.781   5.762   1.153  1.9013  0.6858 -0.5696
 2713TIP3    H2 8146   0.731   5.784   1.012  0.4494  0.3988 -0.1191
 2714TIP3   OH2 8147   1.904   3.883   4.857  0.7519 -0.0080  0.3204
 2714TIP3    H1 8148   1.872   3.973   4.862  1.7973  0.4024 -0.1295
 2714TIP3    H2 8149   1.964   3.874   4.931  1.4290 -0.0038 -0.2144
 2715TIP3   OH2 8150   1.536   3.082   1.890 -0.5264 -0.4243  0.3329
 2715TIP3    H1 8151   1.513   3.031   1.813 -1.9147  0.4395  0.1305
 2715TIP3    H2 8152   1.620   3.123   1.868 -1.7007  1.1850 -1.4824
 2716TIP3   OH2 8153   3.221   3.478   5.088  0.7087 -0.0249  0.0179
 2716TIP3    H1 8154   3.317   3.483   5.084  0.7562 -1.2533 -0.8959
 2716TIP3    H2 8155   3.202   3.451   5.178  1.1951  0.5674  0.3066
 2717TIP3   OH2 8156   1.223   4.817   5.178 -0.6120  0.2646 -0.2703
 2717TIP3    H1 8157   1.293   4.764   5.215 -0.8819 -0.0578 -0.2101
 2717TIP3    H2 8158   1.183   4.760   5.111 -0.3352  0.7195 -0.8247
 2718TIP3   OH2 8159   4.886   1.712   5.171 -0.0045  0.1619  0.0666
 2718TIP3    H1 8160   4.818   1.779   5.163  0.6746  0.7796 -0.6628
 2718TIP3    H2 8161   4.838   1.630   5.180 -0.8537  0.7372  1.0710
 2719TIP3   OH2 8162   5.914   5.565   3.148  0.0591  0.0060 -0.1862
 2719TIP3    H1 8163   5.820   5.582   3.160 -0.0618  0.7597 -1.9235
 2719TIP3    H2 8164   5.948   5.559   3.237 -1.7127 -0.8032  0.4955
 2720TIP3   OH2 8165   3.816   0.168   3.834 -0.2571  0.2556 -0.2214
 2720TIP3    H1 8166   3.751   0.179   3.903 -0.2529  1.6748 -0.4055
 2720TIP3    H2 8167   3.788   0.228   3.765  0.3760 -0.2859 -0.9680
 2721TIP3   OH2 8168   1.634   0.591   1.477  0.6467  0.2507 -0.2153
 2721TIP3    H1 8169   1.729   0.587   1.489  0.4811 -0.7710  0.9755
 2721TIP3    H2 8170   1.604   0.502   1.498 -0.6086  0.6680 -0.1809
 2722TIP3   OH2 8171   2.533   1.853   4.663  0.0120 -0.1786  0.3474
 2722TIP3    H1 8172   2.616   1.899   4.647 -0.0914  0.5422  1.6903
 2722TIP3    H2 8173   2.556   1.761   4.658  0.3342 -0.0418 -1.9074
 2723TIP3   OH2 8174   5.454   3.408   4.968  0.7440 -0.0301 -0.0561
 2723TIP3    H1 8175   5.454   3.346   5.041  1.2261  0.1684  0.1148
 2723TIP3    H2 8176   5.384   3.377   4.911  1.2539 -0.9990 -0.1916
 2724TIP3   OH2 8177   4.430   5.056   4.087  0.4071  0.4191 -0.1238
 2724TIP3    H1 8178   4.451   5.119   4.018  1.2545  0.4432  0.1454
 2724TIP3    H2 8179   4.376   5.105   4.149  1.3786  0.9916  0.2777
 2725TIP3   OH2 8180   3.743   4.808   4.415  0.1893  0.1082  0.6079
 2725TIP3    H1 8181   3.650   4.822   4.428 -0.2755 -1.2449 -0.8879
 2725TIP3    H2 8182   3.764   4.855   4.334 -0.0364 -2.3331 -0.9942
 2726TIP3   OH2 8183   3.059   3.310   1.644  0.5948  0.2072  0.5319
 2726TIP3    H1 8184   2.971   3.287   1.612  0.5660  1.4220 -0.3462
 2726TIP3    H2 8185   3.051   3.308   1.739 -0.1951 -0.3873  0.4658
 2727TIP3   OH2 8186   1.663   1.725   0.802  0.0223 -0.7348 -0.0370
 2727TIP3    H1 8187   1.744   1.728   0.853  1.4209 -2.0879 -2.0178
 2727TIP3    H2 8188   1.678   1.787   0.731 -0.2188 -1.7551 -1.0028
 2728TIP3   OH2 8189   3.762   1.297   3.810  0.0917  0.1250  0.2184
 2728TIP3    H1 8190   3.844   1.250   3.800 -0.1563 -0.2275 -0.2340
 2728TIP3    H2 8191   3.747   1.337   3.724 -0.2564  0.1078  0.2678
 2729TIP3   OH2 8192   0.112   4.970   5.152  0.3387 -0.4775 -0.0696
 2729TIP3    H1 8193   0.150   5.013   5.076 -2.8175  1.1828 -0.8677
 2729TIP3    H2 8194   0.089   4.882   5.122  1.2144 -0.6395 -0.2906
 2730TIP3   OH2 8195   4.256   1.970   2.738 -0.3950  0.4882 -0.2627
 2730TIP3    H1 8196   4.334   1.946   2.788 -0.7518 -1.8694 -0.7504
 2730TIP3    H2 8197   4.202   1.891   2.736 -1.3416  1.0915 -2.6396
 2731TIP3   OH2 8198   3.503   0.190   1.770  0.8013 -0.2427 -0.3751
 2731TIP3    H1 8199   3.560   0.256   1.807 -0.0147 -1.4592  3.5550
 2731TIP3    H2 8200   3.425   0.238   1.741  0.7720  0.6909  1.1772
 2732TIP3   OH2 8201   4.319   1.235   2.266 -0.6566 -0.3589  0.0662
 2732TIP3    H1 8202   4.287   1.255   2.354 -0.2377  0.5172  0.0277
 2732TIP3    H2 8203   4.387   1.169   2.279 -0.3332  0.0410  0.4375
 2733TIP3   OH2 8204   5.597   0.968   0.125  0.0133 -0.8965  0.3593
 2733TIP3    H1 8205   5.668   0.904   0.126 -1.2852 -2.3775  1.2862
 2733TIP3    H2 8206   5.601   1.006   0.037  1.3784 -1.5688  0.1001
 2734TIP3   OH2 8207   3.053   3.374   2.439 -0.0916  0.1985 -0.0690
 2734TIP3    H1 8208   3.128   3.359   2.382  0.4168  0.9399  0.3915
 2734TIP3    H2 8209   3.070   3.458   2.480 -0.6757 -0.1072  0.8305
 2735TIP3   OH2 8210   0.361   3.291   0.799  0.7911  0.5626 -0.0918
 2735TIP3    H1 8211   0.331   3.381   0.790  0.9212  0.5415 -0.7825
 2735TIP3    H2 8212   0.456   3.298   0.813  1.1610  0.4699 -2.2623
 2736TIP3   OH2 8213   2.239   3.356   5.124  0.2066  0.3174  0.1525
 2736TIP3    H1 8214   2.255   3.268   5.090 -0.6172  0.5674 -0.9218
 2736TIP3    H2 8215   2.254   3.414   5.049  0.4038  1.0662  0.7590
 2737TIP3   OH2 8216   4.674   1.643   2.023 -0.2494 -0.4046  0.0133
 2737TIP3    H1 8217   4.602   1.583   2.040 -0.3664 -0.1101  0.5694
 2737TIP3    H2 8218   4.741   1.589   1.981 -2.0775 -0.0521 -3.7785
 2738TIP3   OH2 8219   5.513   5.777   1.416  0.0021 -0.7610  0.3888
 2738TIP3    H1 8220   5.577   5.846   1.433 -0.2537 -0.2580 -0.5909
 2738TIP3    H2 8221   5.548   5.731   1.340  0.2350 -1.8139  1.1126
 2739TIP3   OH2 8222   2.522   2.175   4.501 -0.3116 -0.1161  0.0171
 2739TIP3    H1 8223   2.515   2.094   4.451  2.7079 -1.3263  1.2703
 2739TIP3    H2 8224   2.567   2.236   4.443  1.1601 -0.7736  0.4254
 2740TIP3   OH2 8225   5.624   0.787   2.043 -0.7165  0.4457  0.0923
 2740TIP3    H1 8226   5.574   0.786   2.125 -0.1175  1.2731  0.4773
 2740TIP3    H2 8227   5.559   0.802   1.975 -0.8936  2.8595  0.7020
 2741TIP3   OH2 8228   1.107   3.908   3.209  0.0556 -0.4010  0.1997
 2741TIP3    H1 8229   1.043   3.904   3.280 -0.7413 -1.3775 -0.5392
 2741TIP3    H2 8230   1.188   3.873   3.247 -0.5768 -1.6772  0.4240
 2742TIP3   OH2 8231   6.241   5.153   0.169  0.5169 -0.0860 -0.7868
 2742TIP3    H1 8232   6.174   5.096   0.132  1.0904 -2.5612  1.6258
 2742TIP3    H2 8233   6.322   5.102   0.163  1.7263  1.7816 -1.3004
 2743TIP3   OH2 8234   0.707   2.565   1.790  0.1686 -0.3837 -0.2381
 2743TIP3    H1 8235   0.686   2.500   1.723  0.9540  2.1755 -3.2392
 2743TIP3    H2 8236   0.803   2.565   1.793  0.1651  0.3422  0.0061
 2744TIP3   OH2 8237   4.187   2.795   3.040  0.4059 -0.1611  0.0014
 2744TIP3    H1 8238   4.244   2.745   2.981  0.2199  0.1938 -0.4854
 2744TIP3    H2 8239   4.182   2.882   3.001  0.7304  0.2426  0.8515
 2745TIP3   OH2 8240   1.314   2.473   3.465 -0.6278  0.2023  0.1637
 2745TIP3    H1 8241   1.323   2.499   3.557  0.6531  1.1875 -0.2126
 2745TIP3    H2 8242   1.338   2.552   3.416 -1.2303 -0.3361 -1.0175
 2746TIP3   OH2 8243   4.794   4.873   4.153 -0.4391  0.5506 -0.3945
 2746TIP3    H1 8244   4.778   4.813   4.225  2.5740  0.0470 -0.0265
 2746TIP3    H2 8245   4.798   4.960   4.194  2.5694  0.1497  0.4457
 2747TIP3   OH2 8246   0.077   5.419   3.716  0.4430 -0.2975  0.5056
 2747TIP3    H1 8247   0.033   5.340   3.685  0.5201 -0.6526  1.2846
 2747TIP3    H2 8248   0.025   5.448   3.791 -1.0654  1.8222 -1.2089
 2748TIP3   OH2 8249   2.149   0.131   0.364  0.2882  0.8153 -0.3279
 2748TIP3    H1 8250   2.086   0.066   0.396 -0.6069  0.7804 -2.0063
 2748TIP3    H2 8251   2.113   0.215   0.391 -0.9609  0.8476 -1.9439
 2749TIP3   OH2 8252   2.741   5.759   1.399 -0.1684 -0.2694 -0.3960
 2749TIP3    H1 8253   2.830   5.752   1.433 -0.7362  1.1612  1.5585
 2749TIP3    H2 8254   2.690   5.698   1.451 -0.7122  0.5419  0.0459
 2750TIP3   OH2 8255   4.075   2.500   3.091 -0.1941  0.2437  0.1395
 2750TIP3    H1 8256   4.094   2.522   3.000  1.8763 -0.8567  0.2328
 2750TIP3    H2 8257   4.126   2.564   3.141  1.3161 -1.1213  0.4423
 2751TIP3   OH2 8258   3.595   3.527   0.549 -0.1241  0.0904 -0.4436
 2751TIP3    H1 8259   3.649   3.596   0.587 -0.6667  0.7500 -0.8534
 2751TIP3    H2 8260   3.574   3.558   0.461 -0.1448 -0.7266 -0.7374
 2752TIP3   OH2 8261   1.027   5.688   0.422 -0.3268  0.3062 -0.2039
 2752TIP3    H1 8262   1.113   5.729   0.433 -0.1282 -0.0479 -0.4227
 2752TIP3    H2 8263   0.972   5.729   0.489 -0.1031  0.8450 -0.3452
 2753TIP3   OH2 8264   4.308   1.147   1.831 -0.4045 -0.3070  0.1710
 2753TIP3    H1 8265   4.268   1.091   1.764 -1.8982 -0.6062  1.2469
 2753TIP3    H2 8266   4.282   1.106   1.914  2.2187 -0.5214  0.9661
 2754TIP3   OH2 8267   5.545   0.238   4.554  0.2883  0.2351  0.0935
 2754TIP3    H1 8268   5.542   0.305   4.623  0.4052  0.2856  0.0493
 2754TIP3    H2 8269   5.460   0.245   4.511 -0.7360 -1.3604  1.7119
 2755TIP3   OH2 8270   3.709   4.365   1.933 -0.3109 -0.1073  0.5544
 2755TIP3    H1 8271   3.764   4.388   1.858  1.6916 -1.2562  1.5780
 2755TIP3    H2 8272   3.621   4.394   1.908  0.3408 -0.0886 -2.0599
 2756TIP3   OH2 8273   1.846   4.380   3.957 -0.0636 -0.2507  0.1267
 2756TIP3    H1 8274   1.855   4.449   3.891 -0.9276  0.8027  1.0754
 2756TIP3    H2 8275   1.756   4.348   3.946 -1.1491  1.7193  2.4087
 2757TIP3   OH2 8276   5.784   4.290   1.548  0.1250  0.1479 -0.4133
 2757TIP3    H1 8277   5.816   4.369   1.590  1.6777  0.7585 -2.5782
 2757TIP3    H2 8278   5.863   4.242   1.523 -0.7736 -1.7986  0.2553
 2758TIP3   OH2 8279   5.640   5.292   2.926  0.0947  0.1884  0.0470
 2758TIP3    H1 8280   5.662   5.236   2.852  0.7332  0.8828 -0.3016
 2758TIP3    H2 8281   5.708   5.359   2.927 -0.4293  0.7300  0.6994
 2759TIP3   OH2 8282   5.719   4.214   3.487  0.4006 -0.2364  0.0313
 2759TIP3    H1 8283   5.742   4.291   3.539  1.2532 -0.3756 -0.1255
 2759TIP3    H2 8284   5.758   4.231   3.401 -0.1317 -0.4651 -0.2613
 2760TIP3   OH2 8285   3.417   1.030   0.853  0.0406 -0.3616 -0.1689
 2760TIP3    H1 8286   3.483   1.010   0.920 -0.3310  1.3157  0.7488
 2760TIP3    H2 8287   3.382   0.944   0.829 -1.0871 -1.0050  3.1523
 2761TIP3   OH2 8288   2.552   0.004   1.700  0.1912 -0.0049 -0.6675
 2761TIP3    H1 8289   2.472  -0.002   1.752  0.1277 -3.9437 -0.9121
 2761TIP3    H2 8290   2.521   0.011   1.610  0.2135  0.8897 -0.6169
 2762TIP3   OH2 8291   3.959   2.356   2.463 -0.1734  0.2095  0.4306
 2762TIP3    H1 8292   4.014   2.411   2.407  0.2439 -1.7378 -1.2112
 2762TIP3    H2 8293   4.021   2.311   2.521 -0.5069  1.3390  1.7264
 2763TIP3   OH2 8294   1.289   1.981   0.606 -0.1909  0.5458  0.2401
 2763TIP3    H1 8295   1.362   2.029   0.565 -0.3372  1.2498  0.7747
 2763TIP3    H2 8296   1.328   1.899   0.636  0.4336  0.9696  0.6371
 2764TIP3   OH2 8297   4.130   2.474   2.048  0.1261  0.1796  0.7447
 2764TIP3    H1 8298   4.151   2.423   1.970 -0.2376  0.6166  0.3529
 2764TIP3    H2 8299   4.111   2.409   2.115  0.2509 -0.1978  0.4192
 2765TIP3   OH2 8300   2.751   3.273   1.845  0.7084 -0.0184  0.0732
 2765TIP3    H1 8301   2.807   3.264   1.921  1.7286  0.5357 -0.5874
 2765TIP3    H2 8302   2.719   3.184   1.827 -0.4981  0.0063  1.8083
 2766TIP3   OH2 8303   2.398   3.666   3.158  0.4119 -0.3289 -0.2463
 2766TIP3    H1 8304   2.313   3.707   3.176  0.6810 -0.2232  0.8549
 2766TIP3    H2 8305   2.461   3.722   3.202  1.0459 -0.4801 -0.9533
 2767TIP3   OH2 8306   3.437   3.892   2.569  0.4370 -0.0120 -0.4042
 2767TIP3    H1 8307   3.449   3.967   2.627  0.0286 -0.3072  0.0707
 2767TIP3    H2 8308   3.449   3.816   2.626 -0.2722 -0.3061 -0.6363
 2768TIP3   OH2 8309   3.182   3.737   1.836 -0.1522  0.4397 -0.2715
 2768TIP3    H1 8310   3.227   3.676   1.778 -2.2064 -1.2316 -0.2537
 2768TIP3    H2 8311   3.230   3.730   1.919 -0.5091 -1.4785 -0.1672
 2769TIP3   OH2 8312   3.820   0.235   0.313  0.7695  0.3314  0.3386
 2769TIP3    H1 8313   3.806   0.149   0.354  0.3233  0.3420  0.2078
 2769TIP3    H2 8314   3.860   0.288   0.383 -0.9000  0.6504  1.1034
 2770TIP3   OH2 8315   5.608   3.638   1.923 -0.2430  0.9346  0.1927
 2770TIP3    H1 8316   5.531   3.605   1.970  0.1135 -0.3595 -0.0933
 2770TIP3    H2 8317   5.663   3.677   1.991  0.2455 -0.8709  0.8911
 2771TIP3   OH2 8318   4.410   5.704   0.433  0.2655 -0.2245  0.0533
 2771TIP3    H1 8319   4.326   5.724   0.475 -0.3950 -0.5247 -1.0674
 2771TIP3    H2 8320   4.421   5.773   0.368  0.0931 -1.0622 -0.8898
 2772TIP3   OH2 8321   4.295   3.665   1.374  0.1938 -0.0376  0.5113
 2772TIP3    H1 8322   4.208   3.625   1.379  0.6732 -1.2487 -0.2543
 2772TIP3    H2 8323   4.338   3.620   1.301  0.5119  2.4692 -0.9637
 2773TIP3   OH2 8324   5.088   3.004   3.677  0.7459  0.0020  0.0478
 2773TIP3    H1 8325   5.051   2.918   3.700  0.5192  0.1636  0.2980
 2773TIP3    H2 8326   5.089   3.004   3.581 -2.3124  0.9595 -0.0956
 2774TIP3   OH2 8327   3.775   1.250   3.323  0.4534 -0.2819 -0.1086
 2774TIP3    H1 8328   3.705   1.195   3.359  1.4008 -3.3810 -2.5084
 2774TIP3    H2 8329   3.856   1.206   3.350  1.2293 -0.9460 -3.1666
 2775TIP3   OH2 8330   2.365   5.231   2.374  0.0363 -0.0665  0.2808
 2775TIP3    H1 8331   2.358   5.139   2.351  0.8615 -0.0677 -0.0133
 2775TIP3    H2 8332   2.348   5.234   2.468 -0.5848 -0.4351  0.1812
 2776TIP3   OH2 8333   3.437   4.688   1.451  0.1916  0.3191 -0.7321
 2776TIP3    H1 8334   3.348   4.669   1.422  0.5075 -0.1130 -1.4367
 2776TIP3    H2 8335   3.493   4.632   1.397  0.8556  0.1006  0.1460
 2777TIP3   OH2 8336   3.368   1.442   1.820  0.3302  0.0599  0.3563
 2777TIP3    H1 8337   3.431   1.371   1.812  2.2509  1.6337  0.5139
 2777TIP3    H2 8338   3.374   1.469   1.911 -1.2976 -0.3595  0.6019
 2778TIP3   OH2 8339   3.127   1.118   2.213  0.2495  0.1792  0.3142
 2778TIP3    H1 8340   3.195   1.109   2.146  0.2441 -0.0688  0.3400
 2778TIP3    H2 8341   3.047   1.088   2.170  0.2910 -0.2161  0.5060
 2779TIP3   OH2 8342   2.700   5.625   5.077 -0.0177  0.2435 -0.4642
 2779TIP3    H1 8343   2.777   5.573   5.055 -0.2400 -0.2912 -0.0130
 2779TIP3    H2 8344   2.655   5.573   5.144  0.7289  1.8829  1.4039
 2780TIP3   OH2 8345   2.441   5.514   1.092 -0.0977  0.2844 -0.1232
 2780TIP3    H1 8346   2.531   5.508   1.060 -0.3024 -1.6625 -0.4943
 2780TIP3    H2 8347   2.410   5.599   1.061  1.8930  1.4451  0.8529
 2781TIP3   OH2 8348   0.913   4.720   1.807 -0.6063  0.0780 -0.4190
 2781TIP3    H1 8349   1.001   4.741   1.839 -0.5675 -1.2812  0.4692
 2781TIP3    H2 8350   0.923   4.634   1.766 -1.4231  0.1603 -0.8054
 2782TIP3   OH2 8351   5.885   4.755   0.448  0.1359  1.1333  0.0484
 2782TIP3    H1 8352   5.844   4.696   0.386  0.4881  1.4521 -0.4966
 2782TIP3    H2 8353   5.834   4.745   0.529  0.5778 -0.3770  0.1591
 2783TIP3   OH2 8354   3.465   2.401   2.660 -0.0889  0.2935 -0.5980
 2783TIP3    H1 8355   3.497   2.395   2.750 -1.5814  0.5660 -0.0275
 2783TIP3    H2 8356   3.535   2.447   2.613  1.1553 -0.7518  0.1713
 2784TIP3   OH2 8357   5.079   3.152   3.887  0.3396 -0.9738  0.4746
 2784TIP3    H1 8358   4.991   3.115   3.899 -0.5241  0.6816 -0.3905
 2784TIP3    H2 8359   5.106   3.121   3.801  0.2620 -0.8607  0.4084
 2785TIP3   OH2 8360   5.247   0.367   3.150 -0.3219 -0.3489 -0.5642
 2785TIP3    H1 8361   5.238   0.440   3.211 -2.0682 -0.9550 -0.0341
 2785TIP3    H2 8362   5.325   0.388   3.098  1.3901  0.1070  1.9732
 2786TIP3   OH2 8363   3.556   3.523   0.976  0.4795  0.6023  0.1830
 2786TIP3    H1 8364   3.514   3.603   1.008  1.7727  1.8741 -1.1676
 2786TIP3    H2 8365   3.485   3.458   0.975 -0.6749  1.7793  1.0231
 2787TIP3   OH2 8366   3.136   0.364   4.202  0.1522 -0.9327  0.2912
 2787TIP3    H1 8367   3.167   0.286   4.249  0.9949  0.1680  1.6253
 2787TIP3    H2 8368   3.063   0.396   4.254 -1.6877 -2.0234 -1.4477
 2788TIP3   OH2 8369   4.941   2.689   3.119  0.0293  0.5259  0.3954
 2788TIP3    H1 8370   4.988   2.767   3.092  0.7307  0.5067  1.5027
 2788TIP3    H2 8371   4.967   2.622   3.056 -0.1187  1.0190 -0.2023
 2789TIP3   OH2 8372   0.385   2.913   4.397  0.5387 -0.6611  0.2268
 2789TIP3    H1 8373   0.420   2.853   4.331  0.0950  0.1574 -0.7645
 2789TIP3    H2 8374   0.321   2.966   4.350 -2.4972 -2.4163  2.0480
 2790TIP3   OH2 8375   3.668   0.198   4.922  0.0459 -0.3182  0.2279
 2790TIP3    H1 8376   3.677   0.176   5.014  0.8372  0.9684  0.4875
 2790TIP3    H2 8377   3.580   0.236   4.915 -0.8953 -2.3838 -0.0195
 2791TIP3   OH2 8378   0.174   0.860   1.875  0.1343  0.1020  0.2744
 2791TIP3    H1 8379   0.120   0.837   1.950  2.4490 -3.0849  1.2229
 2791TIP3    H2 8380   0.253   0.898   1.913  1.1716 -1.1811 -0.4999
 2792TIP3   OH2 8381   0.793   1.285   3.918  0.5351 -0.1546 -0.4040
 2792TIP3    H1 8382   0.701   1.264   3.936 -0.1076  1.8815 -1.0412
 2792TIP3    H2 8383   0.799   1.291   3.823  1.3271 -0.2356 -0.3698
 2793TIP3   OH2 8384   3.685   5.319   2.599 -0.0324  0.1905  0.2116
 2793TIP3    H1 8385   3.645   5.390   2.549  1.3720  1.8827  1.3445
 2793TIP3    H2 8386   3.767   5.301   2.553 -0.8142 -1.4275 -0.6157
 2794TIP3   OH2 8387   4.645   2.391   2.617 -0.2632  0.2158  0.4507
 2794TIP3    H1 8388   4.599   2.420   2.538  0.4171 -1.5445 -0.6590
 2794TIP3    H2 8389   4.716   2.454   2.628 -2.1012  2.2488  1.4754
 2795TIP3   OH2 8390   1.280   4.515   0.186 -0.2847  0.5395 -0.3943
 2795TIP3    H1 8391   1.311   4.446   0.245 -0.3492  0.6267 -0.2592
 2795TIP3    H2 8392   1.212   4.472   0.133  0.6369  0.1075 -1.2743
 2796TIP3   OH2 8393   2.431   1.286   0.616 -0.1520  0.1927  0.1713
 2796TIP3    H1 8394   2.385   1.301   0.533 -1.4218 -0.3815  0.7415
 2796TIP3    H2 8395   2.415   1.365   0.667 -0.9330 -0.2038  0.5514
 2797TIP3   OH2 8396   3.256   4.015   5.050 -0.0495 -0.1343  0.3081
 2797TIP3    H1 8397   3.288   4.041   5.136  1.8823 -1.1724 -0.0470
 2797TIP3    H2 8398   3.197   3.942   5.068 -0.9240  0.6774  0.8418
 2798TIP3   OH2 8399   0.736   2.660   3.732  0.0014 -0.2455  0.9031
 2798TIP3    H1 8400   0.684   2.580   3.738  1.6314 -1.3004  1.4254
 2798TIP3    H2 8401   0.819   2.632   3.694  0.7512  1.1269  1.4735
 2799TIP3   OH2 8402   0.958   5.013   0.616  0.1855  0.0506  0.0506
 2799TIP3    H1 8403   0.930   4.922   0.608  0.5113 -0.1643  1.1742
 2799TIP3    H2 8404   0.894   5.053   0.675  0.5840  0.3027  0.3170
 2800TIP3   OH2 8405   2.703   1.817   0.561  0.3561 -0.4961 -0.9021
 2800TIP3    H1 8406   2.784   1.844   0.518  0.5665 -0.9146 -0.7754
 2800TIP3    H2 8407   2.729   1.795   0.650 -0.4832  2.8017  0.3009
 2801TIP3   OH2 8408   5.495   3.004   3.819 -0.0543  0.4563 -0.3903
 2801TIP3    H1 8409   5.467   3.069   3.755  1.6794  2.4979  0.7627
 2801TIP3    H2 8410   5.509   2.924   3.769  2.6868  2.3401 -2.9921
 2802TIP3   OH2 8411   5.880   3.237   1.582 -0.0020 -0.1225 -0.1468
 2802TIP3    H1 8412   5.853   3.298   1.512 -1.4192  2.0101  2.0871
 2802TIP3    H2 8413   5.975   3.235   1.576 -0.0356  0.7332 -1.5478
 2803TIP3   OH2 8414   1.311   5.742   0.466 -0.0871 -0.0323 -0.9301
 2803TIP3    H1 8415   1.344   5.830   0.481 -0.9410  0.4694 -1.8912
 2803TIP3    H2 8416   1.349   5.689   0.536  0.9627  0.9634 -0.7328
 2804TIP3   OH2 8417   5.583   3.635   0.278  0.4745 -0.1586 -0.3592
 2804TIP3    H1 8418   5.551   3.696   0.345  0.6366 -1.4620  0.9577
 2804TIP3    H2 8419   5.537   3.661   0.198  0.0944  1.2920  0.3003
 2805TIP3   OH2 8420   5.849   4.942   2.319 -0.1029 -0.0788 -0.3200
 2805TIP3    H1 8421   5.754   4.937   2.306 -0.4542  0.9083  1.4598
 2805TIP3    H2 8422   5.869   4.868   2.377  0.1864 -0.1702 -0.5346
 2806TIP3   OH2 8423   4.896   5.278   0.655 -0.0536 -0.1571  0.2895
 2806TIP3    H1 8424   4.984   5.312   0.639  0.0803 -0.7952 -0.3729
 2806TIP3    H2 8425   4.905   5.218   0.728  0.2526 -0.9342 -0.3649
 2807TIP3   OH2 8426   0.783   2.618   3.345  0.1552  0.2119 -0.2385
 2807TIP3    H1 8427   0.825   2.591   3.426  0.4382  1.8423  0.2085
 2807TIP3    H2 8428   0.767   2.537   3.297  0.4221 -0.7427  1.2263
 2808TIP3   OH2 8429   0.151   0.173   4.646 -0.4606  0.2512 -0.3994
 2808TIP3    H1 8430   0.215   0.235   4.612  0.3606 -1.3928 -2.0103
 2808TIP3    H2 8431   0.070   0.195   4.600 -0.4500  0.7649 -0.1852
 2809TIP3   OH2 8432   0.261   2.826   2.444 -0.3546  0.1671 -0.4368
 2809TIP3    H1 8433   0.227   2.870   2.367  1.7896  0.1081 -1.4968
 2809TIP3    H2 8434   0.353   2.807   2.423 -0.4549 -2.4712  0.9649
 2810TIP3   OH2 8435   3.203   5.825   1.861  0.1078  0.2509 -0.0599
 2810TIP3    H1 8436   3.294   5.797   1.854  0.3695  0.7211  1.2679
 2810TIP3    H2 8437   3.202   5.889   1.931 -0.9341  1.6895 -1.3056
 2811TIP3   OH2 8438   4.210   3.804   0.044  0.5033  0.4451 -0.6952
 2811TIP3    H1 8439   4.128   3.766   0.014 -0.6186  1.7485  0.5598
 2811TIP3    H2 8440   4.219   3.885  -0.007  0.5803  0.7253 -0.2400
 2812TIP3   OH2 8441   5.880   4.975   4.877  0.3145 -0.3936  0.1535
 2812TIP3    H1 8442   5.874   5.070   4.889  0.6537 -0.2892 -0.4889
 2812TIP3    H2 8443   5.938   4.963   4.802  2.3308 -1.1699  1.7193
 2813TIP3   OH2 8444   5.461   4.599   1.096  0.0764  0.5635 -0.3024
 2813TIP3    H1 8445   5.368   4.591   1.113  0.2266 -0.5338  0.0845
 2813TIP3    H2 8446   5.503   4.552   1.169  0.8702 -0.5010 -1.3987
 2814TIP3   OH2 8447   3.068   4.727   3.053 -0.8461 -0.0006 -0.3720
 2814TIP3    H1 8448   3.019   4.676   3.117  0.6368  0.4149  1.1696
 2814TIP3    H2 8449   3.043   4.818   3.069  0.3653  0.2117  0.4097
 2815TIP3   OH2 8450   1.920   0.778   1.060 -0.7050 -0.0876  0.7971
 2815TIP3    H1 8451   1.938   0.702   1.004  0.5484  1.0783 -0.4907
 2815TIP3    H2 8452   1.825   0.784   1.064 -0.8966  0.4046 -2.1980
 2816TIP3   OH2 8453   1.137   3.843   1.768  0.0415 -0.4368  0.1943
 2816TIP3    H1 8454   1.119   3.802   1.852 -0.8041 -1.2638 -0.3664
 2816TIP3    H2 8455   1.052   3.847   1.725  0.3960  0.3460 -0.4700
 2817TIP3   OH2 8456   3.605   2.151   1.460 -0.4221  0.6831 -0.2063
 2817TIP3    H1 8457   3.630   2.098   1.536  0.2044 -1.1619 -1.5938
 2817TIP3    H2 8458   3.677   2.213   1.450  0.2645 -0.0834 -0.1659
 2818TIP3   OH2 8459   6.232   4.482   4.847  0.3338  0.3716  0.0833
 2818TIP3    H1 8460   6.221   4.498   4.941 -0.4567 -0.8957  0.2399
 2818TIP3    H2 8461   6.314   4.525   4.824  0.4004  0.9316  1.2996
 2819TIP3   OH2 8462   1.702   5.009   5.113 -0.9059 -0.4146  0.1243
 2819TIP3    H1 8463   1.626   5.056   5.146 -0.6581 -0.3122  0.5595
 2819TIP3    H2 8464   1.732   4.956   5.188  1.4340  2.0447  1.0744
 2820TIP3   OH2 8465   1.494   1.300   1.917  0.0800  0.3366  0.2868
 2820TIP3    H1 8466   1.547   1.243   1.862 -1.2663  0.6217 -1.4029
 2820TIP3    H2 8467   1.531   1.388   1.904 -1.0412  0.6211 -1.3122
 2821TIP3   OH2 8468   3.188   3.818   0.548 -0.7884  0.5760  0.0172
 2821TIP3    H1 8469   3.188   3.758   0.473 -0.9850  1.1143 -0.4270
 2821TIP3    H2 8470   3.280   3.820   0.577 -0.8887 -0.4181  0.4431
 2822TIP3   OH2 8471   1.745   2.829   4.636  0.1649 -0.9023  0.0744
 2822TIP3    H1 8472   1.665   2.875   4.663  0.7401  0.5476 -0.5857
 2822TIP3    H2 8473   1.717   2.775   4.562 -0.0105  0.4532 -0.8845
 2823TIP3   OH2 8474   0.177   0.936   4.153  0.1197 -0.5409  0.5019
 2823TIP3    H1 8475   0.246   0.902   4.096  0.3597 -0.0852  0.5125
 2823TIP3    H2 8476   0.106   0.873   4.145  0.8636 -1.5122  1.1738
 2824TIP3   OH2 8477   6.251   1.379   2.179  0.0002 -0.2443  0.0577
 2824TIP3    H1 8478   6.347   1.377   2.175  0.0117 -1.0089  0.4885
 2824TIP3    H2 8479   6.230   1.469   2.203  0.7202 -0.5337  1.9728
 2825TIP3   OH2 8480   5.034   2.496   1.109 -0.1229  0.1276 -0.3660
 2825TIP3    H1 8481   5.094   2.427   1.136 -1.8155 -1.2336  0.1253
 2825TIP3    H2 8482   5.067   2.575   1.152 -0.2386 -1.1278  2.1974
 2826TIP3   OH2 8483   0.454   4.205   2.085  0.3496 -0.3361 -0.1310
 2826TIP3    H1 8484   0.539   4.246   2.073 -0.7764  1.6730 -1.9370
 2826TIP3    H2 8485   0.392   4.268   2.048 -1.8085 -2.3075 -0.0611
 2827TIP3   OH2 8486   6.108   2.028   3.033 -0.0438 -0.1164  0.1366
 2827TIP3    H1 8487   6.035   2.041   2.973  0.1082 -0.0886 -0.0426
 2827TIP3    H2 8488   6.186   2.037   2.978  0.0773 -2.0732 -0.0552
 2828TIP3   OH2 8489   4.521   2.864   3.022  0.2955 -0.5162  0.3796
 2828TIP3    H1 8490   4.506   2.895   2.933  0.6210  0.2157  0.5680
 2828TIP3    H2 8491   4.570   2.783   3.012  0.8860 -0.1123 -0.0978
 2829TIP3   OH2 8492   2.225   2.456   5.025  0.0967  0.6602 -0.0327
 2829TIP3    H1 8493   2.239   2.373   5.070 -2.1963  0.1035 -0.2602
 2829TIP3    H2 8494   2.151   2.496   5.071  1.3206  2.7450  0.2412
 2830TIP3   OH2 8495   4.507   0.588   2.958 -1.0033  0.0061  0.0810
 2830TIP3    H1 8496   4.489   0.607   3.050 -1.7739 -2.0227  0.3887
 2830TIP3    H2 8497   4.421   0.564   2.922 -0.3702 -1.2676 -0.6270
 2831TIP3   OH2 8498   0.620   1.817   1.898  0.3932 -0.1749  0.3293
 2831TIP3    H1 8499   0.681   1.891   1.891  0.2681 -0.1819 -1.2097
 2831TIP3    H2 8500   0.534   1.858   1.903  0.2675 -0.1849 -1.2253
 2832TIP3   OH2 8501   3.606   0.936   0.653  0.1469 -0.5240  0.5768
 2832TIP3    H1 8502   3.695   0.927   0.687 -0.0115 -0.8111  0.9207
 2832TIP3    H2 8503   3.572   1.016   0.693  0.5573  0.0865 -0.2560
 2833TIP3   OH2 8504   2.792   1.185   2.684 -0.3782 -0.2738  0.1979
 2833TIP3    H1 8505   2.701   1.182   2.713 -1.4135 -0.0024 -2.7196
 2833TIP3    H2 8506   2.803   1.106   2.631  1.5180 -0.9421  1.4658
 2834TIP3   OH2 8507   3.023   3.949   1.832  0.1772 -0.7881 -0.4979
 2834TIP3    H1 8508   2.987   3.954   1.743  1.2687  1.6245 -0.8763
 2834TIP3    H2 8509   3.076   3.869   1.831  0.0562 -0.8883 -1.9835
 2835TIP3   OH2 8510   2.372   1.559   1.132 -0.1548 -0.3778 -0.2600
 2835TIP3    H1 8511   2.413   1.644   1.117 -0.6412 -0.5152 -2.9696
 2835TIP3    H2 8512   2.435   1.510   1.185  1.1036  0.9209 -0.5016
 2836TIP3   OH2 8513   0.441   2.351   3.208 -0.0793  0.4180  0.0517
 2836TIP3    H1 8514   0.526   2.307   3.216  0.4445  1.3042 -0.5158
 2836TIP3    H2 8515   0.430   2.366   3.114  0.1157  2.1815  0.2805
 2837TIP3   OH2 8516   2.300   5.266   1.018  0.0076  0.3200  0.1269
 2837TIP3    H1 8517   2.337   5.222   0.941 -0.6658 -0.0555  0.0108
 2837TIP3    H2 8518   2.355   5.343   1.030  0.2747  0.2498 -0.5851
 2838TIP3   OH2 8519   2.747   4.429   3.090  0.3177  0.0499 -0.0419
 2838TIP3    H1 8520   2.678   4.448   3.153  1.3839 -1.6777  1.7767
 2838TIP3    H2 8521   2.725   4.482   3.014 -1.6684  1.3792  1.3416
 2839TIP3   OH2 8522   1.576   3.481   1.111  0.3285  0.4744 -0.0120
 2839TIP3    H1 8523   1.637   3.439   1.051 -0.0498 -0.0762 -0.0213
 2839TIP3    H2 8524   1.545   3.558   1.065 -0.7326 -0.4816 -0.9503
 2840TIP3   OH2 8525   5.885   4.656   4.382  0.0366 -0.0970  0.1722
 2840TIP3    H1 8526   5.852   4.591   4.443 -0.4568 -0.9625 -0.9990
 2840TIP3    H2 8527   5.962   4.615   4.343 -0.0015  0.2183 -0.2338
 2841TIP3   OH2 8528   6.057   5.375   3.614 -0.0801 -0.6792  0.0076
 2841TIP3    H1 8529   6.008   5.314   3.669  0.9627 -0.7849  0.8713
 2841TIP3    H2 8530   6.112   5.423   3.676 -0.7162  0.9953 -0.6815
 2842TIP3   OH2 8531   3.514   3.686   0.047 -0.5634 -0.3568 -0.3802
 2842TIP3    H1 8532   3.456   3.724   0.113 -0.6738 -0.8830 -0.1643
 2842TIP3    H2 8533   3.591   3.658   0.096  1.3316  3.1101 -1.0614
 2843TIP3   OH2 8534   1.983   5.129   1.463  0.8456 -0.0805  0.7134
 2843TIP3    H1 8535   2.066   5.122   1.417 -0.2536  0.2821 -1.4721
 2843TIP3    H2 8536   1.934   5.051   1.435 -0.7886  1.4150 -0.8668
 2844TIP3   OH2 8537   2.883   2.826   2.448 -0.2826 -0.0818  0.9018
 2844TIP3    H1 8538   2.953   2.879   2.410 -0.2146  0.0078  1.1499
 2844TIP3    H2 8539   2.852   2.877   2.522 -1.2229  0.2893  0.2647
 2845TIP3   OH2 8540   2.887   5.109   1.604  0.2494 -0.1278 -0.0581
 2845TIP3    H1 8541   2.935   5.158   1.670  1.6964 -3.4678  1.6065
 2845TIP3    H2 8542   2.797   5.105   1.637  0.6535 -0.6125  0.9973
 2846TIP3   OH2 8543   2.199   3.611   3.743  0.4079 -0.3937  0.6040
 2846TIP3    H1 8544   2.129   3.674   3.726  1.5318  0.3665 -1.4818
 2846TIP3    H2 8545   2.153   3.529   3.764 -1.0805  0.4005  0.5540
 2847TIP3   OH2 8546   2.270   0.691   0.416 -0.4710 -0.1028 -0.2762
 2847TIP3    H1 8547   2.250   0.785   0.409 -0.8945 -0.2675 -1.5568
 2847TIP3    H2 8548   2.245   0.668   0.505  0.6553  1.2250  0.4348
 2848TIP3   OH2 8549   3.957   1.062   4.622  0.5742 -0.3331 -0.0893
 2848TIP3    H1 8550   4.042   1.105   4.628  0.7002 -0.6727  0.6305
 2848TIP3    H2 8551   3.945   1.048   4.528  0.5510  1.1986 -0.3440
 2849TIP3   OH2 8552   2.854   2.593   2.228 -0.0027 -0.1340 -0.6950
 2849TIP3    H1 8553   2.788   2.628   2.289 -0.3409 -1.3948 -0.2960
 2849TIP3    H2 8554   2.850   2.498   2.242  2.6485 -0.2072  0.1080
 2850TIP3   OH2 8555   4.640   4.849   0.160  0.6982 -0.0823 -0.0347
 2850TIP3    H1 8556   4.695   4.844   0.081  0.0401  1.2321 -0.6052
 2850TIP3    H2 8557   4.699   4.883   0.227  0.2181  3.3850 -1.1472
 2851TIP3   OH2 8558   2.484   2.425   4.282 -0.5892  0.5291 -0.0284
 2851TIP3    H1 8559   2.501   2.495   4.345 -1.5835  1.2397 -0.5164
 2851TIP3    H2 8560   2.389   2.413   4.285 -0.9513  1.9681 -2.7962
 2852TIP3   OH2 8561   2.796   0.705   3.428  0.1770 -0.2085 -0.1986
 2852TIP3    H1 8562   2.830   0.625   3.467  0.0099  0.1686  0.7659
 2852TIP3    H2 8563   2.850   0.720   3.351  1.6003 -0.1110  0.7892
 2853TIP3   OH2 8564   4.088   2.875   2.533  0.3446 -0.5309 -0.7953
 2853TIP3    H1 8565   4.174   2.896   2.496 -0.2776  1.4754 -1.2522
 2853TIP3    H2 8566   4.032   2.863   2.456 -0.6017  2.0859 -0.6223
 2854TIP3   OH2 8567   6.324   2.634   5.155 -0.3713  0.2263 -0.3787
 2854TIP3    H1 8568   6.319   2.644   5.060  0.0401 -0.2824 -0.4584
 2854TIP3    H2 8569   6.411   2.597   5.171 -0.3960  0.3978  0.2054
 2855TIP3   OH2 8570   1.737   1.883   1.889 -0.1321 -0.5185 -0.0085
 2855TIP3    H1 8571   1.730   1.888   1.985  0.9226  0.7362  0.0226
 2855TIP3    H2 8572   1.688   1.804   1.866 -1.9628  0.1346  1.3900
 2856TIP3   OH2 8573   2.769   2.764   4.623 -0.0223  0.0607  0.1280
 2856TIP3    H1 8574   2.861   2.764   4.650  0.3654 -2.0612 -1.0487
 2856TIP3    H2 8575   2.767   2.821   4.546  0.0661  0.9596  0.7645
 2857TIP3   OH2 8576   0.194   5.763   1.036  0.0776  0.3524  0.1962
 2857TIP3    H1 8577   0.127   5.694   1.042 -0.4491  0.6518 -1.5400
 2857TIP3    H2 8578   0.152   5.832   0.984  1.0553  1.4285  0.7863
 2858TIP3   OH2 8579   6.253   2.515   1.173  0.4940  0.0523  0.5378
 2858TIP3    H1 8580   6.191   2.508   1.101  1.4733  0.0737 -0.3248
 2858TIP3    H2 8581   6.246   2.606   1.202 -0.0710 -0.0183  0.6504
 2859TIP3   OH2 8582   0.726   0.364   3.437  0.1514  0.1915 -0.1370
 2859TIP3    H1 8583   0.683   0.348   3.521 -0.5624  1.3879 -0.2479
 2859TIP3    H2 8584   0.807   0.314   3.442  0.1541  0.2830  1.2961
 2860TIP3   OH2 8585   2.561   0.604   3.793  0.3124  0.1876 -0.3686
 2860TIP3    H1 8586   2.577   0.686   3.840  1.6243  0.0829 -0.5916
 2860TIP3    H2 8587   2.635   0.548   3.817 -0.7420 -1.0828  0.0660
 2861TIP3   OH2 8588   6.221   5.560   4.957  0.3930 -0.0626 -0.1191
 2861TIP3    H1 8589   6.316   5.559   4.965  0.5355 -1.4958 -1.5520
 2861TIP3    H2 8590   6.189   5.545   5.046  1.5070  0.1436  0.3287
 2862TIP3   OH2 8591   4.069   4.236   0.269 -0.1076  0.1361  0.4101
 2862TIP3    H1 8592   4.092   4.321   0.307  0.2346 -0.0859  0.7052
 2862TIP3    H2 8593   4.027   4.258   0.186 -0.2095  0.6012  0.5772
 2863TIP3   OH2 8594   4.527   2.404   0.700  0.1211  0.0227  0.0693
 2863TIP3    H1 8595   4.528   2.500   0.699  1.7706  0.0375 -0.4110
 2863TIP3    H2 8596   4.463   2.380   0.633 -2.2346  0.7325  1.9398
 2864TIP3   OH2 8597   2.683   1.352   0.460  0.5019  0.4116  0.1652
 2864TIP3    H1 8598   2.669   1.352   0.555 -0.2040  0.3500  0.0668
 2864TIP3    H2 8599   2.614   1.409   0.426 -0.7290 -1.4015 -0.5169
 2865TIP3   OH2 8600   6.180   1.398   1.327 -1.0286  0.6759  0.1359
 2865TIP3    H1 8601   6.264   1.393   1.281 -1.4911 -1.0011 -0.5861
 2865TIP3    H2 8602   6.141   1.480   1.296 -0.3423  0.7073 -0.6979
 2866TIP3   OH2 8603   3.789   1.640   3.314 -0.7040  0.3308  0.2637
 2866TIP3    H1 8604   3.778   1.674   3.403  3.2706 -0.1834  1.1504
 2866TIP3    H2 8605   3.762   1.711   3.257 -0.5222  1.8363  1.9648
 2867TIP3   OH2 8606   1.692   1.058   2.098  0.2092  0.0638 -0.4082
 2867TIP3    H1 8607   1.606   1.060   2.139  0.2079  1.8416 -0.4109
 2867TIP3    H2 8608   1.734   1.138   2.127  1.7891 -0.6569 -0.6020
 2868TIP3   OH2 8609   2.001   4.203   2.543 -0.2133 -0.3744 -0.2515
 2868TIP3    H1 8610   1.970   4.229   2.456  1.0453 -0.7224 -0.8370
 2868TIP3    H2 8611   1.973   4.112   2.552 -0.0090 -0.4599 -0.4656
 2869TIP3   OH2 8612   5.557   4.391   4.976 -0.2986  0.2173 -0.0470
 2869TIP3    H1 8613   5.488   4.401   5.041 -1.2486 -0.3534 -0.9456
 2869TIP3    H2 8614   5.637   4.419   5.022 -1.0755  0.6966  1.0650
 2870TIP3   OH2 8615   3.805   3.431   3.947 -0.0229  0.0958 -0.0911
 2870TIP3    H1 8616   3.883   3.406   3.997 -0.0288  2.3839  1.1869
 2870TIP3    H2 8617   3.832   3.423   3.855  0.3229 -3.1724  0.1568
 2871TIP3   OH2 8618   0.129   5.184   2.223 -0.0065 -0.4195  0.4177
 2871TIP3    H1 8619   0.118   5.208   2.131  3.5293  1.8286  0.4026
 2871TIP3    H2 8620   0.075   5.246   2.271  2.1317  2.0112 -0.0680
 2872TIP3   OH2 8621   3.477   2.254   2.982  0.0330  0.2247 -0.4702
 2872TIP3    H1 8622   3.538   2.301   3.038 -0.4049 -0.3270  0.4973
 2872TIP3    H2 8623   3.407   2.225   3.041 -1.3329  1.0977 -1.5866
 2873TIP3   OH2 8624   5.614   5.178   1.961  0.7708 -0.1430 -0.4808
 2873TIP3    H1 8625   5.554   5.186   2.035 -1.3919  1.4288 -2.2668
 2873TIP3    H2 8626   5.566   5.128   1.895  1.3956  1.0628 -1.9256
 2874TIP3   OH2 8627   4.122   1.264   3.005  0.5558  0.5204 -0.4796
 2874TIP3    H1 8628   4.101   1.264   3.098  1.1712  0.2928 -0.3367
 2874TIP3    H2 8629   4.052   1.212   2.965  0.7477 -0.1096 -0.0304
 2875TIP3   OH2 8630   3.046   4.136   4.682  0.0627 -0.2023 -0.6116
 2875TIP3    H1 8631   3.005   4.069   4.737 -1.1797 -0.0815 -1.3408
 2875TIP3    H2 8632   3.015   4.219   4.719  0.9663 -0.0353 -0.1933
 2876TIP3   OH2 8633   5.663   5.346   3.896  0.7420 -0.0598  0.5463
 2876TIP3    H1 8634   5.628   5.280   3.835  0.2224 -0.1619  0.9500
 2876TIP3    H2 8635   5.593   5.410   3.904  0.4268 -0.5375  1.7707
 2877TIP3   OH2 8636   3.812   4.049   2.501 -0.5766  0.2015  0.1707
 2877TIP3    H1 8637   3.797   4.134   2.542  0.1761  0.9813 -1.1293
 2877TIP3    H2 8638   3.890   4.061   2.447 -0.3475 -1.3720  0.1096
 2878TIP3   OH2 8639   1.762   5.969   3.223  0.6399 -0.5012 -0.0682
 2878TIP3    H1 8640   1.723   5.962   3.310 -0.6352  0.2278 -0.5441
 2878TIP3    H2 8641   1.855   5.952   3.237  0.5552  0.0971  1.5227
 2879TIP3   OH2 8642   3.817   2.606   1.593  0.6262  0.2644  0.4299
 2879TIP3    H1 8643   3.906   2.612   1.629  0.9103  0.7846 -0.3414
 2879TIP3    H2 8644   3.822   2.652   1.510 -0.2414 -0.1661  0.1316
 2880TIP3   OH2 8645   4.986   3.802   0.994 -0.2160  0.0014 -0.2201
 2880TIP3    H1 8646   4.979   3.726   0.937 -0.6276  1.0226 -1.6061
 2880TIP3    H2 8647   5.079   3.810   1.014  0.1574  0.4831 -2.0208
 2881TIP3   OH2 8648   4.561   1.659   2.582 -0.1770  0.4285  0.1976
 2881TIP3    H1 8649   4.541   1.752   2.573 -2.4680  0.0003  0.1609
 2881TIP3    H2 8650   4.514   1.632   2.661 -1.0022 -1.0181 -0.7305
 2882TIP3   OH2 8651   4.361   0.368   4.247  0.3784  0.1393  0.3174
 2882TIP3    H1 8652   4.270   0.363   4.276  0.6804  0.8353  1.4609
 2882TIP3    H2 8653   4.409   0.310   4.306  0.9714  1.4088  1.1345
 2883TIP3   OH2 8654   4.660   1.148   4.078 -0.4692 -0.0242 -0.1811
 2883TIP3    H1 8655   4.592   1.139   4.011 -0.4604  0.4329 -0.2589
 2883TIP3    H2 8656   4.736   1.181   4.030 -0.5192  0.4853  0.0848
 2884TIP3   OH2 8657   0.556   4.034   2.678 -0.2871 -0.1261 -0.7921
 2884TIP3    H1 8658   0.512   3.964   2.629 -0.9891 -0.0262 -0.3256
 2884TIP3    H2 8659   0.613   4.076   2.613 -1.5276  0.2869 -1.6687
 2885TIP3   OH2 8660   1.406   1.274   3.688  0.5776 -0.3557  0.1565
 2885TIP3    H1 8661   1.424   1.201   3.747 -0.9468 -1.6569 -0.8804
 2885TIP3    H2 8662   1.416   1.237   3.600 -1.9310  0.1454 -0.4193
 2886TIP3   OH2 8663   2.665   2.971   3.321  0.3177 -0.1963  0.1431
 2886TIP3    H1 8664   2.584   2.919   3.322  0.2739 -0.1497 -0.4380
 2886TIP3    H2 8665   2.637   3.058   3.351  0.1155 -0.1342 -0.2197
 2887TIP3   OH2 8666   2.720   0.796   2.929  0.1319 -0.3012  0.0262
 2887TIP3    H1 8667   2.661   0.871   2.936  0.5027  0.0388 -0.4594
 2887TIP3    H2 8668   2.662   0.720   2.931 -0.1808 -0.0562  1.5885
 2888TIP3   OH2 8669   4.703   5.887   0.476 -0.9524 -0.4347  0.3140
 2888TIP3    H1 8670   4.688   5.801   0.517 -3.0371  0.3127  1.2784
 2888TIP3    H2 8671   4.790   5.913   0.506 -0.7588 -1.7144  0.9444
 2889TIP3   OH2 8672   3.814   5.641   0.095 -0.3051  0.0709  1.0000
 2889TIP3    H1 8673   3.877   5.710   0.113 -0.4028 -0.0809  1.9410
 2889TIP3    H2 8674   3.866   5.572   0.053 -0.1764  0.6240  0.2163
 2890TIP3   OH2 8675   4.486   2.565   4.877  0.6761  0.5648 -0.4028
 2890TIP3    H1 8676   4.436   2.549   4.796 -0.9473  0.5785  0.5597
 2890TIP3    H2 8677   4.488   2.480   4.920 -1.2347  1.1497  1.0095
 2891TIP3   OH2 8678   0.014   0.148   3.796 -0.1742  0.4839 -0.0708
 2891TIP3    H1 8679   0.038   0.152   3.888  0.7049  1.2557 -0.3188
 2891TIP3    H2 8680   0.097   0.143   3.749 -0.5388  1.4834 -0.8795
 2892TIP3   OH2 8681   5.231   4.681   2.391  0.3775 -0.0292 -0.1412
 2892TIP3    H1 8682   5.152   4.695   2.444  0.1410 -1.4493 -0.0862
 2892TIP3    H2 8683   5.301   4.665   2.454 -0.1040 -2.7736 -0.1752
 2893TIP3   OH2 8684   1.261   3.991   3.947  0.1402  0.4707  0.3489
 2893TIP3    H1 8685   1.207   3.998   4.025 -2.0132  1.0669 -1.0850
 2893TIP3    H2 8686   1.235   3.908   3.907  0.0253  0.8942 -0.4991
 2894TIP3   OH2 8687   4.995   5.819   0.324 -0.5475 -0.0632 -0.4096
 2894TIP3    H1 8688   4.940   5.781   0.393 -0.2383  1.1239  0.5357
 2894TIP3    H2 8689   4.935   5.874   0.273 -0.7606 -0.8810 -1.0613
 2895TIP3   OH2 8690   3.574   4.917   5.178 -0.1379 -0.1294  0.3237
 2895TIP3    H1 8691   3.665   4.947   5.183 -0.7221  1.5115  1.9213
 2895TIP3    H2 8692   3.522   4.997   5.173 -1.5166 -1.0410 -0.8015
 2896TIP3   OH2 8693   1.292   5.369   4.174 -0.6008 -0.3464  0.3247
 2896TIP3    H1 8694   1.386   5.360   4.191 -0.4745 -1.2532 -0.6986
 2896TIP3    H2 8695   1.282   5.456   4.137 -0.2850  0.0650  1.1969
 2897TIP3   OH2 8696   5.351   2.031   3.672 -0.1388  0.0268 -0.1169
 2897TIP3    H1 8697   5.381   1.948   3.709  0.3980  0.5812  0.7246
 2897TIP3    H2 8698   5.293   2.068   3.738  1.1190  1.1966  0.3952
 2898TIP3   OH2 8699   0.162   4.456   2.359  0.1988 -0.0359 -0.4970
 2898TIP3    H1 8700   0.113   4.527   2.401 -0.4484 -0.9681  0.3638
 2898TIP3    H2 8701   0.135   4.377   2.405 -0.7092 -1.1646 -2.8159
 2899TIP3   OH2 8702   4.038   5.499   2.821 -0.2473 -0.4304 -0.1126
 2899TIP3    H1 8703   4.060   5.428   2.881 -0.8801 -1.5480 -1.1416
 2899TIP3    H2 8704   4.109   5.563   2.831 -0.4220 -0.5047  1.8905
 2900TIP3   OH2 8705   4.190   5.963   4.914 -0.5797 -0.6941 -0.2118
 2900TIP3    H1 8706   4.218   6.009   4.835  0.2217 -1.0477 -0.1427
 2900TIP3    H2 8707   4.150   5.882   4.881 -1.4993 -0.2188 -0.3070
 2901TIP3   OH2 8708   6.188   5.038   3.898 -0.3189  0.3916  0.0798
 2901TIP3    H1 8709   6.224   4.997   3.820 -0.1975  0.0898  0.2940
 2901TIP3    H2 8710   6.222   4.987   3.971 -1.6783 -0.3116  0.2604
 2902TIP3   OH2 8711   5.290   3.523   1.973  0.1349  0.3662  0.0291
 2902TIP3    H1 8712   5.335   3.519   2.058  1.7099 -0.7536 -0.8031
 2902TIP3    H2 8713   5.327   3.450   1.923  2.2809  3.2726 -3.0633
 2903TIP3   OH2 8714   3.606   5.766   4.250  0.0154  1.0299  0.0055
 2903TIP3    H1 8715   3.694   5.803   4.256 -0.7913  3.1972 -0.4466
 2903TIP3    H2 8716   3.593   5.748   4.157 -0.3739  1.7693 -0.0973
 2904TIP3   OH2 8717   0.578   0.933   4.178 -0.2291 -0.1276  0.1248
 2904TIP3    H1 8718   0.573   1.029   4.182 -1.3165 -0.1136 -1.1476
 2904TIP3    H2 8719   0.530   0.903   4.255 -2.1653  0.3493 -0.8334
 2905TIP3   OH2 8720   1.298   3.055   4.597 -0.2083  0.4873  0.1272
 2905TIP3    H1 8721   1.310   3.150   4.608  0.9778  0.3101  0.4941
 2905TIP3    H2 8722   1.214   3.047   4.552 -0.7464  1.6709  0.8660
 2906TIP3   OH2 8723   0.154   0.549   3.469 -0.0416 -0.6419 -0.2782
 2906TIP3    H1 8724   0.179   0.467   3.512 -1.1900 -1.7958 -1.6981
 2906TIP3    H2 8725   0.095   0.592   3.531 -1.0135 -1.8861 -0.2890
 2907TIP3   OH2 8726   1.523   4.912   4.939  0.2338 -0.4848  0.0064
 2907TIP3    H1 8727   1.599   4.946   4.986  0.6576 -0.6702 -0.5349
 2907TIP3    H2 8728   1.549   4.823   4.912 -0.2634 -0.6421  0.0286
 2908TIP3   OH2 8729   5.820   3.236   3.626  0.0337  0.2922 -0.5642
 2908TIP3    H1 8730   5.805   3.166   3.690 -0.2078 -0.1363 -1.0871
 2908TIP3    H2 8731   5.891   3.202   3.571  0.4650  0.7985 -0.3252
 2909TIP3   OH2 8732   2.532   4.599   4.380 -0.2760 -0.1776 -0.0641
 2909TIP3    H1 8733   2.530   4.691   4.352 -2.4958 -0.1211  0.0846
 2909TIP3    H2 8734   2.517   4.549   4.299 -1.1727 -0.2722  0.1424
 2910TIP3   OH2 8735   1.302   2.909   0.906 -0.1053 -0.4913  0.0171
 2910TIP3    H1 8736   1.353   2.982   0.870  0.8084 -1.0557  0.1248
 2910TIP3    H2 8737   1.251   2.948   0.977 -0.1492  0.1761 -0.3675
 2911TIP3   OH2 8738   3.979   3.216   4.337 -0.1148  0.6592 -0.0354
 2911TIP3    H1 8739   4.043   3.221   4.266 -0.3635  1.3747 -0.2222
 2911TIP3    H2 8740   3.914   3.153   4.307  1.0347 -0.8884  0.6136
 2912TIP3   OH2 8741   4.980   2.471   2.900 -0.0675 -0.0029  0.5690
 2912TIP3    H1 8742   5.006   2.490   2.810 -1.1035  0.4507  0.3506
 2912TIP3    H2 8743   5.040   2.402   2.929  0.5078  0.1033 -0.3376
 2913TIP3   OH2 8744   3.707   1.667   2.218  0.6092  0.1395 -0.3925
 2913TIP3    H1 8745   3.728   1.758   2.239 -0.4603  0.5071 -0.8571
 2913TIP3    H2 8746   3.633   1.646   2.275  1.6797 -0.9077  0.7034
 2914TIP3   OH2 8747   3.009   3.456   4.052  0.0833 -0.2936  0.5940
 2914TIP3    H1 8748   2.964   3.380   4.088  1.3009 -1.9320 -1.1742
 2914TIP3    H2 8749   3.101   3.432   4.054  0.4036  0.6673 -1.0096
 2915TIP3   OH2 8750   0.684   5.948   4.636  0.5525 -0.1340 -0.5955
 2915TIP3    H1 8751   0.749   5.912   4.576  0.2359 -0.4241 -0.7644
 2915TIP3    H2 8752   0.626   6.000   4.581 -0.2587 -1.1120 -0.6855
 2916TIP3   OH2 8753   2.987   3.592   3.816  0.4865  0.5506  0.0674
 2916TIP3    H1 8754   2.962   3.581   3.908  0.0652  0.2113 -0.0842
 2916TIP3    H2 8755   2.985   3.504   3.780 -0.2620  0.7889 -0.4983
 2917TIP3   OH2 8756   1.229   0.098   1.674  0.5315  0.4902  0.3409
 2917TIP3    H1 8757   1.150   0.146   1.649  0.8738  0.1667 -1.5485
 2917TIP3    H2 8758   1.281   0.094   1.593  0.6969 -2.7488  0.4692
 2918TIP3   OH2 8759   6.280   1.362   0.451  0.0621 -0.2531 -0.5987
 2918TIP3    H1 8760   6.311   1.426   0.516 -0.5273 -0.9097  0.3464
 2918TIP3    H2 8761   6.187   1.383   0.440  0.0221 -0.5296 -0.7841
 2919TIP3   OH2 8762   5.089   5.863   1.053  0.2426 -0.3534  0.0640
 2919TIP3    H1 8763   5.183   5.861   1.075  0.1877 -0.2215  0.3193
 2919TIP3    H2 8764   5.086   5.847   0.959  0.6592  1.5907 -0.3171
 2920TIP3   OH2 8765   4.755   1.038   4.522 -0.5858  0.2869 -0.1839
 2920TIP3    H1 8766   4.788   0.956   4.558 -2.8672 -0.7911 -0.3462
 2920TIP3    H2 8767   4.724   1.014   4.434  1.8473  2.1321 -1.6799
 2921TIP3   OH2 8768   4.933   4.094   4.672  0.4846 -0.0632  0.4088
 2921TIP3    H1 8769   4.859   4.154   4.663 -0.3003 -1.0262  0.2588
 2921TIP3    H2 8770   4.988   4.134   4.741 -0.2642  0.5680  0.6550
 2922TIP3   OH2 8771   0.330   3.342   5.111  0.1365 -0.0973  0.4284
 2922TIP3    H1 8772   0.393   3.360   5.180 -1.7655 -2.0431  2.8590
 2922TIP3    H2 8773   0.337   3.417   5.052  4.1950  0.0690  0.8199
 2923TIP3   OH2 8774   2.282   0.499   0.065  0.4833  0.3912  0.1303
 2923TIP3    H1 8775   2.286   0.590   0.037  0.0575  0.7230  1.0850
 2923TIP3    H2 8776   2.188   0.484   0.081  0.2613 -0.8339 -1.9283
 2924TIP3   OH2 8777   1.861   1.887   0.102 -0.3809 -0.1252  0.2272
 2924TIP3    H1 8778   1.858   1.862   0.194 -0.0254 -0.6273  0.1057
 2924TIP3    H2 8779   1.804   1.963   0.096 -1.5479 -0.9423  0.5936
 2925TIP3   OH2 8780   0.306   3.718   3.284 -0.2348 -0.4439  0.1667
 2925TIP3    H1 8781   0.376   3.664   3.320 -1.3312 -1.4943  0.7657
 2925TIP3    H2 8782   0.242   3.726   3.354  0.2262  2.3264  0.3823
 2926TIP3   OH2 8783   3.403   4.075   4.323 -0.0350 -0.5855  0.2207
 2926TIP3    H1 8784   3.390   4.135   4.397 -0.9319  1.2338 -1.3307
 2926TIP3    H2 8785   3.402   3.988   4.363  0.8149  0.3604  2.5121
 2927TIP3   OH2 8786   1.950   3.360   3.252 -0.2589  0.3783 -0.1688
 2927TIP3    H1 8787   1.950   3.275   3.297  0.0970  0.7451  0.5473
 2927TIP3    H2 8788   1.858   3.385   3.249 -0.1425  2.2119  4.0672
 2928TIP3   OH2 8789   3.990   4.034   2.846  0.7526  0.0015 -0.1576
 2928TIP3    H1 8790   4.064   3.973   2.856 -0.5442 -1.5395  0.4493
 2928TIP3    H2 8791   3.913   3.981   2.863 -0.4814  1.7372 -0.0864
 2929TIP3   OH2 8792   4.706   0.960   1.713  0.4196 -0.1135  0.0652
 2929TIP3    H1 8793   4.762   0.957   1.636  0.4558 -1.4475  0.1285
 2929TIP3    H2 8794   4.717   0.874   1.754 -1.1310 -0.1417  0.4675
 2930TIP3   OH2 8795   5.726   1.135   1.156 -0.2297  0.6029 -0.0153
 2930TIP3    H1 8796   5.773   1.218   1.169  0.3627  0.1137  1.1733
 2930TIP3    H2 8797   5.740   1.087   1.238 -0.0707 -0.9180 -0.8918
 2931TIP3   OH2 8798   4.073   5.332   3.363  0.1518  0.7743 -0.3446
 2931TIP3    H1 8799   4.168   5.337   3.376  0.0233 -1.3504  2.2947
 2931TIP3    H2 8800   4.063   5.281   3.282  1.2545  0.9616 -0.6169
 2932TIP3   OH2 8801   2.007   0.205   4.116 -0.6060  0.3863 -0.2820
 2932TIP3    H1 8802   1.936   0.268   4.106 -1.4497 -0.3508  0.7695
 2932TIP3    H2 8803   2.014   0.192   4.211  1.5083  1.0597 -0.2971
 2933TIP3   OH2 8804   3.867   5.565   1.541 -0.0755  0.0148 -0.3160
 2933TIP3    H1 8805   3.863   5.470   1.532  1.5381  0.0534 -2.0239
 2933TIP3    H2 8806   3.954   5.582   1.577  0.2861  0.9031 -1.5532
 2934TIP3   OH2 8807   0.704   2.494   4.681  0.1697  0.1297  0.1623
 2934TIP3    H1 8808   0.707   2.579   4.637 -1.2689  0.0010 -0.2428
 2934TIP3    H2 8809   0.728   2.431   4.614  0.3585  0.1420  0.2190
 2935TIP3   OH2 8810   0.461   1.792   5.063  0.2303 -0.3863 -0.1134
 2935TIP3    H1 8811   0.391   1.754   5.116 -0.6355  1.4917  0.1566
 2935TIP3    H2 8812   0.532   1.810   5.125  0.2844 -0.6984 -0.0841
 2936TIP3   OH2 8813   6.031   4.602   3.705  0.2391  0.1160  0.1259
 2936TIP3    H1 8814   5.987   4.603   3.790  1.0122 -0.3186  0.5511
 2936TIP3    H2 8815   6.121   4.574   3.725  0.8792  1.5177 -0.6388
 2937TIP3   OH2 8816   2.638   4.209   4.658 -0.3335  0.1893  0.1670
 2937TIP3    H1 8817   2.702   4.223   4.589  0.4523 -1.5482  0.4850
 2937TIP3    H2 8818   2.605   4.296   4.679  1.1025  0.9979 -0.7838
 2938TIP3   OH2 8819   2.883   0.920   5.137  0.3198 -0.0857 -0.1936
 2938TIP3    H1 8820   2.944   0.933   5.064  0.5307  1.1758  0.1878
 2938TIP3    H2 8821   2.824   0.995   5.132  0.5758  0.2297  1.1596
 2939TIP3   OH2 8822   4.425   4.396   3.928  0.8755  0.0060 -0.3878
 2939TIP3    H1 8823   4.336   4.363   3.941  1.3754 -1.5273 -0.7094
 2939TIP3    H2 8824   4.413   4.490   3.915 -0.7678 -0.2675 -1.1356
 2940TIP3   OH2 8825   2.258   5.572   0.425  0.1639  0.3007  0.7464
 2940TIP3    H1 8826   2.182   5.630   0.435 -0.2785  0.0642 -1.0013
 2940TIP3    H2 8827   2.314   5.616   0.361  0.2079 -0.7872  0.0030
 2941TIP3   OH2 8828   2.321   5.934   3.460  0.1329 -0.6137 -0.1081
 2941TIP3    H1 8829   2.334   6.018   3.503  0.4795 -1.2238  1.0438
 2941TIP3    H2 8830   2.329   5.870   3.531  0.1956 -1.6380 -1.0116
 2942TIP3   OH2 8831   3.590   5.721   3.978 -0.2702 -0.7050 -0.0817
 2942TIP3    H1 8832   3.669   5.685   3.938  0.0635  0.3755 -0.4371
 2942TIP3    H2 8833   3.518   5.680   3.931  0.1121  0.8113 -2.1139
 2943TIP3   OH2 8834   0.941   3.971   2.396 -0.5996  0.5570  0.3207
 2943TIP3    H1 8835   0.865   4.006   2.442 -0.8557 -0.4202  0.6606
 2943TIP3    H2 8836   1.006   4.041   2.399 -1.5169  1.4404 -0.0598
 2944TIP3   OH2 8837   2.570   0.355   2.463  0.0650  0.6935 -0.0417
 2944TIP3    H1 8838   2.516   0.281   2.489 -0.9335  0.9503 -1.2877
 2944TIP3    H2 8839   2.656   0.338   2.502 -0.1569 -1.0776 -0.2779
 2945TIP3   OH2 8840   5.359   4.804   1.472 -0.7063  0.0172  0.8113
 2945TIP3    H1 8841   5.310   4.876   1.512  0.2315  0.1025  1.8637
 2945TIP3    H2 8842   5.293   4.753   1.425 -1.3243  1.8028 -0.3606
 2946TIP3   OH2 8843   1.970   4.274   4.457 -0.3195  0.4698 -0.0859
 2946TIP3    H1 8844   2.047   4.301   4.407  0.1321  1.4913  1.1074
 2946TIP3    H2 8845   2.002   4.202   4.513 -0.8777 -0.8260 -1.3640
 2947TIP3   OH2 8846   5.739   4.390   2.365 -0.0778  0.1035 -0.8042
 2947TIP3    H1 8847   5.771   4.478   2.346  0.8794 -0.4750 -2.0195
 2947TIP3    H2 8848   5.811   4.348   2.413 -1.3535  0.6139  1.7475
 2948TIP3   OH2 8849   2.533   0.421   2.205  0.0672 -0.3589  0.3969
 2948TIP3    H1 8850   2.528   0.516   2.218  1.0792 -0.1663 -0.5424
 2948TIP3    H2 8851   2.526   0.385   2.293 -2.1920  0.4690  0.6420
 2949TIP3   OH2 8852   4.996   0.413   2.415 -0.2408 -0.2628 -0.1500
 2949TIP3    H1 8853   4.960   0.407   2.503  0.3468 -1.3768  0.0327
 2949TIP3    H2 8854   4.937   0.473   2.369 -1.1003 -0.4127  0.7265
 2950TIP3   OH2 8855   5.021   4.217   4.934  0.1337  0.1199  0.3252
 2950TIP3    H1 8856   5.105   4.255   4.906  1.9987 -3.5741  0.2655
 2950TIP3    H2 8857   5.045   4.150   4.998 -2.6197 -1.8214 -0.4583
 2951TIP3   OH2 8858   0.046   4.724   2.983 -0.1991 -0.2068  1.0408
 2951TIP3    H1 8859   0.017   4.780   2.912 -0.8198 -0.8020  0.8151
 2951TIP3    H2 8860  -0.024   4.660   2.994  0.4517 -0.8938  1.3449
 2952TIP3   OH2 8861   1.334   5.368   1.776  0.6942 -0.1967 -0.2133
 2952TIP3    H1 8862   1.321   5.368   1.681 -1.3670 -0.5107  0.0211
 2952TIP3    H2 8863   1.280   5.441   1.807 -0.5209 -1.5260  0.9089
 2953TIP3   OH2 8864   5.800   3.602   3.392 -0.0017 -0.2575  0.0373
 2953TIP3    H1 8865   5.839   3.568   3.312  0.3597 -0.1137  0.1460
 2953TIP3    H2 8866   5.747   3.530   3.426 -2.5420  0.6032 -1.8335
 2954TIP3   OH2 8867   1.928   1.049   0.067  0.2124 -0.4214  0.1898
 2954TIP3    H1 8868   1.903   1.042   0.159 -0.1176  1.0157  0.2273
 2954TIP3    H2 8869   1.880   1.126   0.035  0.3146 -0.9090 -1.1863
 2955TIP3   OH2 8870   0.759   0.908   1.629  0.0795  0.1477 -0.0877
 2955TIP3    H1 8871   0.675   0.930   1.590 -0.3395  1.2314  1.3369
 2955TIP3    H2 8872   0.805   0.858   1.562 -1.6050 -0.2663 -0.9626
 2956TIP3   OH2 8873   5.359   0.777   0.148  0.3867  0.1516  0.2097
 2956TIP3    H1 8874   5.359   0.740   0.236  1.8748  1.9250  1.0415
 2956TIP3    H2 8875   5.413   0.856   0.156 -1.2237  1.5520 -1.8164
 2957TIP3   OH2 8876   2.976   1.626   0.380 -0.3867 -0.3135  0.3342
 2957TIP3    H1 8877   2.928   1.709   0.386  1.1632  0.8226 -1.6099
 2957TIP3    H2 8878   3.052   1.647   0.326  0.8635 -2.6813  1.0702
 2958TIP3   OH2 8879   0.147   2.882   1.233  0.1585 -0.2232 -0.3162
 2958TIP3    H1 8880   0.180   2.972   1.238  1.8572 -0.8848  2.0846
 2958TIP3    H2 8881   0.158   2.858   1.141 -1.0236  2.2225 -1.1702
 2959TIP3   OH2 8882   0.344   5.690   1.609  0.0630  0.1676 -0.3472
 2959TIP3    H1 8883   0.391   5.702   1.691 -2.2227  1.7150  0.8384
 2959TIP3    H2 8884   0.354   5.774   1.564  1.0110 -0.5531 -1.5344
 2960TIP3   OH2 8885   6.275   0.752   4.562  0.3617  0.1970 -0.0636
 2960TIP3    H1 8886   6.265   0.817   4.631  0.2290 -0.4789  0.5686
 2960TIP3    H2 8887   6.198   0.696   4.569  1.3273 -1.0943  0.5718
 2961TIP3   OH2 8888   0.824   3.931   0.888 -0.4888 -0.0282 -0.3959
 2961TIP3    H1 8889   0.833   3.890   0.802  0.6596 -0.5312 -0.0460
 2961TIP3    H2 8890   0.805   4.023   0.869 -0.0480 -0.0919 -1.1883
 2962TIP3   OH2 8891   0.975   5.590   3.176 -0.5288 -0.0591 -0.3174
 2962TIP3    H1 8892   0.927   5.514   3.209 -1.0248  0.6487  0.6376
 2962TIP3    H2 8893   0.914   5.663   3.185  0.2901  0.6385 -0.2621
 2963TIP3   OH2 8894   5.543   0.302   1.917 -0.2571 -0.7753 -0.2423
 2963TIP3    H1 8895   5.611   0.238   1.939  1.0110 -0.2122 -2.2931
 2963TIP3    H2 8896   5.590   0.386   1.912 -1.3642 -0.1495 -0.4331
 2964TIP3   OH2 8897   1.577   0.847   0.230 -0.1053  0.1153  0.1422
 2964TIP3    H1 8898   1.594   0.755   0.209 -1.0240 -0.4594  1.7869
 2964TIP3    H2 8899   1.661   0.880   0.263 -0.3655 -0.8634  1.9114
 2965TIP3   OH2 8900   1.064   2.354   0.930 -0.5789  0.0530  0.2407
 2965TIP3    H1 8901   0.969   2.363   0.944 -0.3229  0.7890  1.7061
 2965TIP3    H2 8902   1.080   2.398   0.847 -1.2448  1.8494  1.0100
 2966TIP3   OH2 8903   5.330   3.501   3.300 -0.4939  0.1277  0.2983
 2966TIP3    H1 8904   5.314   3.412   3.330 -0.6847  0.4307  1.1521
 2966TIP3    H2 8905   5.417   3.498   3.259 -1.5011 -0.9435 -1.8674
 2967TIP3   OH2 8906   4.368   2.133   1.271 -0.5758  0.9898  0.0468
 2967TIP3    H1 8907   4.281   2.133   1.231 -0.0111 -1.1668 -1.3602
 2967TIP3    H2 8908   4.406   2.217   1.247 -1.5990  1.2069 -0.8651
 2968TIP3   OH2 8909   2.943   4.607   4.952  0.2757  0.4067  0.0454
 2968TIP3    H1 8910   2.863   4.658   4.957  0.8327  1.1625  2.3083
 2968TIP3    H2 8911   2.999   4.657   4.892 -0.4146  0.5927 -0.4626
 2969TIP3   OH2 8912   2.827   2.267   3.526  0.4167 -0.1238 -0.4075
 2969TIP3    H1 8913   2.764   2.287   3.595  1.0675  0.8896 -0.0881
 2969TIP3    H2 8914   2.842   2.350   3.482  1.0610 -0.4775 -0.8737
 2970TIP3   OH2 8915   5.635   2.636   1.780 -0.0500 -0.5043 -0.5900
 2970TIP3    H1 8916   5.729   2.620   1.792  0.2312  0.7716 -0.9851
 2970TIP3    H2 8917   5.593   2.558   1.817  1.1356 -0.8428  0.0960
 2971TIP3   OH2 8918   2.429   5.257   3.158 -0.6060  0.2975  0.5519
 2971TIP3    H1 8919   2.472   5.253   3.073  0.0896 -0.7467  0.9363
 2971TIP3    H2 8920   2.499   5.242   3.222 -0.8593  2.4456  1.4148
 2972TIP3   OH2 8921   6.011   2.198   2.232  0.1907  0.0745  0.2561
 2972TIP3    H1 8922   5.924   2.158   2.230  0.8419 -1.3617 -0.8644
 2972TIP3    H2 8923   6.072   2.125   2.223  1.5773  0.9670  1.7212
 2973TIP3   OH2 8924   2.950   3.968   4.892 -0.2484  0.7793 -0.2128
 2973TIP3    H1 8925   2.920   3.942   4.979 -0.4601  0.0943 -0.4871
 2973TIP3    H2 8926   2.899   3.914   4.831  1.8212 -0.7986 -0.6814
 2974TIP3   OH2 8927   0.951   3.049   0.360 -0.6459  0.2879  0.0309
 2974TIP3    H1 8928   1.002   3.126   0.335 -0.5202  0.4975  0.9101
 2974TIP3    H2 8929   0.864   3.083   0.380 -1.2922 -0.1239 -1.8744
 2975TIP3   OH2 8930   1.293   2.854   3.149 -0.0947 -0.1681  0.1637
 2975TIP3    H1 8931   1.369   2.816   3.105 -0.5868  0.7279 -1.5472
 2975TIP3    H2 8932   1.219   2.830   3.094 -0.6334  1.7274 -0.0091
 2976TIP3   OH2 8933   6.071   3.420   4.224 -0.0277  0.3636 -0.3032
 2976TIP3    H1 8934   6.107   3.402   4.137 -2.2433 -0.1316 -1.1769
 2976TIP3    H2 8935   6.102   3.346   4.278  1.1483  0.5435 -0.6906
 2977TIP3   OH2 8936   3.697   2.437   2.821 -0.5538 -0.2485  0.1291
 2977TIP3    H1 8937   3.686   2.399   2.908 -0.8140 -2.7640 -0.9110
 2977TIP3    H2 8938   3.791   2.455   2.814 -0.5573  0.1384  0.9723
 2978TIP3   OH2 8939   3.197   1.034   3.992 -0.0659 -0.1534 -0.3078
 2978TIP3    H1 8940   3.198   1.093   3.917 -0.1374 -0.0665 -0.2395
 2978TIP3    H2 8941   3.111   1.045   4.031 -0.1251 -0.3956 -0.3678
 2979TIP3   OH2 8942   2.137   0.960   1.970 -1.0059  0.4531 -0.1955
 2979TIP3    H1 8943   2.099   1.010   1.898  2.2686  0.8992 -1.8051
 2979TIP3    H2 8944   2.165   0.877   1.931 -1.3248 -0.3175  1.1471
 2980TIP3   OH2 8945   1.644   1.735   0.274 -0.2617 -0.4606  0.4878
 2980TIP3    H1 8946   1.654   1.695   0.360  1.2098 -0.3849  0.3772
 2980TIP3    H2 8947   1.642   1.829   0.291  0.0688 -0.4442  0.4331
 2981TIP3   OH2 8948   1.429   3.568   2.748 -0.1266  0.4318  0.4177
 2981TIP3    H1 8949   1.515   3.558   2.708 -0.2534  0.9933 -0.0195
 2981TIP3    H2 8950   1.368   3.574   2.674 -0.5878 -0.2732  0.7212
 2982TIP3   OH2 8951   3.761   1.491   2.810  0.0984  0.4865  0.0889
 2982TIP3    H1 8952   3.671   1.460   2.805 -1.0020  3.2612  0.7484
 2982TIP3    H2 8953   3.782   1.488   2.904  1.3070 -1.5814 -0.1996
 2983TIP3   OH2 8954   3.386   3.865   3.516 -0.0992 -0.4050 -0.1988
 2983TIP3    H1 8955   3.327   3.864   3.441 -1.2875 -1.9719  0.6862
 2983TIP3    H2 8956   3.331   3.840   3.590  1.7080 -2.2462  0.6303
 2984TIP3   OH2 8957   4.878   2.864   0.853  0.0743  0.2657 -0.1399
 2984TIP3    H1 8958   4.866   2.919   0.775  2.5636 -1.9444 -2.2895
 2984TIP3    H2 8959   4.971   2.872   0.874 -0.1701 -0.6866  1.4671
 2985TIP3   OH2 8960   4.861   5.436   4.345 -0.2509  0.5824 -0.0530
 2985TIP3    H1 8961   4.816   5.456   4.427 -1.6964  1.0180 -0.9182
 2985TIP3    H2 8962   4.792   5.402   4.288  0.9866 -1.0465 -0.6585
 2986TIP3   OH2 8963   2.154   1.479   1.814  0.2079  0.4273 -0.0528
 2986TIP3    H1 8964   2.071   1.525   1.805 -0.5850 -0.5862  1.6293
 2986TIP3    H2 8965   2.220   1.547   1.800 -0.9139  1.7108  0.6223
 2987TIP3   OH2 8966   3.112   5.391   0.138 -0.3861 -0.7476  0.3704
 2987TIP3    H1 8967   3.056   5.445   0.082  0.9024  1.7530  1.3079
 2987TIP3    H2 8968   3.195   5.439   0.141  1.0541 -3.1227  0.8740
 2988TIP3   OH2 8969   0.210   0.971   0.728  0.2548 -0.3944  0.2012
 2988TIP3    H1 8970   0.281   0.940   0.784  1.1795 -1.2216 -1.3397
 2988TIP3    H2 8971   0.143   0.904   0.734  0.4029 -0.5416  0.2208
 2989TIP3   OH2 8972   2.507   5.251   0.360  0.5513 -0.4924 -0.1218
 2989TIP3    H1 8973   2.452   5.174   0.378 -0.1415 -0.3463 -1.4766
 2989TIP3    H2 8974   2.451   5.309   0.308  0.2445  2.0380  2.7614
 2990TIP3   OH2 8975   1.458   4.550   2.258 -0.3058 -0.6441 -0.8692
 2990TIP3    H1 8976   1.401   4.523   2.330  0.2159 -0.4902 -0.3913
 2990TIP3    H2 8977   1.445   4.644   2.251 -1.2124 -0.8222 -1.7365
 2991TIP3   OH2 8978   0.912   1.423   2.533 -0.5158  0.6848  0.4012
 2991TIP3    H1 8979   0.975   1.352   2.547 -0.4522  0.6310 -0.1306
 2991TIP3    H2 8980   0.827   1.384   2.556 -0.5199  0.3349 -0.1894
 2992TIP3   OH2 8981   0.645   4.952   4.729  0.1001 -0.2344 -0.0363
 2992TIP3    H1 8982   0.673   4.867   4.695 -1.8053 -1.2597  0.7930
 2992TIP3    H2 8983   0.725   5.005   4.731  1.1789 -1.7370 -1.3109
 2993TIP3   OH2 8984   0.323   3.658   3.892  0.1408  0.3415 -0.3483
 2993TIP3    H1 8985   0.330   3.743   3.848  1.1707  0.6819  0.4601
 2993TIP3    H2 8986   0.363   3.596   3.831  2.7886  1.0080  0.6145
 2994TIP3   OH2 8987   1.084   3.153   3.722  0.3254  0.2750  0.3041
 2994TIP3    H1 8988   1.103   3.135   3.630 -1.4366 -0.5807  0.0797
 2994TIP3    H2 8989   1.112   3.073   3.768  0.8520  0.5538  0.4797
 2995TIP3   OH2 8990   4.131   5.674   1.301  0.4853 -0.1452 -0.5716
 2995TIP3    H1 8991   4.083   5.752   1.328  0.7655  0.4328 -1.6806
 2995TIP3    H2 8992   4.064   5.611   1.276  0.2804  0.0760 -0.5788
 2996TIP3   OH2 8993   2.229   5.659   1.795  0.0397  0.2632  0.4261
 2996TIP3    H1 8994   2.262   5.741   1.831  0.7296 -0.6166  1.9235
 2996TIP3    H2 8995   2.289   5.593   1.829 -0.5933 -0.8858 -0.6103
 2997TIP3   OH2 8996   2.294   4.858   0.954 -0.4070 -0.2644 -0.1111
 2997TIP3    H1 8997   2.321   4.875   1.044 -3.3526  0.0610  0.7904
 2997TIP3    H2 8998   2.331   4.931   0.904 -0.8900  0.9892  1.2930
 2998TIP3   OH2 8999   1.186   0.393   3.584  0.3994  0.1174 -0.3889
 2998TIP3    H1 9000   1.115   0.355   3.636  1.5133 -0.7041  0.5917
 2998TIP3    H2 9001   1.212   0.323   3.524  1.1522 -0.0077  0.0722
 2999TIP3   OH2 9002   0.242   1.263   1.982 -0.3827  0.6035  0.2042
 2999TIP3    H1 9003   0.184   1.303   1.917 -1.9869 -1.1064  0.5135
 2999TIP3    H2 9004   0.292   1.198   1.932  1.3455  2.0397 -0.0546
 3000TIP3   OH2 9005   2.589   4.146   1.013  0.1381  0.1276  0.0559
 3000TIP3    H1 9006   2.621   4.074   0.958 -0.2341 -0.1056  0.1431
 3000TIP3    H2 9007   2.606   4.115   1.103 -3.0047 -1.3424  0.2826
 3001TIP3   OH2 9008   5.937   0.263   0.426  0.0932  0.1021  0.5372
 3001TIP3    H1 9009   5.866   0.240   0.486  0.0148 -0.5879  0.1809
 3001TIP3    H2 9010   5.933   0.198   0.356  0.7752  0.3410  0.2621
 3002TIP3   OH2 9011   3.474   0.450   3.551 -0.0569 -0.1132 -0.5137
 3002TIP3    H1 9012   3.519   0.387   3.495 -0.7308 -0.5786 -0.5454
 3002TIP3    H2 9013   3.402   0.482   3.496 -0.9939 -0.9071  0.2402
 3003TIP3   OH2 9014   2.351   4.376   4.481  0.5439 -0.2322 -0.2377
 3003TIP3    H1 9015   2.305   4.460   4.471  0.1620 -0.3698  0.2987
 3003TIP3    H2 9016   2.380   4.354   4.392  1.2309  0.7884 -0.2858
 3004TIP3   OH2 9017   3.816   0.878   2.691  0.2031 -0.1021 -0.4131
 3004TIP3    H1 9018   3.759   0.902   2.764 -1.2275  1.1125 -1.8544
 3004TIP3    H2 9019   3.800   0.945   2.625  4.7762  1.4808 -0.2593
 3005TIP3   OH2 9020   3.553   4.389   3.455 -0.3757 -0.4260 -0.2570
 3005TIP3    H1 9021   3.527   4.340   3.533  0.1968 -1.0269 -0.4285
 3005TIP3    H2 9022   3.579   4.322   3.392  0.1198  0.0838 -0.6127
 3006TIP3   OH2 9023   6.069   4.473   0.397 -0.0730  0.5064  0.4544
 3006TIP3    H1 9024   6.089   4.398   0.341 -0.1007 -0.4251  1.6685
 3006TIP3    H2 9025   6.005   4.524   0.346  0.0611 -0.2003 -0.4486
 3007TIP3   OH2 9026   4.180   1.007   0.283 -0.7065  0.6177 -0.6277
 3007TIP3    H1 9027   4.160   0.988   0.375  2.0058  1.2563  0.1725
 3007TIP3    H2 9028   4.155   1.099   0.272  1.0589  1.2361  0.1872
 3008TIP3   OH2 9029   1.441   3.128   0.819 -0.4268  0.0915 -0.2902
 3008TIP3    H1 9030   1.498   3.109   0.745 -0.9111  0.5831 -0.8129
 3008TIP3    H2 9031   1.438   3.224   0.823 -1.0838  0.0740 -0.1788
 3009TIP3   OH2 9032   6.194   0.222   5.001  0.5749  0.3340 -0.7248
 3009TIP3    H1 9033   6.235   0.136   5.004 -2.2746 -1.1516 -1.4703
 3009TIP3    H2 9034   6.194   0.246   4.908 -0.8391 -0.0749 -0.8628
 3010TIP3   OH2 9035   4.991   4.921   0.110 -0.0280 -0.1919 -0.0083
 3010TIP3    H1 9036   4.956   5.006   0.085 -4.0385 -1.3681  0.8551
 3010TIP3    H2 9037   5.045   4.939   0.187  1.1038  1.7715 -1.1950
 3011TIP3   OH2 9038   2.007   3.681   2.608  0.2795  0.1904 -0.3643
 3011TIP3    H1 9039   2.082   3.723   2.566 -0.1688  0.4794 -0.8900
 3011TIP3    H2 9040   2.038   3.661   2.697  1.2708 -0.5250 -0.8456
 3012TIP3   OH2 9041   0.106   0.589   0.814 -0.1608  0.4747 -0.5490
 3012TIP3    H1 9042   0.057   0.550   0.742 -2.0774  0.7620  0.5171
 3012TIP3    H2 9043   0.107   0.521   0.882 -0.1802  0.9076 -0.1060
 3013TIP3   OH2 9044   5.861   3.838   0.885 -0.1623  0.4311  0.1629
 3013TIP3    H1 9045   5.883   3.920   0.842 -1.0961  0.7020  0.1671
 3013TIP3    H2 9046   5.791   3.801   0.831  0.1506 -0.2937  0.2445
 3014TIP3   OH2 9047   4.526   2.374   1.203 -0.3464  0.5527  0.1379
 3014TIP3    H1 9048   4.618   2.390   1.224  0.3653 -1.2256 -1.3368
 3014TIP3    H2 9049   4.480   2.454   1.231  2.1293  3.0313 -2.3103
 3015TIP3   OH2 9050   1.958   1.525   4.119 -0.5327  0.1719 -0.1264
 3015TIP3    H1 9051   1.973   1.502   4.211 -3.1055  2.4627  1.0319
 3015TIP3    H2 9052   1.898   1.458   4.087 -1.8679  0.8559  0.8209
 3016TIP3   OH2 9053   2.774   5.820   0.139 -0.4941  0.0904 -0.4947
 3016TIP3    H1 9054   2.802   5.832   0.230  0.2787  0.2298 -0.7409
 3016TIP3    H2 9055   2.700   5.880   0.128  0.4768  1.3396 -0.4277
 3017TIP3   OH2 9056   5.521   1.285   0.480 -0.0067  0.5315 -0.7019
 3017TIP3    H1 9057   5.489   1.286   0.571  1.1586 -0.0883 -0.2607
 3017TIP3    H2 9058   5.577   1.208   0.476  1.9350  1.9002 -1.2497
 3018TIP3   OH2 9059   4.515   0.656   1.810 -0.6212 -0.0131 -0.6719
 3018TIP3    H1 9060   4.605   0.648   1.841 -0.9197 -0.2848  0.1439
 3018TIP3    H2 9061   4.480   0.733   1.855 -1.0832 -0.4508 -0.2722
 3019TIP3   OH2 9062   5.301   4.592   4.364 -0.4888 -0.1223  0.0632
 3019TIP3    H1 9063   5.380   4.560   4.409 -0.5977 -0.7965 -0.2102
 3019TIP3    H2 9064   5.231   4.583   4.428 -0.2061  1.2719  0.5951
 3020TIP3   OH2 9065   2.697   3.997   4.326  0.1827 -0.1093  0.6909
 3020TIP3    H1 9066   2.755   4.067   4.356  0.4718 -0.1520  0.2400
 3020TIP3    H2 9067   2.744   3.956   4.253 -0.4466 -0.1005  0.2685
 3021TIP3   OH2 9068   6.307   4.167   5.023 -0.1580 -0.0829 -0.2917
 3021TIP3    H1 9069   6.292   4.239   5.085  2.3182 -0.1498  0.5014
 3021TIP3    H2 9070   6.387   4.192   4.977  0.7945 -2.3099  0.0417
 3022TIP3   OH2 9071   3.636   5.474   2.065 -0.5956  0.2990  0.1690
 3022TIP3    H1 9072   3.628   5.382   2.090 -0.4879  0.4272  0.6979
 3022TIP3    H2 9073   3.600   5.479   1.977 -0.5502 -0.2600  0.1179
 3023TIP3   OH2 9074   5.671   3.431   1.552  0.0420 -0.5405 -0.8611
 3023TIP3    H1 9075   5.614   3.433   1.474 -1.2213 -0.4110  0.0281
 3023TIP3    H2 9076   5.647   3.350   1.597 -0.2551  0.0670  0.1045
 3024TIP3   OH2 9077   0.236   3.557   1.466 -0.2411 -0.1772 -0.4873
 3024TIP3    H1 9078   0.217   3.474   1.422 -0.7792  0.3420 -1.2473
 3024TIP3    H2 9079   0.189   3.550   1.550 -1.2799 -0.1734 -1.0463
 3025TIP3   OH2 9080   3.800   4.921   4.158  0.0430  0.2778  0.2326
 3025TIP3    H1 9081   3.893   4.940   4.169  0.0941  0.0885  0.1256
 3025TIP3    H2 9082   3.792   4.887   4.069 -0.2742  1.2052 -0.1085
 3026TIP3   OH2 9083   4.229   5.889   1.127  0.1970  0.3011  0.1173
 3026TIP3    H1 9084   4.176   5.847   1.194  0.3085  0.1140  0.0884
 3026TIP3    H2 9085   4.186   5.973   1.112 -0.9107 -0.3999 -0.8908
 3027TIP3   OH2 9086   4.534   0.400   0.434 -0.4540 -0.2882 -0.4678
 3027TIP3    H1 9087   4.474   0.472   0.414 -0.8543 -0.4312  0.1982
 3027TIP3    H2 9088   4.611   0.417   0.380  0.0520  1.4409  0.7079
 3028TIP3   OH2 9089   2.656   0.687   2.136 -0.0429  0.1068  0.4923
 3028TIP3    H1 9090   2.676   0.720   2.048  1.0744  1.3611  1.1660
 3028TIP3    H2 9091   2.730   0.631   2.158 -1.2713 -1.8192 -0.0979
 3029TIP3   OH2 9092   2.002   5.489   1.474  0.5637 -0.7641  0.2094
 3029TIP3    H1 9093   2.075   5.447   1.428 -1.6801 -2.0890 -2.4275
 3029TIP3    H2 9094   1.976   5.562   1.417  0.8914  0.8609  2.0210
 3030TIP3   OH2 9095   0.466   3.219   0.532  0.6528  0.2837  0.5649
 3030TIP3    H1 9096   0.405   3.227   0.605 -0.8242  1.6947 -0.7357
 3030TIP3    H2 9097   0.483   3.309   0.504  0.7979 -0.2144 -1.1049
 3031TIP3   OH2 9098   0.368   4.146   2.914  0.0625 -0.0050 -0.2745
 3031TIP3    H1 9099   0.295   4.123   2.857  0.2897 -1.8622  0.0952
 3031TIP3    H2 9100   0.410   4.062   2.934  2.2855  0.9929 -0.4418
 3032TIP3   OH2 9101   2.467   3.855   2.714 -0.4346 -0.0757  0.4913
 3032TIP3    H1 9102   2.386   3.863   2.763 -0.0492 -0.9174  1.2778
 3032TIP3    H2 9103   2.526   3.806   2.771  0.6357  0.5191 -0.0613
 3033TIP3   OH2 9104   1.712   5.244   1.458 -0.0155  0.3295  0.0277
 3033TIP3    H1 9105   1.706   5.157   1.419 -0.6101  0.9171 -1.2299
 3033TIP3    H2 9106   1.797   5.244   1.502  0.4742 -0.5172 -0.8786
 3034TIP3   OH2 9107   0.835   5.432   0.981  0.0171 -0.5585 -0.2878
 3034TIP3    H1 9108   0.798   5.519   0.997 -0.4840 -0.6140 -1.0771
 3034TIP3    H2 9109   0.844   5.394   1.068 -0.5796 -0.0423  0.0114
 3035TIP3   OH2 9110   3.113   1.483   2.964  0.2768 -0.5002  0.5328
 3035TIP3    H1 9111   3.092   1.410   2.906  1.9948 -0.8687  0.3275
 3035TIP3    H2 9112   3.065   1.465   3.045 -1.4363 -0.4452 -0.4176
 3036TIP3   OH2 9113   0.469   2.644   1.920 -0.0015  0.0108 -0.3980
 3036TIP3    H1 9114   0.553   2.604   1.899  0.5481  0.4414  0.8416
 3036TIP3    H2 9115   0.449   2.699   1.845  0.0171 -1.3307 -1.4114
 3037TIP3   OH2 9116   5.986   5.663   3.874  0.1756 -0.0761 -0.1063
 3037TIP3    H1 9117   5.921   5.693   3.937  0.9960 -1.0088  1.2432
 3037TIP3    H2 9118   6.008   5.574   3.903  1.4936 -0.0620 -0.9596
 3038TIP3   OH2 9119   4.106   2.043   2.334 -0.1375  0.3846  0.0746
 3038TIP3    H1 9120   4.105   2.102   2.409 -2.1461 -1.0954  1.3022
 3038TIP3    H2 9121   4.190   1.997   2.341  0.3636  1.3282  0.4887
 3039TIP3   OH2 9122   0.469   1.047   3.727  0.4451  0.0264 -0.4995
 3039TIP3    H1 9123   0.488   1.027   3.635 -1.0870  4.2786 -1.9610
 3039TIP3    H2 9124   0.388   0.999   3.745 -0.0533  0.2930 -1.8780
 3040TIP3   OH2 9125   3.416   5.137   4.408  0.0740 -0.9013 -0.6888
 3040TIP3    H1 9126   3.349   5.107   4.470  0.6645  1.0082  0.9601
 3040TIP3    H2 9127   3.498   5.127   4.455  0.6962 -0.7971 -1.7301
 3041TIP3   OH2 9128   0.611   2.385   2.111  0.9376 -0.3829  0.2193
 3041TIP3    H1 9129   0.703   2.409   2.119  1.0476 -0.5746 -0.4660
 3041TIP3    H2 9130   0.564   2.452   2.161  1.6723 -2.1931  3.6761
 3042TIP3   OH2 9131   2.900   2.482   5.010 -0.1837 -0.0093  0.0830
 3042TIP3    H1 9132   2.927   2.574   5.004  0.1334 -0.0928  0.2056
 3042TIP3    H2 9133   2.959   2.437   4.949  0.7210 -0.3598  1.1842
 3043TIP3   OH2 9134   3.774   1.855   4.223  0.3958 -0.2221  0.4294
 3043TIP3    H1 9135   3.847   1.813   4.178 -0.5975 -0.6197 -0.8547
 3043TIP3    H2 9136   3.710   1.872   4.154 -2.3721 -3.3207  1.9705
 3044TIP3   OH2 9137   1.335   1.275   4.341 -0.7144 -0.8612 -0.2732
 3044TIP3    H1 9138   1.344   1.260   4.247  0.7746  1.1155 -0.5079
 3044TIP3    H2 9139   1.240   1.269   4.357 -0.9073 -2.0701 -1.7173
 3045TIP3   OH2 9140   5.650   0.592   2.829 -0.0995 -0.4845 -0.3047
 3045TIP3    H1 9141   5.736   0.567   2.861  1.2177  0.9760 -2.4115
 3045TIP3    H2 9142   5.638   0.682   2.860 -1.4663 -1.0701  0.9984
 3046TIP3   OH2 9143   3.234   0.710   4.975 -0.1270  0.4208  0.0180
 3046TIP3    H1 9144   3.167   0.776   4.993 -1.3049 -1.3840  3.0698
 3046TIP3    H2 9145   3.186   0.638   4.934  0.2153 -0.2663  0.7958
 3047TIP3   OH2 9146   2.462   5.723   4.376  0.0232 -0.5582  0.2141
 3047TIP3    H1 9147   2.543   5.693   4.417 -0.0045  1.3726  1.8089
 3047TIP3    H2 9148   2.392   5.682   4.427 -0.0066 -0.4867  0.2309
 3048TIP3   OH2 9149   6.327   2.345   3.512  0.2954 -0.4924 -0.5455
 3048TIP3    H1 9150   6.278   2.416   3.470 -1.3199 -0.0648  1.8461
 3048TIP3    H2 9151   6.311   2.269   3.458  0.1907  0.4817 -1.9377
 3049TIP3   OH2 9152   4.659   3.296   4.065 -0.4098  0.0821  0.8009
 3049TIP3    H1 9153   4.641   3.252   3.983  0.5894  0.3228  0.4414
 3049TIP3    H2 9154   4.655   3.390   4.044 -1.1463  0.1689  1.2577
 3050TIP3   OH2 9155   3.377   0.849   1.665  0.2691 -0.3117 -0.2453
 3050TIP3    H1 9156   3.437   0.885   1.729 -0.3262 -2.3861  1.6233
 3050TIP3    H2 9157   3.290   0.866   1.701 -0.2450  0.9007 -1.9176
 3051TIP3   OH2 9158   0.451   4.237   0.067 -0.8352 -0.5180  0.5967
 3051TIP3    H1 9159   0.461   4.152   0.110 -1.6740 -0.4167  1.0287
 3051TIP3    H2 9160   0.374   4.226   0.011 -0.0734 -0.4775 -0.4793
 3052TIP3   OH2 9161   3.310   0.169   0.809  0.0840 -0.4650 -0.0758
 3052TIP3    H1 9162   3.373   0.098   0.812 -0.3125 -0.8019  0.5665
 3052TIP3    H2 9163   3.242   0.143   0.872  1.0414  1.5304  1.9335
 3053TIP3   OH2 9164   3.362   2.936   3.148  0.2232 -0.5433 -0.3927
 3053TIP3    H1 9165   3.355   2.959   3.241  1.5737 -2.0692  0.1318
 3053TIP3    H2 9166   3.271   2.926   3.119 -0.2182 -1.9125  1.2845
 3054TIP3   OH2 9167   0.783   0.391   1.084 -0.1974 -0.1827 -0.3785
 3054TIP3    H1 9168   0.786   0.469   1.029  0.6686 -0.3821 -0.6303
 3054TIP3    H2 9169   0.854   0.336   1.051  0.6512 -0.1126  1.2073
 3055TIP3   OH2 9170   0.832   1.597   3.928 -0.1042  0.5433  0.3177
 3055TIP3    H1 9171   0.846   1.505   3.949 -0.3163  0.5452  0.4709
 3055TIP3    H2 9172   0.784   1.596   3.845 -1.3737  0.4753  1.0244
 3056TIP3   OH2 9173   4.780   2.938   0.217  0.1786  0.1392  0.2883
 3056TIP3    H1 9174   4.830   2.876   0.270  0.4249  1.3486  1.5195
 3056TIP3    H2 9175   4.749   3.003   0.279  0.4667  1.6118 -1.0496
 3057TIP3   OH2 9176   0.972   4.600   2.796  0.2182  0.3504  0.2807
 3057TIP3    H1 9177   1.029   4.575   2.723 -1.0053 -1.1104 -0.2037
 3057TIP3    H2 9178   0.990   4.535   2.864 -0.2499  0.4063  0.4585
 3058TIP3   OH2 9179   4.310   0.822   4.717  0.0971 -0.4039  0.2178
 3058TIP3    H1 9180   4.298   0.812   4.623 -1.3841  0.3681  0.2898
 3058TIP3    H2 9181   4.398   0.858   4.727  0.3378 -0.6701 -0.8460
 3059TIP3   OH2 9182   2.267   2.262   0.028 -0.1220  0.2550  0.4166
 3059TIP3    H1 9183   2.240   2.170   0.024 -0.4790  0.3769  0.0790
 3059TIP3    H2 9184   2.359   2.258   0.056  1.5997 -0.5291 -4.3170
 3060TIP3   OH2 9185   0.984   5.109   4.224 -0.3222  0.0486 -0.5140
 3060TIP3    H1 9186   1.005   5.034   4.279  1.6143 -0.7560 -2.2339
 3060TIP3    H2 9187   0.955   5.176   4.286 -0.2009 -1.4449  1.2566
 3061TIP3   OH2 9188   2.061   2.773   1.571 -0.1688  0.0394  0.1765
 3061TIP3    H1 9189   2.014   2.709   1.517 -0.6137  0.6425 -0.1669
 3061TIP3    H2 9190   1.998   2.798   1.639 -0.4439  1.0195 -0.4213
 3062TIP3   OH2 9191   3.892   2.047   1.305  0.4644  0.0942 -0.2034
 3062TIP3    H1 9192   3.864   2.103   1.232  0.0982  0.6805  0.3715
 3062TIP3    H2 9193   3.830   1.974   1.305 -0.9833  1.2610  0.9114
 3063TIP3   OH2 9194   1.679   1.938   0.634  0.0018 -0.4823 -0.5316
 3063TIP3    H1 9195   1.640   1.965   0.551  2.2556  1.4828 -1.0766
 3063TIP3    H2 9196   1.709   2.020   0.674  1.5341 -1.6324  0.8284
 3064TIP3   OH2 9197   0.300   4.761   1.374 -0.5473  0.6518  0.1044
 3064TIP3    H1 9198   0.278   4.765   1.467 -0.4736  0.0322  0.1503
 3064TIP3    H2 9199   0.363   4.832   1.362  1.4871 -0.9065  1.0906
 3065TIP3   OH2 9200   0.165   0.763   1.289 -0.4322  0.0563 -0.2324
 3065TIP3    H1 9201   0.236   0.802   1.238 -0.6325 -1.8176 -2.0847
 3065TIP3    H2 9202   0.208   0.717   1.360  0.0613  0.5486 -0.2117
 3066TIP3   OH2 9203   0.142   3.360   4.054  0.2362 -1.0188  0.0330
 3066TIP3    H1 9204   0.154   3.441   4.004  1.2338 -1.5081 -0.5684
 3066TIP3    H2 9205   0.054   3.331   4.031  0.7238 -1.3143 -1.6102
 3067TIP3   OH2 9206   3.341   1.930   0.320 -0.3863  0.3314  0.2015
 3067TIP3    H1 9207   3.267   1.940   0.380  1.1342 -1.5962  2.5518
 3067TIP3    H2 9208   3.312   1.865   0.256 -1.1783  0.6550  0.2188
 3068TIP3   OH2 9209   1.248   5.315   0.195  0.3018 -0.1128  0.2825
 3068TIP3    H1 9210   1.232   5.279   0.283 -3.0918  0.6818  0.1062
 3068TIP3    H2 9211   1.249   5.238   0.138 -0.2170 -0.4475  0.7078
 3069TIP3   OH2 9212   5.540   3.956   4.197 -0.5130 -0.7917 -0.2278
 3069TIP3    H1 9213   5.618   3.980   4.148 -0.8290 -1.0436 -0.8635
 3069TIP3    H2 9214   5.542   3.861   4.201 -0.5677 -0.7795  0.1250
 3070TIP3   OH2 9215   6.170   5.876   5.151  0.1373 -0.2268  0.0451
 3070TIP3    H1 9216   6.122   5.873   5.234 -0.2442 -1.4009 -0.1934
 3070TIP3    H2 9217   6.119   5.820   5.092  0.7709  0.0482 -0.7835
 3071TIP3   OH2 9218   1.133   4.608   4.264  0.1156 -0.0012 -0.2233
 3071TIP3    H1 9219   1.212   4.615   4.211  0.5240  0.1369  0.3948
 3071TIP3    H2 9220   1.066   4.575   4.203  0.2396  1.3868 -1.1599
 3072TIP3   OH2 9221   2.398   3.936   0.758 -0.0526 -0.0067 -0.2629
 3072TIP3    H1 9222   2.488   3.967   0.750 -0.0512 -0.2420 -1.2356
 3072TIP3    H2 9223   2.405   3.842   0.772 -0.0687  0.3165  2.4281
 3073TIP3   OH2 9224   1.399   0.574   3.187  0.0464 -0.4172  0.5413
 3073TIP3    H1 9225   1.494   0.561   3.178 -0.0406 -0.5763 -0.2115
 3073TIP3    H2 9226   1.385   0.584   3.281  0.9351  0.5121  0.6018
 3074TIP3   OH2 9227   0.045   1.651   2.918 -0.0143 -0.9032 -0.1718
 3074TIP3    H1 9228   0.140   1.638   2.917 -0.1151 -1.9701  1.0023
 3074TIP3    H2 9229   0.018   1.638   2.827  1.0649  0.4945 -0.7275
 3075TIP3   OH2 9230   2.849   5.199   2.038  0.0850  0.1872  0.0795
 3075TIP3    H1 9231   2.919   5.265   2.038  0.6224 -0.3545  1.2961
 3075TIP3    H2 9232   2.777   5.241   1.991  0.4871  1.5558  0.6291
 3076TIP3   OH2 9233   0.882   0.095   1.685  0.2834  0.2187  0.1446
 3076TIP3    H1 9234   0.870   0.058   1.597  1.3131  0.2326 -0.0225
 3076TIP3    H2 9235   0.876   0.189   1.672  1.7926  0.3079 -0.1878
 3077TIP3   OH2 9236   3.803   5.828   3.217  0.1508  0.0627  0.0779
 3077TIP3    H1 9237   3.716   5.801   3.245 -0.2134  1.4132  0.2977
 3077TIP3    H2 9238   3.787   5.886   3.143  0.7381  1.8196  1.2846
 3078TIP3   OH2 9239   5.301   1.774   2.505  0.0434 -0.0280  0.5338
 3078TIP3    H1 9240   5.323   1.702   2.564  1.8910 -2.1098 -2.4400
 3078TIP3    H2 9241   5.370   1.839   2.519  0.6424 -0.6390  0.4644
 3079TIP3   OH2 9242   1.942   3.116   2.869  0.1109 -0.4165  0.4595
 3079TIP3    H1 9243   1.925   3.147   2.958  4.9337  2.0165  0.8251
 3079TIP3    H2 9244   1.895   3.178   2.813 -0.3313  0.0061  1.2806
 3080TIP3   OH2 9245   0.438   4.584   3.925  0.1720  0.2437  0.1931
 3080TIP3    H1 9246   0.442   4.667   3.972  1.1398  0.9893 -1.1563
 3080TIP3    H2 9247   0.439   4.608   3.833  0.7512 -1.2759 -0.2243
 3081TIP3   OH2 9248   3.450   3.751   1.088  0.3991 -0.0690  0.3060
 3081TIP3    H1 9249   3.373   3.706   1.121 -0.5673  0.8734 -0.5706
 3081TIP3    H2 9250   3.479   3.805   1.162  0.5115 -0.7817  0.7908
 3082TIP3   OH2 9251   4.157   1.669   4.346  0.4559  0.0176  0.0957
 3082TIP3    H1 9252   4.198   1.588   4.316  1.6521  0.6419  0.0360
 3082TIP3    H2 9253   4.225   1.735   4.340 -0.2961  0.8887  0.8468
 3083TIP3   OH2 9254   1.418   5.739   1.781 -0.1707 -0.4523  0.4440
 3083TIP3    H1 9255   1.334   5.695   1.792 -0.8638  0.8654  0.5578
 3083TIP3    H2 9256   1.425   5.752   1.686 -2.2917  3.4599  0.6559
 3084TIP3   OH2 9257   4.437   4.477   3.217 -0.0783  0.1665 -0.0740
 3084TIP3    H1 9258   4.395   4.497   3.301 -1.3746 -0.8427 -0.4576
 3084TIP3    H2 9259   4.529   4.460   3.241  0.2873  2.7703  0.7251
 3085TIP3   OH2 9260   4.466   5.426   0.639  0.1089  0.3632 -0.1271
 3085TIP3    H1 9261   4.416   5.351   0.607 -2.0740  1.5014  0.4446
 3085TIP3    H2 9262   4.415   5.461   0.711  1.9601  1.3834  0.7792
 3086TIP3   OH2 9263   6.272   5.469   2.681 -0.3584  0.0944  0.0670
 3086TIP3    H1 9264   6.273   5.386   2.728 -2.1532  0.0731  0.1170
 3086TIP3    H2 9265   6.195   5.464   2.624 -1.4315  2.3285  1.1934
 3087TIP3   OH2 9266   1.887   4.728   2.503  0.0054  0.3962  0.1155
 3087TIP3    H1 9267   1.838   4.646   2.500 -0.2436  0.5328  0.3915
 3087TIP3    H2 9268   1.822   4.795   2.525  0.1392  0.7268 -0.4851
 3088TIP3   OH2 9269   3.544   5.471   1.497 -0.4390  0.3279 -0.1539
 3088TIP3    H1 9270   3.624   5.466   1.444 -1.5140  0.1311 -1.8180
 3088TIP3    H2 9271   3.473   5.452   1.436 -1.6689 -1.3055  1.6320
 3089TIP3   OH2 9272   0.859   1.352   3.286  0.0531 -0.3903 -0.4105
 3089TIP3    H1 9273   0.834   1.428   3.339  0.8005 -1.6473  1.9087
 3089TIP3    H2 9274   0.776   1.315   3.257 -0.4922 -0.4681  1.1391
 3090TIP3   OH2 9275   6.022   3.573   2.005 -0.5437 -0.0314  0.5203
 3090TIP3    H1 9276   6.014   3.665   2.031  3.8601  0.6264  0.2368
 3090TIP3    H2 9277   5.989   3.571   1.915  1.3063  1.8447 -0.2787
 3091TIP3   OH2 9278   2.626   2.556   1.940  0.3300 -0.4201 -0.2175
 3091TIP3    H1 9279   2.588   2.621   1.999  2.8256  0.0386  1.0492
 3091TIP3    H2 9280   2.597   2.472   1.975  0.6432 -0.0980  0.8607
 3092TIP3   OH2 9281   1.656   0.526   3.179 -0.4394 -0.0274  0.2074
 3092TIP3    H1 9282   1.644   0.459   3.247 -1.7982 -0.4456 -0.4209
 3092TIP3    H2 9283   1.745   0.558   3.193  0.0308 -1.5509  0.8897
 3093TIP3   OH2 9284   4.972   4.674  -0.007  0.2392  0.1974  0.4561
 3093TIP3    H1 9285   4.982   4.761   0.032  1.1570  0.5181 -0.4321
 3093TIP3    H2 9286   4.950   4.617   0.067  1.0477  0.9293  1.2945
 3094TIP3   OH2 9287   4.170   5.311   1.357 -0.2239 -0.4195  0.0932
 3094TIP3    H1 9288   4.100   5.359   1.311  1.2549 -0.0169 -1.8564
 3094TIP3    H2 9289   4.216   5.379   1.406  0.9177 -0.0431 -1.4354
 3095TIP3   OH2 9290   4.707   1.303   4.873 -0.3028  0.0794  0.0284
 3095TIP3    H1 9291   4.612   1.300   4.866 -0.3926  2.3562 -0.6151
 3095TIP3    H2 9292   4.738   1.270   4.789 -0.5588  0.1925 -0.1122
 3096TIP3   OH2 9293   5.989   4.990   0.821 -0.2340  0.5331 -0.1441
 3096TIP3    H1 9294   6.067   4.987   0.876 -0.5606  0.9704  0.3504
 3096TIP3    H2 9295   6.022   5.013   0.734  0.5231 -2.0262 -0.6176
 3097TIP3   OH2 9296   2.108   0.588   0.657 -0.3456  0.9305 -0.0998
 3097TIP3    H1 9297   2.149   0.633   0.731  0.4735 -1.0282  0.7187
 3097TIP3    H2 9298   2.016   0.614   0.662  0.2517  3.4080 -0.4365
 3098TIP3   OH2 9299   3.277   1.714   3.775  0.2776  0.2985 -0.3163
 3098TIP3    H1 9300   3.217   1.787   3.791 -1.3352 -0.9740 -0.2923
 3098TIP3    H2 9301   3.359   1.755   3.750 -1.5613  2.1732 -4.0102
 3099TIP3   OH2 9302   5.762   1.149   4.033  0.0666 -0.1598 -0.0431
 3099TIP3    H1 9303   5.751   1.061   4.069  2.1289 -1.3877 -2.1083
 3099TIP3    H2 9304   5.810   1.197   4.100 -1.0827 -0.5728  1.1082
 3100TIP3   OH2 9305   0.221   3.578   0.759 -0.5932 -0.6519 -0.2839
 3100TIP3    H1 9306   0.162   3.649   0.786 -0.6258 -1.1063  0.9014
 3100TIP3    H2 9307   0.174   3.535   0.688 -1.7028 -0.9522  0.5793
 3101TIP3   OH2 9308   0.463   2.129   1.435 -0.0195  0.2922 -0.4267
 3101TIP3    H1 9309   0.470   2.199   1.369  2.3420 -0.8733 -1.5385
 3101TIP3    H2 9310   0.546   2.133   1.483 -0.4215 -0.8795  0.4099
 3102TIP3   OH2 9311   2.436   5.857   0.352  0.6455 -0.5892 -0.5223
 3102TIP3    H1 9312   2.523   5.827   0.380  0.5960  1.0244  1.7135
 3102TIP3    H2 9313   2.450   5.947   0.323 -0.3282 -0.0717  0.5139
 3103TIP3   OH2 9314   4.325   5.303   2.020  0.3313  0.8233  0.0565
 3103TIP3    H1 9315   4.377   5.381   1.999  0.5287  1.5984  2.9106
 3103TIP3    H2 9316   4.381   5.253   2.080 -0.9453  0.0452  0.6306
 3104TIP3   OH2 9317   3.008   1.663   3.274  0.3408 -0.5060  0.2844
 3104TIP3    H1 9318   2.920   1.692   3.300  0.7769 -0.8384  2.3400
 3104TIP3    H2 9319   3.005   1.568   3.278 -0.2779 -0.8197 -3.6772
 3105TIP3   OH2 9320   2.362   4.786   0.252  0.2749 -0.4441  0.1341
 3105TIP3    H1 9321   2.343   4.805   0.160  0.8763  1.0242  0.2861
 3105TIP3    H2 9322   2.371   4.691   0.256 -0.6779 -0.6014 -1.1437
 3106TIP3   OH2 9323   0.205   2.472   0.882  0.1652  0.2655 -0.4535
 3106TIP3    H1 9324   0.278   2.534   0.887  1.0725 -0.8069  0.0871
 3106TIP3    H2 9325   0.143   2.513   0.822  0.8878  1.5323 -0.3822
 3107TIP3   OH2 9326   4.432   4.900   3.277 -0.0145 -0.2856  0.3391
 3107TIP3    H1 9327   4.495   4.861   3.337 -1.4965 -0.9950  1.5042
 3107TIP3    H2 9328   4.483   4.923   3.199  1.3467 -2.5408  0.4855
 3108TIP3   OH2 9329   4.768   5.331   1.813  0.3222 -0.4917  0.3092
 3108TIP3    H1 9330   4.698   5.336   1.748  1.0701  1.5607 -0.4365
 3108TIP3    H2 9331   4.756   5.409   1.867 -0.5700 -2.3685  3.0751
 3109TIP3   OH2 9332   0.780   3.104   3.946 -0.9914 -0.1146  0.0003
 3109TIP3    H1 9333   0.720   3.140   4.011 -1.8300 -1.2318 -0.1256
 3109TIP3    H2 9334   0.724   3.077   3.873 -0.1064  0.7959 -1.0649
 3110TIP3   OH2 9335   1.174   2.468   0.433  0.0929 -0.4734  0.1803
 3110TIP3    H1 9336   1.231   2.436   0.364  1.0207  0.4312  0.4949
 3110TIP3    H2 9337   1.139   2.389   0.475  0.3865 -1.0252 -0.6117
 3111TIP3   OH2 9338   4.933   1.446   3.597 -0.7611 -0.0516  0.1631
 3111TIP3    H1 9339   4.841   1.450   3.625 -1.2707 -3.1775 -0.6557
 3111TIP3    H2 9340   4.981   1.423   3.677 -0.7032  1.1078  0.4873
 3112TIP3   OH2 9341   0.661   2.370   2.783 -0.0706 -0.2834 -0.1487
 3112TIP3    H1 9342   0.648   2.465   2.785 -1.8001 -0.4650  2.0720
 3112TIP3    H2 9343   0.594   2.338   2.723 -1.1444 -0.2117  0.9553
 3113TIP3   OH2 9344   5.185   4.007   5.083  0.1109  0.3367 -0.0279
 3113TIP3    H1 9345   5.211   3.927   5.130  0.9482 -1.4885 -3.3203
 3113TIP3    H2 9346   5.267   4.049   5.060 -0.3100  1.5322  0.5306
 3114TIP3   OH2 9347   4.883   3.069   0.653 -0.1799  0.3716 -0.0558
 3114TIP3    H1 9348   4.958   3.098   0.601 -0.9907  2.4523 -0.1342
 3114TIP3    H2 9349   4.807   3.086   0.598 -1.0065  2.0817  1.5215
 3115TIP3   OH2 9350   0.954   0.683   4.529  0.2440 -0.1085 -0.8284
 3115TIP3    H1 9351   1.037   0.702   4.571  0.2991 -2.8235  0.5195
 3115TIP3    H2 9352   0.977   0.640   4.447  0.1771 -0.5779 -0.6033
 3116TIP3   OH2 9353   2.648   2.696   0.868  0.2271  0.1276 -0.0276
 3116TIP3    H1 9354   2.645   2.789   0.888  0.1371  0.5369 -1.7813
 3116TIP3    H2 9355   2.654   2.692   0.773  1.2833 -1.6447  0.0634
 3117TIP3   OH2 9356   0.697   1.075   0.246  0.3441  0.3035 -0.0469
 3117TIP3    H1 9357   0.680   1.095   0.338 -0.1272  1.1260 -0.3035
 3117TIP3    H2 9358   0.613   1.043   0.213  0.5792 -0.2302 -0.1277
 3118TIP3   OH2 9359   4.341   4.593   1.880  0.1100 -0.1936 -0.5555
 3118TIP3    H1 9360   4.284   4.560   1.950 -0.0378  2.9265  0.9517
 3118TIP3    H2 9361   4.425   4.610   1.923  1.1525 -1.4672 -1.9866
 3119TIP3   OH2 9362   2.172   4.749   1.364  0.0348 -0.1104  0.9149
 3119TIP3    H1 9363   2.192   4.698   1.286  3.0011 -1.3452  2.2938
 3119TIP3    H2 9364   2.123   4.689   1.421 -1.5848  0.5858  0.3082
 3120TIP3   OH2 9365   2.355   3.661   1.531  0.0280  0.5482  0.3432
 3120TIP3    H1 9366   2.265   3.687   1.509 -0.0473  0.8211  0.9672
 3120TIP3    H2 9367   2.346   3.610   1.612  0.2873 -0.5515 -0.2964
 3121TIP3   OH2 9368   0.930   3.068   0.062  0.2410 -0.3114  0.0611
 3121TIP3    H1 9369   0.861   3.061   0.129 -1.3116 -0.5620 -1.5079
 3121TIP3    H2 9370   0.897   3.133  -0.000  1.4653 -0.4035 -0.7199
 3122TIP3   OH2 9371   6.199   3.268   4.431  0.3979 -0.1444 -0.0251
 3122TIP3    H1 9372   6.282   3.307   4.405  0.7743 -0.5544  0.5601
 3122TIP3    H2 9373   6.222   3.181   4.464 -0.1939 -0.0300  0.7050
 3123TIP3   OH2 9374  -0.019   4.999   0.539 -0.2611  0.2596  0.1684
 3123TIP3    H1 9375   0.020   5.073   0.493 -1.5124  1.3952  0.8463
 3123TIP3    H2 9376   0.007   4.922   0.488  1.9177  1.0375  0.0144
 3124TIP3   OH2 9377   2.116   2.402   0.431  0.7170  0.3509 -0.0357
 3124TIP3    H1 9378   2.072   2.382   0.513  1.2927  1.4657  0.5784
 3124TIP3    H2 9379   2.208   2.410   0.455  1.0479 -0.3956 -1.0060
 3125TIP3   OH2 9380   3.763   2.501   3.944 -0.3496 -0.8107 -0.7972
 3125TIP3    H1 9381   3.722   2.417   3.924 -0.4115 -0.7604 -0.8822
 3125TIP3    H2 9382   3.802   2.489   4.030 -1.8098 -0.3823 -0.0490
 3126TIP3   OH2 9383   0.198   1.407   4.420 -0.3052  0.2636  0.2103
 3126TIP3    H1 9384   0.168   1.316   4.419  2.3996 -0.7134 -0.5096
 3126TIP3    H2 9385   0.191   1.433   4.512 -1.3329 -0.5577  0.3859
 3127TIP3   OH2 9386   5.202   0.149   3.014  0.1941 -0.4028  0.1332
 3127TIP3    H1 9387   5.247   0.077   3.058  0.6105  0.2990  0.8917
 3127TIP3    H2 9388   5.186   0.213   3.084 -0.2044  0.2163 -0.5165
 3128TIP3   OH2 9389   5.951   0.958   3.170  0.1912 -0.2461  0.0905
 3128TIP3    H1 9390   5.862   0.923   3.172  0.0128  0.2149  0.6173
 3128TIP3    H2 9391   5.939   1.051   3.152  0.6664 -0.4738 -1.5559
 3129TIP3   OH2 9392   0.012   0.319   3.198 -0.9480  0.1007  0.4136
 3129TIP3    H1 9393   0.093   0.284   3.161 -0.0057 -0.0254  2.4824
 3129TIP3    H2 9394   0.006   0.408   3.163  0.3533  0.2834  0.6163
 3130TIP3   OH2 9395   5.457   5.698   1.738 -0.1755  0.0527 -0.4160
 3130TIP3    H1 9396   5.412   5.680   1.656 -0.9087  0.3111 -0.0758
 3130TIP3    H2 9397   5.418   5.779   1.771  1.3226  0.9295 -0.6651
 3131TIP3   OH2 9398   0.155   1.046   4.620 -0.2350  0.6531 -0.4458
 3131TIP3    H1 9399   0.060   1.057   4.626 -0.4073 -1.1461  1.1474
 3131TIP3    H2 9400   0.167   0.961   4.578  0.5799 -0.2284  1.4426
 3132TIP3   OH2 9401   3.437   0.202   0.199 -0.1906 -0.5437  0.1982
 3132TIP3    H1 9402   3.460   0.110   0.213 -1.6602 -1.0501 -0.3938
 3132TIP3    H2 9403   3.344   0.206   0.222 -0.4166  0.5371 -0.8130
 3133TIP3   OH2 9404   6.079   3.735   0.214  0.4284 -0.2141  0.2997
 3133TIP3    H1 9405   6.133   3.691   0.147  0.6809 -0.4388  0.6445
 3133TIP3    H2 9406   5.999   3.682   0.218  0.0301  0.3163 -0.4555
 3134TIP3   OH2 9407   2.435   1.834   4.076  0.8314  0.5463  0.3387
 3134TIP3    H1 9408   2.450   1.870   4.164  1.2044  0.1654  0.4317
 3134TIP3    H2 9409   2.340   1.824   4.071  0.8013  0.6433  0.6680
 3135TIP3   OH2 9410   5.166   0.537   1.905  0.3961 -0.1260 -0.3254
 3135TIP3    H1 9411   5.091   0.585   1.942 -0.6996 -1.5999 -0.5498
 3135TIP3    H2 9412   5.225   0.525   1.980 -0.3754 -0.4002  0.2569
 3136TIP3   OH2 9413   3.433   1.466   1.199  0.3875  0.4795  0.1072
 3136TIP3    H1 9414   3.387   1.417   1.267  0.3710  2.1254  1.3293
 3136TIP3    H2 9415   3.367   1.483   1.132 -0.5363  1.8166  1.3081
 3137TIP3   OH2 9416   3.617   2.528   2.474 -0.5335  0.1434  0.0511
 3137TIP3    H1 9417   3.638   2.593   2.407 -1.9629  1.2254  0.5912
 3137TIP3    H2 9418   3.675   2.548   2.546  1.9840 -1.8788 -1.2517
 3138TIP3   OH2 9419   2.174   5.862   4.692  0.1638  0.1238 -0.0132
 3138TIP3    H1 9420   2.160   5.776   4.730  0.1061 -0.2815 -0.9496
 3138TIP3    H2 9421   2.164   5.922   4.766  1.6454 -0.7534  0.9668
 3139TIP3   OH2 9422   4.413   4.434   0.196 -0.4539  0.0365 -0.6045
 3139TIP3    H1 9423   4.325   4.405   0.172 -0.7198  0.9781 -0.8143
 3139TIP3    H2 9424   4.403   4.528   0.212  1.1849  1.0111 -4.2259
 3140TIP3   OH2 9425   0.646   4.298   0.542  0.0956 -0.3402 -0.5960
 3140TIP3    H1 9426   0.560   4.306   0.501 -0.7063 -1.6215  0.7520
 3140TIP3    H2 9427   0.663   4.384   0.579 -0.5672 -0.0534 -0.9405
 3141TIP3   OH2 9428   1.179   4.899   2.448 -0.5496 -0.5173 -0.4628
 3141TIP3    H1 9429   1.170   4.904   2.353  0.8671 -0.4840 -0.6167
 3141TIP3    H2 9430   1.270   4.873   2.462 -0.4383  0.5336  0.9100
 3142TIP3   OH2 9431   1.300   2.476   4.387 -0.1749  0.3913  0.2877
 3142TIP3    H1 9432   1.246   2.529   4.329 -0.1208 -0.4370 -0.5417
 3142TIP3    H2 9433   1.260   2.389   4.384 -0.5610  0.4717  2.0199
 3143TIP3   OH2 9434   1.707   4.613   1.046  0.1085  0.0802 -0.0921
 3143TIP3    H1 9435   1.712   4.654   0.960 -0.4929  3.0453  1.1791
 3143TIP3    H2 9436   1.796   4.582   1.062  0.2059 -0.6520 -1.7778
 3144TIP3   OH2 9437   0.287   2.046   4.067 -0.3742 -0.5251 -0.2523
 3144TIP3    H1 9438   0.348   1.976   4.094 -0.2556 -0.0584  0.7321
 3144TIP3    H2 9439   0.336   2.127   4.083 -1.4902 -0.1095  1.2385
 3145TIP3   OH2 9440   0.498   3.486   0.463 -0.5503  0.1398 -0.3875
 3145TIP3    H1 9441   0.571   3.521   0.515 -1.3025 -0.7760  1.3355
 3145TIP3    H2 9442   0.532   3.486   0.373  2.1803 -1.7072  0.5107
 3146TIP3   OH2 9443   0.818   4.592   4.377 -0.4591  0.5826  0.6824
 3146TIP3    H1 9444   0.856   4.505   4.365  0.4844  1.0246  0.3457
 3146TIP3    H2 9445   0.854   4.623   4.460 -0.7458  0.6711  0.7743
 3147TIP3   OH2 9446   3.245   5.870   2.943 -0.4702  0.1593 -0.9391
 3147TIP3    H1 9447   3.308   5.800   2.926  0.0382  0.1597  0.8104
 3147TIP3    H2 9448   3.177   5.828   2.996 -0.9325  0.6320 -1.1544
 3148TIP3   OH2 9449   4.479   2.745   3.535 -0.3956  0.1554 -0.1702
 3148TIP3    H1 9450   4.425   2.792   3.471  0.1931 -1.6993 -2.1383
 3148TIP3    H2 9451   4.567   2.748   3.499 -0.2268 -1.7889 -0.0163
 3149TIP3   OH2 9452   0.862   2.473   2.114 -0.6284  0.5188  0.1113
 3149TIP3    H1 9453   0.902   2.542   2.167 -0.1540  0.4828 -0.1944
 3149TIP3    H2 9454   0.914   2.472   2.033 -0.0868 -0.7832  0.4610
 3150TIP3   OH2 9455   5.602   4.088   1.571  0.3711  0.5395 -0.2715
 3150TIP3    H1 9456   5.664   4.022   1.601 -0.1233  0.7495  1.2858
 3150TIP3    H2 9457   5.645   4.172   1.588  0.2673  0.6612 -0.5894
 3151TIP3   OH2 9458   1.115   2.926   4.792  0.2974  0.4991  0.1113
 3151TIP3    H1 9459   1.190   2.916   4.734 -0.5748 -0.3386 -0.8990
 3151TIP3    H2 9460   1.153   2.954   4.875  1.6558  0.7942 -0.5815
 3152TIP3   OH2 9461   2.771   2.364   2.941  0.7755  0.0913  0.1698
 3152TIP3    H1 9462   2.723   2.281   2.947  2.3519 -0.9317 -0.6056
 3152TIP3    H2 9463   2.802   2.380   3.030 -2.3091  1.6650  1.0776
 3153TIP3   OH2 9464   5.341   4.175   1.268  0.1992 -0.1401 -0.4865
 3153TIP3    H1 9465   5.290   4.239   1.217  0.7023  0.4879 -0.2111
 3153TIP3    H2 9466   5.421   4.221   1.291  0.8465 -1.0852 -0.8038
 3154TIP3   OH2 9467   4.696   5.252   0.473  0.1831 -0.1242  0.2464
 3154TIP3    H1 9468   4.610   5.286   0.500 -0.7313 -1.4746 -0.8094
 3154TIP3    H2 9469   4.752   5.268   0.548  0.0673  4.1734 -0.3002
 3155TIP3   OH2 9470   1.930   0.232   1.758  0.2435 -0.0317  0.7803
 3155TIP3    H1 9471   1.989   0.177   1.810 -0.3631  0.1485  1.6955
 3155TIP3    H2 9472   1.894   0.174   1.692  1.9158  0.0036 -0.2114
 3156TIP3   OH2 9473   2.400   5.547   3.503 -0.1715 -0.4531  0.3432
 3156TIP3    H1 9474   2.326   5.487   3.516 -0.3953 -0.1555  0.4515
 3156TIP3    H2 9475   2.416   5.545   3.409  0.2290 -1.1654  0.4192
 3157TIP3   OH2 9476   4.793   0.385   0.067 -0.0820  0.2225  0.3506
 3157TIP3    H1 9477   4.821   0.455   0.127 -0.8084 -0.3830  1.4272
 3157TIP3    H2 9478   4.872   0.332   0.054  1.0768  2.3175 -2.1412
 3158TIP3   OH2 9479   1.296   1.990   3.538 -0.0528  0.0964  0.2752
 3158TIP3    H1 9480   1.304   1.905   3.581 -1.7261 -0.1440  0.1730
 3158TIP3    H2 9481   1.284   2.052   3.611  3.1610  0.6296  0.5198
 3159TIP3   OH2 9482   4.384   4.752   4.436 -0.0424 -0.4119 -0.0738
 3159TIP3    H1 9483   4.333   4.832   4.446  0.0345 -0.4836  1.0117
 3159TIP3    H2 9484   4.388   4.738   4.342 -1.0406  0.2294 -0.2291
 3160TIP3   OH2 9485   3.541   4.085   1.893  0.1967  0.5554  0.1126
 3160TIP3    H1 9486   3.598   4.063   1.819  0.6892 -1.8099  1.0756
 3160TIP3    H2 9487   3.474   4.143   1.856  1.0698  0.3648 -1.9136
 3161TIP3   OH2 9488   2.368   1.360   2.633 -0.3135  0.5026 -0.1233
 3161TIP3    H1 9489   2.301   1.298   2.603  0.7387 -0.0525 -1.4748
 3161TIP3    H2 9490   2.333   1.446   2.613 -0.8182  0.2383 -0.3843
 3162TIP3   OH2 9491   0.671   5.195   5.048  0.6245  0.1226 -0.1454
 3162TIP3    H1 9492   0.683   5.137   5.123  0.0737  0.8710  0.5336
 3162TIP3    H2 9493   0.602   5.255   5.075  0.1620  0.1782 -1.3930
 3163TIP3   OH2 9494   1.705   4.714   4.436 -0.2717 -0.3056 -0.5262
 3163TIP3    H1 9495   1.680   4.628   4.470 -0.9473 -0.6960 -1.9462
 3163TIP3    H2 9496   1.774   4.744   4.496  1.1422 -2.5497 -0.8961
 3164TIP3   OH2 9497   3.715   5.386   4.194 -0.2306  0.1651 -0.0734
 3164TIP3    H1 9498   3.702   5.432   4.277 -2.6997  0.2808 -0.4555
 3164TIP3    H2 9499   3.775   5.442   4.145  0.3681  0.6658  1.1836
 3165TIP3   OH2 9500   0.258   1.631   5.185 -0.5674  0.0940  0.2793
 3165TIP3    H1 9501   0.178   1.579   5.182 -0.4690 -0.0237 -0.8748
 3165TIP3    H2 9502   0.328   1.569   5.167 -0.5360  0.7295 -2.2043
 3166TIP3   OH2 9503   4.392   2.758   3.247 -0.1289 -0.5744  0.0081
 3166TIP3    H1 9504   4.399   2.812   3.168  0.9213 -0.7254 -0.0164
 3166TIP3    H2 9505   4.314   2.705   3.232 -0.4433  0.0244 -0.5360
 3167TIP3   OH2 9506   2.082   3.165   2.490  0.6618 -0.1146 -0.1357
 3167TIP3    H1 9507   2.102   3.196   2.401  0.7024 -1.5312 -0.6441
 3167TIP3    H2 9508   2.129   3.082   2.498 -1.2339 -1.2025  0.3295
 3168TIP3   OH2 9509   2.169   5.338   4.198  0.3846  0.0557 -0.0040
 3168TIP3    H1 9510   2.238   5.399   4.171 -0.0151  1.5799  2.1028
 3168TIP3    H2 9511   2.091   5.392   4.204  0.0094 -0.6300  1.9406
 3169TIP3   OH2 9512   6.147   0.320   3.656  0.0917 -0.0705  0.0069
 3169TIP3    H1 9513   6.093   0.282   3.726  1.1333  1.3170  1.6356
 3169TIP3    H2 9514   6.226   0.267   3.655  0.0243 -0.1689 -0.2216
 3170TIP3   OH2 9515   4.909   5.124   1.645  0.2001  0.6054  0.4371
 3170TIP3    H1 9516   4.943   5.152   1.560 -1.9854  0.4533 -0.5687
 3170TIP3    H2 9517   4.879   5.205   1.686 -0.6989  0.4529  0.1061
 3171TIP3   OH2 9518   5.259   3.339   1.352  0.0909  0.6727 -0.3254
 3171TIP3    H1 9519   5.219   3.283   1.286 -0.1419  1.6964 -1.0740
 3171TIP3    H2 9520   5.196   3.340   1.424 -0.0037  0.1624 -0.3996
 3172TIP3   OH2 9521   1.351   0.992   0.215  0.7885  0.0033  0.1101
 3172TIP3    H1 9522   1.419   0.926   0.229  0.7059 -0.0267  0.3839
 3172TIP3    H2 9523   1.275   0.957   0.261  0.7951  0.3730  0.4044
 3173TIP3   OH2 9524   4.483   1.080   0.637 -0.2850 -0.0532  0.0361
 3173TIP3    H1 9525   4.497   1.064   0.544  0.7635  1.3401 -0.0835
 3173TIP3    H2 9526   4.546   1.148   0.660  1.1560 -1.9874  2.3443
 3174TIP3   OH2 9527   2.731   5.900   3.656 -0.0197  0.3327 -0.2541
 3174TIP3    H1 9528   2.660   5.956   3.687  0.5033  1.1168 -0.4358
 3174TIP3    H2 9529   2.800   5.910   3.721  0.0779 -0.0977 -0.2914
 3175TIP3   OH2 9530   0.181   2.873   2.888  0.2364 -1.0284  0.1660
 3175TIP3    H1 9531   0.103   2.925   2.908  1.6722  0.5579  2.0153
 3175TIP3    H2 9532   0.187   2.811   2.960  2.3545  0.9922  1.8804
 3176TIP3   OH2 9533   5.119   3.852   3.882  0.1798  0.6161 -0.0902
 3176TIP3    H1 9534   5.084   3.934   3.846  0.8520  1.2725  0.6909
 3176TIP3    H2 9535   5.113   3.790   3.809 -0.5877  1.2836 -0.6214
 3177TIP3   OH2 9536   5.781   3.355   1.963  0.0287 -0.1205 -0.1327
 3177TIP3    H1 9537   5.716   3.293   1.995  1.0536 -0.5681  1.2032
 3177TIP3    H2 9538   5.739   3.441   1.968 -0.7507 -0.4999 -0.1634
 3178TIP3   OH2 9539   3.302   1.454   0.631 -1.0699 -0.6271 -0.6417
 3178TIP3    H1 9540   3.391   1.419   0.623 -0.8622 -0.4314  0.5011
 3178TIP3    H2 9541   3.293   1.514   0.557  1.2563  2.4213  1.2842
 3179TIP3   OH2 9542   1.340   0.063   1.141  0.0906  0.0776 -0.2045
 3179TIP3    H1 9543   1.351   0.118   1.063  1.8162 -0.9768 -0.7661
 3179TIP3    H2 9544   1.422   0.014   1.147 -0.5428 -0.8489  1.5232
 3180TIP3   OH2 9545   0.064   3.556   4.808  0.0816 -0.3852 -0.4680
 3180TIP3    H1 9546   0.052   3.647   4.783 -1.4242 -0.5184 -0.3266
 3180TIP3    H2 9547   0.141   3.527   4.759 -0.4642  0.4690 -1.8984
 3181TIP3   OH2 9548   6.278   5.070   4.652  0.3692 -0.0751  0.3975
 3181TIP3    H1 9549   6.328   5.134   4.602  0.5798  1.3258  2.2687
 3181TIP3    H2 9550   6.319   4.986   4.632  0.7531  0.4792 -1.3219
 3182TIP3   OH2 9551   2.231   5.246   3.930  0.1698 -0.0812  0.2596
 3182TIP3    H1 9552   2.219   5.305   3.856 -0.9264  0.8336  1.1369
 3182TIP3    H2 9553   2.201   5.296   4.006  1.5190 -0.8948  1.3792
 3183TIP3   OH2 9554   3.004   2.169   1.059 -0.3059  0.1348 -0.5188
 3183TIP3    H1 9555   2.910   2.189   1.053 -0.1576  1.2075  0.3784
 3183TIP3    H2 9556   3.033   2.214   1.138  1.1365  0.4904 -1.2061
 3184TIP3   OH2 9557   3.728   5.397   1.197 -0.3730 -0.4672  0.1993
 3184TIP3    H1 9558   3.654   5.456   1.187 -0.2372 -0.0049  1.6014
 3184TIP3    H2 9559   3.704   5.319   1.149 -0.7520  0.5499 -1.3235
 3185TIP3   OH2 9560   2.645   0.442   2.730 -0.3574  0.6113  0.1175
 3185TIP3    H1 9561   2.595   0.486   2.799 -0.5187 -0.7030  0.8689
 3185TIP3    H2 9562   2.645   0.504   2.657 -2.7049  0.8535  0.2466
 3186TIP3   OH2 9563   6.217   3.866   1.528  0.1755  0.4476 -0.7121
 3186TIP3    H1 9564   6.299   3.830   1.561  0.0851  1.1790  0.3622
 3186TIP3    H2 9565   6.158   3.791   1.525  0.0550  0.4044  1.3044
 3187TIP3   OH2 9566   5.188   5.650   4.469 -0.4958 -0.2737  0.1823
 3187TIP3    H1 9567   5.147   5.723   4.423  0.8477  0.3705 -0.0430
 3187TIP3    H2 9568   5.239   5.605   4.401 -0.3466 -0.6932  0.5694
 3188TIP3   OH2 9569   1.816   2.085   3.193  0.0544 -0.2063 -0.2214
 3188TIP3    H1 9570   1.842   1.995   3.215 -1.9265 -1.0608 -1.0772
 3188TIP3    H2 9571   1.720   2.083   3.195 -0.0399  2.0651  0.2872
 3189TIP3   OH2 9572   4.649   4.375   0.406 -0.0942  0.1449  0.0796
 3189TIP3    H1 9573   4.591   4.443   0.369 -0.7398 -0.8577 -0.8089
 3189TIP3    H2 9574   4.608   4.353   0.490 -0.6530 -0.0987 -0.2491
 3190TIP3   OH2 9575   2.265   1.293   3.017 -0.1833 -0.6139 -0.2682
 3190TIP3    H1 9576   2.172   1.296   2.993 -0.4116 -0.4517  0.5820
 3190TIP3    H2 9577   2.278   1.203   3.048 -0.2593 -0.4143  0.3553
 3191TIP3   OH2 9578   6.122   2.469   3.711  0.0431  0.4957 -0.1376
 3191TIP3    H1 9579   6.089   2.417   3.784  1.5285 -0.2173  0.0726
 3191TIP3    H2 9580   6.100   2.416   3.633  0.6169  0.0523 -0.0055
 3192TIP3   OH2 9581   2.070   0.527   0.243  0.2100  0.2766  0.4141
 3192TIP3    H1 9582   2.146   0.489   0.286 -0.3777 -0.5468  0.7662
 3192TIP3    H2 9583   1.996   0.500   0.298 -0.1325  3.3223  1.6596
 3193TIP3   OH2 9584   0.640   3.016   3.715 -0.2115 -0.3215 -0.0541
 3193TIP3    H1 9585   0.581   2.991   3.644  1.2067 -0.8559 -1.0950
 3193TIP3    H2 9586   0.720   3.044   3.671  0.3403  0.3305  1.3137
 3194TIP3   OH2 9587   4.449   1.528   1.155  0.1644  0.6581  0.0129
 3194TIP3    H1 9588   4.544   1.529   1.164  0.1207  0.4843  0.5229
 3194TIP3    H2 9589   4.418   1.592   1.220 -0.1672 -0.7344  1.2751
 3195TIP3   OH2 9590   1.214   0.215   4.774  0.4883  0.5346 -0.0021
 3195TIP3    H1 9591   1.134   0.238   4.727 -0.2595 -0.9791  0.4752
 3195TIP3    H2 9592   1.186   0.201   4.865  1.3117  0.1407  0.2044
 3196TIP3   OH2 9593   0.248   0.858   4.815 -0.0521  0.0930  0.0923
 3196TIP3    H1 9594   0.188   0.784   4.818  0.5823 -0.4150  2.2007
 3196TIP3    H2 9595   0.197   0.930   4.778 -1.3968 -0.7867  0.1882
 3197TIP3   OH2 9596   3.721   4.678   1.269  0.3302 -0.0696 -0.0317
 3197TIP3    H1 9597   3.701   4.687   1.176 -0.3927  0.3127  0.1498
 3197TIP3    H2 9598   3.816   4.666   1.273  0.8105  2.7265 -0.6625
 3198TIP3   OH2 9599   4.616   0.931   4.242 -0.0553 -0.3800  0.2929
 3198TIP3    H1 9600   4.520   0.930   4.248 -0.1597  1.8609 -0.0843
 3198TIP3    H2 9601   4.636   1.006   4.185  1.8840 -2.0686 -1.3988
 3199TIP3   OH2 9602   1.279   0.378   0.608  0.2464 -0.7403  0.0649
 3199TIP3    H1 9603   1.303   0.363   0.699  0.7516  1.2629  0.3078
 3199TIP3    H2 9604   1.277   0.473   0.599  2.0445 -0.8341 -2.4900
 3200TIP3   OH2 9605   3.956   1.000   2.334 -0.2649  0.3006 -0.2958
 3200TIP3    H1 9606   4.000   0.982   2.251 -1.0410  1.0016 -0.8875
 3200TIP3    H2 9607   4.025   0.994   2.400  0.7886  1.6373 -1.2159
 3201TIP3   OH2 9608   5.490   0.975   4.518  0.3453 -0.1503  0.3921
 3201TIP3    H1 9609   5.548   1.045   4.549  1.9086 -0.8973 -0.7286
 3201TIP3    H2 9610   5.432   0.958   4.593 -1.3017  3.4543  0.1794
 3202TIP3   OH2 9611   3.054   1.852   0.751 -0.1094 -0.3970 -0.8280
 3202TIP3    H1 9612   3.096   1.905   0.820  1.2624 -0.9115 -1.2259
 3202TIP3    H2 9613   2.961   1.852   0.774  0.2782 -0.3453  0.8995
 3203TIP3   OH2 9614   4.034   0.212   3.541 -0.1461  0.1048  0.6439
 3203TIP3    H1 9615   4.114   0.251   3.576  0.7499 -0.1600 -0.9941
 3203TIP3    H2 9616   3.968   0.279   3.553  0.2522  0.2387  2.2475
 3204TIP3   OH2 9617   0.709   4.804   3.447 -0.0303  0.8814 -0.3023
 3204TIP3    H1 9618   0.631   4.765   3.409 -0.2358  1.6595 -0.7027
 3204TIP3    H2 9619   0.780   4.779   3.389  0.0905 -0.1551  0.2768
 3205TIP3   OH2 9620   0.047   1.601   4.300 -0.3227  0.5522 -0.4571
 3205TIP3    H1 9621   0.089   1.520   4.329 -2.4039 -0.0925  0.9248
 3205TIP3    H2 9622   0.077   1.667   4.361 -1.0766  0.1437  0.3765
 3206TIP3   OH2 9623   6.110   5.586   4.249  0.7148  0.7721  0.7240
 3206TIP3    H1 9624   6.131   5.666   4.297  0.1453  1.1366  0.3703
 3206TIP3    H2 9625   6.106   5.613   4.157  0.8314  0.2767  0.5709
 3207TIP3   OH2 9626   4.029   5.186   1.658  0.2259  0.1488 -0.3858
 3207TIP3    H1 9627   3.983   5.196   1.575  0.8753 -1.5689 -0.9822
 3207TIP3    H2 9628   4.121   5.194   1.636  0.3808  0.3293  0.2888
 3208TIP3   OH2 9629   5.347   2.964   1.593 -0.6670  0.1231 -0.1990
 3208TIP3    H1 9630   5.373   2.951   1.684  0.5581  0.7333 -0.4501
 3208TIP3    H2 9631   5.288   3.040   1.596  0.8399  1.3336 -0.1242
 3209TIP3   OH2 9632   2.179   1.588   3.839 -0.2240 -0.2612  0.2389
 3209TIP3    H1 9633   2.128   1.510   3.857  2.1025 -1.7776  0.7302
 3209TIP3    H2 9634   2.170   1.643   3.917 -1.3860 -0.3073  0.1418
 3210TIP3   OH2 9635   5.568   3.807   3.857  0.4207 -0.1488  0.4178
 3210TIP3    H1 9636   5.634   3.863   3.816 -0.0030 -0.6296 -0.9976
 3210TIP3    H2 9637   5.484   3.848   3.836  0.1123 -1.2302 -0.5711
 3211TIP3   OH2 9638   1.722   2.467   3.322  0.1894 -0.4255  0.0801
 3211TIP3    H1 9639   1.755   2.450   3.234  3.0627 -0.4503  1.0587
 3211TIP3    H2 9640   1.697   2.381   3.355  0.8827 -0.7002 -0.0821
 3212TIP3   OH2 9641   5.333   2.875   1.841 -0.2634 -0.2136 -1.1556
 3212TIP3    H1 9642   5.273   2.892   1.914 -0.8594 -0.1887 -1.6488
 3212TIP3    H2 9643   5.420   2.882   1.880 -0.5822 -0.8782 -0.2919
 3213TIP3   OH2 9644   2.841   0.295   2.521 -0.1414  0.3755 -0.3025
 3213TIP3    H1 9645   2.882   0.212   2.496 -0.7092  0.1673 -0.5440
 3213TIP3    H2 9646   2.913   0.346   2.559  0.0193 -0.5835  0.7360
 3214TIP3   OH2 9647   5.908   0.565   0.588 -0.3083  0.4147 -0.0243
 3214TIP3    H1 9648   5.825   0.581   0.544  0.3699  0.2704 -1.3976
 3214TIP3    H2 9649   5.928   0.472   0.571  1.1532  0.9635 -1.5552
 3215TIP3   OH2 9650   3.768   4.105   1.385 -0.3023  0.3441  0.3074
 3215TIP3    H1 9651   3.839   4.167   1.368  0.2722 -0.6262 -1.0747
 3215TIP3    H2 9652   3.707   4.117   1.312  0.4738 -1.5322 -0.7539
 3216TIP3   OH2 9653   0.211   0.282   4.325 -0.6110 -0.2630  0.1737
 3216TIP3    H1 9654   0.245   0.358   4.371  0.4762  1.4528 -3.1101
 3216TIP3    H2 9655   0.285   0.222   4.318  0.5374  1.2736 -2.6084
 3217TIP3   OH2 9656   0.141   2.062   1.480  0.3561 -0.0861  0.1297
 3217TIP3    H1 9657   0.076   2.132   1.467  0.1057 -0.5173 -1.0430
 3217TIP3    H2 9658   0.093   1.993   1.526  0.3392  0.1213  0.4254
 3218TIP3   OH2 9659   4.192   4.617   4.570 -0.1802  0.5086 -0.6951
 3218TIP3    H1 9660   4.275   4.659   4.546 -1.0258  2.0463 -1.0688
 3218TIP3    H2 9661   4.140   4.688   4.608 -1.8866 -0.0393 -1.8749
 3219TIP3   OH2 9662   3.562   1.532   4.215 -0.2231  0.0143 -0.2056
 3219TIP3    H1 9663   3.630   1.531   4.147  0.7540 -0.9126  0.7532
 3219TIP3    H2 9664   3.553   1.441   4.242 -3.2084 -0.2281 -1.5638
 3220TIP3   OH2 9665   1.021   3.484   1.164  0.0735 -0.0131  0.0426
 3220TIP3    H1 9666   1.082   3.519   1.099 -2.8541  1.8312 -1.9751
 3220TIP3    H2 9667   0.971   3.418   1.117 -0.8328 -0.0132  0.9732
 3221TIP3   OH2 9668   2.285   5.468   2.619 -0.2721  0.1710 -0.1785
 3221TIP3    H1 9669   2.357   5.511   2.665 -0.0201 -0.6226  0.1943
 3221TIP3    H2 9670   2.281   5.381   2.658 -0.2552 -0.4178 -1.4369
 3222TIP3   OH2 9671   0.725   3.246   3.499  0.3718 -0.2188 -0.2101
 3222TIP3    H1 9672   0.736   3.341   3.499  0.8314 -0.1598  2.5886
 3222TIP3    H2 9673   0.649   3.230   3.444 -0.8936  1.9873  0.7816
 3223TIP3   OH2 9674   4.403   1.184   0.148 -0.2589  0.4903  0.2450
 3223TIP3    H1 9675   4.460   1.121   0.104 -0.3681  1.2628 -1.0540
 3223TIP3    H2 9676   4.328   1.132   0.177 -0.1194 -0.0722 -0.3757
 3224TIP3   OH2 9677   4.160   4.943   4.491  0.1833 -0.2516  0.1977
 3224TIP3    H1 9678   4.236   4.991   4.524 -0.5689  2.1381 -1.2324
 3224TIP3    H2 9679   4.089   5.007   4.494 -1.5534 -2.1020  0.5177
 3225TIP3   OH2 9680   2.828   3.328   4.767  0.0556  0.2728  0.2617
 3225TIP3    H1 9681   2.789   3.270   4.832  0.5595 -0.7766 -0.3446
 3225TIP3    H2 9682   2.909   3.359   4.808  1.3371 -1.8523 -0.5137
 3226TIP3   OH2 9683   0.794   3.543   5.127  0.0159  0.7868 -0.7100
 3226TIP3    H1 9684   0.712   3.521   5.082  0.2757 -0.8987 -0.4262
 3226TIP3    H2 9685   0.853   3.572   5.058  0.2266 -1.2192 -1.4396
 3227TIP3   OH2 9686   3.973   4.789   4.633 -0.5363  0.5767 -0.6728
 3227TIP3    H1 9687   3.983   4.849   4.559 -0.1440 -0.6132 -1.6218
 3227TIP3    H2 9688   3.904   4.728   4.606  0.0216 -0.2339 -0.3339
 3228TIP3   OH2 9689   5.316   0.309   2.558 -0.4299 -0.1569  0.2832
 3228TIP3    H1 9690   5.299   0.312   2.652  1.2647  0.3894  0.6010
 3228TIP3    H2 9691   5.232   0.331   2.518 -0.2453  4.1225  1.7670
 3229TIP3   OH2 9692   2.449   5.436   4.553  0.6049  0.0247 -0.0125
 3229TIP3    H1 9693   2.440   5.525   4.586  1.7870 -0.1575  0.8643
 3229TIP3    H2 9694   2.362   5.398   4.564  0.2155  0.9186  0.0727
 3230TIP3   OH2 9695   2.682   5.801   4.607  0.2576  0.0747  0.4610
 3230TIP3    H1 9696   2.610   5.837   4.659 -1.3159 -0.4007 -1.2744
 3230TIP3    H2 9697   2.699   5.716   4.646 -0.5047 -0.0367  0.5665
 3231TIP3   OH2 9698   1.381   3.926   3.315  0.4548 -0.3846 -0.2029
 3231TIP3    H1 9699   1.335   3.983   3.377  1.1499 -1.3289  1.2529
 3231TIP3    H2 9700   1.455   3.980   3.284  1.1352 -0.4630  1.1970
 3232TIP3   OH2 9701   6.362   1.299   2.907  0.1460  0.0137  0.1447
 3232TIP3    H1 9702   6.270   1.317   2.922  0.0187  0.0502 -0.6367
 3232TIP3    H2 9703   6.405   1.322   2.990 -0.5570 -0.1544  0.5676
 3233TIP3   OH2 9704   6.048   0.957   5.161  0.0222  0.3189  0.3215
 3233TIP3    H1 9705   6.028   0.924   5.073  0.2618 -0.8996  0.7057
 3233TIP3    H2 9706   6.126   1.011   5.148  1.6723 -1.9928  0.1566
 3234TIP3   OH2 9707   6.358   5.562   2.046 -0.2247 -0.0077  0.1760
 3234TIP3    H1 9708   6.341   5.646   2.090 -0.3287 -0.8205  1.7422
 3234TIP3    H2 9709   6.342   5.581   1.954 -1.2905  1.4373  0.6079
 3235TIP3   OH2 9710   3.468   5.068   3.379 -0.2298  0.6761 -0.5549
 3235TIP3    H1 9711   3.428   5.136   3.325  0.9723 -0.3031 -2.8206
 3235TIP3    H2 9712   3.505   5.006   3.316 -0.3680 -1.5389  1.4189
 3236TIP3   OH2 9713   1.282   4.507   1.674 -0.0455 -0.5435 -0.1163
 3236TIP3    H1 9714   1.267   4.457   1.754 -0.9434  0.0425  0.0967
 3236TIP3    H2 9715   1.194   4.524   1.639  0.2662  0.3864 -0.4914
 3237TIP3   OH2 9716   5.743   1.607   2.308 -0.7726  0.6651 -0.2682
 3237TIP3    H1 9717   5.724   1.528   2.257  2.1327 -2.1070  2.4646
 3237TIP3    H2 9718   5.710   1.586   2.396  0.0539  2.5352  0.5302
 3238TIP3   OH2 9719   0.501   4.861   2.292  0.1820 -0.1009  0.3990
 3238TIP3    H1 9720   0.446   4.783   2.279  0.8684 -0.8156  1.5351
 3238TIP3    H2 9721   0.447   4.934   2.263 -0.7376 -0.9424 -0.0719
 3239TIP3   OH2 9722   4.050   0.456   2.493 -0.5087 -0.1980 -0.7687
 3239TIP3    H1 9723   4.056   0.448   2.588 -0.1206 -0.4066 -0.8091
 3239TIP3    H2 9724   3.956   0.455   2.475 -0.6417  1.0928 -0.2847
 3240TIP3   OH2 9725   4.020   4.909   1.682  0.0479  0.2010  0.5052
 3240TIP3    H1 9726   3.949   4.850   1.708 -0.8893  1.1067  0.0601
 3240TIP3    H2 9727   3.999   4.992   1.725  1.6775  0.0883  1.6314
 3241TIP3   OH2 9728   5.288   5.049   3.485 -0.3508  0.0066 -0.0399
 3241TIP3    H1 9729   5.296   4.996   3.405  0.4042  0.5059 -0.3036
 3241TIP3    H2 9730   5.261   4.987   3.552  0.5987 -0.7375 -0.3197
 3242TIP3   OH2 9731   2.612   5.583   1.601 -0.3412  0.1461  0.3418
 3242TIP3    H1 9732   2.672   5.628   1.660  3.3657 -0.1537 -2.8619
 3242TIP3    H2 9733   2.624   5.490   1.621 -0.6192  0.1226  0.4127
 3243TIP3   OH2 9734   5.117   2.129   1.971  0.2205  0.1470 -0.0163
 3243TIP3    H1 9735   5.170   2.126   2.051  0.9247 -2.0253 -0.5026
 3243TIP3    H2 9736   5.163   2.072   1.909 -3.2193 -2.9436 -0.0656
 3244TIP3   OH2 9737   3.400   3.988   3.802  0.3295 -0.3912 -0.3456
 3244TIP3    H1 9738   3.402   3.892   3.802  0.6525 -0.3893  0.1152
 3244TIP3    H2 9739   3.433   4.012   3.888  0.4715  0.1418 -0.5460
 3245TIP3   OH2 9740   5.393   0.491   2.374  0.5883 -0.3093  0.7380
 3245TIP3    H1 9741   5.438   0.557   2.426 -1.3996  0.2395  1.8859
 3245TIP3    H2 9742   5.365   0.425   2.437  0.8410 -1.2584 -0.1130
 3246TIP3   OH2 9743   4.979   2.956   1.770 -0.0946  0.3464  0.2238
 3246TIP3    H1 9744   4.967   2.875   1.819  0.8440  0.3196  0.4337
 3246TIP3    H2 9745   4.923   3.019   1.814 -0.0936  0.0484  0.6566
 3247TIP3   OH2 9746   2.728   2.233   0.732  0.6131  0.4395 -0.2819
 3247TIP3    H1 9747   2.748   2.147   0.769 -0.6047 -0.1432 -0.8973
 3247TIP3    H2 9748   2.787   2.293   0.777 -0.2585 -0.3243  2.0264
 3248TIP3   OH2 9749   0.275   2.585   0.319 -0.2855 -0.0745 -0.2971
 3248TIP3    H1 9750   0.214   2.512   0.332  0.2407 -0.6267 -0.8117
 3248TIP3    H2 9751   0.230   2.661   0.355 -0.9881 -0.5937 -0.0466
 3249TIP3   OH2 9752   0.057   3.893   2.973 -0.2798 -0.4299 -0.0962
 3249TIP3    H1 9753   0.117   3.893   2.899 -0.3896 -0.6553 -0.1848
 3249TIP3    H2 9754   0.094   3.830   3.035 -0.5219 -0.7053 -0.2303
 3250TIP3   OH2 9755   0.440   1.118   5.027 -0.0142 -0.5093 -0.3883
 3250TIP3    H1 9756   0.348   1.143   5.033 -0.1465 -1.3144  2.0426
 3250TIP3    H2 9757   0.443   1.030   5.064  1.7904 -0.3475 -0.0562
 3251TIP3   OH2 9758   2.672   5.505   0.444  0.1255 -0.9418  0.0540
 3251TIP3    H1 9759   2.632   5.419   0.430  1.0113 -1.2016 -0.9971
 3251TIP3    H2 9760   2.707   5.529   0.358  1.7051 -0.4652  0.8059
 3252TIP3   OH2 9761   3.619   1.307   1.857  0.0243 -0.2122 -0.7552
 3252TIP3    H1 9762   3.657   1.219   1.849 -0.5130 -0.6368  1.1139
 3252TIP3    H2 9763   3.644   1.336   1.944  0.6160  1.7346 -1.5173
 3253TIP3   OH2 9764   1.145   0.034   3.134 -0.2447 -0.1496 -0.3243
 3253TIP3    H1 9765   1.064   0.072   3.168 -0.3914  0.1244 -0.9717
 3253TIP3    H2 9766   1.164  -0.038   3.194  0.7131  1.6773  1.6959
 3254TIP3   OH2 9767   0.508   5.761   4.361  0.1144  0.2916  0.3174
 3254TIP3    H1 9768   0.460   5.763   4.279  0.1492 -1.4646  0.2070
 3254TIP3    H2 9769   0.591   5.719   4.340  0.1752 -0.0781  1.2138
 3255TIP3   OH2 9770   6.223   2.274   0.518  1.0050  0.3466 -0.0945
 3255TIP3    H1 9771   6.242   2.184   0.543 -1.2602 -0.0976  0.1717
 3255TIP3    H2 9772   6.189   2.315   0.598  1.5187  1.3014 -0.3457
 3256TIP3   OH2 9773   3.794   3.748   1.251 -0.4820 -0.4235  0.5031
 3256TIP3    H1 9774   3.870   3.803   1.236 -1.0552  0.1636 -0.3095
 3256TIP3    H2 9775   3.728   3.808   1.288 -0.9089 -0.6904  0.1806
 3257TIP3   OH2 9776   0.398   3.018   2.787  0.2228 -0.1544 -0.0629
 3257TIP3    H1 9777   0.334   2.951   2.813  1.6663 -0.8130  1.9962
 3257TIP3    H2 9778   0.344   3.094   2.765 -1.3413 -1.1824  0.0418
 3258TIP3   OH2 9779   3.812   3.487   2.606 -0.4129  0.2163  0.0463
 3258TIP3    H1 9780   3.875   3.433   2.559 -0.0128 -0.4986  1.3887
 3258TIP3    H2 9781   3.864   3.557   2.645 -0.3825 -0.5598  1.4288
 3259TIP3   OH2 9782   1.643   3.989   0.854  0.3861  0.0237  0.0389
 3259TIP3    H1 9783   1.558   3.981   0.898 -0.3125  2.1953 -0.7892
 3259TIP3    H2 9784   1.695   4.044   0.913 -0.0728  1.7601 -1.1018
 3260TIP3   OH2 9785   5.027   4.905   3.982  0.0665 -0.0917  0.5394
 3260TIP3    H1 9786   5.047   4.816   3.953 -0.2347  0.3729 -1.2578
 3260TIP3    H2 9787   4.945   4.898   4.030 -0.4751 -0.6630 -0.4488
 3261TIP3   OH2 9788   3.623   4.454   0.095 -0.2790  0.1793 -0.3856
 3261TIP3    H1 9789   3.603   4.403   0.016 -0.3330 -0.4124 -0.0019
 3261TIP3    H2 9790   3.561   4.526   0.094  0.1524  0.5455 -1.2244
 3262TIP3   OH2 9791   6.163   1.403   4.703  0.0715 -0.5287  0.2289
 3262TIP3    H1 9792   6.119   1.486   4.683 -1.0839 -0.9243  1.0406
 3262TIP3    H2 9793   6.095   1.337   4.695  1.5686 -1.9075 -3.4112
 3263TIP3   OH2 9794   3.534   2.536   4.570  0.2038 -0.5882 -0.8928
 3263TIP3    H1 9795   3.630   2.536   4.566  0.2419 -1.5711 -0.2783
 3263TIP3    H2 9796   3.510   2.444   4.581 -0.6319 -0.1189  2.0583
 3264TIP3   OH2 9797   5.153   2.940   0.896 -0.6126  0.9473  0.1316
 3264TIP3    H1 9798   5.225   3.001   0.912  0.2436  0.5986 -2.0377
 3264TIP3    H2 9799   5.193   2.854   0.908 -0.8866  0.7626 -0.2949
 3265TIP3   OH2 9800   2.961   0.735   2.620 -0.2622 -0.8936 -0.0071
 3265TIP3    H1 9801   3.044   0.688   2.632  0.2211 -0.4570 -1.5044
 3265TIP3    H2 9802   2.957   0.794   2.695  0.2369 -1.6882  0.6682
 3266TIP3   OH2 9803   3.408   4.282   3.960 -0.7383 -0.4664  0.1623
 3266TIP3    H1 9804   3.395   4.366   3.916 -1.7074  0.6017  2.3797
 3266TIP3    H2 9805   3.501   4.280   3.981 -0.8950  0.5562  1.0236
 3267TIP3   OH2 9806   1.020   1.944   1.238 -0.1621  0.0527 -0.8134
 3267TIP3    H1 9807   1.038   1.926   1.330  0.7134  0.8823 -0.8096
 3267TIP3    H2 9808   1.094   1.997   1.209 -1.3212  1.3674 -1.4964
 3268TIP3   OH2 9809   3.799   2.662   4.595 -0.5702 -0.1566  0.1974
 3268TIP3    H1 9810   3.883   2.616   4.606  0.1167  0.6189 -1.4807
 3268TIP3    H2 9811   3.814   2.747   4.636 -0.5586 -0.0595 -0.0054
 3269TIP3   OH2 9812   5.019   2.264   2.587 -0.4776  0.0408  0.5075
 3269TIP3    H1 9813   5.055   2.175   2.583  1.6398  0.8888 -2.1570
 3269TIP3    H2 9814   5.078   2.311   2.646 -0.5988  0.0842  0.5946
 3270TIP3   OH2 9815   1.647   2.491   4.909  0.3642 -0.0293 -0.8725
 3270TIP3    H1 9816   1.722   2.522   4.858 -0.7595  1.4943 -1.6484
 3270TIP3    H2 9817   1.679   2.411   4.950  3.0301  1.4902  0.2809
 3271TIP3   OH2 9818   1.343   3.087   3.284  0.1241 -0.1462 -0.3176
 3271TIP3    H1 9819   1.380   3.137   3.211  2.5001 -0.5059  0.5554
 3271TIP3    H2 9820   1.324   3.001   3.246  0.5684 -0.0809 -0.6954
 3272TIP3   OH2 9821   4.961   4.063   1.014 -0.4303  0.2205 -0.6015
 3272TIP3    H1 9822   4.894   4.058   1.082  1.0517  1.4831  1.0280
 3272TIP3    H2 9823   4.977   3.973   0.988 -0.5318 -0.3462  1.2284
 3273TIP3   OH2 9824   4.009   1.388   1.754 -0.4717 -0.0489  0.2235
 3273TIP3    H1 9825   4.023   1.325   1.683  0.2958 -0.1532  0.4562
 3273TIP3    H2 9826   4.065   1.462   1.731 -0.9104  0.2927  0.2611
 3274TIP3   OH2 9827   0.888   2.482   3.588 -0.3343 -1.1126  0.1889
 3274TIP3    H1 9828   0.977   2.448   3.582 -0.6289 -2.1682  1.4177
 3274TIP3    H2 9829   0.832   2.407   3.570 -0.9859 -0.7096  0.4985
 3275TIP3   OH2 9830   1.615   2.951   4.978 -0.0247 -0.1204 -0.3189
 3275TIP3    H1 9831   1.569   2.938   4.895 -0.3798  0.1478 -0.1691
 3275TIP3    H2 9832   1.644   3.042   4.974 -1.9792  0.6186  0.7798
 3276TIP3   OH2 9833   3.227   1.742   3.090  0.3912  0.4586  0.1216
 3276TIP3    H1 9834   3.194   1.700   3.170  1.0658 -0.9118 -0.2923
 3276TIP3    H2 9835   3.219   1.675   3.023  1.3674  1.0417 -0.6006
 3277TIP3   OH2 9836   2.234   4.592   1.137  0.1948  0.0494 -0.7973
 3277TIP3    H1 9837   2.329   4.608   1.132  0.3685 -0.6008  0.0760
 3277TIP3    H2 9838   2.227   4.504   1.174 -0.7603  0.3407 -0.2519
 3278TIP3   OH2 9839   0.816   2.505   1.311  0.0487  1.0727  0.5138
 3278TIP3    H1 9840   0.877   2.502   1.237 -0.1585  0.4000  0.3654
 3278TIP3    H2 9841   0.845   2.580   1.362  0.7458  1.0116  0.2221
 3279TIP3   OH2 9842   4.231   2.307   2.999 -0.0078 -0.6912 -0.1295
 3279TIP3    H1 9843   4.146   2.266   2.981 -0.5483  0.4506 -0.2324
 3279TIP3    H2 9844   4.214   2.366   3.072  0.2434  0.9284 -1.3435
 3280TIP3   OH2 9845   1.056   0.312   1.608  0.2827 -0.4169  0.1086
 3280TIP3    H1 9846   1.004   0.392   1.599 -0.4449 -0.8469  0.3335
 3280TIP3    H2 9847   1.116   0.314   1.534 -1.9767 -1.2621 -1.8810
 3281TIP3   OH2 9848   4.940   1.904   4.316  0.0087  0.0097 -0.3137
 3281TIP3    H1 9849   4.884   1.927   4.391  0.7503  0.0367  0.2428
 3281TIP3    H2 9850   5.015   1.963   4.323  0.6937 -0.8365 -0.3493
 3282TIP3   OH2 9851   5.741   3.222   1.000  0.1641 -0.3736  0.3807
 3282TIP3    H1 9852   5.714   3.280   0.929  2.7518 -0.9137 -1.1779
 3282TIP3    H2 9853   5.689   3.142   0.987 -0.2034 -0.0440 -0.1955
 3283TIP3   OH2 9854   0.651   4.002   4.218 -0.2989 -0.4084 -1.0333
 3283TIP3    H1 9855   0.730   3.989   4.165  0.5574  0.2526  0.0211
 3283TIP3    H2 9856   0.660   4.091   4.253 -1.0447 -0.6665 -0.1388
 3284TIP3   OH2 9857   1.010   0.244   1.000  0.0272 -0.0363 -0.3383
 3284TIP3    H1 9858   0.972   0.264   0.915  0.8871 -0.4200 -0.8207
 3284TIP3    H2 9859   1.077   0.311   1.014  0.2986 -0.3268 -0.2366
 3285TIP3   OH2 9860   1.555   4.858   2.223  0.6955  0.4087  0.5159
 3285TIP3    H1 9861   1.535   4.899   2.139  0.4872 -0.3942  0.1613
 3285TIP3    H2 9862   1.645   4.825   2.212  0.5865  0.1047  0.5202
 3286TIP3   OH2 9863   1.634   5.310   1.967 -0.1244 -0.2780 -0.1300
 3286TIP3    H1 9864   1.712   5.272   2.007 -0.0495 -0.3348 -0.3302
 3286TIP3    H2 9865   1.633   5.276   1.878 -0.0264  0.2421 -0.3313
 3287TIP3   OH2 9866   5.571   0.691   4.496  0.2399 -0.2237  0.4183
 3287TIP3    H1 9867   5.503   0.657   4.437  1.0499 -0.8392 -0.1744
 3287TIP3    H2 9868   5.566   0.786   4.485  1.6330 -0.3657 -2.1416
 3288TIP3   OH2 9869   2.460   4.168   0.378 -0.0662  0.3841 -0.3529
 3288TIP3    H1 9870   2.416   4.096   0.332  1.9624  0.4964 -2.6299
 3288TIP3    H2 9871   2.423   4.247   0.339 -0.1867  0.5404  0.0737
 3289TIP3   OH2 9872   0.134   1.607   2.379 -0.9350  0.4974 -0.4389
 3289TIP3    H1 9873   0.138   1.531   2.321 -0.7385  0.4912 -0.4172
 3289TIP3    H2 9874   0.094   1.675   2.326 -1.7963  0.1684 -0.2253
 3290TIP3   OH2 9875   4.975   4.366   3.754  0.6326 -0.0552 -0.1123
 3290TIP3    H1 9876   4.891   4.324   3.770  2.0178 -2.6824  0.9252
 3290TIP3    H2 9877   4.998   4.406   3.838  1.6540 -1.8656  0.5285
 3291TIP3   OH2 9878   6.217   4.621   1.566  0.1596 -0.1152  0.0802
 3291TIP3    H1 9879   6.197   4.661   1.481 -2.3671 -2.7505 -0.7296
 3291TIP3    H2 9880   6.309   4.595   1.559  0.6131  1.6505 -0.9617
 3292TIP3   OH2 9881   3.467   3.613   1.434 -0.1814  0.5809  0.0764
 3292TIP3    H1 9882   3.520   3.543   1.396  0.5918  0.9828  0.4148
 3292TIP3    H2 9883   3.502   3.694   1.397 -0.6598  0.8457  0.1829
 3293TIP3   OH2 9884   1.030   0.527   2.656 -0.0449  0.1216  0.0242
 3293TIP3    H1 9885   1.097   0.467   2.623 -0.0874 -0.0435  0.2379
 3293TIP3    H2 9886   0.957   0.470   2.679 -0.0883  0.2576  0.2218
 3294TIP3   OH2 9887   1.215   4.291   0.819 -0.6621 -0.1620 -0.1383
 3294TIP3    H1 9888   1.288   4.328   0.868 -0.0791 -0.7142 -0.5776
 3294TIP3    H2 9889   1.140   4.344   0.845  0.0580  1.0281 -0.3886
 3295TIP3   OH2 9890   4.095   4.862   2.460  0.1810 -0.8007 -0.4529
 3295TIP3    H1 9891   4.113   4.897   2.373 -1.3095  0.3122 -0.3535
 3295TIP3    H2 9892   4.045   4.782   2.444 -2.2557  0.6608 -0.6739
 3296TIP3   OH2 9893   2.958   4.883   1.448 -0.0406 -0.1549  0.8544
 3296TIP3    H1 9894   2.959   4.925   1.362  1.2283 -0.9526  0.4535
 3296TIP3    H2 9895   2.934   4.953   1.508  0.5206  0.7744  0.0245
 3297TIP3   OH2 9896   4.555   4.404   1.118 -0.3465 -0.7110  0.3398
 3297TIP3    H1 9897   4.491   4.462   1.160 -0.3306 -0.5272  0.1134
 3297TIP3    H2 9898   4.567   4.441   1.031 -0.6239 -1.2775  0.0568
 3298TIP3   OH2 9899   5.401   5.161   2.801 -0.1342 -0.2003 -0.9134
 3298TIP3    H1 9900   5.483   5.117   2.823 -0.3943  0.5652  1.9995
 3298TIP3    H2 9901   5.367   5.192   2.885 -2.3076  1.4453 -2.2845
 3299TIP3   OH2 9902   0.915   2.763   1.173  0.3995  0.1261  0.1312
 3299TIP3    H1 9903   0.893   2.778   1.265  0.7157  0.8177  0.0970
 3299TIP3    H2 9904   0.971   2.685   1.175  0.0540 -0.1230  0.4719
 3300TIP3   OH2 9905   3.211   4.381   1.023 -0.0460  0.2777 -0.1957
 3300TIP3    H1 9906   3.120   4.404   1.041  0.3578  1.5729  0.3420
 3300TIP3    H2 9907   3.254   4.384   1.109  0.4859 -0.3920 -0.4290
 3301TIP3   OH2 9908   2.011   0.320   2.261 -0.3824 -0.7187  0.1780
 3301TIP3    H1 9909   1.965   0.327   2.345  1.2923  3.7749  0.9894
 3301TIP3    H2 9910   2.029   0.410   2.236  0.5873 -1.9256 -4.3524
 3302TIP3   OH2 9911   5.460   5.869   3.359  0.1452  0.3079  0.0114
 3302TIP3    H1 9912   5.461   5.884   3.453 -0.3574  0.0422  0.0653
 3302TIP3    H2 9913   5.542   5.906   3.327  0.1594  0.7079  0.5068
 3303TIP3   OH2 9914   5.756   2.490   2.245 -0.4110  0.5182 -0.3745
 3303TIP3    H1 9915   5.836   2.532   2.210 -0.7766  0.6973 -1.0159
 3303TIP3    H2 9916   5.741   2.534   2.329  0.2230  0.4147 -0.2032
 3304TIP3   OH2 9917   2.827   4.542   0.615  0.1945 -0.2154  0.4314
 3304TIP3    H1 9918   2.850   4.609   0.551  0.5154 -0.0439  0.7238
 3304TIP3    H2 9919   2.835   4.459   0.567  2.0257 -0.2158  0.6695
 3305TIP3   OH2 9920   1.813   4.929   1.649 -0.4575  0.4709  0.5066
 3305TIP3    H1 9921   1.771   4.956   1.567 -1.1901  2.3506  1.4314
 3305TIP3    H2 9922   1.814   5.009   1.702  0.7746 -0.4983  2.0146
 3306TIP3   OH2 9923   1.127   2.621   5.118 -0.2689 -0.6031  0.8489
 3306TIP3    H1 9924   1.166   2.685   5.059  1.1434 -2.4674 -0.3148
 3306TIP3    H2 9925   1.185   2.619   5.194 -0.4155 -0.3882  0.9680
 3307TIP3   OH2 9926   0.180   2.688   3.333 -0.0158  0.1978  0.5370
 3307TIP3    H1 9927   0.203   2.781   3.330  2.0341 -0.2967 -0.3447
 3307TIP3    H2 9928   0.251   2.647   3.382 -0.2209 -1.0962 -0.2078
 3308TIP3   OH2 9929   4.497   1.458   0.852  0.3468  0.2155 -0.4125
 3308TIP3    H1 9930   4.510   1.483   0.944  0.9982 -2.0955  0.1852
 3308TIP3    H2 9931   4.444   1.379   0.856 -1.0770  1.0237 -2.1586
 3309TIP3   OH2 9932   2.736   5.894   5.088 -0.5855  0.3256 -0.1949
 3309TIP3    H1 9933   2.719   5.802   5.066  1.9308 -0.1447 -0.4565
 3309TIP3    H2 9934   2.769   5.932   5.006 -1.4871  1.4635 -0.0542
 3310TIP3   OH2 9935   1.837   1.977   1.039  0.5066 -0.5830  0.0860
 3310TIP3    H1 9936   1.921   2.012   1.071  0.0708 -0.2531  0.8970
 3310TIP3    H2 9937   1.835   2.000   0.946  0.9956  0.0370  0.2219
 3311TIP3   OH2 9938   3.712   4.510   3.841  0.3826  0.5268  0.4835
 3311TIP3    H1 9939   3.740   4.436   3.895  0.4065 -0.3745 -0.7490
 3311TIP3    H2 9940   3.639   4.549   3.889  0.3543 -0.3041  1.1224
 3312TIP3   OH2 9941   4.108   3.645   3.490 -0.5372  1.1685 -0.1158
 3312TIP3    H1 9942   4.051   3.651   3.413 -0.9651 -0.2784  0.0634
 3312TIP3    H2 9943   4.093   3.557   3.524  0.9633  1.1655  0.6091
 3313TIP3   OH2 9944   1.933   4.404   5.154 -0.5096 -0.0478 -0.5997
 3313TIP3    H1 9945   2.003   4.414   5.089 -1.5358  1.2355 -1.5644
 3313TIP3    H2 9946   1.962   4.456   5.229 -0.8425  1.3093 -1.3799
 3314TIP3   OH2 9947   0.076   2.317   2.953  0.0582  0.9020 -0.1126
 3314TIP3    H1 9948  -0.000   2.340   3.006  0.5310  1.4666  0.3397
 3314TIP3    H2 9949   0.088   2.390   2.894  1.1135  1.5178  0.8142
 3315TIP3   OH2 9950   4.220   0.956   2.466  0.0864 -0.4164  0.0264
 3315TIP3    H1 9951   4.270   0.984   2.543 -0.0552  0.3785 -0.1571
 3315TIP3    H2 9952   4.168   0.882   2.496  0.6884 -0.6711  0.4610
 3316TIP3   OH2 9953   3.070   2.805   2.198 -0.3605 -0.2982  0.0716
 3316TIP3    H1 9954   3.033   2.735   2.251 -0.9004 -1.8072 -2.1320
 3316TIP3    H2 9955   3.139   2.763   2.146 -0.0563  1.0081 -0.6432
 3317TIP3   OH2 9956   2.915   1.872   2.835  0.1100  0.8950 -1.0343
 3317TIP3    H1 9957   2.931   1.945   2.895  1.4318  0.4496 -0.8170
 3317TIP3    H2 9958   2.844   1.823   2.876  1.0849  0.5168  0.2715
 3318TIP3   OH2 9959   0.148   1.419   0.041 -0.3946 -0.0998  0.6261
 3318TIP3    H1 9960   0.130   1.347   0.101  1.9459 -1.3388 -0.0041
 3318TIP3    H2 9961   0.232   1.454   0.072  0.3132 -0.0711 -1.2176
 3319TIP3   OH2 9962   5.301   1.057   2.373 -0.7099 -0.5117 -0.2579
 3319TIP3    H1 9963   5.396   1.045   2.380 -0.2466  2.5164  0.1809
 3319TIP3    H2 9964   5.274   0.997   2.304  1.5727 -1.2208 -0.6251
 3320TIP3   OH2 9965   2.024   3.501   1.834  0.2131 -0.3415  0.1147
 3320TIP3    H1 9966   2.086   3.431   1.813 -0.7698 -1.4008  0.6343
 3320TIP3    H2 9967   1.980   3.471   1.913 -2.0415 -0.3571 -1.0789
 3321TIP3   OH2 9968   4.981   4.306   1.364  0.4310  0.0382  0.3929
 3321TIP3    H1 9969   4.924   4.371   1.407  1.1129  0.1670  1.1359
 3321TIP3    H2 9970   4.969   4.226   1.415  1.7209  0.3599  1.2451
 3322TIP3   OH2 9971   0.443   0.558   2.716 -0.5772 -0.2885 -0.6080
 3322TIP3    H1 9972   0.492   0.550   2.634  0.4693  1.2898 -0.1620
 3322TIP3    H2 9973   0.420   0.651   2.722 -1.3098 -0.5218  0.5284
 3323TIP3   OH2 9974   0.405   5.239   2.549 -0.0367  0.2641  0.0989
 3323TIP3    H1 9975   0.497   5.259   2.565 -0.3505  0.7211  1.4949
 3323TIP3    H2 9976   0.400   5.143   2.552  0.2311  0.2608  1.1976
 3324TIP3   OH2 9977   4.400   1.543   1.837  0.0101  0.1344  0.3274
 3324TIP3    H1 9978   4.383   1.462   1.788 -1.5104 -0.0256  1.0839
 3324TIP3    H2 9979   4.364   1.528   1.924  0.4985  1.3167  0.7658
 3325TIP3   OH2 9980   2.001   1.732   2.014  0.1389 -0.1116 -0.1935
 3325TIP3    H1 9981   1.963   1.716   1.927 -0.2091  1.2134 -0.3113
 3325TIP3    H2 9982   1.955   1.671   2.072 -0.2623 -0.3938 -0.7956
 3326TIP3   OH2 9983   4.883   4.447   5.045  0.0728  0.2494 -0.4154
 3326TIP3    H1 9984   4.798   4.404   5.034  1.0504 -1.5480 -1.5878
 3326TIP3    H2 9985   4.930   4.392   5.107  0.6507  0.8075 -0.3500
 3327TIP3   OH2 9986   2.936   3.026   3.605  0.2178 -0.3225  0.3581
 3327TIP3    H1 9987   2.921   3.107   3.655  2.1392  0.9115 -0.9205
 3327TIP3    H2 9988   3.016   2.990   3.643 -0.2585 -1.2870  0.4618
 3328TIP3   OH2 9989   1.910   2.696   4.198 -0.2398 -0.0230  0.1545
 3328TIP3    H1 9990   1.971   2.767   4.218  0.5276 -0.0073 -1.9781
 3328TIP3    H2 9991   1.967   2.620   4.181 -0.9466 -0.6382  0.4846
 3329TIP3   OH2 9992   3.362   5.445   2.622  0.5866  0.6199 -0.6514
 3329TIP3    H1 9993   3.377   5.449   2.717  1.2590  1.0498 -0.7713
 3329TIP3    H2 9994   3.288   5.385   2.613  1.5142 -0.7010  0.0580
 3330TIP3   OH2 9995   1.684   1.163   0.945  0.4737 -0.2726 -0.2810
 3330TIP3    H1 9996   1.711   1.197   1.031 -1.2363  1.0640 -0.2090
 3330TIP3    H2 9997   1.646   1.077   0.964  1.1632 -0.4935  0.1246
 3331TIP3   OH2 9998   4.934   2.977   2.723 -0.3925 -0.6996  0.8072
 3331TIP3    H1 9999   4.858   3.018   2.765 -0.3884 -0.7300  0.8444
 3331TIP3    H210000   4.995   3.049   2.710 -0.5904 -0.6004  0.4064
 3332TIP3   OH210001   0.999   1.727   4.449  0.2439  0.2356 -0.3286
 3332TIP3    H110002   1.034   1.763   4.530 -0.6582 -0.1159  0.2353
 3332TIP3    H210003   1.073   1.727   4.389  0.8423  0.8275  0.3824
 3333TIP3   OH210004   5.468   5.546   0.324  0.3109  0.5967  0.2311
 3333TIP3    H110005   5.386   5.501   0.306 -0.7400  2.3225  0.4245
 3333TIP3    H210006   5.536   5.488   0.291 -1.0843 -0.1037 -1.5254
 3334TIP3   OH210007   3.685   4.583   0.989  0.3650  0.3299  0.2799
 3334TIP3    H110008   3.728   4.502   1.016  0.7668  0.9297  1.4885
 3334TIP3    H210009   3.596   4.557   0.967  0.6435 -0.5232  0.1489
 3335TIP3   OH210010   0.006   1.005   1.348 -0.4735  0.8489 -0.1426
 3335TIP3    H110011   0.055   0.924   1.334 -1.2970  0.2345  0.4976
 3335TIP3    H210012   0.071   1.074   1.334  0.4512  0.0618  0.1640
 3336TIP3   OH210013   1.350   0.111   4.105 -0.4569  0.4912  0.3688
 3336TIP3    H110014   1.340   0.065   4.188 -0.2955 -0.9169 -0.3665
 3336TIP3    H210015   1.261   0.132   4.077 -0.5065  1.0730  0.9324
 3337TIP3   OH210016   2.917   2.137   4.833 -0.2449 -0.0875 -0.4944
 3337TIP3    H110017   2.925   2.076   4.760 -0.5947 -0.5541 -0.1537
 3337TIP3    H210018   2.989   2.114   4.891  0.1854  0.4528 -0.8121
 3338TIP3   OH210019   2.405   1.054   1.433  0.1247  0.7427  0.2437
 3338TIP3    H110020   2.425   0.961   1.432  1.8474  1.0899  0.6959
 3338TIP3    H210021   2.429   1.084   1.521  0.3234  1.7689 -0.1430
 3339TIP3   OH210022   1.603   0.897   1.068 -0.3155  0.0997 -0.6225
 3339TIP3    H110023   1.522   0.899   1.119 -1.0505 -0.2020 -1.7105
 3339TIP3    H210024   1.669   0.938   1.123 -0.6730 -1.6716  1.2107
 3340TIP3   OH210025   4.290   0.256   4.597  0.1691  0.3967 -0.3306
 3340TIP3    H110026   4.279   0.180   4.540 -0.7328  1.6005 -1.8218
 3340TIP3    H210027   4.370   0.298   4.567 -0.8393  1.6021 -1.4638
 3341TIP3   OH210028   3.655   0.295   4.344 -0.2262 -0.2959 -0.5068
 3341TIP3    H110029   3.729   0.304   4.285 -0.5121 -1.5328 -1.0795
 3341TIP3    H210030   3.653   0.378   4.393  0.5495  0.3869 -1.5890
 3342TIP3   OH210031   4.253   5.968   0.099  0.4287 -0.1202 -0.1859
 3342TIP3    H110032   4.319   5.971   0.167 -0.6325  1.2415  0.8358
 3342TIP3    H210033   4.300   5.987   0.018  2.0532 -3.5536 -0.2217
 3343TIP3   OH210034   1.722   2.799   1.588 -0.1642 -0.0161  0.2271
 3343TIP3    H110035   1.758   2.713   1.567  1.9260  0.7020  0.6413
 3343TIP3    H210036   1.775   2.830   1.661  0.5276  2.4687 -1.2130
 3344TIP3   OH210037   5.772   0.542   2.480 -0.3375  0.2137  0.7532
 3344TIP3    H110038   5.761   0.594   2.400  1.7951 -0.5693 -0.1135
 3344TIP3    H210039   5.759   0.451   2.451 -0.2098 -0.0225  1.4395
 3345TIP3   OH210040   3.897   3.300   1.226  0.9489  0.0828 -0.2261
 3345TIP3    H110041   3.814   3.283   1.272  1.7089 -1.2688  0.7243
 3345TIP3    H210042   3.885   3.387   1.187 -0.6923  0.1725  0.3797
 3346TIP3   OH210043   5.260   2.134   4.776  0.1199  0.5749 -0.1076
 3346TIP3    H110044   5.233   2.169   4.861 -0.2982 -1.6055  0.7269
 3346TIP3    H210045   5.186   2.081   4.747  1.8146 -2.2032  0.2605
 3347TIP3   OH210046   3.747   1.777   0.174 -0.0597  0.0808 -0.1015
 3347TIP3    H110047   3.701   1.856   0.203 -2.8618 -1.2713 -0.4602
 3347TIP3    H210048   3.722   1.711   0.238  1.2418 -0.8145 -0.4912
 3348TIP3   OH210049   5.963   0.020   2.779  0.2222 -0.5284 -0.4366
 3348TIP3    H110050   5.880   0.011   2.733 -0.6401 -2.5498  1.3613
 3348TIP3    H210051   6.029   0.025   2.709 -1.1127 -2.1540 -1.8904
 3349TIP3   OH210052   0.957   4.339   3.520  0.4382  0.3425  0.1865
 3349TIP3    H110053   0.991   4.261   3.477  2.0467  0.9847  0.2281
 3349TIP3    H210054   0.889   4.371   3.461  1.1565  0.0283 -0.8449
 3350TIP3   OH210055   0.491   0.067   4.810 -0.2988  0.1120 -0.4570
 3350TIP3    H110056   0.560   0.050   4.873 -1.1615  0.7792  0.7054
 3350TIP3    H210057   0.423   0.113   4.860 -0.8202  1.0628 -1.9557
 3351TIP3   OH210058   0.381   2.787   4.158  0.2596  0.3101 -0.5341
 3351TIP3    H110059   0.356   2.838   4.082  0.2343  1.2570  0.0994
 3351TIP3    H210060   0.427   2.711   4.122 -3.0700 -1.3319 -1.7393
 3352TIP3   OH210061   3.117   4.899   1.720 -0.2020  0.3311  0.0619
 3352TIP3    H110062   3.047   4.857   1.670  2.2625  0.0244 -3.4376
 3352TIP3    H210063   3.121   4.988   1.685 -0.7023  1.3405  2.3761
 3353TIP3   OH210064   5.400   3.108   2.386 -0.7702  0.6516 -0.5007
 3353TIP3    H110065   5.438   3.155   2.313 -0.3814  0.3781 -0.4752
 3353TIP3    H210066   5.312   3.084   2.356 -0.1980 -0.4909 -1.3295
 3354TIP3   OH210067   3.139   1.869   4.987 -0.0825  0.6655 -0.0243
 3354TIP3    H110068   3.140   1.879   5.082  0.6643  0.4387 -0.0024
 3354TIP3    H210069   3.166   1.955   4.953 -0.4957  0.7912 -0.0371
 3355TIP3   OH210070   1.155   2.393   1.981 -0.2633 -0.1392 -0.1256
 3355TIP3    H110071   1.236   2.361   1.941 -0.0441 -1.6217  1.4029
 3355TIP3    H210072   1.088   2.331   1.953 -0.2811 -0.6571  1.0439
 3356TIP3   OH210073   0.529   3.124   4.529  0.2933  0.3381  0.3090
 3356TIP3    H110074   0.566   3.178   4.459 -1.6901 -0.0663 -1.1465
 3356TIP3    H210075   0.514   3.038   4.488 -1.5798  0.3010  0.9472
 3357TIP3   OH210076   0.195   1.957   0.611  0.5620 -0.2677  0.0648
 3357TIP3    H110077   0.225   2.017   0.543  3.5799  0.5281  1.9296
 3357TIP3    H210078   0.148   2.012   0.674 -1.8116 -0.9279 -0.9878
 3358TIP3   OH210079   4.566   4.939   2.044  0.9261  0.4560 -0.1290
 3358TIP3    H110080   4.497   4.987   2.089 -0.0850 -0.4119 -0.7120
 3358TIP3    H210081   4.579   4.860   2.097  0.2184 -0.2300 -0.9443
 3359TIP3   OH210082   3.736   3.198   3.220 -0.0264  0.5212  0.1156
 3359TIP3    H110083   3.697   3.159   3.141  1.0695  0.5401 -0.4510
 3359TIP3    H210084   3.752   3.124   3.278  1.9295  0.0590 -0.9054
 3360TIP3   OH210085   0.888   2.045   1.005 -0.2869  0.3418  0.2327
 3360TIP3    H110086   0.932   2.011   1.083 -1.1191  0.8121  0.9258
 3360TIP3    H210087   0.924   1.993   0.933  0.4752 -0.1219  0.9258
 3361TIP3   OH210088   5.649   1.599   1.638 -0.0179  0.5302 -0.0620
 3361TIP3    H110089   5.602   1.569   1.716  2.1594 -2.8414  0.1739
 3361TIP3    H210090   5.597   1.568   1.564  1.0028 -1.9626  0.1867
 3362TIP3   OH210091   4.004   3.003   3.473  0.2762  0.8914 -0.5666
 3362TIP3    H110092   4.016   3.090   3.511  0.7972  1.3545 -1.7319
 3362TIP3    H210093   3.910   2.998   3.452  0.2478  1.1735 -0.5046
 3363TIP3   OH210094   6.144   3.664   0.574  0.2987  0.0364  0.3950
 3363TIP3    H110095   6.238   3.672   0.559  0.4579 -1.1366  0.6879
 3363TIP3    H210096   6.119   3.583   0.529 -0.9949  1.4166 -1.5389
 3364TIP3   OH210097   5.504   5.660   3.625  0.0559  0.4505  0.0420
 3364TIP3    H110098   5.509   5.618   3.711 -0.8984 -0.6012 -0.3754
 3364TIP3    H210099   5.575   5.724   3.624 -0.8681  1.5980  2.1871
 3365TIP3   OH210100   6.374   2.964   5.177  0.1019 -0.0109 -0.3943
 3365TIP3    H110101   6.359   2.948   5.084  0.2578  1.2289 -0.6457
 3365TIP3    H210102   6.297   3.012   5.206 -0.0222 -0.5372  0.1639
 3366TIP3   OH210103   4.972   4.143   1.591 -0.1842 -0.3655 -0.3450
 3366TIP3    H110104   5.049   4.149   1.648 -0.7226  3.1596  0.2589
 3366TIP3    H210105   4.899   4.125   1.651 -0.1425 -1.6662 -0.6543
 3367TIP3   OH210106   4.708   0.597   4.796 -0.1895 -0.5881  0.0337
 3367TIP3    H110107   4.658   0.585   4.877  0.5949  0.9539  0.7972
 3367TIP3    H210108   4.740   0.510   4.773 -0.6057 -1.0773  1.2675
 3368TIP3   OH210109   4.069   4.478   0.423  0.0733  0.0577  0.3366
 3368TIP3    H110110   3.983   4.521   0.415 -0.4832 -1.0005  0.4906
 3368TIP3    H210111   4.130   4.550   0.442 -0.5421  1.0226 -1.1367
 3369TIP3   OH210112   2.913   2.596   1.920 -0.3104  0.4781 -0.2679
 3369TIP3    H110113   2.824   2.564   1.905 -0.9391  1.8386  0.3199
 3369TIP3    H210114   2.919   2.606   2.015 -0.1944  2.1164 -0.4168
 3370TIP3   OH210115   2.914   3.996   3.848  0.0701 -0.5117 -0.3022
 3370TIP3    H110116   2.991   4.050   3.829 -1.9648  1.8161 -2.5920
 3370TIP3    H210117   2.857   4.007   3.772 -2.6864 -1.8759  1.4067
 3371TIP3   OH210118   6.032   3.417   0.046  0.4916 -0.0313 -0.7160
 3371TIP3    H110119   6.084   3.358  -0.008 -0.1493  0.2597 -1.6834
 3371TIP3    H210120   5.985   3.359   0.106  0.3772 -0.4550 -1.2095
 3372TIP3   OH210121   3.424   2.134   5.024  0.2692  0.0659 -0.7934
 3372TIP3    H110122   3.466   2.059   5.065 -1.9213 -1.4333 -1.0900
 3372TIP3    H210123   3.450   2.209   5.077  0.5687 -1.2669  1.0238
 3373TIP3   OH210124   0.045   0.661   4.835 -0.3692  0.4496 -0.3954
 3373TIP3    H110125   0.029   0.631   4.924  3.7145  0.8524  0.6737
 3373TIP3    H210126   0.076   0.584   4.788 -0.1668  0.7392 -0.7481
 3374TIP3   OH210127   2.900   3.691   2.916 -0.3189  0.4080 -0.3127
 3374TIP3    H110128   2.805   3.698   2.918 -0.5597 -2.2075  0.1384
 3374TIP3    H210129   2.920   3.609   2.962  2.4111  2.6407  3.0957
 3375TIP3   OH210130   3.592   2.320   4.215  0.5583  0.1533 -0.0360
 3375TIP3    H110131   3.678   2.294   4.181 -0.1286 -0.2980 -1.5127
 3375TIP3    H210132   3.588   2.415   4.203  0.6725  0.1135 -0.3844
 3376TIP3   OH210133   4.051   0.171   0.141 -0.0873  0.6429  0.0167
 3376TIP3    H110134   4.086   0.258   0.161 -0.7011  0.8604  0.1824
 3376TIP3    H210135   3.961   0.187   0.114  0.2010  0.1780 -1.3036
 3377TIP3   OH210136   0.735   1.936   3.211 -0.3188  0.5881 -0.0313
 3377TIP3    H110137   0.662   1.877   3.191 -0.3824  0.2369  1.1582
 3377TIP3    H210138   0.793   1.927   3.135 -0.9685  0.0250 -0.4874
 3378TIP3   OH210139   3.019   3.463   2.139 -0.0852 -0.2693  0.0650
 3378TIP3    H110140   3.012   3.506   2.054 -1.2747  1.4485  0.9774
 3378TIP3    H210141   3.078   3.520   2.189 -0.4799 -0.5242  0.8265
 3379TIP3   OH210142   5.354   5.693   0.512 -0.0569  0.5294  0.1163
 3379TIP3    H110143   5.398   5.641   0.445 -0.8714  0.3681 -0.3150
 3379TIP3    H210144   5.419   5.756   0.541  1.0999 -0.9900  0.9542
 3380TIP3   OH210145   2.437   1.639   0.207  0.3695  0.5729  0.0357
 3380TIP3    H110146   2.385   1.560   0.192  2.3886 -0.7810 -0.2274
 3380TIP3    H210147   2.471   1.662   0.121 -2.0771  3.2384 -0.3606
 3381TIP3   OH210148   0.961   0.040   4.613 -0.1770 -0.4476 -0.8554
 3381TIP3    H110149   0.979   0.127   4.651  0.9864 -1.5411  1.2869
 3381TIP3    H210150   0.867   0.028   4.627  0.0382 -0.4091  0.9469
 3382TIP3   OH210151   4.876   0.548   3.905 -0.0049 -0.6950 -0.4871
 3382TIP3    H110152   4.949   0.606   3.884  0.1699 -0.0004  1.7802
 3382TIP3    H210153   4.874   0.484   3.834  1.9020  0.1242 -1.3216
 3383TIP3   OH210154   5.771   1.207   3.400  0.3000 -0.4421 -0.6905
 3383TIP3    H110155   5.700   1.152   3.433 -0.8710  0.4785 -1.5627
 3383TIP3    H210156   5.799   1.259   3.475 -1.6440  0.9184 -0.8350
 3384TIP3   OH210157   3.020   1.970   2.059  0.3769  0.7525  0.9000
 3384TIP3    H110158   2.987   1.939   2.143  0.7467 -0.7503  0.5213
 3384TIP3    H210159   2.962   2.043   2.037 -2.6060 -1.5238  0.4385
 3385TIP3   OH210160   2.498   5.307   5.060 -0.4132 -0.1695  0.4075
 3385TIP3    H110161   2.491   5.396   5.026  2.3411 -0.0040  0.0358
 3385TIP3    H210162   2.513   5.252   4.983  0.8569 -0.5125  0.8755
 3386TIP3   OH210163   3.237   1.049   1.492 -0.2836 -0.5648  0.3607
 3386TIP3    H110164   3.297   0.978   1.515  0.4474 -0.4437 -1.0491
 3386TIP3    H210165   3.161   1.005   1.454  0.8422 -0.6085 -2.0165
 3387TIP3   OH210166   4.138   1.481   2.796 -0.3987  0.3428 -0.0613
 3387TIP3    H110167   4.082   1.404   2.790 -1.7631  1.2392  0.5550
 3387TIP3    H210168   4.161   1.487   2.888 -1.2872  1.2904  0.1326
 3388TIP3   OH210169   2.528   2.208   0.095 -0.1809 -0.0721 -0.1396
 3388TIP3    H110170   2.569   2.147   0.156  0.5232  0.2790 -0.2541
 3388TIP3    H210171   2.601   2.246   0.046 -0.7929 -1.3970 -2.2156
 3389TIP3   OH210172   4.896   3.326   3.076  0.5229  0.4974  0.2672
 3389TIP3    H110173   4.813   3.306   3.034 -0.3103  2.1924  1.0165
 3389TIP3    H210174   4.943   3.381   3.013  0.1331  1.3402  0.6908
 3390TIP3   OH210175   0.763   4.781   2.749 -0.5819 -0.2124 -0.4167
 3390TIP3    H110176   0.716   4.719   2.693 -1.4986 -0.0810  0.1972
 3390TIP3    H210177   0.843   4.734   2.774 -2.3740 -2.2070  2.0629
 3391TIP3   OH210178   2.100   0.709   0.038  0.3039  0.0649  0.8010
 3391TIP3    H110179   2.138   0.791   0.069  1.7932 -1.0530  2.1032
 3391TIP3    H210180   2.082   0.660   0.118  0.8256 -1.4480  0.0268
 3392TIP3   OH210181   1.313   2.788   4.983  0.0972 -0.3165  0.0733
 3392TIP3    H110182   1.386   2.788   5.045 -0.4329 -0.0726  0.7014
 3392TIP3    H210183   1.340   2.726   4.915  1.2047  0.2990 -0.0749
 3393TIP3   OH210184   5.120   5.610   3.439  0.1505 -0.5363  0.7060
 3393TIP3    H110185   5.085   5.688   3.482  0.5293  0.0604 -0.0219
 3393TIP3    H210186   5.117   5.542   3.505  0.0690  0.1727  1.4488
 3394TIP3   OH210187   3.506   2.843   2.721  1.2327 -0.4382  0.0015
 3394TIP3    H110188   3.510   2.919   2.779  0.5332 -0.7743  0.4983
 3394TIP3    H210189   3.524   2.768   2.778 -0.8312 -0.9091  0.0953
 3395TIP3   OH210190   1.822   0.710   4.512 -0.2590  0.0110 -0.2039
 3395TIP3    H110191   1.844   0.658   4.434  1.9474 -0.7902  0.8759
 3395TIP3    H210192   1.738   0.751   4.490 -0.1705 -0.9225 -2.6230
 3396TIP3   OH210193   5.996   2.830   2.595 -0.6167 -0.2420  0.0067
 3396TIP3    H110194   6.080   2.831   2.550  0.1475  1.2659  1.3261
 3396TIP3    H210195   6.011   2.776   2.672 -1.9439 -2.9116 -1.4897
 3397TIP3   OH210196   4.628   1.398   4.255  0.1038 -0.0986 -0.1985
 3397TIP3    H110197   4.622   1.338   4.182  1.6681 -0.2870 -0.2006
 3397TIP3    H210198   4.676   1.473   4.221  2.0562 -0.7618  0.9404
 3398TIP3   OH210199   5.603   2.333   4.398 -0.3580  0.1955 -0.1619
 3398TIP3    H110200   5.606   2.239   4.378 -4.0867 -0.1288  0.0522
 3398TIP3    H210201   5.590   2.375   4.313  1.8302  0.6603 -0.3256
 3399TIP3   OH210202   0.830   5.188   1.403  0.0723  0.3853 -0.2157
 3399TIP3    H110203   0.908   5.193   1.348 -0.3529  1.1118 -0.7832
 3399TIP3    H210204   0.792   5.103   1.383  0.0177  0.5690 -0.9445
 3400TIP3   OH210205   3.447   3.108   2.795  0.3758  0.1334 -0.0434
 3400TIP3    H110206   3.449   3.185   2.738  0.3493 -0.2019 -0.5029
 3400TIP3    H210207   3.355   3.095   2.815  0.3351 -0.0476 -0.3395
 3401TIP3   OH210208   2.863   1.497   4.866  0.4445 -0.0125  0.0348
 3401TIP3    H110209   2.852   1.590   4.844 -0.4009 -0.4809 -1.6553
 3401TIP3    H210210   2.775   1.461   4.862  0.6382 -0.7299  1.6140
 3402TIP3   OH210211   3.464   3.683   3.900 -0.0765 -0.1975  0.8176
 3402TIP3    H110212   3.529   3.626   3.939  0.8631  0.1950 -0.1190
 3402TIP3    H210213   3.409   3.625   3.847 -0.8816 -0.6152  2.0911
 3403TIP3   OH210214   4.300   5.910   2.950  0.0792 -0.3516 -0.1033
 3403TIP3    H110215   4.269   5.995   2.919  2.3133  0.0548 -1.4568
 3403TIP3    H210216   4.221   5.858   2.961 -1.3047  1.6736  0.1067
 3404TIP3   OH210217   3.841   2.829   2.056  0.3052 -0.1184 -0.1914
 3404TIP3    H110218   3.854   2.877   1.975  0.9637 -1.5558 -0.9915
 3404TIP3    H210219   3.841   2.737   2.029  0.1200 -0.6128  1.3887
 3405TIP3   OH210220   4.494   0.129   1.429  0.2639 -0.6733  0.0697
 3405TIP3    H110221   4.474   0.223   1.427 -1.2087 -0.9167  1.2318
 3405TIP3    H210222   4.589   0.125   1.418  0.5377  1.0605  1.2296
 3406TIP3   OH210223   4.902   3.798   4.294 -1.0313  0.2195 -0.0072
 3406TIP3    H110224   4.873   3.724   4.348  0.6373 -1.9618 -1.9195
 3406TIP3    H210225   4.921   3.759   4.209  1.2258  2.6214 -0.7030
 3407TIP3   OH210226   4.572   3.914   0.051  0.8583 -0.0709  0.6751
 3407TIP3    H110227   4.553   3.998   0.092  0.0076  0.5661 -0.9556
 3407TIP3    H210228   4.537   3.921  -0.038  0.8399 -2.1189  0.4600
 3408TIP3   OH210229   1.283   3.680   1.355 -0.4553 -0.4578 -0.5034
 3408TIP3    H110230   1.278   3.585   1.359  0.5470 -0.5343 -0.9091
 3408TIP3    H210231   1.213   3.710   1.413  0.2695 -1.4241  0.9064
 3409TIP3   OH210232   1.401   1.298   4.072  0.3908  0.7367 -0.0066
 3409TIP3    H110233   1.441   1.384   4.058 -0.2522  1.6122  2.8016
 3409TIP3    H210234   1.307   1.312   4.062  0.2300  0.5557  1.0702
 3410TIP3   OH210235   4.529   0.371   1.098  0.1248 -0.0481 -0.4752
 3410TIP3    H110236   4.621   0.368   1.124  0.3379  0.9714 -1.0747
 3410TIP3    H210237   4.506   0.279   1.082  1.2452 -0.2548 -1.0173
 3411TIP3   OH210238   0.731   4.832   2.069 -0.0686 -0.1883  0.5274
 3411TIP3    H110239   0.753   4.906   2.013 -1.4182 -0.6708 -0.7215
 3411TIP3    H210240   0.649   4.857   2.111 -1.2610 -1.4295 -0.9325
 3412TIP3   OH210241   6.249   0.311   4.756 -0.0628  0.0951 -0.0163
 3412TIP3    H110242   6.197   0.311   4.675 -0.9161  2.9942  0.4281
 3412TIP3    H210243   6.333   0.348   4.730  1.1780 -2.6551 -0.2934
 3413TIP3   OH210244   0.060   4.752   0.411 -0.3907 -0.3477 -0.3864
 3413TIP3    H110245  -0.009   4.687   0.430  0.2521 -0.9704 -0.1523
 3413TIP3    H210246   0.111   4.712   0.341 -2.0263  1.4124 -2.7455
 3414TIP3   OH210247   2.762   1.724   3.380 -0.2736  0.2002 -0.3751
 3414TIP3    H110248   2.686   1.695   3.330  0.1288 -3.9195  1.0215
 3414TIP3    H210249   2.725   1.765   3.458 -1.0416 -0.2630 -0.4860
 3415TIP3   OH210250   4.088   4.465   3.574  0.2351 -0.8303 -0.5791
 3415TIP3    H110251   3.999   4.487   3.548  0.9755  0.3222 -2.3003
 3415TIP3    H210252   4.125   4.420   3.497  1.9875  1.2031 -1.0202
 3416TIP3   OH210253   5.067   2.332   0.139  0.1547  0.7395 -0.0029
 3416TIP3    H110254   5.150   2.371   0.111  0.8737 -1.1877 -0.7290
 3416TIP3    H210255   5.087   2.239   0.150 -1.8965  0.2466 -0.0508
 3417TIP3   OH210256   3.077   2.909   3.103  0.0422  0.3937  0.3751
 3417TIP3    H110257   3.103   2.818   3.117 -2.3159 -0.6481 -1.3811
 3417TIP3    H210258   2.981   2.907   3.105 -0.0786  2.7473 -0.3205
 3418TIP3   OH210259   0.534   1.850   3.593  0.3010  0.2202  0.3596
 3418TIP3    H110260   0.555   1.856   3.500 -0.6206  0.4539  0.1524
 3418TIP3    H210261   0.618   1.855   3.637  0.6042  2.6999 -0.3323
 3419TIP3   OH210262   1.776   3.294   2.769  0.3103  0.3082  0.7590
 3419TIP3    H110263   1.738   3.297   2.681  0.9110 -0.5512  0.4577
 3419TIP3    H210264   1.783   3.386   2.795 -0.0887  0.5654  0.0041
 3420TIP3   OH210265   5.039   3.182   1.985  0.1366 -0.0083 -0.3701
 3420TIP3    H110266   4.975   3.246   2.015  1.5716  1.0009  0.6891
 3420TIP3    H210267   5.082   3.223   1.910  0.2387 -0.2397 -0.4408
 3421TIP3   OH210268   6.142   5.625   0.317  0.5343  0.1357 -0.4166
 3421TIP3    H110269   6.049   5.602   0.320  0.4212  0.6398  0.0669
 3421TIP3    H210270   6.187   5.541   0.331  0.1221  0.4049  4.0681
 3422TIP3   OH210271   2.914   0.370   4.365  0.0356  0.6900  0.3395
 3422TIP3    H110272   2.874   0.286   4.341  1.6694 -0.0579  0.0967
 3422TIP3    H210273   2.858   0.404   4.434 -1.2865 -0.0695 -0.3184
 3423TIP3   OH210274   4.370   1.254   1.182 -0.9377 -0.2597 -0.6115
 3423TIP3    H110275   4.354   1.240   1.089  0.4464 -0.3241 -0.8571
 3423TIP3    H210276   4.391   1.347   1.190  0.7955 -0.6050 -0.6840
 3424TIP3   OH210277   3.869   4.503   0.721  0.0081  0.2232  0.4044
 3424TIP3    H110278   3.852   4.487   0.814  0.2068  0.8364  0.5525
 3424TIP3    H210279   3.871   4.416   0.681 -0.9615 -0.0042  0.8196
 3425TIP3   OH210280   6.180   5.179   4.898 -0.4191  0.0474  0.3649
 3425TIP3    H110281   6.247   5.130   4.851 -2.2894 -2.7490  0.3803
 3425TIP3    H210282   6.147   5.242   4.835  0.6108 -0.1423 -0.3863
 3426TIP3   OH210283   1.791   2.719   0.968  0.0693 -0.0915 -0.7871
 3426TIP3    H110284   1.708   2.677   0.946  0.4981 -0.6458 -1.3812
 3426TIP3    H210285   1.798   2.792   0.907 -0.4532  0.5779 -0.0644
 3427TIP3   OH210286   1.306   2.920   0.479 -0.2747  0.2726  0.1927
 3427TIP3    H110287   1.390   2.910   0.434 -1.4617 -0.2364 -2.0244
 3427TIP3    H210288   1.299   3.014   0.496 -0.7209  0.8762 -2.7645
 3428TIP3   OH210289   1.314   5.642   2.945 -0.1352 -0.2273  0.7243
 3428TIP3    H110290   1.263   5.561   2.939  0.5517 -0.9773  3.5715
 3428TIP3    H210291   1.373   5.639   2.870 -2.7981 -0.2973 -1.5395
 3429TIP3   OH210292   4.425   1.261   4.386  0.9386 -0.7241 -0.5567
 3429TIP3    H110293   4.448   1.230   4.474  0.3292  0.9820  0.2545
 3429TIP3    H210294   4.504   1.307   4.356  1.2908 -1.6539 -1.1019
 3430TIP3   OH210295   2.334   5.767   0.095  0.2356 -0.1576 -0.0365
 3430TIP3    H110296   2.272   5.836   0.070  0.7369 -0.1920 -1.4818
 3430TIP3    H210297   2.336   5.770   0.190 -0.0883  1.5465 -0.0463
 3431TIP3   OH210298   2.580   3.551   4.675 -0.6162  0.1580 -0.0137
 3431TIP3    H110299   2.516   3.596   4.621 -0.5213 -0.3187 -0.5351
 3431TIP3    H210300   2.645   3.618   4.696 -0.8364  0.4334 -0.2035
 3432TIP3   OH210301   1.047   5.711   0.965  0.3409  0.5014  0.0718
 3432TIP3    H110302   0.964   5.722   1.011  0.2344  0.1689 -0.0393
 3432TIP3    H210303   1.022   5.693   0.874  0.5506  1.1874 -0.1257
 3433TIP3   OH210304   0.626   5.023   4.438 -0.8387  0.0154 -0.0972
 3433TIP3    H110305   0.572   5.005   4.515  1.2911 -1.9919  1.0551
 3433TIP3    H210306   0.625   4.941   4.388 -1.4046  0.9830 -1.7623
 3434TIP3   OH210307   4.242   3.296   3.462  0.3895 -0.1507 -0.4547
 3434TIP3    H110308   4.160   3.337   3.488  0.0801 -0.9479 -0.1393
 3434TIP3    H210309   4.222   3.251   3.380  0.8445  0.6909 -1.0443
 3435TIP3   OH210310   0.739   2.786   4.608  0.4069 -0.6550  0.2200
 3435TIP3    H110311   0.660   2.815   4.655  1.1610 -1.9326  2.3980
 3435TIP3    H210312   0.707   2.763   4.521 -1.4883 -0.3630  0.7852
 3436TIP3   OH210313   5.044   5.367   3.600 -0.2544  0.2474  0.8365
 3436TIP3    H110314   5.064   5.283   3.640  0.6184  0.5806  1.1123
 3436TIP3    H210315   5.016   5.345   3.511  0.2062 -0.3197  0.8260
 3437TIP3   OH210316   1.989   1.133   0.936 -0.1822  0.1087 -0.6154
 3437TIP3    H110317   2.034   1.129   0.851  1.9099 -2.7268  0.4483
 3437TIP3    H210318   1.903   1.171   0.916  1.6006  3.2325 -3.2667
 3438TIP3   OH210319   6.078   1.170   1.472 -0.0311  0.1829  0.4318
 3438TIP3    H110320   6.122   1.255   1.467  1.3796 -0.5318  0.1039
 3438TIP3    H210321   6.142   1.108   1.438 -1.2298 -0.9580  0.1697
 3439TIP3   OH210322   4.577   1.917   2.569 -0.0477 -0.2412  0.0884
 3439TIP3    H110323   4.596   2.005   2.535  2.1914 -0.5939  0.2512
 3439TIP3    H210324   4.646   1.902   2.633 -0.8023 -1.8789  0.5535
 3440TIP3   OH210325   1.754   4.037   4.354 -0.1044 -0.2357  0.6622
 3440TIP3    H110326   1.722   3.994   4.433  0.8775  1.9596  2.3598
 3440TIP3    H210327   1.770   4.128   4.381 -3.0638  1.6457 -2.8891
 3441TIP3   OH210328   4.208   5.229   0.731  0.6413 -0.0749  0.0173
 3441TIP3    H110329   4.124   5.203   0.767  0.9290 -1.6228 -0.3468
 3441TIP3    H210330   4.265   5.239   0.807  0.1261  1.0300  0.2661
 3442TIP3   OH210331   1.896   3.472   2.079 -0.8085  0.1893  0.7533
 3442TIP3    H110332   1.808   3.485   2.043 -1.2778 -0.0329  1.8043
 3442TIP3    H210333   1.884   3.411   2.151  0.3443 -0.5412  0.3524
 3443TIP3   OH210334   5.644   1.503   2.586 -0.2272 -0.1291  0.0801
 3443TIP3    H110335   5.552   1.495   2.561 -0.1258 -0.3124 -0.2401
 3443TIP3    H210336   5.658   1.434   2.650 -0.0766 -0.7092 -0.5696
 3444TIP3   OH210337   2.878   4.742   1.957  0.1248  0.4981  0.0641
 3444TIP3    H110338   2.876   4.705   1.869  1.8258 -0.1961  0.2949
 3444TIP3    H210339   2.970   4.744   1.981 -0.2455  1.3806  1.5518
 3445TIP3   OH210340   2.335   5.044   0.326  0.0275 -0.1710  0.3027
 3445TIP3    H110341   2.360   4.953   0.314 -0.3953 -0.2330 -0.1522
 3445TIP3    H210342   2.252   5.053   0.278 -0.4650  0.1955  1.2007
 3446TIP3   OH210343   3.324   2.032   2.372  0.0303 -0.3872 -0.2830
 3446TIP3    H110344   3.402   2.075   2.407  0.8197 -1.1358 -1.0852
 3446TIP3    H210345   3.264   2.028   2.446  0.8805 -0.1049  0.4402
 3447TIP3   OH210346   2.358   5.897   1.889  0.4152  0.8543  0.7421
 3447TIP3    H110347   2.446   5.885   1.925  0.0883 -1.6782  0.8621
 3447TIP3    H210348   2.302   5.909   1.966  0.6361  3.0130  0.6502
 3448TIP3   OH210349   5.907   5.639   0.884  0.2572  0.6880  0.1532
 3448TIP3    H110350   5.954   5.625   0.966  2.3443  2.3520 -0.6731
 3448TIP3    H210351   5.854   5.718   0.899  1.9023  1.9797 -0.5343
 3449TIP3   OH210352   4.700   2.709   4.737 -0.1772 -0.4793  0.0128
 3449TIP3    H110353   4.718   2.619   4.708 -0.3686 -0.4324 -0.2450
 3449TIP3    H210354   4.645   2.698   4.815 -0.8701 -0.5667 -0.4805
 3450TIP3   OH210355   5.429   4.782   0.630 -0.0969  0.0019  0.4660
 3450TIP3    H110356   5.466   4.865   0.600 -1.9992  0.0367 -2.1747
 3450TIP3    H210357   5.360   4.807   0.691 -0.7688  0.4169 -0.4399
 3451TIP3   OH210358   2.760   4.546   0.171 -0.1093  0.2617  0.0988
 3451TIP3    H110359   2.806   4.470   0.207  0.5092  0.8054  0.4760
 3451TIP3    H210360   2.753   4.607   0.244 -0.3244  0.7004 -0.2825
 3452TIP3   OH210361   2.380   0.873   1.162  0.0732  0.0849 -0.1212
 3452TIP3    H110362   2.295   0.880   1.119 -0.1629 -0.6022  0.2259
 3452TIP3    H210363   2.370   0.800   1.223  0.1807  1.4452  1.5940
 3453TIP3   OH210364   1.438   2.160   0.816 -0.2009  0.2083 -0.7521
 3453TIP3    H110365   1.518   2.124   0.854 -1.4343 -0.2869  1.5628
 3453TIP3    H210366   1.367   2.124   0.869 -1.9554  1.0804 -2.3533
 3454TIP3   OH210367   1.352   5.466   3.575 -0.7772 -0.3347  0.6675
 3454TIP3    H110368   1.283   5.433   3.633 -2.8448  2.3283 -0.0359
 3454TIP3    H210369   1.305   5.499   3.498  1.4031  0.7949 -0.2790
 3455TIP3   OH210370   2.067   1.287   1.476 -0.1593 -0.1351 -0.0928
 3455TIP3    H110371   2.005   1.253   1.541 -1.4344  0.2335 -1.0685
 3455TIP3    H210372   2.040   1.378   1.463 -0.3140 -0.3644 -1.5518
 3456TIP3   OH210373   1.764   3.633   4.410 -0.4629 -0.5196  0.5062
 3456TIP3    H110374   1.804   3.639   4.323  0.2385  0.4799  0.8913
 3456TIP3    H210375   1.800   3.706   4.459 -2.1103 -0.0862  1.1449
 3457TIP3   OH210376   3.760   3.122   2.058 -0.0387 -0.1189  0.0710
 3457TIP3    H110377   3.754   3.172   1.977  1.1630 -1.3496 -0.8217
 3457TIP3    H210378   3.706   3.045   2.044  0.4575 -0.5151  0.2964
 3458TIP3   OH210379   2.727   1.538   0.790  0.2136  0.3752 -0.1910
 3458TIP3    H110380   2.816   1.521   0.758  0.7645  1.0315  0.8891
 3458TIP3    H210381   2.730   1.510   0.882 -0.3078  1.5599  0.2118
 3459TIP3   OH210382   5.897   3.070   2.780  0.2796 -0.6040 -0.0714
 3459TIP3    H110383   5.848   3.112   2.708  2.1527  2.1193  0.0830
 3459TIP3    H210384   5.989   3.079   2.755  0.8692 -3.1872  0.8821
 3460TIP3   OH210385   4.632   5.829   1.335  0.5197 -0.2461 -0.2580
 3460TIP3    H110386   4.577   5.750   1.335  1.0971 -0.6891  1.1058
 3460TIP3    H210387   4.706   5.807   1.279  0.1553 -0.2823 -0.7277
 3461TIP3   OH210388   0.479   5.794   2.752  0.4144  0.5892 -0.4685
 3461TIP3    H110389   0.563   5.839   2.766  0.4272  0.0969  1.2164
 3461TIP3    H210390   0.422   5.826   2.822  0.2489 -1.5326  0.4415
 3462TIP3   OH210391   2.764   2.125   3.985 -0.2228  0.1743 -0.8171
 3462TIP3    H110392   2.683   2.170   4.006  0.4681  0.9909  0.2121
 3462TIP3    H210393   2.737   2.038   3.956 -1.3970 -0.2248  1.2830
 3463TIP3   OH210394   1.375   4.910   4.054 -0.3398  0.0243  0.0821
 3463TIP3    H110395   1.371   4.890   4.148  1.0020  0.6885  0.3053
 3463TIP3    H210396   1.466   4.937   4.039 -0.9373  1.5401 -1.0736
 3464TIP3   OH210397   4.360   4.537   1.266 -0.0499  0.4480  0.0139
 3464TIP3    H110398   4.297   4.562   1.198 -1.4503  0.9556  1.4367
 3464TIP3    H210399   4.400   4.619   1.293 -0.0534  0.3548  0.3067
 3465TIP3   OH210400   5.105   3.855   4.858  0.1098  0.4977 -0.6364
 3465TIP3    H110401   5.151   3.921   4.910  0.5543  1.2596 -1.9473
 3465TIP3    H210402   5.172   3.790   4.838 -0.5919 -1.0748  1.6711
 3466TIP3   OH210403   3.344   2.158   2.618 -0.1954  0.5049 -0.3530
 3466TIP3    H110404   3.378   2.245   2.637 -0.0075  0.5729 -0.9733
 3466TIP3    H210405   3.258   2.155   2.661 -1.0320  1.6762 -1.8783
 3467TIP3   OH210406   4.427   3.129   0.371  0.0516 -0.4462  0.2833
 3467TIP3    H110407   4.456   3.096   0.286 -0.1980 -1.4405  0.5721
 3467TIP3    H210408   4.348   3.078   0.390 -1.7923  1.9862 -0.3551
 3468TIP3   OH210409   5.604   0.586   3.676 -0.3906  0.3846  0.1592
 3468TIP3    H110410   5.572   0.625   3.594 -0.0121  0.2060 -0.0731
 3468TIP3    H210411   5.686   0.544   3.653 -0.8090 -0.6059  0.3888
 3469TIP3   OH210412   0.097   1.752   4.780  0.4307 -0.1411 -0.0743
 3469TIP3    H110413   0.160   1.786   4.842  1.1620 -0.1759 -0.7796
 3469TIP3    H210414   0.021   1.810   4.787  1.0011  0.6117 -0.0530
 3470TIP3   OH210415   5.851   1.592   3.189  0.4048 -0.2055  0.6374
 3470TIP3    H110416   5.925   1.652   3.190 -0.5432  1.0063  0.3717
 3470TIP3    H210417   5.778   1.643   3.224 -0.9013 -0.5467 -1.4335
 3471TIP3   OH210418   6.303   3.339   1.833 -0.0438  0.3212 -0.1522
 3471TIP3    H110419   6.355   3.404   1.785  0.2400  0.3012  0.1251
 3471TIP3    H210420   6.324   3.355   1.925 -0.8306  0.5780 -0.0025
 3472TIP3   OH210421   4.659   0.766   1.121 -0.8261 -0.1595 -0.3196
 3472TIP3    H110422   4.710   0.742   1.198 -0.9961 -0.0835 -0.1807
 3472TIP3    H210423   4.701   0.720   1.048  0.0392  0.6708 -0.3651
 3473TIP3   OH210424   0.289   0.308   3.109 -0.2829  0.3255 -0.0242
 3473TIP3    H110425   0.326   0.328   3.023 -2.7655  0.9848 -1.0299
 3473TIP3    H210426   0.329   0.372   3.168  0.7504  0.4798 -0.8693
 3474TIP3   OH210427   0.268   0.601   5.125  0.4534  0.3309  0.3744
 3474TIP3    H110428   0.174   0.618   5.140  0.3592  0.4420 -0.3241
 3474TIP3    H210429   0.280   0.509   5.149  0.1633  0.3144  0.4603
 3475TIP3   OH210430   2.203   3.049   1.860  0.0595 -0.1718  0.0776
 3475TIP3    H110431   2.294   3.073   1.876 -0.5213  1.6730  0.8859
 3475TIP3    H210432   2.182   2.985   1.928  0.8472 -0.9481 -0.3840
 3476TIP3   OH210433   3.576   1.900   5.142 -0.5072 -0.0158 -0.0010
 3476TIP3    H110434   3.636   1.888   5.068 -0.5749 -0.2442 -0.0176
 3476TIP3    H210435   3.523   1.821   5.143 -0.7257  0.1327  0.0927
 3477TIP3   OH210436   0.133   2.438   2.718 -0.1756 -0.0838  0.0764
 3477TIP3    H110437   0.114   2.503   2.650 -1.1259  0.8120  1.1637
 3477TIP3    H210438   0.172   2.364   2.670  0.6393  1.1398 -1.2279
 3478TIP3   OH210439   0.751   4.886   3.025 -0.4411  0.5226  0.9067
 3478TIP3    H110440   0.755   4.855   2.935  1.0977  0.8901  0.8231
 3478TIP3    H210441   0.673   4.844   3.062 -1.7183  1.2201 -0.8937
 3479TIP3   OH210442   3.389   3.270   1.242  0.3261 -0.0958  0.1852
 3479TIP3    H110443   3.367   3.295   1.153  1.8160 -1.0181 -0.4787
 3479TIP3    H210444   3.316   3.215   1.271 -1.0501  1.6769  0.2380
 3480TIP3   OH210445   3.084   4.885   2.247  0.1224 -0.0801  0.2162
 3480TIP3    H110446   3.064   4.897   2.154 -2.1117  1.7907  0.8595
 3480TIP3    H210447   3.156   4.946   2.264 -0.2693  0.4646 -0.0481
 3481TIP3   OH210448   1.299   0.730   3.702 -0.3689  0.4611 -0.2206
 3481TIP3    H110449   1.212   0.709   3.736 -0.6983  1.2260 -0.5936
 3481TIP3    H210450   1.296   0.823   3.683  0.9793  0.7997  1.0795
 3482TIP3   OH210451   4.124   1.742   2.694 -0.4150  0.0916 -0.3930
 3482TIP3    H110452   4.038   1.748   2.653 -0.4146 -0.9137 -0.5684
 3482TIP3    H210453   4.131   1.650   2.721  0.5700  0.1868 -0.3063
 3483TIP3   OH210454   4.470   4.048   0.844  0.1864 -0.0237  0.4622
 3483TIP3    H110455   4.543   4.001   0.884  0.7336  1.4755  1.2824
 3483TIP3    H210456   4.509   4.100   0.774 -0.2599 -0.0225  0.2079
 3484TIP3   OH210457   3.405   1.866   3.472 -0.2521  0.2706  0.3674
 3484TIP3    H110458   3.359   1.784   3.490 -1.3738  0.3585 -1.8340
 3484TIP3    H210459   3.342   1.934   3.493 -0.3814  0.4625 -0.6153
 3485TIP3   OH210460   5.180   5.486   2.985  0.2850 -0.3595  0.2982
 3485TIP3    H110461   5.145   5.455   2.901 -1.7865 -3.1955  2.0147
 3485TIP3    H210462   5.275   5.482   2.975  0.0958 -0.5542 -1.8802
 3486TIP3   OH210463   4.840   5.366   2.248 -0.3209 -0.0342  0.1124
 3486TIP3    H110464   4.773   5.434   2.245 -1.7592 -1.3743  0.5425
 3486TIP3    H210465   4.896   5.385   2.173 -3.3512 -0.9482 -2.6282
 3487TIP3   OH210466   6.200   0.117   3.151  0.0879 -0.1890  0.2133
 3487TIP3    H110467   6.117   0.131   3.197  0.2131 -0.2848  0.4759
 3487TIP3    H210468   6.256   0.190   3.180 -0.1010  0.2180 -0.4358
 3488TIP3   OH210469   5.922   3.482   1.394 -0.1332  0.1452  0.0080
 3488TIP3    H110470   5.855   3.518   1.453 -1.4078 -1.1670 -0.5923
 3488TIP3    H210471   5.875   3.462   1.314  0.5862 -2.4199  0.1404
 3489TIP3   OH210472   6.244   1.126   2.718  0.0973 -0.4117  0.3529
 3489TIP3    H110473   6.255   1.199   2.778 -0.9669  0.8652 -0.9396
 3489TIP3    H210474   6.197   1.060   2.768  1.1101 -0.2626  1.5460
 3490TIP3   OH210475   3.714   5.085   0.624  0.0522 -0.1490  0.0623
 3490TIP3    H110476   3.646   5.024   0.596 -0.3272  0.9215 -1.4855
 3490TIP3    H210477   3.666   5.155   0.669  0.4018 -0.5383  1.0759
 3491TIP3   OH210478   0.189   3.863   2.438 -0.0093  0.0793  0.1583
 3491TIP3    H110479   0.155   3.774   2.437  1.1881 -0.4272  1.0803
 3491TIP3    H210480   0.277   3.855   2.399 -0.3320  1.0707 -0.8141
 3492TIP3   OH210481   0.471   4.322   2.732 -0.0652  0.0175  0.1572
 3492TIP3    H110482   0.565   4.341   2.724  0.1909 -1.4848 -0.9552
 3492TIP3    H210483   0.468   4.240   2.781 -0.8209  0.0859  0.2304
 3493TIP3   OH210484   0.395   1.928   2.002 -0.4478 -0.0485 -0.1150
 3493TIP3    H110485   0.408   2.023   1.998 -0.2942 -0.0911 -0.7777
 3493TIP3    H210486   0.401   1.906   2.095  2.3928  0.1725 -0.1844
 3494TIP3   OH210487   3.781   3.789   1.733 -0.0654 -0.2908 -0.9586
 3494TIP3    H110488   3.850   3.829   1.786 -0.5614 -2.0026  1.1383
 3494TIP3    H210489   3.822   3.711   1.696 -0.6179 -0.9322 -0.2715
 3495TIP3   OH210490   4.519   4.121   4.026  0.1796  0.1468  0.1752
 3495TIP3    H110491   4.439   4.082   4.060 -0.5344 -0.9199 -2.4743
 3495TIP3    H210492   4.490   4.194   3.972  1.1488  0.9434  0.6881
 3496TIP3   OH210493   2.147   0.296   0.877 -0.0806  0.1635  0.2142
 3496TIP3    H110494   2.115   0.345   0.953  0.8731 -1.5881  1.8052
 3496TIP3    H210495   2.237   0.327   0.864 -0.7632  1.6704 -1.3160
 3497TIP3   OH210496   3.478   4.778   2.950  0.0217  0.3267  0.4917
 3497TIP3    H110497   3.405   4.735   2.904  1.2404 -1.3525  0.0334
 3497TIP3    H210498   3.487   4.863   2.907 -1.0782  0.1860 -0.0540
 3498TIP3   OH210499   4.724   4.012   2.924  0.3557  0.2909  0.1473
 3498TIP3    H110500   4.736   3.982   3.014  1.2247  2.7982  0.9590
 3498TIP3    H210501   4.813   4.031   2.894  0.2797 -2.1189 -1.9483
 3499TIP3   OH210502   1.070   2.941   1.856  0.2800 -0.0042 -0.4713
 3499TIP3    H110503   1.080   2.861   1.908 -1.3339  0.7276  1.0560
 3499TIP3    H210504   1.142   2.998   1.885 -1.2633  0.8426  1.9161
 3500TIP3   OH210505   3.258   2.343   4.514  0.1804  0.6269  0.1775
 3500TIP3    H110506   3.284   2.330   4.605  0.3145 -3.9513 -0.2772
 3500TIP3    H210507   3.337   2.322   4.463 -0.1723  2.1239 -1.0740
 3501TIP3   OH210508   3.068   2.480   0.480  0.0997 -0.7273  0.5701
 3501TIP3    H110509   2.988   2.530   0.465  0.7620 -0.1345 -1.2175
 3501TIP3    H210510   3.136   2.527   0.433  1.9845 -0.1470  3.5757
 3502TIP3   OH210511   5.923   2.560   1.322 -0.3318  0.3692 -0.6618
 3502TIP3    H110512   5.895   2.617   1.394  3.3434  1.0572  0.4698
 3502TIP3    H210513   5.945   2.477   1.365  0.7476  0.3791 -1.1693
 3503TIP3   OH210514   1.230   2.334   2.458  0.4306  0.4504  0.0325
 3503TIP3    H110515   1.302   2.272   2.452 -0.2673 -0.3342 -4.3062
 3503TIP3    H210516   1.266   2.416   2.425 -0.5968 -0.0895 -2.7086
 3504TIP3   OH210517   3.813   3.025   4.236  0.0534 -0.0725 -0.1955
 3504TIP3    H110518   3.814   2.931   4.251  2.2593  0.0626  1.0009
 3504TIP3    H210519   3.866   3.038   4.157 -1.0916  0.1226 -0.9523
 3505TIP3   OH210520   2.585   5.245   3.457  0.1335 -0.3882  0.6562
 3505TIP3    H110521   2.680   5.258   3.448  0.3027  0.1707  2.8136
 3505TIP3    H210522   2.577   5.175   3.522 -0.9137  0.9063  1.9697
 3506TIP3   OH210523   3.253   3.460   2.820  0.5192 -0.0087 -0.3624
 3506TIP3    H110524   3.227   3.400   2.749  0.3104 -0.4513  0.0820
 3506TIP3    H210525   3.346   3.477   2.805  0.4838 -0.1243 -0.7228
 3507TIP3   OH210526   5.071   5.217   0.375 -0.0493 -0.1345  0.4876
 3507TIP3    H110527   5.165   5.203   0.389 -0.2972 -1.0999  1.2510
 3507TIP3    H210528   5.038   5.244   0.460 -0.9900 -2.8101  1.0364
 3508TIP3   OH210529   4.960   2.938  -0.006  0.2136  0.1249 -0.0548
 3508TIP3    H110530   5.041   2.892   0.015 -0.9783 -1.5981  1.0600
 3508TIP3    H210531   4.900   2.915   0.065 -1.5402  0.5867 -1.3089
 3509TIP3   OH210532   3.547   4.897   4.866 -0.2790 -0.0428  0.8417
 3509TIP3    H110533   3.491   4.975   4.867 -0.9642 -0.5327  1.2361
 3509TIP3    H210534   3.500   4.835   4.810  0.0489 -0.3368  0.8926
 3510TIP3   OH210535   2.340   1.973   5.174 -0.0479 -0.1604 -0.1967
 3510TIP3    H110536   2.398   1.985   5.099  0.4144  0.9053  0.3203
 3510TIP3    H210537   2.398   1.943   5.244 -0.4018 -0.6845 -0.1201
 3511TIP3   OH210538   5.931   3.140   1.861  0.5939  0.2675 -0.4703
 3511TIP3    H110539   5.901   3.228   1.884  0.0827 -0.1971  0.7205
 3511TIP3    H210540   5.889   3.121   1.778  1.4399  1.4902 -1.2092
 3512TIP3   OH210541   3.703   2.027   1.707 -0.6285  0.3935 -0.2124
 3512TIP3    H110542   3.712   1.947   1.657 -0.6896  0.4658 -0.3401
 3512TIP3    H210543   3.705   1.999   1.798  1.2851  0.4346 -0.2088
 3513TIP3   OH210544   3.448   2.541   1.109 -0.1056 -0.0397 -0.2545
 3513TIP3    H110545   3.519   2.492   1.151  0.3928 -0.0457 -1.0860
 3513TIP3    H210546   3.397   2.474   1.063 -0.1346  0.0760 -0.3901
 3514TIP3   OH210547   6.293   5.497   3.941 -0.5466 -0.1062 -0.2384
 3514TIP3    H110548   6.345   5.571   3.974  0.0846 -0.1705 -1.0598
 3514TIP3    H210549   6.285   5.439   4.016 -0.8106  0.6642  0.3446
 3515TIP3   OH210550   3.187   0.504   0.104  0.2422  0.1978  0.6267
 3515TIP3    H110551   3.272   0.515   0.146  0.3873 -0.6406  0.5779
 3515TIP3    H210552   3.198   0.427   0.047 -0.4531  0.2689  0.3840
 3516TIP3   OH210553   1.321   4.287   3.965 -0.7119 -0.4625  0.4654
 3516TIP3    H110554   1.343   4.258   4.053 -1.2536 -1.3354  0.3276
 3516TIP3    H210555   1.291   4.208   3.920 -1.7704  0.2216 -0.0844
 3517TIP3   OH210556   1.063   1.551   4.962  0.5495 -0.3638 -0.4077
 3517TIP3    H110557   0.974   1.521   4.979  0.2159  0.4754 -0.5911
 3517TIP3    H210558   1.072   1.548   4.867  0.1859  0.9250 -0.5127
 3518TIP3   OH210559   3.413   4.149   3.088 -1.3350  0.2903  0.0499
 3518TIP3    H110560   3.396   4.240   3.063 -1.1414  1.0777  2.5751
 3518TIP3    H210561   3.327   4.107   3.083 -1.4857  0.6706 -0.8250
 3519TIP3   OH210562   6.277   5.885   2.995 -0.6650 -0.0170 -0.0085
 3519TIP3    H110563   6.196   5.870   3.044 -1.6488  1.3282 -1.1428
 3519TIP3    H210564   6.291   5.803   2.947 -0.7563 -0.6370  0.9893
 3520TIP3   OH210565   2.190   1.410   4.557  0.3022 -0.3304  0.0448
 3520TIP3    H110566   2.204   1.334   4.614  0.3372 -0.2296  0.1702
 3520TIP3    H210567   2.262   1.469   4.577  0.7926 -0.6588 -0.7130
 3521TIP3   OH210568   5.391   0.951   4.785  0.3633  0.0789  0.3361
 3521TIP3    H110569   5.426   1.040   4.793  0.7034 -0.1264  1.3355
 3521TIP3    H210570   5.464   0.895   4.811 -0.0470 -0.4602  0.3215
 3522TIP3   OH210571   1.617   0.561   3.998 -0.2577  0.5388  0.0889
 3522TIP3    H110572   1.558   0.486   3.999 -1.1400  1.1936 -0.6696
 3522TIP3    H210573   1.565   0.633   4.034 -0.9699  1.8076 -3.0840
 3523TIP3   OH210574   3.692   2.916   1.651 -0.5652  0.3095 -0.4890
 3523TIP3    H110575   3.627   2.986   1.652 -0.9392 -0.0283  0.0982
 3523TIP3    H210576   3.640   2.836   1.658 -0.0649  0.0640  0.6820
 3524TIP3   OH210577   3.080   4.924   2.791  0.0584 -0.6423 -0.5181
 3524TIP3    H110578   3.112   4.835   2.808  0.4484 -0.5889 -0.9481
 3524TIP3    H210579   3.070   4.928   2.696  0.0162 -0.2324 -0.4987
 3525TIP3   OH210580   5.234   4.460   2.710 -1.2871 -0.3942 -0.4305
 3525TIP3    H110581   5.188   4.403   2.647 -2.4496  0.7578 -0.6556
 3525TIP3    H210582   5.291   4.514   2.655 -0.2246 -1.2513 -0.2200
 3526TIP3   OH210583   5.311   1.701   2.253 -0.2450 -0.2072 -0.3745
 3526TIP3    H110584   5.352   1.618   2.277  0.2615 -0.0940 -0.8157
 3526TIP3    H210585   5.294   1.744   2.336  0.0109 -0.5113 -0.1625
 3527TIP3   OH210586   2.466   4.431   0.647 -0.1007  0.9909  0.8638
 3527TIP3    H110587   2.520   4.366   0.600  0.6250  1.7288  0.6499
 3527TIP3    H210588   2.485   4.414   0.739  1.2525  1.8288  0.7769
 3528TIP3   OH210589   5.897   2.909   0.831 -0.2930 -0.7000  0.1684
 3528TIP3    H110590   5.810   2.919   0.791 -0.0782 -1.3273 -0.4676
 3528TIP3    H210591   5.897   2.972   0.903 -1.0747 -0.2933 -0.1709
 3529TIP3   OH210592   0.620   0.733   4.459  0.8708 -0.5323  0.5377
 3529TIP3    H110593   0.582   0.768   4.379  2.1833 -3.6033 -1.6451
 3529TIP3    H210594   0.545   0.700   4.509  0.1221  0.3858  0.0349
 3530TIP3   OH210595   3.557   3.164   4.210 -0.5981  0.1044 -0.5162
 3530TIP3    H110596   3.641   3.118   4.223  0.0966  1.9706  2.3395
 3530TIP3    H210597   3.496   3.120   4.269 -1.2953 -0.3069 -1.5118
 3531TIP3   OH210598   5.216   0.213   0.308  0.0009  0.3233  0.0664
 3531TIP3    H110599   5.307   0.202   0.333  0.1958  0.6359 -0.4917
 3531TIP3    H210600   5.214   0.293   0.255 -1.1941  2.5437  3.1568
 3532TIP3   OH210601   5.108   0.526   3.393 -0.5593 -0.4343 -0.3190
 3532TIP3    H110602   5.130   0.445   3.440  0.7295  0.1727  0.1780
 3532TIP3    H210603   5.131   0.596   3.455  2.9283  0.4900 -2.3972
 3533TIP3   OH210604   5.433   1.664   1.431 -0.4024  0.3292  0.3855
 3533TIP3    H110605   5.460   1.720   1.358 -2.3987  1.1435  0.1847
 3533TIP3    H210606   5.397   1.725   1.495  0.1206 -0.4993  1.4977
 3534TIP3   OH210607   0.661   3.777   1.176 -0.2879 -0.3059  0.3473
 3534TIP3    H110608   0.614   3.815   1.102 -0.5163 -0.6304  0.3239
 3534TIP3    H210609   0.592   3.740   1.231 -0.3442  1.7843  1.8249
 3535TIP3   OH210610   1.887   2.098   1.950  0.1990 -0.3416 -0.2664
 3535TIP3    H110611   1.814   2.158   1.962 -0.1011 -0.7131 -0.2092
 3535TIP3    H210612   1.851   2.025   1.900  0.3839 -0.7922  0.2440
 3536TIP3   OH210613   4.561   4.511   4.241 -0.1347  0.0470 -0.1780
 3536TIP3    H110614   4.614   4.444   4.196  1.6082  1.2616 -0.0187
 3536TIP3    H210615   4.490   4.530   4.179  1.6600  0.9868 -2.0623
 3537TIP3   OH210616   4.289   3.720   2.119 -0.9879  0.0996  0.2971
 3537TIP3    H110617   4.228   3.793   2.127  0.3505  1.2517  0.4646
 3537TIP3    H210618   4.309   3.695   2.209 -3.7187 -2.5592  0.3109
 3538TIP3   OH210619   2.533   3.403   5.200  0.2327 -0.0364  0.2664
 3538TIP3    H110620   2.592   3.477   5.211 -2.1945  1.8079  1.8222
 3538TIP3    H210621   2.488   3.420   5.118 -1.3945  1.0940  1.3476
 3539TIP3   OH210622   2.046   3.925   2.859 -0.3215  0.4092 -0.2489
 3539TIP3    H110623   2.064   3.983   2.933 -0.2065 -0.3569  0.3317
 3539TIP3    H210624   2.130   3.882   2.842 -0.5947 -0.1651 -0.1648
 3540TIP3   OH210625   5.376   0.780   2.789 -0.1568 -0.4126 -0.4565
 3540TIP3    H110626   5.406   0.787   2.880 -1.4896  2.6655 -0.1322
 3540TIP3    H210627   5.288   0.743   2.795  0.3978 -1.8482 -0.7100
 3541TIP3   OH210628   3.888   4.826   0.869 -0.4859  0.4717  0.1070
 3541TIP3    H110629   3.956   4.808   0.933  0.5176  0.9703 -0.7917
 3541TIP3    H210630   3.846   4.741   0.854  0.0205  0.1297  0.5683
 3542TIP3   OH210631   1.842   0.928   4.874 -0.6298 -0.0554 -0.5993
 3542TIP3    H110632   1.833   0.960   4.964  0.2248  0.2727 -0.6152
 3542TIP3    H210633   1.804   0.840   4.876 -0.9311  0.0820 -0.0019
 3543TIP3   OH210634   2.784   4.065   3.382 -0.3845  0.2065 -0.0578
 3543TIP3    H110635   2.697   4.103   3.370 -0.6540 -0.3979 -0.0229
 3543TIP3    H210636   2.842   4.126   3.336 -0.8397  0.5282 -0.2181
 3544TIP3   OH210637   6.181   4.725   1.331  0.1453  0.3639  0.4160
 3544TIP3    H110638   6.127   4.757   1.259  0.6540  0.4787  0.0767
 3544TIP3    H210639   6.269   4.757   1.311  0.4341 -0.2252  0.7048
 3545TIP3   OH210640   0.684   3.504   1.590 -0.3923  0.3064 -0.1271
 3545TIP3    H110641   0.753   3.514   1.524 -0.0130  0.7208  0.3295
 3545TIP3    H210642   0.726   3.524   1.673 -0.7489 -0.6810  0.3079
 3546TIP3   OH210643   4.234   3.648   1.850  0.4637  0.4132  0.2700
 3546TIP3    H110644   4.257   3.661   1.942 -1.0491  0.4390  0.6782
 3546TIP3    H210645   4.248   3.554   1.835 -0.8263  0.0716  1.0178
 3547TIP3   OH210646   5.747   0.304   5.091 -0.4917 -0.1536  0.2499
 3547TIP3    H110647   5.659   0.271   5.076 -1.2730  1.7234  0.4294
 3547TIP3    H210648   5.749   0.388   5.045  0.8683  0.2984  1.0752
 3548TIP3   OH210649   0.692   0.417   3.088 -0.2680 -0.9360  0.4964
 3548TIP3    H110650   0.622   0.449   3.032  1.4039 -0.9932 -1.7791
 3548TIP3    H210651   0.688   0.472   3.166 -3.1144 -1.2979  0.7216
 3549TIP3   OH210652   4.073   4.957   4.239 -0.1408  0.0814  0.1251
 3549TIP3    H110653   4.111   4.926   4.321 -0.4013 -0.1247  0.1677
 3549TIP3    H210654   4.092   4.887   4.176 -1.9943 -0.8559  0.5522
 3550TIP3   OH210655   1.587   0.077   3.813 -0.2982 -0.9958  0.3170
 3550TIP3    H110656   1.514   0.074   3.875 -1.5005  1.8559 -0.7803
 3550TIP3    H210657   1.665   0.079   3.869 -1.3438  2.1298  1.9307
 3551TIP3   OH210658   6.242   2.733   1.560  0.8585  0.2353 -0.1072
 3551TIP3    H110659   6.298   2.809   1.544  2.6262 -1.0391 -0.3255
 3551TIP3    H210660   6.212   2.707   1.473  0.8205  0.2890 -0.1100
 3552TIP3   OH210661   2.718   3.656   1.338  0.8554  0.1646  0.1547
 3552TIP3    H110662   2.629   3.673   1.306  0.1114  0.2352  2.1343
 3552TIP3    H210663   2.705   3.611   1.421  2.7098 -0.7641 -0.0161
 3553TIP3   OH210664   1.328   4.327   4.728  0.1309  0.6096  0.0147
 3553TIP3    H110665   1.321   4.232   4.729  0.8803  0.5112  2.0582
 3553TIP3    H210666   1.237   4.357   4.740 -0.3593  0.2573 -2.3712
 3554TIP3   OH210667   6.300   2.196   3.300 -0.0868  0.0376 -0.0834
 3554TIP3    H110668   6.388   2.187   3.265 -0.4592  1.2552 -1.4309
 3554TIP3    H210669   6.275   2.108   3.326  1.3641 -0.3858 -0.0663
 3555TIP3   OH210670   0.203   5.394   5.163  0.4522  0.1363 -0.6429
 3555TIP3    H110671   0.207   5.468   5.102 -0.5012  0.1656 -0.6841
 3555TIP3    H210672   0.120   5.350   5.143  1.4272 -1.5199 -1.2593
 3556TIP3   OH210673   5.441   5.271   1.119 -0.7004 -0.0663 -0.1156
 3556TIP3    H110674   5.445   5.191   1.171  1.6070  1.2891  2.0169
 3556TIP3    H210675   5.395   5.334   1.174  3.3610  1.9531  1.4225
 3557TIP3   OH210676   2.027   5.991   2.553 -0.2618  0.3150  0.0945
 3557TIP3    H110677   2.069   6.011   2.637  2.6393 -1.7529 -0.6814
 3557TIP3    H210678   1.960   5.926   2.575  0.6435 -0.4032  0.8311
 3558TIP3   OH210679   2.551   3.209   3.379 -0.2062 -0.0296 -0.1228
 3558TIP3    H110680   2.513   3.177   3.460 -0.8478  0.0501 -0.3919
 3558TIP3    H210681   2.597   3.289   3.405  2.4340 -1.6895  0.7862
 3559TIP3   OH210682   5.371   1.551   2.654 -0.2130 -0.1992 -0.0083
 3559TIP3    H110683   5.329   1.483   2.601  0.1819  0.0586 -0.6687
 3559TIP3    H210684   5.389   1.509   2.738 -0.4997 -0.7354 -0.2116
 3560TIP3   OH210685   4.754   3.856   4.543 -0.5637  0.0938 -0.1689
 3560TIP3    H110686   4.784   3.878   4.455 -0.3156  2.4850  0.4399
 3560TIP3    H210687   4.811   3.906   4.601 -1.9895  0.1171  1.2709
 3561TIP3   OH210688   5.457   0.352   1.104  0.1484 -0.1331 -0.6234
 3561TIP3    H110689   5.481   0.429   1.156  0.3412 -0.2261 -0.5738
 3561TIP3    H210690   5.533   0.337   1.048  0.0186 -0.1509 -0.7947
 3562TIP3   OH210691   3.671   3.951   3.359 -0.2345 -0.0246  0.4668
 3562TIP3    H110692   3.733   3.955   3.432  1.6708  0.2431 -1.0909
 3562TIP3    H210693   3.588   3.927   3.400 -0.1254  3.4111  3.2306
 3563TIP3   OH210694   2.489   0.352  -0.035 -0.1743  0.0774  0.1209
 3563TIP3    H110695   2.426   0.385   0.029 -0.8398 -1.5960  0.3708
 3563TIP3    H210696   2.527   0.275   0.006  1.2095  0.3814 -0.5192
 3564TIP3   OH210697   3.958   1.628   3.600 -0.0715 -0.1278  0.0673
 3564TIP3    H110698   3.881   1.571   3.599  0.5874 -1.0473  0.5822
 3564TIP3    H210699   4.016   1.593   3.533 -0.8138  1.6495 -1.6124
 3565TIP3   OH210700   2.950   0.463   3.507  0.2015 -0.0479 -0.1553
 3565TIP3    H110701   3.031   0.412   3.516  0.4236  0.0513 -1.4176
 3565TIP3    H210702   2.890   0.404   3.461  0.8910  1.2305 -2.8295
 3566TIP3   OH210703   1.597   1.712   4.223  0.6433 -0.5494  0.2841
 3566TIP3    H110704   1.672   1.726   4.281  0.1427  0.6822  0.6658
 3566TIP3    H210705   1.573   1.800   4.193 -1.4783 -0.7416  1.2442
 3567TIP3   OH210706   1.860   1.125   3.867  0.0319 -0.2995  0.1942
 3567TIP3    H110707   1.819   1.106   3.782  0.4951  1.9729 -0.5925
 3567TIP3    H210708   1.788   1.155   3.922 -0.1677 -1.2003  0.4420
 3568TIP3   OH210709   1.937   3.016   4.818 -0.1363  0.0752  0.2151
 3568TIP3    H110710   1.886   3.004   4.737  1.5770 -3.5537 -0.5394
 3568TIP3    H210711   2.020   3.052   4.788  0.2552 -0.6286  0.4562
 3569TIP3   OH210712   5.780   2.928   0.379 -0.0165  0.6764  0.4824
 3569TIP3    H110713   5.719   2.996   0.406  0.1353  0.8491  0.3872
 3569TIP3    H210714   5.816   2.894   0.461  0.6979  1.4307  0.4857
 3570TIP3   OH210715   2.750   2.885   1.124  0.0810  0.0050 -0.2648
 3570TIP3    H110716   2.735   2.967   1.171 -0.7875 -0.5615  0.4872
 3570TIP3    H210717   2.729   2.905   1.033 -0.6220  0.4883 -0.0047
 3571TIP3   OH210718   4.516   3.342   4.438  0.2930  0.6486  0.1242
 3571TIP3    H110719   4.455   3.270   4.423 -1.4161  2.3645 -1.8758
 3571TIP3    H210720   4.537   3.338   4.531 -2.5905 -0.2934  0.8147
 3572TIP3   OH210721   2.027   2.355   0.935 -0.4097  0.4013 -0.0784
 3572TIP3    H110722   2.069   2.425   0.884 -0.0723  0.1597 -0.1393
 3572TIP3    H210723   1.974   2.401   1.000  0.6053  0.7163  0.5375
 3573TIP3   OH210724   4.460   2.070   3.757  0.4174  0.6497 -0.6389
 3573TIP3    H110725   4.472   2.114   3.841  1.5526  0.0165 -0.4540
 3573TIP3    H210726   4.425   2.138   3.699 -0.7703  0.9974  0.4295
 3574TIP3   OH210727   1.078   1.931   2.329 -0.2640  0.4125  0.9333
 3574TIP3    H110728   1.124   1.853   2.360 -0.1025  0.1706  0.1152
 3574TIP3    H210729   1.008   1.945   2.393 -0.9890 -1.0527  0.5033
 3575TIP3   OH210730   2.625   3.990   5.153 -0.2519 -0.0922 -1.0328
 3575TIP3    H110731   2.633   3.901   5.188  0.7059  0.4624  0.2445
 3575TIP3    H210732   2.541   4.022   5.186 -0.3662 -0.3364 -1.0853
 3576TIP3   OH210733   1.596   2.955   0.433 -0.1693 -0.0175  0.3974
 3576TIP3    H110734   1.590   2.958   0.338  0.7977  0.4573  0.3465
 3576TIP3    H210735   1.651   2.880   0.452  0.1706  0.2709  0.5575
 3577TIP3   OH210736   4.237   1.196   4.675  0.1242 -1.2262  0.0461
 3577TIP3    H110737   4.323   1.182   4.714  0.3805  1.5688  0.6406
 3577TIP3    H210738   4.229   1.291   4.668 -2.3212 -1.4729 -1.3713
 3578TIP3   OH210739   2.186   3.077   0.185 -0.5407  0.1191 -0.0846
 3578TIP3    H110740   2.124   3.035   0.244 -0.0156 -0.4214  0.0913
 3578TIP3    H210741   2.214   3.007   0.125  2.0202 -0.4181  1.5893
 3579TIP3   OH210742   5.721   2.504   3.348  0.3037 -0.4901  0.2663
 3579TIP3    H110743   5.678   2.444   3.287  0.8897 -0.4312 -0.2115
 3579TIP3    H210744   5.763   2.569   3.292 -0.2029  0.2892  0.7743
 3580TIP3   OH210745   1.387   4.821   3.122 -0.0040  0.5203 -0.6567
 3580TIP3    H110746   1.363   4.748   3.064  1.1517  0.6197 -1.2802
 3580TIP3    H210747   1.429   4.779   3.197  0.4557  0.5197 -0.9098
 3581TIP3   OH210748   5.778   3.039   3.835 -0.3127 -0.5714  0.3605
 3581TIP3    H110749   5.683   3.023   3.828 -0.2577 -0.2687 -2.0958
 3581TIP3    H210750   5.785   3.114   3.893 -1.7525  0.4597 -0.6978
 3582TIP3   OH210751   2.162   4.155   2.968 -0.4798 -0.3469  0.2237
 3582TIP3    H110752   2.122   4.236   3.001  0.1000 -0.3006  0.8114
 3582TIP3    H210753   2.206   4.181   2.887 -1.1038 -0.2743 -0.1015
 3583TIP3   OH210754   6.365   4.348   0.755  0.0599 -0.2519  0.3157
 3583TIP3    H110755   6.398   4.435   0.776  1.3339 -0.8991  1.0529
 3583TIP3    H210756   6.273   4.350   0.783  0.3652  0.5095  1.3232
 3584TIP3   OH210757   4.932   3.591   4.475  0.5637  0.2343 -0.4628
 3584TIP3    H110758   4.967   3.610   4.562  0.5313 -1.2290 -0.0994
 3584TIP3    H210759   4.845   3.554   4.493  0.7119 -0.4320 -1.0843
 3585TIP3   OH210760   3.757   4.793   0.189  0.3554 -0.2955  0.1462
 3585TIP3    H110761   3.667   4.818   0.173  0.5031  0.1079 -0.0675
 3585TIP3    H210762   3.807   4.838   0.121  0.7692 -0.1171  0.5644
 3586TIP3   OH210763   5.613   4.507   2.743  0.2163  0.0442 -0.1833
 3586TIP3    H110764   5.703   4.495   2.774  0.4466  2.4105  0.2685
 3586TIP3    H210765   5.585   4.420   2.715  1.0052 -1.7763  3.9432
 3587TIP3   OH210766   2.380   4.844   1.744 -0.1877  0.0746  0.2027
 3587TIP3    H110767   2.465   4.839   1.790 -0.2324  1.2077  0.4347
 3587TIP3    H210768   2.340   4.924   1.778 -1.3581 -0.4552  0.0883
 3588TIP3   OH210769   3.928   1.831   0.990  0.1317 -0.0992 -0.5497
 3588TIP3    H110770   3.889   1.918   0.998  0.5436  0.1508 -1.2178
 3588TIP3    H210771   3.860   1.778   0.948 -1.1035 -0.7867  2.1186
 3589TIP3   OH210772   1.420   4.706   4.577  0.1744 -0.8755 -0.7428
 3589TIP3    H110773   1.443   4.799   4.581 -1.5797 -0.3999 -0.5659
 3589TIP3    H210774   1.425   4.677   4.668  3.2045 -1.6860 -1.0630
 3590TIP3   OH210775   5.276   2.365   1.236  0.0386  0.1196 -0.4124
 3590TIP3    H110776   5.235   2.386   1.319  0.8681 -1.6603  0.5212
 3590TIP3    H210777   5.369   2.352   1.258  0.2952 -0.2592 -1.6233
 3591TIP3   OH210778   4.890   2.073   2.932  0.7933  0.2407 -0.4117
 3591TIP3    H110779   4.977   2.108   2.911  0.3862  2.0863  0.6899
 3591TIP3    H210780   4.831   2.146   2.915 -0.3794 -0.5435  0.1890
 3592TIP3   OH210781   6.100   4.297   0.817 -0.6304  1.3358  0.0328
 3592TIP3    H110782   6.035   4.247   0.868 -0.7519  1.4448 -0.0155
 3592TIP3    H210783   6.053   4.323   0.738 -0.7655  2.0831  0.3479
 3593TIP3   OH210784   1.543   5.971   3.054  0.2234 -0.9223  0.3766
 3593TIP3    H110785   1.469   5.996   3.110  0.5785 -2.0201  1.3970
 3593TIP3    H210786   1.618   5.969   3.114  1.0445 -0.0992 -0.5878
 3594TIP3   OH210787   5.464   1.461   2.908  0.0715 -0.3040  0.6083
 3594TIP3    H110788   5.547   1.414   2.918  1.3738  2.2197  2.6333
 3594TIP3    H210789   5.450   1.505   2.991 -1.7836  1.7629 -0.6646
 3595TIP3   OH210790   3.990   2.063   4.238 -0.0412 -0.3600  0.0149
 3595TIP3    H110791   3.973   2.070   4.144 -2.0074  1.7755  0.4392
 3595TIP3    H210792   3.907   2.035   4.276 -1.3531  4.6228  1.5977
 3596TIP3   OH210793   2.021   5.669   5.114 -0.0613 -0.1059 -0.2397
 3596TIP3    H110794   1.965   5.626   5.049 -0.9484  0.0811  0.3917
 3596TIP3    H210795   1.969   5.671   5.194  0.6877  0.4586  0.2509
 3597TIP3   OH210796   2.396   0.106   3.511  0.4434 -0.2589 -0.2863
 3597TIP3    H110797   2.481   0.121   3.469 -0.4782  3.2234 -1.2931
 3597TIP3    H210798   2.332   0.122   3.442 -1.1455 -3.6802  0.2171
 3598TIP3   OH210799   1.918   2.646  -0.019  0.3616 -1.0428 -0.0862
 3598TIP3    H110800   1.940   2.680   0.068  2.6874 -1.4105 -0.4712
 3598TIP3    H210801   1.837   2.691  -0.043  1.8009  2.1177  0.5726
 3599TIP3   OH210802   5.628   2.041   2.971  0.5322  0.0655 -0.1024
 3599TIP3    H110803   5.719   2.012   2.968  0.4466 -0.3015  0.6911
 3599TIP3    H210804   5.577   1.963   2.946  0.3147 -0.4456  1.8156
 3600TIP3   OH210805   4.869   4.010   3.179 -0.0606 -0.4531  0.0764
 3600TIP3    H110806   4.818   4.064   3.239  0.5679  0.9417 -0.5876
 3600TIP3    H210807   4.948   3.987   3.228 -0.7640 -1.6287  0.6975
 3601TIP3   OH210808   5.460   5.193   2.195  0.0821 -0.1132  0.0220
 3601TIP3    H110809   5.367   5.183   2.177 -0.0659  2.8270 -1.3425
 3601TIP3    H210810   5.465   5.253   2.269  0.8640  0.4360 -0.4555
 3602TIP3   OH210811   2.057   1.471   0.518  0.1341 -0.0574  0.2052
 3602TIP3    H110812   2.020   1.530   0.583  0.5048 -0.6942  1.0085
 3602TIP3    H210813   2.028   1.507   0.434  1.9551  2.4292  0.5288
 3603TIP3   OH210814   1.645   5.882   1.670  0.4385  0.0951 -0.0902
 3603TIP3    H110815   1.574   5.847   1.724 -0.9482  0.1697 -1.7762
 3603TIP3    H210816   1.719   5.889   1.730 -0.4417 -1.7050  1.3190
 3604TIP3   OH210817   2.210   5.345   2.027 -0.0765 -0.1874  0.3131
 3604TIP3    H110818   2.127   5.372   1.990 -0.6583 -2.0361  0.1773
 3604TIP3    H210819   2.276   5.381   1.967 -0.8494 -0.2981 -0.6270
 3605TIP3   OH210820   1.506   2.475   1.168  0.1090 -0.1148 -0.3802
 3605TIP3    H110821   1.416   2.492   1.195 -0.0829 -0.7256 -0.6373
 3605TIP3    H210822   1.552   2.557   1.188 -1.0109  1.1138 -2.5027
 3606TIP3   OH210823   2.174   5.618   4.418  0.1577 -0.0037  0.0170
 3606TIP3    H110824   2.112   5.565   4.468 -2.2248  1.0963 -1.5641
 3606TIP3    H210825   2.130   5.633   4.335  2.5934  0.9037 -1.1845
 3607TIP3   OH210826   5.804   0.580   5.050 -0.6724 -0.3687  0.0873
 3607TIP3    H110827   5.888   0.577   5.004 -1.1692 -1.0477 -0.8107
 3607TIP3    H210828   5.807   0.661   5.101  1.3006 -1.3232  1.6074
 3608TIP3   OH210829   4.156   1.630   1.705 -0.5794  0.3143 -0.1349
 3608TIP3    H110830   4.224   1.677   1.753 -1.1261 -0.7958  1.8714
 3608TIP3    H210831   4.111   1.697   1.653  0.6503  1.4196  0.1859
 3609TIP3   OH210832   6.041   4.967   3.074  0.6153 -0.0097  0.5194
 3609TIP3    H110833   5.996   5.034   3.125  0.7437 -0.9438  1.9095
 3609TIP3    H210834   6.023   4.990   2.983  0.6421  1.8851  0.9560
 3610TIP3   OH210835   6.181   0.267   2.378  0.4843  0.8087  0.6115
 3610TIP3    H110836   6.159   0.193   2.434  0.9569 -0.6397 -1.0126
 3610TIP3    H210837   6.136   0.342   2.418  0.3591 -0.2470  2.5558
 3611TIP3   OH210838   0.322   2.520   2.307 -0.1050 -0.1735 -0.3033
 3611TIP3    H110839   0.297   2.532   2.216 -0.6536 -1.3957 -0.3283
 3611TIP3    H210840   0.416   2.540   2.309  0.2516 -1.6051 -1.4482
 3612TIP3   OH210841   2.121   1.351   3.562 -0.3623  0.3024 -0.4226
 3612TIP3    H110842   2.078   1.400   3.492  1.1416  1.7279 -0.3885
 3612TIP3    H210843   2.077   1.381   3.642  0.4476  1.5425 -0.4149
 3613TIP3   OH210844   4.484   3.846   4.425  0.3662 -0.0944 -0.0065
 3613TIP3    H110845   4.488   3.931   4.382 -0.4412 -0.0531 -0.0219
 3613TIP3    H210846   4.555   3.847   4.490  2.9959 -0.9226 -2.6537
 3614TIP3   OH210847   3.717   1.529   0.293  0.3851 -0.6132 -0.3430
 3614TIP3    H110848   3.755   1.455   0.245 -0.5220 -0.4744 -1.3129
 3614TIP3    H210849   3.751   1.520   0.381  1.9441 -0.9970 -0.9536
 3615TIP3   OH210850   5.762   0.554   4.321 -0.0918 -0.3005 -0.2561
 3615TIP3    H110851   5.698   0.585   4.385  0.4969  1.0651 -0.2795
 3615TIP3    H210852   5.831   0.620   4.323  0.5668 -0.9203 -1.3628
 3616TIP3   OH210853   1.254   2.448   2.961  0.2274 -0.4458  0.4380
 3616TIP3    H110854   1.326   2.403   2.918 -1.1136 -0.9466 -1.3835
 3616TIP3    H210855   1.181   2.386   2.959 -1.1691  1.1386 -0.6316
 3617TIP3   OH210856   5.485   2.493   1.417 -0.3960  0.2660 -0.3529
 3617TIP3    H110857   5.417   2.553   1.450 -0.5741  0.8255 -1.6928
 3617TIP3    H210858   5.500   2.433   1.490 -1.6194  0.7419  0.3344
 3618TIP3   OH210859   4.907   0.026   2.212  0.3669 -0.1956  0.0603
 3618TIP3    H110860   4.985   0.040   2.264 -0.0841 -1.3886  1.0867
 3618TIP3    H210861   4.861   0.110   2.214  0.0184 -0.3956  2.1845
 3619TIP3   OH210862   4.708   3.307   2.261 -0.1492  0.7573  0.2176
 3619TIP3    H110863   4.711   3.242   2.331 -0.3000 -0.7635 -1.1385
 3619TIP3    H210864   4.796   3.307   2.224 -0.2288  1.1192  0.0169
 3620TIP3   OH210865   3.862   2.386   0.290 -0.6726 -0.3516  0.2026
 3620TIP3    H110866   3.859   2.325   0.217 -0.7852  0.5553 -0.5723
 3620TIP3    H210867   3.773   2.421   0.297 -0.1301  1.4302 -0.8990
 3621TIP3   OH210868   3.190   1.211   0.912  0.0027  0.2000  0.5702
 3621TIP3    H110869   3.265   1.152   0.901  0.2430  0.5951  0.0248
 3621TIP3    H210870   3.229   1.297   0.928 -0.1934  1.0460 -2.6588
 3622TIP3   OH210871   4.200   3.414   2.425 -0.5386 -0.6734 -0.6887
 3622TIP3    H110872   4.175   3.506   2.433 -1.3638 -0.7534 -1.9445
 3622TIP3    H210873   4.122   3.365   2.451  0.1116 -1.0512  0.6239
 3623TIP3   OH210874   0.452   2.392   0.442 -0.4076  0.1701  1.1532
 3623TIP3    H110875   0.423   2.310   0.401 -1.2997 -0.0050  2.0832
 3623TIP3    H210876   0.398   2.459   0.401 -1.8565 -0.0966  2.5269
 3624TIP3   OH210877   5.914   1.866   0.168  0.0539  0.0265 -0.2183
 3624TIP3    H110878   5.901   1.782   0.123 -1.2723 -1.2501  2.3921
 3624TIP3    H210879   5.964   1.844   0.246 -1.1878  1.4982  1.0485
 3625TIP3   OH210880   4.479   4.456   4.924 -0.6379 -0.3366 -0.3223
 3625TIP3    H110881   4.496   4.411   4.841  0.5264 -0.9274  0.2140
 3625TIP3    H210882   4.386   4.480   4.919 -0.7623 -0.9553 -1.5037
 3626TIP3   OH210883   4.682   3.137   0.469 -0.0345  0.3515 -0.1037
 3626TIP3    H110884   4.594   3.120   0.435 -0.2101 -0.7732  0.8335
 3626TIP3    H210885   4.682   3.230   0.491 -0.1785  0.9459 -2.3335
 3627TIP3   OH210886   3.020   0.188   2.719 -0.0903 -0.4781 -0.3153
 3627TIP3    H110887   2.931   0.158   2.702 -0.3054 -0.1880  0.2851
 3627TIP3    H210888   3.074   0.142   2.654 -0.7876  0.0537 -1.2896
 3628TIP3   OH210889   2.577   4.571   1.701  0.3464  0.1588 -0.5534
 3628TIP3    H110890   2.581   4.525   1.617  0.9165  0.8993 -0.9471
 3628TIP3    H210891   2.597   4.662   1.679  0.9858  0.2785  0.4481
 3629TIP3   OH210892   2.247   1.010   3.124  0.1818 -0.1973 -0.0403
 3629TIP3    H110893   2.160   1.006   3.085  0.3216  1.1918 -0.5252
 3629TIP3    H210894   2.289   0.929   3.096 -1.3226 -1.4531  1.1506
 3630TIP3   OH210895   2.441   1.699   2.241  0.0594 -0.6702  0.0339
 3630TIP3    H110896   2.367   1.695   2.181  1.2655 -1.3146 -1.4829
 3630TIP3    H210897   2.448   1.611   2.277  0.4287 -0.7750 -0.2827
 3631TIP3   OH210898   4.448   2.877   0.817 -0.1218  0.0292 -0.4979
 3631TIP3    H110899   4.518   2.817   0.791  0.2994  0.1076  0.4031
 3631TIP3    H210900   4.457   2.884   0.912 -2.1319 -0.8868 -0.2039
 3632TIP3   OH210901   3.202   5.458   4.982  0.1157 -0.0405  0.1545
 3632TIP3    H110902   3.196   5.448   5.077  0.3294  0.0980  0.1844
 3632TIP3    H210903   3.292   5.487   4.967  0.0030  0.1934 -0.0688
 3633TIP3   OH210904   5.092   4.334   2.904 -0.0061 -0.0837 -0.1779
 3633TIP3    H110905   5.003   4.369   2.895  0.1926  0.1999 -1.2202
 3633TIP3    H210906   5.147   4.397   2.859  0.5964 -0.7781 -0.4345
 3634TIP3   OH210907   0.439   3.870   0.598 -0.0718 -0.3976  0.2551
 3634TIP3    H110908   0.492   3.791   0.581  0.7157  0.3584 -1.0132
 3634TIP3    H210909   0.358   3.837   0.636 -0.3091 -1.9702 -1.4725
 3635TIP3   OH210910   2.921   2.187   0.057  0.1034  0.2078 -0.2239
 3635TIP3    H110911   3.013   2.178   0.079  0.4934  1.9441 -0.9697
 3635TIP3    H210912   2.887   2.252   0.118 -0.8636 -1.0478  0.6098
 3636TIP3   OH210913   2.897   5.541   3.458 -0.3874 -0.0583 -0.2436
 3636TIP3    H110914   2.956   5.614   3.479 -0.2968 -0.2892  0.3323
 3636TIP3    H210915   2.939   5.465   3.497  0.3195 -0.7124 -2.1536
 3637TIP3   OH210916   0.840   5.762   3.576  0.1691  0.6819  0.0771
 3637TIP3    H110917   0.781   5.743   3.503  1.3856 -0.9452 -0.5517
 3637TIP3    H210918   0.890   5.681   3.588  0.4298  1.1092  2.3398
 3638TIP3   OH210919   2.251   5.442   0.669  0.5531  0.6173 -0.2532
 3638TIP3    H110920   2.182   5.385   0.634  2.3710 -1.7885 -0.2188
 3638TIP3    H210921   2.284   5.490   0.593  0.4766 -0.0908 -0.7438
 3639TIP3   OH210922   2.084   0.355   0.475 -0.1692  0.2227  0.7069
 3639TIP3    H110923   1.996   0.376   0.443 -0.5309 -1.7579  0.2834
 3639TIP3    H210924   2.082   0.382   0.567 -1.5527 -0.6411  0.9595
 3640TIP3   OH210925   1.658   1.094   1.831  0.0823  0.2878 -0.1844
 3640TIP3    H110926   1.670   1.071   1.923  0.9490 -0.5941 -0.5012
 3640TIP3    H210927   1.600   1.027   1.797 -0.7987  1.0012 -0.1456
 3641TIP3   OH210928   4.020   1.891   3.380 -0.5497 -0.3143  0.1209
 3641TIP3    H110929   4.075   1.826   3.336  0.1861  1.7332 -2.1884
 3641TIP3    H210930   3.939   1.891   3.329 -1.0479 -0.3168  0.9033
 3642TIP3   OH210931   1.670   4.512   0.339 -0.2141  0.3263  0.4074
 3642TIP3    H110932   1.766   4.520   0.335 -0.2562  0.2518 -1.4124
 3642TIP3    H210933   1.656   4.426   0.379  0.5554 -0.7429 -1.4767
 3643TIP3   OH210934   2.791   3.956   1.202  0.2400 -0.2956  0.1869
 3643TIP3    H110935   2.724   3.928   1.264 -1.0505  0.4316 -0.8171
 3643TIP3    H210936   2.779   3.899   1.127 -0.0478  0.5812 -0.4573
 3644TIP3   OH210937   2.243   1.667   0.899 -0.0360 -0.2160 -0.0784
 3644TIP3    H110938   2.268   1.653   0.991 -0.9175  1.5169  0.4783
 3644TIP3    H210939   2.244   1.580   0.860  1.7408 -0.8358  1.1976
 3645TIP3   OH210940   5.931   0.696   1.461  0.8591 -0.3477  0.4213
 3645TIP3    H110941   5.970   0.782   1.443 -1.8806  0.5548 -1.9754
 3645TIP3    H210942   6.000   0.633   1.439  1.9458  1.1757 -0.7410
 3646TIP3   OH210943   2.704   3.590   2.272 -0.2400 -0.1500  0.8390
 3646TIP3    H110944   2.783   3.641   2.250 -0.5058 -0.0569  0.0680
 3646TIP3    H210945   2.632   3.648   2.250 -0.5329 -0.4269  1.0711
 3647TIP3   OH210946   2.801   5.688   3.973  0.5268  0.4439 -0.6526
 3647TIP3    H110947   2.847   5.635   4.038 -2.5886 -2.0980 -0.2603
 3647TIP3    H210948   2.822   5.647   3.889 -0.5490 -0.4782 -0.5079
 3648TIP3   OH210949   4.797   1.717   4.870  0.3885 -0.5436 -0.3416
 3648TIP3    H110950   4.737   1.699   4.798 -0.9347 -1.0969  0.8590
 3648TIP3    H210951   4.746   1.699   4.949  1.7730  0.1172  0.7458
 3649TIP3   OH210952   5.126   1.633   1.343 -0.1239 -0.6994 -0.1467
 3649TIP3    H110953   5.061   1.668   1.404 -0.7421 -2.0315 -0.0221
 3649TIP3    H210954   5.209   1.669   1.373 -0.4052 -1.4069  1.5430
 3650TIP3   OH210955   0.645   4.428   2.249  0.0707 -0.4885 -0.6817
 3650TIP3    H110956   0.668   4.436   2.157  1.0870 -0.4399 -0.4427
 3650TIP3    H210957   0.727   4.404   2.292 -0.4442 -0.7597  0.1761
 3651TIP3   OH210958   0.709   5.973   2.973  0.3282 -0.1722  0.8139
 3651TIP3    H110959   0.714   5.983   2.878 -1.2694  0.2588  0.7375
 3651TIP3    H210960   0.619   5.998   2.995  0.8012  0.1917  2.5033
 3652TIP3   OH210961   6.035   5.043   1.761 -0.9373 -0.6232  0.0066
 3652TIP3    H110962   6.051   5.134   1.735 -2.4253 -0.2291  0.3572
 3652TIP3    H210963   5.998   5.050   1.849 -0.1773 -1.6415  0.4164
 3653TIP3   OH210964   3.176   2.143   0.865 -0.1347  0.2219  0.0261
 3653TIP3    H110965   3.139   2.191   0.791 -0.6314 -0.4253 -0.1511
 3653TIP3    H210966   3.110   2.153   0.934 -0.0593  0.1132  0.1124
 3654TIP3   OH210967   2.196   0.863   4.854 -0.4353  0.4449 -0.0211
 3654TIP3    H110968   2.282   0.892   4.881 -1.0764  2.5999 -0.1384
 3654TIP3    H210969   2.193   0.770   4.880  2.9603 -0.6074 -2.6381
 3655TIP3   OH210970   1.067   2.659   3.936  0.5813  0.1498  0.1288
 3655TIP3    H110971   0.998   2.725   3.941  2.3400  2.0289  1.8739
 3655TIP3    H210972   1.127   2.692   3.869 -0.5566 -1.9536 -2.0743
 3656TIP3   OH210973   0.570   1.680   1.623  0.5071  0.1479 -0.1440
 3656TIP3    H110974   0.506   1.642   1.683  1.8928 -1.5145  0.3595
 3656TIP3    H210975   0.618   1.744   1.676 -0.7904  1.5167 -0.5658
 3657TIP3   OH210976   2.950   0.869   2.355 -0.5444 -0.6820 -0.7375
 3657TIP3    H110977   3.005   0.946   2.372 -0.6186 -0.4497 -1.5138
 3657TIP3    H210978   2.921   0.842   2.441 -0.8532  0.4181 -0.4742
 3658TIP3   OH210979   5.536   4.267   2.655  0.2599  0.0314 -0.2346
 3658TIP3    H110980   5.592   4.192   2.678  0.9927  1.1726  1.9637
 3658TIP3    H210981   5.522   4.258   2.561  1.5224 -2.0669 -0.2853
 3659TIP3   OH210982   5.776   4.580   2.134 -0.0459 -0.0164  0.4931
 3659TIP3    H110983   5.708   4.522   2.099  0.8469 -0.1516 -1.1009
 3659TIP3    H210984   5.762   4.663   2.089  0.7453 -0.0028  0.2690
 3660TIP3   OH210985   3.139   0.505   4.834 -0.1984  0.4872  0.5546
 3660TIP3    H110986   3.063   0.461   4.795  0.6023  0.2104 -0.7772
 3660TIP3    H210987   3.168   0.446   4.903 -0.8095  0.2808  0.6398
 3661TIP3   OH210988   4.743   3.813   1.738 -0.3994  0.0615  0.5019
 3661TIP3    H110989   4.803   3.857   1.678  0.4822 -0.3753  1.0425
 3661TIP3    H210990   4.660   3.809   1.690  1.0937 -3.5020 -2.3001
 3662TIP3   OH210991   5.813   3.496   4.252  0.0422  0.0430 -0.0868
 3662TIP3    H110992   5.842   3.581   4.286  2.7963 -0.0528 -1.8759
 3662TIP3    H210993   5.890   3.440   4.262 -1.1050 -1.7053 -0.7032
 3663TIP3   OH210994  -0.015   5.625   0.841 -0.1408  0.0437  0.0098
 3663TIP3    H110995   0.079   5.614   0.829  0.5201  1.3289  3.1722
 3663TIP3    H210996  -0.046   5.659   0.756  2.5191  1.1664 -0.6093
 3664TIP3   OH210997   5.865   0.934   2.486 -0.3274  0.7930 -0.3617
 3664TIP3    H110998   5.912   0.884   2.552 -2.6370 -0.3429  0.5235
 3664TIP3    H210999   5.915   0.920   2.405  1.3469  0.4614  0.6752
 3665TIP3   OH211000   2.504   0.573   2.940  0.3797 -0.8093  0.0830
 3665TIP3    H111001   2.479   0.647   2.995  1.8101  0.2033 -0.5704
 3665TIP3    H211002   2.454   0.499   2.974 -2.9310  0.8956 -0.7149
 3666TIP3   OH211003   2.625   4.007   4.844  0.7181  0.1008  0.4636
 3666TIP3    H111004   2.650   4.079   4.787  2.3569  0.2187  1.2678
 3666TIP3    H211005   2.634   4.042   4.933  2.9473 -1.4315  0.9431
 3667TIP3   OH211006   1.901   0.929   1.725 -0.4504 -0.1126  0.0058
 3667TIP3    H111007   1.840   0.955   1.656 -0.3758  1.4166  0.4943
 3667TIP3    H211008   1.852   0.866   1.777 -0.7485 -0.7667 -1.0203
 3668TIP3   OH211009   2.348   2.696   0.542 -0.2279  0.3458 -0.1190
 3668TIP3    H111010   2.442   2.702   0.560 -0.2594 -0.3639  0.3370
 3668TIP3    H211011   2.315   2.785   0.555 -0.1739  0.0073  3.0098
 3669TIP3   OH211012   3.553   5.156   2.382 -0.1339 -0.5870 -0.1622
 3669TIP3    H111013   3.547   5.178   2.289 -1.5325  0.2557  0.0935
 3669TIP3    H211014   3.647   5.143   2.398  0.0990 -1.1024 -1.7504
 3670TIP3   OH211015   5.905   4.437   1.938 -0.6148  0.0160 -0.1372
 3670TIP3    H111016   5.878   4.480   1.856  0.0228  0.0818 -0.3183
 3670TIP3    H211017   5.883   4.501   2.006 -3.4075 -0.9869  0.0327
 3671TIP3   OH211018   2.713   4.223   4.106  0.0913 -0.0016 -0.0126
 3671TIP3    H111019   2.688   4.139   4.144 -1.7220  1.1322  1.4549
 3671TIP3    H211020   2.798   4.242   4.146 -0.5245 -0.1236  1.4505
 3672TIP3   OH211021   3.632   4.293   4.511 -0.1677  0.2465 -0.0709
 3672TIP3    H111022   3.620   4.298   4.606 -2.5907  0.4422 -0.3118
 3672TIP3    H211023   3.621   4.200   4.491 -0.2205  0.2834 -0.2089
 3673TIP3   OH211024   0.221   5.886   5.042  0.3523 -0.2174  0.2236
 3673TIP3    H111025   0.251   5.796   5.058  1.2003  0.3394  2.0479
 3673TIP3    H211026   0.194   5.886   4.951  5.0460 -1.0964 -1.4929
 3674TIP3   OH211027   2.185   5.380   1.296 -0.0681  0.5308  0.2223
 3674TIP3    H111028   2.273   5.415   1.305  0.3000  1.0647 -3.6862
 3674TIP3    H211029   2.198   5.288   1.273 -0.4828  0.6322 -0.4555
 3675TIP3   OH211030   2.448   1.806   1.066 -0.8077  0.0210 -0.3729
 3675TIP3    H111031   2.464   1.836   0.976 -0.1967  0.0131 -0.2712
 3675TIP3    H211032   2.516   1.849   1.117 -1.3362  0.2588  0.1375
 3676TIP3   OH211033   2.927   3.194   3.109  0.1322  0.1273 -0.4672
 3676TIP3    H111034   2.837   3.198   3.076  0.2051 -0.3875 -0.7423
 3676TIP3    H211035   2.918   3.172   3.202 -0.0367  0.4677 -0.4014
 3677TIP3   OH211036   0.005   0.620   1.123 -0.4086  0.4217 -0.0013
 3677TIP3    H111037   0.052   0.543   1.091  0.2017  1.2724 -1.2139
 3677TIP3    H211038   0.061   0.654   1.193  0.8276  1.4123 -1.4212
 3678TIP3   OH211039   0.004   2.712   4.645 -0.1712 -0.7419 -0.0037
 3678TIP3    H111040  -0.042   2.781   4.597 -0.4903 -1.0782 -0.1853
 3678TIP3    H211041   0.094   2.716   4.614 -0.7413 -2.1594 -2.0171
 3679TIP3   OH211042   5.672   4.178   1.849 -0.0648 -0.3322 -0.4284
 3679TIP3    H111043   5.684   4.143   1.938 -0.7909  0.4116 -0.0235
 3679TIP3    H211044   5.760   4.175   1.811  0.6939  1.2881  1.0537
 3680TIP3   OH211045   5.575   2.657   3.553  0.1476  0.0556 -0.2806
 3680TIP3    H111046   5.639   2.713   3.597  0.1659  1.0788 -1.5482
 3680TIP3    H211047   5.624   2.614   3.483 -0.2613 -0.1935 -0.4179
 3681TIP3   OH211048   2.399   5.019   2.224  0.1256  0.2288  0.7250
 3681TIP3    H111049   2.428   5.033   2.133 -1.5155 -0.4061  0.0606
 3681TIP3    H211050   2.395   4.924   2.233 -1.0251  0.2970  1.0097
 3682TIP3   OH211051   2.425   1.169   3.430 -0.8827  0.0456  0.2309
 3682TIP3    H111052   2.447   1.135   3.516  0.5494 -0.0232 -0.1395
 3682TIP3    H211053   2.414   1.263   3.443 -0.7943  0.0177  0.5047
 3683TIP3   OH211054   1.878   4.254   0.943  0.3353  0.7946 -0.0867
 3683TIP3    H111055   1.815   4.270   0.873  0.6749  1.5943 -0.2199
 3683TIP3    H211056   1.878   4.334   0.995  1.1158  0.7455  0.0077
 3684TIP3   OH211057   2.339   4.183   2.180  0.0882 -0.6596 -0.0982
 3684TIP3    H111058   2.313   4.258   2.234 -0.7779 -0.3799 -0.8996
 3684TIP3    H211059   2.415   4.147   2.226 -0.6417 -0.4498  1.3361
 3685TIP3   OH211060   1.043   5.105   3.799 -0.1143  0.3085 -0.3815
 3685TIP3    H111061   1.120   5.056   3.769  0.9605  0.6110  1.7095
 3685TIP3    H211062   1.069   5.141   3.884 -2.2740  1.1736 -0.0286
 3686TIP3   OH211063   2.079   0.485   4.451  0.3517 -0.1872 -0.6626
 3686TIP3    H111064   2.106   0.539   4.526 -0.1105 -0.4248 -0.3193
 3686TIP3    H211065   1.984   0.490   4.451  0.3993  1.1024 -2.2079
 3687TIP3   OH211066   1.950   4.925   4.486 -0.0023  0.1714 -0.4538
 3687TIP3    H111067   2.011   4.885   4.425 -0.2472  0.1685 -0.6984
 3687TIP3    H211068   1.946   4.863   4.560  2.2603  1.3801  0.7755
 3688TIP3   OH211069   3.114   3.214   1.196 -0.2319 -0.4849 -0.6576
 3688TIP3    H111070   3.046   3.260   1.246  1.8457 -0.0807  2.0367
 3688TIP3    H211071   3.088   3.224   1.105 -2.6712  1.4149  0.1358
 3689TIP3   OH211072   5.387   5.249   3.634  0.5138 -0.3691  0.1438
 3689TIP3    H111073   5.378   5.330   3.585 -4.1703 -0.6765  0.0507
 3689TIP3    H211074   5.359   5.181   3.573 -0.1511 -1.4445  1.6058
 3690TIP3   OH211075   4.806   1.155   0.952 -0.0431  0.1048 -0.6574
 3690TIP3    H111076   4.786   1.173   0.860  1.1292 -0.1031 -0.9597
 3690TIP3    H211077   4.882   1.209   0.972 -0.0777 -0.1055  0.0987
 3691TIP3   OH211078   3.455   0.686   0.726  0.0542  0.6335 -0.7537
 3691TIP3    H111079   3.545   0.662   0.747 -0.0607  0.7468 -0.1302
 3691TIP3    H211080   3.438   0.645   0.641  0.5468  0.2511 -0.6672
 3692TIP3   OH211081   3.476   3.037   3.621  0.0418 -0.1134  0.0821
 3692TIP3    H111082   3.401   3.091   3.647  0.5243 -0.4197  2.2966
 3692TIP3    H211083   3.548   3.100   3.609  0.2686 -0.1194  1.3369
 3693TIP3   OH211084   0.485   3.849   2.333  0.3460 -0.2580  0.5759
 3693TIP3    H111085   0.557   3.804   2.289 -0.0821 -0.0324 -0.3888
 3693TIP3    H211086   0.432   3.885   2.261 -1.0651 -0.9330  1.2337
 3694TIP3   OH211087   2.159   2.972   3.962  0.4939  0.4416 -0.3456
 3694TIP3    H111088   2.205   3.047   4.000  1.2005 -0.2903  0.2695
 3694TIP3    H211089   2.171   2.902   4.026 -1.0232  0.0784 -0.4215
 3695TIP3   OH211090   3.694   5.590   1.774 -0.6636 -0.3974 -0.0868
 3695TIP3    H111091   3.739   5.543   1.704  0.8246  1.0214 -0.1411
 3695TIP3    H211092   3.603   5.594   1.746 -0.4538 -1.5554 -0.9847
 3696TIP3   OH211093   0.387   1.287   2.988 -0.7656  0.4226  0.4751
 3696TIP3    H111094   0.342   1.208   2.959 -1.1917  0.6401  0.5308
 3696TIP3    H211095   0.425   1.324   2.909 -1.7369  0.8973  0.2156
 3697TIP3   OH211096   0.079   3.400   4.319  1.0298  0.4102 -0.2591
 3697TIP3    H111097   0.099   3.359   4.235  1.5249 -1.1411  0.5921
 3697TIP3    H211098   0.018   3.471   4.296  0.1913 -0.7383 -1.7867
 3698TIP3   OH211099   0.392   4.020   3.416 -0.6905 -0.4266  0.1306
 3698TIP3    H111100   0.366   4.094   3.472 -0.0594 -0.1095  0.0203
 3698TIP3    H211101   0.345   4.034   3.334  1.5691  1.4855 -0.9599
 3699TIP3   OH211102   5.261   2.394   0.612  0.3883  0.0673  0.2892
 3699TIP3    H111103   5.226   2.314   0.573  0.8876 -0.1517  0.2795
 3699TIP3    H211104   5.302   2.365   0.694  0.1061  0.3942  0.5500
 3700TIP3   OH211105   6.255   3.620   4.239  0.2325  0.6827 -0.0131
 3700TIP3    H111106   6.252   3.666   4.155 -0.2099  1.0489  0.1991
 3700TIP3    H211107   6.179   3.562   4.237 -0.7247  1.8859  0.8046
 3701TIP3   OH211108   1.564   0.255   1.310  0.2391 -0.7709 -0.6543
 3701TIP3    H111109   1.620   0.303   1.249  0.2254 -0.3169 -0.3200
 3701TIP3    H211110   1.617   0.182   1.340  2.1921  1.7174  2.6274
 3702TIP3   OH211111   4.107   0.437   2.230 -0.2960 -0.1888 -0.0187
 3702TIP3    H111112   4.043   0.375   2.194 -0.1888  1.2226 -2.9382
 3702TIP3    H211113   4.078   0.451   2.320 -1.3787 -3.0189  0.1908
 3703TIP3   OH211114   1.845   1.874   4.716  0.0311  0.0218 -0.1123
 3703TIP3    H111115   1.908   1.833   4.776 -1.0170  0.4007  1.3146
 3703TIP3    H211116   1.865   1.968   4.722 -0.7024  0.1504  0.4196
 3704TIP3   OH211117   4.770   4.016   3.931 -0.4149 -0.1147  0.2437
 3704TIP3    H111118   4.715   4.094   3.942  0.0447  0.2057  0.2996
 3704TIP3    H211119   4.837   4.024   3.999  0.4007  0.1063 -0.5728
 3705TIP3   OH211120   3.375   0.626   0.455 -0.6829 -0.4464  0.1497
 3705TIP3    H111121   3.287   0.661   0.441 -0.0408  1.1590 -0.0459
 3705TIP3    H211122   3.388   0.564   0.384 -1.5348 -0.4561 -0.0042
 3706TIP3   OH211123   2.337   0.733   3.128  0.3161  0.0014 -0.2655
 3706TIP3    H111124   2.282   0.656   3.140  1.8658 -1.3730 -1.3000
 3706TIP3    H211125   2.342   0.774   3.214 -2.2476  0.1806 -0.1530
 3707TIP3   OH211126   2.498   2.220   4.942  0.2132  0.0431 -0.0619
 3707TIP3    H111127   2.517   2.314   4.946 -0.7293  0.4342 -2.6524
 3707TIP3    H211128   2.478   2.196   5.032  3.1213  1.6692  1.1799
 3708TIP3   OH211129   0.566   3.731   0.154  0.9805  0.2126  0.8703
 3708TIP3    H111130   0.658   3.710   0.169  1.0887 -0.2259 -0.3065
 3708TIP3    H211131   0.524   3.647   0.138  0.5189  0.4754  0.6753
 3709TIP3   OH211132   3.176   5.311   0.713 -0.5922 -0.4700  0.0820
 3709TIP3    H111133   3.095   5.362   0.709  0.3575  1.0454 -3.3235
 3709TIP3    H211134   3.231   5.360   0.775 -1.7427 -0.7728  1.3983
 3710TIP3   OH211135   3.158   0.280   0.628 -0.6061  0.1625  0.3709
 3710TIP3    H111136   3.199   0.229   0.698  0.8150 -0.0892 -0.5872
 3710TIP3    H211137   3.229   0.293   0.564 -1.8745  0.2925 -1.0629
 3711TIP3   OH211138   1.069   3.930   0.261 -0.1689  1.0556 -0.5338
 3711TIP3    H111139   1.063   3.920   0.356  0.0538  0.2529 -0.5981
 3711TIP3    H211140   0.978   3.935   0.232 -0.2341  2.5661 -0.1700
 3712TIP3   OH211141   3.990   4.716   3.797 -0.0002 -0.3900  0.0135
 3712TIP3    H111142   3.896   4.722   3.818 -0.0772  0.1443 -0.4658
 3712TIP3    H211143   4.016   4.806   3.779  0.7219 -0.4769  0.6024
 3713TIP3   OH211144   0.238   0.915   3.091  0.1145  0.1897 -0.4112
 3713TIP3    H111145   0.244   0.825   3.060  0.1605 -0.1445  0.5333
 3713TIP3    H211146   0.165   0.914   3.153  0.8582  0.5203  0.5061
 3714TIP3   OH211147   3.669   0.802   4.595  0.3467 -0.0582 -0.2762
 3714TIP3    H111148   3.661   0.843   4.681  0.6002 -2.0460  0.7308
 3714TIP3    H211149   3.598   0.841   4.543  1.1766  2.3846  0.2534
 3715TIP3   OH211150   5.347   2.539   5.091 -0.4447  0.3497 -0.1066
 3715TIP3    H111151   5.384   2.525   5.178 -0.3964 -0.4476 -0.2452
 3715TIP3    H211152   5.290   2.615   5.101  0.5957  1.0926  0.2985
 3716TIP3   OH211153   4.051   4.344   0.915  0.4384 -0.2824 -0.3680
 3716TIP3    H111154   4.077   4.336   0.823  0.3338  0.5708 -0.4744
 3716TIP3    H211155   4.103   4.277   0.959  2.0222  0.6296 -0.7545
 3717TIP3   OH211156   3.862   3.535   3.377  0.4387 -0.0987  0.4816
 3717TIP3    H111157   3.802   3.484   3.322 -0.1571  1.8063 -0.7360
 3717TIP3    H211158   3.920   3.579   3.315  2.0681 -0.6071  1.5750
 3718TIP3   OH211159   1.668   3.910   2.921 -0.0957  0.3155  0.1186
 3718TIP3    H111160   1.710   3.902   2.835 -0.6166  0.5451 -0.1637
 3718TIP3    H211161   1.628   3.824   2.936 -1.5908  0.8290 -0.7270
 3719TIP3   OH211162   4.590   5.801   4.404 -0.4473  0.2016 -0.1622
 3719TIP3    H111163   4.618   5.780   4.493 -1.1880 -0.2725 -0.0361
 3719TIP3    H211164   4.500   5.831   4.413 -0.3184  0.7897 -0.6827
 3720TIP3   OH211165   5.419   4.746   1.785 -0.3613 -0.5404 -0.5796
 3720TIP3    H111166   5.473   4.803   1.730  1.3879 -0.5830  1.0165
 3720TIP3    H211167   5.447   4.657   1.764  0.0219 -0.5766  0.0584
 3721TIP3   OH211168   0.242   4.703   3.348 -0.6619 -0.0535  0.2744
 3721TIP3    H111169   0.261   4.700   3.254  0.7999 -2.5967  0.5730
 3721TIP3    H211170   0.150   4.729   3.352 -0.9404 -0.4765 -1.9018
 3722TIP3   OH211171   3.235   3.467   0.729  0.4334 -0.7560 -0.0363
 3722TIP3    H111172   3.230   3.562   0.723  0.2483 -0.6762  1.2496
 3722TIP3    H211173   3.165   3.442   0.789  1.5673 -1.5422  1.0263
 3723TIP3   OH211174   1.995   2.586   5.102  0.6056 -0.5250 -0.2658
 3723TIP3    H111175   1.929   2.520   5.126 -0.5008  1.4773  2.9359
 3723TIP3    H211176   1.952   2.639   5.035 -1.0447  0.5479  1.5372
 3724TIP3   OH211177   5.030   1.691   4.707 -0.4243 -0.3281 -0.0418
 3724TIP3    H111178   5.013   1.757   4.640  0.8277  0.0299 -0.0217
 3724TIP3    H211179   4.949   1.689   4.760 -0.2858  1.5917  0.2929
 3725TIP3   OH211180   1.502   4.253   1.224 -0.1715 -0.1325  0.3688
 3725TIP3    H111181   1.471   4.299   1.147  0.4477 -0.1981  0.0674
 3725TIP3    H211182   1.495   4.317   1.295  1.4032  0.7172 -0.1875
 3726TIP3   OH211183   4.359   0.625   3.775  0.1141 -0.3789  0.4514
 3726TIP3    H111184   4.368   0.542   3.822  1.0780 -0.5276  0.0242
 3726TIP3    H211185   4.426   0.621   3.706  0.7026  1.0941  0.9118
 3727TIP3   OH211186   1.038   1.057   3.404 -0.3877  0.3637  0.3978
 3727TIP3    H111187   0.961   1.034   3.352 -0.4206 -0.1836  0.6761
 3727TIP3    H211188   1.093   0.979   3.400 -0.6240  0.1149  1.5968
 3728TIP3   OH211189   4.098   3.609   0.245 -0.1526  0.5209 -0.6060
 3728TIP3    H111190   4.167   3.556   0.284 -0.7275 -0.3227 -0.7134
 3728TIP3    H211191   4.135   3.643   0.164  0.5595  1.1132 -0.0519
 3729TIP3   OH211192   2.560   1.602   0.449  0.0407 -0.1878 -0.0474
 3729TIP3    H111193   2.591   1.689   0.473 -0.2938 -0.6580  2.2720
 3729TIP3    H211194   2.504   1.618   0.373 -1.2974  1.8866  1.2640
 3730TIP3   OH211195   1.069   1.195   2.565  0.2524 -0.3211 -0.2798
 3730TIP3    H111196   1.150   1.202   2.616  0.7224  1.2765 -1.1777
 3730TIP3    H211197   1.065   1.103   2.538  0.5082 -0.9818  1.7434
 3731TIP3   OH211198   3.247   4.541   4.011  0.7431  0.1275  1.2810
 3731TIP3    H111199   3.289   4.524   4.095  3.2772 -0.3605  0.0116
 3731TIP3    H211200   3.208   4.457   3.987 -0.3581  0.3740  2.0949
 3732TIP3   OH211201   5.036   1.036   4.234  0.2512 -0.1787 -0.0902
 3732TIP3    H111202   5.087   1.004   4.308 -1.5220 -0.1876  1.1966
 3732TIP3    H211203   5.004   1.122   4.262  0.2617  0.2079 -1.2047
 3733TIP3   OH211204   4.714   0.871   2.082  0.2918 -0.0175  0.3008
 3733TIP3    H111205   4.738   0.959   2.108  0.6531 -0.4807  1.6249
 3733TIP3    H211206   4.781   0.845   2.018  0.7357  0.3108  0.6363
 3734TIP3   OH211207   1.831   5.092   2.413  0.1913 -0.7048 -0.6363
 3734TIP3    H111208   1.926   5.090   2.424  0.2686 -0.2412 -1.1678
 3734TIP3    H211209   1.817   5.083   2.319 -0.1671  1.7603 -0.8736
 3735TIP3   OH211210   1.017   0.644   0.726 -0.2678  0.1597  0.3463
 3735TIP3    H111211   0.940   0.664   0.780 -1.0739  0.3021 -0.8147
 3735TIP3    H211212   1.089   0.637   0.789 -1.3531 -0.7201  1.5550
 3736TIP3   OH211213   3.636   5.821   0.349  0.1813 -0.1145 -0.1205
 3736TIP3    H111214   3.652   5.905   0.308  1.3249  0.4175  1.3208
 3736TIP3    H211215   3.721   5.777   0.351  0.8412  0.9319  3.7502
 3737TIP3   OH211216   2.988   3.101   2.369 -0.4524  0.0040 -0.2651
 3737TIP3    H111217   2.909   3.077   2.418 -0.7458  0.5504 -0.4677
 3737TIP3    H211218   3.011   3.188   2.401 -0.0793 -0.0445 -0.3938
 3738TIP3   OH211219   5.498   1.702   5.029  0.0429  0.0465  0.1402
 3738TIP3    H111220   5.481   1.748   5.112 -0.1967  0.7200 -0.2782
 3738TIP3    H211221   5.458   1.758   4.962 -3.6037 -2.5160 -0.1086
 3739TIP3   OH211222   4.641   5.615   0.542 -0.2911 -0.2064 -0.0683
 3739TIP3    H111223   4.572   5.669   0.503  1.5574 -0.0678 -3.5261
 3739TIP3    H211224   4.595   5.536   0.571 -2.1603  0.6430 -0.5715
 3740TIP3   OH211225   0.056   3.723   0.994 -0.3825  0.5825 -0.2405
 3740TIP3    H111226  -0.002   3.722   1.070 -0.9694 -1.4773 -0.6593
 3740TIP3    H211227   0.125   3.661   1.016  0.1792  0.9737 -0.8602
 3741TIP3   OH211228   5.712   0.457   3.289 -0.0966  0.0604 -0.5165
 3741TIP3    H111229   5.653   0.393   3.330  0.0533  1.6143  2.4316
 3741TIP3    H211230   5.768   0.405   3.232 -0.7084 -2.2916  0.8806
 3742TIP3   OH211231   2.061   2.111   2.669 -0.1638  0.4507 -0.1914
 3742TIP3    H111232   2.125   2.044   2.645  1.3260  1.5985  0.4337
 3742TIP3    H211233   2.000   2.067   2.727 -1.9267 -1.5303 -3.2655
 3743TIP3   OH211234   5.239   4.107   2.958  0.0670  0.2059  0.4023
 3743TIP3    H111235   5.325   4.147   2.960  0.3616  0.0140 -2.9743
 3743TIP3    H211236   5.178   4.181   2.955  0.1391  0.3370  1.6697
 3744TIP3   OH211237   5.747   4.521   1.713  0.1080 -0.3057 -0.3524
 3744TIP3    H111238   5.795   4.603   1.706  0.7150 -0.6072  0.2417
 3744TIP3    H211239   5.658   4.543   1.687  0.5499  0.2660 -1.4326
 3745TIP3   OH211240   3.635   0.073   2.787 -0.2295  0.2528 -0.8329
 3745TIP3    H111241   3.626   0.058   2.881  0.2315 -0.6715 -0.9232
 3745TIP3    H211242   3.546   0.068   2.752 -0.5558  1.7307 -0.3139
 3746TIP3   OH211243   3.423   2.458   1.893  0.6172  0.2569 -0.4899
 3746TIP3    H111244   3.476   2.493   1.822  2.4159 -0.8018  0.2399
 3746TIP3    H211245   3.464   2.492   1.973 -0.4436  0.2244  0.0910
 3747TIP3   OH211246   4.016   3.584   2.793 -0.9342 -0.3648  1.0696
 3747TIP3    H111247   4.033   3.491   2.809  2.2873 -0.5092 -1.9456
 3747TIP3    H211248   4.090   3.630   2.832  0.4119  0.2982 -1.9739
 3748TIP3   OH211249   1.746   1.792   2.628 -0.2375 -0.1015 -0.2713
 3748TIP3    H111250   1.839   1.791   2.602 -0.7012 -1.0699 -2.0269
 3748TIP3    H211251   1.746   1.834   2.714  1.8153  0.0521 -0.2962
 3749TIP3   OH211252   3.369   0.339   3.827 -0.5856  0.0888  0.1614
 3749TIP3    H111253   3.371   0.377   3.740  0.6332  0.5257  0.3682
 3749TIP3    H211254   3.318   0.258   3.817 -1.3601  0.6699 -0.7231
 3750TIP3   OH211255   4.452   1.656   4.902 -0.0119  0.3377 -0.0508
 3750TIP3    H111256   4.431   1.748   4.885  1.3818  0.5317 -0.8771
 3750TIP3    H211257   4.435   1.644   4.995  2.2426  2.1835  0.7052
 3751TIP3   OH211258   0.763   0.399   2.121  0.0171  0.1614  0.1897
 3751TIP3    H111259   0.703   0.466   2.088  0.8646  0.5186 -0.6902
 3751TIP3    H211260   0.841   0.448   2.146  0.9602 -0.5419 -1.2091
 3752TIP3   OH211261   0.309   5.014   1.883  0.6041 -0.1691 -0.3452
 3752TIP3    H111262   0.355   5.098   1.884  0.7691 -0.2493  1.0783
 3752TIP3    H211263   0.217   5.037   1.883  0.6484  0.0072 -0.8202
 3753TIP3   OH211264   6.311   2.919   0.247  0.9792  0.4802 -0.5144
 3753TIP3    H111265   6.231   2.971   0.255  0.0767 -0.8393 -0.4881
 3753TIP3    H211266   6.360   2.961   0.177  1.3404  2.6227  0.9383
 3754TIP3   OH211267   0.850   0.915   4.320  0.0612 -0.0170  0.1935
 3754TIP3    H111268   0.894   0.989   4.279  0.0015  1.2949  2.3820
 3754TIP3    H211269   0.769   0.905   4.271  0.4093  0.8826 -0.5959
 3755TIP3   OH211270   0.493   4.439   4.952  0.2768 -0.5087  0.0183
 3755TIP3    H111271   0.447   4.401   5.027  0.4847  0.2630  0.5471
 3755TIP3    H211272   0.447   4.521   4.934  1.2574  0.1334  0.3751
 3756TIP3   OH211273   0.632   0.527   0.093 -0.2368 -0.0543 -0.2465
 3756TIP3    H111274   0.711   0.479   0.118 -0.8263 -2.0341 -1.9514
 3756TIP3    H211275   0.659   0.619   0.092  2.2020 -0.7091 -1.2490
 3757TIP3   OH211276   1.188   3.035   0.168  0.0855 -0.2098 -0.3819
 3757TIP3    H111277   1.212   3.095   0.238 -1.9688 -0.2553  0.4386
 3757TIP3    H211278   1.093   3.046   0.158 -0.4332 -3.3549 -0.1011
 3758TIP3   OH211279   5.413   1.913   4.865  0.2791 -0.3701 -0.3532
 3758TIP3    H111280   5.338   1.973   4.868 -0.3062 -0.9045 -2.3306
 3758TIP3    H211281   5.489   1.970   4.880 -0.3702  0.6380 -0.7253
 3759TIP3   OH211282   3.689   0.573   3.319  0.2218 -0.5148  0.5132
 3759TIP3    H111283   3.646   0.579   3.233  2.6327 -0.3493 -0.7828
 3759TIP3    H211284   3.695   0.479   3.336 -1.8083 -0.5424  1.4224
 3760TIP3   OH211285   5.019   0.941   0.931 -0.1312  0.1110  0.0254
 3760TIP3    H111286   5.027   0.930   1.026 -0.9294  0.9734  0.2075
 3760TIP3    H211287   4.951   1.007   0.921  0.4000  0.4960 -1.1382
 3761TIP3   OH211288   0.716   5.022   1.145 -0.0398  0.2493  0.2022
 3761TIP3    H111289   0.803   5.037   1.107  0.1425  0.2549  0.6233
 3761TIP3    H211290   0.672   5.106   1.140 -0.2495  0.1057 -0.5813
 3762TIP3   OH211291   3.770   3.926   4.172 -0.1959 -0.1022 -0.0114
 3762TIP3    H111292   3.765   3.918   4.267 -0.9023 -2.4293 -0.1829
 3762TIP3    H211293   3.796   3.839   4.142 -2.5220 -0.1988 -2.0779
 3763TIP3   OH211294   5.742   3.469   2.386  0.0669 -0.6030  0.2109
 3763TIP3    H111295   5.685   3.534   2.345 -1.0061 -1.1140  0.8582
 3763TIP3    H211296   5.824   3.516   2.403  0.4149 -0.2748 -2.1081
 3764TIP3   OH211297   1.942   4.487   0.609 -0.3064  0.1282 -0.0018
 3764TIP3    H111298   1.989   4.473   0.527 -0.8283 -1.6945 -0.0176
 3764TIP3    H211299   1.986   4.432   0.673 -1.4194 -0.3732  0.3570
 3765TIP3   OH211300   0.403   5.088   4.138 -0.5691  0.0640  0.1937
 3765TIP3    H111301   0.366   5.115   4.221 -1.0695 -1.7952  0.6187
 3765TIP3    H211302   0.472   5.152   4.120  0.6290 -0.3498  2.8249
 3766TIP3   OH211303   0.063   4.656   4.411 -0.1509  0.0971  0.0271
 3766TIP3    H111304   0.001   4.583   4.409  0.3791 -0.3446 -1.1196
 3766TIP3    H211305   0.084   4.672   4.319  0.6545  0.9125  0.3369
 3767TIP3   OH211306   0.223   0.014   0.347 -0.1330 -0.2309  0.1439
 3767TIP3    H111307   0.293  -0.021   0.402 -0.7804 -0.7186  0.6708
 3767TIP3    H211308   0.265   0.083   0.295  1.1019 -1.6158 -0.7403
 3768TIP3   OH211309   3.412   3.523   2.277  0.2683  0.1601 -0.3760
 3768TIP3    H111310   3.483   3.472   2.239  1.1815  0.1363  1.2703
 3768TIP3    H211311   3.456   3.584   2.336 -1.1355 -0.9350  1.9245
 3769TIP3   OH211312   5.838   3.543   1.731  0.1820  0.1152 -0.2988
 3769TIP3    H111313   5.786   3.568   1.807  0.8701  0.7609 -0.0320
 3769TIP3    H211314   5.777   3.495   1.675 -0.9154  1.5114 -0.3453
 3770TIP3   OH211315   1.119   3.759   2.349 -0.0168 -0.0193  0.1919
 3770TIP3    H111316   1.063   3.831   2.379 -1.2128  0.3126 -2.5263
 3770TIP3    H211317   1.057   3.694   2.314  1.1520 -1.4854  0.7312
 3771TIP3   OH211318   4.554   4.033   0.527  0.0417  0.2337 -0.3314
 3771TIP3    H111319   4.539   4.107   0.586  0.6453 -0.1714  0.3461
 3771TIP3    H211320   4.471   4.021   0.481 -0.1486  1.1491 -0.2385
 3772TIP3   OH211321   0.064   4.160   2.403  0.4353 -0.4155 -0.5166
 3772TIP3    H111322   0.045   4.132   2.314 -0.8777 -1.2492 -0.0069
 3772TIP3    H211323   0.156   4.135   2.417  0.7677  0.0721 -1.7381
 3773TIP3   OH211324   4.546   3.666   3.049  0.6544 -0.1716 -0.2422
 3773TIP3    H111325   4.519   3.649   3.139  1.8998  0.0771  0.1973
 3773TIP3    H211326   4.485   3.615   2.996 -0.0402 -0.3936  0.7424
 3774TIP3   OH211327   5.370   4.373   3.018  0.5411  0.1669  0.0266
 3774TIP3    H111328   5.464   4.392   3.027  0.3622  0.6390  1.0455
 3774TIP3    H211329   5.341   4.431   2.948  1.1215 -0.3981 -0.6975
 3775TIP3   OH211330   0.890   5.116   4.700 -0.6011  0.1102 -0.3769
 3775TIP3    H111331   0.895   5.205   4.737 -1.0794  0.6192 -1.5105
 3775TIP3    H211332   0.977   5.079   4.717 -0.4420  0.7320  0.2376
 3776TIP3   OH211333   0.330   0.296   1.284  0.4697  0.0338  0.5338
 3776TIP3    H111334   0.355   0.280   1.375  1.0777  1.3182  0.6060
 3776TIP3    H211335   0.296   0.212   1.254  0.7228 -0.5432  1.7926
 3777TIP3   OH211336   5.241   1.172   1.201 -0.1765  0.3131  0.1913
 3777TIP3    H111337   5.302   1.154   1.129 -0.6703 -0.7838  0.0172
 3777TIP3    H211338   5.283   1.135   1.278 -1.7399 -3.0032 -0.3693
 3778TIP3   OH211339   1.662   4.674   4.913 -0.8033  0.6689 -0.8386
 3778TIP3    H111340   1.752   4.702   4.896  0.2766 -1.7819  0.3450
 3778TIP3    H211341   1.647   4.602   4.852 -1.6306  0.4464 -0.3922
 3779TIP3   OH211342   2.946   3.824   1.445 -0.4129  0.4499 -0.1450
 3779TIP3    H111343   2.861   3.815   1.402 -0.0300 -0.3158 -0.7621
 3779TIP3    H211344   2.969   3.735   1.472  0.3582  0.5934 -0.3060
 3780TIP3   OH211345   3.160   0.878   3.661 -0.3745  0.2694  0.1221
 3780TIP3    H111346   3.065   0.878   3.664 -0.3616  0.1250  0.6220
 3780TIP3    H211347   3.183   0.959   3.616 -0.7291  0.3252  0.0385
 3781TIP3   OH211348   1.499   1.459   2.386 -0.4304  0.0389  0.1858
 3781TIP3    H111349   1.445   1.411   2.323  0.2638  0.4397 -0.7285
 3781TIP3    H211350   1.452   1.449   2.469 -0.6308 -1.6834 -0.0990
 3782TIP3   OH211351   2.331   0.511   3.729 -0.2933  0.2695 -0.1455
 3782TIP3    H111352   2.356   0.420   3.716  0.6346  0.4308  0.3651
 3782TIP3    H211353   2.412   0.554   3.757 -0.7484  1.2195 -0.2411
 3783TIP3   OH211354   0.660   2.294   0.710  0.0074  0.2049  0.2936
 3783TIP3    H111355   0.623   2.329   0.629  0.9021 -0.3042 -0.3642
 3783TIP3    H211356   0.715   2.365   0.743 -0.8347  0.6373  0.7986
 3784TIP3   OH211357   1.302   5.471   4.532 -0.5275  0.3929  0.3263
 3784TIP3    H111358   1.328   5.563   4.526 -1.7926  0.9465  2.4477
 3784TIP3    H211359   1.226   5.465   4.474  0.4160  0.2745 -0.9609
 3785TIP3   OH211360   1.363   1.670   4.634  0.5395 -0.0713 -0.3372
 3785TIP3    H111361   1.440   1.726   4.635 -0.2154  1.0155 -0.3306
 3785TIP3    H211362   1.397   1.581   4.635  1.7772  0.3877 -0.1854
 3786TIP3   OH211363   6.140   1.369   4.292  0.2998  0.2097 -0.1653
 3786TIP3    H111364   6.177   1.313   4.361  0.1184 -1.1232 -1.1145
 3786TIP3    H211365   6.145   1.316   4.213  0.1003  1.5544 -1.1057
 3787TIP3   OH211366   4.252   5.444   1.628  1.2522  0.0403  0.0878
 3787TIP3    H111367   4.272   5.364   1.678  0.9118 -0.4601 -0.5602
 3787TIP3    H211368   4.312   5.509   1.663  1.5010 -0.4843  0.6709
 3788TIP3   OH211369   1.124   5.449   2.992  0.3109 -0.2969  0.2972
 3788TIP3    H111370   1.112   5.366   3.037 -2.1743 -0.8075 -1.1351
 3788TIP3    H211371   1.083   5.514   3.050  0.6596 -0.3355  0.5894
 3789TIP3   OH211372   5.381   2.328   0.845 -0.1240  0.1432  0.1622
 3789TIP3    H111373   5.437   2.287   0.910  0.6812  1.5787  0.4237
 3789TIP3    H211374   5.421   2.413   0.829 -0.9962  0.3180 -1.3097
 3790TIP3   OH211375   0.288   4.584   3.073  0.0987 -0.1135  0.0781
 3790TIP3    H111376   0.228   4.650   3.037  0.8288  0.0566 -0.8615
 3790TIP3    H211377   0.246   4.500   3.053  0.4987 -0.0179 -1.1842
 3791TIP3   OH211378   4.431   0.792   1.589  0.1657 -0.5206  0.3694
 3791TIP3    H111379   4.419   0.727   1.520  0.5282 -1.3289  1.0526
 3791TIP3    H211380   4.468   0.743   1.663 -1.8835 -0.0648  1.7915
 3792TIP3   OH211381   2.950   2.620   1.516 -0.2387  0.6756  0.3947
 3792TIP3    H111382   3.006   2.565   1.571  0.8351  1.4149  0.0755
 3792TIP3    H211383   2.861   2.589   1.534  0.2422 -0.3711  1.0954
 3793TIP3   OH211384   1.148   0.723   2.807  0.5869  0.3753 -0.1309
 3793TIP3    H111385   1.102   0.667   2.745 -0.5712 -1.6369  2.3798
 3793TIP3    H211386   1.234   0.737   2.767 -1.2810  2.5476 -3.9941
 3794TIP3   OH211387   2.973   0.683   4.572  0.0286 -0.2960  0.3997
 3794TIP3    H111388   3.035   0.753   4.590 -0.6315  0.2484  0.6333
 3794TIP3    H211389   2.942   0.655   4.658 -2.9695  2.1630  0.3212
 3795TIP3   OH211390   2.883   3.363   1.212  0.1177 -0.5635  0.0772
 3795TIP3    H111391   2.924   3.387   1.129 -1.0406  0.4849 -0.2301
 3795TIP3    H211392   2.852   3.446   1.248  0.0183 -1.0879  1.2468
 3796TIP3   OH211393   4.907   1.279   4.308 -0.2775  0.3475 -0.4682
 3796TIP3    H111394   4.836   1.317   4.256 -2.5110  0.1863  2.1795
 3796TIP3    H211395   4.912   1.335   4.386  0.3106 -1.4464  0.8595
 3797TIP3   OH211396   2.447   5.821   1.165 -0.3788 -0.0459 -0.2195
 3797TIP3    H111397   2.484   5.804   1.078 -1.8667  1.2423 -1.1587
 3797TIP3    H211398   2.457   5.916   1.177 -2.0696  0.1241  0.0694
 3798TIP3   OH211399   3.162   0.206   4.440 -0.0008  0.3990  0.3198
 3798TIP3    H111400   3.234   0.204   4.503  0.3090  3.1063  0.1582
 3798TIP3    H211401   3.112   0.285   4.462 -1.5381 -0.1153 -1.0776
 3799TIP3   OH211402   2.261   2.534   3.174  0.3953  0.3725  0.0845
 3799TIP3    H111403   2.242   2.440   3.177 -1.7210  0.6918 -0.9806
 3799TIP3    H211404   2.174   2.575   3.171  1.2695  2.3899  0.8920
 3800TIP3   OH211405   1.594   5.754   1.277  0.6972 -0.5283  0.6584
 3800TIP3    H111406   1.513   5.777   1.323  0.3941  0.9439 -0.5122
 3800TIP3    H211407   1.651   5.717   1.344 -0.5939 -0.6883  1.6983
 3801TIP3   OH211408   3.874   3.157   0.877 -0.2388 -0.0972  0.3840
 3801TIP3    H111409   3.815   3.169   0.802  0.3856  0.3574 -0.0392
 3801TIP3    H211410   3.897   3.245   0.904  2.2296 -0.2284 -1.0358
 3802TIP3   OH211411   5.007   2.438   2.047 -0.2603  0.1526 -0.4826
 3802TIP3    H111412   5.003   2.426   2.142 -0.4617 -0.2242 -0.5348
 3802TIP3    H211413   4.978   2.528   2.033 -0.3875  0.1578 -0.1971
 3803TIP3   OH211414   3.518   0.971   1.882  0.1768 -0.2284 -0.5492
 3803TIP3    H111415   3.489   1.056   1.915  1.4953  0.8184 -1.9367
 3803TIP3    H211416   3.581   0.940   1.947 -1.2977 -0.8290  0.6527
 3804TIP3   OH211417   2.164   2.168   3.409 -0.0707 -0.3692 -0.1799
 3804TIP3    H111418   2.186   2.076   3.416  1.5458  0.0888  1.8230
 3804TIP3    H211419   2.246   2.211   3.385 -0.7104  0.5897 -0.7055
 3805TIP3   OH211420   5.944   2.100   4.951 -0.3337 -0.0846 -0.5670
 3805TIP3    H111421   5.892   2.177   4.931 -0.4130  0.0636  0.1965
 3805TIP3    H211422   6.034   2.132   4.953 -0.0828 -0.4724 -2.6098
 3806TIP3   OH211423   1.123   3.113   3.434 -0.0011  0.4581  0.9719
 3806TIP3    H111424   1.047   3.064   3.404  1.0542 -0.6935  0.0495
 3806TIP3    H211425   1.198   3.067   3.395  1.1095  2.1538  0.9982
 3807TIP3   OH211426   5.783   2.056   2.257  0.3787 -0.1059 -0.2004
 3807TIP3    H111427   5.765   2.010   2.339 -3.1191  2.7863  0.9095
 3807TIP3    H211428   5.767   1.990   2.189  0.5991 -1.8117  1.3065
 3808TIP3   OH211429   0.735   0.492   0.527 -0.1823  0.2466  0.4199
 3808TIP3    H111430   0.730   0.417   0.468 -1.6454  0.8202 -0.2383
 3808TIP3    H211431   0.760   0.565   0.470  2.5840  0.0889  1.2750
 3809TIP3   OH211432   3.298   0.144   1.458  0.2199  0.2885 -0.3034
 3809TIP3    H111433   3.313   0.214   1.521 -0.9670  1.1557 -0.9431
 3809TIP3    H211434   3.279   0.067   1.512 -0.0607  0.8504  0.4148
 3810TIP3   OH211435   3.941   0.491   4.961  0.3904 -0.0947 -0.2035
 3810TIP3    H111436   4.034   0.505   4.979  0.8896 -2.7673 -0.3119
 3810TIP3    H211437   3.902   0.479   5.048  0.4565 -0.6092 -0.2451
 3811TIP3   OH211438   0.253   0.239   2.391 -0.0392 -0.1834  0.0482
 3811TIP3    H111439   0.296   0.154   2.384  0.7887  0.3422 -2.1513
 3811TIP3    H211440   0.248   0.256   2.485  1.5444 -1.7767  0.4689
 3812TIP3   OH211441   6.056   1.801   3.185  0.1727  0.2190 -0.1364
 3812TIP3    H111442   6.082   1.821   3.275  2.5775 -1.0709 -0.4524
 3812TIP3    H211443   6.106   1.863   3.131  0.7558 -0.6683 -0.6619
 3813TIP3   OH211444   3.909   2.542   3.388 -0.0679  0.4163 -0.2098
 3813TIP3    H111445   3.841   2.539   3.455  0.4183 -1.5493  0.2724
 3813TIP3    H211446   3.901   2.629   3.349 -1.6449  0.8906  1.0617
 3814TIP3   OH211447   0.468   5.312   1.617  0.8958 -0.2270  0.2435
 3814TIP3    H111448   0.505   5.398   1.597  1.1541 -0.4537 -0.2852
 3814TIP3    H211449   0.390   5.306   1.562  1.8064 -0.9989 -1.0187
 3815TIP3   OH211450   4.995   3.374   1.397 -0.2341 -0.0322  0.3483
 3815TIP3    H111451   4.982   3.361   1.303 -0.6386 -1.0152  0.5243
 3815TIP3    H211452   4.989   3.468   1.410  1.1707  0.2446 -0.8013
 3816TIP3   OH211453   3.051   0.979   4.912  0.1033  0.4431 -0.0211
 3816TIP3    H111454   3.122   1.041   4.894 -0.6916  1.1109 -0.9458
 3816TIP3    H211455   3.000   0.978   4.831 -1.5033  0.7358  0.9577
 3817TIP3   OH211456   5.007   5.978   2.336 -0.0326  0.1635  0.4756
 3817TIP3    H111457   4.977   6.053   2.284  0.3177  0.3226  0.5007
 3817TIP3    H211458   5.056   5.924   2.273  3.0903  1.8782  1.2406
 3818TIP3   OH211459   0.688   2.212   3.208  0.0787 -0.1515 -0.4680
 3818TIP3    H111460   0.713   2.221   3.300 -2.8433  0.8142  0.3226
 3818TIP3    H211461   0.699   2.119   3.189  1.5040 -0.2281  0.5611
 3819TIP3   OH211462   5.794   1.095   2.254  0.1540 -0.5150  0.0946
 3819TIP3    H111463   5.847   1.086   2.334  1.2392  1.6152 -0.3139
 3819TIP3    H211464   5.844   1.049   2.187  0.3596 -0.4190  0.1814
 3820TIP3   OH211465   0.099   2.821   3.950  0.0748  0.3295 -0.4516
 3820TIP3    H111466   0.026   2.799   4.007  0.5891 -1.4444 -0.4172
 3820TIP3    H211467   0.112   2.742   3.896  1.7809  0.6922 -0.6327
 3821TIP3   OH211468   0.374   2.909   0.493  0.0018  0.0911  0.2108
 3821TIP3    H111469   0.291   2.869   0.471 -0.8028  1.8306 -0.1304
 3821TIP3    H211470   0.377   2.989   0.441  0.9709  1.0819  1.6844
 3822TIP3   OH211471   1.976   1.604   0.158  0.0538  0.5425 -0.0416
 3822TIP3    H111472   1.922   1.640   0.088 -0.6893 -0.2032  0.1319
 3822TIP3    H211473   1.976   1.672   0.225 -0.1401  0.8058 -0.3028
 3823TIP3   OH211474   1.656   5.509   0.856  0.3092 -0.4522  0.1975
 3823TIP3    H111475   1.727   5.552   0.905  0.3725  0.1856 -0.4409
 3823TIP3    H211476   1.615   5.451   0.920  0.2117  0.5681  1.0941
 3824TIP3   OH211477   3.016   5.521   3.825 -0.0268  0.0357  1.2048
 3824TIP3    H111478   3.092   5.493   3.877  0.9884 -1.2244 -0.8256
 3824TIP3    H211479   3.019   5.466   3.747 -1.1604  2.2039 -0.4647
 3825TIP3   OH211480   6.115   0.394   4.037 -1.0352 -0.4842 -0.0165
 3825TIP3    H111481   6.056   0.327   4.002  1.7199 -1.5840 -3.0039
 3825TIP3    H211482   6.186   0.345   4.078  0.6580  0.5508 -1.5911
 3826TIP3   OH211483   5.117   4.108   3.778  0.1641  0.5835  0.9577
 3826TIP3    H111484   5.129   4.203   3.778  0.4027  0.5551  0.8131
 3826TIP3    H211485   5.090   4.087   3.688 -1.6855  0.7236  1.4456
 3827TIP3   OH211486   5.014   4.326   2.600 -0.1346  0.0404 -0.2146
 3827TIP3    H111487   4.970   4.385   2.661  0.1724  1.6941 -1.5142
 3827TIP3    H211488   4.948   4.306   2.534 -0.2692 -1.2142  0.2661
 3828TIP3   OH211489   2.890   4.440   2.108 -0.3092 -0.5066 -0.5117
 3828TIP3    H111490   2.960   4.505   2.111  0.8917 -1.7546  1.9883
 3828TIP3    H211491   2.922   4.373   2.048  0.5011 -0.8633  0.2910
 3829TIP3   OH211492   5.533   5.908   0.585 -0.6289 -0.3931 -0.1084
 3829TIP3    H111493   5.624   5.881   0.592 -0.7862 -0.5585  1.9671
 3829TIP3    H211494   5.517   5.959   0.665 -2.1555  0.2152 -0.7730
 3830TIP3   OH211495   4.860   0.180   5.137 -0.1226  0.6545 -0.1840
 3830TIP3    H111496   4.947   0.210   5.109  0.1130 -1.8127 -2.4310
 3830TIP3    H211497   4.865   0.085   5.132 -2.2522  0.3339  2.0532
 3831TIP3   OH211498   5.519   0.929   0.473 -0.5487  0.1220 -0.2025
 3831TIP3    H111499   5.451   0.931   0.540 -0.1002 -1.4945  0.3537
 3831TIP3    H211500   5.552   0.840   0.476  3.8569  1.5555  1.8391
 3832TIP3   OH211501   1.552   4.482   4.408 -0.6887  0.6760  0.0992
 3832TIP3    H111502   1.553   4.497   4.313 -1.1770  0.0538 -0.0165
 3832TIP3    H211503   1.484   4.540   4.441 -0.6627  0.7401  0.0392
 3833TIP3   OH211504   4.018   2.224   3.513 -0.2851 -0.0203 -0.6284
 3833TIP3    H111505   4.013   2.136   3.548 -1.6815  0.3739  0.2275
 3833TIP3    H211506   4.050   2.277   3.586 -4.0577  0.9617  0.5519
 3834TIP3   OH211507   5.289   0.609   4.724  0.1453  0.4699 -0.1286
 3834TIP3    H111508   5.374   0.638   4.759 -0.0359  2.5367 -1.2299
 3834TIP3    H211509   5.307   0.588   4.633 -1.0135  4.2192 -1.3984
 3835TIP3   OH211510   5.992   1.945   3.555  0.1254  0.0880  0.6640
 3835TIP3    H111511   6.003   1.856   3.589 -1.1828 -0.6281 -0.6753
 3835TIP3    H211512   5.897   1.957   3.547  0.3082  1.2615 -0.0297
 3836TIP3   OH211513   5.225   0.913   3.357  0.0711  0.5028 -0.1555
 3836TIP3    H111514   5.163   0.875   3.295 -0.1685 -1.5650  1.2510
 3836TIP3    H211515   5.311   0.900   3.317 -0.1275 -0.2025 -0.3566
 3837TIP3   OH211516   3.864   1.926   2.242 -0.0000  0.3389  0.0616
 3837TIP3    H111517   3.936   1.973   2.284 -0.7133  0.5210  1.1252
 3837TIP3    H211518   3.786   1.953   2.291 -0.9340  0.8307 -1.6110
 3838TIP3   OH211519   1.044   1.096   1.280 -0.0960 -0.5997  0.1053
 3838TIP3    H111520   1.005   1.184   1.285 -0.4933 -0.4324 -3.2626
 3838TIP3    H211521   1.130   1.106   1.320 -0.5956  0.9985  0.8696
 3839TIP3   OH211522   0.751   2.086   2.177 -0.3173  0.7969 -0.4836
 3839TIP3    H111523   0.827   2.142   2.194  0.5674 -0.3300 -0.5942
 3839TIP3    H211524   0.753   2.072   2.082 -1.0793  1.2913 -0.5904
 3840TIP3   OH211525   0.543   2.753   0.631 -0.7640 -0.0179 -0.3370
 3840TIP3    H111526   0.605   2.784   0.697 -0.5178  0.7123 -0.9089
 3840TIP3    H211527   0.495   2.831   0.604 -1.7156 -0.5095 -0.1567
 3841TIP3   OH211528   3.843   4.908   1.368  0.1255 -0.0171  0.2117
 3841TIP3    H111529   3.807   4.819   1.365  1.2149 -0.4614  0.1462
 3841TIP3    H211530   3.938   4.896   1.369  0.2833  1.1245  0.8898
 3842TIP3   OH211531   2.097   3.550   3.395 -0.3034 -0.0442 -0.2290
 3842TIP3    H111532   2.172   3.516   3.444  0.3215  1.2784 -0.2173
 3842TIP3    H211533   2.073   3.479   3.336  0.2650 -0.8924  0.5381
 3843TIP3   OH211534   4.231   5.985   2.643 -0.2416  0.0556  0.1525
 3843TIP3    H111535   4.304   5.923   2.636 -0.0663  0.2973 -0.1457
 3843TIP3    H211536   4.245   6.029   2.727 -0.0740  0.0676  0.1185
 3844TIP3   OH211537   5.469   5.812   0.182  0.2468 -0.7923 -0.2183
 3844TIP3    H111538   5.464   5.724   0.219  1.4861 -0.1638  1.5195
 3844TIP3    H211539   5.528   5.804   0.107  2.4090 -1.0225  1.4228
 3845TIP3   OH211540   3.431   3.734   2.789 -0.2186  0.0234 -0.4984
 3845TIP3    H111541   3.448   3.639   2.787 -1.1937 -0.2043  0.5721
 3845TIP3    H211542   3.447   3.759   2.880 -2.7616  0.2876 -0.0456
 3846TIP3   OH211543   1.794   1.402   1.936  0.2560  0.1302  0.3826
 3846TIP3    H111544   1.782   1.347   2.013  2.9851  1.3223  1.7725
 3846TIP3    H211545   1.869   1.364   1.891 -1.8185 -1.1030 -2.3561
 3847TIP3   OH211546   3.088   3.012   1.731  0.1348 -0.1828 -0.6803
 3847TIP3    H111547   3.043   2.988   1.650 -0.0393  1.2754 -1.0408
 3847TIP3    H211548   3.139   3.089   1.708  0.9191 -0.3762  0.3486
 3848TIP3   OH211549   1.718   2.152   0.111  0.2835 -0.0375  0.3651
 3848TIP3    H111550   1.804   2.194   0.108  0.2716  0.0252  0.8250
 3848TIP3    H211551   1.656   2.224   0.109  0.1300 -0.1231 -2.7419
 3849TIP3   OH211552   4.521   2.454   2.347 -0.3318  0.1503  0.6658
 3849TIP3    H111553   4.470   2.394   2.293  0.3309 -0.1605  0.3773
 3849TIP3    H211554   4.601   2.469   2.297 -0.0185  0.4165  1.2413
 3850TIP3   OH211555   2.931   2.433   4.070 -0.0917 -0.6651 -0.7010
 3850TIP3    H111556   2.957   2.429   4.162 -0.0616  0.6583 -0.6276
 3850TIP3    H211557   2.836   2.439   4.073 -0.0905 -0.6208 -0.7518
 3851TIP3   OH211558   3.175   4.644   1.192  0.4782  0.0796  0.4564
 3851TIP3    H111559   3.238   4.579   1.224  2.8554  0.9498 -2.0667
 3851TIP3    H211560   3.104   4.592   1.154  2.5770 -1.2071 -2.0014
 3852TIP3   OH211561   3.933   1.546   1.100  0.1997 -0.2852 -0.2319
 3852TIP3    H111562   3.965   1.611   1.037 -0.4409 -0.1456 -0.4181
 3852TIP3    H211563   3.962   1.462   1.064  0.6257 -0.1385 -0.2353
 3853TIP3   OH211564   2.518   4.425   4.162 -0.4905  0.0722 -0.2966
 3853TIP3    H111565   2.466   4.379   4.097  1.1296 -0.4032 -1.3356
 3853TIP3    H211566   2.605   4.384   4.156 -0.0649  0.5870  1.5829
 3854TIP3   OH211567   3.623   0.553   4.461  0.1634  0.2551  0.3777
 3854TIP3    H111568   3.569   0.510   4.527  0.1983  1.9030  1.5489
 3854TIP3    H211569   3.572   0.629   4.434  1.3555  1.1825  0.6336
 3855TIP3   OH211570   4.072   1.334   0.040  0.3328  0.4087  0.0120
 3855TIP3    H111571   4.108   1.332   0.128  2.1276 -0.0800 -0.6831
 3855TIP3    H211572   4.087   1.423   0.009 -0.7156  0.7137  0.3362
 3856TIP3   OH211573   5.119   3.933   0.244 -0.8748 -0.0990 -0.0599
 3856TIP3    H111574   5.123   4.025   0.218 -0.0714  0.1336  0.8357
 3856TIP3    H211575   5.121   3.885   0.161 -0.3695  0.6654 -0.5068
 3857TIP3   OH211576   2.926   3.316   5.041 -0.3393 -0.2321 -0.1347
 3857TIP3    H111577   2.859   3.270   5.092 -0.2906  3.1645  3.4264
 3857TIP3    H211578   3.009   3.281   5.074 -0.2717 -1.1931 -1.2525
 3858TIP3   OH211579   2.996   0.258   3.961 -0.5633 -0.0544  0.2154
 3858TIP3    H111580   2.913   0.287   3.924 -0.7591 -0.2010  0.5355
 3858TIP3    H211581   3.029   0.335   4.009 -0.8554 -0.2080  0.6719
 3859TIP3   OH211582   0.898   2.944   5.173 -0.7317  0.5726 -0.1442
 3859TIP3    H111583   0.831   2.897   5.223  1.6583 -1.4682  1.4110
 3859TIP3    H211584   0.884   2.916   5.082 -1.2078 -0.8657  0.3487
 3860TIP3   OH211585   5.254   5.485   1.995 -0.0252  0.3184  0.2302
 3860TIP3    H111586   5.171   5.440   1.980 -0.8934  2.2647 -1.3161
 3860TIP3    H211587   5.256   5.501   2.090 -1.7237  0.7098  0.2397
 3861TIP3   OH211588   3.275   1.509   3.316 -0.4040 -0.0282  0.1076
 3861TIP3    H111589   3.361   1.549   3.299 -0.6994  0.3810 -0.4508
 3861TIP3    H211590   3.287   1.461   3.398 -0.1317  1.5178  1.0140
 3862TIP3   OH211591   2.213   5.431   5.012 -0.3719  0.8288 -0.1536
 3862TIP3    H111592   2.301   5.463   4.989  1.3414 -2.1793  1.5867
 3862TIP3    H211593   2.195   5.469   5.098 -0.5007  0.9431 -0.2307
 3863TIP3   OH211594   4.690   2.406   3.851 -0.1595 -0.2564  0.0887
 3863TIP3    H111595   4.601   2.432   3.829 -0.3014 -1.6879 -1.2120
 3863TIP3    H211596   4.743   2.434   3.777  0.0860 -1.3022 -0.1583
 3864TIP3   OH211597   3.411   4.917   3.589 -0.5348 -0.1033 -0.1475
 3864TIP3    H111598   3.420   4.966   3.507 -0.5997 -0.4502 -0.3656
 3864TIP3    H211599   3.379   4.981   3.652 -1.8556 -0.1287 -0.7435
 3865TIP3   OH211600   6.300   1.884   2.410  0.2182 -0.6247  0.4519
 3865TIP3    H111601   6.379   1.876   2.464  0.9883  1.4660 -0.2703
 3865TIP3    H211602   6.228   1.865   2.471  1.1116  0.6705  1.9956
 3866TIP3   OH211603   5.598   3.715   0.823 -0.1921  0.1082 -0.1103
 3866TIP3    H111604   5.623   3.757   0.906 -0.0482  1.7700 -0.9577
 3866TIP3    H211605   5.514   3.672   0.843 -0.9333  1.7509  0.5421
 3867TIP3   OH211606   4.149   0.702   3.277 -0.5271  0.9794 -1.0348
 3867TIP3    H111607   4.235   0.720   3.239  0.1777  0.5022  0.2513
 3867TIP3    H211608   4.131   0.611   3.252  0.1648  0.4948  0.0864
 3868TIP3   OH211609   2.581   2.348   2.105  0.5216  0.1161  0.0539
 3868TIP3    H111610   2.525   2.363   2.182  0.1840 -0.9650  0.0297
 3868TIP3    H211611   2.620   2.262   2.120  0.5113 -0.0756 -0.9433
 3869TIP3   OH211612   4.722   2.641   0.862 -0.3974  0.3354 -0.2997
 3869TIP3    H111613   4.758   2.730   0.861  0.6285 -0.0632 -1.1639
 3869TIP3    H211614   4.672   2.635   0.781 -0.4795  0.1296 -0.2338
 3870TIP3   OH211615   2.002   4.167   3.520  0.2745  0.1633 -0.3396
 3870TIP3    H111616   1.932   4.165   3.586  0.0744  0.5373 -0.5351
 3870TIP3    H211617   1.959   4.198   3.441  0.6944  0.5259 -0.4288
 3871TIP3   OH211618   3.085   3.276   1.914 -0.0628 -0.2353 -0.1288
 3871TIP3    H111619   3.050   3.214   1.978 -0.1240 -0.2204 -0.1480
 3871TIP3    H211620   3.169   3.304   1.951 -0.1818 -0.0915  0.0299
 3872TIP3   OH211621   6.336   0.703   4.095  0.0384 -0.4792  0.2185
 3872TIP3    H111622   6.414   0.647   4.101 -0.4953 -1.1741  0.9428
 3872TIP3    H211623   6.269   0.648   4.056 -0.5254 -0.4023  1.0332
 3873TIP3   OH211624   4.521   0.455   1.618  0.0111  0.3438 -0.3533
 3873TIP3    H111625   4.491   0.519   1.682 -1.5107 -0.8441  0.1744
 3873TIP3    H211626   4.489   0.488   1.534  1.4561  1.5675 -0.4616
 3874TIP3   OH211627   3.958   0.043   4.598  0.1369 -0.8372  0.5842
 3874TIP3    H111628   3.964   0.069   4.690  0.9631 -0.0470  0.3235
 3874TIP3    H211629   3.979   0.123   4.549  2.1547 -1.8216 -0.2737
 3875TIP3   OH211630   2.324   4.129   1.005  0.4095 -0.0598  0.0252
 3875TIP3    H111631   2.305   4.042   0.970 -0.2054 -0.7765  2.0513
 3875TIP3    H211632   2.419   4.139   0.994  0.5922 -1.2705  0.3947
 3876TIP3   OH211633   0.143   1.844   1.862  0.2662  0.4012 -0.0735
 3876TIP3    H111634   0.129   1.938   1.852 -1.3975  0.5479  2.6603
 3876TIP3    H211635   0.233   1.836   1.895 -0.4525  1.3625  2.3469
 3877TIP3   OH211636   5.690   5.970   0.050  0.5682  0.0848  0.3256
 3877TIP3    H111637   5.749   5.920  -0.006 -0.5804  0.8691 -1.6859
 3877TIP3    H211638   5.741   6.048   0.074  0.2120  1.1008 -1.9660
 3878TIP3   OH211639   4.401   3.148   0.761  0.2407  0.2863  0.0671
 3878TIP3    H111640   4.432   3.185   0.678 -0.4715 -0.1929 -0.4266
 3878TIP3    H211641   4.438   3.059   0.763  2.9045  1.3182  1.7876
 3879TIP3   OH211642   2.695   0.412   4.078 -0.4643 -0.8335 -0.2093
 3879TIP3    H111643   2.720   0.342   4.139 -0.7571 -1.5750 -0.9216
 3879TIP3    H211644   2.704   0.372   3.991  0.7115  0.4419 -0.7148
 3880TIP3   OH211645   2.944   3.184   3.381 -0.4711  0.5321  0.3134
 3880TIP3    H111646   2.937   3.118   3.450  0.7712  0.1507  0.0886
 3880TIP3    H211647   3.036   3.183   3.356 -1.0207  0.0899 -1.8902
 3881TIP3   OH211648   2.830   0.735   0.403  0.6008 -0.0348  0.6798
 3881TIP3    H111649   2.779   0.661   0.436  0.6540 -0.3449  0.0860
 3881TIP3    H211650   2.791   0.812   0.445  0.1600 -0.3425  0.8412
 3882TIP3   OH211651   5.459   5.828   4.399  0.0176  0.6669  0.4781
 3882TIP3    H111652   5.493   5.809   4.487 -1.0466 -0.4841  0.6782
 3882TIP3    H211653   5.423   5.917   4.407  0.4459  0.8005  1.0396
 3883TIP3   OH211654   1.889   5.809   4.448 -0.1237  0.2527 -0.5538
 3883TIP3    H111655   1.892   5.744   4.518  0.4266  0.1996 -0.6201
 3883TIP3    H211656   1.899   5.893   4.493  1.4191  0.1526 -0.6538
 3884TIP3   OH211657   2.518   3.358   0.059  0.1398 -0.0576 -0.3004
 3884TIP3    H111658   2.544   3.438   0.106  1.1840 -0.6195  0.0909
 3884TIP3    H211659   2.532   3.287   0.122 -0.2205 -0.6222 -0.8466
 3885TIP3   OH211660   2.576   5.305   2.214 -0.2576  0.1497 -0.8960
 3885TIP3    H111661   2.558   5.393   2.180 -1.7883  0.6688  1.0880
 3885TIP3    H211662   2.506   5.289   2.278  1.4523 -1.4662  0.6752
 3886TIP3   OH211663   1.146   3.521   4.414  0.2817 -0.1486 -0.3590
 3886TIP3    H111664   1.064   3.483   4.445  0.1468 -0.2436 -0.8321
 3886TIP3    H211665   1.159   3.598   4.470  0.9935 -1.3343  1.1712
 3887TIP3   OH211666   1.189   5.569   3.345 -0.0160 -0.3295  0.0919
 3887TIP3    H111667   1.245   5.633   3.301  0.2813  0.5483  1.6747
 3887TIP3    H211668   1.105   5.576   3.300  0.1622  0.8392 -0.0853
 3888TIP3   OH211669   1.114   1.554   1.478 -0.2159  0.0918  0.3316
 3888TIP3    H111670   1.030   1.594   1.500 -0.4484 -0.9150  1.3707
 3888TIP3    H211671   1.155   1.537   1.563  1.3551  1.1604 -0.1568
 3889TIP3   OH211672   4.564   0.037   3.799  0.4574 -0.2408  0.1007
 3889TIP3    H111673   4.577  -0.056   3.820  1.3611  0.0656  0.9422
 3889TIP3    H211674   4.481   0.059   3.839 -1.4226 -1.4680 -2.8011
 3890TIP3   OH211675   5.076   1.177   4.917  0.0362  0.0421  0.2826
 3890TIP3    H111676   5.072   1.188   4.822  2.3716 -0.1522  0.1078
 3890TIP3    H211677   5.169   1.188   4.939 -0.5337  0.7544  2.6426
 3891TIP3   OH211678   2.255   1.241   4.773 -0.1605  0.4565 -0.1782
 3891TIP3    H111679   2.288   1.258   4.861  0.4845 -2.3819  0.2451
 3891TIP3    H211680   2.309   1.169   4.740 -1.1106  0.6869 -2.4696
 3892TIP3   OH211681   5.733   5.456   4.190 -0.6589 -0.0690 -0.2919
 3892TIP3    H111682   5.757   5.365   4.207 -0.0545  0.2912  0.8824
 3892TIP3    H211683   5.760   5.503   4.269  0.0679  1.3191 -1.3193
 3893TIP3   OH211684   2.059   4.743   4.072 -0.3010 -0.2036 -0.1984
 3893TIP3    H111685   1.985   4.749   4.012 -0.7636  0.7889  0.4568
 3893TIP3    H211686   2.108   4.824   4.059 -0.4686  0.0710  0.8360
 3894TIP3   OH211687   1.356   4.601   4.856 -0.0810 -0.4106 -0.6897
 3894TIP3    H111688   1.306   4.635   4.930  0.8030  3.4125 -1.6144
 3894TIP3    H211689   1.291   4.558   4.801 -1.1617 -1.1126  1.0570
 3895TIP3   OH211690   2.554   3.289   1.562  0.2392  0.2007 -0.7536
 3895TIP3    H111691   2.528   3.233   1.636 -0.5666  1.0402 -0.3855
 3895TIP3    H211692   2.508   3.251   1.486 -0.1121  0.2050 -0.5476
 3896TIP3   OH211693   6.160   0.884   4.365 -0.0206  0.3623 -0.2362
 3896TIP3    H111694   6.209   0.829   4.426 -0.0523  0.0290 -0.5088
 3896TIP3    H211695   6.182   0.973   4.391 -0.2648  0.2325  0.4544
 3897TIP3   OH211696   0.949   2.075   3.717 -0.3603  0.2446  0.5092
 3897TIP3    H111697   1.016   2.129   3.675  1.2959  0.1480  2.8037
 3897TIP3    H211698   0.985   1.986   3.713 -2.1628 -0.4896 -1.5062
 3898TIP3   OH211699   6.171   4.287   4.640  0.5328  0.1418 -0.1760
 3898TIP3    H111700   6.108   4.215   4.645  0.1466  0.4681 -0.2482
 3898TIP3    H211701   6.166   4.330   4.726 -0.1141  0.8000 -0.5316
 3899TIP3   OH211702   1.952   2.034   2.249 -0.1112 -0.0997  0.0859
 3899TIP3    H111703   1.999   1.952   2.237 -1.3952 -0.7032 -1.0352
 3899TIP3    H211704   2.013   2.101   2.217  0.3788 -0.7543 -0.3862
 3900TIP3   OH211705   0.334   0.795   3.989 -0.0302 -0.6026 -0.6512
 3900TIP3    H111706   0.336   0.710   4.033  0.8053 -1.2007 -1.8100
 3900TIP3    H211707   0.369   0.778   3.902 -1.3368  0.6229 -1.4602
 3901TIP3   OH211708   5.927   0.879   4.652  0.1820  0.2179 -0.1153
 3901TIP3    H111709   5.936   0.961   4.603  1.6355  0.4093  0.4223
 3901TIP3    H211710   5.843   0.887   4.697  0.3379  1.4492 -0.0229
 3902TIP3   OH211711   3.761   5.813   1.439  0.4182  1.0089 -0.1485
 3902TIP3    H111712   3.779   5.733   1.488 -1.1441  1.0820  0.6257
 3902TIP3    H211713   3.842   5.864   1.445  1.3591 -0.3982 -0.4710
 3903TIP3   OH211714   4.013   4.412   3.315 -0.3423  0.0280  0.3805
 3903TIP3    H111715   4.030   4.344   3.249  0.9496  2.5184 -2.0036
 3903TIP3    H211716   3.930   4.452   3.287 -0.7011 -0.0075  1.3339
 3904TIP3   OH211717   3.994   3.702   2.226 -0.3382 -0.4981 -0.1690
 3904TIP3    H111718   3.996   3.619   2.274  0.4486  0.5882  1.7731
 3904TIP3    H211719   3.904   3.709   2.195 -1.3290 -0.5456  2.4993
 3905TIP3   OH211720   6.244   1.966   3.422  0.3553  0.3180  0.2149
 3905TIP3    H111721   6.154   1.952   3.451  0.7228 -0.3665  1.0912
 3905TIP3    H211722   6.293   1.895   3.464  1.5053  1.4112  0.7625
 3906TIP3   OH211723   1.357   4.843   4.316 -0.3706  0.0469 -0.4809
 3906TIP3    H111724   1.359   4.772   4.380  0.1262  0.1272 -0.4086
 3906TIP3    H211725   1.397   4.918   4.361  0.1345  0.0587 -0.9366
 3907TIP3   OH211726   2.123   5.122   2.153  0.4386 -0.3456 -0.2509
 3907TIP3    H111727   2.208   5.083   2.175  0.4095  0.4218  1.4214
 3907TIP3    H211728   2.144   5.211   2.126  0.0328  1.0989  3.6092
 3908TIP3   OH211729   5.464   3.810   2.139 -0.5327 -0.0706  0.2126
 3908TIP3    H111730   5.436   3.866   2.067 -1.7380 -0.7797  0.1052
 3908TIP3    H211731   5.383   3.791   2.187 -0.0663 -1.3296  0.5207
 3909TIP3   OH211732   3.100   1.132   2.563  0.5678  0.8285  0.9581
 3909TIP3    H111733   3.144   1.096   2.640  2.5503  1.2963  0.1061
 3909TIP3    H211734   3.158   1.110   2.490  0.0535  2.6321 -0.0585
 3910TIP3   OH211735   3.922   5.590   4.606 -0.3521 -0.5503  0.2064
 3910TIP3    H111736   3.941   5.628   4.520 -0.5299  0.4157  0.5790
 3910TIP3    H211737   3.837   5.626   4.629 -1.2429 -2.3770 -0.0715
 3911TIP3   OH211738   1.628   1.047   2.569  0.2627 -0.1007  0.1581
 3911TIP3    H111739   1.580   1.024   2.490  1.4755 -1.4753 -0.2254
 3911TIP3    H211740   1.583   0.999   2.639 -0.4920  0.7068  0.2488
 3912TIP3   OH211741   5.258   4.547   0.477 -0.2170 -0.1952 -0.0647
 3912TIP3    H111742   5.310   4.613   0.522 -0.5957 -0.2816  0.5060
 3912TIP3    H211743   5.277   4.466   0.524  2.0781 -1.0198 -2.1603
 3913TIP3   OH211744   1.029   3.524   2.675  0.2905  0.4230 -0.0827
 3913TIP3    H111745   1.101   3.546   2.615  0.4143 -0.6995 -0.3824
 3913TIP3    H211746   1.022   3.428   2.669  1.8016 -0.0708  3.3518
 3914TIP3   OH211747   2.600   4.567   3.282  0.2468 -0.3027  0.2573
 3914TIP3    H111748   2.647   4.649   3.263 -1.3506  0.0421 -2.9019
 3914TIP3    H211749   2.515   4.596   3.314  0.1683 -0.7659  0.4633
 3915TIP3   OH211750   4.812   4.034   3.638 -0.4356 -0.3939  0.2496
 3915TIP3    H111751   4.865   3.960   3.609  0.3295  0.3873 -0.4050
 3915TIP3    H211752   4.810   4.027   3.733  2.0649  0.3411  0.4170
 3916TIP3   OH211753   0.489   0.110   4.242 -0.6455  0.7994  0.2185
 3916TIP3    H111754   0.456   0.028   4.279 -1.5858  1.3829  0.6941
 3916TIP3    H211755   0.577   0.088   4.210 -0.2233  0.0007  1.8180
 3917TIP3   OH211756   2.156   0.447   4.828  0.0699  0.5185 -0.0544
 3917TIP3    H111757   2.187   0.365   4.867  0.2572 -0.1167 -1.4844
 3917TIP3    H211758   2.092   0.480   4.891  0.7751 -0.1564  1.0682
 3918TIP3   OH211759   1.875   1.264   1.701  0.9377  0.2921 -0.1180
 3918TIP3    H111760   1.824   1.337   1.666  2.6507  1.6810  0.1642
 3918TIP3    H211761   1.810   1.208   1.744 -0.2407  2.7038  1.4732
 3919TIP3   OH211762   2.875   3.024   2.635 -0.2197  0.0424  0.0382
 3919TIP3    H111763   2.908   3.003   2.722  0.2530  1.7274  0.3062
 3919TIP3    H211764   2.820   3.101   2.649 -0.2638  0.2395 -1.1287
 3920TIP3   OH211765   3.016   4.146   0.794 -0.2447  0.2500  0.0991
 3920TIP3    H111766   3.048   4.127   0.706  0.3432  0.3369  0.2956
 3920TIP3    H211767   3.025   4.063   0.841  1.6967  0.7832  0.7633
 3921TIP3   OH211768   5.720   4.046   2.089  0.5078  0.1598  0.2037
 3921TIP3    H111769   5.721   3.951   2.073 -2.0371  0.2399 -0.9141
 3921TIP3    H211770   5.656   4.058   2.158  1.8227  1.0136  1.3296
 3922TIP3   OH211771   0.975   4.681   2.446 -0.2272 -0.1486  0.3988
 3922TIP3    H111772   1.057   4.731   2.450 -0.5454  0.3030  1.8202
 3922TIP3    H211773   0.911   4.745   2.415 -0.1722 -0.3435 -0.1315
 3923TIP3   OH211774   1.205   1.429   0.718  0.2475 -0.3380  0.0028
 3923TIP3    H111775   1.117   1.444   0.682  0.4258 -0.3960 -0.4654
 3923TIP3    H211776   1.190   1.409   0.810 -0.3739 -1.9947 -0.4201
 3924TIP3   OH211777   1.229   3.642   1.055  0.0198 -0.3698  0.1301
 3924TIP3    H111778   1.247   3.688   1.137  0.5608 -1.7718  0.8268
 3924TIP3    H211779   1.314   3.636   1.012  0.2985 -2.1542  0.8410
 3925TIP3   OH211780   5.877   2.606   0.497 -0.0548 -0.1082 -0.2296
 3925TIP3    H111781   5.929   2.539   0.452 -0.2572 -1.8381  1.9447
 3925TIP3    H211782   5.928   2.626   0.575 -0.6100  1.4217 -0.2295
 3926TIP3   OH211783   3.677   5.487   2.332 -0.0501 -0.1009 -0.2464
 3926TIP3    H111784   3.672   5.498   2.237  1.6770  0.7538 -0.2770
 3926TIP3    H211785   3.731   5.409   2.344 -1.3206 -0.9688  0.0620
 3927TIP3   OH211786   1.979   4.319   0.112  0.1258  0.1377 -0.5323
 3927TIP3    H111787   2.053   4.301   0.170 -1.1101 -0.5049  0.9186
 3927TIP3    H211788   1.936   4.395   0.151 -0.4682 -0.0200 -0.8750
 3928TIP3   OH211789   3.029   3.732   0.269 -0.2128 -0.0718 -0.1230
 3928TIP3    H111790   3.019   3.743   0.175 -0.5120  0.4282 -0.0324
 3928TIP3    H211791   2.947   3.763   0.307 -0.3357 -0.8346  0.2665
 3929TIP3   OH211792   1.293   0.591   0.817  0.1185 -0.2829  0.8867
 3929TIP3    H111793   1.337   0.655   0.873  2.4443  0.4237 -1.5496
 3929TIP3    H211794   1.324   0.506   0.849 -1.8912 -0.2480  3.2361
 3930TIP3   OH211795   0.433   4.304   0.362  0.1431  0.2998  0.2216
 3930TIP3    H111796   0.366   4.239   0.381 -0.0352  1.0340  2.3493
 3930TIP3    H211797   0.419   4.326   0.270 -2.7015  0.5993  0.6398
 3931TIP3   OH211798   3.097   4.210   5.139  0.0941 -0.2080 -0.2504
 3931TIP3    H111799   3.006   4.205   5.111  0.6144  0.5817 -2.2269
 3931TIP3    H211800   3.142   4.144   5.086  0.8445  0.1369 -0.0534
 3932TIP3   OH211801   6.014   1.440   0.432 -0.1395 -0.2903  0.0660
 3932TIP3    H111802   5.955   1.463   0.360  0.9291 -2.9559 -1.8347
 3932TIP3    H211803   5.967   1.374   0.481 -0.0345  0.0036  0.5662
 3933TIP3   OH211804   2.440   3.144   3.126  0.1450  0.5971  0.1260
 3933TIP3    H111805   2.498   3.155   3.201 -1.1724 -2.0165  1.6879
 3933TIP3    H211806   2.356   3.116   3.164 -0.8038 -0.1277 -2.2702
 3934TIP3   OH211807   1.253   5.237   2.729 -0.0361  0.4758  0.1859
 3934TIP3    H111808   1.302   5.181   2.788  0.3042  0.4052 -0.1575
 3934TIP3    H211809   1.276   5.206   2.641 -2.1836 -0.8432  0.0279
 3935TIP3   OH211810   0.387   4.422   0.746  0.0600 -0.3206  0.0405
 3935TIP3    H111811   0.342   4.446   0.665 -0.6839  3.2015  1.2703
 3935TIP3    H211812   0.319   4.431   0.814  1.4212  0.2460  1.3968
 3936TIP3   OH211813   4.438   2.074   3.061 -0.1935 -0.1660  0.1282
 3936TIP3    H111814   4.429   1.987   3.021 -0.4006 -0.3712  0.6135
 3936TIP3    H211815   4.357   2.119   3.038 -0.1164 -0.1255 -0.0646
 3937TIP3   OH211816   1.917   3.645   0.854  0.6494 -0.0566 -0.0827
 3937TIP3    H111817   1.930   3.713   0.787 -0.1303 -1.2622 -1.5134
 3937TIP3    H211818   2.003   3.603   0.861  1.0620  0.8645  0.6063
 3938TIP3   OH211819   1.174   5.473   1.055 -0.6395 -0.1626  0.4381
 3938TIP3    H111820   1.123   5.542   1.013 -2.7245 -2.1022 -0.4058
 3938TIP3    H211821   1.250   5.462   0.998 -0.0047  1.6899  0.8457
 3939TIP3   OH211822   2.581   2.010   2.675  0.5801  0.3425 -0.3746
 3939TIP3    H111823   2.546   1.972   2.594 -0.3136 -0.7929  0.4935
 3939TIP3    H211824   2.529   2.089   2.689  0.5812  0.4171 -0.7881
 3940TIP3   OH211825   3.142   4.579   2.174 -0.3030  0.1380 -0.2463
 3940TIP3    H111826   3.145   4.649   2.109  0.9732  0.7158  0.4047
 3940TIP3    H211827   3.165   4.621   2.256 -0.0975 -0.9397  0.2678
 3941TIP3   OH211828   4.126   0.333   1.018 -0.5344  0.2129  0.1355
 3941TIP3    H111829   4.172   0.367   0.941 -0.3512 -0.4552 -0.0506
 3941TIP3    H211830   4.103   0.412   1.068  0.9799  0.5610  0.3312
 3942TIP3   OH211831   2.437   2.484   4.571  0.1163 -0.3355  0.2714
 3942TIP3    H111832   2.356   2.490   4.622  0.6069 -1.7339  1.2902
 3942TIP3    H211833   2.504   2.460   4.636  0.7268 -2.4226 -1.0620
 3943TIP3   OH211834   3.491   2.373   5.132  0.3299 -0.4930 -0.1385
 3943TIP3    H111835   3.541   2.384   5.213 -1.8086 -2.0343  1.5187
 3943TIP3    H211836   3.468   2.462   5.106  0.3919  0.0187  1.4116
 3944TIP3   OH211837   0.226   5.847   1.880  0.3761  0.0385  0.2053
 3944TIP3    H111838   0.191   5.854   1.969 -0.0151 -1.0528  0.1548
 3944TIP3    H211839   0.155   5.877   1.824  0.2514 -0.2288  0.2162
 3945TIP3   OH211840   6.291   3.287   0.247  0.1308 -0.1480  0.1500
 3945TIP3    H111841   6.353   3.355   0.219 -0.4785  0.0103 -0.8780
 3945TIP3    H211842   6.345   3.224   0.295  0.8962  0.5233  0.2079
 3946TIP3   OH211843   4.858   5.453   2.640 -0.5567 -0.6461 -0.5921
 3946TIP3    H111844   4.805   5.508   2.698  0.2017 -2.4204  1.9674
 3946TIP3    H211845   4.802   5.379   2.619 -0.2332 -0.8670 -0.6877
 3947TIP3   OH211846   3.397   0.130   4.627  0.1670  0.0947 -0.8992
 3947TIP3    H111847   3.389   0.059   4.690  0.2254  1.1517  0.3265
 3947TIP3    H211848   3.445   0.091   4.554  0.0543 -1.1640 -0.3348
 3948TIP3   OH211849   3.267   2.653   2.079  0.1769  0.3575 -0.0520
 3948TIP3    H111850   3.217   2.580   2.041  0.7699  0.3370 -0.8305
 3948TIP3    H211851   3.355   2.617   2.092  0.9396  1.3598 -1.9996
 3949TIP3   OH211852   5.721   3.778   2.147  0.0824 -0.5011  0.0633
 3949TIP3    H111853   5.629   3.765   2.170 -0.0933  1.3003  0.5335
 3949TIP3    H211854   5.760   3.816   2.226  1.7389 -3.0816  0.5786
 3950TIP3   OH211855   1.364   5.308   1.491 -0.4054 -0.1148  0.0994
 3950TIP3    H111856   1.440   5.315   1.433 -2.1081  3.0308 -2.0109
 3950TIP3    H211857   1.314   5.235   1.454 -0.2326  0.2202 -0.8360
 3951TIP3   OH211858   5.674   4.114   4.868 -0.1264  0.4676 -0.0521
 3951TIP3    H111859   5.641   4.081   4.785  1.0536  0.1964 -0.4366
 3951TIP3    H211860   5.627   4.196   4.882 -1.1553 -0.0352 -0.4090
 3952TIP3   OH211861   6.357   0.838   0.815 -0.2269 -0.0301 -0.2601
 3952TIP3    H111862   6.282   0.847   0.756 -0.6130 -2.4064 -0.2458
 3952TIP3    H211863   6.390   0.750   0.797  1.0173  0.0306  1.5164
 3953TIP3   OH211864   5.003   2.448   2.326 -0.0684  0.2577 -0.0458
 3953TIP3    H111865   5.098   2.459   2.332 -0.3350  2.1858  1.6371
 3953TIP3    H211866   4.978   2.410   2.410 -0.4995 -3.8387 -1.7602
 3954TIP3   OH211867   3.089   3.113   5.166  0.1333 -0.0385  0.1178
 3954TIP3    H111868   3.175   3.148   5.143  0.6735 -1.5069 -0.1989
 3954TIP3    H211869   3.108   3.043   5.228 -0.5462 -2.3643 -2.1467
 3955TIP3   OH211870   5.269   1.552   3.966 -0.0173  0.1212  0.0167
 3955TIP3    H111871   5.296   1.584   4.052  0.4991  1.6797 -0.6753
 3955TIP3    H211872   5.350   1.545   3.916 -0.3484 -0.4099 -0.4612
 3956TIP3   OH211873   5.123   1.469   2.827 -0.1520  0.1939 -0.2473
 3956TIP3    H111874   5.152   1.430   2.909  1.1515  0.1182 -0.7110
 3956TIP3    H211875   5.055   1.410   2.794 -0.0611 -0.2515  0.3519
 3957TIP3   OH211876   3.457   0.419   4.938  0.1414 -0.7016  0.2070
 3957TIP3    H111877   3.377   0.456   4.975  0.8862  0.1001  1.0723
 3957TIP3    H211878   3.457   0.449   4.847  0.8270  1.7426  0.9344
 3958TIP3   OH211879   0.434   1.924   4.819 -0.0822 -0.0906  0.8329
 3958TIP3    H111880   0.486   2.004   4.824 -1.0919  0.6331  0.0449
 3958TIP3    H211881   0.464   1.872   4.894  1.9945  0.1318  0.2331
 3959TIP3   OH211882   0.234   0.351   4.016  0.3011 -1.1174 -0.1245
 3959TIP3    H111883   0.309   0.380   3.963  0.3552 -0.9985  0.0161
 3959TIP3    H211884   0.158   0.369   3.962  0.2460  0.2767  0.3792
 3960TIP3   OH211885   2.296   0.677   3.492 -0.2273 -0.1213 -0.1846
 3960TIP3    H111886   2.314   0.771   3.495  0.7470 -0.2513 -1.2279
 3960TIP3    H211887   2.335   0.642   3.572  0.2818  0.2281 -0.2739
 3961TIP3   OH211888   5.233   0.797   2.224  0.0665 -0.4490 -0.5082
 3961TIP3    H111889   5.201   0.725   2.278 -0.8621 -0.5046 -1.0981
 3961TIP3    H211890   5.328   0.793   2.232 -0.0352 -0.6610  0.8289
 3962TIP3   OH211891   1.151   4.000   1.119  0.0367 -0.1855 -0.4635
 3962TIP3    H111892   1.152   3.975   1.027  1.0831  0.3057 -0.6067
 3962TIP3    H211893   1.062   3.982   1.148 -0.8323  1.2435 -2.0230
 3963TIP3   OH211894   0.717   2.913   4.201  0.3552 -0.2210  0.1918
 3963TIP3    H111895   0.644   2.970   4.177  0.8090  0.6141  0.7388
 3963TIP3    H211896   0.743   2.872   4.119  0.0231  0.3710 -0.2187
 3964TIP3   OH211897   0.353   4.979   0.475 -0.4965 -0.2312 -0.6092
 3964TIP3    H111898   0.288   5.049   0.462 -0.3258 -0.3468 -2.2704
 3964TIP3    H211899   0.375   4.950   0.387  2.1972  0.1192 -0.1147
 3965TIP3   OH211900   1.477   0.333   4.029  0.3067 -0.2331 -0.1909
 3965TIP3    H111901   1.452   0.333   3.937 -0.1177 -1.2873 -0.0982
 3965TIP3    H211902   1.441   0.251   4.063  0.6680  0.0258  0.8548
 3966TIP3   OH211903   6.180   2.844   2.999 -0.0328  0.2472  0.4410
 3966TIP3    H111904   6.089   2.867   3.018 -0.6165  0.0340 -1.8305
 3966TIP3    H211905   6.181   2.749   2.997 -0.3919  0.2349 -1.9885
 3967TIP3   OH211906   4.347   1.503   2.169  0.0283 -0.1645 -0.4057
 3967TIP3    H111907   4.281   1.522   2.236 -0.2704  1.1538 -1.0497
 3967TIP3    H211908   4.361   1.408   2.176  0.1933 -0.0280  1.6782
 3968TIP3   OH211909   2.188   4.233   1.517 -0.0580  0.1447  0.2148
 3968TIP3    H111910   2.252   4.299   1.493 -0.1771  0.2204  0.1023
 3968TIP3    H211911   2.158   4.258   1.604  0.6440 -0.3347  0.6038
 3969TIP3   OH211912   5.761   1.665   5.029 -0.0865  0.0609  0.3338
 3969TIP3    H111913   5.671   1.697   5.036  0.0197  0.2614  0.8321
 3969TIP3    H211914   5.778   1.622   5.113  0.3082  0.1017  0.2784
 3970TIP3   OH211915   2.283   0.365   4.296 -0.1697 -0.4585  0.0847
 3970TIP3    H111916   2.256   0.281   4.332 -0.5569 -0.6870 -0.7098
 3970TIP3    H211917   2.206   0.421   4.305 -1.9346 -1.7874 -4.3470
 3971TIP3   OH211918   6.131   3.581   4.776  0.2106  0.1327  0.3857
 3971TIP3    H111919   6.219   3.610   4.756 -0.0757  0.7319 -0.0116
 3971TIP3    H211920   6.109   3.626   4.858  0.2718 -0.0132  0.4824
 3972TIP3   OH211921   1.726   5.061   4.574  0.3099  0.0702 -0.9849
 3972TIP3    H111922   1.645   5.010   4.569  0.0322  0.3431  0.3167
 3972TIP3    H211923   1.793   5.002   4.540 -0.2282 -0.6753 -0.7930
 3973TIP3   OH211924   5.966   3.810   1.839 -0.2979  0.0695  0.5375
 3973TIP3    H111925   6.021   3.761   1.778 -1.1927 -2.0382  1.3287
 3973TIP3    H211926   5.913   3.868   1.784  1.2583  0.6805 -0.3713
 3974TIP3   OH211927   1.188   2.626   4.185  0.0065  1.2757  0.1854
 3974TIP3    H111928   1.174   2.639   4.091  2.8664  0.3774 -0.4510
 3974TIP3    H211929   1.254   2.691   4.209  0.2489  0.6548  1.2687
 3975TIP3   OH211930   5.027   0.497   4.778  0.0619  0.0939 -0.0569
 3975TIP3    H111931   5.119   0.522   4.773  0.0982 -0.2736 -1.4940
 3975TIP3    H211932   4.994   0.544   4.854  1.0516  1.4797 -0.4482
 3976TIP3   OH211933   5.797   4.832   1.387  0.3321 -0.8539  0.0580
 3976TIP3    H111934   5.877   4.882   1.397 -0.2676  0.4930 -1.5014
 3976TIP3    H211935   5.752   4.841   1.471 -0.2453  2.1924 -0.4563
 3977TIP3   OH211936   3.092   1.487   1.474  0.5564  0.0385  0.2950
 3977TIP3    H111937   3.115   1.522   1.560  2.2546 -1.3038  0.4366
 3977TIP3    H211938   3.036   1.555   1.435 -0.3993  0.5995  2.4936
 3978TIP3   OH211939   3.308   4.246   2.405  0.2994 -0.9554  0.4286
 3978TIP3    H111940   3.305   4.269   2.498  1.4731 -2.3698  0.8593
 3978TIP3    H211941   3.401   4.242   2.384  0.0786  1.4816 -1.4348
 3979TIP3   OH211942   4.816   3.100   4.207  0.6262  0.6648 -0.5634
 3979TIP3    H111943   4.875   3.175   4.210 -0.9865  1.9688 -0.4031
 3979TIP3    H211944   4.728   3.137   4.209 -0.2510 -1.1749 -1.5397
 3980TIP3   OH211945   4.185   1.058   2.088  0.1728 -0.1255  0.2543
 3980TIP3    H111946   4.104   1.095   2.053  0.9917  0.2250 -1.3403
 3980TIP3    H211947   4.212   1.118   2.157  0.5955  1.3898 -1.1743
 3981TIP3   OH211948   5.509   2.074   3.948 -0.2596  0.3370 -0.0817
 3981TIP3    H111949   5.432   2.076   4.005 -0.2029  1.5277 -0.0122
 3981TIP3    H211950   5.494   2.000   3.890  0.4007 -1.9066  2.4159
 3982TIP3   OH211951   1.075   2.327   1.467  0.6367  0.0265 -0.1353
 3982TIP3    H111952   1.119   2.296   1.388 -0.1676 -0.0724 -0.5553
 3982TIP3    H211953   1.097   2.262   1.534  0.3838 -0.5146 -0.5706
 3983TIP3   OH211954   4.116   4.112   3.356 -0.2206 -0.2364 -0.2932
 3983TIP3    H111955   4.032   4.135   3.396  0.1387  1.0296 -0.2163
 3983TIP3    H211956   4.181   4.157   3.410  0.3952 -0.0405 -1.1802
 3984TIP3   OH211957   3.730   1.028   4.297 -0.3614 -0.5475  0.1169
 3984TIP3    H111958   3.672   1.027   4.220 -0.1481 -1.6487 -0.0402
 3984TIP3    H211959   3.693   1.096   4.353  0.4126  1.4671 -1.6608
 3985TIP3   OH211960   6.203   3.101   1.850 -0.0829 -0.5968 -0.6286
 3985TIP3    H111961   6.113   3.109   1.817 -0.2434 -1.9144 -0.5666
 3985TIP3    H211962   6.237   3.190   1.848 -1.0029 -0.2410 -1.7625
 3986TIP3   OH211963   5.549   4.378   0.594  0.3294  0.0889  0.2739
 3986TIP3    H111964   5.546   4.377   0.689 -1.4125  0.7547  0.2696
 3986TIP3    H211965   5.603   4.454   0.572  0.8501 -0.1512  0.7217
 3987TIP3   OH211966   1.067   5.892   3.699  0.3862 -0.3091 -0.2977
 3987TIP3    H111967   0.989   5.850   3.662  0.6443  1.0742 -2.6651
 3987TIP3    H211968   1.127   5.820   3.717 -1.2055 -1.3621  1.0884
 3988TIP3   OH211969   5.781   5.443   2.155 -0.0154  0.7172 -0.4198
 3988TIP3    H111970   5.815   5.532   2.162 -0.1472  0.8609 -1.5501
 3988TIP3    H211971   5.732   5.442   2.073  1.3094 -0.8433 -1.2457
 3989TIP3   OH211972   2.664   1.540   2.667 -0.0342 -0.4582 -0.1786
 3989TIP3    H111973   2.643   1.620   2.715  1.1417 -0.0598 -0.2811
 3989TIP3    H211974   2.628   1.553   2.580  0.0864 -0.0753 -0.1708
 3990TIP3   OH211975   4.442   1.165   3.555 -0.2593 -0.0684 -0.2427
 3990TIP3    H111976   4.458   1.259   3.542  4.2361 -0.7183 -1.0523
 3990TIP3    H211977   4.427   1.131   3.467  1.7043 -0.5280 -0.4360
 3991TIP3   OH211978   6.269   2.706   0.616  0.0052  0.1014  0.0583
 3991TIP3    H111979   6.229   2.640   0.673  0.5485  0.1426  0.5030
 3991TIP3    H211980   6.242   2.790   0.654  0.0960  0.1285  0.0643
 3992TIP3   OH211981   6.043   0.237   1.661 -0.2752  0.7118  0.1611
 3992TIP3    H111982   5.991   0.216   1.583  1.4610  0.2381 -0.9079
 3992TIP3    H211983   6.012   0.176   1.728  1.2705 -2.0863 -1.4765
 3993TIP3   OH211984   0.442   3.181   2.141 -0.0905  0.7482  0.0053
 3993TIP3    H111985   0.525   3.134   2.130  0.2788  1.5892 -0.8620
 3993TIP3    H211986   0.375   3.120   2.110 -0.0185 -0.6336  2.3393
 3994TIP3   OH211987   4.582   4.195   3.634 -0.1466 -0.0411 -0.4170
 3994TIP3    H111988   4.614   4.278   3.669 -0.3981 -0.7777  1.7164
 3994TIP3    H211989   4.661   4.147   3.609  0.1868 -0.1693  0.8163
 3995TIP3   OH211990   4.010   1.280   4.424  0.1948 -0.1410 -0.1140
 3995TIP3    H111991   4.031   1.187   4.417  0.1358 -0.1196 -0.6223
 3995TIP3    H211992   3.914   1.283   4.430  0.2084 -0.1235  0.0966
 3996TIP3   OH211993   1.140   1.315   3.276  0.1056  0.3120 -0.0763
 3996TIP3    H111994   1.061   1.369   3.279 -0.5579 -0.6719  0.8014
 3996TIP3    H211995   1.132   1.257   3.352  1.8922  0.4918  0.2835
 3997TIP3   OH211996   3.098   2.507   1.750 -0.4488  0.4160 -0.0998
 3997TIP3    H111997   3.021   2.520   1.806 -0.0985  0.9384  0.2716
 3997TIP3    H211998   3.138   2.426   1.782 -0.4074  0.5618  0.2211
 3998TIP3   OH211999   1.744   1.737   3.485 -0.2493  0.3152  0.9269
 3998TIP3    H112000   1.661   1.689   3.479  0.2776 -0.4350 -1.6864
 3998TIP3    H212001   1.793   1.691   3.554 -0.0886 -2.5291 -0.9106
 3999TIP3   OH212002   6.251   1.051   2.471  0.2497 -0.6780 -0.0080
 3999TIP3    H112003   6.256   1.088   2.559  0.1841  1.1468 -0.7074
 3999TIP3    H212004   6.342   1.050   2.441  0.1806 -0.4631 -0.2276
 4000TIP3   OH212005   2.632   1.800   5.082  0.3885 -0.1438  0.0167
 4000TIP3    H112006   2.682   1.874   5.050  0.0946 -0.1402 -0.4390
 4000TIP3    H212007   2.697   1.730   5.093  0.4080 -0.3464 -1.2089
 4001TIP3   OH212008   0.403   4.352   3.313 -0.2358 -0.0277  0.1639
 4001TIP3    H112009   0.362   4.278   3.268  0.3264 -0.7587  0.8277
 4001TIP3    H212010   0.329   4.408   3.339 -0.6791 -0.4303 -0.1998
 4002TIP3   OH212011   5.056   4.898   4.307  0.1289  0.1123 -0.4264
 4002TIP3    H112012   5.032   4.844   4.232 -0.8431  0.8597 -0.6774
 4002TIP3    H212013   4.976   4.946   4.329  0.0636 -0.8395  1.7429
 4003TIP3   OH212014   2.906   4.803   4.549 -0.5771  0.0455  0.4415
 4003TIP3    H112015   2.854   4.880   4.525  0.4318 -0.1554 -2.8405
 4003TIP3    H212016   2.843   4.743   4.589 -2.0424  1.2713  0.0700
 4004TIP3   OH212017   0.864   2.564   5.149  0.6553 -0.6915  0.4224
 4004TIP3    H112018   0.953   2.593   5.130  0.0267  0.5853 -0.7866
 4004TIP3    H212019   0.841   2.508   5.075 -0.1581  0.4786 -0.2474
 4005TIP3   OH212020   3.177   0.829   4.607 -0.6368  0.0649 -0.3354
 4005TIP3    H112021   3.185   0.893   4.537 -3.0020  1.0519  0.1974
 4005TIP3    H212022   3.233   0.861   4.677  2.2186 -1.2383 -1.8683
 4006TIP3   OH212023   2.167   5.680   2.088 -0.7399 -0.4610  0.3269
 4006TIP3    H112024   2.165   5.604   2.147 -1.4148 -1.9513 -1.5028
 4006TIP3    H212025   2.207   5.647   2.008 -0.1457  1.4072 -0.1962
 4007TIP3   OH212026   3.613   0.914   2.879  0.2983  0.1079 -0.6615
 4007TIP3    H112027   3.532   0.960   2.902  1.6485  2.7247 -0.7485
 4007TIP3    H212028   3.675   0.937   2.949  0.8969 -2.1577 -0.3860
 4008TIP3   OH212029   3.501   1.660   0.700 -0.5430 -0.1987 -0.1531
 4008TIP3    H112030   3.417   1.705   0.686 -0.3782 -0.4843 -2.5234
 4008TIP3    H212031   3.543   1.661   0.614  0.9097 -2.0446  0.4624
 4009TIP3   OH212032   4.001   4.018   0.090  0.5111 -0.2055  0.3553
 4009TIP3    H112033   3.956   3.939   0.058 -0.1426 -0.0210  0.8013
 4009TIP3    H212034   3.943   4.090   0.067 -0.2522 -0.1167  2.4308
 4010TIP3   OH212035   1.059   5.840   4.573 -0.1812  0.1391 -0.0854
 4010TIP3    H112036   1.087   5.820   4.483 -0.0588 -0.3021  0.0455
 4010TIP3    H212037   0.965   5.854   4.567 -0.3048 -0.6761 -0.1612
 4011TIP3   OH212038   0.278   3.354   3.255 -0.1899  0.5876 -0.1085
 4011TIP3    H112039   0.346   3.328   3.317 -1.8928  2.9464  3.0069
 4011TIP3    H212040   0.326   3.385   3.178  2.0805 -0.9862  0.5787
 4012TIP3   OH212041   4.265   1.831   1.213 -0.2391  0.2451 -0.4111
 4012TIP3    H112042   4.256   1.759   1.275 -1.3197  0.0781 -0.7370
 4012TIP3    H212043   4.359   1.850   1.211  0.1762 -1.6630 -0.9036
 4013TIP3   OH212044   2.661   1.929   1.172 -0.2295  0.4946 -0.1893
 4013TIP3    H112045   2.657   2.011   1.223  3.0515  0.5904  0.1311
 4013TIP3    H212046   2.671   1.861   1.238 -2.8179 -0.2602 -0.4680
 4014TIP3   OH212047   0.914   3.406   4.474  0.1214 -0.4153  0.3138
 4014TIP3    H112048   0.885   3.414   4.564 -1.1417  0.0322 -0.1109
 4014TIP3    H212049   0.846   3.355   4.431 -0.3221  1.0649 -0.8217
 4015TIP3   OH212050   1.687   4.946   2.586 -0.8230  0.1749  0.4072
 4015TIP3    H112051   1.738   4.985   2.516  0.5907 -0.5227  1.0052
 4015TIP3    H212052   1.654   5.020   2.637  0.1453  0.6289  0.3849
 4016TIP3   OH212053   0.931   3.256   2.641  0.6114  0.0585 -0.0004
 4016TIP3    H112054   0.938   3.189   2.708  1.9108  0.1429 -0.0085
 4016TIP3    H212055   0.849   3.239   2.596 -0.5353  0.2941  1.9159
 4017TIP3   OH212056   3.262   0.606   3.684  0.3790  0.2176  0.1174
 4017TIP3    H112057   3.234   0.697   3.675  0.0045  0.2979  1.7963
 4017TIP3    H212058   3.329   0.595   3.617  1.4633  2.1770  0.7878
 4018TIP3   OH212059   6.145   3.805   2.909  0.2440  0.4122 -0.3995
 4018TIP3    H112060   6.238   3.824   2.924  0.0090  2.1094 -0.9468
 4018TIP3    H212061   6.126   3.733   2.969  1.7756  0.3953  0.1148
 4019TIP3   OH212062   4.620   2.020   4.332  0.3704 -0.1109  0.1595
 4019TIP3    H112063   4.679   2.005   4.406  0.3888 -2.4274 -0.2571
 4019TIP3    H212064   4.621   2.115   4.319  1.5943  0.1853  2.1082
 4020TIP3   OH212065   3.012   1.109   0.343 -0.1234 -0.1128 -0.7402
 4020TIP3    H112066   2.920   1.113   0.369 -0.4701 -0.8878 -1.7715
 4020TIP3    H212067   3.020   1.026   0.296  1.3316 -0.5187  0.1411
 4021TIP3   OH212068   5.140   3.089   0.491  0.1226 -0.0017 -0.0851
 4021TIP3    H112069   5.144   3.175   0.449  1.0951  0.3477  0.6735
 4021TIP3    H212070   5.201   3.035   0.441  0.7378  0.2155  0.4123
 4022TIP3   OH212071   2.375   5.829   1.545 -0.4710 -0.0383  0.4661
 4022TIP3    H112072   2.457   5.879   1.551 -0.1928 -0.3227 -0.7968
 4022TIP3    H212073   2.382   5.764   1.615  0.3752 -0.0591  0.3758
 4023TIP3   OH212074   2.313   1.854   0.328 -0.1057  0.4026 -0.4605
 4023TIP3    H112075   2.256   1.879   0.255  0.1120  0.2402 -0.6867
 4023TIP3    H212076   2.361   1.777   0.296 -2.0241 -1.4350  0.8359
 4024TIP3   OH212077   3.190   2.479   0.924 -0.0669  0.0029  0.3348
 4024TIP3    H112078   3.250   2.406   0.939 -0.5463 -0.8735 -1.7405
 4024TIP3    H212079   3.122   2.468   0.991  1.3871  0.3012  1.9234
 4025TIP3   OH212080   5.644   1.209   1.835  0.0755 -0.3790 -0.4502
 4025TIP3    H112081   5.650   1.116   1.814  0.9326 -0.8143  1.5085
 4025TIP3    H212082   5.728   1.246   1.806  0.5270 -0.6209  0.5204
 4026TIP3   OH212083   5.498   1.063   3.017  0.1215  0.7520  0.0498
 4026TIP3    H112084   5.429   1.080   2.953 -0.4771 -0.2736  0.4092
 4026TIP3    H212085   5.492   1.135   3.079  0.5605  1.6357 -0.9050
 4027TIP3   OH212086   0.053   1.883   4.205 -0.2596  0.1309  0.6603
 4027TIP3    H112087   0.094   1.915   4.285 -0.7943 -0.7662  1.3136
 4027TIP3    H212088   0.053   1.787   4.214  2.1675 -0.1950 -1.6700
 4028TIP3   OH212089   1.226   1.917   4.352 -0.0379  0.3436 -0.6727
 4028TIP3    H112090   1.249   1.952   4.266 -0.1806  2.7026  0.1745
 4028TIP3    H212091   1.273   1.973   4.414 -1.7248  0.1597  0.8501
 4029TIP3   OH212092   2.730   4.572   2.575  0.4255 -0.9212  0.1196
 4029TIP3    H112093   2.766   4.578   2.487  1.3616 -0.4045  0.5301
 4029TIP3    H212094   2.757   4.485   2.606 -1.3383 -1.8138 -0.6984
 4030TIP3   OH212095   1.936   5.016   0.765 -0.4198 -0.0277 -0.0668
 4030TIP3    H112096   1.994   5.035   0.691  0.5888  0.7206  0.8710
 4030TIP3    H212097   1.886   5.096   0.777  0.2719  0.2969  0.7802
 4031TIP3   OH212098   2.105   4.204   3.863 -0.3897 -0.2826  0.0528
 4031TIP3    H112099   2.079   4.164   3.780 -0.0639 -2.4740  0.9197
 4031TIP3    H212100   2.050   4.161   3.929  0.3880  0.3055  1.1326
 4032TIP3   OH212101   6.284   3.219   3.652 -0.2983  0.1762  0.7087
 4032TIP3    H112102   6.249   3.300   3.687 -0.0782  0.8893 -0.6296
 4032TIP3    H212103   6.207   3.170   3.622 -0.2803  1.4004 -1.5252
 4033TIP3   OH212104   5.696   0.887   1.737 -0.3433 -0.1485  0.2201
 4033TIP3    H112105   5.722   0.795   1.733 -0.6134 -0.3071  1.7092
 4033TIP3    H212106   5.768   0.933   1.695 -0.0717 -1.0133 -0.2907
 4034TIP3   OH212107   3.641   0.227   2.169 -0.6666 -0.2538  0.1213
 4034TIP3    H112108   3.634   0.142   2.126  0.2580 -0.1990 -0.1651
 4034TIP3    H212109   3.573   0.281   2.128  1.4299  0.4212 -2.8119
 4035TIP3   OH212110   5.166   1.103   3.842 -0.1893 -0.1557  0.0122
 4035TIP3    H112111   5.230   1.032   3.834 -0.0809 -0.1464  0.7612
 4035TIP3    H212112   5.085   1.059   3.871  0.1875  0.1538  1.6219
 4036TIP3   OH212113   5.187   5.445   0.914  0.3074  0.4989  0.0864
 4036TIP3    H112114   5.150   5.418   0.831 -1.3260  0.3212  0.8294
 4036TIP3    H212115   5.264   5.498   0.891  0.3297 -0.1980 -1.4843
 4037TIP3   OH212116   0.115   0.634   0.510  0.1203 -0.2487 -0.3625
 4037TIP3    H112117   0.049   0.633   0.441 -0.9552  0.6632  0.6052
 4037TIP3    H212118   0.177   0.566   0.485 -2.7411 -3.3262  0.1556
 4038TIP3   OH212119   3.926   2.958   1.480  0.1601 -0.0273 -0.1271
 4038TIP3    H112120   3.944   2.875   1.436  0.9845 -1.9514  3.4070
 4038TIP3    H212121   3.847   2.940   1.531  0.5624  1.2331  0.9793
 4039TIP3   OH212122   5.222   2.828   2.642 -0.0884 -0.4480 -0.2302
 4039TIP3    H112123   5.199   2.900   2.701  1.1498 -0.5670  0.4338
 4039TIP3    H212124   5.299   2.788   2.682  0.6381 -0.7040 -1.7892
 4040TIP3   OH212125   4.871   5.005   3.497  0.4153  0.6851  0.1218
 4040TIP3    H112126   4.944   4.948   3.473 -0.6911 -0.6476 -0.1746
 4040TIP3    H212127   4.908   5.066   3.561  1.0844 -2.0232  2.5199
 4041TIP3   OH212128   0.939   2.575   4.299 -0.0088 -0.0889 -0.6055
 4041TIP3    H112129   0.957   2.488   4.336  0.5207  0.2516 -0.0356
 4041TIP3    H212130   1.023   2.602   4.261 -0.7021 -0.7107 -2.6954
 4042TIP3   OH212131   5.929   4.344   0.610 -0.1632 -0.6732  0.1355
 4042TIP3    H112132   5.978   4.381   0.537 -0.1484 -1.3832 -0.2260
 4042TIP3    H212133   5.841   4.328   0.576 -1.1741  2.0123  1.2093
 4043TIP3   OH212134   4.030   1.423   3.848  0.1015  0.1116  0.1108
 4043TIP3    H112135   3.999   1.415   3.757 -2.4186  0.4475  0.8716
 4043TIP3    H212136   4.027   1.333   3.881 -0.2633  0.1730  0.2449
 4044TIP3   OH212137   0.806   0.037   2.584  0.1030 -0.6859 -0.3717
 4044TIP3    H112138   0.896   0.061   2.602 -0.3779  1.6138 -0.7632
 4044TIP3    H212139   0.807   0.006   2.494  0.4928 -0.7182 -0.3581
 4045TIP3   OH212140   1.966   5.591   2.383  0.3519 -0.1188  0.4401
 4045TIP3    H112141   1.874   5.608   2.364  0.2432 -0.1171  0.9470
 4045TIP3    H212142   1.986   5.510   2.335 -0.1917 -0.6698  1.1191
 4046TIP3   OH212143   0.048   5.083   1.918  0.2415  0.3347  0.0856
 4046TIP3    H112144  -0.006   5.140   1.973  1.4410  1.0441  0.5488
 4046TIP3    H212145   0.058   5.131   1.836  0.9054  0.6098  0.3246
 4047TIP3   OH212146   1.646   1.073   3.312  0.2894  0.0397  0.2218
 4047TIP3    H112147   1.610   1.000   3.261  1.2185  0.8372 -1.6407
 4047TIP3    H212148   1.741   1.064   3.306  0.4322  1.6155 -0.3915
 4048TIP3   OH212149   1.871   1.673   0.993 -0.3447  0.1636  0.2701
 4048TIP3    H112150   1.938   1.627   1.044 -0.1799 -0.7248 -0.7024
 4048TIP3    H212151   1.808   1.705   1.058  0.0319 -0.6409  1.0470
 4049TIP3   OH212152   2.689   3.257   3.005 -0.1545 -0.0100  0.0066
 4049TIP3    H112153   2.605   3.224   3.037 -0.1893  2.5909  3.0807
 4049TIP3    H212154   2.686   3.351   3.022  3.5749  0.1253  0.7756
 4050TIP3   OH212155   5.604   5.355   0.602  0.4780  0.1563  0.2696
 4050TIP3    H112156   5.633   5.274   0.560  0.6523 -0.0098  0.7039
 4050TIP3    H212157   5.683   5.388   0.645  0.3789  0.4996  0.1857
 4051TIP3   OH212158   2.124   0.255   2.008 -0.1667  0.4722 -0.1639
 4051TIP3    H112159   2.109   0.163   1.989  0.0444  0.1855  1.0040
 4051TIP3    H212160   2.075   0.272   2.088  2.0154  0.6452  1.2170
 4052TIP3   OH212161   1.484   3.367   0.550  0.3022 -0.3226  0.2473
 4052TIP3    H112162   1.513   3.430   0.485  1.0096 -0.8581  0.0274
 4052TIP3    H212163   1.560   3.311   0.565  0.1316 -0.2706  1.4693
 4053TIP3   OH212164   3.897   0.267   2.213 -0.1056 -0.0416 -0.2601
 4053TIP3    H112165   3.885   0.352   2.256  0.5696  0.0755 -0.2925
 4053TIP3    H212166   3.809   0.240   2.189 -0.3694  0.4585  0.1213
 4054TIP3   OH212167   1.381   0.688   2.405 -0.1126 -0.3812 -0.0775
 4054TIP3    H112168   1.408   0.773   2.372 -1.4794  0.1450  0.0852
 4054TIP3    H212169   1.438   0.625   2.360 -0.4795  0.4597 -1.8137
 4055TIP3   OH212170   5.601   1.231   4.605  0.3840  0.0177 -0.0571
 4055TIP3    H112171   5.554   1.312   4.587  0.7188  0.2781  0.2250
 4055TIP3    H212172   5.608   1.228   4.701  2.5386  0.9352 -0.1103
 4056TIP3   OH212173   6.089   3.641   3.139  0.3396 -0.0148 -0.7703
 4056TIP3    H112174   6.063   3.559   3.181 -0.2486  0.1663 -0.7807
 4056TIP3    H212175   6.150   3.681   3.202  0.9337 -0.6317 -0.9352
 4057TIP3   OH212176   5.770   2.501   4.542 -0.1826  0.0093 -0.1385
 4057TIP3    H112177   5.713   2.506   4.619  0.7665 -1.6343  0.7213
 4057TIP3    H212178   5.731   2.434   4.487 -0.0647  0.1607 -0.4086
 4058TIP3   OH212179   5.436   2.693   1.218 -0.5574 -0.3460 -0.3289
 4058TIP3    H112180   5.449   2.769   1.275 -1.4054 -1.1682  0.9916
 4058TIP3    H212181   5.455   2.617   1.273 -0.0699 -1.1326 -1.5313
 4059TIP3   OH212182   0.194   2.548   3.860 -0.3174  0.3536  0.0451
 4059TIP3    H112183   0.138   2.485   3.814  0.7059 -0.5850  0.0520
 4059TIP3    H212184   0.219   2.503   3.941  1.1609  0.4039 -0.3660
 4060TIP3   OH212185   2.049   0.041   4.946 -0.3034  0.5129  0.1849
 4060TIP3    H112186   2.045  -0.034   4.886 -0.9559 -0.2277  1.1201
 4060TIP3    H212187   2.015   0.007   5.029  0.1755  1.6277  0.8627
 4061TIP3   OH212188   1.671   4.900   1.960 -0.0738 -0.4115  0.5197
 4061TIP3    H112189   1.760   4.923   1.984  0.0727 -0.3686 -0.0590
 4061TIP3    H212190   1.632   4.982   1.929 -1.1310  0.1750  3.1371
 4062TIP3   OH212191   4.812   0.167   3.858 -0.7359  0.3819 -0.6948
 4062TIP3    H112192   4.779   0.210   3.937 -1.7785 -0.6176 -0.5576
 4062TIP3    H212193   4.745   0.102   3.836  1.8896 -3.0665  0.6192
 4063TIP3   OH212194   3.558   0.567   2.481 -0.6763  0.0909  0.2690
 4063TIP3    H112195   3.566   0.473   2.462  0.6640 -0.3886  2.6891
 4063TIP3    H212196   3.500   0.601   2.414 -1.6010 -2.5784 -0.3934
 4064TIP3   OH212197   0.179   4.328   4.929 -0.1478 -0.4375  0.0304
 4064TIP3    H112198   0.235   4.385   4.876  0.1462 -0.9689 -0.2417
 4064TIP3    H212199   0.160   4.379   5.007  2.3241 -0.9448  1.0518
 4065TIP3   OH212200   1.761   4.173   1.287  0.3786  0.1697  0.5913
 4065TIP3    H112201   1.775   4.079   1.283  1.0785  0.2999 -0.3746
 4065TIP3    H212202   1.666   4.184   1.284  0.3338 -0.4197 -1.9343
 4066TIP3   OH212203   2.568   0.539   0.589 -0.1764  0.0174  0.5142
 4066TIP3    H112204   2.563   0.564   0.497 -1.4036  1.0678  0.8333
 4066TIP3    H212205   2.496   0.477   0.602  0.4096 -0.6573  0.6327
 4067TIP3   OH212206   0.147   0.226   1.742 -0.0022 -0.1921 -0.2094
 4067TIP3    H112207   0.104   0.297   1.789 -1.2055  0.5691 -2.3254
 4067TIP3    H212208   0.236   0.258   1.727 -0.0699  0.2000  0.2084
 4068TIP3   OH212209   0.206   1.975   3.789  0.6563  0.1512  0.3115
 4068TIP3    H112210   0.132   1.999   3.732  0.2841  1.1259  1.1775
 4068TIP3    H212211   0.246   1.899   3.745 -1.8076 -1.4512  0.6210
 4069TIP3   OH212212   2.731   0.540   4.499 -0.2742  0.1404 -0.0684
 4069TIP3    H112213   2.690   0.616   4.458  2.1419  0.7860 -1.4450
 4069TIP3    H212214   2.804   0.576   4.549  0.0300 -1.1483  0.4656
 4070TIP3   OH212215   6.019   2.752   5.151  0.0229 -0.4715  0.3553
 4070TIP3    H112216   6.084   2.701   5.101 -1.7833 -2.1993 -0.3959
 4070TIP3    H212217   6.043   2.738   5.242 -0.0161 -2.2030  0.1456
 4071TIP3   OH212218   1.627   0.777   2.286 -0.1458  0.9812 -0.0779
 4071TIP3    H112219   1.716   0.802   2.260  0.6878  1.0997  2.5867
 4071TIP3    H212220   1.582   0.861   2.297 -0.2404  0.9618 -0.3153
 4072TIP3   OH212221   0.069   3.576   3.922  0.3811 -0.0333  0.0685
 4072TIP3    H112222   0.022   3.643   3.972  0.3033  0.1851 -0.2884
 4072TIP3    H212223   0.151   3.618   3.896 -0.2439  0.3995 -1.2945
 4073TIP3   OH212224   3.002   3.176   0.668  0.2659 -0.7546  0.3204
 4073TIP3    H112225   3.034   3.233   0.738 -0.2903 -1.9167  1.5967
 4073TIP3    H212226   3.040   3.090   0.688 -1.9426 -1.7160  0.7651
 4074TIP3   OH212227   3.867   1.409   1.967 -0.0258  0.2174  0.1555
 4074TIP3    H112228   3.917   1.467   2.024 -2.4883  2.2328  0.4480
 4074TIP3    H212229   3.907   1.419   1.881  0.5479  1.1775  0.5236
 4075TIP3   OH212230   0.959   0.557   1.537  0.3840 -0.4166 -0.2281
 4075TIP3    H112231   0.876   0.574   1.491  0.1566  0.6516  0.5372
 4075TIP3    H212232   1.026   0.584   1.474  0.0591  1.6584  0.2447
 4076TIP3   OH212233   3.770   2.239   3.394 -0.2363  0.4334 -0.8357
 4076TIP3    H112234   3.797   2.255   3.304 -0.2194 -1.1470 -1.1449
 4076TIP3    H212235   3.852   2.223   3.441 -0.2921  0.5965 -0.6801
 4077TIP3   OH212236   0.928   1.207   4.210 -0.3038 -0.0563 -0.0321
 4077TIP3    H112237   0.869   1.218   4.136 -1.7126 -0.6762  0.9634
 4077TIP3    H212238   0.951   1.297   4.235 -0.5421  0.1824 -0.6326
 4078TIP3   OH212239   5.673   2.290   1.565  0.2227  0.1850 -0.0060
 4078TIP3    H112240   5.602   2.228   1.550  0.1703  0.4335 -0.8345
 4078TIP3    H212241   5.743   2.261   1.506  0.0173  1.1815 -0.7645
 4079TIP3   OH212242   5.828   4.192   4.283 -0.3734 -0.4592  0.2639
 4079TIP3    H112243   5.910   4.151   4.310  0.7525  1.6005  0.2019
 4079TIP3    H212244   5.816   4.165   4.192  1.0509  0.3884 -0.2038
 4080TIP3   OH212245   3.097   5.597   1.783  0.0576  0.0805  0.0928
 4080TIP3    H112246   3.042   5.631   1.713  1.6811  0.6552 -0.9641
 4080TIP3    H212247   3.144   5.674   1.815 -0.1873 -0.2926  1.3852
 4081TIP3   OH212248   2.186   1.120   0.682 -0.5778 -0.5031 -0.2309
 4081TIP3    H112249   2.237   1.201   0.679 -0.0180 -0.7964  0.7991
 4081TIP3    H212250   2.251   1.050   0.685 -0.9751 -0.8541  1.8235
 4082TIP3   OH212251   5.375   4.291   2.206 -0.6391  0.1887  0.3916
 4082TIP3    H112252   5.305   4.227   2.221 -1.5308  1.0358 -0.0732
 4082TIP3    H212253   5.329   4.371   2.181  0.5702  0.0986 -2.4198
 4083TIP3   OH212254   5.050   2.717   0.224 -0.5501  0.1944  0.3320
 4083TIP3    H112255   5.044   2.745   0.315  1.7404  1.6062  0.1101
 4083TIP3    H212256   5.140   2.685   0.214 -1.0444 -0.8561 -1.2141
 4084TIP3   OH212257   3.436   5.525   3.458  0.3544 -0.1688 -0.3826
 4084TIP3    H112258   3.355   5.552   3.416  2.0416  0.5026 -3.5275
 4084TIP3    H212259   3.479   5.469   3.394  3.0412  0.7090  0.4906
 4085TIP3   OH212260   3.986   5.100   2.832 -1.1009 -0.3204 -0.1304
 4085TIP3    H112261   3.990   5.090   2.737  2.5737  0.8319 -0.2898
 4085TIP3    H212262   3.901   5.141   2.849 -1.3549  0.6057 -3.0720
 4086TIP3   OH212263   1.742   0.199   3.261  0.4544  0.2314 -0.2618
 4086TIP3    H112264   1.741   0.122   3.317  1.4890  0.0244 -0.5137
 4086TIP3    H212265   1.693   0.265   3.310  1.7765  0.2136  1.1423
 4087TIP3   OH212266   5.892   0.792   4.344 -0.1894  0.6491 -0.7726
 4087TIP3    H112267   5.985   0.807   4.334 -0.2592  2.0310  0.2842
 4087TIP3    H212268   5.861   0.867   4.395 -1.8435  0.1381 -0.9613
 4088TIP3   OH212269   1.256   3.127   1.946  0.0199 -0.5424  0.0758
 4088TIP3    H112270   1.242   3.212   1.904  0.8136 -0.7873 -0.7230
 4088TIP3    H212271   1.346   3.103   1.922  0.0563 -1.2753  0.8963
 4089TIP3   OH212272   2.578   1.432   1.253 -0.2631  0.4802  0.0738
 4089TIP3    H112273   2.532   1.382   1.320 -0.8696  3.0438  1.7181
 4089TIP3    H212274   2.668   1.400   1.256 -0.5340 -0.2165  1.3521
 4090TIP3   OH212275   4.265   1.075   3.724 -0.1015 -0.0260  0.2192
 4090TIP3    H112276   4.299   0.996   3.766 -2.2669 -1.9447 -1.4417
 4090TIP3    H212277   4.328   1.094   3.654  1.1406  0.5966  1.4443
 4091TIP3   OH212278   5.005   5.409   1.953 -0.7215 -0.0146 -0.2145
 4091TIP3    H112279   5.025   5.460   1.874  0.5650  0.7141  0.5483
 4091TIP3    H212280   4.940   5.346   1.924 -1.1967  1.0337 -1.5719
 4092TIP3   OH212281   0.357   3.640   5.088  0.3986 -0.2222  0.5353
 4092TIP3    H112282   0.269   3.674   5.074  1.2792  2.0102 -0.1052
 4092TIP3    H212283   0.389   3.688   5.164  0.7445 -1.7270  1.3711
 4093TIP3   OH212284   5.446   4.562   4.606 -1.0428  0.3840 -0.1272
 4093TIP3    H112285   5.526   4.570   4.658 -0.2125 -0.3796 -1.2268
 4093TIP3    H212286   5.388   4.508   4.659 -0.7038  0.6783  0.5471
 4094TIP3   OH212287   2.717   4.312   3.845 -0.1101  0.3200 -0.3373
 4094TIP3    H112288   2.699   4.294   3.938 -1.7569  1.2823 -0.4495
 4094TIP3    H212289   2.724   4.225   3.806 -2.0735 -0.1263  0.2141
 4095TIP3   OH212290   4.563   0.226   2.823 -0.1938 -0.3126 -0.2962
 4095TIP3    H112291   4.583   0.295   2.886 -0.0296  1.0998 -1.8212
 4095TIP3    H212292   4.514   0.161   2.873  1.2621 -0.0135  1.6385
 4096TIP3   OH212293   0.731   0.561   4.263  0.3632 -0.5886  0.0513
 4096TIP3    H112294   0.711   0.475   4.298 -0.9622 -0.6779 -0.8457
 4096TIP3    H212295   0.708   0.622   4.334  0.5761 -0.9226  0.4098
 4097TIP3   OH212296   1.011   4.255   0.342 -0.0012 -0.0062  0.4647
 4097TIP3    H112297   1.034   4.235   0.433 -1.6416  0.2291  0.9747
 4097TIP3    H212298   0.941   4.194   0.321  1.3015 -0.9939 -1.1508
 4098TIP3   OH212299   1.609   4.253   3.849  0.1330 -0.1104  0.1108
 4098TIP3    H112300   1.578   4.164   3.868 -0.5490 -0.2081 -1.3206
 4098TIP3    H212301   1.529   4.306   3.847 -0.2743 -0.5023 -4.4060
 4099TIP3   OH212302   3.483   1.179   2.529 -0.1436  0.0747 -0.1694
 4099TIP3    H112303   3.461   1.164   2.621 -0.7861  0.9347 -0.1738
 4099TIP3    H212304   3.484   1.091   2.490 -0.7129 -0.2237  0.4688
 4100TIP3   OH212305   0.638   5.452   2.382 -0.6295  0.1436 -0.6770
 4100TIP3    H112306   0.678   5.461   2.295 -1.2693 -1.5872 -1.1860
 4100TIP3    H212307   0.711   5.429   2.440 -0.4423 -0.2215 -1.0562
 4101TIP3   OH212308   1.328   4.605   0.836  0.5622 -0.4371  0.6110
 4101TIP3    H112309   1.292   4.685   0.874 -3.8641 -1.3536 -0.9870
 4101TIP3    H212310   1.379   4.635   0.761 -0.4536  0.9929  0.4497
 4102TIP3   OH212311   0.777   3.122   0.746 -0.1055 -0.4565 -0.4533
 4102TIP3    H112312   0.836   3.115   0.821  0.1009 -1.3044 -0.6824
 4102TIP3    H212313   0.833   3.149   0.673 -0.4335  1.0816 -0.1576
 4103TIP3   OH212314   5.620   2.491   4.185  0.0029 -0.4093 -0.0860
 4103TIP3    H112315   5.568   2.522   4.111  1.2216  1.2998 -0.2925
 4103TIP3    H212316   5.621   2.565   4.246  2.2331 -0.3486 -0.1353
 4104TIP3   OH212317   3.858   0.335   4.156 -0.2341 -0.2012  0.3488
 4104TIP3    H112318   3.838   0.427   4.146 -1.0084 -0.3519  0.4636
 4104TIP3    H212319   3.819   0.292   4.080 -0.8762 -0.5723  0.8737
 4105TIP3   OH212320   3.170   5.121   0.529  0.0991 -0.7618  0.0204
 4105TIP3    H112321   3.110   5.179   0.482 -0.0827 -0.8275  0.1711
 4105TIP3    H212322   3.179   5.160   0.616  1.4361  0.0574 -0.4702
 4106TIP3   OH212323   5.695   1.969   5.003  0.2210  0.0096  0.5712
 4106TIP3    H112324   5.774   2.009   4.966  0.4065 -0.5688  0.3264
 4106TIP3    H212325   5.677   2.020   5.082  0.5129  0.5041  0.3237
 4107TIP3   OH212326   5.948   1.366   0.845  0.1502  0.0673  0.3393
 4107TIP3    H112327   6.021   1.423   0.822 -0.0508  0.2881  0.2465
 4107TIP3    H212328   5.935   1.380   0.939  0.2198  0.0336  0.3546
 4108TIP3   OH212329   1.866   5.840   1.826  0.0657 -0.5052 -0.0485
 4108TIP3    H112330   1.948   5.848   1.777  1.1840 -2.5947  1.3366
 4108TIP3    H212331   1.888   5.868   1.914 -1.6256  2.0804 -0.3545
 4109TIP3   OH212332   2.178   0.222   3.254  0.6266 -0.0917 -0.1530
 4109TIP3    H112333   2.160   0.302   3.303  4.4586  0.4845  0.5920
 4109TIP3    H212334   2.239   0.249   3.185  2.3791 -2.3831  0.4006
 4110TIP3   OH212335   5.149   0.049   2.400  0.0929 -0.4207  0.3268
 4110TIP3    H112336   5.207  -0.023   2.425 -0.8951 -1.2575  0.2495
 4110TIP3    H212337   5.104   0.073   2.481 -1.1580 -1.3530 -0.0624
 4111TIP3   OH212338   5.378   3.104   3.605  0.2981  0.1046 -0.6847
 4111TIP3    H112339   5.363   3.161   3.530  1.8257  0.3218 -0.8506
 4111TIP3    H212340   5.303   3.044   3.605  0.6705 -0.4368 -2.8658
 4112TIP3   OH212341   0.980   4.461   3.754  0.2194  0.3114  0.1131
 4112TIP3    H112342   0.894   4.503   3.752 -1.2238 -2.3054  1.3978
 4112TIP3    H212343   0.986   4.413   3.672 -0.7416 -1.4765  1.0108
 4113TIP3   OH212344   5.107   4.217   0.187  0.3328  0.1666  0.4772
 4113TIP3    H112345   5.121   4.267   0.107 -1.7074 -1.8268 -1.2555
 4113TIP3    H212346   5.035   4.263   0.231 -0.3406 -0.2087 -0.2118
 4114TIP3   OH212347   2.936   1.418   0.576 -0.7465  0.2656  0.0457
 4114TIP3    H112348   2.964   1.494   0.524  1.0213 -1.5338 -1.8142
 4114TIP3    H212349   2.859   1.385   0.530 -1.4077  0.7779  0.7528
 4115TIP3   OH212350   2.908   1.390   3.306  0.3638  0.1100 -0.5037
 4115TIP3    H112351   2.920   1.333   3.382  2.5284  1.2331  0.0714
 4115TIP3    H212352   2.924   1.332   3.231  1.7935 -0.2541  0.0403
 4116TIP3   OH212353   4.933   0.926   2.616  0.0033  0.2123  0.1518
 4116TIP3    H112354   5.024   0.939   2.643  0.3156 -0.2310 -0.6451
 4116TIP3    H212355   4.922   0.831   2.612 -0.0670  0.2537 -1.0807
 4117TIP3   OH212356   0.667   4.794   4.269  0.1305  0.7984  0.5662
 4117TIP3    H112357   0.690   4.813   4.178 -0.1770  4.3066  1.0972
 4117TIP3    H212358   0.730   4.727   4.296  1.7806  1.3998 -1.5390
 4118TIP3   OH212359   3.227   4.910   1.032 -0.5667  0.2474 -0.0015
 4118TIP3    H112360   3.217   4.888   0.939  1.4940 -0.6560 -0.0812
 4118TIP3    H212361   3.210   4.827   1.078  0.1593  0.2369  0.2640
 4119TIP3   OH212362   5.016   0.052   3.477 -0.5073  0.2448 -0.3214
 4119TIP3    H112363   5.063   0.035   3.395 -1.7889  0.2116 -1.0888
 4119TIP3    H212364   4.940  -0.006   3.473 -1.4808  1.4418  0.1060
 4120TIP3   OH212365   2.193   3.357   3.078 -0.3974  0.3502 -0.6965
 4120TIP3    H112366   2.196   3.262   3.077  1.4696  0.3515  0.4296
 4120TIP3    H212367   2.112   3.379   3.124 -1.0318 -0.6577 -1.2946
 4121TIP3   OH212368   5.104   4.767   3.440 -0.0486 -0.5791  0.0942
 4121TIP3    H112369   5.084   4.714   3.517 -0.6115 -0.0583  0.3158
 4121TIP3    H212370   5.196   4.747   3.420  0.6646  0.5888  1.9603
 4122TIP3   OH212371   3.372   2.159   3.961  0.0206 -0.3053  0.2366
 4122TIP3    H112372   3.337   2.074   3.986 -0.7924 -0.0858 -0.1251
 4122TIP3    H212373   3.312   2.191   3.893  1.1790 -0.1300 -0.7505
 4123TIP3   OH212374   6.308   0.151   0.537  0.0303  0.0608 -0.0391
 4123TIP3    H112375   6.354   0.069   0.517 -0.1775 -0.0924  0.1063
 4123TIP3    H212376   6.289   0.190   0.452 -1.0212 -0.6805 -0.1692
 4124TIP3   OH212377   4.959   2.029   3.470  0.1934  0.5774  0.6037
 4124TIP3    H112378   4.918   2.115   3.458  1.1017  0.9380  0.0217
 4124TIP3    H212379   4.995   2.007   3.384  0.7163 -0.0031  0.9599
 4125TIP3   OH212380   5.780   0.329   2.819 -0.1685 -0.6298 -0.3482
 4125TIP3    H112381   5.865   0.303   2.783  0.1280  0.3161 -0.3487
 4125TIP3    H212382   5.721   0.332   2.743  0.2827  0.6548 -0.6641
 4126TIP3   OH212383   0.649   4.095   1.049 -0.1879 -0.0115 -0.1350
 4126TIP3    H112384   0.564   4.104   1.092 -0.0757 -0.3058  0.1496
 4126TIP3    H212385   0.648   4.007   1.011 -0.9022  0.7844 -2.0951
 4127TIP3   OH212386   3.018   4.821   3.351  0.2526 -0.1417  0.3026
 4127TIP3    H112387   3.051   4.908   3.328 -1.0970 -0.1969 -2.1911
 4127TIP3    H212388   3.095   4.773   3.382  1.2884  1.4870  0.3664
 4128TIP3   OH212389   2.798   3.346   2.221  0.1391 -0.1777 -0.3646
 4128TIP3    H112390   2.773   3.432   2.255 -0.4301 -0.4884  0.0070
 4128TIP3    H212391   2.889   3.358   2.193  0.4629  0.2189  0.8028
 4129TIP3   OH212392   3.065   4.038   0.506 -0.3266  0.1738 -0.4053
 4129TIP3    H112393   3.068   4.059   0.413 -0.4881  0.1824 -0.4085
 4129TIP3    H212394   3.119   3.959   0.515  2.4717  1.9781 -0.0088
 4130TIP3   OH212395   4.830   3.885   4.900  0.0474  0.1544  0.7135
 4130TIP3    H112396   4.803   3.964   4.947  0.3295 -0.0378  1.2010
 4130TIP3    H212397   4.925   3.882   4.910  0.1752  0.3487 -0.2545
 4131TIP3   OH212398   5.372   5.640   3.195 -0.1362  0.5492 -0.3641
 4131TIP3    H112399   5.384   5.712   3.257 -1.1893 -0.1759  0.7262
 4131TIP3    H212400   5.455   5.593   3.196 -0.2463  0.3640  0.7534
 4132TIP3   OH212401   5.817   5.787   1.632  0.7458  0.3571 -0.4572
 4132TIP3    H112402   5.750   5.803   1.565  1.1407 -0.2212 -1.0021
 4132TIP3    H212403   5.857   5.704   1.607  0.2459 -0.3672  1.0653
 4133TIP3   OH212404   6.339   3.057   2.918 -0.3023 -0.6989  0.2419
 4133TIP3    H112405   6.272   2.994   2.943 -0.2054 -1.0269 -0.3092
 4133TIP3    H212406   6.374   3.090   3.001 -0.6610 -1.0380  0.5303
 4134TIP3   OH212407   3.823   1.461   0.558 -0.2976 -0.1776  0.0432
 4134TIP3    H112408   3.815   1.552   0.589 -0.6706  0.0185 -0.5968
 4134TIP3    H212409   3.916   1.449   0.541 -0.4373  0.6532 -1.4802
 4135TIP3   OH212410   5.620   0.103   4.824  0.1102  0.3679  0.1883
 4135TIP3    H112411   5.598   0.176   4.882 -0.2823  1.8241 -1.7287
 4135TIP3    H212412   5.573   0.120   4.743  0.2191 -1.9016 -0.4319
 4136TIP3   OH212413   2.150   3.513   0.861  0.3219  0.4328 -0.5436
 4136TIP3    H112414   2.165   3.422   0.885  1.6819  0.8602  0.3529
 4136TIP3    H212415   2.224   3.560   0.898 -2.3908  2.5703  2.8344
 4137TIP3   OH212416   5.769   5.547   2.901 -0.0884  0.0135  0.3324
 4137TIP3    H112417   5.718   5.625   2.879 -0.5634 -0.2527  0.4729
 4137TIP3    H212418   5.855   5.580   2.926 -0.1117  0.4488 -0.1647
 4138TIP3   OH212419   5.264   4.298   3.262  0.0212 -0.1431  0.4496
 4138TIP3    H112420   5.289   4.318   3.172  2.0786 -1.3234  0.6944
 4138TIP3    H212421   5.168   4.308   3.264  0.0093  0.5267 -1.6718
 4139TIP3   OH212422   1.719   4.306   4.975  0.6058  0.4562 -0.4280
 4139TIP3    H112423   1.721   4.346   5.062  1.0799 -1.4364  0.4740
 4139TIP3    H212424   1.716   4.212   4.992 -1.0678  0.0777 -2.4585
 4140TIP3   OH212425   4.278   2.116   0.232 -0.1816 -0.3992 -0.0215
 4140TIP3    H112426   4.318   2.073   0.156 -1.1355 -1.2920 -0.0468
 4140TIP3    H212427   4.184   2.115   0.213 -0.2104  2.7469 -0.5286
 4141TIP3   OH212428   0.895   4.754   0.243 -0.3297 -0.0630 -0.4404
 4141TIP3    H112429   0.807   4.778   0.213 -1.2061 -1.7094  0.6762
 4141TIP3    H212430   0.887   4.663   0.270  1.7355 -0.2380 -0.2567
 4142TIP3   OH212431   1.442   4.365   1.494 -0.6992 -0.3453  0.8514
 4142TIP3    H112432   1.514   4.349   1.554 -0.2384  1.1166  0.7301
 4142TIP3    H212433   1.380   4.418   1.544 -0.7768  0.0432  0.3501
 4143TIP3   OH212434   4.606   4.106   4.783 -0.0234 -0.0997  0.0314
 4143TIP3    H112435   4.525   4.157   4.777 -0.2057 -0.5174 -1.5254
 4143TIP3    H212436   4.578   4.015   4.768  0.6984 -0.2677 -0.3490
 4144TIP3   OH212437   2.285   3.737   3.986 -0.6594  0.0320  0.4824
 4144TIP3    H112438   2.292   3.689   3.904 -0.3171  0.4469  0.2614
 4144TIP3    H212439   2.360   3.797   3.986  0.7270 -1.5764  2.2013
 4145TIP3   OH212440   0.820   5.624   4.699  0.4467 -0.1001 -0.6408
 4145TIP3    H112441   0.779   5.543   4.671 -0.3191  0.4955 -1.2963
 4145TIP3    H212442   0.860   5.603   4.783  2.0242 -1.6973 -1.7196
 4146TIP3   OH212443   1.527   5.838   4.867 -0.1026 -0.1874 -0.4542
 4146TIP3    H112444   1.524   5.824   4.772  3.2948 -0.7097 -0.6345
 4146TIP3    H212445   1.541   5.932   4.877 -0.8481 -0.0730 -0.4150
 4147TIP3   OH212446   5.652   0.900   3.807  0.2690 -0.2080  0.0474
 4147TIP3    H112447   5.591   0.875   3.877  0.1047 -0.5206 -0.2002
 4147TIP3    H212448   5.735   0.915   3.851  0.2553 -0.7508  0.2683
 4148TIP3   OH212449   5.238   5.461   1.192  0.4316  0.4893 -0.8764
 4148TIP3    H112450   5.195   5.455   1.106 -0.6081 -1.7909 -0.2821
 4148TIP3    H212451   5.166   5.477   1.253  1.1702  2.0985 -0.3887
 4149TIP3   OH212452   6.121   2.139   3.871 -0.1355  0.2578 -0.5264
 4149TIP3    H112453   6.177   2.190   3.929  0.7759 -0.1007 -1.0731
 4149TIP3    H212454   6.115   2.191   3.791  1.1046 -0.6221 -1.2269
 4150TIP3   OH212455   1.423   4.799   2.458 -0.3471 -0.3011 -0.3747
 4150TIP3    H112456   1.481   4.769   2.529 -0.5050  0.7889  0.2353
 4150TIP3    H212457   1.483   4.822   2.387 -0.0989 -0.0940 -0.0995
 4151TIP3   OH212458   5.185   4.594   1.130  1.0732 -0.2590  0.0757
 4151TIP3    H112459   5.153   4.503   1.128  0.2629  0.0072 -2.2530
 4151TIP3    H212460   5.126   4.638   1.191  0.6628 -1.0250  0.2541
 4152TIP3   OH212461   5.601   5.231   4.696 -0.0433 -0.3078  0.0106
 4152TIP3    H112462   5.534   5.169   4.724 -0.7053  0.9411  1.3072
 4152TIP3    H212463   5.683   5.183   4.705 -0.3336 -0.3813  3.0826
 4153TIP3   OH212464   2.158   3.844   4.276 -0.1519  0.4828 -0.3152
 4153TIP3    H112465   2.141   3.836   4.370 -1.3244 -1.0836 -0.6052
 4153TIP3    H212466   2.106   3.919   4.249  1.1160  1.6801  0.4580
 4154TIP3   OH212467   4.054   4.715   4.074 -0.4830 -0.8902 -0.4892
 4154TIP3    H112468   4.025   4.721   3.983 -2.7792 -0.7112  0.1939
 4154TIP3    H212469   4.008   4.639   4.110  0.9614 -1.4154  0.3559
 4155TIP3   OH212470   3.748   4.501   2.203  0.4718 -0.5221 -0.5950
 4155TIP3    H112471   3.737   4.586   2.246 -1.1100 -0.0981 -1.7631
 4155TIP3    H212472   3.802   4.520   2.126  0.6464 -0.6839 -0.5116
 4156TIP3   OH212473   2.541   5.928   3.295  0.1077 -0.8578  0.4763
 4156TIP3    H112474   2.601   5.869   3.342  0.1860 -0.3906  0.9660
 4156TIP3    H212475   2.454   5.900   3.322  0.0808 -1.5910 -0.2975
 4157TIP3   OH212476   3.166   4.120   3.753 -0.3309 -0.5276 -0.0383
 4157TIP3    H112477   3.183   4.149   3.664  0.7914 -0.4493  0.1950
 4157TIP3    H212478   3.244   4.071   3.779 -0.1031  0.5133  1.3387
 4158TIP3   OH212479   1.580   0.507   2.269  0.5138  0.4447 -0.9830
 4158TIP3    H112480   1.641   0.461   2.327 -1.6953  1.2255  2.2375
 4158TIP3    H212481   1.612   0.597   2.268 -0.5093  0.8693  0.7592
 4159TIP3   OH212482   5.705   2.097   0.666 -1.0984  0.1931 -0.1687
 4159TIP3    H112483   5.644   2.171   0.679 -2.2200 -0.3952 -1.7303
 4159TIP3    H212484   5.711   2.088   0.571 -1.3838 -2.0202 -0.0299
 4160TIP3   OH212485   4.370   5.697   1.761  0.0188  0.5359 -0.0456
 4160TIP3    H112486   4.346   5.708   1.853  1.1419 -2.2958  0.6933
 4160TIP3    H212487   4.416   5.778   1.738 -0.9685  1.6342  1.5973
 4161TIP3   OH212488   2.487   0.164   3.123 -0.2558  0.1766  0.0030
 4161TIP3    H112489   2.527   0.171   3.210  0.0126  1.0636 -0.1833
 4161TIP3    H212490   2.558   0.186   3.063 -0.7147  0.5908 -0.3869
 4162TIP3   OH212491   2.605   3.977   2.007 -0.3139  0.1773  0.1167
 4162TIP3    H112492   2.562   3.899   1.971 -0.6998  0.0169  0.8998
 4162TIP3    H212493   2.534   4.040   2.018 -0.3282 -0.0158  1.2255
 4163TIP3   OH212494   5.742   1.679   3.747  0.1599 -0.0267  0.5506
 4163TIP3    H112495   5.748   1.775   3.741 -1.8899  0.3079  2.4544
 4163TIP3    H212496   5.734   1.662   3.841  1.2953 -2.1633  0.3023
 4164TIP3   OH212497   6.316   4.858   3.687  0.4887 -0.2595  0.0172
 4164TIP3    H112498   6.393   4.821   3.732 -0.8233 -0.6250  2.0917
 4164TIP3    H212499   6.292   4.791   3.623  2.4401  0.2947 -1.3942
 4165TIP3   OH212500   1.901   2.347   0.198  0.4808  0.1213  0.6825
 4165TIP3    H112501   1.946   2.429   0.218  1.6011 -0.4227  0.5204
 4165TIP3    H212502   1.954   2.308   0.128 -1.8412  0.7529 -1.5470
 4166TIP3   OH212503   2.087   1.069   4.015  0.3327  0.4007 -0.0985
 4166TIP3    H112504   2.019   1.057   3.949  1.1428 -1.8774 -0.6156
 4166TIP3    H212505   2.062   1.009   4.086  1.1895  0.3739  0.1930
 4167TIP3   OH212506   1.845   1.285   2.160  0.3121 -0.7001  0.0879
 4167TIP3    H112507   1.803   1.322   2.238  2.1749 -1.6290  1.6186
 4167TIP3    H212508   1.937   1.310   2.168  0.8740 -2.2876 -0.8955
 4168TIP3   OH212509   4.666   5.051   1.362 -0.2518  0.1749 -0.0751
 4168TIP3    H112510   4.744   5.019   1.407 -0.6812 -0.8605 -0.0376
 4168TIP3    H212511   4.616   4.972   1.341 -1.3120  0.8231 -0.0587
 4169TIP3   OH212512   4.874   2.511   3.669  0.0021  0.3896 -0.1750
 4169TIP3    H112513   4.908   2.600   3.663  0.9318 -0.0252 -1.4640
 4169TIP3    H212514   4.953   2.456   3.678 -0.4643 -0.4163 -0.8960
 4170TIP3   OH212515   0.261   4.177   3.942  0.0563  0.0204  0.2841
 4170TIP3    H112516   0.238   4.169   4.034  0.0972 -0.5180  0.2531
 4170TIP3    H212517   0.300   4.092   3.920 -1.3615 -0.4410 -0.6258
 4171TIP3   OH212518   4.293   1.981   0.688 -0.1722  0.3542 -0.2361
 4171TIP3    H112519   4.321   2.025   0.769  0.2284  0.0134 -0.1889
 4171TIP3    H212520   4.335   1.895   0.691 -0.7364  0.0620 -0.4589
 4172TIP3   OH212521   4.644   4.609   2.646 -0.7646  0.2307  0.6281
 4172TIP3    H112522   4.624   4.527   2.599 -0.6344 -0.2512  1.4003
 4172TIP3    H212523   4.587   4.674   2.604 -1.1943 -0.3419  0.2960
 4173TIP3   OH212524   4.316   0.560   2.504 -0.0687  0.4643  0.2769
 4173TIP3    H112525   4.347   0.471   2.520  0.0151  0.4261 -0.0912
 4173TIP3    H212526   4.221   0.552   2.500 -0.0116  0.2131 -0.8063
 4174TIP3   OH212527   3.468   0.081   2.518  0.4241  0.4268  0.0624
 4174TIP3    H112528   3.404   0.049   2.583  0.1108 -0.4558 -0.6641
 4174TIP3    H212529   3.491   0.004   2.467  1.7269  0.8360 -0.0011
 4175TIP3   OH212530   5.157   3.529   1.619  0.8049  0.1885 -0.2280
 4175TIP3    H112531   5.241   3.573   1.631 -0.0744  1.2840  2.5346
 4175TIP3    H212532   5.109   3.585   1.558  1.0494  1.0659  0.3803
 4176TIP3   OH212533   6.045   0.317   2.730  0.2528 -0.1995  0.2364
 4176TIP3    H112534   6.032   0.289   2.639  1.6525 -1.8856  0.5081
 4176TIP3    H212535   6.092   0.245   2.771 -0.2555  0.5741  2.2971
 4177TIP3   OH212536   1.012   0.361   1.928 -0.0195 -0.1040  0.0124
 4177TIP3    H112537   1.006   0.435   1.867 -1.1437  1.2388  1.6853
 4177TIP3    H212538   0.930   0.363   1.977  0.2078 -2.0808  0.5646
 4178TIP3   OH212539   2.354   4.102   4.917  0.6493 -0.2969  0.0528
 4178TIP3    H112540   2.346   4.197   4.928 -0.5478 -0.2587 -0.8618
 4178TIP3    H212541   2.415   4.092   4.844 -1.4126 -0.0661 -1.8336
 4179TIP3   OH212542   2.051   3.814   0.130 -0.2302  0.5448 -0.1262
 4179TIP3    H112543   2.103   3.892   0.151  0.3236  0.1254  0.1018
 4179TIP3    H212544   1.965   3.848   0.106 -0.0073  1.2234  0.0081
 4180TIP3   OH212545   1.646   2.715   1.189 -0.2951  0.5580 -0.5388
 4180TIP3    H112546   1.710   2.715   1.118  0.8858  0.3411  0.4800
 4180TIP3    H212547   1.638   2.807   1.214 -1.0047  0.6783 -1.2019
 4181TIP3   OH212548   1.788   3.680   2.373  0.2008 -0.3655  0.1186
 4181TIP3    H112549   1.831   3.762   2.351 -2.8857  0.8220 -2.1690
 4181TIP3    H212550   1.858   3.615   2.369  2.2685  1.7502 -0.5204
 4182TIP3   OH212551   3.721   3.183  -0.003  1.0031 -0.2279  0.2212
 4182TIP3    H112552   3.759   3.136   0.071 -0.9790 -0.1790  1.3663
 4182TIP3    H212553   3.626   3.173   0.009  0.5473  2.3356 -0.6185
 4183TIP3   OH212554   4.323   0.423   2.783  0.3371  0.4487  0.6006
 4183TIP3    H112555   4.340   0.342   2.734  0.8734  0.5967  0.5396
 4183TIP3    H212556   4.370   0.491   2.735 -0.9618  0.9916  0.0555
 4184TIP3   OH212557   3.823   0.024   0.497 -0.6453 -0.2439 -0.4220
 4184TIP3    H112558   3.907   0.055   0.531 -0.8012 -0.0052 -0.2468
 4184TIP3    H212559   3.827  -0.071   0.505  0.2710 -0.3602 -1.9675
 4185TIP3   OH212560   5.758   1.351   1.494  0.1938  0.1272  0.5410
 4185TIP3    H112561   5.772   1.267   1.449 -0.1445  0.1413  0.4041
 4185TIP3    H212562   5.802   1.340   1.578  1.3347  0.3033 -0.0094
 4186TIP3   OH212563   6.146   1.743   4.353 -0.0633  0.0217 -0.1351
 4186TIP3    H112564   6.092   1.666   4.371  1.2348 -0.5001  1.7404
 4186TIP3    H212565   6.230   1.708   4.325  0.5375  0.7499  0.7017
 4187TIP3   OH212566   2.097   4.414   0.413 -0.2593  0.1317 -0.7572
 4187TIP3    H112567   2.076   4.321   0.428  0.4919  0.2535  1.3587
 4187TIP3    H212568   2.163   4.412   0.344 -1.0026 -0.8269 -1.4718
 4188TIP3   OH212569   3.703   0.810   5.165 -0.1807 -0.1351  0.1419
 4188TIP3    H112570   3.782   0.799   5.113 -1.2919  0.5323 -1.7968
 4188TIP3    H212571   3.696   0.729   5.217  1.3350 -0.5182 -0.2204
 4189TIP3   OH212572   3.139   4.651   0.523  0.3236 -0.1720 -0.1488
 4189TIP3    H112573   3.199   4.725   0.514  0.9578 -0.7747 -1.2524
 4189TIP3    H212574   3.192   4.575   0.498 -0.1636 -1.0779  1.4423
 4190TIP3   OH212575   5.311   0.037   1.443 -0.3021 -0.1675 -0.6181
 4190TIP3    H112576   5.358   0.042   1.360  0.4739  1.2311 -0.1329
 4190TIP3    H212577   5.300  -0.057   1.459  1.9636 -0.5487 -0.9809
 4191TIP3   OH212578   6.322   2.292   1.368 -0.4440  0.5234  0.1471
 4191TIP3    H112579   6.291   2.366   1.316 -1.0843 -0.5983 -1.1211
 4191TIP3    H212580   6.252   2.227   1.362  0.7032 -0.7495  0.0559
 4192TIP3   OH212581   1.579   5.219   1.710  0.2448  0.0486  0.1400
 4192TIP3    H112582   1.483   5.215   1.711  0.2823 -2.2187 -0.2646
 4192TIP3    H212583   1.599   5.309   1.683 -1.7076  1.2761  2.3589
 4193TIP3   OH212584   0.511   1.750   4.391  0.1384 -0.0177  0.0489
 4193TIP3    H112585   0.538   1.698   4.467  0.0676 -1.0198 -0.6013
 4193TIP3    H212586   0.441   1.700   4.351  2.7308 -1.6019 -2.9397
 4194TIP3   OH212587   4.680   1.796   3.470 -0.5517  0.0391 -0.1078
 4194TIP3    H112588   4.742   1.781   3.541 -0.9673 -0.7156  0.0975
 4194TIP3    H212589   4.687   1.890   3.452 -2.0788  0.7580  2.4880
 4195TIP3   OH212590   2.563   5.878   0.659 -0.1525  0.4402  0.4949
 4195TIP3    H112591   2.608   5.957   0.627 -0.9227  1.2382  1.3616
 4195TIP3    H212592   2.490   5.866   0.598  0.9216 -0.6129 -0.6575
 4196TIP3   OH212593   5.520   1.721   4.103 -0.5147 -0.2307 -0.2680
 4196TIP3    H112594   5.469   1.753   4.177  1.0369  1.6199  0.1017
 4196TIP3    H212595   5.514   1.626   4.108 -0.9414 -0.1317  1.8599
 4197TIP3   OH212596   2.998   2.847  -0.025  0.7328  0.3591 -0.3399
 4197TIP3    H112597   2.983   2.934   0.013 -0.5308  0.5383 -1.1807
 4197TIP3    H212598   2.962   2.787   0.040 -1.8477  0.6887 -1.3360
 4198TIP3   OH212599   2.132   1.914   4.799  0.6265 -0.2847  0.1132
 4198TIP3    H112600   2.096   1.999   4.825  2.6093  0.7532 -0.3810
 4198TIP3    H212601   2.218   1.911   4.840  1.1285 -1.4753 -0.9866
 4199TIP3   OH212602   0.604   5.260   1.143  0.0323 -0.2345 -0.6798
 4199TIP3    H112603   0.656   5.339   1.158 -0.0699 -0.6833  2.6736
 4199TIP3    H212604   0.540   5.286   1.076  2.5678  1.2069 -2.7207
 4200TIP3   OH212605   0.760   3.695   2.424 -0.2522 -0.4085 -0.5095
 4200TIP3    H112606   0.773   3.733   2.511  0.5273  1.4781 -1.3879
 4200TIP3    H212607   0.690   3.632   2.435  1.5355 -2.1207  2.0217
 4201TIP3   OH212608   4.231   3.842   0.561 -0.6627 -0.2279  0.4209
 4201TIP3    H112609   4.243   3.834   0.467  1.3285 -0.5759  0.6522
 4201TIP3    H212610   4.313   3.808   0.598 -1.4537 -0.2202  2.2747
 4202TIP3   OH212611   1.413   0.720   0.575  0.1733  0.2800  0.0280
 4202TIP3    H112612   1.350   0.792   0.576 -0.8198 -0.5418 -0.6164
 4202TIP3    H212613   1.386   0.664   0.648 -0.2022 -0.3434 -0.5690
 4203TIP3   OH212614   6.370   0.768   3.258  0.0833 -0.3696  0.6069
 4203TIP3    H112615   6.378   0.696   3.321 -0.9478 -0.1895  0.9557
 4203TIP3    H212616   6.291   0.815   3.285 -1.4882 -1.3694 -1.9348
 4204TIP3   OH212617   3.429   4.889   2.338 -0.4809 -0.4654 -0.4502
 4204TIP3    H112618   3.391   4.960   2.286  1.6080  0.2891 -1.0509
 4204TIP3    H212619   3.415   4.915   2.429 -2.0069 -0.5805 -0.6372
 4205TIP3   OH212620   6.221   2.838   2.454  0.4726 -0.4651  0.4830
 4205TIP3    H112621   6.285   2.898   2.492  0.1857 -0.4972  1.0299
 4205TIP3    H212622   6.246   2.831   2.362 -0.2880  1.5791  0.0621
 4206TIP3   OH212623   2.955   0.446   0.552  0.0743 -0.2267  0.3667
 4206TIP3    H112624   2.967   0.443   0.457  1.0352  1.7765  0.3659
 4206TIP3    H212625   3.018   0.383   0.586 -0.2000 -0.8799 -0.3210
 4207TIP3   OH212626   4.267   1.247   0.585  0.0661  0.0301 -0.1453
 4207TIP3    H112627   4.346   1.286   0.548 -0.4212  1.2300  0.0500
 4207TIP3    H212628   4.295   1.160   0.615  0.6684 -0.7131 -2.5847
 4208TIP3   OH212629   0.735   1.874   4.300  0.4778 -0.3568 -0.3500
 4208TIP3    H112630   0.813   1.828   4.332 -0.1749 -1.4989 -0.3302
 4208TIP3    H212631   0.661   1.822   4.333 -0.3318  1.1200  0.2768
 4209TIP3   OH212632   2.004   2.114   1.322 -0.5157  0.3152 -0.1950
 4209TIP3    H112633   2.051   2.190   1.356 -1.4993  0.7856  0.1198
 4209TIP3    H212634   2.048   2.095   1.239  0.0120  0.9607 -0.0708
 4210TIP3   OH212635   5.636   4.383   3.089  0.3645  0.1159 -0.0977
 4210TIP3    H112636   5.713   4.331   3.066 -0.1526 -0.6804 -0.0934
 4210TIP3    H212637   5.654   4.415   3.177  0.3970 -0.6623  0.1901
 4211TIP3   OH212638   5.530   2.151   3.486 -0.0513  0.5647 -0.0031
 4211TIP3    H112639   5.470   2.080   3.510  1.0184  0.0941  1.4068
 4211TIP3    H212640   5.568   2.179   3.569  1.1099  1.3717 -0.7827
 4212TIP3   OH212641   1.143   3.834   4.194  0.2595 -0.1967  0.7057
 4212TIP3    H112642   1.056   3.803   4.217  0.0440 -1.1376 -1.1678
 4212TIP3    H212643   1.166   3.785   4.115  1.1336  2.3224 -0.7553
 4213TIP3   OH212644   0.640   4.226   3.952  0.5552 -0.3881  0.3103
 4213TIP3    H112645   0.617   4.225   3.859  2.1287 -2.7377 -0.1454
 4213TIP3    H212646   0.614   4.313   3.982 -0.7709  0.1449 -2.1082
 4214TIP3   OH212647   1.587   0.373   3.410  0.1171  0.9142 -0.2115
 4214TIP3    H112648   1.513   0.432   3.425 -0.4738  0.9401 -2.6780
 4214TIP3    H212649   1.588   0.316   3.486 -2.7558  0.6381 -0.2669
 4215TIP3   OH212650   3.087   4.679   0.190 -0.0219 -0.5208  0.5378
 4215TIP3    H112651   3.097   4.584   0.201 -1.0589 -0.5904  1.0317
 4215TIP3    H212652   3.029   4.705   0.262 -1.0138  0.2276 -0.4925
 4216TIP3   OH212653   2.550   0.929   2.234 -0.4384 -0.2606  0.0695
 4216TIP3    H112654   2.455   0.924   2.234 -0.4517 -1.1449 -2.0693
 4216TIP3    H212655   2.579   0.845   2.199  1.1403 -0.0170  0.6852
 4217TIP3   OH212656   4.638   3.628   5.095 -0.1213 -0.2920 -0.0844
 4217TIP3    H112657   4.646   3.536   5.119 -2.8048 -0.4106  0.6720
 4217TIP3    H212658   4.616   3.627   5.002  1.9816 -0.2481 -0.6282
 4218TIP3   OH212659   1.036   0.965   2.001 -0.2563 -0.4101 -0.3040
 4218TIP3    H112660   1.000   0.905   1.936 -0.5126 -0.3449 -0.2238
 4218TIP3    H212661   1.125   0.934   2.017 -0.2442 -0.5142 -0.5758
 4219TIP3   OH212662   4.128   4.534   2.973  0.2962 -0.1623  0.3301
 4219TIP3    H112663   4.111   4.577   2.889  0.6553 -1.9819 -0.7248
 4219TIP3    H212664   4.193   4.590   3.015 -0.8921  1.5114  0.0348
 4220TIP3   OH212665   2.391   0.786   1.541  0.2295  0.1698 -0.4364
 4220TIP3    H112666   2.322   0.809   1.603  1.2342 -0.4303  0.9237
 4220TIP3    H212667   2.367   0.699   1.510 -0.9794  0.9731 -1.9627
 4221TIP3   OH212668   4.430   3.190   4.654  0.3364  0.1928 -0.2660
 4221TIP3    H112669   4.485   3.185   4.732  1.3730  0.1195 -0.9735
 4221TIP3    H212670   4.451   3.110   4.605 -1.8320 -0.8242  0.3207
 4222TIP3   OH212671   4.544   0.568   3.586  0.3488  0.2851  0.0122
 4222TIP3    H112672   4.549   0.529   3.499 -0.7931 -0.2598  0.1753
 4222TIP3    H212673   4.563   0.496   3.646  0.7610  0.5741  0.2365
 4223TIP3   OH212674   6.052   5.937   1.680  0.4770 -0.1902  0.1478
 4223TIP3    H112675   5.978   5.879   1.695  0.9732 -1.2671 -1.3152
 4223TIP3    H212676   6.112   5.919   1.752  0.2820 -0.9434  0.1315
 4224TIP3   OH212677   0.845   0.225   4.814 -0.2339  0.2014 -0.5687
 4224TIP3    H112678   0.820   0.290   4.748  0.9409  1.6577  0.3522
 4224TIP3    H212679   0.867   0.277   4.891  0.7004 -1.3137  0.2327
 4225TIP3   OH212680   4.883   5.259   5.041 -0.1711  0.2240 -0.2701
 4225TIP3    H112681   4.940   5.326   5.002  1.5884 -0.1497  1.5007
 4225TIP3    H212682   4.936   5.220   5.111 -1.9268 -1.5404  0.1705
 4226TIP3   OH212683   0.396   0.845   4.346 -0.4474  0.0287 -0.2050
 4226TIP3    H112684   0.341   0.768   4.361 -0.9423  0.5665  0.8519
 4226TIP3    H212685   0.345   0.900   4.287  0.8491 -1.4000 -2.8351
 4227TIP3   OH212686   6.162   5.706   1.078 -0.0392 -0.0790  0.6791
 4227TIP3    H112687   6.237   5.678   1.130 -0.3431 -0.1321  1.0905
 4227TIP3    H212688   6.195   5.706   0.988  0.8494  1.1452  0.9699
 4228TIP3   OH212689   5.005   5.388   0.084 -0.0970 -0.3380  0.5097
 4228TIP3    H112690   5.008   5.294   0.069 -0.1371 -0.4312  1.0652
 4228TIP3    H212691   5.034   5.427   0.002  0.1377 -0.8413  0.3545
 4229TIP3   OH212692   3.997   1.883   4.506  0.0508  0.3929  0.0515
 4229TIP3    H112693   4.002   1.836   4.423  2.8180 -1.4595  1.1112
 4229TIP3    H212694   3.940   1.829   4.561  1.3764 -0.5720  0.5339
 4230TIP3   OH212695   0.970   2.617   1.843 -0.0516 -0.3675  0.2704
 4230TIP3    H112696   1.023   2.642   1.919 -0.2319  0.6693  0.0829
 4230TIP3    H212697   1.033   2.608   1.771 -0.0618  0.3825  0.1582
 4231TIP3   OH212698   3.361   5.132   4.893  0.5089 -0.1646 -0.4667
 4231TIP3    H112699   3.394   5.120   4.983  0.5396  0.3156 -0.4133
 4231TIP3    H212700   3.388   5.220   4.869  1.6444 -0.7444 -1.4296
 4232TIP3   OH212701   2.606   3.166   3.835  0.3718  0.2729 -0.0830
 4232TIP3    H112702   2.533   3.113   3.868  0.1809  0.7154  0.2177
 4232TIP3    H212703   2.606   3.244   3.891  0.7953  0.4809 -0.3701
 4233TIP3   OH212704   5.212   4.389   1.559 -0.3277 -0.3988 -0.4076
 4233TIP3    H112705   5.148   4.366   1.492 -0.9748  0.2899 -0.0447
 4233TIP3    H212706   5.176   4.468   1.599 -0.4447 -1.3145  1.3897
 4234TIP3   OH212707   3.994   4.644   2.353  0.3196 -0.1445 -0.2989
 4234TIP3    H112708   4.065   4.618   2.295  1.4554 -1.5612  1.5979
 4234TIP3    H212709   3.938   4.700   2.300  3.3504  1.8924 -1.6174
 4235TIP3   OH212710   6.089   0.485   2.496 -0.0925 -0.6140 -0.0924
 4235TIP3    H112711   6.124   0.484   2.585 -0.3531 -0.1278  0.0201
 4235TIP3    H212712   5.995   0.501   2.507 -0.4166 -2.2072 -0.3739
 4236TIP3   OH212713   3.030   5.823   2.777 -0.2696 -0.1202 -0.1572
 4236TIP3    H112714   3.101   5.862   2.828  1.4267 -1.5380 -1.3197
 4236TIP3    H212715   2.951   5.862   2.814  1.0896  1.7373  1.0146
 4237TIP3   OH212716   1.432   5.594   1.507 -0.3089 -0.5060 -0.5069
 4237TIP3    H112717   1.507   5.545   1.541 -1.0110 -0.0703  1.9020
 4237TIP3    H212718   1.400   5.542   1.434  1.4253 -1.4634 -0.6382
 4238TIP3   OH212719   1.861   1.373   4.646  0.0051  0.2019  0.0327
 4238TIP3    H112720   1.837   1.462   4.620 -1.8014 -0.0399  0.6717
 4238TIP3    H212721   1.956   1.375   4.656  0.0129  2.0212 -0.0929
 4239TIP3   OH212722   0.877   3.899   1.647  0.0124  0.2767  0.2044
 4239TIP3    H112723   0.856   3.991   1.633 -0.1205 -0.0059 -1.6889
 4239TIP3    H212724   0.792   3.855   1.646 -0.2063  0.3133  3.5476
 4240TIP3   OH212725   4.949   2.192   3.232 -0.3491 -0.3102  0.5090
 4240TIP3    H112726   4.966   2.285   3.214 -0.0527 -0.3538  0.5554
 4240TIP3    H212727   5.010   2.146   3.175  2.1387 -0.4480  3.0341
 4241TIP3   OH212728   5.320   0.456   2.112  0.3165  0.0459  0.0031
 4241TIP3    H112729   5.364   0.480   2.194 -0.3337 -1.8838  0.9652
 4241TIP3    H212730   5.273   0.376   2.133 -1.9493  0.8764 -1.5788
 4242TIP3   OH212731   5.950   4.166   2.394 -0.7218 -0.4124 -0.1085
 4242TIP3    H112732   6.036   4.141   2.427 -0.5238 -0.5135 -0.6854
 4242TIP3    H212733   5.961   4.172   2.299 -1.6500 -1.6238 -0.3179
 4243TIP3   OH212734   2.674   2.863   1.547 -0.4416  0.0682 -0.3170
 4243TIP3    H112735   2.601   2.844   1.487  1.8874 -0.5360 -3.2361
 4243TIP3    H212736   2.694   2.779   1.589 -2.0650  0.4853  1.3951
 4244TIP3   OH212737   5.268   5.750   1.539 -0.1820 -0.9497  0.0450
 4244TIP3    H112738   5.351   5.756   1.492  0.2162 -0.5516  0.7715
 4244TIP3    H212739   5.209   5.809   1.491  0.3777 -0.1194  0.3463
 4245TIP3   OH212740   3.999   1.594   1.367 -0.4620 -0.3651  0.2165
 4245TIP3    H112741   3.983   1.596   1.273 -0.1562 -0.4192  0.1608
 4245TIP3    H212742   3.933   1.534   1.402 -2.4115  1.7846  0.4204
 4246TIP3   OH212743   5.119   2.196   2.868 -0.4301 -0.0617  0.0447
 4246TIP3    H112744   5.176   2.120   2.877 -0.7247 -0.4907 -1.4910
 4246TIP3    H212745   5.174   2.263   2.828 -0.5917  0.0151 -0.0537
 4247TIP3   OH212746   4.054   5.152   3.150  0.1505 -0.4722 -0.4291
 4247TIP3    H112747   4.021   5.135   3.062 -1.0714 -1.4090  0.1767
 4247TIP3    H212748   4.091   5.068   3.178  0.8632 -0.0829 -0.1801
 4248TIP3   OH212749   0.401   4.807   4.138  0.3721  0.3143 -0.1869
 4248TIP3    H112750   0.403   4.903   4.130  0.5331  0.3084 -0.2185
 4248TIP3    H212751   0.479   4.786   4.191 -0.4101  0.3169  1.0060
 4249TIP3   OH212752   0.471   1.776   1.365 -0.6114  0.2558 -0.2791
 4249TIP3    H112753   0.511   1.740   1.444 -2.3182 -0.2440  0.4161
 4249TIP3    H212754   0.543   1.785   1.302  0.3971 -1.4008  0.5879
 4250TIP3   OH212755   1.423   4.221   4.222 -0.4369 -0.1505 -1.1574
 4250TIP3    H112756   1.347   4.254   4.270  0.2584 -0.5523  0.2734
 4250TIP3    H212757   1.426   4.127   4.241  1.0521  0.0458 -0.2271
 4251TIP3   OH212758   1.965   1.203   4.939 -0.4672 -0.3797  0.2046
 4251TIP3    H112759   1.980   1.214   4.845 -0.7472 -0.3752  0.1579
 4251TIP3    H212760   1.927   1.287   4.967 -1.0616 -0.6281  0.1738
 4252TIP3   OH212761   0.797   5.504   4.979  0.1179  0.1388 -0.0556
 4252TIP3    H112762   0.785   5.574   5.044  2.0661  1.3493 -0.8836
 4252TIP3    H212763   0.812   5.425   5.031  0.5515  0.8631  0.9559
 4253TIP3   OH212764   3.158   4.924   0.245 -0.5431 -0.6149 -0.0200
 4253TIP3    H112765   3.148   4.998   0.186 -0.7029  0.2163  1.0283
 4253TIP3    H212766   3.139   4.847   0.190  1.9480 -0.1400 -1.7682
 4254TIP3   OH212767   4.971   5.041   0.829 -0.2717 -0.6727  0.2468
 4254TIP3    H112768   5.018   5.095   0.892 -2.5826  0.3614  1.1818
 4254TIP3    H212769   5.030   4.967   0.812  0.8824 -0.4142  2.7472
 4255TIP3   OH212770   1.388   4.351   2.915  0.4596 -0.8324 -0.6323
 4255TIP3    H112771   1.367   4.365   2.823  1.6032 -2.2124 -1.1469
 4255TIP3    H212772   1.387   4.256   2.926  1.0372 -0.7205  0.6041
 4256TIP3   OH212773   2.840   5.006   2.979  0.0740 -0.0055 -0.2581
 4256TIP3    H112774   2.754   4.973   2.950 -0.0404  0.2739 -0.2385
 4256TIP3    H212775   2.903   4.956   2.927 -0.1609  3.1141 -3.9676
 4257TIP3   OH212776   2.275   4.569   1.770  0.1170 -0.6326 -0.2002
 4257TIP3    H112777   2.319   4.549   1.687 -0.7528  0.4505 -0.9632
 4257TIP3    H212778   2.235   4.655   1.755  0.7369  0.0308  1.6834
 4258TIP3   OH212779   4.788   2.357   0.686  0.4376 -0.3848  0.2858
 4258TIP3    H112780   4.810   2.449   0.669  0.7352 -0.6918 -1.0821
 4258TIP3    H212781   4.697   2.360   0.715 -0.6690  0.1379 -2.7914
 4259TIP3   OH212782   2.913   4.703   1.682  0.1651  0.1273  0.1082
 4259TIP3    H112783   2.906   4.639   1.612 -1.7802 -0.3406  0.6598
 4259TIP3    H212784   2.835   4.757   1.673  0.8530  1.2811  0.7665
 4260TIP3   OH212785   4.270   1.039   4.883  0.2139 -0.7113  0.5738
 4260TIP3    H112786   4.232   1.098   4.818 -1.1677  0.3977  2.2949
 4260TIP3    H212787   4.257   0.951   4.846  0.4103 -0.0818 -1.0870
 4261TIP3   OH212788   4.793   0.239   4.374  0.4414 -0.3114 -0.3400
 4261TIP3    H112789   4.805   0.334   4.379 -0.0376 -0.2680  0.0312
 4261TIP3    H212790   4.872   0.203   4.415  0.2665 -0.0578  0.2363
 4262TIP3   OH212791   0.733   0.732   2.665  0.4086  0.6031 -0.0526
 4262TIP3    H112792   0.816   0.778   2.676  0.8607  0.3512 -2.1014
 4262TIP3    H212793   0.751   0.662   2.602 -1.0293 -0.3713  0.5462
 4263TIP3   OH212794   4.946   2.834   4.676 -0.3817  0.1847  0.3433
 4263TIP3    H112795   4.863   2.789   4.691  0.5931 -1.5854  0.7722
 4263TIP3    H212796   4.933   2.922   4.711 -2.1412  0.0278  0.1617
 4264TIP3   OH212797   5.867   1.382   0.036 -0.3175 -0.0219 -1.0859
 4264TIP3    H112798   5.846   1.347   0.122  0.2848  1.4479 -0.3138
 4264TIP3    H212799   5.791   1.359  -0.018 -0.5535 -1.2407 -0.2744
 4265TIP3   OH212800   0.405   2.566   3.411  0.2457  0.6666 -0.4916
 4265TIP3    H112801   0.339   2.514   3.456  1.5018 -0.2638  0.3148
 4265TIP3    H212802   0.445   2.506   3.347 -0.3034  1.4810 -1.6389
 4266TIP3   OH212803   2.718   0.195   1.793 -0.7872  0.3476  0.1616
 4266TIP3    H112804   2.660   0.123   1.766  1.1520 -0.7856 -1.2279
 4266TIP3    H212805   2.773   0.157   1.861  0.3025  0.4677 -0.6350
 4267TIP3   OH212806   3.450   4.395   1.836 -0.1714 -0.5081 -0.1854
 4267TIP3    H112807   3.387   4.443   1.782  2.4972  0.7330 -2.4926
 4267TIP3    H212808   3.436   4.429   1.924 -1.2153  1.4065 -1.0172
 4268TIP3   OH212809   3.741   5.966   3.971  0.1099 -0.0309  0.4917
 4268TIP3    H112810   3.654   6.000   3.952 -0.3802 -0.4378  1.8621
 4268TIP3    H212811   3.734   5.872   3.958 -0.0724 -0.2426  1.9475
 4269TIP3   OH212812   1.521   1.440   4.632  0.6957 -0.0675  0.0761
 4269TIP3    H112813   1.526   1.403   4.544 -0.2212  0.9717 -0.4346
 4269TIP3    H212814   1.611   1.439   4.664  0.9566 -0.9680 -0.6506
 4270TIP3   OH212815   3.843   0.261   0.732 -0.1189 -0.4631 -0.7349
 4270TIP3    H112816   3.802   0.331   0.783  1.3112 -0.3078  0.2778
 4270TIP3    H212817   3.819   0.181   0.778  0.1512 -0.4234 -0.5165
 4271TIP3   OH212818   1.029   5.042   1.972  0.4640  0.0578 -0.2853
 4271TIP3    H112819   0.949   4.996   1.946  1.6342 -2.2454 -0.0641
 4271TIP3    H212820   1.080   5.049   1.892  0.8155 -0.1268 -0.0796
 4272TIP3   OH212821   0.157   3.176   4.943 -0.9508 -0.1999  0.3383
 4272TIP3    H112822   0.235   3.231   4.948 -1.5988  1.0120 -1.8104
 4272TIP3    H212823   0.087   3.229   4.981 -1.3209 -0.0281 -0.5603
 4273TIP3   OH212824   5.155   5.465   3.840  0.5198 -0.0188 -0.0332
 4273TIP3    H112825   5.119   5.440   3.755  0.4288  0.7827 -0.2381
 4273TIP3    H212826   5.186   5.383   3.878 -2.2154 -0.9049  0.5003
 4274TIP3   OH212827   0.726   4.577   3.735 -0.0177  0.3912 -0.3479
 4274TIP3    H112828   0.664   4.614   3.798 -0.3165 -1.5553  0.5902
 4274TIP3    H212829   0.764   4.653   3.691 -1.1759  1.7399  0.8653
 4275TIP3   OH212830   4.497   4.201   2.919 -0.4854  0.0240  0.4804
 4275TIP3    H112831   4.436   4.169   2.985 -0.6073 -1.0464 -0.1347
 4275TIP3    H212832   4.557   4.128   2.905 -0.7088  0.0826 -0.8879
 4276TIP3   OH212833   5.486   3.864   4.976 -0.3638 -0.1380  0.4170
 4276TIP3    H112834   5.460   3.927   5.042  0.3135 -1.5967  2.1588
 4276TIP3    H212835   5.571   3.895   4.944 -1.1901  1.1643 -0.6363
 4277TIP3   OH212836   0.755   3.905   2.806  0.1322 -0.3955  0.3767
 4277TIP3    H112837   0.682   3.942   2.757  1.4013  0.3963 -0.9893
 4277TIP3    H212838   0.760   3.814   2.776  1.6121  0.3892 -1.9059
 4278TIP3   OH212839   0.916   4.971   1.634 -0.1019 -0.4451 -0.0439
 4278TIP3    H112840   0.895   4.883   1.667 -2.3263 -0.4777 -1.3490
 4278TIP3    H212841   0.882   4.971   1.545  0.4270  1.5645 -0.2788
 4279TIP3   OH212842   3.478   1.459   3.534 -0.8507 -0.1046 -0.3448
 4279TIP3    H112843   3.459   1.366   3.521 -0.2918 -0.1812 -0.6609
 4279TIP3    H212844   3.456   1.476   3.625 -0.4034 -0.6890 -0.1219
 4280TIP3   OH212845   5.072   0.258   3.835 -0.2959  0.5010 -0.2260
 4280TIP3    H112846   4.995   0.202   3.848 -1.4042  1.9937 -0.0735
 4280TIP3    H212847   5.078   0.309   3.916  0.5408  0.7812 -0.4590
 4281TIP3   OH212848   2.457   4.173   1.640 -0.4174 -0.6208 -0.3455
 4281TIP3    H112849   2.512   4.244   1.605  2.3613 -1.2964  2.2424
 4281TIP3    H212850   2.461   4.185   1.735 -1.1575 -3.3424  0.0971
 4282TIP3   OH212851   2.817   2.696   3.879 -0.0552  0.4603 -0.3271
 4282TIP3    H112852   2.910   2.701   3.902  0.2774 -0.0213 -1.4700
 4282TIP3    H212853   2.790   2.609   3.908 -0.0245  0.4252 -0.4021
 4283TIP3   OH212854   1.669   5.587   2.336  0.0124  1.0132 -0.5718
 4283TIP3    H112855   1.671   5.590   2.241  1.9594  1.8611 -0.5438
 4283TIP3    H212856   1.613   5.512   2.357 -0.3358  0.7376 -2.3687
 4284TIP3   OH212857   4.820   3.174   1.491 -0.0731  0.7798  0.2992
 4284TIP3    H112858   4.754   3.217   1.545  0.2096  0.9669  0.5036
 4284TIP3    H212859   4.883   3.244   1.471 -0.7004  0.9649 -1.1234
 4285TIP3   OH212860   2.185   2.420   1.895  0.1851  0.1369 -0.2568
 4285TIP3    H112861   2.111   2.446   1.949 -1.5772 -0.7864 -2.1117
 4285TIP3    H212862   2.192   2.489   1.828  0.9109  0.1334 -0.1948
 4286TIP3   OH212863   0.434   3.931   3.977  0.0636  0.5214  0.4716
 4286TIP3    H112864   0.359   3.873   3.990 -0.8485  1.6265  0.2070
 4286TIP3    H212865   0.454   3.963   4.065 -0.1688  0.7092  0.4568
 4287TIP3   OH212866   2.429   3.636   0.644 -0.2213 -0.0778  0.2110
 4287TIP3    H112867   2.511   3.684   0.627 -0.9147  1.5848  1.3020
 4287TIP3    H212868   2.435   3.609   0.735 -1.5212  1.4769  0.8065
 4288TIP3   OH212869   3.496   4.519   2.728 -0.1376  0.2081  0.2172
 4288TIP3    H112870   3.487   4.580   2.655 -0.5668  0.2923  0.3353
 4288TIP3    H212871   3.587   4.529   2.757  0.3787 -0.6370 -1.0098
 4289TIP3   OH212872   0.001   0.749   2.430 -0.7236  0.3977 -0.1060
 4289TIP3    H112873   0.020   0.798   2.510  0.4430  1.5604 -1.0545
 4289TIP3    H212874   0.086   0.715   2.402 -0.7473  1.7077 -1.9165
 4290TIP3   OH212875   5.938   2.606   2.062  0.2393 -0.0617  0.0148
 4290TIP3    H112876   6.017   2.564   2.097 -0.2765 -0.8191  0.2818
 4290TIP3    H212877   5.938   2.582   1.969  0.7825  0.6717 -0.1878
 4291TIP3   OH212878   2.416   3.157   2.750 -0.2227 -0.2348 -0.8199
 4291TIP3    H112879   2.410   3.089   2.683 -0.3962 -1.3567  0.2982
 4291TIP3    H212880   2.506   3.190   2.743  0.8700 -2.7244  0.6103
 4292TIP3   OH212881   2.935   5.112   3.218  0.0822 -0.2206  0.5177
 4292TIP3    H112882   3.025   5.093   3.195 -0.0453  1.7076 -1.9547
 4292TIP3    H212883   2.884   5.085   3.142 -1.8855 -3.6260  2.7793
 4293TIP3   OH212884   0.032   1.102   1.621  0.3883  0.7298  0.2729
 4293TIP3    H112885   0.011   1.185   1.578 -2.9143  0.0367  0.2320
 4293TIP3    H212886   0.015   1.036   1.554 -0.8317 -0.1338  1.3832
 4294TIP3   OH212887   3.087   4.981   3.796 -0.5515 -0.8320  0.2521
 4294TIP3    H112888   3.101   4.904   3.852 -1.1875  0.7735  2.7712
 4294TIP3    H212889   3.005   4.962   3.750  0.4499 -2.5788 -0.9373
 4295TIP3   OH212890   4.793   3.067   3.910  0.4185  0.2981  0.2582
 4295TIP3    H112891   4.809   3.046   4.001  2.5585 -1.0882 -0.3741
 4295TIP3    H212892   4.745   2.992   3.875 -2.5578  1.8295  0.6905
 4296TIP3   OH212893   6.059   0.677   3.988  0.1839  0.4502  0.4836
 4296TIP3    H112894   6.076   0.587   4.017  0.0983  0.0619 -0.6287
 4296TIP3    H212895   5.971   0.674   3.951  1.6397 -0.0570 -3.3897
 4297TIP3   OH212896   5.612   5.740   2.827 -0.3436 -0.3667 -0.5519
 4297TIP3    H112897   5.578   5.770   2.742 -2.2350 -2.4375 -0.6325
 4297TIP3    H212898   5.536   5.701   2.870  1.3983 -2.9899  0.3978
 4298TIP3   OH212899   3.831   0.628   4.054  0.0933  0.2762  0.0310
 4298TIP3    H112900   3.816   0.646   3.962 -1.1188 -0.9301 -0.0435
 4298TIP3    H212901   3.926   0.626   4.063  0.2474  1.7620 -0.8816
 4299TIP3   OH212902   2.411   4.326   2.735 -0.9239 -0.0965 -1.0574
 4299TIP3    H112903   2.415   4.391   2.665 -0.6289  1.0552 -0.0130
 4299TIP3    H212904   2.378   4.375   2.811 -0.1202 -1.0261 -0.0782
 4300TIP3   OH212905   3.513   5.746   5.182  0.2115 -0.3604 -0.6790
 4300TIP3    H112906   3.567   5.789   5.116  1.3891 -0.2034  0.3354
 4300TIP3    H212907   3.428   5.789   5.177  1.1911  1.7760 -0.0538
 4301TIP3   OH212908   1.956   4.318   1.407  0.2708 -0.3194  0.3831
 4301TIP3    H112909   2.027   4.268   1.448  0.0480 -0.1250  1.0105
 4301TIP3    H212910   1.899   4.252   1.369  0.6148 -0.4908  0.1566
 4302TIP3   OH212911   5.271   5.048   1.276  0.2891  0.6051 -0.3910
 4302TIP3    H112912   5.209   5.121   1.285  1.0653  1.3196 -0.6649
 4302TIP3    H212913   5.221   4.980   1.231 -0.4465  0.9762 -0.1585
 4303TIP3   OH212914   4.892   3.408   2.079 -0.2351  0.0649 -0.4975
 4303TIP3    H112915   4.883   3.455   2.163 -1.7112  0.9602 -1.0997
 4303TIP3    H212916   4.944   3.467   2.025 -0.0392 -0.1021 -0.4890
 4304TIP3   OH212917   2.423   2.617   3.963 -0.1954 -0.2532  0.0829
 4304TIP3    H112918   2.506   2.665   3.968 -0.5547  0.4796 -0.6254
 4304TIP3    H212919   2.447   2.526   3.981  0.5886  0.0992  0.9221
 4305TIP3   OH212920   5.322   3.785   3.267 -1.0590 -0.4126 -0.0512
 4305TIP3    H112921   5.403   3.816   3.309  0.2752 -1.0433 -2.0163
 4305TIP3    H212922   5.300   3.704   3.313 -0.3116 -0.4743  0.2118
 4306TIP3   OH212923   6.229   0.939   4.107  0.6057  0.6737 -0.0189
 4306TIP3    H112924   6.265   0.852   4.088  2.1372  1.2599  0.0369
 4306TIP3    H212925   6.195   0.931   4.196 -0.4122 -0.1927 -0.4584
 4307TIP3   OH212926   6.196   1.970   0.581 -0.2413 -0.2471  0.0972
 4307TIP3    H112927   6.156   1.973   0.669 -1.9393  0.2679 -0.6417
 4307TIP3    H212928   6.273   1.915   0.592 -2.1890 -3.0126  1.2614
 4308TIP3   OH212929   6.085   3.933   0.558 -0.5705  0.4109  0.0450
 4308TIP3    H112930   6.078   3.837   0.553 -0.7903  0.4247  0.0971
 4308TIP3    H212931   6.174   3.948   0.589 -0.2440  0.2434 -0.7610
 4309TIP3   OH212932   4.883   1.959   1.451  0.6467 -0.2731 -0.2958
 4309TIP3    H112933   4.900   1.980   1.359 -2.0667 -1.0279 -1.0720
 4309TIP3    H212934   4.818   2.024   1.478  0.7215 -0.6449  0.8021
 4310TIP3   OH212935   3.144   3.918   0.958  0.1451 -0.1194  0.4595
 4310TIP3    H112936   3.091   3.853   0.912  0.6876 -0.0642 -0.2616
 4310TIP3    H212937   3.162   3.879   1.044 -1.5649  0.1209  0.9598
 4311TIP3   OH212938   5.540   5.067   3.791  0.0337 -0.7552  0.1576
 4311TIP3    H112939   5.553   4.985   3.743 -1.3542 -1.2713  0.6315
 4311TIP3    H212940   5.497   5.125   3.729  1.9566  0.0272 -0.5277
 4312TIP3   OH212941   1.441   2.450   1.918  0.4058 -0.4529 -0.2161
 4312TIP3    H112942   1.414   2.501   1.841  4.5943  3.2172  0.3050
 4312TIP3    H212943   1.384   2.481   1.988 -0.0150  0.2229 -0.8385
 4313TIP3   OH212944   6.320   2.760   2.199 -0.3891  0.2638 -0.1488
 4313TIP3    H112945   6.271   2.792   2.123 -2.5460 -0.0233  1.0401
 4313TIP3    H212946   6.313   2.665   2.194 -1.0395  0.2593  0.6988
 4314TIP3   OH212947   0.061   4.044   3.331 -0.3657 -0.2974  0.2224
 4314TIP3    H112948  -0.022   4.011   3.296 -0.2417  0.4539 -0.8156
 4314TIP3    H212949   0.109   3.965   3.356 -0.4205 -0.9049 -1.4204
 4315TIP3   OH212950   2.163   0.964   3.684 -0.2915 -0.1615  0.4020
 4315TIP3    H112951   2.089   1.024   3.690 -0.4681 -0.3869  0.5365
 4315TIP3    H212952   2.128   0.880   3.716 -0.5998 -0.8439 -1.5650
 4316TIP3   OH212953   4.927   1.688   1.539  0.7985  0.3033  0.2819
 4316TIP3    H112954   4.902   1.674   1.630  0.4153  0.0176  0.1343
 4316TIP3    H212955   4.898   1.778   1.520  0.3671  0.1664  0.2749
 4317TIP3   OH212956   5.021   1.913   2.126 -0.3627 -0.4325 -0.0832
 4317TIP3    H112957   5.009   1.963   2.046 -0.5616 -0.2853  0.0378
 4317TIP3    H212958   4.948   1.940   2.182 -1.4747 -2.1209 -0.6568
 4318TIP3   OH212959   6.023   2.846   1.730  0.2326  0.0648 -0.1741
 4318TIP3    H112960   6.055   2.771   1.781  1.8312  1.1606  0.4982
 4318TIP3    H212961   6.084   2.852   1.657  0.7410  1.2888  0.3229
 4319TIP3   OH212962   6.077   5.055   0.565  0.1138  0.4150 -0.3098
 4319TIP3    H112963   6.169   5.032   0.561 -0.2911 -1.5560  0.3443
 4319TIP3    H212964   6.041   5.024   0.482 -0.2885 -0.6518  0.2383
 4320TIP3   OH212965   4.981   1.766   2.635 -0.0973  0.3998  0.0449
 4320TIP3    H112966   5.055   1.764   2.696 -0.6831  1.5094  0.8404
 4320TIP3    H212967   5.000   1.839   2.576 -0.6805  0.9104  0.4627
 4321TIP3   OH212968   4.102   2.335   0.759  0.5875 -0.5074 -0.1817
 4321TIP3    H112969   4.125   2.290   0.678  0.5127 -1.2071  0.1763
 4321TIP3    H212970   4.006   2.332   0.762  0.4182  1.8214 -1.3438
 4322TIP3   OH212971   4.329   5.384   3.387  0.0890 -0.1952 -0.0179
 4322TIP3    H112972   4.390   5.325   3.341  0.2388 -0.1010  0.0581
 4322TIP3    H212973   4.325   5.462   3.332  0.9858  0.2941  0.5841
 4323TIP3   OH212974   0.028   4.123   4.106  0.0324 -0.1760 -0.5453
 4323TIP3    H112975   0.057   4.088   4.190 -1.4148  0.8370  0.4155
 4323TIP3    H212976  -0.067   4.122   4.111 -0.0645  0.6199 -1.8766
 4324TIP3   OH212977   3.216   3.336   0.486 -0.5467 -0.3839 -0.3481
 4324TIP3    H112978   3.217   3.367   0.577  0.8962  0.3871 -0.6035
 4324TIP3    H212979   3.145   3.386   0.445  0.5200  1.2438 -0.2839
 4325TIP3   OH212980   1.165   0.635   1.363  0.4842 -0.3903  0.3199
 4325TIP3    H112981   1.182   0.726   1.338  0.5783 -0.4544  0.1483
 4325TIP3    H212982   1.250   0.604   1.395  1.3169 -1.3947 -2.6293
 4326TIP3   OH212983   5.862   2.526   3.969 -0.1465 -0.1225 -0.0252
 4326TIP3    H112984   5.800   2.507   3.899 -0.9466 -0.8779  0.8530
 4326TIP3    H212985   5.811   2.516   4.049  1.0780 -0.6413  0.7203
 4327TIP3   OH212986   4.346   4.974   3.759  0.6744 -0.3943  0.2378
 4327TIP3    H112987   4.268   4.976   3.814  1.3966 -1.0856  1.3444
 4327TIP3    H212988   4.394   5.053   3.784 -0.8499  1.4738 -2.3415
 4328TIP3   OH212989   4.333   5.282   4.412  0.3932  0.3237  0.0342
 4328TIP3    H112990   4.333   5.225   4.489  0.5463 -0.0986 -0.2763
 4328TIP3    H212991   4.242   5.283   4.382 -0.0419  1.9842  1.3126
 4329TIP3   OH212992   2.513   4.298   1.231 -0.3243  0.1979  0.1603
 4329TIP3    H112993   2.483   4.383   1.199  0.2447  0.4449  0.2635
 4329TIP3    H212994   2.498   4.238   1.159  0.3204  0.6132 -0.3367
 4330TIP3   OH212995   4.179   5.651   3.778  0.1312 -0.0777 -0.6193
 4330TIP3    H112996   4.146   5.564   3.755 -0.0995  0.7532 -4.0144
 4330TIP3    H212997   4.272   5.637   3.798 -0.2894 -1.3013  0.5902
 4331TIP3   OH212998   2.359   2.424   0.562  0.0718 -0.9570  0.2261
 4331TIP3    H112999   2.410   2.413   0.642 -1.4653  0.3627  1.4497
 4331TIP3    H213000   2.360   2.518   0.545 -1.3356 -0.9824 -0.1120
 4332TIP3   OH213001   1.442   4.031   1.817  0.7044 -0.0308  0.1877
 4332TIP3    H113002   1.402   4.029   1.730 -0.9369 -0.8898  0.9076
 4332TIP3    H213003   1.455   3.938   1.840 -1.9035 -0.0600  2.0841
 4333TIP3   OH213004   3.072   4.122   3.224  0.5066 -0.6088  0.2336
 4333TIP3    H113005   3.036   4.040   3.189 -2.1054  0.5838 -0.1343
 4333TIP3    H213006   3.125   4.157   3.153 -2.1567  0.2261 -1.4991
 4334TIP3   OH213007   6.193   3.436   1.355 -0.3998  0.1490 -0.2496
 4334TIP3    H113008   6.106   3.475   1.363  0.2829  1.7042  0.0112
 4334TIP3    H213009   6.248   3.486   1.416  1.1045  0.5701 -1.8531
 4335TIP3   OH213010   4.981   4.725   0.431 -0.3245  0.5770 -0.1403
 4335TIP3    H113011   5.038   4.787   0.386 -0.8517  0.1438 -1.4808
 4335TIP3    H213012   5.036   4.684   0.498  0.7727  0.5803 -1.0183
 4336TIP3   OH213013   4.335   0.256   2.547  0.0247  0.4176 -0.6087
 4336TIP3    H113014   4.393   0.243   2.471 -0.0135  0.1058 -0.5886
 4336TIP3    H213015   4.273   0.182   2.542  0.5183 -0.0642  0.1745
 4337TIP3   OH213016   2.807   4.635   4.300  0.1942  0.3542  0.2834
 4337TIP3    H113017   2.807   4.615   4.206 -2.2617 -1.3239  0.5525
 4337TIP3    H213018   2.716   4.622   4.327  0.7626  1.1956  2.8491
 4338TIP3   OH213019   4.159   6.014   4.544 -0.2877  0.0298  0.1101
 4338TIP3    H113020   4.065   6.001   4.540 -0.1140 -1.7204  0.7398
 4338TIP3    H213021   4.196   5.926   4.533  1.3213  0.8056 -1.2547
 4339TIP3   OH213022   2.355   5.593   1.376  0.5936  0.1383  0.4607
 4339TIP3    H113023   2.360   5.687   1.391  1.9650 -0.1688  2.1975
 4339TIP3    H213024   2.392   5.581   1.288  2.0614  1.0661  0.9216
 4340TIP3   OH213025   1.342   0.164   2.454  0.0271  0.3414 -0.5835
 4340TIP3    H113026   1.374   0.095   2.512 -0.0843  0.4813 -0.3558
 4340TIP3    H213027   1.379   0.141   2.368  1.3367  0.8904 -0.1981
 4341TIP3   OH213028   6.219   5.761   0.579  0.1760 -0.6531  0.0892
 4341TIP3    H113029   6.160   5.720   0.516  2.5982 -1.1650 -1.9891
 4341TIP3    H213030   6.222   5.853   0.553  0.3879 -0.6564  0.0964
 4342TIP3   OH213031   0.198   3.424   0.504  0.5560  0.4314  0.9560
 4342TIP3    H113032   0.294   3.431   0.508  0.6850  3.0059 -2.3587
 4342TIP3    H213033   0.173   3.481   0.431 -3.5699 -0.0020  1.8070
 4343TIP3   OH213034   2.363   0.035   0.573  0.5684  0.7684 -0.4428
 4343TIP3    H113035   2.284   0.024   0.521  0.6426  0.6679 -0.5333
 4343TIP3    H213036   2.420  -0.036   0.545  0.1099 -0.0801  0.6832
 4344TIP3   OH213037   1.347   3.115   2.666  0.6207 -0.4204 -0.2206
 4344TIP3    H113038   1.301   3.171   2.604 -0.7768 -1.6096 -0.3116
 4344TIP3    H213039   1.413   3.070   2.613 -0.0996 -0.9082 -0.7146
 4345TIP3   OH213040   2.961   5.177   2.718  0.7501  0.4632  0.1067
 4345TIP3    H113041   2.921   5.154   2.802  1.4992  1.0857  0.6478
 4345TIP3    H213042   2.897   5.148   2.653 -0.3496  0.9816  0.9220
 4346TIP3   OH213043   5.861   4.036   0.702  0.4643  0.0103 -0.3248
 4346TIP3    H113044   5.913   4.000   0.630 -0.2278 -0.0981 -0.7710
 4346TIP3    H213045   5.922   4.094   0.748  1.0005 -0.1570 -0.8083
 4347TIP3   OH213046   2.838   3.466   4.509  0.4983 -0.3023 -0.2655
 4347TIP3    H113047   2.813   3.437   4.597  0.3950 -1.8573 -0.7839
 4347TIP3    H213048   2.933   3.455   4.507  1.0358  2.9209  0.7322
 4348TIP3   OH213049   1.814   2.557   4.709  0.1541 -0.2170 -0.1057
 4348TIP3    H113050   1.898   2.517   4.686  0.4746  0.1350  0.4403
 4348TIP3    H213051   1.812   2.639   4.659 -0.0430 -0.4095 -0.4202
 4349TIP3   OH213052   3.733   3.993   3.075  0.3944  0.3677  0.1695
 4349TIP3    H113053   3.802   3.935   3.107  0.6927  1.6285  1.9995
 4349TIP3    H213054   3.722   4.057   3.145 -0.1667  2.3123 -1.6030
 4350TIP3   OH213055   2.894   2.140   2.486 -0.2271  0.1140  0.1887
 4350TIP3    H113056   2.939   2.220   2.461 -1.0468  0.3427 -0.6217
 4350TIP3    H213057   2.823   2.169   2.544  0.5117 -0.2206  1.2956
 4351TIP3   OH213058   3.376   0.575   2.237  0.5673  0.2767 -0.0455
 4351TIP3    H113059   3.289   0.535   2.238  0.8434 -0.3349  1.3767
 4351TIP3    H213060   3.359   0.669   2.248  0.1034  0.0916  0.9112
 4352TIP3   OH213061   2.034   5.841   1.584 -0.1160  0.4265 -0.0349
 4352TIP3    H113062   2.077   5.756   1.592  1.1303  1.1035  0.7574
 4352TIP3    H213063   1.942   5.820   1.568 -0.0344 -1.0850  1.2174
 4353TIP3   OH213064   4.116   1.457   0.870 -0.0668 -0.5496  0.1028
 4353TIP3    H113065   4.130   1.547   0.901  1.4304 -0.5058 -0.6146
 4353TIP3    H213066   4.096   1.466   0.777 -1.8436 -0.8594  0.4242
 4354TIP3   OH213067   4.366   1.107   2.693 -0.8523  0.4935 -0.0412
 4354TIP3    H113068   4.425   1.179   2.715  0.0093  0.5585 -2.3225
 4354TIP3    H213069   4.377   1.044   2.764 -0.9257  2.1603  1.5218
 4355TIP3   OH213070   0.119   5.413   0.106  0.1641  0.2733 -0.1274
 4355TIP3    H113071   0.089   5.479   0.044  0.1886 -0.0510 -0.4896
 4355TIP3    H213072   0.047   5.405   0.169  0.3684  0.9936  0.1981
 4356TIP3   OH213073   1.697   4.270   4.489 -0.2714 -0.1432  0.6563
 4356TIP3    H113074   1.789   4.295   4.497  0.3157 -2.0551  0.3017
 4356TIP3    H213075   1.652   4.351   4.465  0.9640  1.3127  2.9746
 4357TIP3   OH213076   1.745   1.319   3.574 -0.2122 -0.0586 -0.0345
 4357TIP3    H113077   1.794   1.240   3.597 -0.6116 -0.4577 -0.5181
 4357TIP3    H213078   1.781   1.387   3.630  0.0511 -0.6146  0.4814
 4358TIP3   OH213079   4.133   0.925   3.958  0.0976  0.4956 -0.5177
 4358TIP3    H113080   4.060   0.987   3.961  0.0251  0.3793  0.4123
 4358TIP3    H213081   4.210   0.979   3.945 -0.1173  0.6490 -1.1731
 4359TIP3   OH213082   0.472   1.481   1.025  0.0180  0.2151 -0.1348
 4359TIP3    H113083   0.451   1.569   0.995 -0.0809  0.3373  0.2916
 4359TIP3    H213084   0.444   1.424   0.953  0.7134  0.5761 -0.7044
 4360TIP3   OH213085   1.811   0.403   2.839  0.5524  0.1055  0.5580
 4360TIP3    H113086   1.788   0.324   2.790  0.8863 -1.1428  2.3339
 4360TIP3    H213087   1.869   0.373   2.909  1.7067  2.1135  0.5611
 4361TIP3   OH213088   3.326   4.639   0.029 -0.2452 -0.1169  0.0464
 4361TIP3    H113089   3.251   4.643   0.088  0.8212  0.1427  1.4356
 4361TIP3    H213090   3.288   4.625  -0.057 -1.8512 -0.5348  0.7899
 4362TIP3   OH213091   5.095   5.810   3.168 -0.0047 -0.1296 -0.3262
 4362TIP3    H113092   5.091   5.853   3.083  0.3749  1.8640  0.6240
 4362TIP3    H213093   5.028   5.854   3.220  1.4708  0.4440  1.1588
 4363TIP3   OH213094   0.522   3.050   4.037 -0.3980 -0.0737 -0.1940
 4363TIP3    H113095   0.511   3.032   3.944  0.9092 -0.5389 -0.2791
 4363TIP3    H213096   0.433   3.055   4.071 -0.9300 -2.8918 -0.9274
 4364TIP3   OH213097   1.818   3.884   2.672 -0.3150  0.2656 -0.5205
 4364TIP3    H113098   1.896   3.911   2.719 -0.8713 -2.7298  2.5460
 4364TIP3    H213099   1.848   3.814   2.614 -0.6015 -0.6183  0.3725
 4365TIP3   OH213100   0.127   1.417   1.788 -0.0664 -0.2528  0.0117
 4365TIP3    H113101   0.068   1.401   1.714  0.2983 -1.2992 -0.0749
 4365TIP3    H213102   0.081   1.481   1.842 -0.1137  0.9232 -1.3667
 4366TIP3   OH213103   4.549   1.751   4.113  0.4690 -0.3321  0.9109
 4366TIP3    H113104   4.619   1.817   4.111 -0.6649  0.9190  1.3903
 4366TIP3    H213105   4.545   1.723   4.204 -0.1148  0.1323  1.0362
 4367TIP3   OH213106   2.560   2.788   2.569 -0.0012  0.0251  0.0509
 4367TIP3    H113107   2.522   2.756   2.650  1.6812 -1.1185  0.4402
 4367TIP3    H213108   2.576   2.709   2.517 -2.7147  0.8219 -2.2399
 4368TIP3   OH213109   3.674   5.093   3.849 -0.1525 -0.8852  0.0215
 4368TIP3    H113110   3.631   5.163   3.799  0.6250 -0.7465 -0.4713
 4368TIP3    H213111   3.611   5.069   3.916 -1.0836 -0.8308 -0.8110
 4369TIP3   OH213112   3.361   5.638   2.066  0.3894  0.2420 -0.4094
 4369TIP3    H113113   3.299   5.577   2.026 -0.3180  0.2735  0.6115
 4369TIP3    H213114   3.389   5.595   2.147 -1.3270  1.8792  1.1656
 4370TIP3   OH213115   1.604   0.196   0.089 -0.1008  0.5474 -0.0816
 4370TIP3    H113116   1.683   0.235   0.051  0.3699 -0.1599  0.1560
 4370TIP3    H213117   1.582   0.252   0.163  0.6989  0.2405  0.3924
 4371TIP3   OH213118   4.983   1.781   3.360 -0.1940  0.4729  0.1360
 4371TIP3    H113119   4.969   1.851   3.424 -1.1643  3.1228 -2.7641
 4371TIP3    H213120   4.896   1.762   3.326  0.2241 -1.3489 -0.0176
 4372TIP3   OH213121   2.024   2.969   3.707 -0.5720 -0.0139 -0.0608
 4372TIP3    H113122   2.084   2.941   3.638 -1.1523 -2.5741  0.3538
 4372TIP3    H213123   2.080   2.985   3.783 -0.2977 -1.8807  0.1757
 4373TIP3   OH213124   2.192   5.360   3.279 -0.1700 -0.6023 -0.3603
 4373TIP3    H113125   2.259   5.329   3.218  0.4774  0.6460 -0.3080
 4373TIP3    H213126   2.143   5.425   3.229  1.5035  1.8028  0.9127
 4374TIP3   OH213127   2.691   2.506   1.069  0.9144  0.0017 -0.1387
 4374TIP3    H113128   2.673   2.556   0.990  2.8018  0.5260 -0.2882
 4374TIP3    H213129   2.641   2.551   1.138 -0.3591 -0.1741 -0.9244
 4375TIP3   OH213130   3.767   4.828   3.904 -0.0191  0.0571 -0.4185
 4375TIP3    H113131   3.686   4.783   3.925  0.5476 -0.4977  0.6832
 4375TIP3    H213132   3.740   4.915   3.874 -1.1202 -0.8420 -2.2204
 4376TIP3   OH213133   3.197   0.874   3.341 -0.3181 -0.0495  0.3128
 4376TIP3    H113134   3.159   0.923   3.267 -2.5017 -1.7400  0.2139
 4376TIP3    H213135   3.180   0.929   3.417 -0.3885  0.5254 -0.1071
 4377TIP3   OH213136   3.778   2.088   0.996  0.1787 -0.1171  0.1501
 4377TIP3    H113137   3.707   2.138   1.037 -2.2468 -2.1872 -1.2313
 4377TIP3    H213138   3.790   2.129   0.910 -2.8933 -2.5226 -1.6357
 4378TIP3   OH213139   4.914   3.476   1.091  0.6982 -0.0465 -0.5863
 4378TIP3    H113140   4.942   3.464   1.000 -1.7381 -1.8899 -1.1809
 4378TIP3    H213141   4.819   3.485   1.086  0.5106 -0.2458  1.7983
 4379TIP3   OH213142   4.201   3.861   2.860  0.3003 -0.2106  0.0464
 4379TIP3    H113143   4.197   3.803   2.937  1.1066  0.5295  0.6639
 4379TIP3    H213144   4.275   3.828   2.809  0.5619  0.0891  0.2357
 4380TIP3   OH213145   1.813   4.626   3.757  0.2523 -0.8391  0.1372
 4380TIP3    H113146   1.719   4.634   3.744  0.6660  1.0648 -2.5720
 4380TIP3    H213147   1.845   4.586   3.676  2.0933  2.0121 -0.6865
 4381TIP3   OH213148   3.754   1.447   3.096 -0.5844 -0.3116 -0.3804
 4381TIP3    H113149   3.759   1.485   3.184 -1.1389 -0.8730 -0.1086
 4381TIP3    H213150   3.792   1.360   3.105  0.8280  0.1880 -1.0407
 4382TIP3   OH213151   2.865   2.442   3.179  0.4959 -0.5704  0.3872
 4382TIP3    H113152   2.960   2.438   3.162  0.6476  2.4307 -0.0412
 4382TIP3    H213153   2.858   2.450   3.274  0.9075  1.8092  0.2683
 4383TIP3   OH213154   6.051   2.323   4.257  0.1237  0.0568 -0.5313
 4383TIP3    H113155   6.119   2.257   4.274  0.3388  0.1008 -1.1835
 4383TIP3    H213156   6.037   2.366   4.342 -0.6357 -1.3910  0.1133
 4384TIP3   OH213157   1.873   1.796   3.852  0.2295 -0.3564  0.0151
 4384TIP3    H113158   1.837   1.883   3.869  0.4853 -0.5480  1.7954
 4384TIP3    H213159   1.958   1.796   3.896 -0.7058 -2.1690  2.0811
 4385TIP3   OH213160   5.576   2.122   1.352 -0.6444  0.0922 -0.5240
 4385TIP3    H113161   5.593   2.203   1.304  0.5085  1.1764  1.5753
 4385TIP3    H213162   5.501   2.143   1.409 -0.0461 -0.1427  0.3698
 4386TIP3   OH213163   4.626   1.666   1.354  0.6050  0.6937  0.3569
 4386TIP3    H113164   4.644   1.628   1.440  1.9309 -1.1236 -0.6508
 4386TIP3    H213165   4.561   1.734   1.371 -2.2728 -2.2193  2.3161
 4387TIP3   OH213166   5.597   4.987   0.456 -0.3868  0.1684 -0.4079
 4387TIP3    H113167   5.687   4.998   0.488 -0.0827 -1.6911 -0.5554
 4387TIP3    H213168   5.607   4.954   0.367 -1.2435  0.5596 -0.6601
 4388TIP3   OH213169   2.481   1.835   0.801 -0.4308 -0.2543 -0.0531
 4388TIP3    H113170   2.457   1.744   0.784  4.1192 -1.8062  0.4875
 4388TIP3    H213171   2.467   1.880   0.718 -0.6455 -2.0067 -1.0029
 4389TIP3   OH213172   5.373   0.837   1.908 -0.3452 -0.5268 -0.0248
 4389TIP3    H113173   5.330   0.753   1.889  1.6535 -1.9999  1.4318
 4389TIP3    H213174   5.313   0.882   1.967 -1.5292 -0.8403 -0.9490
 4390TIP3   OH213175   2.416   3.297   0.726 -0.5186  0.3903  0.0185
 4390TIP3    H113176   2.428   3.202   0.718 -0.5432  0.4626 -1.0632
 4390TIP3    H213177   2.374   3.323   0.644 -1.8919  1.1389  0.9295
 4391TIP3   OH213178   3.759   0.669   0.742  0.0606  0.9510  0.7837
 4391TIP3    H113179   3.851   0.682   0.722 -0.1427 -1.1380 -2.0698
 4391TIP3    H213180   3.755   0.583   0.783 -0.8965 -1.0042 -3.0124
 4392TIP3   OH213181   1.970   5.538   1.741 -0.0677 -0.3734 -0.4817
 4392TIP3    H113182   2.045   5.572   1.789 -0.1721 -0.9085  0.0686
 4392TIP3    H213183   2.001   5.526   1.651  0.3426 -0.0730 -0.3789
 4393TIP3   OH213184   1.029   2.826   2.309  0.6382  0.5033  0.8005
 4393TIP3    H113185   1.106   2.848   2.363  2.9400 -2.0827 -1.1372
 4393TIP3    H213186   1.021   2.731   2.317 -0.3534  0.3325 -1.5386
 4394TIP3   OH213187   4.042   2.571   4.669 -0.4681 -0.4977 -0.1142
 4394TIP3    H113188   4.135   2.590   4.656 -0.8350  0.8873 -0.9710
 4394TIP3    H213189   4.033   2.561   4.764  0.6088 -1.0752 -0.0493
 4395TIP3   OH213190   3.970   1.581   2.173  0.3159 -0.3295  0.0865
 4395TIP3    H113191   4.009   1.565   2.259 -0.4140  1.4086  0.7838
 4395TIP3    H213192   3.878   1.599   2.191  0.1360  0.0060 -1.0616
 4396TIP3   OH213193   2.655   3.727   4.956  0.3093  0.0737  0.0092
 4396TIP3    H113194   2.605   3.803   4.929  1.3205  1.3089  1.4445
 4396TIP3    H213195   2.589   3.659   4.970 -0.9396  1.4400  1.1390
 4397TIP3   OH213196   0.494   0.101   2.779 -0.4401 -0.7309 -0.2543
 4397TIP3    H113197   0.442   0.023   2.799 -0.5118 -0.5611  0.2525
 4397TIP3    H213198   0.584   0.069   2.775 -0.5688 -1.0151 -1.0759
 4398TIP3   OH213199   3.029   2.703   4.700  1.0258  0.2547 -0.3550
 4398TIP3    H113200   3.026   2.611   4.728 -0.7913 -0.7645 -3.4932
 4398TIP3    H213201   3.114   2.711   4.656 -0.4480 -1.3514 -3.9006
 4399TIP3   OH213202   4.014   5.129   0.901 -0.0594  0.0979 -0.1716
 4399TIP3    H113203   4.044   5.097   0.986  1.0226 -0.2207 -0.6658
 4399TIP3    H213204   3.950   5.064   0.872 -2.4359  1.5118  1.5419
 4400TIP3   OH213205   0.510   2.932   1.227  0.1432 -0.3005  0.1777
 4400TIP3    H113206   0.572   2.891   1.166  0.1164  0.6502 -0.5104
 4400TIP3    H213207   0.500   3.022   1.195 -0.5587 -0.0414  1.0723
 4401TIP3   OH213208   1.323   0.427   2.273 -0.7979  0.7043  0.5135
 4401TIP3    H113209   1.414   0.455   2.268 -0.3992 -0.6910 -0.6275
 4401TIP3    H213210   1.273   0.501   2.238 -0.0185  1.0621  0.1303
 4402TIP3   OH213211   0.634   5.508   1.506 -0.1612  0.3867  0.6694
 4402TIP3    H113212   0.668   5.593   1.476  0.3084 -0.1958 -0.5301
 4402TIP3    H213213   0.626   5.456   1.426  0.3646 -0.9878  1.4769
 4403TIP3   OH213214   3.982   5.548   3.592  0.4141  0.1529 -0.0038
 4403TIP3    H113215   3.939   5.463   3.596 -0.4237  0.5101 -0.9325
 4403TIP3    H213216   3.979   5.572   3.499  0.4783  1.2647  0.2678
 4404TIP3   OH213217   0.761   4.054   3.056  0.2773  0.2841 -0.1834
 4404TIP3    H113218   0.758   4.038   2.961 -0.7100 -0.6172 -0.0205
 4404TIP3    H213219   0.675   4.091   3.077  0.5320  0.5814  0.3462
 4405TIP3   OH213220   2.614   3.172   2.124 -0.3087  0.3126  0.3237
 4405TIP3    H113221   2.653   3.085   2.130 -0.2216  0.2130 -1.2538
 4405TIP3    H213222   2.682   3.231   2.157  1.2576  0.1316 -2.3269
 4406TIP3   OH213223   4.428   4.661   3.887  0.0623  0.4418 -0.1220
 4406TIP3    H113224   4.476   4.744   3.893 -0.9197  1.1369 -1.3641
 4406TIP3    H213225   4.409   4.651   3.794 -1.3282 -0.3165  0.2201
 4407TIP3   OH213226   1.881   2.900   1.792  0.3310 -0.2807  0.6886
 4407TIP3    H113227   1.843   2.886   1.879  0.0828 -0.7381  0.5085
 4407TIP3    H213228   1.889   2.995   1.785 -1.1853 -0.1285  0.5648
 4408TIP3   OH213229   5.967   5.177   3.793 -0.1514 -0.7141  0.1777
 4408TIP3    H113230   6.048   5.133   3.820 -1.0483 -1.1598  2.3933
 4408TIP3    H213231   5.937   5.223   3.872 -1.9681 -0.4231 -0.6250
 4409TIP3   OH213232   0.196   1.895   0.964 -0.0081 -0.3161  0.0112
 4409TIP3    H113233   0.246   1.920   1.041 -0.6855 -0.5446  0.5384
 4409TIP3    H213234   0.134   1.966   0.950  0.8393  0.2550 -1.0026
 4410TIP3   OH213235   2.472   0.897   4.945 -0.0591  0.6663 -0.0417
 4410TIP3    H113236   2.522   0.823   4.909 -2.6736 -0.5701 -1.4542
 4410TIP3    H213237   2.495   0.971   4.888  0.3634  0.2043 -0.4914
 4411TIP3   OH213238   4.365   4.143   2.298  0.0447  0.3252  0.4281
 4411TIP3    H113239   4.401   4.141   2.209  0.5137 -1.4065  0.6142
 4411TIP3    H213240   4.271   4.126   2.286  0.0214  0.5860  0.2335
 4412TIP3   OH213241   3.620   5.158   0.066  0.0941  0.1443  0.1786
 4412TIP3    H113242   3.668   5.138  -0.014 -0.9439  0.5883 -0.5851
 4412TIP3    H213243   3.687   5.173   0.132  1.0010  0.9996 -0.9091
 4413TIP3   OH213244   1.360   0.721   1.037  0.2055  0.2317  0.0804
 4413TIP3    H113245   1.388   0.694   1.124  1.1150  0.7201 -0.0401
 4413TIP3    H213246   1.283   0.776   1.052  0.2810  0.2075  0.5633
 4414TIP3   OH213247   3.850   1.192   2.968  0.5428 -0.2086 -0.4550
 4414TIP3    H113248   3.769   1.229   2.934  0.0365 -0.9612 -0.0877
 4414TIP3    H213249   3.822   1.118   3.022  1.2388  1.1799  2.0059
 4415TIP3   OH213250   0.984   2.565   2.381 -0.2195  0.2879 -0.0507
 4415TIP3    H113251   0.930   2.551   2.459 -2.1889  1.6586 -1.0858
 4415TIP3    H213252   1.074   2.563   2.414 -0.8009 -2.1141  1.7533
 4416TIP3   OH213253   2.097   5.001   0.188  0.4785  0.3366  0.0087
 4416TIP3    H113254   2.127   4.940   0.120 -1.8790 -0.6019 -0.3093
 4416TIP3    H213255   2.079   5.082   0.142 -1.1099 -0.2973 -0.5577
 4417TIP3   OH213256   3.403   2.021   0.757 -0.1871 -0.6336 -0.2843
 4417TIP3    H113257   3.448   1.957   0.813 -1.1798  0.1806  1.5202
 4417TIP3    H213258   3.345   2.068   0.817  0.6353  2.0987 -1.5079
 4418TIP3   OH213259   5.980   1.903   4.539 -0.0253 -0.2149 -0.1488
 4418TIP3    H113260   6.021   1.842   4.478  1.2350  0.0352  0.4125
 4418TIP3    H213261   6.047   1.970   4.555 -0.0049 -0.6694  2.0790
 4419TIP3   OH213262   5.960   2.269   0.798 -0.2160  0.3558  0.6556
 4419TIP3    H113263   5.928   2.200   0.740  2.7321 -0.6758  0.0886
 4419TIP3    H213264   5.890   2.280   0.862 -1.3209 -2.3213  0.0565
 4420TIP3   OH213265   0.072   4.521   1.199  0.0974 -0.1332 -0.1862
 4420TIP3    H113266  -0.021   4.504   1.186  0.3610 -1.9600  0.1049
 4420TIP3    H213267   0.090   4.491   1.288  0.6928  1.5443  0.3015
 4421TIP3   OH213268   3.948   4.204   1.697 -0.0815 -0.2520 -0.4483
 4421TIP3    H113269   3.958   4.149   1.775  1.8058  0.8840  0.1909
 4421TIP3    H213270   3.858   4.237   1.702  0.1227  0.1093  1.4898
 4422TIP3   OH213271   5.935   5.911   0.283  0.0501 -0.1101  0.6144
 4422TIP3    H113272   5.973   5.931   0.198  0.4491 -2.9057  0.0358
 4422TIP3    H213273   5.845   5.943   0.278  0.7696  1.9469  0.0933
 4423TIP3   OH213274   3.311   1.966   2.090  0.1947 -0.4169  0.1419
 4423TIP3    H113275   3.235   2.014   2.054  1.3155  1.3432 -0.0202
 4423TIP3    H213276   3.290   1.953   2.182 -0.3768 -0.0735  0.0652
 4424TIP3   OH213277   3.171   2.876   3.729 -0.2087  0.1662  0.1429
 4424TIP3    H113278   3.266   2.877   3.721 -0.0904  0.8370  1.2824
 4424TIP3    H213279   3.153   2.814   3.800 -0.5039  0.9371  0.7749
 4425TIP3   OH213280   0.094   2.229   1.033  0.0764  0.4703  0.2695
 4425TIP3    H113281   0.076   2.306   1.088 -1.3468 -0.8868  1.8235
 4425TIP3    H213282   0.182   2.243   1.000  0.1405  2.4139  1.1147
 4426TIP3   OH213283   6.088   0.454   2.045 -0.2297 -0.0826  0.4079
 4426TIP3    H113284   6.110   0.528   2.101  0.2375 -0.0359  0.1775
 4426TIP3    H213285   6.008   0.418   2.081 -0.6119  0.7037  0.3639
 4427TIP3   OH213286   4.633   0.532   4.051  0.1256  0.0672 -0.1740
 4427TIP3    H113287   4.600   0.444   4.040 -0.0399  0.4107 -3.2204
 4427TIP3    H213288   4.709   0.537   3.993  1.8425  1.1665  1.9888
 4428TIP3   OH213289   4.833   5.532   1.594 -0.0014 -0.4514 -0.0033
 4428TIP3    H113290   4.859   5.593   1.663  1.3322 -0.5643 -0.3725
 4428TIP3    H213291   4.746   5.561   1.567  0.9916  1.9766 -0.8871
 4429TIP3   OH213292   0.342   1.356   1.493 -0.4902  0.2272  0.1151
 4429TIP3    H113293   0.420   1.332   1.543 -1.6793 -0.7117  1.6148
 4429TIP3    H213294   0.363   1.332   1.403  0.9231 -0.0442  0.4870
 4430TIP3   OH213295   1.623   0.894   2.826  0.2195  0.3076 -1.1120
 4430TIP3    H113296   1.658   0.924   2.909 -0.3064 -1.6159 -0.1281
 4430TIP3    H213297   1.700   0.863   2.777  0.2845 -1.0658 -0.2010
 4431TIP3   OH213298   0.491   2.845   2.308 -0.2417  0.3466 -0.2014
 4431TIP3    H113299   0.577   2.878   2.283  0.0746 -1.0593 -1.0607
 4431TIP3    H213300   0.432   2.879   2.241 -0.1212  0.1829 -0.3919
 4432TIP3   OH213301   4.804   0.683   0.894  0.1075 -0.3839  0.0201
 4432TIP3    H113302   4.854   0.615   0.848  0.2382 -0.1067 -0.2523
 4432TIP3    H213303   4.869   0.748   0.919 -0.3298  0.9588 -2.0820
 4433TIP3   OH213304   5.573   2.929   1.954 -0.0891 -0.0880  0.0231
 4433TIP3    H113305   5.594   2.867   2.023 -1.4436  0.9058  1.3944
 4433TIP3    H213306   5.657   2.965   1.926  0.4151  0.7535  2.3978
 4434TIP3   OH213307   0.647   1.008   1.890 -0.0124 -0.4658 -0.5249
 4434TIP3    H113308   0.679   0.994   1.980 -2.2272 -3.0730 -0.0241
 4434TIP3    H213309   0.637   0.920   1.854  0.6946  0.5082 -3.3685
 4435TIP3   OH213310   4.125   3.143   1.765 -0.1727  0.0579 -0.1671
 4435TIP3    H113311   4.219   3.141   1.746 -0.1813 -1.8004 -0.1742
 4435TIP3    H213312   4.118   3.186   1.850  0.5276  1.5405 -0.8207
 4436TIP3   OH213313   0.031   3.797   2.162 -0.6911 -0.0937 -0.0562
 4436TIP3    H113314  -0.050   3.832   2.198 -0.8443 -0.0246 -0.4654
 4436TIP3    H213315   0.100   3.853   2.197 -0.5808 -1.4007  2.0193
 4437TIP3   OH213316   4.467   2.849   2.087  0.3712  0.8072  0.0372
 4437TIP3    H113317   4.470   2.944   2.079 -0.1197  0.9094  0.9860
 4437TIP3    H213318   4.381   2.825   2.052  0.1877  0.7842  0.5062
 4438TIP3   OH213319   3.672   1.134   1.337  0.4586 -0.0216 -0.0527
 4438TIP3    H113320   3.635   1.209   1.383  1.3490  0.0830  0.5087
 4438TIP3    H213321   3.641   1.143   1.247  1.2392  1.4864 -0.1907
 4439TIP3   OH213322   4.475   5.984   2.237  0.6660  0.0998  0.0438
 4439TIP3    H113323   4.388   5.990   2.196  0.6030 -0.4438  0.1015
 4439TIP3    H213324   4.470   5.909   2.295  1.0200  0.3728  0.4378
 4440TIP3   OH213325   3.637   0.863   1.264 -0.5339 -0.0519 -0.1918
 4440TIP3    H113326   3.647   0.938   1.322  0.1714  0.0445 -0.4210
 4440TIP3    H213327   3.557   0.820   1.293  0.5051 -0.7886  1.7642
 4441TIP3   OH213328   4.581   4.391   2.470 -0.2326 -0.3239  0.3175
 4441TIP3    H113329   4.522   4.352   2.405 -1.9246 -0.8584  2.0889
 4441TIP3    H213330   4.665   4.347   2.455 -0.4828 -0.2304 -1.6461
 4442TIP3   OH213331   0.383   1.017   2.001 -0.1064  0.2319  0.2042
 4442TIP3    H113332   0.405   0.950   2.064 -0.6344 -0.6627 -0.5420
 4442TIP3    H213333   0.462   1.026   1.947  0.1365  0.5715  0.6141
 4443TIP3   OH213334   5.306   1.425   0.037  0.0822  1.2110 -0.5235
 4443TIP3    H113335   5.272   1.380   0.114  0.2941  0.7659 -0.6873
 4443TIP3    H213336   5.385   1.470   0.069  1.2064 -0.4491 -0.8645
 4444TIP3   OH213337   0.772   4.386   2.707  0.0238 -0.0230  0.0266
 4444TIP3    H113338   0.776   4.416   2.798 -0.6294  0.2626 -0.0375
 4444TIP3    H213339   0.732   4.458   2.659  2.7181  0.9077 -0.9804
 4445TIP3   OH213340   2.854   0.588   1.189 -0.1131 -0.8810 -0.5526
 4445TIP3    H113341   2.922   0.625   1.134 -0.0690 -1.5358 -0.9513
 4445TIP3    H213342   2.840   0.500   1.155 -0.3900 -1.1468  0.2095
 4446TIP3   OH213343   4.967   5.640   2.127 -0.2489 -0.1014  0.3215
 4446TIP3    H113344   4.923   5.692   2.194  0.6904  0.3732  0.5919
 4446TIP3    H213345   5.040   5.695   2.098 -1.1612  0.1282 -1.7922
 4447TIP3   OH213346   2.049   4.761   0.373  0.5430  0.1491 -0.2339
 4447TIP3    H113347   2.099   4.748   0.454  0.2797 -0.9331 -0.2292
 4447TIP3    H213348   2.094   4.833   0.328  0.4369  1.0654  1.0622
 4448TIP3   OH213349   2.255   4.445   2.985 -0.2770 -0.0434 -0.2251
 4448TIP3    H113350   2.262   4.503   3.062 -0.4819  0.3114 -0.4708
 4448TIP3    H213351   2.213   4.499   2.918  0.0249 -0.3104 -0.6325
 4449TIP3   OH213352   4.015   3.603   0.622  0.0311  0.3807 -0.2115
 4449TIP3    H113353   3.925   3.623   0.649  0.5977 -0.3323  2.5077
 4449TIP3    H213354   4.059   3.688   0.621 -0.0863  0.4905  1.0732
 4450TIP3   OH213355   5.492   0.152   2.200 -0.0355  0.6906  1.0182
 4450TIP3    H113356   5.570   0.097   2.202 -0.5259  0.0036  2.0110
 4450TIP3    H213357   5.521   0.233   2.157  1.0592  0.2166  0.8265
 4451TIP3   OH213358   4.995   4.482   3.232  0.0540  0.3536  0.2017
 4451TIP3    H113359   5.082   4.511   3.259 -0.2378 -0.4064  2.1091
 4451TIP3    H213360   4.943   4.562   3.228  0.5756  0.6911  0.0687
 4452TIP3   OH213361   4.369   2.030   0.949 -0.3030  0.0087  0.0433
 4452TIP3    H113362   4.441   2.092   0.956 -0.4038  0.0873  0.4249
 4452TIP3    H213363   4.406   1.947   0.981 -0.7789  0.3794  1.6604
 4453TIP3   OH213364   2.292   4.362   0.221  0.0796  0.6564 -0.0971
 4453TIP3    H113365   2.374   4.400   0.191  0.6579  1.2884  2.0476
 4453TIP3    H213366   2.273   4.291   0.160  1.5787  1.2824 -1.3283
 4454TIP3   OH213367   1.573   1.171   0.346  0.5402  0.1732  0.3467
 4454TIP3    H113368   1.481   1.195   0.350  0.5329  0.7118 -1.6968
 4454TIP3    H213369   1.577   1.085   0.388 -0.9053  0.0952  0.3813
 4455TIP3   OH213370   1.773   3.210   4.994  0.0485  0.5307 -0.0628
 4455TIP3    H113371   1.847   3.197   4.934 -0.5999 -1.1418 -0.5700
 4455TIP3    H213372   1.812   3.213   5.081  0.8530  1.2660 -0.4393
 4456TIP3   OH213373   0.800   1.978   0.062  0.8625  0.0771 -0.0093
 4456TIP3    H113374   0.763   2.059   0.098 -1.0823 -0.3726 -0.8805
 4456TIP3    H213375   0.791   1.988  -0.033 -0.9314 -1.7885 -0.0961
 4457TIP3   OH213376   2.216   1.055   0.369  0.1680  0.0516 -0.0519
 4457TIP3    H113377   2.252   1.143   0.358 -1.3257  1.0238  2.2300
 4457TIP3    H213378   2.145   1.065   0.432 -1.3044 -2.5024 -1.1601
 4458TIP3   OH213379   4.921   2.119   3.959 -0.1997 -0.5789 -0.3307
 4458TIP3    H113380   4.860   2.193   3.967  0.2699 -0.3635  1.7693
 4458TIP3    H213381   4.865   2.042   3.967 -0.5962 -0.4724 -1.7996
 4459TIP3   OH213382   4.007   2.112   3.009 -0.2912 -0.2259  0.0901
 4459TIP3    H113383   3.998   2.038   3.069 -0.9739 -0.0169  0.2530
 4459TIP3    H213384   4.008   2.072   2.922  0.2455 -0.4914  0.2119
 4460TIP3   OH213385   6.161   1.429   3.251  0.4708  0.1676  0.4321
 4460TIP3    H113386   6.097   1.392   3.312 -0.4507  3.8438  1.9746
 4460TIP3    H213387   6.117   1.427   3.166  0.2716 -1.6157  0.5326
 4461TIP3   OH213388   0.649   2.144   4.260 -0.0391 -0.1462  0.3849
 4461TIP3    H113389   0.719   2.164   4.197 -0.8338 -1.4209 -0.9804
 4461TIP3    H213390   0.658   2.050   4.277 -0.7087 -0.0927  1.0753
 4462TIP3   OH213391   6.056   4.071   3.282 -0.3484 -0.2300  0.3509
 4462TIP3    H113392   6.089   4.103   3.198  0.5535 -0.2663  0.6766
 4462TIP3    H213393   6.009   4.145   3.320 -0.6562 -0.1762 -0.1268
 4463TIP3   OH213394   2.691   2.445   3.944 -0.8625 -0.2454 -0.4930
 4463TIP3    H113395   2.655   2.366   3.984 -2.6664  1.0353  0.5930
 4463TIP3    H213396   2.689   2.427   3.850  1.3818 -2.4692 -0.2196
 4464TIP3   OH213397   1.820   4.822   3.961  0.5804 -0.0972  0.1637
 4464TIP3    H113398   1.827   4.883   3.888  1.2154 -0.8051 -0.3837
 4464TIP3    H213399   1.779   4.744   3.923  2.3067 -1.0515  0.1859
 4465TIP3   OH213400   1.310   5.243   4.684 -0.0951 -0.6989  0.4323
 4465TIP3    H113401   1.300   5.270   4.775 -0.3315  2.3234 -0.4003
 4465TIP3    H213402   1.320   5.324   4.635  2.6736 -2.3086 -1.9827
 4466TIP3   OH213403   3.258   0.432   1.188  0.3489 -0.1380 -0.2750
 4466TIP3    H113404   3.294   0.352   1.151  1.4699 -0.0245  0.4967
 4466TIP3    H213405   3.303   0.503   1.142  0.0577  0.0370 -0.2971
 4467TIP3   OH213406   2.652   3.565   1.582 -0.0729 -0.0624 -0.0404
 4467TIP3    H113407   2.612   3.479   1.596  0.6084 -0.3977 -0.1256
 4467TIP3    H213408   2.579   3.626   1.590 -0.3234 -0.5236  1.4386
 4468TIP3   OH213409   0.672   3.059   2.060  0.1730 -0.4452 -0.7554
 4468TIP3    H113410   0.723   3.029   2.134  2.2401  1.6312 -1.2251
 4468TIP3    H213411   0.683   2.991   1.994 -0.6078 -1.6722  0.3298
 4469TIP3   OH213412   5.150   2.709   1.189 -0.2295 -0.5407  0.0916
 4469TIP3    H113413   5.242   2.691   1.206 -0.8089 -1.3556  2.7304
 4469TIP3    H213414   5.139   2.802   1.211 -0.0171 -0.4038 -0.3755
 4470TIP3   OH213415   3.399   0.046   3.470  0.4658 -0.2420  0.0521
 4470TIP3    H113416   3.309   0.020   3.491  0.2300  0.6784  0.2315
 4470TIP3    H213417   3.446   0.034   3.553  0.5161 -0.7154 -0.0391
 4471TIP3   OH213418   1.700   4.465   3.313 -0.2597  0.4614  0.7838
 4471TIP3    H113419   1.760   4.540   3.307  0.0955  0.2527  1.6322
 4471TIP3    H213420   1.680   4.444   3.222 -0.3117  1.5461  0.5244
 4472TIP3   OH213421   1.338   4.824   1.921 -0.3722  0.0738  0.0650
 4472TIP3    H113422   1.386   4.806   1.840 -0.2175  0.4678  0.0715
 4472TIP3    H213423   1.280   4.748   1.931  0.0279 -0.2557 -0.1040
 4473TIP3   OH213424   1.749   5.672   1.467 -0.4091 -0.2624 -1.1681
 4473TIP3    H113425   1.726   5.727   1.542  1.9170 -0.0507 -0.5275
 4473TIP3    H213426   1.753   5.583   1.503 -0.6411 -0.3573 -1.3736
 4474TIP3   OH213427   4.108   0.442   3.199 -0.0897  0.4282  0.3588
 4474TIP3    H113428   4.130   0.392   3.278  0.0601  1.3549  0.9208
 4474TIP3    H213429   4.168   0.408   3.132 -0.2389 -0.3911  0.6270
 4475TIP3   OH213430   5.749   1.826   1.332 -0.4085  0.2015  0.2878
 4475TIP3    H113431   5.751   1.875   1.413  2.2973 -0.7663  0.9210
 4475TIP3    H213432   5.831   1.847   1.288 -0.1217 -2.0569 -0.4255
 4476TIP3   OH213433   0.442   2.547   0.109 -0.3455  0.0945  0.0723
 4476TIP3    H113434   0.358   2.539   0.154  0.6475 -2.4046  1.6777
 4476TIP3    H213435   0.508   2.539   0.178  1.2761  1.7270 -1.1696
 4477TIP3   OH213436   4.926   4.806   2.836  0.1919 -0.2586  0.6465
 4477TIP3    H113437   4.834   4.783   2.845 -0.5629  1.2069 -2.1401
 4477TIP3    H213438   4.933   4.892   2.877  0.3770 -0.4659  1.0512
 4478TIP3   OH213439   1.172   3.793   2.760  0.0591 -0.1383  0.2278
 4478TIP3    H113440   1.137   3.704   2.762  0.6471 -0.3777  0.0567
 4478TIP3    H213441   1.207   3.808   2.848  0.6461 -0.3606  0.0370
 4479TIP3   OH213442   4.302   0.804   3.057  0.4289  0.0755 -0.0349
 4479TIP3    H113443   4.373   0.848   3.010  1.1496  1.1915  1.9783
 4479TIP3    H213444   4.250   0.762   2.988  2.2243  0.4155 -1.6805
 4480TIP3   OH213445   3.768   2.310   4.801  0.2184 -0.6641  0.2728
 4480TIP3    H113446   3.678   2.292   4.772  0.2166  1.6776 -1.4477
 4480TIP3    H213447   3.821   2.248   4.750 -0.2246 -0.1809 -0.8076
 4481TIP3   OH213448   4.420   5.634   1.312  0.0195 -0.6024  0.1146
 4481TIP3    H113449   4.326   5.620   1.302 -0.0865 -0.2236  0.5235
 4481TIP3    H213450   4.459   5.594   1.235 -0.3235 -2.4100  0.8441
 4482TIP3   OH213451   0.152   4.677   4.162  0.4992 -0.8168  0.4153
 4482TIP3    H113452   0.240   4.708   4.140 -0.4604  1.1869 -0.7679
 4482TIP3    H213453   0.136   4.604   4.102  1.3818 -1.3256  0.7697
 4483TIP3   OH213454   2.734   0.496   1.413 -0.7683  0.3375 -0.9083
 4483TIP3    H113455   2.806   0.432   1.409 -1.0453 -0.1653  0.9876
 4483TIP3    H213456   2.754   0.559   1.344  0.8013 -0.5006 -1.2717
 4484TIP3   OH213457   1.165   4.777   0.519  0.0178  0.8126  0.3396
 4484TIP3    H113458   1.144   4.864   0.554  0.1760  1.4599 -1.1156
 4484TIP3    H213459   1.258   4.783   0.497 -0.0560  0.3825 -0.0943
 4485TIP3   OH213460   1.414   1.878   5.005  0.1397  0.3533  0.1016
 4485TIP3    H113461   1.379   1.867   5.093 -1.1005 -1.5432 -0.5691
 4485TIP3    H213462   1.470   1.955   5.011 -0.8582  0.9852  2.2474
 4486TIP3   OH213463   2.830   0.017   2.428 -0.2406 -0.1639 -0.0040
 4486TIP3    H113464   2.913   0.052   2.394 -0.0084  1.1416  1.7845
 4486TIP3    H213465   2.770   0.020   2.353  1.2291 -0.9322 -1.2752
 4487TIP3   OH213466   2.512   4.817   4.244 -0.3171  0.6542  0.2460
 4487TIP3    H113467   2.443   4.827   4.179 -0.2610  2.4187  0.4060
 4487TIP3    H213468   2.590   4.855   4.204  0.3707 -0.5380  0.3981
 4488TIP3   OH213469   1.948   5.923   3.519 -0.0346 -0.1831 -0.1461
 4488TIP3    H113470   1.988   5.908   3.605  0.1074 -1.9158 -0.4743
 4488TIP3    H213471   1.950   6.018   3.508  1.0127 -0.0029  1.2569
 4489TIP3   OH213472   3.476   5.677   2.887  0.2487 -0.1928 -0.0764
 4489TIP3    H113473   3.455   5.586   2.910  1.5368  0.2586  3.6530
 4489TIP3    H213474   3.504   5.716   2.970  1.5760  3.1171 -1.9071
 4490TIP3   OH213475   0.952   4.504   0.845 -0.6912  0.1450 -0.1383
 4490TIP3    H113476   0.869   4.548   0.863 -0.2912  1.6130 -1.5777
 4490TIP3    H213477   0.972   4.529   0.754  1.4349  0.0472  0.2605
 4491TIP3   OH213478   3.956   2.677   1.366 -0.1550 -0.2834 -0.0863
 4491TIP3    H113479   3.970   2.615   1.294  0.4154 -0.5463  0.2424
 4491TIP3    H213480   4.042   2.689   1.405 -0.0476  1.5940 -0.8257
 4492TIP3   OH213481   2.768   4.999   0.749 -0.2011 -0.2558  0.1783
 4492TIP3    H113482   2.690   4.946   0.731 -0.0966 -0.8560  1.3682
 4492TIP3    H213483   2.734   5.081   0.784 -0.4312  1.1582 -3.0664
 4493TIP3   OH213484   0.900   5.873   2.095 -0.0985  0.1001 -0.1896
 4493TIP3    H113485   0.958   5.821   2.039  0.1154 -0.6147  0.6805
 4493TIP3    H213486   0.942   5.871   2.181  0.5444  2.6841 -0.3485
 4494TIP3   OH213487   2.748   3.492   0.434 -0.2752  0.4922  0.0289
 4494TIP3    H113488   2.693   3.524   0.363  0.3042 -0.0409 -0.6635
 4494TIP3    H213489   2.731   3.398   0.437 -1.5544  0.7174  1.6982
 4495TIP3   OH213490   2.501   3.235   2.474 -0.1316  0.0574 -0.2778
 4495TIP3    H113491   2.567   3.298   2.502 -0.0688  0.7030 -1.7758
 4495TIP3    H213492   2.551   3.158   2.447  0.0617  0.6419 -1.6596
 4496TIP3   OH213493   4.792   2.204   2.082 -0.3301  0.3471 -0.2660
 4496TIP3    H113494   4.718   2.164   2.037 -0.5607 -0.7152  1.0144
 4496TIP3    H213495   4.808   2.148   2.158  0.7174  1.4992  0.4087
 4497TIP3   OH213496   1.037   3.412   3.425  0.3977 -0.2358  0.5656
 4497TIP3    H113497   0.996   3.438   3.508  0.4555 -0.5107  0.6828
 4497TIP3    H213498   1.077   3.327   3.444  0.1868 -0.4234  0.1827
 4498TIP3   OH213499   6.173   2.012   0.875  0.0093 -1.0654 -0.0502
 4498TIP3    H113500   6.207   2.022   0.964  0.3031 -0.1293 -0.2486
 4498TIP3    H213501   6.098   2.071   0.872  0.1592 -0.8934 -0.4992
 4499TIP3   OH213502   5.708   2.246   4.099 -0.0676 -0.1860 -0.1611
 4499TIP3    H113503   5.664   2.327   4.125 -0.8302 -0.4306 -0.6317
 4499TIP3    H213504   5.654   2.213   4.027  0.3942 -0.9654 -0.1528
 4500TIP3   OH213505   2.474   3.224   1.318 -0.0573 -0.4717 -0.3028
 4500TIP3    H113506   2.459   3.146   1.265 -1.6379 -0.0022 -0.5864
 4500TIP3    H213507   2.519   3.286   1.260 -0.0987 -0.6341 -0.5060
 4501TIP3   OH213508   2.124   5.418   3.754 -0.0282  0.0266  0.0617
 4501TIP3    H113509   2.084   5.417   3.667 -1.1702  1.6732  0.5116
 4501TIP3    H213510   2.117   5.510   3.782  0.9581 -0.3329  1.6025
 4502TIP3   OH213511   5.433   1.510   0.334 -0.2388  0.0989 -0.4831
 4502TIP3    H113512   5.346   1.469   0.335 -0.2004  0.0289  0.0783
 4502TIP3    H213513   5.491   1.444   0.369 -0.2230  0.7182  0.7313
 4503TIP3   OH213514   0.280   2.971   3.808  0.0935  0.6557 -0.0406
 4503TIP3    H113515   0.204   2.943   3.859  0.0079  1.1022  0.0864
 4503TIP3    H213516   0.302   2.896   3.753 -0.6620  0.6498 -0.3410
 4504TIP3   OH213517   6.035   0.606   3.247  0.1780 -0.1224 -0.9249
 4504TIP3    H113518   6.036   0.528   3.302 -1.4837 -0.0469 -0.7446
 4504TIP3    H213519   6.094   0.667   3.290  0.1708 -0.6652 -0.1289
 4505TIP3   OH213520   0.626   1.204   3.198  0.1146 -0.1390  0.1528
 4505TIP3    H113521   0.549   1.149   3.189 -0.1379  0.2743 -0.2639
 4505TIP3    H213522   0.698   1.143   3.214 -0.2365 -0.5505  0.1564
 4506TIP3   OH213523   3.534   4.001   4.807  0.0968  0.1266 -0.3562
 4506TIP3    H113524   3.483   4.082   4.809  0.8428  0.6068  0.0223
 4506TIP3    H213525   3.471   3.932   4.823 -0.7779  0.5073 -2.0243
 4507TIP3   OH213526   0.907   3.541   1.422 -0.0357  0.0657  0.5747
 4507TIP3    H113527   0.957   3.620   1.442  0.3328 -0.1372  0.4540
 4507TIP3    H213528   0.919   3.528   1.328  1.1856 -1.0025  0.8586
 4508TIP3   OH213529   1.384   1.056   3.867 -0.3417 -0.8251  0.4244
 4508TIP3    H113530   1.324   1.072   3.940  0.2629 -2.4555  1.3339
 4508TIP3    H213531   1.329   1.060   3.789 -0.5181  4.1300  0.4690
 4509TIP3   OH213532   3.668   0.383   1.889 -0.7438 -0.6825 -0.6606
 4509TIP3    H113533   3.719   0.429   1.823  0.3812 -0.3757  0.3718
 4509TIP3    H213534   3.653   0.448   1.958 -2.7210 -0.7121 -0.9923
 4510TIP3   OH213535   3.776   1.112   2.516 -0.0339 -0.0133 -0.1453
 4510TIP3    H113536   3.834   1.132   2.442  0.9384  2.9605  1.2341
 4510TIP3    H213537   3.706   1.177   2.509 -0.6094 -0.5144  0.8407
 4511TIP3   OH213538   5.166   4.505   3.632 -0.4880  0.7295 -0.1947
 4511TIP3    H113539   5.239   4.448   3.609 -1.2776  0.1764 -1.4577
 4511TIP3    H213540   5.103   4.446   3.674 -1.9421  0.2637 -2.8141
 4512TIP3   OH213541   1.393   0.036   4.671 -0.4460  0.0728  0.6928
 4512TIP3    H113542   1.483   0.032   4.704 -0.0759  1.7302  0.0119
 4512TIP3    H213543   1.344   0.079   4.741 -0.6759 -0.6471  0.9804
 4513TIP3   OH213544   2.170   1.878   3.446 -0.1641 -0.0411  0.4815
 4513TIP3    H113545   2.095   1.855   3.391  0.5560  0.1986 -0.6355
 4513TIP3    H213546   2.193   1.796   3.489  0.1191 -0.5871 -0.6666
 4514TIP3   OH213547   3.410   4.564   3.282 -0.0437 -0.5850  0.1012
 4514TIP3    H113548   3.323   4.533   3.306  0.4878 -2.5601 -0.4070
 4514TIP3    H213549   3.470   4.518   3.341  0.7356  0.1101 -0.1240
 4515TIP3   OH213550   2.561   1.155   4.839  0.2408 -0.4407  0.5122
 4515TIP3    H113551   2.527   1.244   4.849 -2.2045 -1.1955 -0.2023
 4515TIP3    H213552   2.640   1.152   4.892 -0.4710  1.7106  1.8002
 4516TIP3   OH213553   4.520   2.352   1.666 -0.3271 -0.4834 -0.2412
 4516TIP3    H113554   4.515   2.393   1.580 -0.2651  0.2107  0.0768
 4516TIP3    H213555   4.583   2.405   1.715 -4.9337  3.3849  2.4194
 4517TIP3   OH213556   1.458   1.752   0.600  0.6373  0.0535 -0.0680
 4517TIP3    H113557   1.480   1.659   0.600 -1.1435 -0.4079 -0.2902
 4517TIP3    H213558   1.540   1.797   0.619  1.3852 -1.5993  0.7354
 4518TIP3   OH213559   5.546   0.066   2.857  0.3785  0.2635  0.4658
 4518TIP3    H113560   5.619   0.049   2.798  0.8233  0.9569  0.7967
 4518TIP3    H213561   5.482  -0.002   2.838 -0.1391  1.3129 -1.8757
 4519TIP3   OH213562   3.322   2.330   0.346 -0.6106  0.1606  0.2052
 4519TIP3    H113563   3.288   2.335   0.257  0.4927 -1.4740 -0.3764
 4519TIP3    H213564   3.247   2.303   0.399 -0.6289 -2.1009 -0.8277
 4520TIP3   OH213565   6.126   3.215   4.908  0.5087 -0.3759 -0.1341
 4520TIP3    H113566   6.036   3.224   4.876  0.6018 -2.5141 -1.1143
 4520TIP3    H213567   6.179   3.261   4.843  0.1598  1.2866  0.6766
 4521TIP3   OH213568   2.352   2.813   1.435 -0.2921  0.3267 -0.6755
 4521TIP3    H113569   2.314   2.761   1.505 -1.7227  2.0557 -0.0970
 4521TIP3    H213570   2.277   2.852   1.390  0.6534  0.4403 -2.2581
 4522TIP3   OH213571   5.572   4.834   3.625  1.0471 -0.4795  0.0298
 4522TIP3    H113572   5.483   4.803   3.603  0.1539  2.0083 -0.1225
 4522TIP3    H213573   5.616   4.841   3.540  0.5828  0.5103 -0.1455
 4523TIP3   OH213574   6.049   5.314   2.458  0.3225 -0.0195  0.0329
 4523TIP3    H113575   6.016   5.369   2.529  0.5015  0.7323 -0.4508
 4523TIP3    H213576   5.971   5.285   2.412  0.1518 -1.2828  1.0842
 4524TIP3   OH213577   5.101   3.604   0.172 -0.4298  0.3035 -0.0837
 4524TIP3    H113578   5.013   3.592   0.209  0.0014 -0.2685  0.7680
 4524TIP3    H213579   5.155   3.633   0.246  0.1867  0.2803 -0.5175
 4525TIP3   OH213580   2.491   2.067   1.645 -0.0617  0.1909 -0.5785
 4525TIP3    H113581   2.410   2.020   1.663  0.3099 -0.0908  0.4463
 4525TIP3    H213582   2.559   2.000   1.651  0.4295  0.7535  0.4642
 4526TIP3   OH213583   0.573   0.348   4.341  0.6349 -0.3087  0.0099
 4526TIP3    H113584   0.508   0.399   4.390 -0.2724 -1.8179  0.4505
 4526TIP3    H213585   0.524   0.272   4.309  1.6523 -0.2771 -1.7010
 4527TIP3   OH213586   3.446   1.149   5.139 -0.2456  0.1118  0.4241
 4527TIP3    H113587   3.413   1.113   5.221 -0.1565 -1.6827 -0.2843
 4527TIP3    H213588   3.541   1.144   5.148 -0.2293 -1.7256 -0.4303
 4528TIP3   OH213589   3.360   2.786   1.041 -0.3159 -0.1008  0.0129
 4528TIP3    H113590   3.404   2.704   1.017  1.3401  1.3133 -2.1774
 4528TIP3    H213591   3.400   2.810   1.125  2.4984  0.5894 -1.4102
 4529TIP3   OH213592   1.908   3.757   3.083  0.0688 -0.4590 -0.6692
 4529TIP3    H113593   1.990   3.728   3.123 -1.1351 -0.5029  2.0126
 4529TIP3    H213594   1.934   3.817   3.013  2.3733  1.3940  1.5988
 4530TIP3   OH213595   2.034   4.045   4.618 -0.0318 -0.2273  0.1255
 4530TIP3    H113596   2.119   4.080   4.644  0.2524 -0.3045 -0.6752
 4530TIP3    H213597   1.976   4.063   4.693  0.3774  0.9207  0.1805
 4531TIP3   OH213598   1.446   5.723   2.737 -0.2362 -0.1670  0.1886
 4531TIP3    H113599   1.448   5.819   2.736 -0.9015 -0.1354 -1.5302
 4531TIP3    H213600   1.537   5.697   2.724 -0.3521  0.3081 -1.9961
 4532TIP3   OH213601   2.576   1.763   2.824 -0.0027  0.1384  0.1068
 4532TIP3    H113602   2.637   1.778   2.895  0.9144  0.7732 -0.7843
 4532TIP3    H213603   2.592   1.835   2.763  0.9744 -1.6932 -1.9162
 4533TIP3   OH213604   4.011   1.183   5.102  0.0891  0.3542  0.2266
 4533TIP3    H113605   3.917   1.164   5.090 -0.6274  2.4553  1.9536
 4533TIP3    H213606   4.053   1.097   5.096 -1.9704 -0.6808 -0.3652
 4534TIP3   OH213607   3.694   0.065   0.893 -0.8457 -0.0175 -0.6264
 4534TIP3    H113608   3.706  -0.025   0.920  0.5033 -0.5675 -2.8243
 4534TIP3    H213609   3.670   0.112   0.973 -1.4984 -2.2792  0.5631
 4535TIP3   OH213610   1.540   0.421   5.056  0.1226 -0.2520  0.1939
 4535TIP3    H113611   1.580   0.343   5.094 -0.2733 -0.2619  0.6035
 4535TIP3    H213612   1.447   0.416   5.081  0.6014  1.8383  2.8617
 4536TIP3   OH213613   2.392   2.670   5.062  0.1004 -0.8598 -0.1772
 4536TIP3    H113614   2.450   2.600   5.032  0.6892 -1.0201  1.2649
 4536TIP3    H213615   2.306   2.627   5.070  0.7197 -1.8332  1.9911
 4537TIP3   OH213616   2.837   1.213   4.625 -0.1947  0.0217 -0.0647
 4537TIP3    H113617   2.824   1.233   4.532 -0.2248  1.3001  0.1901
 4537TIP3    H213618   2.895   1.137   4.625  0.7967  0.7398 -1.1359
 4538TIP3   OH213619   3.444   1.332   3.117 -0.2506 -0.0153  0.6912
 4538TIP3    H113620   3.389   1.392   3.167 -1.4333 -2.2255  2.2542
 4538TIP3    H213621   3.533   1.350   3.149 -0.4580  1.3942  0.5373
 4539TIP3   OH213622   2.247   3.242   4.290 -0.4259 -0.1635 -0.4318
 4539TIP3    H113623   2.219   3.267   4.201 -0.2057  1.6585 -0.0321
 4539TIP3    H213624   2.165   3.226   4.337 -0.6410  0.7866 -0.4601
 4540TIP3   OH213625   3.599   2.048   2.167  0.7794  0.5652 -0.0045
 4540TIP3    H113626   3.616   2.004   2.084  0.5683  0.1617  0.1587
 4540TIP3    H213627   3.507   2.028   2.186  0.6021  1.3126 -0.0608
 4541TIP3   OH213628   4.067   0.787   2.662 -0.0498 -0.2349 -0.2914
 4541TIP3    H113629   3.989   0.827   2.700 -0.3293 -0.8738 -0.1759
 4541TIP3    H213630   4.101   0.731   2.731 -0.2069 -0.9269 -0.7601
 4542TIP3   OH213631   0.421   2.344   1.237  0.2708 -0.0839 -0.0848
 4542TIP3    H113632   0.508   2.384   1.239  0.8489 -1.1041 -1.9948
 4542TIP3    H213633   0.363   2.414   1.208  1.0448 -0.2025 -2.0523
 4543TIP3   OH213634   4.685   0.524   0.688 -0.1083 -0.5220  0.1765
 4543TIP3    H113635   4.700   0.613   0.718  1.2910  0.7160 -3.5942
 4543TIP3    H213636   4.608   0.531   0.631 -0.0984 -1.7808 -0.0253
 4544TIP3   OH213637   1.318   3.319   2.849 -0.4545 -0.1830 -0.3993
 4544TIP3    H113638   1.304   3.239   2.799 -2.5083 -0.6634  0.8483
 4544TIP3    H213639   1.353   3.381   2.785 -0.6520 -1.4913 -1.8335
 4545TIP3   OH213640   2.541   4.151   3.082  0.3346 -0.2168 -0.0290
 4545TIP3    H113641   2.572   4.148   3.172 -0.3027  1.1731  0.2530
 4545TIP3    H213642   2.452   4.115   3.086  0.1006  0.3589 -0.0032
 4546TIP3   OH213643   3.540   2.132   3.275 -0.2834 -0.1412  0.0566
 4546TIP3    H113644   3.597   2.163   3.346 -0.0413 -0.9862  0.2349
 4546TIP3    H213645   3.599   2.092   3.212 -0.6258 -0.5045 -0.0376
 4547TIP3   OH213646   3.976   3.862   0.350 -0.4918  0.6094 -0.1663
 4547TIP3    H113647   4.033   3.787   0.332 -0.1333  0.6909  0.5600
 4547TIP3    H213648   3.970   3.909   0.267  0.2714  0.4355 -0.3258
 4548TIP3   OH213649   2.004   4.517   4.618  0.1477 -0.7918  0.2439
 4548TIP3    H113650   1.994   4.490   4.709 -0.7896 -0.1085  0.3566
 4548TIP3    H213651   1.979   4.440   4.567  3.4435 -2.1876  0.4943
 4549TIP3   OH213652   0.305   4.637   1.148  0.1699 -0.2359  0.1496
 4549TIP3    H113653   0.293   4.697   1.221 -0.8357  2.2959 -1.9486
 4549TIP3    H213654   0.226   4.583   1.146  1.0716 -1.7536  2.0316
 4550TIP3   OH213655   1.296   0.886   2.077  1.1231 -0.4368  0.2053
 4550TIP3    H113656   1.348   0.923   2.149  1.3532  1.6929 -0.9614
 4550TIP3    H213657   1.314   0.945   2.003  0.7905 -2.4740 -1.5734
 4551TIP3   OH213658   3.126   3.907   2.281  0.1287  0.2418 -0.1070
 4551TIP3    H113659   3.162   3.819   2.293  0.8852  0.5529 -0.0328
 4551TIP3    H213660   3.102   3.935   2.370 -0.7319 -0.1386 -0.2100
 4552TIP3   OH213661   2.702   1.667   4.533  0.2124 -0.5071 -0.7117
 4552TIP3    H113662   2.662   1.584   4.560  0.5746  0.4871  3.7086
 4552TIP3    H213663   2.797   1.651   4.540  0.4233 -0.4400 -2.7513
 4553TIP3   OH213664   3.354   1.364   1.467  0.1757  0.1194  0.0706
 4553TIP3    H113665   3.330   1.272   1.453  1.8515 -0.3267 -0.1207
 4553TIP3    H213666   3.271   1.408   1.484 -0.7383 -1.3117 -0.4615
 4554TIP3   OH213667   1.691   3.889   3.732 -0.5138  0.4670  0.1265
 4554TIP3    H113668   1.647   3.812   3.698  0.3431  0.1618 -0.3172
 4554TIP3    H213669   1.620   3.952   3.749 -0.9388  1.7262 -4.8387
 4555TIP3   OH213670   5.456   1.838   3.466 -0.0734  0.7904  0.4114
 4555TIP3    H113671   5.463   1.747   3.439  1.6354  1.3379 -1.2367
 4555TIP3    H213672   5.377   1.842   3.519 -0.8210 -1.4138 -0.4415
 4556TIP3   OH213673   1.140   0.167   2.149  0.0439 -0.5466  0.6492
 4556TIP3    H113674   1.143   0.166   2.245  0.3960 -2.6260  0.6468
 4556TIP3    H213675   1.199   0.239   2.125 -0.4118  0.3250  1.9774
 4557TIP3   OH213676   1.413   5.099   2.538 -0.2908  0.3383  0.4261
 4557TIP3    H113677   1.442   5.010   2.516  0.8438  1.0126 -0.9187
 4557TIP3    H213678   1.464   5.121   2.616 -0.0958  0.0584  0.3811
 4558TIP3   OH213679   1.354   3.911   2.271 -0.3300 -0.2897 -0.1359
 4558TIP3    H113680   1.273   3.864   2.294 -0.6132 -0.7596 -1.9332
 4558TIP3    H213681   1.422   3.844   2.275 -0.5006 -0.5617 -1.2664
 4559TIP3   OH213682   1.795   1.033   3.620 -0.1488 -0.0184  0.0970
 4559TIP3    H113683   1.716   1.001   3.663  0.8027 -0.4109  1.6344
 4559TIP3    H213684   1.806   0.976   3.544 -0.3712 -1.1124  0.8689
 4560TIP3   OH213685   0.394   4.910   3.564 -0.4275 -0.1050  0.3574
 4560TIP3    H113686   0.428   4.972   3.500  0.2338 -0.4710  0.3444
 4560TIP3    H213687   0.329   4.859   3.516 -2.4773  1.8417  0.8600
 4561TIP3   OH213688   3.299   2.508   0.091 -0.5414 -0.0295 -0.1002
 4561TIP3    H113689   3.277   2.567   0.162 -0.1099 -0.9780  0.8471
 4561TIP3    H213690   3.217   2.499   0.041 -0.6134  1.3230 -0.2633
 4562TIP3   OH213691   2.485   1.217   0.044  0.1421 -0.2840 -0.3147
 4562TIP3    H113692   2.554   1.247   0.103  0.0190 -0.7552  0.0747
 4562TIP3    H213693   2.532   1.188  -0.035  0.3750 -0.4555 -0.1142
 4563TIP3   OH213694   5.453   3.527   2.188 -0.3210  0.3270 -0.2603
 4563TIP3    H113695   5.481   3.616   2.206  0.8444 -0.3221  1.3543
 4563TIP3    H213696   5.390   3.507   2.257  0.7641 -0.6525  0.5047
 4564TIP3   OH213697   3.898   3.804   2.581  0.0335  0.2339  0.6164
 4564TIP3    H113698   3.860   3.888   2.557  0.8684  0.4430 -0.0480
 4564TIP3    H213699   3.874   3.791   2.672 -0.8224  0.7890  0.4750
 4565TIP3   OH213700   0.522   1.385   4.582 -0.0211 -0.0311  0.2527
 4565TIP3    H113701   0.455   1.412   4.644 -0.1829  0.3343 -0.0821
 4565TIP3    H213702   0.496   1.297   4.555 -1.1732  0.6537 -0.9779
 4566TIP3   OH213703   3.219   3.070   0.329  0.1142  0.0337 -0.3811
 4566TIP3    H113704   3.247   3.047   0.241 -0.2546 -0.2583 -0.4276
 4566TIP3    H213705   3.206   3.165   0.327 -1.1773 -0.1279 -1.0294
 4567TIP3   OH213706   1.523   0.560   2.012  0.0614  0.7481  0.2139
 4567TIP3    H113707   1.463   0.500   1.968 -2.4924  2.3819  1.2234
 4567TIP3    H213708   1.537   0.522   2.099  0.3596  0.4771  0.0519
 4568TIP3   OH213709   1.327   2.711   1.801 -0.3423 -0.2160  0.5526
 4568TIP3    H113710   1.392   2.765   1.757  0.8926 -0.3778  2.0904
 4568TIP3    H213711   1.277   2.670   1.731  0.8971  0.2959 -0.6610
 4569TIP3   OH213712   5.034   5.902   4.356  0.3182 -0.3416  0.2738
 4569TIP3    H113713   5.087   5.979   4.377 -3.6035  2.7573  0.0677
 4569TIP3    H213714   4.973   5.894   4.429 -1.2081 -1.3888 -1.0374
 4570TIP3   OH213715   4.987   4.220   0.606  0.7257  0.0987  0.3246
 4570TIP3    H113716   4.975   4.135   0.647  1.2419 -0.6826 -1.0761
 4570TIP3    H213717   5.082   4.232   0.603  0.7140  0.0227 -0.8207
 4571TIP3   OH213718   3.655   0.377   0.142  0.3661 -0.3612 -0.4135
 4571TIP3    H113719   3.729   0.355   0.198 -0.0313 -0.0097  0.2629
 4571TIP3    H213720   3.605   0.295   0.135  0.1108 -0.2632  0.2233
 4572TIP3   OH213721   5.485   0.243   0.369  0.0462 -0.5731 -0.5501
 4572TIP3    H113722   5.568   0.196   0.371  0.6836  0.4998 -0.8145
 4572TIP3    H213723   5.485   0.295   0.450 -1.1372 -1.8098  0.2770
 4573TIP3   OH213724   1.747   5.495   0.404 -0.0275  0.1501  0.4509
 4573TIP3    H113725   1.673   5.454   0.360  0.3568  0.4548 -0.5029
 4573TIP3    H213726   1.795   5.540   0.334  0.1246  1.3740  1.3202
 4574TIP3   OH213727   2.669   3.015   1.787 -0.8052 -0.9001  0.3388
 4574TIP3    H113728   2.741   2.959   1.816  0.2104 -0.4464 -1.1575
 4574TIP3    H213729   2.647   2.982   1.700 -1.2199  0.0469  0.0710
 4575TIP3   OH213730   4.052   4.328   4.884 -0.2317 -0.3449  0.2012
 4575TIP3    H113731   4.098   4.405   4.852 -0.0099 -0.6876 -0.3275
 4575TIP3    H213732   4.028   4.349   4.974  1.2898 -0.3101  0.6208
 4576TIP3   OH213733   4.722   2.364   0.014  0.0976 -0.1880  0.6530
 4576TIP3    H113734   4.631   2.362  -0.015  0.3018 -1.4128  0.0463
 4576TIP3    H213735   4.736   2.454   0.042 -0.6068  0.6727 -1.5413
 4577TIP3   OH213736   5.883   2.933   1.419  0.7737 -0.3615 -0.2360
 4577TIP3    H113737   5.926   2.935   1.504  0.9896 -2.4581 -0.2539
 4577TIP3    H213738   5.820   2.861   1.425 -1.3215  1.2949 -0.8975
 4578TIP3   OH213739   2.206   4.609   0.807 -0.4659 -0.1730  0.0939
 4578TIP3    H113740   2.240   4.641   0.891  3.1727 -0.3797 -1.1369
 4578TIP3    H213741   2.193   4.515   0.821 -0.7525 -0.0533  0.6718
 4579TIP3   OH213742   0.179   1.912   5.158  0.6117  0.3793 -0.0597
 4579TIP3    H113743   0.160   1.951   5.072 -0.6181 -0.2554 -0.1069
 4579TIP3    H213744   0.184   1.818   5.140  1.7506  0.3548  0.3429
 4580TIP3   OH213745   3.198   5.132   2.911  0.0782  0.5958 -0.1476
 4580TIP3    H113746   3.137   5.074   2.866  0.0224 -0.3658  1.1085
 4580TIP3    H213747   3.284   5.103   2.881 -0.0209  1.2197 -1.0679
 4581TIP3   OH213748   5.510   2.512   2.123 -0.5622 -0.2965  0.1423
 4581TIP3    H113749   5.511   2.472   2.035  0.5295  1.4189 -0.6752
 4581TIP3    H213750   5.600   2.505   2.154 -0.1065  2.1791 -0.3968
 4582TIP3   OH213751   5.328   3.705   4.764 -0.3323  0.1655  0.2403
 4582TIP3    H113752   5.366   3.747   4.841 -1.3479  2.8464 -0.5730
 4582TIP3    H213753   5.392   3.719   4.695 -0.8595  0.8169 -0.1337
 4583TIP3   OH213754   5.450   1.431   4.157  0.4388 -0.4538 -0.3535
 4583TIP3    H113755   5.442   1.417   4.252  1.4497 -0.4027 -0.2450
 4583TIP3    H213756   5.422   1.348   4.118  2.9291 -1.6068  0.1342
 4584TIP3   OH213757   4.815   1.629   1.150 -0.0342 -0.2064  0.0491
 4584TIP3    H113758   4.758   1.618   1.226 -0.1234  0.9195  0.1695
 4584TIP3    H213759   4.883   1.563   1.160 -0.2550 -0.3068  0.9054
 4585TIP3   OH213760   3.854   2.798   0.761 -0.3671  0.7312 -0.1248
 4585TIP3    H113761   3.835   2.757   0.677  2.1958  0.0125 -0.4194
 4585TIP3    H213762   3.843   2.728   0.825  1.0285  0.3617 -0.2758
 4586TIP3   OH213763   5.219   0.453   0.535  0.0404  0.2146 -0.3841
 4586TIP3    H113764   5.132   0.444   0.497  0.7034 -1.5983 -1.6196
 4586TIP3    H213765   5.245   0.363   0.557  0.3653  0.9937  2.9404
 4587TIP3   OH213766   4.955   3.634   4.756  0.5269 -0.3029  0.6797
 4587TIP3    H113767   4.880   3.638   4.815 -1.2762  0.8624 -1.5467
 4587TIP3    H213768   4.997   3.719   4.764  1.0571 -0.6046  1.1947
 4588TIP3   OH213769   4.452   5.818   2.597 -0.3833  0.0046  0.1937
 4588TIP3    H113770   4.405   5.743   2.559  0.8026 -0.7055  0.0899
 4588TIP3    H213771   4.476   5.872   2.522 -0.7711  0.2142  0.2196
 4589TIP3   OH213772   4.406   0.233   0.101 -0.2785 -0.3475  0.0978
 4589TIP3    H113773   4.457   0.263   0.026  0.3311  1.6509  1.2526
 4589TIP3    H213774   4.319   0.213   0.065  0.1687  0.0192 -1.2145
 4590TIP3   OH213775   5.529   0.308   3.656  0.2401  0.0618 -0.0240
 4590TIP3    H113776   5.557   0.293   3.566  0.4819  1.3766 -0.1862
 4590TIP3    H213777   5.582   0.382   3.686 -1.7095  1.4211  0.2747
 4591TIP3   OH213778   3.655   5.195   2.090 -0.0300 -0.1288  0.4498
 4591TIP3    H113779   3.748   5.181   2.108  0.5353  0.3876 -1.7339
 4591TIP3    H213780   3.647   5.183   1.995 -2.0087  0.8356  0.4412
 4592TIP3   OH213781   1.929   2.507   3.892 -0.4351  0.9012  0.1409
 4592TIP3    H113782   1.943   2.598   3.918 -0.1393  0.6363  0.9047
 4592TIP3    H213783   2.001   2.487   3.832 -0.3979  1.1125  0.1163
 4593TIP3   OH213784   2.102   3.257   2.232  0.0533 -0.4269 -0.1565
 4593TIP3    H113785   2.195   3.270   2.213  0.0075 -0.2517 -0.2665
 4593TIP3    H213786   2.071   3.343   2.261 -0.1086 -0.4459 -0.2697
 4594TIP3   OH213787   4.423   1.572   2.797 -0.0593 -0.0268  0.5287
 4594TIP3    H113788   4.340   1.530   2.773 -0.5040  1.4574 -0.7414
 4594TIP3    H213789   4.405   1.615   2.880 -0.2903 -0.4477  0.6989
 4595TIP3   OH213790   2.895   3.627   1.953 -0.0370 -0.1514 -0.0877
 4595TIP3    H113791   2.802   3.607   1.945  0.0079  0.1143 -1.3733
 4595TIP3    H213792   2.928   3.625   1.864  1.3896 -1.1571  0.4316
 4596TIP3   OH213793   1.001   2.284   2.634  0.2679 -0.0250 -0.2802
 4596TIP3    H113794   1.052   2.234   2.698 -0.4618  0.1216  0.4256
 4596TIP3    H213795   1.062   2.300   2.562 -0.0671 -3.9040 -1.6316
 4597TIP3   OH213796   1.507   5.166   0.095 -0.2396  0.3810 -0.3515
 4597TIP3    H113797   1.570   5.096   0.112 -0.6319 -0.3004 -1.5699
 4597TIP3    H213798   1.421   5.125   0.111 -0.4541  0.7022 -0.6727
 4598TIP3   OH213799   1.671   3.271   3.707  0.2118 -0.0182 -0.0521
 4598TIP3    H113800   1.625   3.252   3.625 -1.0787 -0.4723  0.7472
 4598TIP3    H213801   1.720   3.351   3.689  0.0275 -0.1578 -1.2834
 4599TIP3   OH213802   2.919   2.775   4.972  0.2819 -0.0901  0.0402
 4599TIP3    H113803   3.004   2.814   4.994  0.9004 -0.5570 -1.3823
 4599TIP3    H213804   2.920   2.770   4.876 -2.0834  1.5281 -0.1512
 4600TIP3   OH213805   0.644   1.478   3.093  0.3062 -0.0725  0.4466
 4600TIP3    H113806   0.668   1.524   3.173  1.7049 -1.8482  1.1010
 4600TIP3    H213807   0.598   1.400   3.122  1.0087 -0.8500 -0.4389
 4601TIP3   OH213808   2.396   1.381   3.760 -0.0667 -0.0861  0.2324
 4601TIP3    H113809   2.386   1.289   3.784  1.2339 -0.3190 -0.0455
 4601TIP3    H213810   2.352   1.389   3.676 -0.1525 -0.4606  0.2410
 4602TIP3   OH213811   2.205   3.096   2.923 -0.1331  0.3099  0.1337
 4602TIP3    H113812   2.114   3.112   2.895 -0.3992 -0.0543  0.7697
 4602TIP3    H213813   2.252   3.080   2.842 -0.5097  1.1229 -0.2611
 4603TIP3   OH213814   1.482   2.914   1.660 -0.4822 -0.1045 -0.1396
 4603TIP3    H113815   1.438   2.936   1.578 -1.5524 -1.1853  0.1174
 4603TIP3    H213816   1.564   2.874   1.633 -1.2311 -1.3090 -0.7413
 4604TIP3   OH213817   6.303   0.987   3.602  0.4419 -0.0345  0.3968
 4604TIP3    H113818   6.256   0.945   3.675 -0.6112 -1.0603 -0.8130
 4604TIP3    H213819   6.233   1.023   3.547  1.2005  0.3391 -0.3381
 4605TIP3   OH213820   5.216   4.960   3.154 -0.2437  0.0458 -0.2910
 4605TIP3    H113821   5.251   4.878   3.119  0.3694  1.3547 -2.9867
 4605TIP3    H213822   5.126   4.963   3.122 -0.0312  0.7386 -0.8533
 4606TIP3   OH213823   1.506   2.538   0.401 -0.7844 -0.5756 -0.0310
 4606TIP3    H113824   1.450   2.516   0.476 -0.5749  0.5169  0.4587
 4606TIP3    H213825   1.583   2.482   0.411 -2.0807 -2.7215 -1.1674
 4607TIP3   OH213826   2.211   5.125   4.342  0.5385 -0.2103  0.2822
 4607TIP3    H113827   2.205   5.190   4.271 -0.9059 -0.1507  0.4334
 4607TIP3    H213828   2.148   5.155   4.407  0.2735 -1.4502  0.6183
 4608TIP3   OH213829   4.724   5.859   3.477  0.4187 -0.3328 -0.7153
 4608TIP3    H113830   4.634   5.893   3.475 -0.1419 -1.5405  1.1487
 4608TIP3    H213831   4.720   5.779   3.424  0.8695  0.5427 -2.1230
 4609TIP3   OH213832   4.098   4.102   2.361 -0.3841 -0.5174  0.6053
 4609TIP3    H113833   4.026   4.157   2.332  0.1390 -0.9651 -1.7195
 4609TIP3    H213834   4.118   4.134   2.450 -0.4112  2.7332 -0.4220
 4610TIP3   OH213835   4.407   2.279   2.160  0.4832 -0.0001 -0.2587
 4610TIP3    H113836   4.322   2.235   2.155  0.6546 -0.3386 -0.1870
 4610TIP3    H213837   4.469   2.218   2.121  0.6984  0.2390 -0.2939
 4611TIP3   OH213838   0.879   1.648   1.578  0.1127 -0.3888  0.4783
 4611TIP3    H113839   0.878   1.664   1.672  0.0750 -0.0849  0.4276
 4611TIP3    H213840   0.787   1.644   1.554  0.1211 -0.0499  0.3860
 4612TIP3   OH213841   0.350   2.107   2.322  0.1828  0.4970 -0.1244
 4612TIP3    H113842   0.446   2.104   2.329  0.0862  0.4069  1.5588
 4612TIP3    H213843   0.320   2.028   2.367 -0.7548  2.0579  2.1626
 4613TIP3   OH213844   2.634   0.188   0.603 -0.2986 -0.1747 -0.0930
 4613TIP3    H113845   2.603   0.278   0.600 -1.4373 -0.5705 -2.2147
 4613TIP3    H213846   2.626   0.157   0.513 -1.3980 -2.8697  0.8301
 4614TIP3   OH213847   4.679   3.225   0.148 -0.2213  0.1116  0.1097
 4614TIP3    H113848   4.641   3.313   0.146 -1.0892 -0.1318  2.5000
 4614TIP3    H213849   4.641   3.181   0.071 -1.2975  1.2367 -0.0381
 4615TIP3   OH213850   4.854   5.195   2.446 -0.5579 -0.5025 -0.1228
 4615TIP3    H113851   4.814   5.262   2.390 -0.6379 -0.4959 -0.0588
 4615TIP3    H213852   4.945   5.222   2.454 -0.5695 -0.4494 -0.1699
 4616TIP3   OH213853   2.018   0.818   3.468  0.0540  0.5609  0.4067
 4616TIP3    H113854   2.037   0.813   3.562  1.7599 -1.7081  0.0075
 4616TIP3    H213855   2.056   0.901   3.440 -0.1216  1.0756  1.6264
 4617TIP3   OH213856   3.001   5.318   1.757 -0.1720  0.6636  0.5352
 4617TIP3    H113857   2.910   5.346   1.762  0.1248  1.6411  0.7645
 4617TIP3    H213858   3.051   5.400   1.756  0.6731  0.1597 -0.1988
 4618TIP3   OH213859   3.354   3.200   3.845 -0.0711 -0.3131 -0.1518
 4618TIP3    H113860   3.355   3.136   3.917  1.3901  0.6181  0.6954
 4618TIP3    H213861   3.420   3.264   3.869 -0.4509  0.7172 -1.7344
 4619TIP3   OH213862   4.686   1.316   1.174  0.2800 -0.2671 -0.2188
 4619TIP3    H113863   4.770   1.320   1.220 -0.6504 -0.0742  1.5699
 4619TIP3    H213864   4.708   1.286   1.086  1.9240 -3.2547  1.0634
 4620TIP3   OH213865   4.914   0.602   2.673 -0.5824  0.6829 -0.1037
 4620TIP3    H113866   4.934   0.598   2.767 -0.3478 -2.1751 -0.2010
 4620TIP3    H213867   4.822   0.577   2.666 -0.4603  0.3746 -0.6736
 4621TIP3   OH213868   4.298   1.624   1.381 -0.0904 -0.1043 -0.1277
 4621TIP3    H113869   4.348   1.593   1.457  0.5533 -0.7885 -0.8058
 4621TIP3    H213870   4.207   1.606   1.403 -0.0293  0.8215  0.9811
 4622TIP3   OH213871   4.756   2.423   4.699  0.1140  0.2243  0.6651
 4622TIP3    H113872   4.750   2.332   4.670 -0.0039  0.2369  0.6502
 4622TIP3    H213873   4.761   2.417   4.794 -0.5014  0.2279  0.7059
 4623TIP3   OH213874   1.385   4.384   5.066  0.1258  0.0241 -0.2670
 4623TIP3    H113875   1.381   4.456   5.129 -2.5949 -0.1172 -0.1614
 4623TIP3    H213876   1.376   4.426   4.980 -0.6751 -0.1098 -0.2548
 4624TIP3   OH213877   1.945   2.985   0.298  0.1921  0.5197  0.4750
 4624TIP3    H113878   1.949   3.025   0.385  0.9387  0.2031  0.5952
 4624TIP3    H213879   1.875   3.033   0.253  1.1657  2.0907  0.5469
 4625TIP3   OH213880   5.868   3.870   3.170 -0.0416 -0.1913  0.2373
 4625TIP3    H113881   5.932   3.864   3.100 -0.5678  3.0267 -0.6496
 4625TIP3    H213882   5.914   3.915   3.241 -0.9084  1.0999  0.0201
 4626TIP3   OH213883   4.024   1.464   3.379  0.3183 -0.2321  0.4042
 4626TIP3    H113884   4.026   1.377   3.339 -1.2654  0.2013 -0.7274
 4626TIP3    H213885   3.947   1.506   3.341  1.3021  1.8406  0.5491
 4627TIP3   OH213886   0.155   2.645   3.046 -0.3246  0.3998  0.2342
 4627TIP3    H113887   0.189   2.663   3.133  0.2274  0.1842  0.0682
 4627TIP3    H213888   0.211   2.574   3.013 -0.5376  0.4726 -0.2862
 4628TIP3   OH213889   4.876   1.250   4.633  0.0968  0.1898 -0.4166
 4628TIP3    H113890   4.966   1.217   4.636 -0.1901 -0.5258  0.6457
 4628TIP3    H213891   4.830   1.186   4.578  0.3222  0.8299 -1.3867
 4629TIP3   OH213892   5.688   1.491   0.782 -0.2053 -0.6707  0.0519
 4629TIP3    H113893   5.732   1.409   0.803 -0.9079 -0.3018  3.5597
 4629TIP3    H213894   5.677   1.535   0.867  1.0454  3.5734 -1.6905
 4630TIP3   OH213895   2.213   4.561   3.488  0.3000  0.1070 -0.0513
 4630TIP3    H113896   2.236   4.596   3.575 -0.4682  1.2240 -0.2754
 4630TIP3    H213897   2.252   4.624   3.427 -1.2563  0.7015 -0.4685
 4631TIP3   OH213898   1.041   1.963   0.775  0.1705 -0.5642 -0.2846
 4631TIP3    H113899   1.104   1.957   0.703  1.0683 -0.3600  0.4598
 4631TIP3    H213900   0.978   1.894   0.758 -0.5818  0.4924 -2.1488
 4632TIP3   OH213901   3.013   1.382   4.245  0.2138 -0.3425 -0.5581
 4632TIP3    H113902   3.009   1.450   4.178 -1.0566 -0.0550 -0.2143
 4632TIP3    H213903   3.076   1.415   4.310 -0.6305  0.6789 -0.2255
 4633TIP3   OH213904   1.902   3.988   0.392  0.2118 -0.0379 -0.0647
 4633TIP3    H113905   1.813   4.012   0.419  0.6762  1.1303  0.4800
 4633TIP3    H213906   1.914   3.900   0.428 -0.7806 -0.2848 -0.2990
 4634TIP3   OH213907   1.679   0.677   3.527  0.3524  0.0000 -0.4086
 4634TIP3    H113908   1.723   0.603   3.567  1.3587 -0.1896 -1.7671
 4634TIP3    H213909   1.675   0.744   3.596  3.4586  0.2901 -0.3653
 4635TIP3   OH213910   3.222   5.234   3.469 -0.5846  0.1893  0.0200
 4635TIP3    H113911   3.265   5.262   3.388 -0.9622 -0.1836 -0.3199
 4635TIP3    H213912   3.294   5.209   3.527 -0.3444 -1.6364 -0.9831
 4636TIP3   OH213913   5.159   3.875   1.665  0.0815  0.2068  0.4892
 4636TIP3    H113914   5.150   3.848   1.573  1.4687  1.5612 -0.0952
 4636TIP3    H213915   5.223   3.946   1.662  0.9368 -0.4118  2.6589
 4637TIP3   OH213916   2.927   4.911   3.599  0.0227 -0.5492 -0.1729
 4637TIP3    H113917   2.855   4.850   3.615  0.8749 -1.4976  0.1205
 4637TIP3    H213918   2.980   4.867   3.532 -0.0558  0.4835 -0.9431
 4638TIP3   OH213919   1.579   3.514   5.214 -0.2094 -0.1568 -0.0348
 4638TIP3    H113920   1.623   3.513   5.129  1.7551 -0.4713  0.9466
 4638TIP3    H213921   1.503   3.457   5.202 -0.7837  0.9085 -1.9553
 4639TIP3   OH213922   1.990   3.445   3.850 -0.1457  0.2541  0.0183
 4639TIP3    H113923   1.934   3.378   3.887  0.1001  0.2014  0.2970
 4639TIP3    H213924   1.938   3.485   3.781 -0.8582  0.8069  0.8613
 4640TIP3   OH213925   2.463   4.252   1.943  0.1213 -0.2889 -0.4122
 4640TIP3    H113926   2.525   4.318   1.973  0.3764 -0.5490 -0.3556
 4640TIP3    H213927   2.397   4.247   2.012 -0.2338  0.3395 -0.7018
 4641TIP3   OH213928   4.447   4.540   0.657  0.1618  0.1981 -0.7876
 4641TIP3    H113929   4.370   4.579   0.614 -0.9056  1.7439  2.2553
 4641TIP3    H213930   4.466   4.599   0.729  2.5399 -1.6489  0.2100
 4642TIP3   OH213931   4.300   2.533   0.474  0.1807  0.7513 -0.1072
 4642TIP3    H113932   4.341   2.486   0.402 -1.1343 -0.3878 -0.1532
 4642TIP3    H213933   4.338   2.621   0.471  2.4595 -0.1864 -0.2314
 4643TIP3   OH213934   1.901   5.212   5.038  0.3426 -0.0919 -0.5269
 4643TIP3    H113935   1.859   5.251   4.962 -4.1042  0.4292  1.8479
 4643TIP3    H213936   1.847   5.135   5.059  1.4376 -0.2892  1.9699
 4644TIP3   OH213937   4.889   0.240   4.725 -0.2400 -0.3382 -0.0642
 4644TIP3    H113938   4.948   0.299   4.773 -0.1335 -0.3936 -0.1270
 4644TIP3    H213939   4.936   0.219   4.645 -1.8811  2.7277 -2.0578
 4645TIP3   OH213940   2.236   2.458   4.760  0.5246 -0.1413 -0.2866
 4645TIP3    H113941   2.231   2.363   4.748 -0.1912 -0.2762  0.8980
 4645TIP3    H213942   2.258   2.470   4.853 -3.8834  0.8237  0.8671
 4646TIP3   OH213943   4.600   0.742   0.182 -0.1972  0.2049  0.2035
 4646TIP3    H113944   4.505   0.750   0.179 -0.2746 -0.7342 -1.5186
 4646TIP3    H213945   4.632   0.828   0.155 -0.5731  0.4332  0.4832
 4647TIP3   OH213946   5.900   2.518   1.814  0.1079  0.1374 -0.2251
 4647TIP3    H113947   5.972   2.529   1.752 -0.4374 -2.6356 -1.4900
 4647TIP3    H213948   5.870   2.429   1.800 -3.5963  1.1531  0.2561
 4648TIP3   OH213949   5.767   2.004   0.404 -0.3248 -0.5330  0.1384
 4648TIP3    H113950   5.689   1.965   0.363 -2.0290  0.7040  2.0462
 4648TIP3    H213951   5.809   2.052   0.333 -2.3429  0.2965 -0.5976
 4649TIP3   OH213952   3.750   1.213   0.474  0.1621 -0.1613  0.2644
 4649TIP3    H113953   3.754   1.304   0.502 -0.7329  0.5812 -1.8538
 4649TIP3    H213954   3.666   1.205   0.429  0.0063 -2.1749  0.8301
 4650TIP3   OH213955   3.153   4.436   0.716  0.2010  0.2149  0.2004
 4650TIP3    H113956   3.094   4.414   0.788 -0.2526  0.8079  0.0220
 4650TIP3    H213957   3.131   4.527   0.694  0.3788  0.0639 -0.6416
 4651TIP3   OH213958   0.241   4.371   1.978 -0.3246 -0.2087  0.2121
 4651TIP3    H113959   0.241   4.439   1.910  2.2670 -0.7338 -0.4469
 4651TIP3    H213960   0.167   4.393   2.034  0.1025  2.9020 -0.2238
 4652TIP3   OH213961   5.347   3.226   5.164  0.4010 -0.0129  0.1488
 4652TIP3    H113962   5.333   3.155   5.102 -0.5126  0.5433 -0.3084
 4652TIP3    H213963   5.332   3.186   5.250  0.1589 -0.4437 -0.0883
 4653TIP3   OH213964   2.164   0.503   2.912  0.3207 -0.2782 -0.3113
 4653TIP3    H113965   2.225   0.447   2.960  0.7541 -0.2700 -0.8488
 4653TIP3    H213966   2.150   0.457   2.829 -0.0637 -0.0627 -0.3679
 4654TIP3   OH213967   2.693   5.465   1.031  0.6059 -0.9334  0.2295
 4654TIP3    H113968   2.681   5.372   1.012  1.7205 -0.9685 -0.4368
 4654TIP3    H213969   2.788   5.477   1.029  0.4255  0.5846 -1.5915
 4655TIP3   OH213970   0.113   5.761   0.395  0.4710 -0.3751 -0.1219
 4655TIP3    H113971   0.066   5.784   0.315 -0.2953 -0.5479  0.2761
 4655TIP3    H213972   0.055   5.788   0.466  2.1444  2.0468  0.4713
 4656TIP3   OH213973   4.998   4.972   2.180  0.5500  0.6971  0.3730
 4656TIP3    H113974   4.938   4.953   2.251 -0.1569  0.4776 -0.2723
 4656TIP3    H213975   4.944   5.014   2.113  0.7959 -0.7618 -0.8005
 4657TIP3   OH213976   5.265   2.958   0.297 -0.8204  0.0787  0.1595
 4657TIP3    H113977   5.320   3.031   0.270 -1.6409  0.5132 -0.3760
 4657TIP3    H213978   5.239   2.916   0.216 -1.4782  0.0302  0.3875
 4658TIP3   OH213979   5.894   5.997   4.325  0.3627  0.1539  0.4470
 4658TIP3    H113980   5.949   6.017   4.401 -0.5212  0.8610  0.9082
 4658TIP3    H213981   5.821   5.947   4.361  0.2920 -0.1113 -0.0529
 4659TIP3   OH213982   0.178   2.277   2.110 -0.2364  0.0783 -0.4837
 4659TIP3    H113983   0.205   2.352   2.057 -2.4618  2.8864  1.9918
 4659TIP3    H213984   0.259   2.232   2.130  1.2597  1.9235 -1.9436
 4660TIP3   OH213985   1.139   4.128   1.999  0.4111 -0.4058  0.2508
 4660TIP3    H113986   1.117   4.066   2.068 -0.7316  0.7259  0.9592
 4660TIP3    H213987   1.139   4.076   1.919  2.6994 -1.9277  1.1716
 4661TIP3   OH213988   0.190   4.115   1.770  0.3807  0.0615 -0.2502
 4661TIP3    H113989   0.198   4.210   1.779 -0.3193  0.3379 -2.0331
 4661TIP3    H213990   0.213   4.080   1.856  2.2863  1.7303  0.0006
 4662TIP3   OH213991   6.216   4.487   4.465  0.1603  0.2694 -0.5694
 4662TIP3    H113992   6.202   4.408   4.517  0.4832  0.2997 -0.4390
 4662TIP3    H213993   6.170   4.556   4.513 -0.7230  0.0283 -1.0483
 4663TIP3   OH213994   2.399   0.994   4.000  0.0023  0.1445 -0.0531
 4663TIP3    H113995   2.309   1.002   4.030  0.1347  1.4083  0.0727
 4663TIP3    H213996   2.447   0.958   4.075 -0.5034 -1.2561 -0.3639
 4664TIP3   OH213997   1.628   4.238   0.381  0.7561  0.2399  0.1288
 4664TIP3    H113998   1.642   4.173   0.451  0.4993  0.7785  0.6839
 4664TIP3    H213999   1.536   4.228   0.357  0.6328  0.6301  0.4445
 4665TIP3   OH214000   6.010   2.253   3.157  0.3413  0.4821  0.1082
 4665TIP3    H114001   5.949   2.217   3.222  0.3576  2.2638  1.1659
 4665TIP3    H214002   6.080   2.188   3.153 -0.1047 -0.1134  1.1945
 4666TIP3   OH214003   0.704   3.879   3.848 -0.4416 -0.4534 -0.1257
 4666TIP3    H114004   0.615   3.915   3.857  0.2675  1.6013 -0.8421
 4666TIP3    H214005   0.691   3.784   3.851 -2.5291 -0.1944  0.8970
 4667TIP3   OH214006   5.442   1.226   4.842  0.5167 -0.0509  0.8301
 4667TIP3    H114007   5.454   1.276   4.922  0.2815  0.6398  0.4396
 4667TIP3    H214008   5.410   1.289   4.778 -0.6474 -0.8791  0.5601
 4668TIP3   OH214009   4.952   1.378   0.944 -0.2187 -0.6907 -0.2568
 4668TIP3    H114010   5.045   1.380   0.964 -0.6765 -0.5389  2.1066
 4668TIP3    H214011   4.942   1.441   0.872  1.3295  0.1973  0.2474
 4669TIP3   OH214012   4.915   1.511   4.508  0.1204 -0.4873 -0.4529
 4669TIP3    H114013   4.895   1.446   4.575  0.6959 -1.7456 -1.4387
 4669TIP3    H214014   4.846   1.577   4.516  0.5094 -0.2756  1.7386
 4670TIP3   OH214015   2.952   5.907   0.593  0.4094  0.3646  0.0336
 4670TIP3    H114016   3.029   5.930   0.646 -0.8113 -1.0209  2.6048
 4670TIP3    H214017   2.981   5.832   0.542  0.6058 -0.7222  1.6430
 4671TIP3   OH214018   5.183   1.008   2.684 -0.0668 -0.5066  0.0506
 4671TIP3    H114019   5.214   1.092   2.717 -1.5503  0.5555 -1.1597
 4671TIP3    H214020   5.263   0.961   2.660  0.7949  0.3875  1.0491
 4672TIP3   OH214021   4.025   0.690   0.733 -0.1951 -0.8700 -0.0577
 4672TIP3    H114022   4.080   0.617   0.706  0.2659 -0.0335 -1.4909
 4672TIP3    H214023   4.077   0.738   0.796  0.5489 -0.3573 -1.0412
 4673TIP3   OH214024   2.038   1.334   3.862 -0.2358 -0.5274  0.2842
 4673TIP3    H114025   2.078   1.341   3.948 -0.0035  1.2935  0.0619
 4673TIP3    H214026   1.990   1.251   3.864  0.6037 -1.0009  1.7920
 4674TIP3   OH214027   1.723   3.571   0.516  0.0339 -0.5837 -0.7142
 4674TIP3    H114028   1.768   3.495   0.552  0.2954 -1.7267 -3.2566
 4674TIP3    H214029   1.791   3.638   0.508 -0.3936  0.3935  2.4545
 4675TIP3   OH214030   0.629   3.379   0.870 -0.3019 -0.1932 -0.0108
 4675TIP3    H114031   0.631   3.436   0.947 -0.2966  0.8020 -0.7192
 4675TIP3    H214032   0.717   3.343   0.864  0.0606  0.6982 -0.2413
 4676TIP3   OH214033   0.548   1.443   3.759 -0.5548 -0.1818 -0.4583
 4676TIP3    H114034   0.460   1.435   3.723 -1.3169 -2.0128  1.6171
 4676TIP3    H214035   0.545   1.522   3.814 -1.1240 -0.5755  0.0926
 4677TIP3   OH214036   0.554   2.768   3.518 -0.4005 -0.8803 -0.3230
 4677TIP3    H114037   0.629   2.749   3.573 -0.6227 -0.6135  0.0780
 4677TIP3    H214038   0.522   2.682   3.490  0.9660 -0.9557 -1.7546
 4678TIP3   OH214039   4.385   2.779   0.503  0.1629  0.0360  0.0516
 4678TIP3    H114040   4.310   2.836   0.521 -0.7277 -1.2904  0.7023
 4678TIP3    H214041   4.423   2.814   0.422 -0.1165  1.7539  0.6243
 4679TIP3   OH214042   1.178   4.941   2.182 -0.0378 -0.0398 -0.5770
 4679TIP3    H114043   1.245   4.918   2.117  1.3113  1.1631  0.3142
 4679TIP3    H214044   1.119   5.000   2.137  1.2533  1.3019 -0.5842
 4680TIP3   OH214045   4.470   3.071   4.245  0.2909  0.2607 -0.8957
 4680TIP3    H114046   4.385   3.080   4.288  0.0166 -1.3468 -1.0223
 4680TIP3    H214047   4.450   3.076   4.152  0.4417  0.6636 -0.9044
 4681TIP3   OH214048   2.506   3.733   1.953  0.5101 -0.2953 -0.0309
 4681TIP3    H114049   2.431   3.736   1.894 -1.0167 -0.2627  1.8208
 4681TIP3    H214050   2.547   3.648   1.937  0.4840 -0.0555 -1.4945
 4682TIP3   OH214051   4.403   0.971   0.878 -0.5363  0.5011 -0.3484
 4682TIP3    H114052   4.430   1.016   0.798  0.6914  0.5347  0.0527
 4682TIP3    H214053   4.475   0.987   0.939 -0.3536 -1.4554  0.0176
 4683TIP3   OH214054   3.063   0.149   2.356 -0.4966 -0.0686 -0.1977
 4683TIP3    H114055   3.069   0.158   2.261 -0.8540  0.4162 -0.1752
 4683TIP3    H214056   3.125   0.213   2.390 -0.0880 -0.5019 -0.1005
 4684TIP3   OH214057   4.758   3.393   4.328  0.6764  0.0747 -0.0755
 4684TIP3    H114058   4.669   3.375   4.359  0.4511 -1.5161 -1.5131
 4684TIP3    H214059   4.752   3.385   4.233  1.9270  2.0682 -0.3669
 4685TIP3   OH214060   2.989   4.837   4.198  0.4765 -0.4024 -0.3708
 4685TIP3    H114061   2.928   4.773   4.237  0.5704  0.5536  1.4494
 4685TIP3    H214062   2.959   4.922   4.231  2.5053  0.1443  0.2212
 4686TIP3   OH214063   6.239   3.793   3.748 -0.3659  0.2333  0.5422
 4686TIP3    H114064   6.154   3.768   3.712  0.3200 -1.2543 -0.1159
 4686TIP3    H214065   6.262   3.874   3.701 -0.7335 -0.2004 -0.4153
 4687TIP3   OH214066   5.385   5.802   5.071 -0.5253 -0.0112  0.7311
 4687TIP3    H114067   5.385   5.710   5.043 -0.8235 -1.1859  4.1379
 4687TIP3    H214068   5.294   5.820   5.094 -0.1569  0.4841  1.8798
 4688TIP3   OH214069   0.882   5.352   0.610 -0.4336  0.3660 -0.6535
 4688TIP3    H114070   0.814   5.292   0.641 -0.5164  0.8122  0.0607
 4688TIP3    H214071   0.948   5.351   0.680 -0.7266  1.5612 -0.3422
 4689TIP3   OH214072   4.127   5.534   0.791  0.3151  0.3659 -0.2128
 4689TIP3    H114073   4.215   5.521   0.827  0.7714  1.5192 -0.8325
 4689TIP3    H214074   4.110   5.627   0.804 -0.0213  0.5507 -1.7919
 4690TIP3   OH214075   0.236   2.517   1.956 -0.2358 -0.0338 -0.2618
 4690TIP3    H114076   0.176   2.574   1.908  0.0170  1.0169  0.6325
 4690TIP3    H214077   0.322   2.557   1.943 -0.2710  0.8214  1.7864
 4691TIP3   OH214078   4.470   5.219   3.878 -0.1947 -0.5729  0.3411
 4691TIP3    H114079   4.563   5.220   3.855 -0.3553  0.8684 -0.4138
 4691TIP3    H214080   4.427   5.259   3.802 -1.1913  0.7643  1.5695
 4692TIP3   OH214081   4.425   4.869   0.583 -0.9326  0.7407  0.3005
 4692TIP3    H114082   4.457   4.949   0.624 -0.3374  1.1984 -0.9963
 4692TIP3    H214083   4.501   4.833   0.538 -0.6793 -1.6131  2.3911
 4693TIP3   OH214084   4.551   0.163   3.155  0.1379 -0.6734  0.6136
 4693TIP3    H114085   4.475   0.124   3.112 -0.3443  0.1160  0.7384
 4693TIP3    H214086   4.590   0.091   3.205 -0.6536 -1.0318  0.7277
 4694TIP3   OH214087   0.688   3.455   3.201  0.0957  0.1901  0.2060
 4694TIP3    H114088   0.755   3.414   3.146 -0.8310 -1.2860  0.1545
 4694TIP3    H214089   0.615   3.472   3.142 -0.5827 -0.6293  0.7928
 4695TIP3   OH214090   1.580   1.467   0.401 -0.1201 -0.2335  0.0018
 4695TIP3    H114091   1.556   1.480   0.310 -1.2399  0.6712  0.4015
 4695TIP3    H214092   1.614   1.378   0.405  2.2502  0.4968 -1.7566
 4696TIP3   OH214093   5.670   5.653   3.318  0.4069  0.0988  0.5421
 4696TIP3    H114094   5.669   5.724   3.254  0.8615  0.1799  0.6217
 4696TIP3    H214095   5.692   5.695   3.401  0.8245 -0.1548  0.5617
 4697TIP3   OH214096   6.284   0.763   1.631 -0.2828  1.0158  0.1904
 4697TIP3    H114097   6.374   0.784   1.607  0.1174  0.3240  1.0133
 4697TIP3    H214098   6.278   0.668   1.619 -0.0155  0.5946  2.8525
 4698TIP3   OH214099   2.119   5.173   4.808 -0.5528 -0.2618  0.2006
 4698TIP3    H114100   2.177   5.098   4.821  2.2001  1.4800 -1.1835
 4698TIP3    H214101   2.104   5.207   4.897 -0.1239 -1.2182  0.6483
 4699TIP3   OH214102   2.469   5.148   1.357 -0.0496  0.0809 -0.5562
 4699TIP3    H114103   2.491   5.119   1.445 -1.1159  0.2496 -0.2157
 4699TIP3    H214104   2.552   5.175   1.319  0.7065 -1.7100 -0.2670
 4700TIP3   OH214105   4.070   2.198   1.443  0.2942 -0.0505  0.5739
 4700TIP3    H114106   4.033   2.135   1.382  0.6350 -0.8373  1.1707
 4700TIP3    H214107   4.045   2.166   1.530  0.2760  0.7553  0.8803
 4701TIP3   OH214108   3.927   5.397  -0.004 -0.0336 -0.4243 -0.1165
 4701TIP3    H114109   3.899   5.314  -0.044 -1.2457  0.1541 -0.4984
 4701TIP3    H214110   3.966   5.371   0.079 -0.5843 -1.3718 -0.1351
 4702TIP3   OH214111   5.256   3.228   3.363  0.0235 -0.4094  0.1937
 4702TIP3    H114112   5.191   3.160   3.343  0.8458 -0.8946 -0.9658
 4702TIP3    H214113   5.214   3.283   3.429 -2.5167  0.6322 -2.0907
 4703TIP3   OH214114   5.587   3.538   3.101  0.1288  0.2893 -0.2619
 4703TIP3    H114115   5.612   3.510   3.013 -1.5602  0.0577 -0.6908
 4703TIP3    H214116   5.603   3.632   3.102  0.0371  0.3116 -0.8552
 4704TIP3   OH214117   3.362   5.097   2.570  0.0955  0.3079  0.0494
 4704TIP3    H114118   3.285   5.154   2.564 -1.1562 -1.3867 -0.9466
 4704TIP3    H214119   3.421   5.129   2.502  0.2000  1.4647  0.6513
 4705TIP3   OH214120   1.335   5.343   0.874 -0.3351 -0.1359  0.4590
 4705TIP3    H114121   1.321   5.330   0.781  0.1968  3.6867 -0.3039
 4705TIP3    H214122   1.413   5.291   0.894  0.3312  0.0275 -1.5339
 4706TIP3   OH214123   3.286   2.581   1.338  0.3046 -0.8713  0.1144
 4706TIP3    H114124   3.320   2.494   1.356 -2.2938 -2.1069 -0.3742
 4706TIP3    H214125   3.294   2.591   1.243 -1.2195 -1.4788 -0.1049
 4707TIP3   OH214126   1.853   1.656   4.564  0.0274  0.7216  0.4036
 4707TIP3    H114127   1.816   1.687   4.482 -0.4796 -0.7132  0.0675
 4707TIP3    H214128   1.830   1.724   4.628 -0.0856  1.5583 -0.5036
 4708TIP3   OH214129   4.003   1.163   4.068  0.2488  0.3103  0.4917
 4708TIP3    H114130   4.014   1.158   4.163  0.8543 -0.1263  0.4049
 4708TIP3    H214131   3.926   1.218   4.055  0.9730  1.5391  1.2055
 4709TIP3   OH214132   1.287   1.257   2.725  0.4303  0.2305  0.1408
 4709TIP3    H114133   1.247   1.280   2.809 -0.5867 -0.3024 -0.1806
 4709TIP3    H214134   1.369   1.213   2.748  0.8179  1.2754  0.8167
 4710TIP3   OH214135   4.597   5.010   4.721  0.2894  0.0267  0.2355
 4710TIP3    H114136   4.664   5.062   4.677  0.9990 -0.4458  0.7288
 4710TIP3    H214137   4.628   5.004   4.812 -0.4828 -0.0983  0.4953
 4711TIP3   OH214138   5.569   3.623   5.089 -0.1892 -0.1338 -0.2122
 4711TIP3    H114139   5.517   3.560   5.039 -0.1973 -0.5102  0.2580
 4711TIP3    H214140   5.568   3.703   5.037 -1.4648 -0.0450 -0.0723
 4712TIP3   OH214141   0.482   1.061   1.254  0.5952 -0.3789  0.1475
 4712TIP3    H114142   0.496   1.036   1.346  2.0102 -0.8551 -0.1687
 4712TIP3    H214143   0.570   1.076   1.220 -0.0182  1.5599 -0.6741
 4713TIP3   OH214144   5.028   3.477   2.898 -0.3205 -0.0551  0.0602
 4713TIP3    H114145   5.104   3.507   2.948 -1.6536  0.9970  1.5548
 4713TIP3    H214146   4.965   3.549   2.905 -1.5163 -0.9613 -1.0096
 4714TIP3   OH214147   6.123   5.660   2.443 -0.1218 -0.5344 -0.7326
 4714TIP3    H114148   6.119   5.755   2.433 -0.3804 -0.3729  0.6848
 4714TIP3    H214149   6.215   5.639   2.429 -0.0860 -0.0915 -1.1892
 4715TIP3   OH214150   3.328   3.171   2.066 -0.6740 -0.2313  0.0000
 4715TIP3    H114151   3.336   3.200   1.975  1.0372 -1.2951 -0.2260
 4715TIP3    H214152   3.240   3.134   2.071 -1.6759  1.8974 -0.5665
 4716TIP3   OH214153   3.605   5.234   2.844 -0.0708 -0.2682 -0.5858
 4716TIP3    H114154   3.624   5.235   2.750 -0.4373 -0.8886 -0.6691
 4716TIP3    H214155   3.689   5.256   2.885  0.1582 -0.2733 -1.0448
 4717TIP3   OH214156   2.746   0.112   1.328 -0.2335  0.4566 -0.2986
 4717TIP3    H114157   2.840   0.125   1.327  0.1379 -1.8199  0.3855
 4717TIP3    H214158   2.734   0.018   1.333 -2.5150  0.7372  1.5220
 4718TIP3   OH214159   4.269   4.891   2.661  0.4122  0.3766  0.1568
 4718TIP3    H114160   4.283   4.865   2.752  0.8410  0.7862  0.2145
 4718TIP3    H214161   4.184   4.854   2.637  0.3812  0.1184  0.6673
 4719TIP3   OH214162   2.073   5.684   3.725 -0.0463 -0.0503 -0.6751
 4719TIP3    H114163   2.021   5.711   3.649 -1.0821  2.9548  0.9278
 4719TIP3    H214164   2.152   5.737   3.720  0.2655 -0.4555 -0.1344
 4720TIP3   OH214165   0.308   3.186   1.507 -0.4904 -0.0371 -0.2368
 4720TIP3    H114166   0.252   3.126   1.556 -0.5591  0.0746 -0.1796
 4720TIP3    H214167   0.395   3.174   1.545 -1.0803  2.4668  2.2253
 4721TIP3   OH214168   4.717   2.926   1.398 -0.4394  0.0327  0.3641
 4721TIP3    H114169   4.734   3.004   1.450  3.2572 -0.3385  0.0131
 4721TIP3    H214170   4.706   2.959   1.308 -0.1086  0.2373  0.3976
 4722TIP3   OH214171   4.708   2.903   3.694 -0.2746  0.2435 -0.2861
 4722TIP3    H114172   4.763   2.937   3.624 -0.7822  0.3077 -0.6627
 4722TIP3    H214173   4.623   2.887   3.653 -0.8235  1.0310  0.4665
 4723TIP3   OH214174   5.542   1.472   1.868  0.4381 -0.0848  0.0574
 4723TIP3    H114175   5.539   1.380   1.841 -1.9755  0.6888 -2.8428
 4723TIP3    H214176   5.451   1.494   1.886  1.2136  1.2613  2.9110
 4724TIP3   OH214177   1.006   5.939   3.389  0.3040 -0.2241 -0.7610
 4724TIP3    H114178   0.950   5.888   3.330 -1.2568 -1.2876  1.5124
 4724TIP3    H214179   1.005   5.890   3.471 -0.0503  2.7044  1.1145
 4725TIP3   OH214180   6.081   4.942   2.144 -0.2198  0.0081 -0.3125
 4725TIP3    H114181   5.990   4.971   2.131 -0.6574 -1.4948 -0.7854
 4725TIP3    H214182   6.108   4.985   2.225 -1.2314  0.7669 -0.3598
 4726TIP3   OH214183   3.884   3.271   1.628  0.6061 -0.1450 -0.3811
 4726TIP3    H114184   3.951   3.218   1.671  0.0470 -0.7138 -0.1856
 4726TIP3    H214185   3.917   3.285   1.540  1.6211  0.7577  0.1149
 4727TIP3   OH214186   0.929   4.636   2.148  0.5529 -0.3339 -0.2066
 4727TIP3    H114187   0.876   4.713   2.125 -1.2082 -1.3962  0.1459
 4727TIP3    H214188   0.940   4.642   2.242 -1.4626 -1.5946  0.1664
 4728TIP3   OH214189   1.580   5.353   1.226 -0.1275 -0.1435  0.6220
 4728TIP3    H114190   1.652   5.395   1.178 -0.6694  0.0713 -0.0059
 4728TIP3    H214191   1.617   5.337   1.313  0.7280 -0.1493  0.2761
 4729TIP3   OH214192   3.233   5.075   4.596 -0.1246 -0.0685  0.2123
 4729TIP3    H114193   3.262   5.001   4.649 -2.0507 -0.8961  0.2072
 4729TIP3    H214194   3.262   5.152   4.645 -0.6355 -0.8243  1.7942
 4730TIP3   OH214195   4.704   5.674   2.736  0.2793 -0.5150  0.1969
 4730TIP3    H114196   4.701   5.702   2.644  0.8550 -1.1852 -0.0352
 4730TIP3    H214197   4.634   5.724   2.778  1.0048  0.9931 -0.2787
 4731TIP3   OH214198   4.343   2.621   2.899 -0.2174  0.0690 -0.2186
 4731TIP3    H114199   4.381   2.534   2.915  0.5131  0.1573 -1.3517
 4731TIP3    H214200   4.401   2.661   2.834  0.6240  2.2004  1.7270
 4732TIP3   OH214201   2.494   0.156   1.232  0.1420 -0.0337  0.6402
 4732TIP3    H114202   2.573   0.139   1.283 -0.3021 -1.3292  0.9266
 4732TIP3    H214203   2.519   0.137   1.142  0.0998 -0.6861  0.7611
 4733TIP3   OH214204   4.179   5.566   2.389  0.3756 -0.3969  0.2228
 4733TIP3    H114205   4.165   5.512   2.312  0.2655  0.4869 -0.3964
 4733TIP3    H214206   4.129   5.523   2.458  0.6989 -1.3516 -0.1195
 4734TIP3   OH214207   3.480   1.437   2.434 -0.0764  0.6935  0.2575
 4734TIP3    H114208   3.517   1.352   2.458 -0.0696  0.4479 -0.5733
 4734TIP3    H214209   3.409   1.451   2.496 -0.4566 -0.1971  0.0472
 4735TIP3   OH214210   1.070   5.536   0.177 -0.5523 -0.0658 -0.0200
 4735TIP3    H114211   1.143   5.475   0.187 -0.1709  0.4898  0.6035
 4735TIP3    H214212   1.052   5.567   0.265  0.0443  1.6333 -0.4585
 4736TIP3   OH214213   4.203   1.568   0.205  0.3204 -0.9675  0.6814
 4736TIP3    H114214   4.282   1.621   0.213 -0.1258 -0.0013 -0.8527
 4736TIP3    H214215   4.136   1.619   0.252  0.3735 -1.2906  1.1155
 4737TIP3   OH214216   0.708   1.559   3.373  0.6006 -0.0970  0.3378
 4737TIP3    H114217   0.727   1.644   3.413 -1.4096  0.1368  0.9010
 4737TIP3    H214218   0.614   1.547   3.386  0.5346 -1.6611 -1.2127
 4738TIP3   OH214219   3.700   2.470   1.217  0.2866 -0.3580  0.5908
 4738TIP3    H114220   3.795   2.455   1.214  0.3472  0.1669 -0.1928
 4738TIP3    H214221   3.673   2.433   1.301  1.0439 -1.3354  0.4210
 4739TIP3   OH214222   0.663   3.819   2.074  0.0311 -0.4817 -0.6502
 4739TIP3    H114223   0.579   3.828   2.028  0.0632 -2.3622 -1.1876
 4739TIP3    H214224   0.678   3.724   2.076  0.7375 -0.4079  1.9947
 4740TIP3   OH214225   5.317   1.418   1.463  0.3643  0.0337 -0.3824
 4740TIP3    H114226   5.237   1.432   1.513  0.0526  0.7873 -1.0547
 4740TIP3    H214227   5.347   1.507   1.441 -0.7994 -0.2108 -3.4957
 4741TIP3   OH214228   0.051   1.680   0.871  0.1866 -0.2630 -0.2627
 4741TIP3    H114229   0.088   1.769   0.875  1.5250 -0.7724 -0.9042
 4741TIP3    H214230   0.092   1.633   0.943  0.0227 -0.5662 -0.3639
 4742TIP3   OH214231   2.195   2.250   1.477  0.0165  0.3009  0.1958
 4742TIP3    H114232   2.267   2.295   1.520  0.7259 -0.4284 -0.1915
 4742TIP3    H214233   2.125   2.248   1.542  0.4013  0.8693  0.6391
 4743TIP3   OH214234   5.956   5.682   4.634  0.6058  0.0973 -0.7017
 4743TIP3    H114235   5.905   5.666   4.713  1.0534  1.0078 -0.2206
 4743TIP3    H214236   5.891   5.690   4.564  0.0880  1.2484 -0.0964
 4744TIP3   OH214237   4.510   1.370   3.209 -0.0968 -0.1381  0.3143
 4744TIP3    H114238   4.589   1.319   3.224 -0.7022 -0.7186  1.8096
 4744TIP3    H214239   4.454   1.314   3.155 -0.7191 -1.0831  1.8656
 4745TIP3   OH214240   2.697   0.993   0.902 -0.1050 -0.1490 -0.6579
 4745TIP3    H114241   2.632   1.041   0.951  0.4265  1.0901 -1.1286
 4745TIP3    H214242   2.771   0.983   0.962 -0.3001 -0.5775 -0.4878
 4746TIP3   OH214243   1.472   4.980   4.642 -0.1273 -0.6590 -0.6078
 4746TIP3    H114244   1.403   5.044   4.625  0.6559  0.2377 -0.4677
 4746TIP3    H214245   1.483   4.980   4.737  0.2936 -0.5441 -0.6531
 4747TIP3   OH214246   5.154   3.267   1.738  0.4404  1.0501  0.2825
 4747TIP3    H114247   5.156   3.362   1.726 -2.8818  1.1259 -0.5334
 4747TIP3    H214248   5.115   3.233   1.657  1.2045 -0.9994  0.7154
 4748TIP3   OH214249   4.707   1.532   0.680  0.0839  0.3539 -0.1139
 4748TIP3    H114250   4.627   1.505   0.725  1.4305 -1.3610  1.4036
 4748TIP3    H214251   4.684   1.529   0.587 -1.7501  0.4338  0.2958
 4749TIP3   OH214252   3.037   1.590   4.074  0.1784  0.4061 -0.1437
 4749TIP3    H114253   2.970   1.584   4.006  2.4630  0.9203 -2.6381
 4749TIP3    H214254   3.042   1.683   4.094  0.5363  0.4544 -0.4374
 4750TIP3   OH214255   4.681   4.470   3.527 -0.2577  0.2809 -0.0261
 4750TIP3    H114256   4.685   4.454   3.433 -1.5416  0.3919 -0.1125
 4750TIP3    H214257   4.772   4.487   3.552  0.1258  0.0518 -1.2016
 4751TIP3   OH214258   5.547   3.141   2.103 -0.1427 -0.0277 -0.1447
 4751TIP3    H114259   5.548   3.077   2.033 -1.3504  0.7715 -0.9458
 4751TIP3    H214260   5.455   3.165   2.112  0.2268  1.3126  0.3710
 4752TIP3   OH214261   6.262   5.315   4.162  0.6532 -0.0027  0.0552
 4752TIP3    H114262   6.246   5.223   4.182 -0.9331  0.1308 -0.4679
 4752TIP3    H214263   6.182   5.360   4.189  0.9050  1.0481 -0.8455
 4753TIP3   OH214264   6.326   2.464   4.508  0.0695 -0.7441 -0.8517
 4753TIP3    H114265   6.338   2.552   4.544 -1.1057 -0.3396 -1.4114
 4753TIP3    H214266   6.372   2.407   4.570  0.2757  0.1939 -0.1142
 4754TIP3   OH214267   1.934   1.591   2.234  0.1271  0.2755  0.1140
 4754TIP3    H114268   1.860   1.580   2.294 -1.3530  1.4432 -1.3910
 4754TIP3    H214269   1.979   1.507   2.236 -1.8504 -0.8417  0.3160
 4755TIP3   OH214270   3.479   4.666   2.192  1.1428  0.4675 -0.3078
 4755TIP3    H114271   3.450   4.740   2.245  0.6078  0.6739 -0.8812
 4755TIP3    H214272   3.521   4.706   2.116  1.2001  0.1789 -0.4301
 4756TIP3   OH214273   5.387   4.760   4.149 -0.4339  0.2374  0.0908
 4756TIP3    H114274   5.344   4.697   4.207 -1.4361 -0.5651 -1.4820
 4756TIP3    H214275   5.468   4.783   4.195  0.3849 -2.8085  0.3500
 4757TIP3   OH214276   5.330   3.914   0.444  0.6526 -0.3556 -0.1721
 4757TIP3    H114277   5.407   3.922   0.501 -1.2665 -0.6444  2.7154
 4757TIP3    H214278   5.311   4.004   0.418 -0.2133  0.3050  2.4033
 4758TIP3   OH214279   3.712   2.720   2.313 -0.0339  0.7077 -0.2909
 4758TIP3    H114280   3.806   2.738   2.317  0.3749 -0.0564 -3.4985
 4758TIP3    H214281   3.671   2.796   2.355  1.9511  2.2316 -0.9325
 4759TIP3   OH214282   4.353   5.542   3.167  0.0764  0.1299  0.3655
 4759TIP3    H114283   4.332   5.462   3.118  0.1638 -0.2739  0.9829
 4759TIP3    H214284   4.277   5.599   3.152  0.1199  0.0313 -0.2757
 4760TIP3   OH214285   0.233   4.772   0.630  0.2158  0.4273 -0.1261
 4760TIP3    H114286   0.172   4.811   0.567  1.2970  0.1420 -1.3903
 4760TIP3    H214287   0.268   4.695   0.586  1.2771  0.4169  0.6843
 4761TIP3   OH214288   4.617   2.365   4.406 -0.2285  0.0324  0.0298
 4761TIP3    H114289   4.640   2.441   4.460 -1.0647  0.1445  0.2469
 4761TIP3    H214290   4.636   2.290   4.462  1.2634  0.0222 -0.4316
 4762TIP3   OH214291   5.848   0.307   4.353  0.4322 -0.1613  0.4952
 4762TIP3    H114292   5.816   0.395   4.336 -0.0592 -0.4192  0.0295
 4762TIP3    H214293   5.876   0.274   4.267 -0.1674 -0.7514  0.5136
 4763TIP3   OH214294   6.290   5.399   2.334  0.1556  0.3660  0.2473
 4763TIP3    H114295   6.212   5.382   2.387  0.8624  0.2481  1.2698
 4763TIP3    H214296   6.338   5.466   2.383  1.9397 -1.3460  0.9559
 4764TIP3   OH214297   3.079   0.451   1.611 -0.0370  0.4440  0.1865
 4764TIP3    H114298   3.020   0.401   1.554  1.0256 -0.0834 -0.4783
 4764TIP3    H214299   3.020   0.501   1.668 -1.1315  1.0868 -1.4378
 4765TIP3   OH214300   1.751   5.589   1.950  0.0338 -0.4419 -0.2517
 4765TIP3    H114301   1.779   5.638   1.872  1.5250 -1.6373 -0.5237
 4765TIP3    H214302   1.782   5.642   2.023  2.2465 -1.2363 -0.5462
 4766TIP3   OH214303   3.810   3.792   2.049  0.2451 -0.4175 -0.5743
 4766TIP3    H114304   3.841   3.881   2.029 -0.3244  0.4153  1.8378
 4766TIP3    H214305   3.747   3.773   1.980  0.3669  1.0949 -1.1483
 4767TIP3   OH214306   1.554   3.676   1.360 -0.3139 -0.0404  0.1138
 4767TIP3    H114307   1.593   3.628   1.286 -1.0912 -0.7452  0.1527
 4767TIP3    H214308   1.463   3.689   1.335 -0.7710 -0.9189  1.2479
 4768TIP3   OH214309   3.540   1.249   0.687 -0.6272  0.5648 -0.3021
 4768TIP3    H114310   3.525   1.212   0.773  2.6158  1.2525  0.7234
 4768TIP3    H214311   3.633   1.274   0.688 -0.6688  1.3538 -3.7081
 4769TIP3   OH214312   1.586   5.248   4.140 -0.7046 -0.3163  0.0367
 4769TIP3    H114313   1.577   5.314   4.072  0.6450  1.0499  1.1180
 4769TIP3    H214314   1.585   5.164   4.093  2.1946  0.6233 -1.9721
 4770TIP3   OH214315   3.870   3.111   4.794 -0.3297 -0.5056 -0.3075
 4770TIP3    H114316   3.922   3.181   4.755 -0.2707 -0.3715  0.0031
 4770TIP3    H214317   3.842   3.056   4.720 -1.1976  0.3930 -0.6667
 4771TIP3   OH214318   5.559   1.875   0.264  0.2974  0.0983  0.0686
 4771TIP3    H114319   5.480   1.852   0.214 -0.3819 -0.1386  1.1956
 4771TIP3    H214320   5.548   1.829   0.347  2.0735 -0.6604 -0.0683
 4772TIP3   OH214321   5.698   2.047   0.086  0.4365 -0.0632 -0.0678
 4772TIP3    H114322   5.761   1.976   0.096 -0.6453 -1.0542 -0.0623
 4772TIP3    H214323   5.621   2.017   0.134 -0.7627  0.2052 -1.7441
 4773TIP3   OH214324   2.456   2.306   2.694  0.3611  0.3319  0.0409
 4773TIP3    H114325   2.370   2.314   2.736  0.8298  0.0172  1.0970
 4773TIP3    H214326   2.510   2.371   2.739  0.2502  1.7969 -1.8282
 4774TIP3   OH214327   2.257   4.537   4.780 -0.0015  0.0444  0.4501
 4774TIP3    H114328   2.281   4.619   4.824  1.4847 -0.1984  0.1352
 4774TIP3    H214329   2.221   4.564   4.696 -0.4800  0.4063  0.7655
 4775TIP3   OH214330   3.584   3.632   4.308  0.1158  0.3618  0.0678
 4775TIP3    H114331   3.592   3.549   4.355  0.6691 -0.3751 -1.2675
 4775TIP3    H214332   3.512   3.677   4.352  2.3629  1.0212  3.4554
 4776TIP3   OH214333   6.215   2.643   4.883  0.5906 -0.0617 -0.3103
 4776TIP3    H114334   6.209   2.731   4.848 -0.7717 -0.2866 -0.6953
 4776TIP3    H214335   6.292   2.604   4.840 -1.3591 -0.5761 -3.6803
 4777TIP3   OH214336   1.305   4.889   0.861 -0.5307 -0.1307  0.1069
 4777TIP3    H114337   1.289   4.962   0.801 -2.5232  2.4215  3.3568
 4777TIP3    H214338   1.382   4.916   0.911 -0.1557 -1.1846  0.1169
 4778TIP3   OH214339   2.305   3.060   1.559  0.3681  0.0882 -0.6029
 4778TIP3    H114340   2.321   3.003   1.484 -0.0992 -0.8865  0.0203
 4778TIP3    H214341   2.329   3.008   1.635  1.8270  1.4204 -0.0976
 4779TIP3   OH214342   5.021   1.642   2.073 -0.1910 -0.1939 -0.2040
 4779TIP3    H114343   5.010   1.730   2.107 -3.4199 -0.3962 -0.4107
 4779TIP3    H214344   5.059   1.592   2.145  2.0563  1.3514 -0.2116
 4780TIP3   OH214345   0.050   1.383   3.182 -0.2127 -0.4440  0.9389
 4780TIP3    H114346   0.091   1.369   3.268 -0.1671 -0.3854  0.9268
 4780TIP3    H214347  -0.038   1.415   3.202  0.6930  2.2797  0.9769
 4781TIP3   OH214348   3.814   3.957   3.586  0.4000  0.5118 -0.4463
 4781TIP3    H114349   3.855   4.042   3.571 -2.2458  1.8253 -0.9683
 4781TIP3    H214350   3.808   3.949   3.681  1.3394  0.5362 -0.3777
 4782TIP3   OH214351   5.880   1.229   3.150 -0.5884 -0.1073  0.7518
 4782TIP3    H114352   5.839   1.218   3.236 -1.1170 -2.9896  0.2437
 4782TIP3    H214353   5.818   1.283   3.101 -1.0209  0.2960  1.7148
 4783TIP3   OH214354   4.434   2.269   3.584  0.1114 -0.1861  0.4064
 4783TIP3    H114355   4.375   2.344   3.574  0.8467  0.4943  0.9900
 4783TIP3    H214356   4.462   2.248   3.495 -0.7022 -0.2706  0.1629
 4784TIP3   OH214357   4.163   4.361   1.973 -0.1987  0.4136  0.5622
 4784TIP3    H114358   4.232   4.334   1.913  0.8117  1.5115  1.1786
 4784TIP3    H214359   4.086   4.311   1.945  0.5584 -0.0463 -0.8232
 4785TIP3   OH214360   0.428   1.938   2.664  1.2472  0.2592 -0.0486
 4785TIP3    H114361   0.480   1.954   2.585  0.2930 -1.5461 -1.1003
 4785TIP3    H214362   0.482   1.879   2.717  1.5696  0.8824  0.3343
 4786TIP3   OH214363   4.814   2.017   2.279  0.3687 -0.5521 -0.1668
 4786TIP3    H114364   4.761   1.937   2.280 -1.2116  0.4697  0.1252
 4786TIP3    H214365   4.787   2.065   2.357  1.0250  0.4660 -0.5528
 4787TIP3   OH214366   3.738   4.733   3.400 -0.6171 -0.3261  0.2341
 4787TIP3    H114367   3.779   4.671   3.339 -1.3188  0.4029 -1.0155
 4787TIP3    H214368   3.691   4.794   3.344 -0.7589  0.7571  1.4941
 4788TIP3   OH214369   1.752   0.099   4.598  0.3187  0.1767  0.1192
 4788TIP3    H114370   1.837   0.140   4.613  0.0493  0.2117  1.8515
 4788TIP3    H214371   1.730   0.059   4.683  0.5287 -3.5514 -1.4038
 4789TIP3   OH214372   5.891   2.049   0.967 -0.0207 -0.0215 -0.0106
 4789TIP3    H114373   5.872   2.128   1.017  0.8538  0.5647 -0.5861
 4789TIP3    H214374   5.814   1.993   0.980  0.6638 -0.4360  3.0120
 4790TIP3   OH214375   1.357   4.353   2.448 -0.4092 -0.0392  0.2225
 4790TIP3    H114376   1.365   4.315   2.361  0.0767  1.1443 -0.2753
 4790TIP3    H214377   1.431   4.319   2.497 -0.3027 -0.1772 -0.0336
 4791TIP3   OH214378   4.512   0.374   3.788 -0.3983  0.0418  0.1534
 4791TIP3    H114379   4.601   0.386   3.820 -0.5373  1.7085  0.0344
 4791TIP3    H214380   4.457   0.380   3.867 -0.4485 -0.1792  0.1339
 4792TIP3   OH214381   0.876   0.698   4.077 -0.1750 -0.3019 -0.7838
 4792TIP3    H114382   0.815   0.650   4.133 -0.4324 -0.0374 -0.8307
 4792TIP3    H214383   0.822   0.766   4.036  0.7559  2.0388  1.6192
 4793TIP3   OH214384   0.216   0.401   0.390 -0.3470  0.8829  0.9263
 4793TIP3    H114385   0.197   0.347   0.314 -1.3233  0.5446  1.4006
 4793TIP3    H214386   0.305   0.433   0.375  0.4473 -1.2450  0.8719
 4794TIP3   OH214387   6.168   1.159   0.096  0.0372 -0.4008 -0.1332
 4794TIP3    H114388   6.193   1.099   0.025 -1.8494 -1.0828 -0.3007
 4794TIP3    H214389   6.138   1.238   0.051 -0.3682 -0.5179 -0.0771
 4795TIP3   OH214390   1.100   4.427   2.979  0.0629  0.2007  0.1859
 4795TIP3    H114391   1.053   4.346   2.997 -1.1422  0.6713 -0.7308
 4795TIP3    H214392   1.190   4.399   2.963 -0.4805 -1.0560 -0.8745
 4796TIP3   OH214393   0.778   2.045   1.876  0.0005 -0.0176  0.1086
 4796TIP3    H114394   0.871   2.065   1.879 -0.2736  1.4317 -0.4934
 4796TIP3    H214395   0.754   2.052   1.783 -0.3138 -2.4499 -0.0809
 4797TIP3   OH214396   5.330   0.895   3.816 -0.5844  0.2744 -0.0756
 4797TIP3    H114397   5.373   0.930   3.738 -0.1108  0.0552  0.0795
 4797TIP3    H214398   5.355   0.803   3.817 -0.9193  0.1868  0.1146
 4798TIP3   OH214399   4.468   0.312   2.022  0.2412  0.4509 -0.2950
 4798TIP3    H114400   4.513   0.396   2.030  0.2341  0.4798 -0.5427
 4798TIP3    H214401   4.515   0.266   1.953 -1.1418  1.1641 -1.7757
 4799TIP3   OH214402   2.359   2.094   1.316  0.8138  0.2831  0.5978
 4799TIP3    H114403   2.303   2.127   1.386  0.8725  1.7246 -0.0054
 4799TIP3    H214404   2.355   1.998   1.325 -0.4786  0.4033  1.5383
 4800TIP3   OH214405   6.031   1.675   2.076 -0.4483  0.1062  0.6894
 4800TIP3    H114406   5.949   1.647   2.035 -0.1926  0.4934 -0.1110
 4800TIP3    H214407   6.067   1.740   2.015 -0.3768  1.1914  1.8509
 4801TIP3   OH214408   4.773   3.950   1.461 -0.2567 -0.0435 -0.1449
 4801TIP3    H114409   4.679   3.971   1.461 -0.2598  0.0442  1.2774
 4801TIP3    H214410   4.816   4.035   1.467 -0.1328 -0.1364  0.3840
 4802TIP3   OH214411   3.922   5.925   1.026  0.1279 -0.1394  0.5054
 4802TIP3    H114412   3.905   5.865   1.099  1.2354  0.2081  1.0837
 4802TIP3    H214413   3.836   5.957   1.000 -0.2637 -0.0336  1.8781
 4803TIP3   OH214414   5.319   0.447   0.195 -0.2881 -0.5391 -0.0936
 4803TIP3    H114415   5.406   0.419   0.167 -0.9589  0.8039 -4.1771
 4803TIP3    H214416   5.321   0.542   0.187 -2.1520 -0.4984 -0.4549
 4804TIP3   OH214417   3.800   4.437   3.584  0.6726 -0.4074 -0.5263
 4804TIP3    H114418   3.779   4.481   3.667  2.6812  1.5760 -0.9824
 4804TIP3    H214419   3.726   4.458   3.527  0.6728  0.7506 -0.1290
 4805TIP3   OH214420   1.862   2.701   3.283 -0.0740  0.6748 -0.0592
 4805TIP3    H114421   1.828   2.626   3.331 -0.1654  0.9112  0.2470
 4805TIP3    H214422   1.794   2.768   3.291 -0.0046  0.7849 -0.3519
 4806TIP3   OH214423   1.205   0.869   0.663  0.1161  0.2935  0.2925
 4806TIP3    H114424   1.124   0.821   0.680  1.0207 -0.7437  2.0123
 4806TIP3    H214425   1.176   0.954   0.629 -1.6808 -0.1034  0.7326
 4807TIP3   OH214426   5.869   2.552   3.624  0.5130  0.1392  0.3728
 4807TIP3    H114427   5.909   2.508   3.549  1.6409  1.3581  0.2228
 4807TIP3    H214428   5.933   2.544   3.694  0.8724  1.7453  0.2642
 4808TIP3   OH214429   3.116   3.297   4.330  0.0673  0.1342  0.3892
 4808TIP3    H114430   3.159   3.370   4.286 -2.2151  1.4161  0.1457
 4808TIP3    H214431   3.115   3.321   4.422 -0.1379  0.1067  0.3944
 4809TIP3   OH214432   1.792   5.020   3.756  0.0688 -0.2671 -0.1286
 4809TIP3    H114433   1.748   5.015   3.671  2.7877  0.3022 -1.6807
 4809TIP3    H214434   1.805   5.114   3.770  3.5744 -0.3954 -1.4182
 4810TIP3   OH214435   1.628   0.026   1.077  0.2136  0.5219 -0.3122
 4810TIP3    H114436   1.671  -0.033   1.139  0.5780  1.0089 -0.0968
 4810TIP3    H214437   1.657   0.114   1.103 -2.6185  1.1101  1.2511
 4811TIP3   OH214438   3.841   1.049   3.533 -0.2381  0.3392 -0.1934
 4811TIP3    H114439   3.748   1.031   3.524 -0.1031  0.0166 -1.0574
 4811TIP3    H214440   3.882   0.963   3.534  0.1487  0.5062 -1.0611
 4812TIP3   OH214441   4.335   1.043   4.235  0.2068 -0.2900  0.0526
 4812TIP3    H114442   4.353   1.117   4.294  1.7867 -1.4015  1.0480
 4812TIP3    H214443   4.306   1.084   4.154 -2.9478  1.3164  1.7801
 4813TIP3   OH214444   3.557   1.263   4.735 -0.0581  0.6953  0.0167
 4813TIP3    H114445   3.545   1.352   4.702  1.4522  0.4480 -1.3426
 4813TIP3    H214446   3.473   1.240   4.774 -0.9791  2.1565 -1.0217
 4814TIP3   OH214447   3.664   0.973   0.016  0.6819 -0.3472  0.3037
 4814TIP3    H114448   3.593   0.914  -0.009  1.8892 -0.5519 -3.2999
 4814TIP3    H214449   3.704   0.931   0.092 -1.4918 -1.5112  0.8901
 4815TIP3   OH214450   4.802   4.754   3.635  0.1500  0.4361  0.0230
 4815TIP3    H114451   4.779   4.842   3.666 -0.4293  0.0954  0.5788
 4815TIP3    H214452   4.817   4.704   3.716 -1.9952 -0.6451 -0.1765
 4816TIP3   OH214453   1.390   0.444   3.755 -0.2254  0.1677 -0.0532
 4816TIP3    H114454   1.317   0.429   3.696 -0.4309  2.1128 -0.3701
 4816TIP3    H214455   1.385   0.537   3.776  0.9012 -0.0996  1.6250
 4817TIP3   OH214456   4.458   0.981   2.318  0.3739 -0.0856 -0.2519
 4817TIP3    H114457   4.373   0.966   2.360 -0.0435  1.8153 -0.2886
 4817TIP3    H214458   4.510   0.904   2.340 -0.6154 -0.2554  1.7422
 4818TIP3   OH214459   3.257   1.461   2.587 -0.0861 -0.1660  0.3895
 4818TIP3    H114460   3.218   1.402   2.522 -1.5906 -2.2610  2.9847
 4818TIP3    H214461   3.183   1.490   2.640  1.1491  0.9357  1.5950
 4819TIP3   OH214462   3.997   3.354   0.461  0.3238  0.7729  0.5152
 4819TIP3    H114463   4.067   3.335   0.398 -0.4005  1.4536 -0.5319
 4819TIP3    H214464   4.028   3.432   0.507  0.2959  1.0339  0.1021
 4820TIP3   OH214465   2.928   0.984   1.418  0.0498 -0.3573  0.0152
 4820TIP3    H114466   2.901   0.948   1.503  2.4117 -0.1847  0.9108
 4820TIP3    H214467   2.886   1.070   1.414  1.8797  0.7585  2.2632
 4821TIP3   OH214468   0.679   3.230   1.188 -0.1647  0.5761 -0.5761
 4821TIP3    H114469   0.706   3.318   1.161 -0.9880  0.3943 -2.1263
 4821TIP3    H214470   0.584   3.235   1.192 -0.2422 -0.3352 -1.0885
 4822TIP3   OH214471   4.841   4.323   2.391 -0.4427 -0.5303  0.6038
 4822TIP3    H114472   4.844   4.236   2.352 -0.8162 -0.9450  1.4649
 4822TIP3    H214473   4.861   4.383   2.319 -1.8412 -1.2163 -0.3829
 4823TIP3   OH214474   2.536   2.771   2.090  0.6916  0.2863  0.1491
 4823TIP3    H114475   2.609   2.826   2.119 -0.8845  3.4916 -1.3468
 4823TIP3    H214476   2.463   2.796   2.146 -0.0693 -0.3789 -0.5099
 4824TIP3   OH214477   2.982   5.696   5.099  0.3968  0.2111  0.0810
 4824TIP3    H114478   2.901   5.740   5.074  1.4370  1.0854 -1.9656
 4824TIP3    H214479   3.043   5.715   5.028  2.4377 -0.3765  1.5753
 4825TIP3   OH214480   3.510   4.884   0.617  0.1881 -0.3262  0.0935
 4825TIP3    H114481   3.552   4.799   0.609  2.6861  0.5414  2.2712
 4825TIP3    H214482   3.438   4.882   0.554  2.0092 -2.8953 -2.1586
 4826TIP3   OH214483   0.599   1.969   0.885  0.6026  0.4709 -0.7931
 4826TIP3    H114484   0.674   2.011   0.926 -1.2299  1.7643  1.4245
 4826TIP3    H214485   0.601   2.000   0.794  1.7945  1.8237 -0.3400
 4827TIP3   OH214486   5.453   1.212   0.204  0.3616  0.5186  0.3903
 4827TIP3    H114487   5.502   1.130   0.209 -0.6913 -0.1986 -0.5519
 4827TIP3    H214488   5.477   1.259   0.284 -0.2709 -1.4352  1.8357
 4828TIP3   OH214489   0.439   5.710   5.017 -0.2063  0.4942 -0.3543
 4828TIP3    H114490   0.393   5.654   4.955  0.8707 -0.9027  0.0707
 4828TIP3    H214491   0.465   5.787   4.965  0.4132 -0.5052 -1.5838
 4829TIP3   OH214492   2.031   3.153   4.445 -0.2965 -0.2165 -0.2281
 4829TIP3    H114493   2.013   3.067   4.484 -2.3916  0.3912  0.2502
 4829TIP3    H214494   1.947   3.182   4.409  0.6997  0.9937 -1.7508
 4830TIP3   OH214495   2.944   4.540   2.400  0.3193 -0.3620 -0.0827
 4830TIP3    H114496   3.031   4.500   2.409  0.3752 -0.4998 -1.0940
 4830TIP3    H214497   2.941   4.570   2.309  0.0485  1.4218  0.4815
 4831TIP3   OH214498   0.606   1.569   4.148  0.3595 -0.4219 -0.0222
 4831TIP3    H114499   0.602   1.603   4.059  0.6062 -2.6598 -0.9540
 4831TIP3    H214500   0.516   1.574   4.180  0.1169 -0.3425 -0.6993
 4832TIP3   OH214501   0.255   3.012   0.762 -0.2940  0.1758  0.0236
 4832TIP3    H114502   0.324   3.047   0.818 -0.7158 -0.2340  0.8044
 4832TIP3    H214503   0.299   2.992   0.679  0.6649 -0.6937  0.7265
 4833TIP3   OH214504   4.253   3.522   3.224 -0.6250  0.2006 -0.1366
 4833TIP3    H114505   4.320   3.557   3.281 -0.3471  0.7590 -0.7919
 4833TIP3    H214506   4.282   3.433   3.204 -0.2897  0.3010 -0.0964
 4834TIP3   OH214507   3.465   0.888   4.395 -0.0216  0.4559  0.1530
 4834TIP3    H114508   3.430   0.813   4.345 -0.9697  0.5314  0.6892
 4834TIP3    H214509   3.532   0.925   4.337 -1.1271  0.5742 -1.1197
 4835TIP3   OH214510   1.633   0.496   1.045  0.0073  0.1229  0.0769
 4835TIP3    H114511   1.580   0.446   0.983  0.5571 -0.6132  0.1768
 4835TIP3    H214512   1.680   0.429   1.095  0.0183  0.7216  0.8904
 4836TIP3   OH214513   4.111   5.308   0.250  0.0949  0.2158 -0.0017
 4836TIP3    H114514   4.179   5.366   0.216 -0.8698  0.3597 -1.8508
 4836TIP3    H214515   4.079   5.351   0.329  1.7898  0.3653  0.6583
 4837TIP3   OH214516   4.430   0.678   2.274  0.4039  0.0351 -0.0919
 4837TIP3    H114517   4.397   0.617   2.340 -0.0401 -0.5400 -0.8414
 4837TIP3    H214518   4.370   0.670   2.201  0.9356  0.6180 -0.6049
 4838TIP3   OH214519   4.733   0.625   3.102 -0.2297  0.7264 -0.1364
 4838TIP3    H114520   4.662   0.629   3.038  0.6744  0.6065 -1.1836
 4838TIP3    H214521   4.812   0.616   3.049  0.5664  0.7980  1.0034
 4839TIP3   OH214522   2.091   4.808   1.951 -0.2307 -0.0240 -0.8440
 4839TIP3    H114523   2.102   4.790   1.858  1.3289  0.7609 -0.8421
 4839TIP3    H214524   2.178   4.833   1.981 -0.7291 -0.1543  0.8110
 4840TIP3   OH214525   2.254   5.058   2.908  0.3541 -0.0197  0.5039
 4840TIP3    H114526   2.257   4.964   2.923  0.3729  0.1131  1.3802
 4840TIP3    H214527   2.202   5.092   2.980 -1.7779  0.3899 -1.1121
 4841TIP3   OH214528   5.369   0.395   5.153  0.5292 -0.0186 -0.3488
 4841TIP3    H114529   5.378   0.380   5.247 -2.2613 -1.3414 -0.2085
 4841TIP3    H214530   5.348   0.488   5.146 -0.5780 -0.1930  0.4703
 4842TIP3   OH214531   2.563   0.608   3.305 -0.5677 -0.7512  0.1452
 4842TIP3    H114532   2.504   0.642   3.237 -3.4756  1.4477  3.4391
 4842TIP3    H214533   2.608   0.685   3.339  1.4149 -1.9096  0.3258
 4843TIP3   OH214534   6.102   3.801   2.597 -0.2883  0.2340 -0.2440
 4843TIP3    H114535   6.074   3.785   2.687 -0.1075  1.2964  0.0168
 4843TIP3    H214536   6.083   3.893   2.582 -0.0246  0.1432 -1.1902
 4844TIP3   OH214537   6.238   3.617   2.346  0.5879 -0.3359  0.1172
 4844TIP3    H114538   6.173   3.557   2.310 -0.4097  0.4052  0.6356
 4844TIP3    H214539   6.193   3.701   2.353  1.8712  0.4221 -0.3354
 4845TIP3   OH214540   5.867   4.510   2.834 -0.1262  0.1236  0.1609
 4845TIP3    H114541   5.888   4.590   2.787  0.6815  0.4244  1.0008
 4845TIP3    H214542   5.937   4.501   2.899  0.3777 -1.8084 -0.5831
 4846TIP3   OH214543   1.145   0.990   4.350 -0.2994  0.0054  0.0396
 4846TIP3    H114544   1.085   1.059   4.376 -0.4514  0.1329 -0.6330
 4846TIP3    H214545   1.198   0.972   4.428 -0.6389  0.4853  0.3759
 4847TIP3   OH214546   3.314   4.703   0.748  0.3543 -0.5377  0.5969
 4847TIP3    H114547   3.381   4.759   0.708 -0.3973  1.0354  1.4476
 4847TIP3    H214548   3.234   4.757   0.748 -1.1586 -2.5896 -1.0414
 4848TIP3   OH214549   6.194   0.295   0.315  0.5212  0.3357 -0.5073
 4848TIP3    H114550   6.181   0.303   0.220 -0.0465  0.3525 -0.4315
 4848TIP3    H214551   6.106   0.282   0.350  0.5279  1.8094  0.1545
 4849TIP3   OH214552   3.285   3.445   4.135  0.2837 -0.0237 -0.0896
 4849TIP3    H114553   3.312   3.536   4.150  2.0848 -0.7217  1.2967
 4849TIP3    H214554   3.361   3.403   4.094 -0.2953 -1.0303 -0.1689
 4850TIP3   OH214555   1.566   2.962   4.333  0.4444  0.1744 -0.2101
 4850TIP3    H114556   1.649   3.008   4.344  0.5051 -0.1748  0.9270
 4850TIP3    H214557   1.587   2.886   4.279  0.4898  1.0455 -1.4686
 4851TIP3   OH214558   2.878   0.643   1.681 -0.5248  0.1491 -0.5308
 4851TIP3    H114559   2.824   0.708   1.636 -1.7632 -0.5906 -0.1669
 4851TIP3    H214560   2.952   0.693   1.716 -1.9092  1.5443  0.5289
 4852TIP3   OH214561   5.138   0.893   4.433  0.3661 -0.0586  0.0586
 4852TIP3    H114562   5.073   0.865   4.498 -0.8293  4.0914  1.0020
 4852TIP3    H214563   5.133   0.828   4.364 -3.6048 -0.9118  0.8933
 4853TIP3   OH214564   4.659   2.631   3.039  0.0345  0.5430  0.0951
 4853TIP3    H114565   4.604   2.553   3.052 -0.8964  0.8195 -1.8384
 4853TIP3    H214566   4.730   2.621   3.104 -0.4526 -1.5293  0.3929
 4854TIP3   OH214567   1.897   5.593   4.011  0.0828  0.2251  0.1869
 4854TIP3    H114568   1.924   5.571   4.101  1.8957 -1.6783 -0.7369
 4854TIP3    H214569   1.978   5.623   3.970 -0.6358  0.6445 -0.9476
 4855TIP3   OH214570   0.081   2.167   4.732 -0.2093 -0.2122 -0.0675
 4855TIP3    H114571   0.016   2.170   4.663 -0.8407  1.5216  0.5451
 4855TIP3    H214572   0.148   2.230   4.706  0.7987 -1.3258 -0.2576
 4856TIP3   OH214573   2.281   0.107   4.434 -0.4095 -0.2270 -0.5498
 4856TIP3    H114574   2.303   0.014   4.432  1.9450  0.3015 -1.3480
 4856TIP3    H214575   2.304   0.136   4.522  0.0712 -0.1329 -0.7052
 4857TIP3   OH214576   0.249   5.843   4.450 -0.8803 -0.4882  0.3446
 4857TIP3    H114577   0.338   5.825   4.421 -1.2504  0.5594 -1.6080
 4857TIP3    H214578   0.208   5.756   4.455  0.1164 -0.9418  0.8352
 4858TIP3   OH214579   4.090   4.729   0.194 -0.0492  0.1831 -0.2087
 4858TIP3    H114580   4.024   4.798   0.191 -0.2841  0.0291  1.0247
 4858TIP3    H214581   4.173   4.775   0.188 -0.1895  0.6304  1.0760
 4859TIP3   OH214582   2.628   1.428   3.306  0.2019  0.4261 -0.2293
 4859TIP3    H114583   2.723   1.425   3.301  0.1502  0.1906 -1.2308
 4859TIP3    H214584   2.598   1.421   3.215 -0.7612  0.8661  0.0317
 4860TIP3   OH214585   1.878   4.751   4.670 -0.0669 -0.0180  0.1557
 4860TIP3    H114586   1.903   4.767   4.761  0.8019  2.2919 -0.4161
 4860TIP3    H214587   1.894   4.658   4.657 -0.6186 -0.4986  2.4688
 4861TIP3   OH214588   2.416   1.611   1.780  0.3683  0.0603 -0.2091
 4861TIP3    H114589   2.446   1.528   1.743 -2.3797 -1.8287  1.4150
 4861TIP3    H214590   2.454   1.614   1.867 -1.2650 -0.6380  0.5588
 4862TIP3   OH214591   4.499   0.128   4.413 -0.2198  0.0185  0.0076
 4862TIP3    H114592   4.429   0.067   4.435  0.2719 -0.1455  1.2207
 4862TIP3    H214593   4.553   0.081   4.350  0.1715 -0.8410  0.9473
 4863TIP3   OH214594   1.935   4.303   3.049 -0.3442 -0.0535 -0.6258
 4863TIP3    H114595   1.874   4.270   2.983 -0.8363 -1.4901  0.4841
 4863TIP3    H214596   1.901   4.269   3.132  0.3123  1.6073  0.3847
 4864TIP3   OH214597   1.334   3.487   0.232  0.1453  0.2858 -0.0879
 4864TIP3    H114598   1.403   3.421   0.233  1.3405  1.3777  3.1177
 4864TIP3    H214599   1.254   3.440   0.254  0.7747 -0.3124  1.0008
 4865TIP3   OH214600   2.363   5.441   1.586  0.1228 -0.4442  0.2515
 4865TIP3    H114601   2.454   5.451   1.612  0.3891  1.1135 -1.1388
 4865TIP3    H214602   2.355   5.491   1.504 -2.4002  1.1704  1.3320
 4866TIP3   OH214603   3.539   1.512   4.611  0.5553 -0.1052 -0.5154
 4866TIP3    H114604   3.448   1.503   4.581  0.7730 -2.1206 -0.7520
 4866TIP3    H214605   3.563   1.602   4.589 -0.4618 -0.3776 -3.1731
 4867TIP3   OH214606   2.962   0.007   4.389 -0.2739  0.1303  0.5631
 4867TIP3    H114607   3.017  -0.048   4.333 -0.2474 -0.1768  0.8843
 4867TIP3    H214608   3.012   0.088   4.399 -1.0165  0.8308 -1.1822
 4868TIP3   OH214609   4.377   2.395   0.259 -0.1612 -0.5940  0.4479
 4868TIP3    H114610   4.386   2.425   0.169  1.0186  0.1366  0.7861
 4868TIP3    H214611   4.333   2.311   0.253  1.4041 -1.3593 -0.9297
 4869TIP3   OH214612   3.715   5.604   4.897 -0.2712  0.1483  0.6111
 4869TIP3    H114613   3.693   5.695   4.918 -0.5873  0.7086 -1.8387
 4869TIP3    H214614   3.696   5.596   4.803  2.9920 -1.4686 -0.0406
 4870TIP3   OH214615   2.109   1.798   2.988  0.6322 -0.5522  0.4635
 4870TIP3    H114616   2.177   1.779   2.923 -1.2193  1.5030 -2.3212
 4870TIP3    H214617   2.155   1.846   3.057  1.9574  1.8413 -1.8945
 4871TIP3   OH214618   1.888   3.166   3.853  0.2912 -0.2077 -0.0670
 4871TIP3    H114619   1.821   3.182   3.787  1.3380  2.2083 -0.6522
 4871TIP3    H214620   1.934   3.088   3.822 -0.2127 -0.0184 -1.3695
 4872TIP3   OH214621   0.539   3.520   2.446  0.2684 -0.3132 -0.0369
 4872TIP3    H114622   0.497   3.516   2.360  0.5206  1.5200 -0.2870
 4872TIP3    H214623   0.472   3.489   2.507 -1.3061  1.9194 -0.4974
 4873TIP3   OH214624   4.583   4.922   3.037  0.4883  0.5192  0.1315
 4873TIP3    H114625   4.593   4.975   2.958  3.7689 -0.3427 -0.1861
 4873TIP3    H214626   4.627   4.839   3.016  0.3984 -0.1977  2.4572
 4874TIP3   OH214627   3.173   2.117   0.121  0.1807 -0.5140  0.2326
 4874TIP3    H114628   3.177   2.127   0.216  0.8969 -0.7876  0.2354
 4874TIP3    H214629   3.256   2.075   0.098 -0.5234 -1.6124 -0.3706
 4875TIP3   OH214630   5.669   1.931   1.042 -0.6614  0.4029  0.0236
 4875TIP3    H114631   5.658   1.869   1.114  2.4585  0.5472  0.7889
 4875TIP3    H214632   5.658   1.879   0.963  0.4268 -0.8565  0.6635
 4876TIP3   OH214633   1.045   1.808   3.676  0.3151  0.2336 -0.6042
 4876TIP3    H114634   1.021   1.729   3.628  0.5376  1.0906 -2.1893
 4876TIP3    H214635   1.017   1.791   3.766  0.7747 -1.8106 -0.8083
 4877TIP3   OH214636   0.674   5.905   0.896 -0.1658 -0.1744 -0.1862
 4877TIP3    H114637   0.619   5.971   0.939 -1.4841 -0.9875 -0.5623
 4877TIP3    H214638   0.714   5.952   0.823 -1.0929  0.2334 -0.4505
 4878TIP3   OH214639   4.657   2.246   4.066  0.2920 -0.5393 -0.1683
 4878TIP3    H114640   4.688   2.295   3.990  0.1067 -1.2032 -0.6805
 4878TIP3    H214641   4.566   2.225   4.046 -0.5619  1.3728  1.3146
 4879TIP3   OH214642   3.737   0.380   3.669 -0.5631 -0.4709  0.3228
 4879TIP3    H114643   3.807   0.437   3.637 -1.6947 -0.3094 -2.1249
 4879TIP3    H214644   3.657   0.431   3.654 -1.4418 -1.9251 -0.1065
 4880TIP3   OH214645   5.811   4.224   2.943 -0.1837 -0.5024  0.1631
 4880TIP3    H114646   5.852   4.154   2.894 -0.7345  0.6119 -2.0081
 4880TIP3    H214647   5.858   4.303   2.916 -0.7892  0.2042  1.1196
 4881TIP3   OH214648   1.846   5.061   1.147 -0.1550 -0.2173  0.4085
 4881TIP3    H114649   1.883   4.978   1.117  0.0224 -0.3736  1.0628
 4881TIP3    H214650   1.908   5.127   1.117  0.2415 -0.4096  0.7984
 4882TIP3   OH214651   2.843   2.620   4.363 -0.1804 -0.3202 -0.0572
 4882TIP3    H114652   2.907   2.553   4.386 -1.0364 -0.9704  0.5092
 4882TIP3    H214653   2.895   2.696   4.338  0.7958 -0.6488  0.9219
 4883TIP3   OH214654   0.634   3.528   2.100 -0.2588 -0.0036  0.8001
 4883TIP3    H114655   0.674   3.441   2.095  0.9592  0.5358  0.7716
 4883TIP3    H214656   0.541   3.511   2.110 -0.3771 -1.3127 -1.8112
 4884TIP3   OH214657   3.076   5.047   1.998 -0.0131 -0.2949 -0.2280
 4884TIP3    H114658   2.995   5.094   2.017  0.3747  0.5365 -0.5550
 4884TIP3    H214659   3.089   5.058   1.904  0.4058 -0.5265 -0.2007
 4885TIP3   OH214660   4.363   4.276   1.383  0.0220 -0.0394 -0.2571
 4885TIP3    H114661   4.363   4.365   1.349 -0.1522 -0.6559 -2.0114
 4885TIP3    H214662   4.307   4.279   1.461 -0.0369  1.3475 -0.3339
 4886TIP3   OH214663   5.500   2.633   2.472 -0.7479  0.1650 -0.0368
 4886TIP3    H114664   5.547   2.707   2.432  0.8968  0.8253  2.7824
 4886TIP3    H214665   5.479   2.664   2.561 -0.7230 -2.4430  0.9691
 4887TIP3   OH214666   5.796   0.702   3.160 -0.0194  0.0027 -0.1702
 4887TIP3    H114667   5.771   0.611   3.179  2.5836 -0.7718 -0.1190
 4887TIP3    H214668   5.887   0.708   3.188 -0.1375  2.6755 -0.1594
 4888TIP3   OH214669   6.009   3.690   4.988  0.2398  0.7690  0.4521
 4888TIP3    H114670   5.934   3.749   4.996 -0.5847 -0.2741  0.5981
 4888TIP3    H214671   5.979   3.607   5.024  0.6369 -0.3989 -1.6807
 4889TIP3   OH214672   2.667   0.819   1.540  0.0650 -0.3621  0.6442
 4889TIP3    H114673   2.574   0.797   1.545 -0.2600  0.0404 -2.1853
 4889TIP3    H214674   2.688   0.815   1.447  3.2499 -1.8145  1.2645
 4890TIP3   OH214675   4.747   1.128   2.030 -0.5675 -0.0308  0.2357
 4890TIP3    H114676   4.823   1.185   2.029  1.7827 -2.8941 -2.2457
 4890TIP3    H214677   4.690   1.163   1.962  1.9996 -1.7621 -3.0822
 4891TIP3   OH214678   3.282   2.659   4.553 -0.1616  0.0459 -0.0951
 4891TIP3    H114679   3.377   2.645   4.560 -0.0897  1.0649  1.3201
 4891TIP3    H214680   3.257   2.609   4.475  1.4185 -0.8002 -0.1106
 4892TIP3   OH214681   1.132   4.630   1.955  0.3956 -0.7924  0.1330
 4892TIP3    H114682   1.056   4.626   2.013 -0.4634 -1.3737 -0.9803
 4892TIP3    H214683   1.166   4.540   1.954  1.3726 -0.4355  0.9720
 4893TIP3   OH214684   2.713   5.154   1.026 -0.0882  0.1995 -0.0307
 4893TIP3    H114685   2.728   5.182   1.117 -0.6578 -1.2898  0.5678
 4893TIP3    H214686   2.721   5.058   1.030  0.0246  0.1319 -1.5895
 4894TIP3   OH214687   4.831   2.097   1.769  0.2079 -0.1746 -0.0420
 4894TIP3    H114688   4.788   2.019   1.807  1.8591 -0.7869  0.6789
 4894TIP3    H214689   4.789   2.108   1.684  0.6476 -2.5369 -0.6488
 4895TIP3   OH214690   2.544   3.410   4.308  0.0015 -0.6255 -0.2130
 4895TIP3    H114691   2.609   3.479   4.321  0.9974 -1.8452  1.9731
 4895TIP3    H214692   2.519   3.385   4.397 -0.7899 -2.6275 -0.9491
 4896TIP3   OH214693   3.967   1.565   4.538 -0.3784  0.4863 -0.4368
 4896TIP3    H114694   3.989   1.475   4.561 -3.6109 -0.2537  0.1926
 4896TIP3    H214695   4.033   1.590   4.473  0.9233 -2.1218 -0.2323
 4897TIP3   OH214696   6.276   0.476   1.484 -0.0319  0.2488 -0.0230
 4897TIP3    H114697   6.300   0.402   1.540  1.3367  0.1133 -0.7434
 4897TIP3    H214698   6.224   0.437   1.414 -0.5607  0.1997  0.3962
 4898TIP3   OH214699   2.199   3.183   4.784  0.8565 -0.5111 -0.0243
 4898TIP3    H114700   2.236   3.167   4.871 -1.5397 -3.6841  0.5917
 4898TIP3    H214701   2.271   3.162   4.723  1.8172 -0.7335  1.1554
 4899TIP3   OH214702   3.500   1.728   3.251  0.3733 -0.1992  0.2262
 4899TIP3    H114703   3.497   1.811   3.300  0.7865 -0.4204  0.6380
 4899TIP3    H214704   3.498   1.755   3.159 -0.3513  0.2270  0.3604
 4900TIP3   OH214705   0.437   5.683   1.866 -0.5650  0.0666 -0.0137
 4900TIP3    H114706   0.398   5.623   1.930 -1.5626  0.8286  0.1252
 4900TIP3    H214707   0.373   5.754   1.858  0.2413  0.7353 -0.7379
 4901TIP3   OH214708   3.226   0.839   1.019  0.4897  0.5342  0.3076
 4901TIP3    H114709   3.213   0.873   1.107  3.0921  2.4241  0.0796
 4901TIP3    H214710   3.290   0.768   1.029  1.3550  1.2329 -0.0782
 4902TIP3   OH214711   4.292   5.219   4.944 -0.0745 -0.3393 -0.1559
 4902TIP3    H114712   4.337   5.135   4.936  1.6521  0.5601 -0.4147
 4902TIP3    H214713   4.323   5.255   5.027 -0.3699  0.2666 -0.2979
 4903TIP3   OH214714   0.266   5.146   1.299 -0.0753 -0.1239  0.3495
 4903TIP3    H114715   0.321   5.093   1.242  0.2329  0.5467  0.0203
 4903TIP3    H214716   0.266   5.099   1.383  0.6229 -0.3679  0.2182
 4904TIP3   OH214717   5.828   0.392   4.692  0.0760  0.0689  0.2533
 4904TIP3    H114718   5.864   0.318   4.739 -2.1414 -1.8968 -0.9131
 4904TIP3    H214719   5.772   0.353   4.625 -0.9467  2.7974 -0.6285
 4905TIP3   OH214720   0.623   1.308   0.694 -0.3289  0.2868  0.5108
 4905TIP3    H114721   0.559   1.316   0.623  0.2395  2.6029  0.1507
 4905TIP3    H214722   0.570   1.296   0.773 -1.1140  0.2859 -0.0056
 4906TIP3   OH214723   1.340   2.397   3.974  0.1347 -0.1328  0.1295
 4906TIP3    H114724   1.376   2.316   3.937 -0.3258 -0.0038 -0.6192
 4906TIP3    H214725   1.408   2.428   4.033  0.1526 -1.2736  0.7355
 4907TIP3   OH214726   3.443   5.034   2.838  0.7436  0.4115  0.4796
 4907TIP3    H114727   3.511   5.101   2.836  0.3029  0.8756  0.6983
 4907TIP3    H214728   3.417   5.023   2.747 -1.1906  2.6528  0.6435
 4908TIP3   OH214729   1.740   1.766   1.590 -0.2976  0.2979 -0.1381
 4908TIP3    H114730   1.728   1.861   1.601 -0.7497  0.4274 -1.5975
 4908TIP3    H214731   1.697   1.746   1.507  2.3181 -0.6750 -1.3769
 4909TIP3   OH214732   0.115   5.048   4.882 -0.0431 -0.2369 -0.2625
 4909TIP3    H114733   0.161   5.128   4.856  0.4022 -0.5582 -0.4733
 4909TIP3    H214734   0.077   5.014   4.801 -2.2437  0.9931  0.1658
 4910TIP3   OH214735   1.395   4.201   2.216  0.7003 -0.3124  0.0040
 4910TIP3    H114736   1.488   4.222   2.220  0.8600 -0.7075 -1.2836
 4910TIP3    H214737   1.392   4.106   2.217  0.2184 -0.3055  1.3549
 4911TIP3   OH214738   3.127   4.772   3.965  0.3241 -0.2075 -0.0566
 4911TIP3    H114739   3.085   4.788   4.050 -1.0940 -0.0074 -0.7596
 4911TIP3    H214740   3.194   4.706   3.984 -1.2029 -1.5773  0.9253
 4912TIP3   OH214741   0.492   3.441   4.338 -0.4287  0.1454  0.4707
 4912TIP3    H114742   0.516   3.389   4.261  1.4274 -0.8453  1.6422
 4912TIP3    H214743   0.463   3.525   4.302 -1.6805 -0.9978 -1.3826
 4913TIP3   OH214744   1.962   2.003   3.595  0.1748  0.6783  1.1196
 4913TIP3    H114745   2.048   1.974   3.564 -0.4251 -2.1662  1.8856
 4913TIP3    H214746   1.930   1.932   3.650 -3.0169  1.2864  0.2735
 4914TIP3   OH214747   0.560   0.479   1.624  0.1211 -0.1988 -0.0276
 4914TIP3    H114748   0.549   0.394   1.581  1.0995 -0.6048  0.4763
 4914TIP3    H214749   0.619   0.528   1.567  0.4662 -0.2906  0.2465
 4915TIP3   OH214750   5.618   4.694   2.401  0.1150 -0.4430  0.1017
 4915TIP3    H114751   5.600   4.785   2.378 -0.2763 -0.3994  0.5548
 4915TIP3    H214752   5.601   4.645   2.321 -0.9698 -0.2665  0.2014
 4916TIP3   OH214753   1.501   3.724   1.020  0.1182 -0.1318 -0.2068
 4916TIP3    H114754   1.518   3.714   0.926 -0.5752 -0.4649 -0.3017
 4916TIP3    H214755   1.534   3.812   1.041  2.6475 -0.9945 -0.2062
 4917TIP3   OH214756   0.472   2.247   0.156  0.0316  0.0127 -0.1178
 4917TIP3    H114757   0.561   2.276   0.177 -0.9842  2.3817  1.2097
 4917TIP3    H214758   0.450   2.295   0.076 -0.5350  0.4744  0.3148
 4918TIP3   OH214759   1.503   0.130   1.688 -0.2590 -0.0308  0.2390
 4918TIP3    H114760   1.535   0.068   1.754  1.1640 -0.3837 -0.7202
 4918TIP3    H214761   1.408   0.119   1.688 -0.3629  0.2734  2.4775
 4919TIP3   OH214762   4.105   4.071   4.521 -0.1880  0.1878  0.1158
 4919TIP3    H114763   4.019   4.112   4.523  0.0172  0.7139 -0.9786
 4919TIP3    H214764   4.166   4.144   4.517  0.1662 -0.1590 -2.3778
 4920TIP3   OH214765   2.207   5.808   0.871 -0.2325  0.0775  0.1626
 4920TIP3    H114766   2.287   5.820   0.923  0.5997  1.0692 -1.2964
 4920TIP3    H214767   2.206   5.882   0.811 -0.3736 -1.7590 -2.2469
 4921TIP3   OH214768   4.132   3.687   2.528  0.0200 -0.4801 -0.5510
 4921TIP3    H114769   4.062   3.752   2.532 -0.3563 -0.8329 -1.1534
 4921TIP3    H214770   4.128   3.643   2.613  0.8238  0.8159  0.1913
 4922TIP3   OH214771   0.191   2.800   1.543 -0.1614  0.2621 -0.0020
 4922TIP3    H114772   0.176   2.831   1.453  0.8649  2.1150  0.4152
 4922TIP3    H214773   0.182   2.879   1.597  1.1536 -0.4520  1.3094
 4923TIP3   OH214774   1.733   3.245   1.796  0.2736 -0.1521  0.1316
 4923TIP3    H114775   1.719   3.328   1.752  0.0447 -0.2240  0.0652
 4923TIP3    H214776   1.824   3.223   1.778 -0.0987 -0.7148 -1.2391
 4924TIP3   OH214777   6.291   2.590   3.387 -0.0703 -0.2714 -0.4070
 4924TIP3    H114778   6.228   2.659   3.406 -0.0422  0.2316 -1.9976
 4924TIP3    H214779   6.376   2.635   3.381  0.4721 -0.9270  1.6239
 4925TIP3   OH214780   0.908   2.604   2.961 -0.4619 -0.1312  0.3045
 4925TIP3    H114781   0.909   2.515   2.926 -0.1015 -0.5691  1.3868
 4925TIP3    H214782   0.818   2.618   2.988 -0.6352  0.0345 -0.3368
 4926TIP3   OH214783   0.698   0.614   1.420 -0.2937  1.2556 -0.1835
 4926TIP3    H114784   0.637   0.575   1.357  1.7384  1.0720 -2.1697
 4926TIP3    H214785   0.726   0.696   1.379  1.0680  1.1438  0.4681
 4927TIP3   OH214786   1.714   3.512   3.247  0.0259  0.1695  0.2925
 4927TIP3    H114787   1.649   3.556   3.302 -1.4834  0.9201 -1.9858
 4927TIP3    H214788   1.756   3.583   3.198  0.4459 -0.5885 -0.4664
 4928TIP3   OH214789   2.335   5.736   3.673 -0.4177 -1.0109 -0.4986
 4928TIP3    H114790   2.345   5.673   3.601  0.2361 -1.0780 -0.3563
 4928TIP3    H214791   2.405   5.713   3.734  0.4339  0.4560 -0.8903
 4929TIP3   OH214792   2.410   0.951   0.685 -0.2287  0.3400 -0.2621
 4929TIP3    H114793   2.402   0.938   0.590  0.1251  0.0792 -0.2599
 4929TIP3    H214794   2.500   0.926   0.704 -1.0234 -2.2141  0.5441
 4930TIP3   OH214795   1.467   3.258   4.840 -0.2359 -0.0183 -0.1493
 4930TIP3    H114796   1.424   3.338   4.870  1.1152  0.3658  0.8437
 4930TIP3    H214797   1.412   3.188   4.876 -0.5684  0.4590  0.2965
 4931TIP3   OH214798   4.599   1.035   1.110  0.6561 -0.0005  0.2831
 4931TIP3    H114799   4.672   1.056   1.052 -1.1835  0.4019 -2.0316
 4931TIP3    H214800   4.602   0.940   1.120  0.8944 -0.1120 -0.7055
 4932TIP3   OH214801   2.867   5.124   4.323 -0.1078 -0.3624  0.6895
 4932TIP3    H114802   2.822   5.192   4.274 -0.4797  0.7807  2.5057
 4932TIP3    H214803   2.822   5.121   4.407  0.9775 -1.6855  1.2705
 4933TIP3   OH214804   1.090   2.084   1.930 -0.2363  0.4349  0.1110
 4933TIP3    H114805   1.128   1.996   1.934  2.3003  1.4858  2.1897
 4933TIP3    H214806   1.067   2.105   2.020 -1.5782  1.6171 -0.4712
 4934TIP3   OH214807   1.677   2.831   3.004  0.5298 -0.0481 -0.1906
 4934TIP3    H114808   1.636   2.910   2.969 -0.9449 -1.5381 -2.0059
 4934TIP3    H214809   1.604   2.772   3.025  1.5894 -0.9639  1.1390
 4935TIP3   OH214810   2.166   3.643   1.258  0.2694 -0.9467 -0.2781
 4935TIP3    H114811   2.089   3.594   1.229  0.2016 -1.1848  0.2839
 4935TIP3    H214812   2.159   3.727   1.213 -0.9683 -0.5174  0.6393
 4936TIP3   OH214813   0.215   3.201   2.749 -0.5526 -0.2319  0.2547
 4936TIP3    H114814   0.206   3.186   2.843  0.4603  0.6273  0.5054
 4936TIP3    H214815   0.143   3.260   2.726 -0.7434 -0.3682  0.5031
 4937TIP3   OH214816   3.538   3.493   2.870 -0.0094  0.2548  0.7220
 4937TIP3    H114817   3.569   3.411   2.831 -0.1650  1.1040 -1.2934
 4937TIP3    H214818   3.615   3.527   2.917  0.3493 -0.5561  0.7410
 4938TIP3   OH214819   6.167   0.034   3.601 -0.0481  0.1830  0.1881
 4938TIP3    H114820   6.231   0.060   3.668 -0.5408  0.7483  0.4422
 4938TIP3    H214821   6.199  -0.051   3.570  0.3250  0.0286  0.9639
 4939TIP3   OH214822   4.966   4.420   1.771  0.1128  0.0809  0.5265
 4939TIP3    H114823   5.038   4.416   1.834 -0.1624  1.9067  1.0127
 4939TIP3    H214824   4.889   4.396   1.822  0.0222  0.6466  0.6595
 4940TIP3   OH214825   1.432   2.635   4.789 -0.6741  0.0003  0.6041
 4940TIP3    H114826   1.497   2.600   4.850 -0.8153 -0.9903  0.2082
 4940TIP3    H214827   1.444   2.584   4.709 -0.1795  1.5836 -0.3761
 4941TIP3   OH214828   3.830   3.388   0.219 -0.4963  0.2625  0.1512
 4941TIP3    H114829   3.762   3.321   0.218 -0.0478 -0.2461  1.4091
 4941TIP3    H214830   3.869   3.381   0.307 -1.6142  3.3682  1.0224
 4942TIP3   OH214831   5.757   2.344   2.610  0.3684 -0.1703 -1.1984
 4942TIP3    H114832   5.750   2.438   2.592  1.6336 -0.1493 -1.6839
 4942TIP3    H214833   5.836   2.336   2.663 -0.6292 -0.7923  0.2572
 4943TIP3   OH214834   5.358   5.132   0.401  0.6569 -0.0511 -0.3071
 4943TIP3    H114835   5.437   5.080   0.416  1.1096  0.5178 -0.6813
 4943TIP3    H214836   5.390   5.214   0.364 -0.1831 -0.1458 -1.2750
 4944TIP3   OH214837   2.419   4.741   2.768  0.3243 -0.0401 -0.0983
 4944TIP3    H114838   2.336   4.737   2.815 -0.3433  0.2542 -1.2102
 4944TIP3    H214839   2.403   4.804   2.698  1.2756 -0.4950 -0.7393
 4945TIP3   OH214840   1.316   3.677   0.764 -0.4124 -0.1143  0.1622
 4945TIP3    H114841   1.394   3.698   0.711 -0.9756  0.1688 -0.5729
 4945TIP3    H214842   1.315   3.581   0.766 -0.3159 -0.1270 -0.2401
 4946TIP3   OH214843   1.662   5.489   1.682 -0.2284  0.2643 -0.0791
 4946TIP3    H114844   1.757   5.477   1.691 -0.5446 -2.2562  1.0066
 4946TIP3    H214845   1.634   5.517   1.769 -0.5680  0.1681 -0.1585
 4947TIP3   OH214846   4.181   4.812   2.098  0.8396  0.5142 -0.2336
 4947TIP3    H114847   4.096   4.842   2.068  1.1608  0.1478 -1.5856
 4947TIP3    H214848   4.164   4.728   2.140  0.4902  0.6353 -0.1322
 4948TIP3   OH214849   4.960   0.946   5.027 -0.5585  0.4684 -0.4174
 4948TIP3    H114850   4.869   0.961   5.004 -0.5971  3.0223  1.0443
 4948TIP3    H214851   5.006   1.023   4.993  0.7788 -0.0119  0.2307
 4949TIP3   OH214852   5.584   4.643   1.548 -0.2097 -0.4134  0.0333
 4949TIP3    H114853   5.544   4.566   1.507  1.5454 -1.4827  0.2217
 4949TIP3    H214854   5.517   4.711   1.542 -1.0522 -1.3316 -2.0818
 4950TIP3   OH214855   5.953   1.614   1.531 -0.0406 -0.6309  0.2261
 4950TIP3    H114856   5.891   1.544   1.552 -0.7808  0.1134  0.5841
 4950TIP3    H214857   6.012   1.617   1.607 -0.4164 -0.4169  0.5063
 4951TIP3   OH214858   0.292   2.674   5.026 -0.5017  0.5740  0.0670
 4951TIP3    H114859   0.372   2.641   5.067  0.3659  2.5863  0.0909
 4951TIP3    H214860   0.237   2.701   5.099 -0.2763  1.2274 -0.0014
 4952TIP3   OH214861   6.061   2.211   3.620 -0.5794 -0.6990  0.2659
 4952TIP3    H114862   6.053   2.119   3.594  0.1594 -1.0017  1.0468
 4952TIP3    H214863   6.030   2.260   3.545  2.2646 -1.4816 -1.5585
 4953TIP3   OH214864   5.834   4.432   3.623  0.1550 -0.7613 -0.2756
 4953TIP3    H114865   5.809   4.503   3.681 -3.0111 -0.7946 -1.3770
 4953TIP3    H214866   5.914   4.462   3.580 -0.8197  1.9450 -0.3543
 4954TIP3   OH214867   1.465   5.802   2.141  0.5159 -0.1721  0.4001
 4954TIP3    H114868   1.505   5.865   2.081  1.3670 -0.2107  0.9054
 4954TIP3    H214869   1.391   5.849   2.180  0.7521  0.2930  0.2924
 4955TIP3   OH214870   3.565   2.700   0.228 -0.0216  0.0112 -0.4516
 4955TIP3    H114871   3.516   2.625   0.196 -0.5367 -1.1123  2.6028
 4955TIP3    H214872   3.499   2.754   0.272  0.8338  0.6102  0.1246
 4956TIP3   OH214873   1.097   5.461   2.730 -0.3264  0.5102 -0.5964
 4956TIP3    H114874   1.092   5.467   2.825  0.9652  2.8891 -0.6082
 4956TIP3    H214875   1.164   5.394   2.714  1.1452  1.7252  0.2617
 4957TIP3   OH214876   5.432   4.001   0.933 -0.0321  0.0093 -1.0326
 4957TIP3    H114877   5.503   4.062   0.952 -0.1743 -0.4778  1.3732
 4957TIP3    H214878   5.471   3.914   0.941 -0.3114 -0.2619 -2.3656
 4958TIP3   OH214879   5.276   1.574   1.943 -0.3015  0.1203  0.2680
 4958TIP3    H114880   5.245   1.585   1.854  1.1280  0.5905 -0.1994
 4958TIP3    H214881   5.221   1.632   1.995 -0.3047  0.8182 -0.5016
 4959TIP3   OH214882   0.433   1.742  -0.038  0.1019  0.4797  0.6062
 4959TIP3    H114883   0.430   1.824   0.012  2.3308 -0.6723  2.8745
 4959TIP3    H214884   0.427   1.674   0.029 -0.0695 -1.2318 -1.0787
 4960TIP3   OH214885   0.422   1.734   0.906  0.3683  0.3385 -0.1274
 4960TIP3    H114886   0.479   1.811   0.903 -0.1827  0.7309 -0.6802
 4960TIP3    H214887   0.336   1.769   0.927 -0.0832 -0.0130 -1.3422
 4961TIP3   OH214888   6.119   3.655   4.460  0.0187 -0.6095 -0.4542
 4961TIP3    H114889   6.184   3.640   4.529 -0.4658  3.5631  1.1504
 4961TIP3    H214890   6.172   3.662   4.380  1.4027  0.8878  0.5279
 4962TIP3   OH214891   2.762   1.786   3.045  0.2404  0.1155 -0.7439
 4962TIP3    H114892   2.805   1.728   3.109  0.5912  1.5976  0.4095
 4962TIP3    H214893   2.734   1.862   3.096 -2.6795 -0.1865 -1.6834
 4963TIP3   OH214894   0.462   4.182   4.678  0.5337 -0.0086 -0.7515
 4963TIP3    H114895   0.438   4.121   4.608 -0.3514 -0.6242  0.0571
 4963TIP3    H214896   0.558   4.185   4.676  0.5398  2.3330 -3.9364
 4964TIP3   OH214897   6.152   4.630   2.992  0.6409  0.5319  0.4216
 4964TIP3    H114898   6.135   4.716   2.953 -1.6445  0.2180  0.5684
 4964TIP3    H214899   6.078   4.617   3.052  0.1269 -2.1479 -0.6753
 4965TIP3   OH214900   3.380   0.601   0.993 -0.4939 -0.1206  0.1711
 4965TIP3    H114901   3.381   0.627   0.901  2.0591 -0.4609  0.0221
 4965TIP3    H214902   3.427   0.518   0.995 -0.8196 -0.3026  1.7504
 4966TIP3   OH214903   3.802   4.318   2.899 -0.3793 -0.5070 -0.0974
 4966TIP3    H114904   3.772   4.400   2.937  0.2216 -0.7192  0.8894
 4966TIP3    H214905   3.746   4.251   2.939 -0.4851 -0.6300 -0.4503
 4967TIP3   OH214906   0.618   0.112   1.832  0.0748  0.3715  0.2146
 4967TIP3    H114907   0.698   0.070   1.801 -0.3248 -1.2676  1.2596
 4967TIP3    H214908   0.639   0.206   1.833  2.7437 -0.1152  2.4297
 4968TIP3   OH214909   1.588   0.325   4.530  0.5557 -0.2798 -0.2934
 4968TIP3    H114910   1.638   0.244   4.544 -0.4316 -0.8104  0.2844
 4968TIP3    H214911   1.500   0.295   4.505  0.5710  0.6334 -1.5135
 4969TIP3   OH214912   2.467   3.649   1.283 -0.0087 -0.4008  0.0081
 4969TIP3    H114913   2.429   3.644   1.370  0.6230  0.7742  0.3830
 4969TIP3    H214914   2.406   3.704   1.233  0.5383  0.4645  0.2604
 4970TIP3   OH214915   4.454   2.971   2.758  0.2561 -0.6580 -0.4104
 4970TIP3    H114916   4.435   2.946   2.668  1.0936  0.0775 -0.8022
 4970TIP3    H214917   4.518   3.041   2.751  2.4901 -2.4205  0.8007
 4971TIP3   OH214918   5.447   5.364   4.148  0.2976 -1.0727 -0.4964
 4971TIP3    H114919   5.534   5.404   4.153  0.2325 -1.0153  0.2890
 4971TIP3    H214920   5.454   5.285   4.201 -0.8241  0.2571  1.8090
 4972TIP3   OH214921   3.769   5.753   2.441 -0.1179 -0.6949 -0.2692
 4972TIP3    H114922   3.696   5.757   2.503  1.2326 -1.5063  1.4929
 4972TIP3    H214923   3.759   5.668   2.398 -2.2641  0.7248 -2.8823
 4973TIP3   OH214924   4.179   2.785   0.810  0.3509 -0.1472 -1.1606
 4973TIP3    H114925   4.265   2.825   0.825  0.0764 -0.7540  3.5894
 4973TIP3    H214926   4.196   2.691   0.808 -0.1078 -0.2492 -0.6334
 4974TIP3   OH214927   4.117   0.677   4.093  0.4112  1.0595 -0.0886
 4974TIP3    H114928   4.105   0.768   4.064  0.3889  1.2799  0.5982
 4974TIP3    H214929   4.158   0.685   4.179  3.0164  0.3904 -1.1575
 4975TIP3   OH214930   0.327   3.751   4.765  0.6277  0.2656  0.1753
 4975TIP3    H114931   0.331   3.733   4.859  0.7884  0.9148  0.3004
 4975TIP3    H214932   0.240   3.787   4.751  0.4049 -0.3460 -0.0233
 4976TIP3   OH214933   5.134   4.736   5.130  0.2907  0.2674 -0.2708
 4976TIP3    H114934   5.111   4.791   5.055  1.9089  0.3848 -0.7298
 4976TIP3    H214935   5.051   4.705   5.164 -0.4631 -0.5703 -2.6927
 4977TIP3   OH214936   6.300   5.234   5.137 -0.0955 -0.4739  0.0860
 4977TIP3    H114937   6.309   5.139   5.147  0.8186 -0.3874  0.1904
 4977TIP3    H214938   6.266   5.246   5.048 -0.9673 -0.9218  0.3439
 4978TIP3   OH214939   4.140   2.917   4.929 -0.9184  0.7777 -0.1506
 4978TIP3    H114940   4.232   2.891   4.937 -1.6310 -1.4901  2.0380
 4978TIP3    H214941   4.134   2.999   4.978 -0.1910  0.5014  0.4172
 4979TIP3   OH214942   5.010   1.407   1.529 -0.2525  0.4967 -0.3770
 4979TIP3    H114943   5.041   1.384   1.441 -0.9877 -0.5780 -0.3769
 4979TIP3    H214944   4.958   1.486   1.516  0.5771  1.0102 -0.7173
 4980TIP3   OH214945   4.497   0.417   4.490  0.6979 -0.0063  0.4168
 4980TIP3    H114946   4.558   0.472   4.442 -0.6142  0.5997 -0.6400
 4980TIP3    H214947   4.534   0.329   4.484  2.1733  0.5522  1.0479
 4981TIP3   OH214948   2.214   0.696   1.935 -0.4164 -0.2774  0.2443
 4981TIP3    H114949   2.300   0.671   1.969 -0.3480 -1.7289 -0.8872
 4981TIP3    H214950   2.181   0.617   1.893 -1.0571  1.0331 -1.8967
 4982TIP3   OH214951   4.285   3.165   4.430  0.1512 -0.0398  0.3009
 4982TIP3    H114952   4.246   3.078   4.439 -0.6306  0.3757  1.1230
 4982TIP3    H214953   4.311   3.188   4.519 -1.6429  1.4537  0.5014
 4983TIP3   OH214954   1.303   1.505   3.815  0.0619  0.0650  0.1218
 4983TIP3    H114955   1.360   1.473   3.885  1.0532  2.1681  0.3587
 4983TIP3    H214956   1.320   1.446   3.741  1.8129  0.0443  0.4999
 4984TIP3   OH214957   4.612   1.219   1.778  0.0222  0.7645  0.1737
 4984TIP3    H114958   4.658   1.150   1.732 -0.1587  1.0908 -0.5077
 4984TIP3    H214959   4.521   1.188   1.783 -0.3372  1.5113 -1.2889
 4985TIP3   OH214960   0.941   4.785   3.708 -0.1068 -0.2060  1.0578
 4985TIP3    H114961   0.903   4.872   3.694  1.9716  0.7394  0.8559
 4985TIP3    H214962   0.968   4.785   3.800  3.1333  0.8618  0.2583
 4986TIP3   OH214963   3.028   0.861   2.080  0.2987 -0.0292 -0.3406
 4986TIP3    H114964   3.010   0.873   2.173  1.5233 -0.7947  0.0174
 4986TIP3    H214965   2.957   0.907   2.036 -0.2307  0.4582  0.9671
 4987TIP3   OH214966   1.271   2.845   1.412 -0.0209  0.4085  0.3054
 4987TIP3    H114967   1.258   2.848   1.317  0.6553 -1.5313  0.1211
 4987TIP3    H214968   1.265   2.937   1.440  3.0106  1.4643 -2.0454
 4988TIP3   OH214969   1.033   3.757   4.556  0.0887 -0.1535  0.6947
 4988TIP3    H114970   0.984   3.692   4.607 -1.2764 -0.0222 -0.3859
 4988TIP3    H214971   1.048   3.829   4.617 -1.0559 -0.2205  1.0862
 4989TIP3   OH214972   1.791   2.018   4.193  0.2894  0.2075 -0.5059
 4989TIP3    H114973   1.804   2.022   4.099 -1.5620  1.4742 -0.7705
 4989TIP3    H214974   1.796   2.110   4.222 -0.2771 -0.0324  0.4209
 4990TIP3   OH214975   6.125   3.018   3.976  0.4754  0.0560  0.5352
 4990TIP3    H114976   6.030   3.011   3.974  0.3142  1.8541  0.3252
 4990TIP3    H214977   6.155   2.969   3.900 -0.2453 -0.7643  0.7650
 4991TIP3   OH214978   5.377   3.426   0.531  0.0207 -0.0739 -0.4351
 4991TIP3    H114979   5.342   3.365   0.465 -0.4170 -1.6190  1.1552
 4991TIP3    H214980   5.468   3.400   0.542  0.2510  0.5575 -0.8387
 4992TIP3   OH214981   3.257   3.863   3.295  0.0646  0.2370  0.9048
 4992TIP3    H114982   3.278   3.779   3.255 -0.5135  1.1056 -1.4532
 4992TIP3    H214983   3.232   3.919   3.220 -0.2357  2.2881  2.4444
 4993TIP3   OH214984   0.467   3.873   0.897  0.2100 -0.5238  0.2827
 4993TIP3    H114985   0.439   3.954   0.854 -0.7952 -0.0495  1.7530
 4993TIP3    H214986   0.509   3.822   0.828 -2.3192 -0.2867 -1.5599
 4994TIP3   OH214987   4.776   4.843   0.821  0.2953  0.4139  0.2609
 4994TIP3    H114988   4.765   4.815   0.730  0.4165 -0.7196  0.5784
 4994TIP3    H214989   4.814   4.930   0.815 -0.5258  0.7227 -0.7760
 4995TIP3   OH214990   0.337   5.031   2.157 -0.3334 -0.2582 -0.1993
 4995TIP3    H114991   0.320   5.010   2.065 -3.4659 -0.2904  0.2697
 4995TIP3    H214992   0.266   5.091   2.181  0.3100 -0.3793  2.2495
 4996TIP3   OH214993   1.675   1.963   2.127  0.6091 -0.4329  0.0507
 4996TIP3    H114994   1.763   2.000   2.128  0.7155 -0.6628 -0.4094
 4996TIP3    H214995   1.618   2.038   2.111  0.8090 -0.4265 -0.6970
 4997TIP3   OH214996   5.490   3.090   2.679 -0.6617 -0.0740  0.0042
 4997TIP3    H114997   5.465   3.092   2.587 -2.1728  0.4308  0.3924
 4997TIP3    H214998   5.417   3.133   2.724 -0.7867 -1.8859  1.6184
 4998TIP3   OH214999   2.011   0.184   4.384 -0.8880 -0.4962  0.3024
 4998TIP3    H115000   2.009   0.272   4.424  0.3237 -0.7985  1.0704
 4998TIP3    H215001   2.076   0.136   4.435 -0.5810 -1.4510 -0.9456
 4999TIP3   OH215002   4.403   4.504   3.487 -0.0487  0.8379 -0.3611
 4999TIP3    H115003   4.392   4.582   3.540  1.1143 -0.2266  1.5609
 4999TIP3    H215004   4.491   4.472   3.508 -0.6811 -1.2895 -0.6404
 5000TIP3   OH215005   4.114   3.096   0.721 -0.1792  0.4248  0.3010
 5000TIP3    H115006   4.068   3.180   0.717  1.4704  1.4719  1.6659
 5000TIP3    H215007   4.203   3.119   0.750  0.9199 -1.6017 -1.2208
 5001TIP3   OH215008   4.169   4.303   4.073  0.1473  0.1873 -0.1884
 5001TIP3    H115009   4.148   4.375   4.013 -0.8638 -0.0744 -0.1555
 5001TIP3    H215010   4.084   4.270   4.103  0.5448 -1.6656 -0.9532
 5002TIP3   OH215011   1.996   1.573   3.129  0.2182  0.1541 -0.2485
 5002TIP3    H115012   1.942   1.508   3.085  2.2128 -0.9434 -1.2253
 5002TIP3    H215013   2.011   1.641   3.064  3.8209 -1.8448 -1.8084
 5003TIP3   OH215014   3.815   4.631   0.413  0.2693 -0.2078  0.0394
 5003TIP3    H115015   3.810   4.708   0.470  1.1691 -0.5893  0.6481
 5003TIP3    H215016   3.805   4.667   0.324  1.1710  0.6878  0.2747
 5004TIP3   OH215017   2.042   0.048   2.605  0.0427 -0.1055  0.2773
 5004TIP3    H115018   2.089   0.036   2.688 -0.6737  1.2154  0.8983
 5004TIP3    H215019   1.960   0.091   2.630  1.0947  3.2066 -1.3590
 5005TIP3   OH215020   4.084   3.452   3.939  0.5794  0.6256  0.8038
 5005TIP3    H115021   4.163   3.466   3.887  0.0002  1.1518  0.0562
 5005TIP3    H215022   4.036   3.534   3.932 -1.6248 -0.7268 -1.5100
 5006TIP3   OH215023   2.690   1.352   0.189 -0.2678  0.5296  0.2240
 5006TIP3    H115024   2.753   1.287   0.157  0.7895  1.2990  0.6943
 5006TIP3    H215025   2.679   1.331   0.282 -0.6322  0.4566  0.1649
 5007TIP3   OH215026   6.099   0.882   3.364  0.7749  0.6550  0.3431
 5007TIP3    H115027   6.051   0.908   3.442  0.9023 -1.2196  1.0962
 5007TIP3    H215028   6.054   0.926   3.292 -0.7635  0.6089  1.2406
 5008TIP3   OH215029   3.346   0.934   4.775  0.0407 -0.3583  0.6461
 5008TIP3    H115030   3.405   0.870   4.815 -0.5621 -0.8994  0.6877
 5008TIP3    H215031   3.366   1.017   4.819 -0.2700 -0.8384  1.7294
 5009TIP3   OH215032   5.726   2.357   0.932 -0.2220  0.0369 -0.2835
 5009TIP3    H115033   5.661   2.292   0.961 -1.2037  0.8753 -0.5735
 5009TIP3    H215034   5.676   2.421   0.882  0.6099  1.3954  0.5463
 5010TIP3   OH215035   3.751   0.823   1.547  0.2098 -0.0899  0.5015
 5010TIP3    H115036   3.727   0.913   1.523 -0.2421 -0.2717  0.2561
 5010TIP3    H215037   3.766   0.779   1.463 -2.7271 -1.1079  0.3947
 5011TIP3   OH215038   4.821   5.563   0.957  0.2138 -0.0297  0.0406
 5011TIP3    H115039   4.871   5.487   0.928  0.1553 -0.0919  0.1029
 5011TIP3    H215040   4.775   5.593   0.879  2.8127  1.9777 -0.8565
 5012TIP3   OH215041   2.862   0.729   3.167 -0.7633  0.3849  1.0177
 5012TIP3    H115042   2.794   0.755   3.104 -0.9445  0.3700  1.2041
 5012TIP3    H215043   2.919   0.671   3.118  1.2603  3.2068 -0.2593
 5013TIP3   OH215044   2.385   3.750   4.594  0.1886 -0.3075 -0.2142
 5013TIP3    H115045   2.329   3.778   4.666  0.4278  0.7316 -0.4033
 5013TIP3    H215046   2.421   3.832   4.559  0.2808 -0.8084 -1.3412
 5014TIP3   OH215047   0.757   3.285   0.228  0.3320 -0.1511  0.3362
 5014TIP3    H115048   0.745   3.370   0.272 -1.4301  0.8934 -1.9348
 5014TIP3    H215049   0.850   3.282   0.208  0.5352  0.9668  1.0060
 5015TIP3   OH215050   5.624   5.001   2.811 -0.0543  0.3883 -0.4100
 5015TIP3    H115051   5.612   4.972   2.902  0.6405  0.5786 -0.2536
 5015TIP3    H215052   5.629   4.921   2.760 -0.0043  0.2737 -0.2241
 5016TIP3   OH215053   0.348   0.247   4.997  0.0878 -0.1890  0.2464
 5016TIP3    H115054   0.361   0.259   5.091 -0.2655 -2.8643  0.7119
 5016TIP3    H215055   0.371   0.332   4.959  0.4108  0.9200  2.7044
 5017TIP3   OH215056   1.556   2.706   3.419 -0.1658  0.0627  0.6679
 5017TIP3    H115057   1.572   2.614   3.400  0.2458  0.3003 -0.1923
 5017TIP3    H215058   1.620   2.728   3.487  0.9369  0.1433 -0.3561
 5018TIP3   OH215059   4.749   0.915   2.897 -0.3524 -0.4474 -0.7289
 5018TIP3    H115060   4.749   0.996   2.947  0.1742 -2.2408  2.5287
 5018TIP3    H215061   4.837   0.909   2.861  1.0113 -1.2932  2.4057
 5019TIP3   OH215062   2.688   1.096   1.257 -0.0861 -0.0643 -0.0149
 5019TIP3    H115063   2.605   1.119   1.216  0.1553  1.5829  0.3380
 5019TIP3    H215064   2.686   1.001   1.265 -2.1718 -0.0290  0.4533
 5020TIP3   OH215065   3.603   2.243   2.367  0.0840 -0.1216  0.3821
 5020TIP3    H115066   3.578   2.332   2.392 -0.5082 -0.0022 -0.6076
 5020TIP3    H215067   3.628   2.250   2.275  2.9905 -0.4079  1.0702
 5021TIP3   OH215068   4.047   2.049   3.826 -0.6893 -0.0638  0.1069
 5021TIP3    H115069   3.966   2.001   3.812 -0.7384  0.2353 -0.6969
 5021TIP3    H215070   4.116   1.986   3.808 -0.7536  0.1699 -1.0415
 5022TIP3   OH215071   5.569   3.908   3.366 -0.0304 -0.2870 -0.0793
 5022TIP3    H115072   5.614   3.931   3.284 -0.7391 -0.8405 -0.6346
 5022TIP3    H215073   5.617   3.832   3.399 -0.9864 -1.3577 -1.0689
 5023TIP3   OH215074   0.778   3.268   4.300 -1.0011 -0.0635  0.3605
 5023TIP3    H115075   0.739   3.328   4.237  0.0865 -0.6330 -0.8957
 5023TIP3    H215076   0.831   3.208   4.248 -0.8598 -1.1982  1.7198
 5024TIP3   OH215077   4.452   4.169   1.992 -0.1374 -0.5763 -0.1339
 5024TIP3    H115078   4.450   4.074   1.986  0.1704 -0.6376  0.5571
 5024TIP3    H215079   4.429   4.200   1.905  0.6322 -1.2825 -0.5975
 5025TIP3   OH215080   2.256   0.183   2.249  0.2187  0.0933  0.4238
 5025TIP3    H115081   2.170   0.223   2.263  0.5050  0.7648  0.3049
 5025TIP3    H215082   2.271   0.192   2.155  0.3159 -0.2253  0.4107
 5026TIP3   OH215083   2.859   5.148   3.478 -0.2408  0.2963  0.3558
 5026TIP3    H115084   2.879   5.133   3.386 -0.9322  0.3766  0.1836
 5026TIP3    H215085   2.897   5.074   3.524 -0.7228 -0.2506 -0.1088
 5027TIP3   OH215086   5.680   0.604   1.494  0.8878  0.5097 -0.3162
 5027TIP3    H115087   5.763   0.652   1.499  2.0770 -1.4948  1.2569
 5027TIP3    H215088   5.640   0.619   1.580  0.2056  0.4937 -0.6331
 5028TIP3   OH215089   4.060   2.319   1.031 -0.0127  0.1352  0.2993
 5028TIP3    H115090   4.083   2.318   0.938 -0.1734  0.1166  0.2593
 5028TIP3    H215091   4.062   2.227   1.057 -0.1626  0.1214  0.2647
 5029TIP3   OH215092   0.568   5.289   2.106  0.2528  0.6484 -0.1052
 5029TIP3    H115093   0.505   5.302   2.034  0.2882 -0.2697 -0.3139
 5029TIP3    H215094   0.523   5.322   2.183 -0.3206  0.4199 -0.3325
 5030TIP3   OH215095   1.743   0.362   1.902  0.4150  0.4262  0.1880
 5030TIP3    H115096   1.770   0.280   1.862  1.0554  1.5057 -1.7529
 5030TIP3    H215097   1.811   0.425   1.875 -1.4298  2.1647 -0.6643
 5031TIP3   OH215098   3.959   4.192   3.579  1.0025 -0.3417 -0.4082
 5031TIP3    H115099   3.963   4.177   3.674 -0.9638 -1.1565 -0.4055
 5031TIP3    H215100   3.908   4.273   3.570 -0.0417 -1.0305 -0.7890
 5032TIP3   OH215101   1.313   2.552   2.360  0.2764 -0.5098 -0.4413
 5032TIP3    H115102   1.328   2.586   2.272 -2.6674 -0.8822 -1.1809
 5032TIP3    H215103   1.332   2.625   2.418 -1.2928  0.9729 -1.6847
 5033TIP3   OH215104   3.720   4.951   1.600 -0.0809  0.3730  0.4892
 5033TIP3    H115105   3.630   4.926   1.577  0.8788 -2.7996 -0.2669
 5033TIP3    H215106   3.769   4.942   1.519  1.4663 -1.1552  1.5190
 5034TIP3   OH215107   1.893   2.451   1.776 -0.3812  0.1422 -0.4063
 5034TIP3    H115108   1.886   2.488   1.687 -3.8473  0.1691 -0.2592
 5034TIP3    H215109   1.833   2.504   1.828  0.5461 -0.7679  1.6782
 5035TIP3   OH215110   1.087   2.743   2.038 -0.0094 -0.1014 -0.1381
 5035TIP3    H115111   1.065   2.787   2.121  1.5954  0.0681  0.2292
 5035TIP3    H215112   1.176   2.711   2.051  0.1280 -0.4043 -1.6763
 5036TIP3   OH215113   0.467   3.987   0.141 -0.0888  0.0439 -0.0285
 5036TIP3    H115114   0.501   3.898   0.132  2.0269  0.7140  0.8782
 5036TIP3    H215115   0.435   3.991   0.232 -2.2726 -0.4118 -0.7083
 5037TIP3   OH215116   0.138   2.111   1.868 -0.2048 -0.7134  0.5238
 5037TIP3    H115117   0.194   2.173   1.822 -0.3497 -0.8340  0.1778
 5037TIP3    H215118   0.144   2.136   1.960  0.9816 -1.1600  0.5904
 5038TIP3   OH215119   1.161   3.832   5.031  0.5598 -0.6179  0.0779
 5038TIP3    H115120   1.179   3.917   5.072  0.1224  0.6743 -2.2004
 5038TIP3    H215121   1.234   3.777   5.056  2.3876  1.3397 -0.6661
 5039TIP3   OH215122   5.393   1.880   2.035  0.4219  0.4454  0.6753
 5039TIP3    H115123   5.478   1.850   2.066  0.0263  1.3159  2.8194
 5039TIP3    H215124   5.330   1.828   2.084 -0.2652  0.9359  0.3308
 5040TIP3   OH215125   3.182   5.764   2.337 -0.6434  0.3968  0.0198
 5040TIP3    H115126   3.223   5.722   2.412 -1.0963 -0.1212 -0.0130
 5040TIP3    H215127   3.141   5.692   2.289  0.2758  0.6148 -1.1382
 5041TIP3   OH215128   5.502   0.803   2.273 -0.3885  0.1231  0.2374
 5041TIP3    H115129   5.486   0.783   2.365  0.9181 -1.1630  0.2201
 5041TIP3    H215130   5.543   0.890   2.274 -0.3432  0.0968  0.8687
 5042TIP3   OH215131   2.434   3.480   1.769  0.3847 -0.5740 -0.1051
 5042TIP3    H115132   2.459   3.418   1.837 -2.7734 -0.7213  1.0934
 5042TIP3    H215133   2.372   3.432   1.714 -0.3541  0.8054 -0.5380
 5043TIP3   OH215134   2.965   3.025   0.439 -0.3671 -0.0162  0.2387
 5043TIP3    H115135   3.044   3.027   0.384  0.1012  1.0775  0.9160
 5043TIP3    H215136   2.984   3.087   0.510 -1.5692 -0.2595  0.7911
 5044TIP3   OH215137   5.532   4.872   5.070 -0.0779  0.2779 -0.2727
 5044TIP3    H115138   5.575   4.936   5.127  0.0176 -0.4932  0.5500
 5044TIP3    H215139   5.443   4.905   5.059  0.0894  0.7656 -0.2121
 5045TIP3   OH215140   3.892   4.582   4.289 -0.3143  0.2637 -0.3159
 5045TIP3    H115141   3.984   4.592   4.312 -0.2938 -0.9536  0.2262
 5045TIP3    H215142   3.846   4.648   4.340  0.1895  0.4112 -0.0527
 5046TIP3   OH215143   2.327   1.308   1.009 -0.5279 -0.6386  0.0175
 5046TIP3    H115144   2.311   1.395   1.046  0.9192 -0.9219  1.4123
 5046TIP3    H215145   2.285   1.310   0.923  1.8847  2.4723 -1.2780
 5047TIP3   OH215146   6.040   1.958   1.965  0.2493  0.3590  0.0276
 5047TIP3    H115147   6.118   1.988   2.011  0.9887 -0.9622 -0.3190
 5047TIP3    H215148   6.043   2.002   1.880 -0.4101  1.7629  0.6978
 5048TIP3   OH215149   1.214   0.394   2.527 -0.6279  0.0799  0.3132
 5048TIP3    H115150   1.256   0.460   2.473 -1.0444  0.0007 -0.1089
 5048TIP3    H215151   1.267   0.315   2.513 -1.3170 -0.2063 -0.7690
 5049TIP3   OH215152   3.807   0.492   2.346  0.0740 -0.0352 -0.3336
 5049TIP3    H115153   3.794   0.583   2.373 -0.1356 -0.2403  0.2677
 5049TIP3    H215154   3.749   0.481   2.271  0.9380  0.6494 -1.1259
 5050TIP3   OH215155   6.112   2.368   4.921 -0.1925 -0.1053 -0.6581
 5050TIP3    H115156   6.186   2.309   4.909 -0.9524 -1.0826 -0.6275
 5050TIP3    H215157   6.149   2.455   4.905  1.1493 -0.4807  0.2055
 5051TIP3   OH215158   6.093   4.337   3.968  0.5941 -0.2226  0.1250
 5051TIP3    H115159   6.179   4.346   3.927 -0.8607  0.8727 -3.0446
 5051TIP3    H215160   6.089   4.247   3.998  2.0300 -0.9958 -1.7998
 5052TIP3   OH215161   4.957   5.222   4.041  0.3592 -0.1795  0.0499
 5052TIP3    H115162   4.982   5.281   4.112  0.1242 -1.4368  1.2523
 5052TIP3    H215163   5.040   5.188   4.008  0.4978  0.8640 -0.7061
 5053TIP3   OH215164   2.659   3.373   3.984 -0.0015  0.0896 -0.2212
 5053TIP3    H115165   2.728   3.359   4.050 -1.2728  1.7759  1.5857
 5053TIP3    H215166   2.678   3.461   3.949 -2.1580  1.3910  1.6286
 5054TIP3   OH215167   0.804   2.138   4.826 -0.4307  0.5930  0.1625
 5054TIP3    H115168   0.872   2.088   4.871 -1.1026 -0.5780 -0.0864
 5054TIP3    H215169   0.819   2.122   4.733 -2.0083 -1.0355  0.1399
 5055TIP3   OH215170   4.975   5.651   4.642 -0.5987 -0.3486 -0.4396
 5055TIP3    H115171   4.921   5.572   4.645  0.8425 -1.3369  0.6222
 5055TIP3    H215172   5.053   5.625   4.594 -1.2131  1.2093 -2.4154
 5056TIP3   OH215173   4.968   4.153   2.229 -0.1230  0.5583  0.3062
 5056TIP3    H115174   4.977   4.129   2.136  0.7417  1.4011  0.1609
 5056TIP3    H215175   4.979   4.070   2.276  0.2129  0.2461 -0.3072
 5057TIP3   OH215176   4.760   1.145   2.579 -0.0120 -0.2221 -0.3532
 5057TIP3    H115177   4.749   1.128   2.485  1.4053  1.4405 -0.8789
 5057TIP3    H215178   4.819   1.076   2.608 -1.1100 -1.2470 -0.4575
 5058TIP3   OH215179   1.402   2.909   2.839  0.1294 -0.2630 -0.0387
 5058TIP3    H115180   1.387   2.956   2.921 -1.8661  0.2238 -0.6342
 5058TIP3    H215181   1.402   2.977   2.772 -0.6674 -0.8706 -0.6779
 5059TIP3   OH215182   5.185   3.982   4.603 -0.0823 -0.1115  0.1428
 5059TIP3    H115183   5.099   3.982   4.644 -0.6396  2.2301 -0.9029
 5059TIP3    H215184   5.192   3.895   4.563 -0.3593 -1.7405  3.2513
 5060TIP3   OH215185   3.072   5.121   0.069  0.2508  0.0436  0.1899
 5060TIP3    H115186   3.097   5.208   0.100 -0.1238  0.7576 -1.4105
 5060TIP3    H215187   2.977   5.119   0.074  0.1355  0.4209 -1.4670
 5061TIP3   OH215188   2.967   1.281   3.962  0.1590 -0.0751  0.0790
 5061TIP3    H115189   2.878   1.269   3.994  0.1432 -1.8898 -0.5224
 5061TIP3    H215190   3.017   1.307   4.040 -0.5754 -0.6861  0.7729
 5062TIP3   OH215191   2.480   3.786   2.244 -0.3785  0.0153 -0.1994
 5062TIP3    H115192   2.504   3.873   2.276 -1.5604  0.7884 -1.3199
 5062TIP3    H215193   2.492   3.792   2.149  0.6277 -1.4224 -0.1867
 5063TIP3   OH215194   4.878   4.561   2.259 -0.3043 -0.1243  0.4345
 5063TIP3    H115195   4.904   4.597   2.174 -1.9809  0.3925  0.1008
 5063TIP3    H215196   4.857   4.638   2.312  1.2118 -0.4147  1.5276
 5064TIP3   OH215197   5.490   3.950   2.443  0.5033 -0.2838  0.1505
 5064TIP3    H115198   5.409   3.964   2.492  0.1978  1.0014 -0.6955
 5064TIP3    H215199   5.515   4.037   2.412  0.0025 -1.1528 -3.0297
 5065TIP3   OH215200   1.302   3.192   0.474 -0.1386 -0.4989 -0.1408
 5065TIP3    H115201   1.221   3.238   0.452 -0.4656 -0.4260  1.1304
 5065TIP3    H215202   1.362   3.261   0.504  0.5886 -0.4844 -1.5576
 5066TIP3   OH215203   4.405   0.534   3.236  0.5123 -0.0994  0.8203
 5066TIP3    H115204   4.379   0.492   3.318  1.2665 -1.1473  0.5476
 5066TIP3    H215205   4.392   0.466   3.169 -1.2245  1.0994 -0.1396
 5067TIP3   OH215206   2.059   0.059   1.064  0.7366  0.5093 -0.4907
 5067TIP3    H115207   1.988   0.114   1.097  0.7415  0.8608 -1.0615
 5067TIP3    H215208   2.020   0.006   0.996  0.0752 -2.1322  1.7523
 5068TIP3   OH215209   5.933   4.674   3.123 -0.0789  0.2878  0.2047
 5068TIP3    H115210   5.840   4.657   3.112 -0.6549  2.7326  0.7328
 5068TIP3    H215211   5.952   4.745   3.061  1.0083  0.9961  1.3019
 5069TIP3   OH215212   0.449   2.840   3.157 -0.3160 -0.1885 -0.0315
 5069TIP3    H115213   0.420   2.844   3.248 -0.2898  2.3239 -0.0704
 5069TIP3    H215214   0.483   2.927   3.139 -1.1425 -0.3435 -2.7438
 5070TIP3   OH215215   2.059   3.676   1.586  0.4101  0.3856  0.5271
 5070TIP3    H115216   2.036   3.748   1.644 -1.0199 -0.3925  0.9795
 5070TIP3    H215217   2.077   3.602   1.645  2.8387  0.5926  0.1169
 5071TIP3   OH215218   1.557   4.619   2.718  0.1463  0.2187  0.3849
 5071TIP3    H115219   1.624   4.673   2.761  0.5104 -1.2917  1.7856
 5071TIP3    H215220   1.488   4.609   2.783  0.4152 -1.5892  0.4458
 5072TIP3   OH215221   2.942   4.971   4.972  0.1729 -0.0276  0.3121
 5072TIP3    H115222   2.972   5.006   4.888  0.3352  0.2802  0.4992
 5072TIP3    H215223   2.880   4.901   4.948  1.3876 -1.0067 -0.0831
 5073TIP3   OH215224   0.793   5.392   3.985 -0.4650  0.4284 -0.7249
 5073TIP3    H115225   0.778   5.363   3.895 -0.3688  2.8095 -1.5603
 5073TIP3    H215226   0.717   5.358   4.034 -0.6408 -0.6878 -1.7278
 5074TIP3   OH215227   5.147   1.160   4.597 -0.1574 -0.4383  0.1049
 5074TIP3    H115228   5.173   1.193   4.511 -0.3579  2.4069  1.0362
 5074TIP3    H215229   5.169   1.067   4.594  1.9771  0.0132 -2.2219
 5075TIP3   OH215230   6.291   0.930   4.783 -0.0389  0.2955  0.8963
 5075TIP3    H115231   6.318   0.839   4.798 -1.3229 -0.1050  0.8744
 5075TIP3    H215232   6.288   0.969   4.871  1.7754  0.7272  0.8166
 5076TIP3   OH215233   4.038   2.446   3.698 -0.0418 -0.1840 -0.1059
 5076TIP3    H115234   4.112   2.466   3.641  0.9333 -0.3529  1.0592
 5076TIP3    H215235   3.968   2.505   3.668  1.1510  1.3251 -0.0475
 5077TIP3   OH215236   5.119   4.310   1.120  0.1279  0.2158  0.0894
 5077TIP3    H115237   5.081   4.254   1.052  1.6883 -0.5754 -0.1855
 5077TIP3    H215238   5.068   4.290   1.198 -0.1249 -0.7208 -0.2917
 5078TIP3   OH215239   5.437   0.948   4.079  0.4414  0.0780 -0.1821
 5078TIP3    H115240   5.405   0.885   4.015  0.3733 -0.2755  0.1932
 5078TIP3    H215241   5.449   1.029   4.030  1.0521 -0.3727 -0.7830
 5079TIP3   OH215242   2.871   4.532   4.025 -0.3282 -0.1295  0.0217
 5079TIP3    H115243   2.962   4.503   4.026 -0.3639 -0.2355  1.4855
 5079TIP3    H215244   2.830   4.479   3.956  1.1844  1.5083 -2.3153
 5080TIP3   OH215245   0.711   5.429   3.118  0.1634  0.3946 -0.5165
 5080TIP3    H115246   0.685   5.473   3.037 -0.3217  1.5358  0.2393
 5080TIP3    H215247   0.689   5.337   3.104 -0.7221  0.7226 -1.3449
 5081TIP3   OH215248   2.446   4.534   2.557 -0.8613 -0.2139 -0.0252
 5081TIP3    H115249   2.535   4.532   2.522 -0.7619  0.9946  0.1240
 5081TIP3    H215250   2.444   4.610   2.615 -1.4203 -1.3753  1.5700
 5082TIP3   OH215251   6.293   2.064   0.279  0.0164  0.6365  0.0704
 5082TIP3    H115252   6.206   2.024   0.271  0.2274 -0.2281  1.6678
 5082TIP3    H215253   6.294   2.131   0.211 -1.4264 -0.1738 -0.8187
 5083TIP3   OH215254   0.171   2.037   4.390 -0.1909  0.4648 -0.1731
 5083TIP3    H115255   0.197   2.099   4.457 -0.3031 -0.2695  0.5637
 5083TIP3    H215256   0.184   2.083   4.307  1.8792  0.6791  0.2350
 5084TIP3   OH215257   3.132   4.431   3.287 -0.5931 -0.1881 -0.2862
 5084TIP3    H115258   3.151   4.345   3.323  1.8069  0.1455 -0.5517
 5084TIP3    H215259   3.108   4.415   3.196  0.7565 -0.5604 -0.5976
 5085TIP3   OH215260   0.995   3.306   5.130 -0.0209 -0.4908 -0.0806
 5085TIP3    H115261   1.008   3.355   5.211  0.7709 -1.5229  0.4483
 5085TIP3    H215262   0.912   3.338   5.096 -1.0716 -0.9776  1.8562
 5086TIP3   OH215263   5.498   1.416   5.051  0.6328 -0.5192 -0.0847
 5086TIP3    H115264   5.509   1.507   5.023  1.9584 -0.4525  0.5646
 5086TIP3    H215265   5.413   1.414   5.095  0.2099  0.2051 -0.8401
 5087TIP3   OH215266   1.190   1.084   4.070 -0.1189 -0.4350  0.0938
 5087TIP3    H115267   1.102   1.086   4.032 -0.8675  0.1216  1.7601
 5087TIP3    H215268   1.175   1.064   4.162  1.4854  0.0854  0.4895
 5088TIP3   OH215269   2.522   1.335   4.068  0.3232  0.4332  0.4635
 5088TIP3    H115270   2.428   1.324   4.054  0.6069  1.1430 -2.9394
 5088TIP3    H215271   2.529   1.409   4.128 -1.2854  1.0425 -0.0429
 5089TIP3   OH215272   0.179   5.502   2.953  0.3193 -0.4366 -0.0564
 5089TIP3    H115273   0.236   5.460   2.888  1.1299  0.0882  0.3065
 5089TIP3    H215274   0.214   5.474   3.037  0.3578  0.3137  0.1778
 5090TIP3   OH215275   0.452   0.794   5.042  0.0940  0.2202 -0.4095
 5090TIP3    H115276   0.438   0.785   4.948 -0.3135 -2.5400 -0.1776
 5090TIP3    H215277   0.380   0.745   5.081  2.7912 -2.8078  1.1924
 5091TIP3   OH215278   0.465   4.406   1.065  0.1873 -0.0294 -0.5757
 5091TIP3    H115279   0.405   4.479   1.079  0.3324 -0.1073  0.5771
 5091TIP3    H215280   0.409   4.330   1.048 -0.0414 -0.0603  0.2857
 5092TIP3   OH215281   5.637   0.276   0.917  0.2343 -0.6287  0.7373
 5092TIP3    H115282   5.686   0.313   0.845 -0.3145 -1.3758 -0.0435
 5092TIP3    H215283   5.693   0.208   0.953  1.5442  1.3242  2.6253
 5093TIP3   OH215284   2.261   5.434   2.895 -0.7031 -0.5117  0.5140
 5093TIP3    H115285   2.269   5.346   2.932  0.1646 -1.3706 -1.5635
 5093TIP3    H215286   2.344   5.476   2.915 -0.6722 -0.5773  0.5249
 5094TIP3   OH215287   5.261   4.305   0.630 -0.2305 -0.6016 -0.6794
 5094TIP3    H115288   5.234   4.295   0.722 -1.6020  0.8230 -0.8882
 5094TIP3    H215289   5.329   4.239   0.618  0.0701 -0.7393  1.3968
 5095TIP3   OH215290   5.037   3.264   4.215  0.6365  0.5023  0.3687
 5095TIP3    H115291   5.096   3.233   4.146 -0.2457  1.7028 -0.9959
 5095TIP3    H215292   5.070   3.351   4.237 -0.9366  1.4647 -0.8760
 5096TIP3   OH215293   2.907   4.720   0.403  0.2857  0.6731 -0.0267
 5096TIP3    H115294   2.991   4.695   0.441  0.2421  1.2257  0.4415
 5096TIP3    H215295   2.898   4.813   0.422 -0.2005  0.7365 -0.5217
 5097TIP3   OH215296   0.578   2.817   1.466  0.2315  0.0510  0.1967
 5097TIP3    H115297   0.558   2.845   1.377  1.4685  1.5273  0.3507
 5097TIP3    H215298   0.535   2.732   1.474 -0.0588 -0.0359 -1.7422
 5098TIP3   OH215299   1.738   2.323   2.326 -0.1889  0.1545  0.2191
 5098TIP3    H115300   1.745   2.377   2.405 -0.5053  1.1147 -0.3901
 5098TIP3    H215301   1.779   2.240   2.350 -1.2720  0.0174  1.7495
 5099TIP3   OH215302   3.831   4.824   2.874 -0.1569  0.0445  0.5476
 5099TIP3    H115303   3.761   4.802   2.814 -1.4566  3.5083  0.6231
 5099TIP3    H215304   3.878   4.896   2.833  1.0500  0.2634  2.1711
 5100TIP3   OH215305   3.286   1.159   1.204 -0.3328 -0.5079  0.0205
 5100TIP3    H115306   3.279   1.096   1.276 -0.8103 -1.3544 -0.7596
 5100TIP3    H215307   3.197   1.195   1.196 -0.1184  0.1068  0.3023
 5101TIP3   OH215308   4.301   0.562   0.864 -0.3278 -0.4102  0.1710
 5101TIP3    H115309   4.369   0.572   0.798 -0.7644 -0.4020 -0.2915
 5101TIP3    H215310   4.345   0.574   0.948  0.2706 -0.6127 -0.1138
 5102TIP3   OH215311   2.100   4.997   2.492 -0.1578  0.5229 -0.6608
 5102TIP3    H115312   2.096   4.947   2.410 -3.4542 -0.7189  0.0864
 5102TIP3    H215313   2.180   4.966   2.535  1.2978  0.7242 -3.0233
 5103TIP3   OH215314   1.708   2.132   2.658 -0.0558  0.0443 -0.5032
 5103TIP3    H115315   1.731   2.076   2.584  2.1048  0.5610 -0.2992
 5103TIP3    H215316   1.697   2.071   2.731 -0.3260 -0.3141 -0.8352
 5104TIP3   OH215317   3.636   1.658   1.141  0.0025  0.3872 -0.3314
 5104TIP3    H115318   3.590   1.578   1.166  0.9625  0.0715  0.4958
 5104TIP3    H215319   3.719   1.628   1.105 -0.0850  0.9776 -1.0446
 5105TIP3   OH215320   3.863   5.969   4.506  0.1887 -0.0881 -0.7930
 5105TIP3    H115321   3.844   5.942   4.416 -0.0853  0.2692 -0.8452
 5105TIP3    H215322   3.779   5.958   4.552  0.5291 -1.0835 -0.3701
 5106TIP3   OH215323   5.508   0.184   5.117  0.1400  0.2591 -0.1789
 5106TIP3    H115324   5.444   0.254   5.119  1.3068  1.3460  0.5654
 5106TIP3    H215325   5.489   0.132   5.196 -0.0571  0.3573 -0.1624
 5107TIP3   OH215326   3.360   3.756   4.941 -0.0159 -0.1266  0.2041
 5107TIP3    H115327   3.348   3.766   5.036  1.6530  0.4772  0.3774
 5107TIP3    H215328   3.428   3.690   4.932 -0.2246 -0.2388 -0.5900
 5108TIP3   OH215329   3.196   2.110   4.888 -0.3503 -0.7823  0.7802
 5108TIP3    H115330   3.273   2.121   4.943 -0.1939  1.6418  0.1911
 5108TIP3    H215331   3.214   2.165   4.811 -1.3140 -2.6759 -0.8886
 5109TIP3   OH215332   1.967   0.533   0.950 -0.2315  0.2264 -0.1788
 5109TIP3    H115333   2.045   0.530   1.006 -0.8227  1.4848  0.7681
 5109TIP3    H215334   1.910   0.465   0.984 -0.1338  0.2628  0.0613
 5110TIP3   OH215335   3.993   5.151   4.580 -0.5623 -0.3336 -0.0754
 5110TIP3    H115336   3.993   5.211   4.655 -0.2080  0.5163 -0.7364
 5110TIP3    H215337   3.926   5.186   4.521  0.1090 -0.1995 -0.7670
 5111TIP3   OH215338   0.947   5.038   2.692 -0.2078 -0.4519  0.1751
 5111TIP3    H115339   0.865   4.995   2.669  0.3405 -0.4113 -2.0976
 5111TIP3    H215340   0.921   5.113   2.746 -1.6361 -0.5748 -0.3070
 5112TIP3   OH215341   4.550   5.017   2.399 -0.1934 -0.7212  0.4595
 5112TIP3    H115342   4.517   4.989   2.485 -0.6138 -0.3745  0.4175
 5112TIP3    H215343   4.643   5.035   2.414 -0.5467  0.6362  1.1779
 5113TIP3   OH215344   5.614   3.807   3.058  0.3094  0.1738  0.0406
 5113TIP3    H115345   5.698   3.829   3.099  1.0407 -0.1762 -1.2195
 5113TIP3    H215346   5.577   3.892   3.033 -0.1943  0.3995  1.4594
 5114TIP3   OH215347   2.186   1.184   2.508  0.1091 -0.0150  0.4226
 5114TIP3    H115348   2.197   1.095   2.542  0.3963  0.3360  1.2807
 5114TIP3    H215349   2.091   1.199   2.511  0.0173 -0.4562 -0.1687
 5115TIP3   OH215350   5.456   5.491   2.925  0.1048  0.3235  0.5264
 5115TIP3    H115351   5.504   5.443   2.992 -1.2806  0.0818  1.3832
 5115TIP3    H215352   5.492   5.460   2.843 -0.7842 -2.2984  1.0254
 5116TIP3   OH215353   2.331   5.200   2.696  0.0693  0.4856  0.0406
 5116TIP3    H115354   2.315   5.142   2.771  0.3173  0.7705  0.3191
 5116TIP3    H215355   2.425   5.217   2.698  0.2207 -0.1978 -0.8568
 5117TIP3   OH215356   2.135   3.517   2.871 -0.0713 -0.6013  0.0844
 5117TIP3    H115357   2.162   3.467   2.948 -1.5455 -2.0999 -0.3060
 5117TIP3    H215358   2.144   3.456   2.798 -1.9026 -0.3568 -0.4118
 5118TIP3   OH215359   3.798   0.824   1.990  0.0342 -0.2443 -0.3586
 5118TIP3    H115360   3.796   0.766   1.913  1.0203  0.0219 -0.5982
 5118TIP3    H215361   3.885   0.810   2.028 -0.5413 -0.5947  0.8941
 5119TIP3   OH215362   1.366   2.764   4.361 -0.3905 -1.0614  0.2942
 5119TIP3    H115363   1.296   2.778   4.425 -0.4074  0.9320 -0.0947
 5119TIP3    H215364   1.429   2.834   4.379  0.1480 -1.1439 -1.1430
 5120TIP3   OH215365   0.178   2.489   1.148  0.4304  0.0044  0.4605
 5120TIP3    H115366   0.186   2.482   1.053  0.1497 -0.9965  0.5019
 5120TIP3    H215367   0.086   2.511   1.163  0.8817  2.0883  0.4286
 5121TIP3   OH215368   3.258   2.199   3.231 -0.2645  0.5838  0.5042
 5121TIP3    H115369   3.248   2.117   3.182 -0.0836  1.2966 -0.7712
 5121TIP3    H215370   3.346   2.193   3.268  0.0346  0.5166 -0.2007
 5122TIP3   OH215371   2.981   0.998   0.945 -0.8884 -0.1379  0.3720
 5122TIP3    H115372   3.062   1.038   0.914 -1.6184  0.7495 -0.4708
 5122TIP3    H215373   2.993   0.905   0.929  1.9567 -0.8548  4.8787
 5123TIP3   OH215374   2.634   4.211   0.585  0.9352  0.0484  0.2774
 5123TIP3    H115375   2.566   4.204   0.518  0.1403  0.5771  1.0022
 5123TIP3    H215376   2.715   4.222   0.536  0.4118  0.1091 -0.5991
 5124TIP3   OH215377   5.153   5.314   0.626  0.1074  0.0985 -0.0754
 5124TIP3    H115378   5.216   5.374   0.586 -0.0249 -0.2674 -0.8407
 5124TIP3    H215379   5.205   5.265   0.690  0.0294  1.6734  1.2938
 5125TIP3   OH215380   1.498   5.815   2.452 -0.4557 -0.0971  0.0087
 5125TIP3    H115381   1.534   5.782   2.370 -0.3154 -0.0786  0.0617
 5125TIP3    H215382   1.409   5.780   2.456 -0.5758  0.1747 -0.3097
 5126TIP3   OH215383   3.905   0.551   2.965  0.2663 -0.0955 -0.5555
 5126TIP3    H115384   3.932   0.613   3.032  0.1288  0.1385 -0.7128
 5126TIP3    H215385   3.812   0.535   2.984  0.3690 -0.4567 -0.3569
 5127TIP3   OH215386   1.976   2.143   4.907  0.5609  0.3926 -0.0556
 5127TIP3    H115387   1.904   2.151   4.969  1.9953  0.3202  1.7045
 5127TIP3    H215388   1.945   2.187   4.828 -1.4902  0.1146  0.5382
 5128TIP3   OH215389   5.507   5.154   4.305  0.2806  0.2669 -0.7437
 5128TIP3    H115390   5.425   5.116   4.335 -0.0310  1.1718 -0.4051
 5128TIP3    H215391   5.558   5.080   4.271  0.3314 -0.6918  1.2873
 5129TIP3   OH215392   5.137   5.408   2.309 -0.1456  0.2467 -0.2199
 5129TIP3    H115393   5.082   5.486   2.308 -0.4691  0.0382  0.7060
 5129TIP3    H215394   5.208   5.430   2.371 -0.8274 -0.5710  0.8913
 5130TIP3   OH215395   3.298   1.359   4.599 -0.3011  0.1874  0.5556
 5130TIP3    H115396   3.254   1.291   4.547  1.9616 -0.4489 -0.6424
 5130TIP3    H215397   3.277   1.336   4.690 -0.4240 -1.5300  0.1297
 5131TIP3   OH215398   1.456   2.472   2.745  0.1218 -0.2530 -0.5884
 5131TIP3    H115399   1.547   2.473   2.715 -0.1734  2.4247 -1.7144
 5131TIP3    H215400   1.427   2.382   2.731  2.2316 -0.8907 -1.3295
 5132TIP3   OH215401   5.250   4.864   2.203 -0.2377 -0.0868 -0.1514
 5132TIP3    H115402   5.166   4.908   2.195  0.3812  1.3895  1.0077
 5132TIP3    H215403   5.236   4.795   2.268 -0.6622 -0.1932 -0.3513
 5133TIP3   OH215404   5.105   5.775   2.745  0.0319 -0.0575 -0.2374
 5133TIP3    H115405   5.096   5.847   2.683 -0.1406  1.0756  1.0561
 5133TIP3    H215406   5.163   5.808   2.813  0.3440 -1.3211  0.1443
 5134TIP3   OH215407   0.617   5.409   0.246  0.1476  0.7021 -0.0212
 5134TIP3    H115408   0.681   5.465   0.290 -0.4321 -0.3059  2.2216
 5134TIP3    H215409   0.565   5.372   0.317 -2.0461  0.4084 -1.6932
 5135TIP3   OH215410   4.829   1.516   4.077 -0.1622 -0.0385  1.0677
 5135TIP3    H115411   4.767   1.567   4.027 -0.9482 -0.3432  1.7007
 5135TIP3    H215412   4.825   1.428   4.039  0.7844  0.2219  0.3314
 5136TIP3   OH215413   0.169   1.871   0.099 -0.1788  0.0481  0.5331
 5136TIP3    H115414   0.119   1.952   0.102 -0.3914  0.1951 -2.9728
 5136TIP3    H215415   0.261   1.900   0.096 -0.2310  0.1670 -0.1233
 5137TIP3   OH215416   5.739   2.758   0.157  0.1744  0.0130  0.0446
 5137TIP3    H115417   5.766   2.800   0.239  1.8679 -0.8121 -0.0364
 5137TIP3    H215418   5.708   2.671   0.184  0.4514 -0.1474 -0.1451
 5138TIP3   OH215419   6.327   0.194   1.518 -0.0071  0.4238  0.0038
 5138TIP3    H115420   6.290   0.108   1.534  1.3464 -0.3192 -0.6782
 5138TIP3    H215421   6.405   0.198   1.574 -1.2288  2.1030  1.7083
 5139TIP3   OH215422   4.214   3.949   1.002  0.7763 -0.5992  0.6354
 5139TIP3    H115423   4.248   4.038   0.995 -0.6716 -0.1060 -0.8122
 5139TIP3    H215424   4.290   3.892   0.990  1.5836  0.4320  0.7619
 5140TIP3   OH215425   2.873   3.418   3.487  0.2450 -0.0073  0.2173
 5140TIP3    H115426   2.872   3.335   3.438 -0.9188 -0.7300  1.3776
 5140TIP3    H215427   2.961   3.453   3.474 -0.1535  0.1313 -2.7995
 5141TIP3   OH215428   3.404   3.374   1.898  0.2924 -0.5569  0.2965
 5141TIP3    H115429   3.486   3.387   1.946  1.0458 -0.4075 -0.9780
 5141TIP3    H215430   3.379   3.462   1.869  0.3908 -0.7584 -0.4198
 5142TIP3   OH215431   2.061   2.010   0.596 -0.3213 -0.1950  0.2821
 5142TIP3    H115432   2.020   1.976   0.676 -0.0978  0.8594  0.8528
 5142TIP3    H215433   2.114   2.084   0.625 -1.6872  1.3850 -1.0659
 5143TIP3   OH215434   1.932   0.147   3.540 -0.0887 -0.3130  0.4610
 5143TIP3    H115435   1.991   0.105   3.603 -0.8018 -1.0712  0.6367
 5143TIP3    H215436   1.988   0.208   3.492  1.1135 -1.9204 -0.2494
 5144TIP3   OH215437   2.977   0.847   0.636 -0.0039  0.5703 -0.8826
 5144TIP3    H115438   3.041   0.780   0.611 -1.2065 -0.9953  0.0375
 5144TIP3    H215439   3.027   0.929   0.639  2.1708 -0.7257  0.7266
 5145TIP3   OH215440   1.391   3.359   1.543 -0.1607 -0.0229  0.3137
 5145TIP3    H115441   1.468   3.386   1.492 -0.7142  1.1104  0.0541
 5145TIP3    H215442   1.317   3.394   1.494 -0.6860  1.8363  2.2959
 5146TIP3   OH215443   2.347   2.929   3.754  0.3524  0.3833  0.6651
 5146TIP3    H115444   2.306   2.939   3.839 -1.3169 -0.7336  0.0341
 5146TIP3    H215445   2.433   2.890   3.773  0.0240  0.1902  1.8179
 5147TIP3   OH215446   0.858   2.550   2.597  0.1710 -0.4828  0.2187
 5147TIP3    H115447   0.868   2.457   2.613  1.0327 -0.3065  0.7183
 5147TIP3    H215448   0.812   2.584   2.674 -0.9017 -0.6258 -0.3387
 5148TIP3   OH215449   0.908   4.197   3.814  0.8581  0.6378  0.4910
 5148TIP3    H115450   0.926   4.283   3.775  1.6784  1.0426  1.7360
 5148TIP3    H215451   0.828   4.210   3.865  0.3615  0.3660 -0.1998
 5149TIP3   OH215452   2.417   1.063   4.627  0.1590  0.0637  0.0700
 5149TIP3    H115453   2.467   1.074   4.546 -1.2557  2.0121 -0.6100
 5149TIP3    H215454   2.478   1.090   4.696  0.6663  0.6003 -0.5656
 5150TIP3   OH215455   2.125   4.684   2.632 -0.5755 -0.6529 -0.8102
 5150TIP3    H115456   2.049   4.716   2.583 -0.3692  1.6583  0.2586
 5150TIP3    H215457   2.103   4.593   2.653 -3.2607  0.0534 -0.1486
 5151TIP3   OH215458   0.005   2.203   4.071  0.1622  0.3077  0.3604
 5151TIP3    H115459   0.066   2.253   4.017  0.4975  1.6430  1.8705
 5151TIP3    H215460   0.024   2.232   4.161 -0.1663 -2.0055  1.2450
 5152TIP3   OH215461   1.239   3.428   2.224  0.1376 -0.1395 -0.0922
 5152TIP3    H115462   1.148   3.455   2.217  0.3444  0.5503 -0.1577
 5152TIP3    H215463   1.285   3.482   2.160  0.9688  1.2854  1.6253
 5153TIP3   OH215464   1.137   1.199   0.320 -0.6829 -0.3737  0.5939
 5153TIP3    H115465   1.073   1.141   0.280  0.9597 -1.7207 -0.2099
 5153TIP3    H215466   1.162   1.259   0.249  1.7649 -2.3615 -0.3540
 5154TIP3   OH215467   2.050   5.824   2.844  0.5762 -0.1477 -0.1720
 5154TIP3    H115468   1.961   5.837   2.877  0.5788  1.2084 -0.6334
 5154TIP3    H215469   2.039   5.771   2.765 -0.2640  2.8810 -2.2523
 5155TIP3   OH215470   4.616   3.188   4.897 -0.7563 -0.1916  0.5364
 5155TIP3    H115471   4.704   3.158   4.872 -0.6557  0.8893 -0.4652
 5155TIP3    H215472   4.626   3.217   4.988 -0.6744 -2.3536  1.2777
 5156TIP3   OH215473   5.884   0.638   1.766 -0.2431 -0.0224  0.2556
 5156TIP3    H115474   5.958   0.597   1.721 -1.2454  0.3590 -1.8637
 5156TIP3    H215475   5.919   0.721   1.799  0.2402  0.2728 -0.9387
 5157TIP3   OH215476   1.168   2.933   2.526 -0.1796 -0.0451 -0.0799
 5157TIP3    H115477   1.165   3.023   2.494 -1.6514 -0.0746 -0.0775
 5157TIP3    H215478   1.095   2.927   2.587  1.0600 -0.7167  1.3963
 5158TIP3   OH215479   1.541   3.862   0.274 -0.2318 -0.0516  0.6413
 5158TIP3    H115480   1.537   3.955   0.252  0.8398 -0.1413 -0.0032
 5158TIP3    H215481   1.457   3.827   0.243 -0.1479  0.4754 -0.2179
 5159TIP3   OH215482   0.205   1.254   4.990 -0.1551  0.0585 -0.4610
 5159TIP3    H115483   0.150   1.327   5.018  0.3417  0.0719  0.5372
 5159TIP3    H215484   0.143   1.183   4.971 -0.5742  0.3788 -0.2978
 5160TIP3   OH215485   2.012   4.052   4.226  0.5010  0.1913  0.1336
 5160TIP3    H115486   2.044   4.143   4.226 -0.8102  0.6834 -0.4614
 5160TIP3    H215487   1.920   4.059   4.250  0.5977 -1.0948  0.9628
 5161TIP3   OH215488   4.609   3.662   1.430  0.7533  0.5867  0.3168
 5161TIP3    H115489   4.619   3.689   1.338  2.6661 -0.8764  0.0349
 5161TIP3    H215490   4.515   3.657   1.443  0.4393  0.0358 -1.8252
 5162TIP3   OH215491   5.904   4.313   3.268 -0.1811 -0.1648 -0.2473
 5162TIP3    H115492   5.901   4.407   3.287 -0.0951 -0.2295  0.0859
 5162TIP3    H215493   5.937   4.308   3.178 -1.4168  0.1771 -0.7386
 5163TIP3   OH215494   4.575   3.793   3.843  0.1820 -0.8508 -0.4498
 5163TIP3    H115495   4.504   3.857   3.836  0.1843 -0.2677  2.9160
 5163TIP3    H215496   4.642   3.838   3.894 -0.1268 -3.6455  2.7636
 5164TIP3   OH215497   2.529   4.116   2.593  0.2519 -0.4355  0.1687
 5164TIP3    H115498   2.495   4.046   2.649  0.2911  0.4485  1.3478
 5164TIP3    H215499   2.508   4.197   2.641  3.3577  0.2068  0.6362
 5165TIP3   OH215500   0.448   5.637   3.996  0.3062 -0.3550  0.4312
 5165TIP3    H115501   0.505   5.706   3.963  1.2411 -1.4724 -0.3579
 5165TIP3    H215502   0.375   5.684   4.037 -0.0119  1.0927 -1.6620
 5166TIP3   OH215503   0.100   4.718   5.067 -0.6825 -0.1708 -0.9265
 5166TIP3    H115504   0.166   4.688   5.004  1.1166 -1.1857  1.3012
 5166TIP3    H215505   0.051   4.639   5.090  0.6156 -0.4847  1.0367
 5167TIP3   OH215506   3.526   2.658   5.098  0.0158  0.4842 -0.0075
 5167TIP3    H115507   3.530   2.660   5.003  0.0810  1.3722  0.0045
 5167TIP3    H215508   3.433   2.672   5.118 -0.1212 -0.4949  0.0465
 5168TIP3   OH215509   3.416   5.361   0.892  0.0234  0.2673  0.0689
 5168TIP3    H115510   3.380   5.292   0.947  0.8194  0.3078  0.6682
 5168TIP3    H215511   3.379   5.442   0.927  1.5947  0.4300  1.4940
 5169TIP3   OH215512   1.451   3.189   3.513 -0.3484 -0.2605 -0.2717
 5169TIP3    H115513   1.420   3.150   3.431 -0.0693 -1.3311  0.1264
 5169TIP3    H215514   1.408   3.275   3.515  0.2379  0.1114 -1.9090
 5170TIP3   OH215515   6.017   0.036   1.876 -0.1912  0.6743 -0.0851
 5170TIP3    H115516   6.065   0.058   1.956 -0.8828 -2.6917  1.3921
 5170TIP3    H215517   6.014  -0.059   1.874 -1.8586  0.6555 -3.1631
 5171TIP3   OH215518   5.206   3.527   1.146 -0.2027  0.7719  0.4943
 5171TIP3    H115519   5.117   3.551   1.170 -1.0886 -1.4243 -0.4089
 5171TIP3    H215520   5.230   3.458   1.208  0.1645  0.0849 -0.3914
 5172TIP3   OH215521   1.149   2.043   4.034 -0.7418 -0.3324  0.4732
 5172TIP3    H115522   1.092   2.119   4.049 -0.4587  0.4671 -2.0589
 5172TIP3    H215523   1.089   1.970   4.019 -1.3074  0.6863 -3.1097
 5173TIP3   OH215524   6.095   4.666   4.647  0.1622 -0.2189  0.5876
 5173TIP3    H115525   6.027   4.727   4.674  0.3411  0.3368 -0.1630
 5173TIP3    H215526   6.120   4.620   4.727 -0.5006  0.1652  1.0250
 5174TIP3   OH215527   4.022   2.581   0.427 -0.1347 -0.4393 -0.1403
 5174TIP3    H115528   4.108   2.543   0.445 -0.3192 -0.3442  0.9985
 5174TIP3    H215529   3.968   2.505   0.404  0.1171 -0.5629 -0.3351
 5175TIP3   OH215530   0.165   1.564   1.489 -0.6221  0.0716  0.2378
 5175TIP3    H115531   0.109   1.488   1.500 -0.5927  0.1307  0.8278
 5175TIP3    H215532   0.254   1.528   1.483 -0.8714 -0.6136 -6.1758
 5176TIP3   OH215533   1.034   4.146   3.066 -0.4742  0.0084  0.2846
 5176TIP3    H115534   1.054   4.061   3.106 -0.1456  0.0057  0.1165
 5176TIP3    H215535   0.942   4.140   3.041 -0.9398  0.3165  1.8234
 5177TIP3   OH215536   5.014   3.109   3.234  0.1394  0.3119  0.3769
 5177TIP3    H115537   4.925   3.084   3.261  0.9794 -2.0072  1.2946
 5177TIP3    H215538   5.002   3.189   3.182 -2.4303  0.2660  0.7594
 5178TIP3   OH215539   5.632   3.795   0.501 -0.0106  0.3382  0.0949
 5178TIP3    H115540   5.639   3.828   0.591  1.6502  1.2056 -0.3207
 5178TIP3    H215541   5.693   3.848   0.451  0.8912 -1.7193 -1.1100
 5179TIP3   OH215542   4.627   5.386   3.530  0.0001 -0.4984  0.4866
 5179TIP3    H115543   4.604   5.304   3.486 -1.7630 -0.7940  1.8681
 5179TIP3    H215544   4.703   5.364   3.584 -1.0592 -1.5145  1.6047
 5180TIP3   OH215545   0.622   1.358   4.319 -0.7775 -0.1340 -0.2284
 5180TIP3    H115546   0.631   1.435   4.263  1.1669 -0.2300 -0.1195
 5180TIP3    H215547   0.603   1.394   4.406 -0.9993  0.1629 -0.4007
 5181TIP3   OH215548   3.297   3.677   0.254  0.5749  0.1618 -0.2448
 5181TIP3    H115549   3.355   3.750   0.275  0.9837 -0.1533 -0.2655
 5181TIP3    H215550   3.209   3.716   0.250  0.8810  0.7943 -1.0283
 5182TIP3   OH215551   3.598   2.939   0.796  0.0990 -0.1455 -0.0103
 5182TIP3    H115552   3.567   2.862   0.844 -1.1540 -0.0754 -0.6513
 5182TIP3    H215553   3.687   2.915   0.768  0.0306 -1.0359  0.4868
 5183TIP3   OH215554   5.975   3.621   4.029 -0.5638 -0.3340 -0.6024
 5183TIP3    H115555   5.930   3.591   4.108  0.2991 -0.1617 -0.0358
 5183TIP3    H215556   5.932   3.574   3.957 -1.1212 -0.7509 -0.0044
 5184TIP3   OH215557   6.041   2.356   1.499  0.3841  0.4955 -0.5865
 5184TIP3    H115558   6.031   2.266   1.468  1.2819  0.4327 -0.7260
 5184TIP3    H215559   6.066   2.347   1.591  2.3294  0.5160 -1.0727
 5185TIP3   OH215560   5.329   0.655   0.391  0.1638 -0.3225 -0.1174
 5185TIP3    H115561   5.284   0.716   0.450  1.9653  1.2319 -0.2746
 5185TIP3    H215562   5.301   0.568   0.421 -1.9256  0.5051  0.5691
 5186TIP3   OH215563   5.748   1.844   0.732 -0.0998  0.0525  0.5146
 5186TIP3    H115564   5.730   1.934   0.705 -1.1075 -0.1300  0.5688
 5186TIP3    H215565   5.788   1.803   0.655 -2.1902 -0.2311 -0.4848
 5187TIP3   OH215566   1.498   5.795   4.166 -0.4720  0.1182  0.2362
 5187TIP3    H115567   1.434   5.819   4.098  0.2089 -0.4917 -0.6408
 5187TIP3    H215568   1.573   5.853   4.150 -0.8769  1.0363  1.4465
 5188TIP3   OH215569   0.518   0.307   1.027  0.3740 -0.1523  0.2792
 5188TIP3    H115570   0.606   0.312   1.064  0.5698  0.4048 -0.2433
 5188TIP3    H215571   0.506   0.214   1.008  0.5163 -0.3543  1.1248
 5189TIP3   OH215572   2.097   1.356   2.220 -0.5110  0.1144  0.2456
 5189TIP3    H115573   2.149   1.321   2.292  0.3865  1.6880  0.3928
 5189TIP3    H215574   2.153   1.345   2.143 -0.9976 -0.5035 -0.0240
 5190TIP3   OH215575   3.953   5.097   2.204 -0.0918  0.6068  0.1656
 5190TIP3    H115576   3.930   5.007   2.183 -0.9675  0.6306  0.9572
 5190TIP3    H215577   4.013   5.124   2.134  0.9695 -0.8951  0.4604
 5191TIP3   OH215578   4.489   1.859   2.897 -0.5940  0.2220  0.1540
 5191TIP3    H115579   4.513   1.800   2.969 -1.0759  0.4618  0.5142
 5191TIP3    H215580   4.566   1.858   2.840 -0.6116 -0.7860  0.1303
 5192TIP3   OH215581   1.258   5.887   1.050  0.3026  0.1471 -0.3052
 5192TIP3    H115582   1.165   5.862   1.044 -0.6953  3.7823 -2.9528
 5192TIP3    H215583   1.290   5.883   0.960  1.2876  3.4281 -0.2262
 5193TIP3   OH215584   4.230   2.033   4.509 -0.0043 -0.4164 -0.1306
 5193TIP3    H115585   4.292   2.019   4.437 -0.0067  0.5219 -0.3355
 5193TIP3    H215586   4.156   1.977   4.487 -1.8917  2.8249 -3.2137
 5194TIP3   OH215587   3.257   4.282   0.017 -0.1034  0.3007  0.3933
 5194TIP3    H115588   3.211   4.351   0.066 -0.4085 -0.2978  0.9707
 5194TIP3    H215589   3.328   4.328  -0.028 -1.2928  1.2706 -0.5752
 5195TIP3   OH215590   5.633   0.554   1.212 -0.1713 -0.2836 -0.2013
 5195TIP3    H115591   5.659   0.592   1.296  2.9491 -0.4504 -0.9579
 5195TIP3    H215592   5.599   0.627   1.161 -0.2666  0.1969  0.5429
 5196TIP3   OH215593   5.339   5.483   1.482  0.3504 -0.4674  0.0542
 5196TIP3    H115594   5.318   5.576   1.487  0.5319 -0.4800  1.4827
 5196TIP3    H215595   5.327   5.460   1.390 -0.3923  0.7985 -0.1793
 5197TIP3   OH215596   5.467   1.164   0.731  0.4111  0.1782 -0.3256
 5197TIP3    H115597   5.562   1.159   0.743  0.8160  2.9650 -1.5442
 5197TIP3    H215598   5.438   1.228   0.796 -0.7242 -0.8616  0.2386
 5198TIP3   OH215599   5.840   1.760   4.290 -0.0611 -0.5513  0.9643
 5198TIP3    H115600   5.875   1.676   4.320  0.9471 -0.5863 -0.2349
 5198TIP3    H215601   5.848   1.757   4.195 -0.0905  0.8662  0.8948
 5199TIP3   OH215602   5.413   5.477   3.453  0.6496  0.3226  0.1018
 5199TIP3    H115603   5.494   5.469   3.401  0.8441  0.6086  0.3564
 5199TIP3    H215604   5.434   5.543   3.519  0.0321  0.8065 -0.1703
 5200TIP3   OH215605   2.176   3.117   3.278 -0.2765 -0.4635  0.3312
 5200TIP3    H115606   2.205   3.062   3.352 -0.1595 -1.4256 -0.4086
 5200TIP3    H215607   2.080   3.113   3.283 -0.2750 -1.2696 -0.0853
 5201TIP3   OH215608   2.038   2.277   3.655  0.2337 -0.1450  0.1691
 5201TIP3    H115609   2.124   2.278   3.613 -0.2617  0.5382 -0.8709
 5201TIP3    H215610   1.992   2.204   3.614  0.5352 -0.9560  1.2282
 5202TIP3   OH215611   4.738   2.006   0.317  0.1695 -0.0034 -0.4516
 5202TIP3    H115612   4.719   2.100   0.316  0.2518  0.0191 -1.5224
 5202TIP3    H215613   4.715   1.977   0.405  0.3734  1.0664 -0.0335
 5203TIP3   OH215614   5.097   4.853   4.849  0.6388 -0.0510  0.1736
 5203TIP3    H115615   5.130   4.886   4.765  0.2126 -0.1549 -0.0371
 5203TIP3    H215616   5.036   4.784   4.825 -1.8547  1.9373  0.4067
 5204TIP3   OH215617   6.060   5.846   3.149 -0.2082 -0.0643 -0.1715
 5204TIP3    H115618   6.035   5.755   3.133 -0.9151 -0.1400  1.2667
 5204TIP3    H215619   6.044   5.860   3.242  2.1761  0.8340  0.1659
 5205TIP3   OH215620   4.041   5.373   4.762  0.1767  0.1716  0.1330
 5205TIP3    H115621   3.973   5.433   4.731 -1.1401 -0.9553  0.6833
 5205TIP3    H215622   4.077   5.415   4.840  0.9331  1.3121 -0.8150
 5206TIP3   OH215623   1.798   5.254   2.912 -0.5077  0.2028  0.0243
 5206TIP3    H115624   1.847   5.329   2.879  0.5440  0.3982  1.8861
 5206TIP3    H215625   1.815   5.184   2.848  0.2932  0.9264 -0.5850
 5207TIP3   OH215626   5.138   3.501   4.339 -0.0729  0.0956  0.2350
 5207TIP3    H115627   5.052   3.518   4.377 -0.5885  0.4801 -1.0432
 5207TIP3    H215628   5.181   3.586   4.338  0.6253 -0.2160  1.5214
 5208TIP3   OH215629   2.995   2.394   4.426 -0.0448  0.3165  0.6166
 5208TIP3    H115630   3.085   2.385   4.457 -0.5492 -0.4381  1.9320
 5208TIP3    H215631   2.978   2.314   4.377 -0.0138  0.4632  0.3608
 5209TIP3   OH215632   2.316   1.897   1.753  0.0913  0.4288  0.3698
 5209TIP3    H115633   2.246   1.922   1.814 -0.2484 -0.9512  0.5796
 5209TIP3    H215634   2.341   1.809   1.780  1.4524  0.6351 -0.1387
 5210TIP3   OH215635   0.511   1.701   3.188 -0.6720  0.0533 -0.1673
 5210TIP3    H115636   0.469   1.646   3.254  0.8149 -0.0317  0.7478
 5210TIP3    H215637   0.522   1.644   3.112 -1.0081 -0.3039  0.0527
 5211TIP3   OH215638   1.779   1.432   2.408  0.0756 -0.1393 -0.4069
 5211TIP3    H115639   1.814   1.472   2.488 -0.0692 -2.4361  0.8916
 5211TIP3    H215640   1.685   1.450   2.412 -0.0077 -0.6685  0.2203
 5212TIP3   OH215641   1.157   1.682  -0.022  0.0974  0.2674 -0.3429
 5212TIP3    H115642   1.104   1.606  -0.043 -0.4039  0.3541  0.5836
 5212TIP3    H215643   1.187   1.667   0.068  0.6419  0.7910 -0.4306
 5213TIP3   OH215644   0.037   1.694   0.289  0.4498 -0.0104 -0.5089
 5213TIP3    H115645   0.094   1.697   0.366 -1.7084 -0.5878  1.2032
 5213TIP3    H215646   0.082   1.747   0.224  1.5740  1.9413  1.7136
 5214TIP3   OH215647   3.605   4.262   0.912 -0.0387 -0.0150  0.6500
 5214TIP3    H115648   3.569   4.185   0.869  0.6920 -0.0454  0.0838
 5214TIP3    H215649   3.535   4.327   0.906 -0.4338 -0.4386  0.6042
 5215TIP3   OH215650   0.876   5.975   0.313  0.4687  0.1001 -0.4981
 5215TIP3    H115651   0.921   5.904   0.267 -2.6018 -1.4125 -1.4774
 5215TIP3    H215652   0.882   5.949   0.406  1.8101  0.1287 -0.5528
 5216TIP3   OH215653   0.937   3.326   0.922  0.4903 -0.2383 -0.3899
 5216TIP3    H115654   0.999   3.256   0.902  0.2050 -0.6416  0.1370
 5216TIP3    H215655   0.981   3.406   0.892  1.4710 -0.4584  0.4074
 5217TIP3   OH215656   4.070   4.271   3.054 -0.0752  0.1123  0.0078
 5217TIP3    H115657   4.011   4.245   2.983 -1.4010  1.4878  0.5583
 5217TIP3    H215658   4.083   4.365   3.041 -2.5665  1.0449  3.0785
 5218TIP3   OH215659   1.011   5.342   1.830  0.0230 -0.1003 -0.6095
 5218TIP3    H115660   0.931   5.324   1.781  0.4597  0.3737 -1.5231
 5218TIP3    H215661   1.075   5.278   1.796  0.7665  1.2069 -1.8241
 5219TIP3   OH215662   0.723   0.381   1.813 -1.2183 -0.1776 -0.0877
 5219TIP3    H115663   0.695   0.398   1.903  1.1662  0.3875  0.6041
 5219TIP3    H215664   0.675   0.445   1.761 -1.5021  0.4895  0.9706
 5220TIP3   OH215665   3.374   2.413   4.772 -0.1264 -0.5266 -0.7958
 5220TIP3    H115666   3.325   2.412   4.855 -1.7731 -0.2687 -1.7246
 5220TIP3    H215667   3.415   2.500   4.771 -0.4339 -0.3725 -0.4469
 5221TIP3   OH215668   0.709   0.011   4.955 -0.0951  0.2413  0.2033
 5221TIP3    H115669   0.771   0.069   4.912  0.1759  0.2674  0.6200
 5221TIP3    H215670   0.719   0.030   5.049 -3.2579  2.8732  0.2101
 5222TIP3   OH215671   5.852   5.870   2.431  0.7712  0.4409  0.4255
 5222TIP3    H115672   5.934   5.914   2.447  0.8474  1.1754 -1.6476
 5222TIP3    H215673   5.789   5.912   2.490  1.3217  1.7691  0.0953
 5223TIP3   OH215674   1.977   5.696   0.638  0.1557  0.0282 -0.2219
 5223TIP3    H115675   1.882   5.708   0.630  0.1782  1.4540  1.1431
 5223TIP3    H215676   2.012   5.736   0.558 -0.3517  0.0186 -0.4608
 5224TIP3   OH215677   2.100   0.384   3.498  0.3866  0.3458  0.3388
 5224TIP3    H115678   2.015   0.422   3.521  0.1027 -1.0819  1.7721
 5224TIP3    H215679   2.163   0.452   3.521 -0.3194  1.2688 -0.3716
 5225TIP3   OH215680   5.076   1.936   0.831 -0.5654 -0.0346 -0.5598
 5225TIP3    H115681   5.038   2.003   0.775  0.3248  0.5169 -0.5178
 5225TIP3    H215682   5.003   1.905   0.885 -1.5799 -0.9481 -2.3526
 5226TIP3   OH215683   4.267   4.966   0.343  0.5918 -0.2460 -0.1662
 5226TIP3    H115684   4.211   4.985   0.417  1.0694  0.9446 -0.0874
 5226TIP3    H215685   4.262   5.044   0.288  0.8115 -0.8199 -1.0259
 5227TIP3   OH215686  -0.011   2.954   4.889 -0.2161  0.2920 -0.1844
 5227TIP3    H115687   0.060   2.894   4.866 -0.1391 -0.1410  1.0739
 5227TIP3    H215688   0.032   3.039   4.899  0.3622 -0.1694  1.6240
 5228TIP3   OH215689   1.725   3.962   1.598 -0.3474  0.4710  0.5625
 5228TIP3    H115690   1.782   4.035   1.577  1.3207 -1.2425 -1.1918
 5228TIP3    H215691   1.647   3.975   1.544 -0.4483  1.3610  0.9070
 5229TIP3   OH215692   3.048   3.062   3.979  0.2860 -0.4196  0.2147
 5229TIP3    H115693   3.139   3.071   4.009  0.7261  1.7702 -1.5242
 5229TIP3    H215694   2.996   3.102   4.048  0.7951 -0.1136  0.4320
 5230TIP3   OH215695   3.925   2.164   0.450 -0.0141 -0.2360  0.1418
 5230TIP3    H115696   4.006   2.198   0.489  1.5778 -2.6282 -0.7920
 5230TIP3    H215697   3.881   2.240   0.414  2.4506  1.0462 -0.3545
 5231TIP3   OH215698   4.894   3.698   0.377  0.3843 -0.1485  0.0508
 5231TIP3    H115699   4.885   3.746   0.294 -0.9889 -2.7870 -1.4593
 5231TIP3    H215700   4.809   3.711   0.420 -0.0549 -1.2493 -0.4404
 5232TIP3   OH215701   4.580   5.593   3.027  0.0544  0.0865 -0.2057
 5232TIP3    H115702   4.501   5.572   3.076 -0.5620 -0.0927 -1.2518
 5232TIP3    H215703   4.606   5.679   3.059  0.5372 -0.6511  1.5086
 5233TIP3   OH215704   5.892   3.285   0.669  0.0037 -0.4890  0.0096
 5233TIP3    H115705   5.961   3.224   0.647  1.2002  0.3133  1.3471
 5233TIP3    H215706   5.924   3.331   0.746 -2.1790 -0.3379  0.9170
 5234TIP3   OH215707   3.505   4.844   3.225  0.9628  0.0719  0.1599
 5234TIP3    H115708   3.522   4.827   3.132 -0.8764  1.0614 -0.3888
 5234TIP3    H215709   3.468   4.762   3.257  0.9369 -0.0434 -0.1528
 5235TIP3   OH215710   5.953   0.140   1.372  0.1914  0.0182 -0.2905
 5235TIP3    H115711   5.876   0.103   1.415  1.1477 -0.4284  1.1155
 5235TIP3    H215712   5.918   0.201   1.308 -1.3362 -0.5194 -0.0002
 5236TIP3   OH215713   1.531   0.326   2.616 -0.2351  0.5510 -0.0096
 5236TIP3    H115714   1.593   0.275   2.667  1.8093  1.3539 -1.5369
 5236TIP3    H215715   1.480   0.261   2.567  0.4209 -0.0967  0.1588
 5237TIP3   OH215716   1.115   5.648   4.815 -0.3707 -0.0997 -0.0050
 5237TIP3    H115717   1.078   5.691   4.738 -2.4702 -0.6264  0.6492
 5237TIP3    H215718   1.155   5.719   4.865 -2.0927  0.8447  0.1146
 5238TIP3   OH215719   1.104   5.246   4.025  0.3656 -0.2538  0.0081
 5238TIP3    H115720   1.042   5.212   4.090  0.6313 -0.1714  0.3071
 5238TIP3    H215721   1.164   5.300   4.075 -1.0908  2.1675 -0.7057
 5239TIP3   OH215722   5.695   2.889   3.327 -0.0720 -0.5696 -0.2010
 5239TIP3    H115723   5.640   2.966   3.309  0.9698  0.1352 -0.4842
 5239TIP3    H215724   5.704   2.888   3.423 -0.0786 -0.3119 -0.1951
 5240TIP3   OH215725   0.970   4.714   3.303 -0.6782 -0.6838 -0.0190
 5240TIP3    H115726   0.971   4.760   3.219  1.4411  0.3542  0.5083
 5240TIP3    H215727   1.029   4.765   3.359  1.0547 -3.4900  0.9086
 5241TIP3   OH215728   5.435   4.393   3.671  0.3174  0.2601 -0.1278
 5241TIP3    H115729   5.453   4.314   3.723 -0.6609  0.4335  0.5064
 5241TIP3    H215730   5.436   4.464   3.734  0.7584  0.7039 -0.6298
 5242TIP3   OH215731   2.891   5.361   5.028 -0.5869 -0.4084  0.4739
 5242TIP3    H115732   2.986   5.369   5.036 -0.5192 -1.6018  1.0697
 5242TIP3    H215733   2.865   5.315   5.108 -1.3659 -2.2817 -0.7922
 5243TIP3   OH215734   0.182   1.737   3.963 -0.4655 -0.1296 -0.2024
 5243TIP3    H115735   0.178   1.642   3.972 -0.9509 -0.1029 -0.1300
 5243TIP3    H215736   0.244   1.751   3.891  1.3104 -0.4255  1.1846
 5244TIP3   OH215737   5.558   2.671   4.358  0.5662 -0.4719 -0.2848
 5244TIP3    H115738   5.539   2.677   4.451 -1.7849 -1.2140 -0.6710
 5244TIP3    H215739   5.492   2.726   4.316  1.3780 -0.4149 -1.5479
 5245TIP3   OH215740   5.249   5.860   3.734  0.1483  0.6344  0.2657
 5245TIP3    H115741   5.160   5.871   3.700  0.7250  1.7246 -0.9967
 5245TIP3    H215742   5.270   5.768   3.717  0.0886  0.9179 -1.6704
 5246TIP3   OH215743   4.126   3.019   2.768 -0.3469 -0.5090 -0.2534
 5246TIP3    H115744   4.220   3.039   2.769 -0.3973 -0.2411  1.3877
 5246TIP3    H215745   4.110   2.986   2.680  1.3399 -0.7758 -0.4975
 5247TIP3   OH215746   3.447   5.274   4.170 -0.6142 -0.2710  0.2327
 5247TIP3    H115747   3.524   5.331   4.165 -0.5344 -0.3235  0.8592
 5247TIP3    H215748   3.442   5.247   4.262 -1.4359 -0.1971  0.2192
 5248TIP3   OH215749   0.193   1.239   0.665 -0.0951 -0.6100  0.1427
 5248TIP3    H115750   0.185   1.145   0.679  1.1093 -0.8017 -0.4020
 5248TIP3    H215751   0.103   1.272   0.673 -0.5420 -1.8143  0.2139
 5249TIP3   OH215752   4.672   4.468   0.090 -0.6588 -0.0114  0.2880
 5249TIP3    H115753   4.601   4.432   0.144 -0.3407  1.4034  1.6857
 5249TIP3    H215754   4.725   4.520   0.150  0.8325  0.0410 -1.0070
 5250TIP3   OH215755   3.773   4.272   2.637  0.0989  0.3781 -0.4032
 5250TIP3    H115756   3.787   4.269   2.731 -1.6781 -1.4121 -0.1209
 5250TIP3    H215757   3.811   4.355   2.609  0.7747  0.8871  1.8560
 5251TIP3   OH215758   1.485   3.079   5.209  0.5332 -0.5350 -0.2010
 5251TIP3    H115759   1.473   3.130   5.129 -0.0743 -1.5880 -0.8018
 5251TIP3    H215760   1.528   2.998   5.180 -2.0359 -2.1121  0.0665
 5252TIP3   OH215761   6.210   4.634   2.077 -0.0601 -0.4404  0.4697
 5252TIP3    H115762   6.241   4.725   2.085  0.3268 -0.3755 -1.3373
 5252TIP3    H215763   6.162   4.633   1.994 -2.3438 -1.2887  1.7372
 5253TIP3   OH215764   4.917   0.956   3.358  0.1581 -0.3679  0.4083
 5253TIP3    H115765   4.975   0.914   3.295  0.8085  0.1386  0.6568
 5253TIP3    H215766   4.843   0.896   3.368  0.8449 -1.2228  0.4068
 5254TIP3   OH215767   4.120   2.292   3.926  0.1081 -0.0052 -0.4080
 5254TIP3    H115768   4.108   2.204   3.890  0.4943  0.3278 -1.3629
 5254TIP3    H215769   4.102   2.351   3.853 -0.7965  0.7413  0.3913
 5255TIP3   OH215770   4.044   0.162   1.737 -0.1311 -1.0468  0.8199
 5255TIP3    H115771   3.954   0.147   1.766  0.0050  0.3005  2.0791
 5255TIP3    H215772   4.097   0.150   1.816  0.6397 -0.4941  0.4038
 5256TIP3   OH215773   3.739   3.658   4.071 -0.0022 -0.6184  0.7109
 5256TIP3    H115774   3.694   3.636   4.153  3.1691 -2.0460  2.2667
 5256TIP3    H215775   3.774   3.575   4.040  2.0482  0.4272  0.0087
 5257TIP3   OH215776   4.112   0.430   1.921 -0.8948  0.0633  0.2049
 5257TIP3    H115777   4.174   0.488   1.964 -1.1019  0.3694  0.0899
 5257TIP3    H215778   4.127   0.345   1.962 -1.3518  0.4311  1.1550
 5258TIP3   OH215779   0.050   5.240   1.691 -1.1530 -0.4261  0.0608
 5258TIP3    H115780   0.069   5.330   1.716 -4.0623  0.0952  0.7269
 5258TIP3    H215781   0.012   5.247   1.603  0.0766 -1.2251 -0.5713
 5259TIP3   OH215782   0.397   0.972   0.970 -0.0124 -0.0277 -0.2156
 5259TIP3    H115783   0.428   0.983   1.060 -0.9904 -0.0927  0.1410
 5259TIP3    H215784   0.384   0.877   0.961 -1.4331  0.1209  0.1097
 5260TIP3   OH215785   3.080   2.437   2.921 -0.0922 -0.1218 -0.4251
 5260TIP3    H115786   2.996   2.420   2.880 -0.4515  1.2009 -0.2770
 5260TIP3    H215787   3.130   2.485   2.855 -0.0007  0.3904  0.0072
 5261TIP3   OH215788   3.747   1.443   3.557 -0.0247  0.2381 -0.2018
 5261TIP3    H115789   3.778   1.440   3.466 -1.0530  0.4524 -0.5685
 5261TIP3    H215790   3.657   1.473   3.551 -0.3610 -0.4947  0.8347
 5262TIP3   OH215791   1.628   1.613   1.834 -0.1709  0.3238 -0.1625
 5262TIP3    H115792   1.554   1.625   1.893 -0.6292  1.3333 -0.9033
 5262TIP3    H215793   1.682   1.546   1.876 -0.9615  0.3317  0.9138
 5263TIP3   OH215794   5.168   3.097   2.717 -0.2697 -0.3784 -0.0118
 5263TIP3    H115795   5.154   3.142   2.800  0.9133 -1.0554  0.5872
 5263TIP3    H215796   5.176   3.167   2.652 -2.7578  0.1262  0.1371
 5264TIP3   OH215797   3.713   3.871   4.486  0.1237  0.3875 -0.4906
 5264TIP3    H115798   3.789   3.820   4.456 -0.2489 -0.5982  0.2074
 5264TIP3    H215799   3.743   3.913   4.567 -0.3381 -0.7295  0.2812
 5265TIP3   OH215800   3.838   1.752   4.681  0.3694  0.0512  0.3996
 5265TIP3    H115801   3.787   1.692   4.627  2.7158 -1.7227 -0.0171
 5265TIP3    H215802   3.924   1.710   4.688  2.3443  3.5849 -0.3220
 5266TIP3   OH215803   2.218   0.397   2.670  0.0646 -0.2855  0.4923
 5266TIP3    H115804   2.227   0.321   2.612  0.7859 -1.0160  1.5270
 5266TIP3    H215805   2.285   0.458   2.640  0.0770 -0.4289  0.2202
 5267TIP3   OH215806   2.204   0.005   1.674 -0.7876  0.3493 -0.0001
 5267TIP3    H115807   2.141   0.049   1.616 -1.0732 -0.3894 -0.2521
 5267TIP3    H215808   2.260   0.076   1.705 -2.0882  1.1092  0.6851
 5268TIP3   OH215809   2.818   5.529   1.911  0.1252 -0.6506  0.0534
 5268TIP3    H115810   2.768   5.609   1.893  1.0722 -0.4544 -1.8978
 5268TIP3    H215811   2.768   5.459   1.868  0.1255 -0.8740  0.4097
 5269TIP3   OH215812   3.171   4.988   3.157  0.7189  0.0768 -0.0988
 5269TIP3    H115813   3.235   4.925   3.126  3.4992  1.8838  1.5690
 5269TIP3    H215814   3.194   5.070   3.114 -1.0381  0.6219 -0.0883
 5270TIP3   OH215815   1.553   4.416   2.023 -0.2880 -0.6523 -0.0253
 5270TIP3    H115816   1.584   4.330   2.052  0.6897 -0.7027 -1.1340
 5270TIP3    H215817   1.551   4.468   2.102 -0.2149 -1.5058  0.5561
 5271TIP3   OH215818   5.162   3.626   3.695  1.0751  0.5691 -0.0722
 5271TIP3    H115819   5.225   3.593   3.631  1.5302  0.5115  0.4041
 5271TIP3    H215820   5.183   3.579   3.776  0.0966  0.1742 -0.0312
 5272TIP3   OH215821   2.887   0.364   5.034  0.1896  0.0397  0.1503
 5272TIP3    H115822   2.860   0.440   5.085  1.9456  0.1214  1.0314
 5272TIP3    H215823   2.887   0.292   5.096  0.2246 -0.3303 -0.2746
 5273TIP3   OH215824   3.083   0.628   4.341 -0.3470 -0.3972  0.1107
 5273TIP3    H115825   3.031   0.653   4.417  0.2813  1.8136 -0.1004
 5273TIP3    H215826   3.023   0.638   4.267  0.1325  1.5716 -0.0696
 5274TIP3   OH215827   3.484   1.656   0.035 -0.0591  0.6763 -0.2885
 5274TIP3    H115828   3.464   1.729  -0.023 -0.4064  1.2268  0.4975
 5274TIP3    H215829   3.545   1.692   0.099 -0.0680  0.2274 -0.0179
 5275TIP3   OH215830   5.678   5.477   2.659 -0.6578  0.1779 -0.1686
 5275TIP3    H115831   5.754   5.432   2.621 -0.6142 -0.1721  0.3248
 5275TIP3    H215832   5.713   5.520   2.737 -0.2514  2.7297 -1.6394
 5276TIP3   OH215833   1.236   5.421   2.449 -0.2227 -0.2301  0.8893
 5276TIP3    H115834   1.328   5.400   2.429 -0.9374 -0.8909 -2.2379
 5276TIP3    H215835   1.199   5.338   2.480  0.1760  0.0358  2.1485
 5277TIP3   OH215836   1.035   1.834   2.073 -0.5160 -0.1383 -0.4663
 5277TIP3    H115837   1.055   1.874   2.158 -1.1530  0.4479 -0.5791
 5277TIP3    H215838   0.977   1.761   2.094 -1.0421  0.2817 -0.4213
 5278TIP3   OH215839   1.874   5.975   5.022 -0.4690  1.1816 -0.2947
 5278TIP3    H115840   1.827   5.897   5.054 -0.5533  1.4082  0.1393
 5278TIP3    H215841   1.876   6.034   5.097  0.9985  0.9581 -0.1298
 5279TIP3   OH215842   4.794   4.754   1.420  0.5192 -0.2106 -1.2671
 5279TIP3    H115843   4.770   4.799   1.501  1.5994  1.9937 -2.1117
 5279TIP3    H215844   4.798   4.661   1.445 -0.4294  0.2621  0.8738
 5280TIP3   OH215845   5.189   2.175   3.430 -0.2852 -0.0649  0.1362
 5280TIP3    H115846   5.242   2.132   3.497  1.3613 -0.4646 -1.3243
 5280TIP3    H215847   5.102   2.185   3.469  0.1963 -1.6921  1.7243
 5281TIP3   OH215848   0.709   3.520   3.579  0.0264 -0.7124  0.9120
 5281TIP3    H115849   0.655   3.587   3.536 -0.0260 -1.5674 -0.4274
 5281TIP3    H215850   0.789   3.566   3.604  0.8403 -0.4991 -1.7520
 5282TIP3   OH215851   2.021   3.034   0.980  0.1321 -0.1893 -0.3847
 5282TIP3    H115852   1.934   3.040   1.018 -0.1628 -0.3314 -1.0198
 5282TIP3    H215853   2.078   3.010   1.053 -0.3059  0.2173  0.0961
 5283TIP3   OH215854   2.888   5.936   3.879 -0.3428  0.7313 -0.0144
 5283TIP3    H115855   2.953   5.981   3.933 -0.7839  0.1979  0.9776
 5283TIP3    H215856   2.865   5.858   3.929 -0.4112 -0.0270 -1.2021
 5284TIP3   OH215857   5.795   5.224   2.332  0.4411  0.2786 -0.5622
 5284TIP3    H115858   5.784   5.299   2.274  0.6609  0.9148  0.2071
 5284TIP3    H215859   5.811   5.150   2.273 -0.2753  0.7387 -1.3440
 5285TIP3   OH215860   3.877   5.879   4.844  0.1923  0.2427  0.1064
 5285TIP3    H115861   3.872   5.850   4.935 -0.3284 -1.9156 -0.5499
 5285TIP3    H215862   3.948   5.827   4.806 -0.9117 -0.3910 -1.1921
 5286TIP3   OH215863   2.355   4.842   4.032 -0.5124  0.2057 -0.1304
 5286TIP3    H115864   2.372   4.911   3.967 -2.1501  1.1839  0.4233
 5286TIP3    H215865   2.333   4.765   3.980  1.7828 -0.0876 -0.7716
 5287TIP3   OH215866   2.953   4.505   1.118 -0.3222 -0.3505 -0.0554
 5287TIP3    H115867   2.917   4.418   1.139 -3.2971  1.2184  2.1362
 5287TIP3    H215868   2.920   4.523   1.030  2.5501 -2.3410 -1.7239
 5288TIP3   OH215869   2.541   3.426   1.163  0.0635  0.4384  0.4269
 5288TIP3    H115870   2.500   3.502   1.204  0.0346  0.8772 -0.3756
 5288TIP3    H215871   2.563   3.456   1.074 -1.1843 -0.8806 -0.3820
 5289TIP3   OH215872   1.829   0.456   3.603 -0.2239  0.1507  0.3588
 5289TIP3    H115873   1.793   0.367   3.602  0.5911 -0.1938 -1.5189
 5289TIP3    H215874   1.833   0.478   3.696 -1.1045 -1.4896  0.8395
 5290TIP3   OH215875   4.706   0.087   2.439 -0.2356 -0.5270 -0.7323
 5290TIP3    H115876   4.732   0.161   2.385  0.8120  0.8594  1.5346
 5290TIP3    H215877   4.698   0.014   2.378  2.7532  0.4789 -2.4926
 5291TIP3   OH215878   2.839   3.249   0.260 -0.1300  0.0556 -0.0172
 5291TIP3    H115879   2.795   3.232   0.343  0.7085 -0.3406  0.3637
 5291TIP3    H215880   2.884   3.332   0.274 -0.0129  0.0028 -0.0818
 5292TIP3   OH215881   4.552   4.394   1.698 -0.4503 -0.5877  0.0411
 5292TIP3    H115882   4.624   4.390   1.761  0.1027  0.2067 -0.5361
 5292TIP3    H215883   4.481   4.346   1.741 -0.0662 -0.1138  1.2504
 5293TIP3   OH215884  -0.003   5.706   1.783 -0.4426  0.2363  0.4976
 5293TIP3    H115885   0.025   5.786   1.739  0.6506 -0.5317 -0.2517
 5293TIP3    H215886   0.033   5.635   1.730  1.1236 -0.7468  2.6848
 5294TIP3   OH215887   3.742   4.994   3.561  0.1133 -0.3229 -0.2439
 5294TIP3    H115888   3.728   4.899   3.572  0.5463 -0.1654  2.2072
 5294TIP3    H215889   3.683   5.034   3.625  2.2173  0.8785  1.0639
 5295TIP3   OH215890   3.035   1.573   2.187 -0.6305  0.4474 -0.4491
 5295TIP3    H115891   2.942   1.552   2.193 -0.6117  0.6611  0.7012
 5295TIP3    H215892   3.055   1.618   2.269  1.3020 -2.6595  0.9548
 5296TIP3   OH215893   4.169   5.500   4.087 -0.1655 -0.7634 -0.3773
 5296TIP3    H115894   4.143   5.410   4.105 -2.4095 -0.0860  0.0641
 5296TIP3    H215895   4.166   5.508   3.992 -1.4748 -0.7687 -0.3504
 5297TIP3   OH215896   0.584   0.578   1.973  0.0659 -0.5294 -0.0408
 5297TIP3    H115897   0.499   0.548   2.005  0.7253 -2.6110 -0.0563
 5297TIP3    H215898   0.565   0.661   1.929 -1.5951  0.0921  1.6986
 5298TIP3   OH215899   3.882   2.377   4.168  0.2979  0.2122 -0.0520
 5298TIP3    H115900   3.863   2.293   4.126 -0.0353 -0.3937  1.2634
 5298TIP3    H215901   3.930   2.354   4.247  0.0291  1.2556  0.4268
 5299TIP3   OH215902   4.322   5.257   3.626  0.6676  0.1175 -0.1744
 5299TIP3    H115903   4.341   5.309   3.549  0.4415 -0.8655 -0.9177
 5299TIP3    H215904   4.284   5.176   3.592  0.0354 -0.1098  0.9947
 5300TIP3   OH215905   3.423   1.933   1.347  0.6423 -0.4899  0.2813
 5300TIP3    H115906   3.382   1.850   1.373  0.9212 -0.5050  0.6893
 5300TIP3    H215907   3.404   1.993   1.420 -0.5484  0.1479 -0.5296
 5301TIP3   OH215908   5.202   2.951   1.293  0.2277  0.3464 -0.3683
 5301TIP3    H115909   5.198   3.040   1.259  0.9289  0.4404 -0.2135
 5301TIP3    H215910   5.162   2.957   1.380  1.1191  0.7044  0.0263
 5302TIP3   OH215911   4.405   0.639   4.282 -0.5614 -0.2656  0.2923
 5302TIP3    H115912   4.494   0.653   4.250 -0.0133 -0.8311  1.4944
 5302TIP3    H215913   4.390   0.545   4.272 -0.8912 -0.2259  0.3999
 5303TIP3   OH215914   5.683   1.610   1.016  0.1380 -0.0095  0.1198
 5303TIP3    H115915   5.595   1.647   1.012  0.0630 -0.1827  0.1396
 5303TIP3    H215916   5.685   1.564   1.100  0.5466  0.7422  0.5296
 5304TIP3   OH215917   0.710   5.355   4.768 -0.1322 -0.4736  0.1977
 5304TIP3    H115918   0.710   5.266   4.804  2.2194  0.0860  1.7942
 5304TIP3    H215919   0.727   5.412   4.843  0.3775  1.1698 -1.0963
 5305TIP3   OH215920   4.677   3.686   2.376 -0.1043 -0.4129  0.1027
 5305TIP3    H115921   4.729   3.686   2.456  1.1804  0.5075 -0.6948
 5305TIP3    H215922   4.589   3.709   2.405  0.0151 -1.4709  1.4147
 5306TIP3   OH215923   5.759   0.603   2.210 -0.7997  0.2911  0.2322
 5306TIP3    H115924   5.853   0.617   2.198 -0.9740  1.0013 -0.4058
 5306TIP3    H215925   5.718   0.677   2.165 -1.7040 -0.7275 -0.6642
 5307TIP3   OH215926   1.807   3.541   3.658  0.1323 -0.2471 -0.0797
 5307TIP3    H115927   1.825   3.564   3.567  0.4603  0.1329  0.0732
 5307TIP3    H215928   1.722   3.579   3.676  0.7833  1.1244  0.2456
 5308TIP3   OH215929   1.710   5.689   0.587 -0.0013 -0.3782  0.8088
 5308TIP3    H115930   1.734   5.614   0.533 -2.8321 -0.1630 -0.9178
 5308TIP3    H215931   1.634   5.659   0.637 -1.3311  1.3573 -0.0918
 5309TIP3   OH215932   4.750   2.672   4.371 -0.0519 -0.2019  0.6039
 5309TIP3    H115933   4.728   2.607   4.305 -0.1808 -0.4470  0.8850
 5309TIP3    H215934   4.748   2.756   4.324 -1.3159 -0.2408  0.5472
 5310TIP3   OH215935   4.043   3.320   2.857 -0.2695  1.2708 -0.5074
 5310TIP3    H115936   4.027   3.313   2.952  0.5987  4.0600 -0.0561
 5310TIP3    H215937   4.015   3.236   2.822  1.1787 -0.6541  2.4587
 5311TIP3   OH215938   0.949   0.396   3.741 -0.9464 -0.4780  0.2753
 5311TIP3    H115939   0.878   0.459   3.749 -1.2820 -1.0101  1.9519
 5311TIP3    H215940   0.906   0.311   3.754 -0.2674 -0.9317 -0.4196
 5312TIP3   OH215941   3.732   3.061   3.839 -0.2582  0.4951  0.1669
 5312TIP3    H115942   3.781   3.059   3.922  0.9726 -1.8830 -0.5305
 5312TIP3    H215943   3.685   2.978   3.837 -0.8084  0.8148 -1.2173
 5313TIP3   OH215944   2.196   2.715   4.100 -0.4208 -0.1298  0.0989
 5313TIP3    H115945   2.246   2.672   4.030 -0.1666 -1.0497  0.8211
 5313TIP3    H215946   2.170   2.644   4.158 -1.8335  0.4524  0.2078
 5314TIP3   OH215947   3.361   4.508   0.441 -0.0410 -0.8045  0.1715
 5314TIP3    H115948   3.410   4.555   0.509 -1.3765  0.5965  0.2171
 5314TIP3    H215949   3.413   4.430   0.424  2.7422  1.0811 -0.5224
 5315TIP3   OH215950   4.913   0.734   1.939 -0.5159  0.3950 -0.2126
 5315TIP3    H115951   4.955   0.723   1.854  0.2837 -1.2363  0.3561
 5315TIP3    H215952   4.977   0.784   1.991 -0.4408  0.2541 -0.1697
 5316TIP3   OH215953   0.026   2.406   2.287 -0.4745 -0.7006  0.2907
 5316TIP3    H115954   0.093   2.387   2.221  0.9506  0.4430  1.3483
 5316TIP3    H215955   0.025   2.329   2.344  0.0604 -0.6586  0.3567
 5317TIP3   OH215956   1.329   0.069   2.915  0.2845 -0.3811  0.2547
 5317TIP3    H115957   1.262   0.064   2.984  0.2369 -2.4388  0.1102
 5317TIP3    H215958   1.335   0.163   2.895 -1.6329 -0.0092  1.1649
 5318TIP3   OH215959   3.457   1.464   2.769 -0.4306  0.2315 -0.5906
 5318TIP3    H115960   3.401   1.467   2.692 -0.3807  1.8196 -0.5914
 5318TIP3    H215961   3.409   1.511   2.836 -0.6621 -1.4987  0.5115
 5319TIP3   OH215962   0.959   2.929   4.401 -0.6686  1.1820  0.1145
 5319TIP3    H115963   0.944   2.969   4.316 -1.0354  2.5792  0.8063
 5319TIP3    H215964   0.871   2.908   4.434 -0.4693 -0.8732 -0.5080
 5320TIP3   OH215965   4.150   5.195   2.381 -0.4541 -0.4649 -0.1817
 5320TIP3    H115966   4.127   5.271   2.327 -1.0426 -0.4601  0.0665
 5320TIP3    H215967   4.067   5.148   2.392 -0.0163 -1.3823 -0.7007
 5321TIP3   OH215968   3.768   2.821   5.095 -0.3767  0.0370 -0.0280
 5321TIP3    H115969   3.816   2.781   5.023  1.1292  0.9394  0.4248
 5321TIP3    H215970   3.694   2.762   5.110 -0.5836 -0.3181 -2.1046
 5322TIP3   OH215971   5.086   0.790   0.036  0.2610 -0.6371 -0.2130
 5322TIP3    H115972   5.065   0.699   0.015 -2.4573 -0.3124  0.6785
 5322TIP3    H215973   5.178   0.788   0.064 -0.2425 -3.4890  1.6460
 5323TIP3   OH215974   0.461   1.182   4.190  0.1068  0.6458  0.0129
 5323TIP3    H115975   0.506   1.251   4.239  0.0578  0.6593  0.0394
 5323TIP3    H215976   0.499   1.186   4.102  0.8221  0.0439  0.2805
 5324TIP3   OH215977   3.731   2.978   3.383 -0.5093 -0.1442  0.2540
 5324TIP3    H115978   3.721   2.884   3.397  1.3195 -0.2398  1.1909
 5324TIP3    H215979   3.678   3.018   3.452  0.6216 -0.5474  1.4031
 5325TIP3   OH215980   1.762   3.057   1.092  0.2659 -0.1901 -0.8954
 5325TIP3    H115981   1.667   3.063   1.101  0.3792 -0.1149  0.5699
 5325TIP3    H215982   1.794   3.054   1.183  1.8159  2.1729 -1.2813
 5326TIP3   OH215983   4.057   0.475   1.247 -0.3029 -0.2875 -0.0158
 5326TIP3    H115984   4.133   0.417   1.258 -0.6329 -0.4747  1.4939
 5326TIP3    H215985   4.095   0.560   1.224  0.3559 -0.4225  0.5464
 5327TIP3   OH215986   1.696   3.568   2.651  0.0951  0.9406  0.3229
 5327TIP3    H115987   1.755   3.577   2.727 -0.4588  0.1706  0.8612
 5327TIP3    H215988   1.732   3.627   2.586  2.1014 -0.2793  0.2411
 5328TIP3   OH215989   6.101   3.922   1.075 -0.1200 -0.1425  0.3459
 5328TIP3    H115990   6.173   3.864   1.098  0.5569  0.2309 -0.7542
 5328TIP3    H215991   6.034   3.864   1.038 -0.1175 -0.4072  0.7465
 5329TIP3   OH215992   3.912   4.024   1.150  0.1389  0.0087  0.1184
 5329TIP3    H115993   3.835   4.080   1.162 -0.3836 -0.5032 -0.7397
 5329TIP3    H215994   3.986   4.084   1.151 -0.4773  0.8596 -1.7829
 5330TIP3   OH215995   0.677   5.212   2.583 -0.8108 -0.1996  0.3264
 5330TIP3    H115996   0.733   5.289   2.597  0.1949 -0.8529  0.0052
 5330TIP3    H215997   0.719   5.165   2.511 -0.4306 -1.9380  1.6375
 5331TIP3   OH215998   5.427   4.614   2.574 -0.6879 -0.2419  0.3591
 5331TIP3    H115999   5.467   4.592   2.658 -1.2261 -1.4268  0.3136
 5331TIP3    H216000   5.502   4.631   2.516 -0.3143  0.4734  1.0358
 5332TIP3   OH216001   4.892   2.761   4.045  0.4015  0.5897 -0.7590
 5332TIP3    H116002   4.822   2.749   3.981 -0.2635  0.6473 -0.0521
 5332TIP3    H216003   4.942   2.679   4.041 -0.2571  0.1752 -0.6043
 5333TIP3   OH216004   4.335   3.317   2.927 -0.0524  0.0286 -0.3596
 5333TIP3    H116005   4.365   3.286   3.012 -0.5824  0.4104 -0.0331
 5333TIP3    H216006   4.291   3.241   2.888 -3.8286  1.0097  1.5751
 5334TIP3   OH216007   5.295   1.976   2.813 -0.1356  0.4735 -0.2902
 5334TIP3    H116008   5.249   1.897   2.787  0.0787  0.1742  0.2377
 5334TIP3    H216009   5.378   1.945   2.851  0.6772  1.0124 -1.5456
 5335TIP3   OH216010   2.752   2.590   0.058  0.7218 -0.6626 -0.5524
 5335TIP3    H116011   2.701   2.642   0.121  1.7470 -2.3442  1.8494
 5335TIP3    H216012   2.727   2.624  -0.027 -1.8468  0.8253  0.6699
 5336TIP3   OH216013   0.603   0.191   2.186  0.2138 -0.0658  0.1945
 5336TIP3    H116014   0.542   0.235   2.246  1.9701  0.1556  1.9106
 5336TIP3    H216015   0.668   0.258   2.164 -0.8320  0.1246 -2.7454
 5337TIP3   OH216016   1.093   3.919   4.780 -0.0389  0.1610  0.2972
 5337TIP3    H116017   1.124   3.871   4.857 -0.3332 -0.3565  0.0972
 5337TIP3    H216018   1.012   3.961   4.808 -0.8240 -1.0540 -0.0779
 5338TIP3   OH216019   1.345   1.488   3.312  0.5469  0.3077  0.3467
 5338TIP3    H116020   1.413   1.425   3.337 -0.4164 -0.5900  0.8039
 5338TIP3    H216021   1.268   1.434   3.296  0.6458  0.9679 -3.1154
 5339TIP3   OH216022   5.350   5.191   3.079 -0.0915 -0.1046 -0.1373
 5339TIP3    H116023   5.439   5.160   3.091 -0.4719 -0.6585  1.4473
 5339TIP3    H216024   5.295   5.124   3.120 -1.2061  0.4889 -0.6125
 5340TIP3   OH216025   5.832   0.015   3.021  0.4680  0.1033 -0.6994
 5340TIP3    H116026   5.879   0.031   2.939  0.5577 -2.3940 -1.2083
 5340TIP3    H216027   5.740   0.027   2.998  0.5067 -0.3844 -1.1258
 5341TIP3   OH216028   4.804   1.442   5.110 -0.3529  0.1115  0.4221
 5341TIP3    H116029   4.747   1.441   5.032 -0.7441  1.7196  0.6490
 5341TIP3    H216030   4.773   1.369   5.163  0.0391 -1.1425 -0.9870
 5342TIP3   OH216031   5.957   4.003   4.971 -0.5129 -0.1762  0.3444
 5342TIP3    H116032   5.894   3.997   5.042  0.7816 -0.2606  1.5409
 5342TIP3    H216033   5.996   4.090   4.980 -0.3939 -0.1542 -0.3175
 5343TIP3   OH216034   2.533   2.242   4.070  0.2599  0.2108  0.0747
 5343TIP3    H116035   2.451   2.246   4.022 -0.3636  1.4388  1.1784
 5343TIP3    H216036   2.517   2.292   4.150  1.4610 -1.2056  1.2612
 5344TIP3   OH216037   4.206   4.534   2.184 -0.6221 -0.4029  0.3770
 5344TIP3    H116038   4.299   4.514   2.194 -0.2706  1.4868  1.3692
 5344TIP3    H216039   4.170   4.458   2.140  1.1680 -1.7029  1.0294
 5345TIP3   OH216040   2.289   2.597   3.516 -0.0180 -0.0409 -0.0338
 5345TIP3    H116041   2.230   2.614   3.442  0.1648  1.7001  0.1766
 5345TIP3    H216042   2.376   2.589   3.477 -0.2092 -1.4417 -0.2210
 5346TIP3   OH216043   5.015   0.420   1.284 -0.0850  0.5264 -0.2944
 5346TIP3    H116044   5.024   0.369   1.203  2.0915  0.7073 -0.2050
 5346TIP3    H216045   5.036   0.358   1.354 -1.0299  0.6237  0.0955
 5347TIP3   OH216046   1.115   1.635   3.309 -0.1982  0.3314 -0.5744
 5347TIP3    H116047   1.201   1.596   3.323 -0.1784  0.3451 -0.6574
 5347TIP3    H216048   1.134   1.723   3.274 -0.2457  0.3245 -0.6177
 5348TIP3   OH216049   5.491   3.692   4.328  0.1801 -0.1943  0.0611
 5348TIP3    H116050   5.508   3.716   4.420  0.0657 -1.1082  0.3251
 5348TIP3    H216051   5.497   3.597   4.326 -0.7213 -0.2485 -0.7056
 5349TIP3   OH216052   1.594   1.364   3.364 -0.0528 -0.4681  0.1157
 5349TIP3    H116053   1.609   1.279   3.323  1.2639 -0.8325  1.2865
 5349TIP3    H216054   1.646   1.362   3.444  0.0103  1.4439  0.1720
 5350TIP3   OH216055   6.333   0.475   3.913 -0.1760 -0.4047  0.3499
 5350TIP3    H116056   6.343   0.513   3.826  0.7595 -1.8171 -0.1927
 5350TIP3    H216057   6.242   0.447   3.918 -0.4493  0.4265  0.1589
 5351TIP3   OH216058   6.197   2.886   1.012  0.4192 -0.1241  0.3527
 5351TIP3    H116059   6.142   2.870   1.088 -1.6036  2.2895 -0.4561
 5351TIP3    H216060   6.245   2.966   1.033  0.4716  0.0997 -0.5429
 5352TIP3   OH216061   5.829   3.745   4.338 -0.0814  0.1439  0.4834
 5352TIP3    H116062   5.766   3.755   4.266  1.2427  0.0388 -0.7307
 5352TIP3    H216063   5.795   3.801   4.408 -1.4645  0.1602 -0.1696
 5353TIP3   OH216064   1.019   0.956   4.627  0.5282  0.5035 -0.4836
 5353TIP3    H116065   1.037   1.049   4.638  1.0445  0.4767 -1.0895
 5353TIP3    H216066   1.105   0.916   4.615  0.5916 -0.4470  2.4430
 5354TIP3   OH216067   2.173   0.678   4.276  0.1039  0.0505 -0.0235
 5354TIP3    H116068   2.251   0.729   4.299 -0.2406  0.9865 -0.8762
 5354TIP3    H216069   2.157   0.624   4.354  0.1054  1.7203  1.2038
 5355TIP3   OH216070   0.710   2.842   0.989 -0.4476 -0.2809 -0.0439
 5355TIP3    H116071   0.769   2.803   1.053  0.1415 -0.2068 -0.5361
 5355TIP3    H216072   0.764   2.855   0.911 -0.2657  2.5645  0.4516
 5356TIP3   OH216073   1.420   3.729   4.757 -0.6901  0.2560  0.4892
 5356TIP3    H116074   1.450   3.641   4.781 -2.2546 -0.0207  1.5990
 5356TIP3    H216075   1.420   3.729   4.661 -1.0316 -1.0962  0.4750
 5357TIP3   OH216076   1.524   1.874   3.820 -0.8776  0.0560 -0.3197
 5357TIP3    H116077   1.507   1.864   3.913 -0.4499  0.7007 -0.1689
 5357TIP3    H216078   1.447   1.835   3.778 -0.8944 -0.5779  0.2909
 5358TIP3   OH216079   3.138   2.184   5.189 -0.6039  0.3858  0.3599
 5358TIP3    H116080   3.057   2.160   5.143 -0.8067  3.1202 -0.9471
 5358TIP3    H216081   3.188   2.103   5.194 -1.3614 -0.4978 -3.1952
 5359TIP3   OH216082   3.926   0.175   4.827 -0.2504  0.1919 -0.4807
 5359TIP3    H116083   3.837   0.205   4.846 -0.1991 -0.1439  0.3155
 5359TIP3    H216084   3.943   0.106   4.891  1.0070  1.0410  0.1575
 5360TIP3   OH216085   3.161   2.963   0.739  0.6292  0.4743 -0.5314
 5360TIP3    H116086   3.157   2.922   0.826  1.0894 -0.2159 -0.8236
 5360TIP3    H216087   3.239   3.018   0.742  0.3159  0.9107 -0.3179
 5361TIP3   OH216088   0.191   0.790   0.015 -0.2155  0.2727 -0.0002
 5361TIP3    H116089   0.191   0.708  -0.034 -0.8380  1.0687 -1.3969
 5361TIP3    H216090   0.219   0.766   0.103  2.5545 -0.9805 -1.1178
 5362TIP3   OH216091   2.345   1.620   2.904  0.1608  0.2744 -0.3407
 5362TIP3    H116092   2.342   1.532   2.941 -0.3919  0.7844  0.9260
 5362TIP3    H216093   2.437   1.637   2.887  0.1580 -0.9740 -1.7200
 5363TIP3   OH216094   3.684   1.886   1.303 -0.0112  0.1639 -0.8044
 5363TIP3    H116095   3.600   1.913   1.337 -0.1084 -2.0170  0.8846
 5363TIP3    H216096   3.666   1.807   1.252  0.9682 -0.1521 -0.6964
 5364TIP3   OH216097   3.607   1.889   4.006  0.1873 -0.2041  0.5837
 5364TIP3    H116098   3.552   1.815   4.030 -0.5795  0.8429  2.2058
 5364TIP3    H216099   3.566   1.926   3.927  1.1965 -2.0775 -0.9125
 5365TIP3   OH216100   3.659   1.750   3.548 -0.7405 -0.4034  0.2964
 5365TIP3    H116101   3.581   1.766   3.494 -0.4769 -0.5669 -0.1447
 5365TIP3    H216102   3.625   1.729   3.635 -1.1236  2.3098  0.8848
 5366TIP3   OH216103   2.157   4.837   4.315  0.0436  0.5385 -0.4207
 5366TIP3    H116104   2.192   4.806   4.231  1.9635 -0.0795  0.5587
 5366TIP3    H216105   2.191   4.925   4.325 -0.6302  0.8173 -0.5174
 5367TIP3   OH216106   5.833   5.215   0.161 -0.4853 -0.2385  0.4879
 5367TIP3    H116107   5.858   5.142   0.217 -1.4525 -1.6537 -0.8649
 5367TIP3    H216108   5.800   5.175   0.081 -1.1968  1.6718 -0.2484
 5368TIP3   OH216109   1.478   2.167   3.900  0.3018  0.3815 -0.2755
 5368TIP3    H116110   1.530   2.198   3.975  0.7744 -1.1619  0.0918
 5368TIP3    H216111   1.539   2.113   3.850  0.0508  1.5575 -1.9329
 5369TIP3   OH216112   3.198   1.205   3.262 -0.4264  0.0849 -0.3503
 5369TIP3    H116113   3.273   1.231   3.209  0.7470  1.3660  1.7872
 5369TIP3    H216114   3.122   1.238   3.214  0.3934 -0.3678 -2.0598
 5370TIP3   OH216115   5.909   1.718   0.923 -0.2293 -0.3069 -0.2901
 5370TIP3    H116116   5.885   1.779   0.853  2.3873  0.1763 -0.8595
 5370TIP3    H216117   5.825   1.690   0.960 -1.5921  2.9091 -0.6123
 5371TIP3   OH216118   1.154   2.345   5.059  0.5055  0.0638 -0.2953
 5371TIP3    H116119   1.223   2.348   4.992 -0.2307  1.6273 -1.0381
 5371TIP3    H216120   1.143   2.437   5.085 -0.8605 -0.2376  0.2558
 5372TIP3   OH216121   5.761   2.796   5.117 -0.1985  0.2780  0.1851
 5372TIP3    H116122   5.854   2.789   5.136 -0.5034  0.6805  2.1001
 5372TIP3    H216123   5.742   2.720   5.061  1.3892  0.6279 -0.8882
 5373TIP3   OH216124   0.208   4.444   2.803  0.0612  0.4036 -0.1033
 5373TIP3    H116125   0.291   4.402   2.781 -0.3573 -0.5886  0.1757
 5373TIP3    H216126   0.204   4.520   2.745  1.3119  0.6503  0.1082
 5374TIP3   OH216127   5.067   3.796   2.708 -0.4892 -0.3898 -0.0039
 5374TIP3    H116128   5.025   3.847   2.777 -0.5505  0.1461 -0.4316
 5374TIP3    H216129   5.157   3.826   2.707 -0.5088 -0.3370 -0.2139
 5375TIP3   OH216130   5.009   5.238   1.389 -0.1743  0.2551 -0.7025
 5375TIP3    H116131   5.016   5.333   1.375  1.3829  0.0076 -1.9772
 5375TIP3    H216132   4.975   5.204   1.306 -1.3022 -0.2641 -0.0452
 5376TIP3   OH216133   2.465   3.703   0.343  0.2994 -0.3512  0.4058
 5376TIP3    H116134   2.376   3.684   0.313  0.4906 -1.3846  0.4347
 5376TIP3    H216135   2.457   3.706   0.438  0.4435 -1.3502  0.4595
 5377TIP3   OH216136   4.296   3.305   2.166  0.3968  0.1928 -0.0019
 5377TIP3    H116137   4.385   3.340   2.160 -0.0125  1.3074  0.1122
 5377TIP3    H216138   4.258   3.351   2.241 -0.3518 -0.0861 -0.2068
 5378TIP3   OH216139   1.532   2.356   0.158 -0.1070 -0.0868  0.1457
 5378TIP3    H116140   1.589   2.428   0.129  0.9874 -0.2896  1.6634
 5378TIP3    H216141   1.497   2.386   0.242 -1.2408 -0.5159 -0.1564
 5379TIP3   OH216142   0.517   5.682   2.275 -0.3974  0.2188 -0.0879
 5379TIP3    H116143   0.462   5.610   2.246  0.7335  0.1871 -2.4581
 5379TIP3    H216144   0.607   5.651   2.260  0.1699  1.3115  0.9013
 5380TIP3   OH216145   1.826   4.117   3.723  0.1967 -0.0860  0.5415
 5380TIP3    H116146   1.779   4.185   3.772 -1.2539 -0.5693 -0.1203
 5380TIP3    H216147   1.780   4.036   3.744  0.7875 -0.5973 -0.0916
 5381TIP3   OH216148   3.522   5.948   4.537 -0.6347  0.6066  0.0676
 5381TIP3    H116149   3.512   6.039   4.564 -0.3375  0.9035 -0.7784
 5381TIP3    H216150   3.440   5.927   4.492 -1.0074  0.2110  0.9149
 5382TIP3   OH216151   2.494   0.533   4.240 -0.0961 -0.2175 -0.2047
 5382TIP3    H116152   2.571   0.483   4.212 -0.7746 -1.3856 -0.0708
 5382TIP3    H216153   2.429   0.466   4.261 -1.8504  0.7422 -2.2632
 5383TIP3   OH216154   3.421   4.493   0.880 -0.1795 -0.0752  0.2043
 5383TIP3    H116155   3.333   4.484   0.915 -0.6754 -1.1010 -1.2079
 5383TIP3    H216156   3.417   4.571   0.825  0.2461  0.7862  1.3623
 5384TIP3   OH216157   2.143   5.278   1.755 -0.1295 -0.2498  0.3363
 5384TIP3    H116158   2.060   5.288   1.707 -0.7765 -1.3247  1.1825
 5384TIP3    H216159   2.202   5.342   1.715 -0.5385 -1.2873 -2.1307
 5385TIP3   OH216160   3.114   5.153   4.036  0.1996  0.0708 -0.3277
 5385TIP3    H116161   3.159   5.084   4.086  0.7249  0.0380 -0.8367
 5385TIP3    H216162   3.073   5.106   3.963 -0.2688  0.1669 -0.1272
 5386TIP3   OH216163   2.370   3.462   4.086 -0.1751  0.0261  0.3321
 5386TIP3    H116164   2.413   3.425   4.163  0.0139  0.9939  0.7085
 5386TIP3    H216165   2.443   3.480   4.026 -0.3911 -1.4871 -0.4365
 5387TIP3   OH216166   0.787   4.041   0.249  0.7179 -0.7161  0.3670
 5387TIP3    H116167   0.739   4.023   0.330  2.1146 -0.2181  1.3556
 5387TIP3    H216168   0.720   4.062   0.184 -0.5156 -2.5328  1.0078
 5388TIP3   OH216169   6.282   2.206   2.698  0.1827 -0.2269  0.8204
 5388TIP3    H116170   6.291   2.155   2.779  0.4167 -0.3857  0.6942
 5388TIP3    H216171   6.328   2.288   2.716 -1.3085  0.5045  1.4958
 5389TIP3   OH216172   5.150   3.192   4.777 -0.3529  0.2429 -0.1887
 5389TIP3    H116173   5.146   3.285   4.799  0.1856  0.6495 -1.7174
 5389TIP3    H216174   5.239   3.166   4.801 -0.6994 -0.0488  0.8232
 5390TIP3   OH216175   2.303   1.841   1.268  0.4192  0.5576  0.1185
 5390TIP3    H116176   2.331   1.764   1.319 -0.4462  0.2750  0.1894
 5390TIP3    H216177   2.330   1.822   1.179  0.2308  0.1677  0.1389
 5391TIP3   OH216178   4.554   0.870   4.798 -0.7272  0.2330  0.4938
 5391TIP3    H116179   4.554   0.774   4.788  0.4565  0.2912 -0.3499
 5391TIP3    H216180   4.628   0.888   4.856 -0.4589  0.6847  0.0191
 5392TIP3   OH216181   4.194   4.117   0.458 -0.0817  0.1683  0.4415
 5392TIP3    H116182   4.153   4.135   0.373  1.4610 -1.6484 -0.7630
 5392TIP3    H216183   4.188   4.022   0.467  0.1373  0.3017  2.2084
 5393TIP3   OH216184   5.170   5.838   2.118  0.2753 -0.2067 -0.5750
 5393TIP3    H116185   5.224   5.854   2.196 -0.7226  1.9078 -0.2425
 5393TIP3    H216186   5.156   5.925   2.081 -0.8861 -0.9708 -2.0179
 5394TIP3   OH216187   4.181   4.323   1.581 -0.3958 -0.6400 -1.1664
 5394TIP3    H116188   4.182   4.417   1.597  0.4837 -0.8669  0.1990
 5394TIP3    H216189   4.094   4.295   1.610  0.4526 -0.7180  1.5774
 5395TIP3   OH216190   6.265   2.586   2.906  0.0555 -0.4285  0.4133
 5395TIP3    H116191   6.255   2.506   2.957  2.3414 -0.5936  0.7194
 5395TIP3    H216192   6.339   2.631   2.946 -0.6760  1.4671 -0.2504
 5396TIP3   OH216193   5.456   0.814   1.183  0.0056  0.2824  0.2381
 5396TIP3    H116194   5.410   0.772   1.111  3.2190 -4.9909  0.6590
 5396TIP3    H216195   5.399   0.800   1.259 -0.6068 -0.0903 -0.2776
 5397TIP3   OH216196   2.929   4.193   1.671  0.1136  0.1694  0.0208
 5397TIP3    H116197   2.881   4.183   1.753  0.7828  1.8932  0.6662
 5397TIP3    H216198   2.987   4.268   1.686 -1.2725  1.9539 -2.7148
 5398TIP3   OH216199   4.381   3.258   3.176  0.6396 -0.1106 -1.0780
 5398TIP3    H116200   4.335   3.177   3.198 -0.7962  0.6607 -1.1233
 5398TIP3    H216201   4.448   3.267   3.244 -1.2882  0.3036  0.9109
 5399TIP3   OH216202   0.515   5.571   1.153 -0.3831 -0.4468 -0.3667
 5399TIP3    H116203   0.434   5.573   1.204 -0.7454 -0.8403 -0.9140
 5399TIP3    H216204   0.578   5.621   1.205 -0.3532 -1.9441  1.1185
 5400TIP3   OH216205   0.458   2.530   4.429  0.1533 -0.1451  0.4472
 5400TIP3    H116206   0.472   2.437   4.450 -0.8374 -0.5770 -0.6977
 5400TIP3    H216207   0.540   2.557   4.387  0.3348 -0.5836  0.5124
 5401TIP3   OH216208   5.381   1.059   1.408  0.5866  0.0211  0.4252
 5401TIP3    H116209   5.387   0.963   1.409 -0.5006 -0.0802 -0.4156
 5401TIP3    H216210   5.431   1.087   1.484  0.7560 -1.2333  0.7996
 5402TIP3   OH216211   3.538   3.353   4.004  0.3291 -0.4285 -0.3687
 5402TIP3    H116212   3.534   3.294   4.079  1.1820  2.9353  2.6031
 5402TIP3    H216213   3.631   3.361   3.986  0.2123 -0.0772 -0.8146
 5403TIP3   OH216214   6.385   0.193   3.454  0.5424  0.3288 -0.3086
 5403TIP3    H116215   6.353   0.230   3.372 -1.2908 -0.6101 -0.0715
 5403TIP3    H216216   6.316   0.132   3.480  1.1894  0.4505  1.8153
 5404TIP3   OH216217   0.889   4.475   5.045  0.1509 -0.1001  0.2368
 5404TIP3    H116218   0.960   4.452   5.105  0.7066 -0.6791 -0.6254
 5404TIP3    H216219   0.830   4.399   5.048  0.3329 -0.2570 -0.1768
 5405TIP3   OH216220   5.168   3.468   4.766 -0.8324  0.0571  0.1795
 5405TIP3    H116221   5.091   3.524   4.755 -0.7266 -0.0632 -1.3645
 5405TIP3    H216222   5.241   3.529   4.776 -0.8122  0.2128 -0.8056
 5406TIP3   OH216223   3.899   2.586   1.948  0.0146 -0.0138  0.4882
 5406TIP3    H116224   3.851   2.506   1.928 -1.5549  0.9888  0.1443
 5406TIP3    H216225   3.989   2.556   1.963 -0.7452 -1.9792  1.4636
 5407TIP3   OH216226   1.438   1.226   1.084  0.2425  0.5360 -0.3008
 5407TIP3    H116227   1.404   1.151   1.035  2.8047 -0.3944 -0.8152
 5407TIP3    H216228   1.495   1.271   1.021  1.2100  1.0720  0.9357
 5408TIP3   OH216229   4.625   3.046   2.564  0.2484  0.1051  0.0625
 5408TIP3    H116230   4.718   3.064   2.549 -0.1370 -0.1838 -3.6829
 5408TIP3    H216231   4.622   2.956   2.596  1.2366  0.2089  0.4801
 5409TIP3   OH216232   4.725   3.058   2.885 -0.2278 -0.5023  0.2103
 5409TIP3    H116233   4.742   3.038   2.977  1.5614 -0.1334  0.0025
 5409TIP3    H216234   4.681   3.143   2.886  1.8013  0.6066  0.6840
 5410TIP3   OH216235   0.625   4.666   0.367 -0.0100 -0.3960  0.2679
 5410TIP3    H116236   0.671   4.585   0.343  1.1170  0.2320  0.2819
 5410TIP3    H216237   0.537   4.655   0.328  0.8760 -0.6146 -1.8340
 5411TIP3   OH216238   4.396   2.410   4.236 -0.3898 -0.3301  0.2903
 5411TIP3    H116239   4.358   2.322   4.234 -0.1425 -0.4286 -1.5975
 5411TIP3    H216240   4.476   2.400   4.287 -0.6013 -1.0901  0.4980
 5412TIP3   OH216241   5.689   5.435   0.200 -0.4684 -0.4326 -0.4607
 5412TIP3    H116242   5.744   5.359   0.219 -0.1962 -0.1379 -0.0611
 5412TIP3    H216243   5.740   5.510   0.231 -0.4096 -0.0167 -1.5447
 5413TIP3   OH216244   5.368   4.938   0.064  0.1759  0.2068  0.1362
 5413TIP3    H116245   5.463   4.938   0.056  0.0714  0.9374 -1.3236
 5413TIP3    H216246   5.348   4.858   0.113  1.4427 -0.6600 -0.7070
 5414TIP3   OH216247   1.011   4.555   0.593  0.4167  0.2506 -0.1793
 5414TIP3    H116248   1.065   4.499   0.537  1.2326  1.1695 -0.3277
 5414TIP3    H216249   1.057   4.639   0.595 -1.2747  1.2331 -0.7286
 5415TIP3   OH216250   3.939   3.075   4.013  0.2170  0.0556  0.7490
 5415TIP3    H116251   3.978   3.026   3.940  0.1867 -0.2646  0.9478
 5415TIP3    H216252   4.014   3.109   4.062  0.2379  0.2337  0.5940
 5416TIP3   OH216253   5.091   5.730   4.900  0.0338 -0.7583  0.1348
 5416TIP3    H116254   5.057   5.809   4.943  0.3389 -0.5378 -0.0297
 5416TIP3    H216255   5.073   5.744   4.807  0.3145 -0.7728  0.0796
 5417TIP3   OH216256   1.246   2.888   4.095 -0.4443 -0.0953 -0.0964
 5417TIP3    H116257   1.306   2.939   4.149 -0.7913  0.0208  0.1867
 5417TIP3    H216258   1.191   2.842   4.159 -2.0028  1.3762 -0.3149
 5418TIP3   OH216259   0.107   4.735   2.300 -0.0643 -0.6766  0.4274
 5418TIP3    H116260   0.074   4.741   2.211  2.0912  0.6668 -0.3636
 5418TIP3    H216261   0.141   4.645   2.307  1.1370 -0.3435 -0.6788
 5419TIP3   OH216262   6.294   0.150   2.880 -0.1639 -0.1142  0.3425
 5419TIP3    H116263   6.305   0.243   2.858 -1.2232 -0.5263 -2.2849
 5419TIP3    H216264   6.268   0.150   2.973 -3.9437  2.5715 -0.4597
 5420TIP3   OH216265   1.900   4.651   3.358  0.0952 -0.2745  0.0686
 5420TIP3    H116266   1.969   4.586   3.342  0.2477 -0.5968  1.8194
 5420TIP3    H216267   1.942   4.717   3.413 -1.2404 -1.0727  2.1575
 5421TIP3   OH216268   0.118   2.799   0.422 -0.1811  0.1374 -0.2032
 5421TIP3    H116269   0.068   2.853   0.361 -0.7405 -1.0897 -0.8691
 5421TIP3    H216270   0.065   2.800   0.502  1.4065  3.1775  0.9559
 5422TIP3   OH216271   5.243   5.104   4.314  0.0020 -0.0982  0.5491
 5422TIP3    H116272   5.173   5.040   4.299 -0.3117  0.3010  0.3243
 5422TIP3    H216273   5.199   5.188   4.321  0.5340  0.2752 -0.4244
 5423TIP3   OH216274   1.219   2.410   0.159 -0.1493 -0.3893  0.1828
 5423TIP3    H116275   1.140   2.435   0.111 -0.3994 -1.5555 -0.0301
 5423TIP3    H216276   1.291   2.437   0.102 -0.3411  1.4224  0.7350
 5424TIP3   OH216277   0.385   5.641   3.325  0.1562 -0.3354  0.0961
 5424TIP3    H116278   0.342   5.667   3.407  1.1542 -1.2276  0.9352
 5424TIP3    H216279   0.346   5.697   3.258  1.1167  2.2858  1.5738
 5425TIP3   OH216280   4.764   0.042   1.308  0.4455 -0.6615  0.7727
 5425TIP3    H116281   4.786  -0.049   1.290  0.2578 -0.3976 -0.9894
 5425TIP3    H216282   4.829   0.092   1.257  0.1410  0.1718  1.1916
 5426TIP3   OH216283   4.536   4.140   0.217 -0.5686 -0.6963  0.1244
 5426TIP3    H116284   4.576   4.178   0.296 -0.6313 -0.6000  0.1101
 5426TIP3    H216285   4.444   4.162   0.224 -0.3177  0.7883 -0.8088
 5427TIP3   OH216286   2.648   3.170   5.095 -0.2988 -0.3414  0.3463
 5427TIP3    H116287   2.568   3.119   5.089 -2.0958  2.4285 -1.1815
 5427TIP3    H216288   2.623   3.250   5.140  1.6742  0.5278  0.0194
 5428TIP3   OH216289   3.786   2.279   0.055 -0.1611 -0.1520  0.0347
 5428TIP3    H116290   3.714   2.340   0.065 -0.5841 -0.7662  0.8760
 5428TIP3    H216291   3.790   2.262  -0.039 -1.8885 -0.9854  0.0586
 5429TIP3   OH216292   2.378   3.683   0.916  0.0798  0.4523  0.0590
 5429TIP3    H116293   2.388   3.755   0.977  1.1332 -1.2306  1.9906
 5429TIP3    H216294   2.453   3.626   0.933 -1.9615 -2.3391  0.4059
 5430TIP3   OH216295   2.291   3.730   2.894  0.4223  0.5873 -0.2653
 5430TIP3    H116296   2.357   3.702   2.957  0.8083 -0.9026 -1.2845
 5430TIP3    H216297   2.224   3.661   2.897  0.5953  0.3224 -1.6629
 5431TIP3   OH216298   3.243   2.404   5.015  0.2195 -0.0001  0.0731
 5431TIP3    H116299   3.236   2.484   5.067  0.3431 -0.1773  0.3627
 5431TIP3    H216300   3.261   2.335   5.079  1.7753 -0.0032 -0.3379
 5432TIP3   OH216301   5.165   5.462   5.208  0.4586 -0.5896 -0.0114
 5432TIP3    H116302   5.080   5.491   5.177  0.7355 -0.5195 -0.7209
 5432TIP3    H216303   5.196   5.401   5.141  0.8236 -0.8769  0.4047
 5433TIP3   OH216304   2.476   1.390   2.294  0.2704  0.1554  0.7915
 5433TIP3    H116305   2.500   1.336   2.219 -0.0142  0.6912  0.3148
 5433TIP3    H216306   2.390   1.356   2.321 -0.6669  1.4019 -0.5101
 5434TIP3   OH216307   5.930   2.783   3.896 -0.1943  0.1983 -0.6119
 5434TIP3    H116308   5.914   2.690   3.912 -2.6235  0.3749 -1.5774
 5434TIP3    H216309   5.871   2.828   3.957  0.2445  1.0767 -0.8285
 5435TIP3   OH216310   2.402   0.104   2.798  0.2100  0.4702 -0.1375
 5435TIP3    H116311   2.404   0.085   2.704  0.8063 -0.7325  0.0967
 5435TIP3    H216312   2.309   0.097   2.821 -0.1257  2.1141 -0.8681
 5436TIP3   OH216313   4.572   1.119   3.821  0.2012 -0.0927  0.3064
 5436TIP3    H116314   4.521   1.039   3.815  0.1222 -0.0149 -0.1130
 5436TIP3    H216315   4.531   1.178   3.757 -0.2256  0.5516  1.1560
 5437TIP3   OH216316   5.328   2.013   4.136  0.1532  0.1276 -0.0471
 5437TIP3    H116317   5.269   2.086   4.157  0.2270  0.0117  0.5934
 5437TIP3    H216318   5.300   1.942   4.195  2.3319  0.7548  1.8944
 5438TIP3   OH216319   6.023   5.689   2.844 -0.1673  0.3428 -0.5795
 5438TIP3    H116320   6.004   5.780   2.821 -1.5162 -0.2441 -1.9768
 5438TIP3    H216321   6.116   5.689   2.866  0.0888  1.8907 -1.4681
 5439TIP3   OH216322   1.239   0.352   3.206  0.3887 -0.0875  0.5016
 5439TIP3    H116323   1.304   0.413   3.171  1.6427 -0.9447  1.2335
 5439TIP3    H216324   1.262   0.268   3.166  1.4043 -0.9332  2.7255
 5440TIP3   OH216325   4.403   5.159   0.501  0.4659  0.3260  0.1652
 5440TIP3    H116326   4.354   5.085   0.466 -0.0137  0.3300  0.8114
 5440TIP3    H216327   4.352   5.187   0.577  0.7124  1.2281  0.0089
 5441TIP3   OH216328   4.122   4.968   0.562 -0.3882  0.0575  0.2926
 5441TIP3    H116329   4.147   4.953   0.653 -0.4455 -0.1205  0.2806
 5441TIP3    H216330   4.049   4.908   0.547 -0.7857  0.5324  0.3116
 5442TIP3   OH216331   5.997   5.327   1.974 -0.2873  0.0603 -0.1588
 5442TIP3    H116332   5.949   5.394   2.022 -0.9882 -0.1971 -0.4826
 5442TIP3    H216333   6.002   5.360   1.884 -1.3648 -0.6639 -0.5167
 5443TIP3   OH216334   0.112   5.436   4.285 -0.0466 -0.2903  0.0083
 5443TIP3    H116335   0.192   5.412   4.240  0.3236 -0.4459  0.7371
 5443TIP3    H216336   0.042   5.391   4.236  0.2648  0.0780 -0.7990
 5444TIP3   OH216337   0.679   5.555   4.271  0.1889  0.2607 -0.2068
 5444TIP3    H116338   0.635   5.471   4.267 -0.6985  0.7771 -2.6673
 5444TIP3    H216339   0.762   5.537   4.316 -1.0224 -1.3826  1.5070
 5445TIP3   OH216340   4.239   0.040   0.307 -0.2805 -0.2888  0.2525
 5445TIP3    H116341   4.230   0.126   0.348  0.8507 -0.1361  0.2109
 5445TIP3    H216342   4.275   0.058   0.220  2.4065 -0.8963  1.1306
 5446TIP3   OH216343   0.681   2.694   4.361  0.1322  0.0746 -0.0616
 5446TIP3    H116344   0.677   2.772   4.306 -0.5057  0.1659  0.1078
 5446TIP3    H216345   0.763   2.651   4.336  1.0402  1.3584  0.6108
 5447TIP3   OH216346   5.899   5.309   1.408  0.0565  0.2104  0.0658
 5447TIP3    H116347   5.962   5.333   1.340 -1.0832  0.5043 -0.9501
 5447TIP3    H216348   5.823   5.277   1.358 -0.7075  0.1727  1.2247
 5448TIP3   OH216349   1.370   4.260   0.510  0.3258 -0.3026 -0.5544
 5448TIP3    H116350   1.379   4.221   0.597 -0.1656  2.4535  0.8534
 5448TIP3    H216351   1.277   4.247   0.488 -0.4301  1.8612  0.9579
 5449TIP3   OH216352   0.059   4.921   1.224  0.0257  0.3787 -0.3209
 5449TIP3    H116353   0.143   4.896   1.262 -0.0723 -1.0515 -0.9414
 5449TIP3    H216354   0.050   5.014   1.243  1.3580  0.3728  0.4779
 5450TIP3   OH216355   1.802   0.430   4.376 -0.5487  0.0780  0.0616
 5450TIP3    H116356   1.733   0.399   4.435 -0.2566 -0.2861  0.2143
 5450TIP3    H216357   1.771   0.407   4.288 -0.7340  0.1363  0.1113
 5451TIP3   OH216358   1.220   0.951   2.546  0.1187  0.1384 -0.1371
 5451TIP3    H116359   1.285   0.985   2.484 -0.4412 -1.8035 -1.8843
 5451TIP3    H216360   1.270   0.891   2.602 -0.0135 -0.8603 -1.0649
 5452TIP3   OH216361   0.352   1.307   1.222 -0.1908  0.2794  0.4884
 5452TIP3    H116362   0.374   1.217   1.200 -0.1256  0.1124  1.2231
 5452TIP3    H216363   0.410   1.360   1.167 -1.4640 -0.0762 -1.2782
 5453TIP3   OH216364   5.782   3.983   4.537  0.3566 -0.2369 -0.1787
 5453TIP3    H116365   5.706   4.022   4.494 -0.4811 -0.5605  0.9577
 5453TIP3    H216366   5.751   3.898   4.569  1.1971 -0.3776  0.2972
 5454TIP3   OH216367   0.297   4.848   0.969  0.5967  0.5211  0.1988
 5454TIP3    H116368   0.201   4.843   0.969  0.6053  0.2926 -0.6924
 5454TIP3    H216369   0.325   4.766   1.009  0.4564 -0.8881 -2.3502
 5455TIP3   OH216370   5.787   5.140   0.602  0.4436  0.2268 -0.0969
 5455TIP3    H116371   5.772   5.150   0.696  0.1687  2.3043 -0.3324
 5455TIP3    H216372   5.882   5.145   0.592  0.4458  0.3852  0.0139
 5456TIP3   OH216373   1.784   2.256   4.303  0.3801 -0.0485  0.3009
 5456TIP3    H116374   1.857   2.313   4.329  0.5165 -0.0156 -0.1369
 5456TIP3    H216375   1.726   2.256   4.378  0.8892 -0.1658  0.7012
 5457TIP3   OH216376   1.085   1.949   0.012 -0.3826 -0.0284  0.1217
 5457TIP3    H116377   0.989   1.946   0.018 -0.3103  0.3165  2.2242
 5457TIP3    H216378   1.111   1.860  -0.011 -1.2215  0.0956 -1.4503
 5458TIP3   OH216379   2.441   2.106   3.790  0.0122 -0.3307  0.0145
 5458TIP3    H116380   2.417   2.026   3.744 -1.0038 -0.5489  0.8649
 5458TIP3    H216381   2.369   2.120   3.852  0.4523  0.9288  0.2752
 5459TIP3   OH216382   0.548   3.651   3.376  0.2822  0.0300  0.9839
 5459TIP3    H116383   0.600   3.580   3.338  0.3059 -0.9752  2.7364
 5459TIP3    H216384   0.608   3.724   3.384  1.5020 -1.0639  2.8433
 5460TIP3   OH216385   2.126  -0.033   3.336  0.4961 -0.3168 -0.6423
 5460TIP3    H116386   2.134   0.052   3.293  0.5030 -0.3202 -0.6479
 5460TIP3    H216387   2.074  -0.015   3.414  0.9699 -0.1994 -0.3466
 5461TIP3   OH216388   4.758   4.128   1.773  0.4254 -0.6841  0.0590
 5461TIP3    H116389   4.686   4.162   1.825  1.1070  1.9785 -0.5476
 5461TIP3    H216390   4.818   4.090   1.837  0.8669  1.7880  1.2522
 5462TIP3   OH216391   5.574   4.226   3.848 -0.2503  0.3377  0.0963
 5462TIP3    H116392   5.529   4.217   3.931 -0.9570  1.3378 -0.1619
 5462TIP3    H216393   5.645   4.289   3.865 -0.3022  0.4285 -0.0152
 5463TIP3   OH216394   4.193   0.906   0.583  0.1793  0.5255 -0.3292
 5463TIP3    H116395   4.103   0.881   0.560  0.5631 -0.4967 -0.8027
 5463TIP3    H216396   4.189   0.928   0.676 -0.8773  2.1412 -0.7230
 5464TIP3   OH216397   1.267   5.850   0.045 -0.1699  0.1819 -0.5882
 5464TIP3    H116398   1.195   5.874  -0.013  0.4122  1.4513 -0.8388
 5464TIP3    H216399   1.345   5.883  -0.000  0.3288  0.9176  0.7630
 5465TIP3   OH216400   0.364   4.820   4.694 -0.6073  0.1551  0.9147
 5465TIP3    H116401   0.343   4.909   4.667  1.0240 -0.0459 -1.2969
 5465TIP3    H216402   0.451   4.804   4.658 -0.2495 -1.8490  2.5065
 5466TIP3   OH216403   1.128   0.854   1.083  0.2101 -0.0073  0.1151
 5466TIP3    H116404   1.051   0.904   1.110 -0.1540  0.5814 -1.8832
 5466TIP3    H216405   1.099   0.763   1.086  0.4483 -0.0756  2.3961
 5467TIP3   OH216406   4.994   5.792   3.627  0.0213  0.2518 -0.2136
 5467TIP3    H116407   4.913   5.842   3.638 -0.6054 -1.1643  2.1719
 5467TIP3    H216408   4.968   5.701   3.642  1.6399 -0.5374 -1.8290
 5468TIP3   OH216409   4.571   3.813   4.784 -0.2750 -0.6191 -0.0745
 5468TIP3    H116410   4.645   3.825   4.843 -1.0928 -2.9918  1.5818
 5468TIP3    H216411   4.578   3.722   4.755 -2.9273 -1.1716  0.7810
 5469TIP3   OH216412   3.129   0.951   1.809 -0.1021 -0.0139 -0.6110
 5469TIP3    H116413   3.087   1.037   1.807  1.6898  0.9194  0.2803
 5469TIP3    H216414   3.107   0.915   1.895 -1.3144 -0.7397 -1.1888
 5470TIP3   OH216415   2.309   2.747   1.941 -0.0993 -0.0750 -0.1709
 5470TIP3    H116416   2.264   2.697   2.009 -1.2898  1.0589 -0.0825
 5470TIP3    H216417   2.393   2.771   1.980  0.1698 -1.3089  0.0600
 5471TIP3   OH216418   4.300   1.170   3.999  0.0011 -0.1387 -0.3209
 5471TIP3    H116419   4.288   1.262   4.019 -2.5013 -0.3985 -0.3281
 5471TIP3    H216420   4.291   1.163   3.904 -0.6650 -0.4979 -0.2343
 5472TIP3   OH216421   3.244   2.838   0.497 -0.5477 -0.3085 -0.1797
 5472TIP3    H116422   3.226   2.881   0.581 -0.9791  1.1603 -0.9780
 5472TIP3    H216423   3.241   2.909   0.433 -0.9924 -1.5153 -1.5522
 5473TIP3   OH216424   3.141   5.355   2.117  0.5893  0.0858 -0.3044
 5473TIP3    H116425   3.105   5.440   2.144 -1.5099 -0.7619 -0.1934
 5473TIP3    H216426   3.180   5.371   2.032 -0.9515  0.9442 -0.9004
 5474TIP3   OH216427   4.113   3.174   0.050 -0.4616 -0.0401 -0.1736
 5474TIP3    H116428   4.041   3.125   0.088  0.1422 -1.4446 -0.7657
 5474TIP3    H216429   4.191   3.123   0.073  0.0227 -0.3905 -2.3480
 5475TIP3   OH216430   6.257   1.355   3.660  0.1713  0.0348 -0.2646
 5475TIP3    H116431   6.299   1.286   3.712  0.8291 -0.3793 -1.3069
 5475TIP3    H216432   6.248   1.428   3.721 -1.3328 -1.2206  1.1088
 5476TIP3   OH216433   2.575   5.878   3.016  0.3935 -0.6578  0.7584
 5476TIP3    H116434   2.500   5.827   2.985  0.1500 -1.1176  2.0215
 5476TIP3    H216435   2.563   5.882   3.111  2.1712 -1.0872  1.0420
 5477TIP3   OH216436   1.535   3.878   4.984  0.0964 -0.2876  0.3431
 5477TIP3    H116437   1.533   3.843   4.895 -1.0079  0.5544  0.0064
 5477TIP3    H216438   1.521   3.802   5.041 -0.3085 -0.6679 -0.2606
 5478TIP3   OH216439   6.342   1.527   0.657  0.1824  0.0415 -0.3126
 5478TIP3    H116440   6.255   1.565   0.664 -0.5997 -1.4693 -1.1804
 5478TIP3    H216441   6.390   1.560   0.733 -1.5514 -0.1377  0.9101
 5479TIP3   OH216442   5.196   5.891   0.672  0.1947  0.5507 -0.7885
 5479TIP3    H116443   5.223   5.832   0.601  0.8177  2.0922 -1.8857
 5479TIP3    H216444   5.277   5.935   0.698 -0.2986  1.1000 -0.1574
 5480TIP3   OH216445   0.354   3.458   4.753 -0.2311  0.1796  0.3571
 5480TIP3    H116446   0.390   3.544   4.729 -0.0387  0.2201  0.7850
 5480TIP3    H216447   0.328   3.419   4.670  0.5603  0.2589  0.0678
 5481TIP3   OH216448   2.620   5.953   1.590  0.4798 -0.7155 -0.2229
 5481TIP3    H116449   2.644   5.961   1.498 -0.3256  0.4794 -0.3608
 5481TIP3    H216450   2.634   6.041   1.626 -1.1315 -0.6204  0.2811
 5482TIP3   OH216451   2.479   3.517   4.941  0.0770  0.1823  0.0580
 5482TIP3    H116452   2.494   3.471   4.859 -0.8801 -0.7793  0.4097
 5482TIP3    H216453   2.384   3.526   4.947  0.1300  0.2280  1.0644
 5483TIP3   OH216454   4.669   5.044   4.995 -0.0368  0.1776 -0.0668
 5483TIP3    H116455   4.730   4.997   5.050 -0.0525  0.6054  0.3220
 5483TIP3    H216456   4.683   5.136   5.017  0.3849  0.4029 -1.2156
 5484TIP3   OH216457   2.119   1.039   1.365  0.2337 -0.0143  0.1107
 5484TIP3    H116458   2.111   1.132   1.384  1.7964  0.7581 -2.5322
 5484TIP3    H216459   2.211   1.019   1.380  0.2620 -0.7153 -0.8909
 5485TIP3   OH216460   3.545   5.297   3.705 -0.5676  0.0339 -0.0135
 5485TIP3    H116461   3.465   5.249   3.726  0.4547 -1.0312  1.7747
 5485TIP3    H216462   3.534   5.382   3.749 -0.5009 -0.3294  0.7239
 5486TIP3   OH216463   0.529   5.940   4.881 -0.3866 -0.0983 -0.0398
 5486TIP3    H116464   0.554   5.940   4.788  0.5552 -1.6509  0.1819
 5486TIP3    H216465   0.611   5.961   4.927 -0.1932 -1.9995  0.5485
 5487TIP3   OH216466   5.670   4.516   4.772  0.6769 -0.0015 -0.0782
 5487TIP3    H116467   5.634   4.446   4.825 -0.8168  0.1793 -0.8234
 5487TIP3    H216468   5.680   4.590   4.832 -0.0879 -0.0997  0.1745
 5488TIP3   OH216469   0.600   0.210   0.387 -0.4487  0.3135 -0.3116
 5488TIP3    H116470   0.533   0.217   0.456 -0.5890 -0.9937 -0.3065
 5488TIP3    H216471   0.587   0.124   0.348  2.7542 -1.0735  1.2883
 5489TIP3   OH216472   6.304   0.305   4.220 -0.1571  0.1175 -0.3150
 5489TIP3    H116473   6.393   0.273   4.233 -0.1697  0.2226  0.0409
 5489TIP3    H216474   6.290   0.367   4.291 -1.4564 -1.8681  1.2598
 5490TIP3   OH216475   0.102   0.651   3.726  0.0527  0.4573 -0.5559
 5490TIP3    H116476   0.034   0.693   3.673  0.5436  0.7449 -0.9695
 5490TIP3    H216477   0.111   0.707   3.803 -2.7948 -1.5439  1.4068
 5491TIP3   OH216478   2.533   5.715   3.886 -0.1759  0.5265  0.5230
 5491TIP3    H116479   2.585   5.676   3.815 -0.6962  0.9942 -0.1297
 5491TIP3    H216480   2.587   5.703   3.964  0.5666  0.3023 -0.0072
 5492TIP3   OH216481   6.156   2.890   2.028  0.6119 -0.1161 -0.3155
 5492TIP3    H116482   6.070   2.890   2.070 -0.1271 -1.0683 -1.7227
 5492TIP3    H216483   6.163   2.976   1.987  1.2658  0.7537  1.5235
 5493TIP3   OH216484   5.368   3.715   1.517 -0.0126 -0.0052 -0.5244
 5493TIP3    H116485   5.334   3.802   1.494  0.8121  0.4810  0.0192
 5493TIP3    H216486   5.425   3.732   1.592  1.3334 -0.7972 -1.3418
 5494TIP3   OH216487   3.210   1.743   0.568 -0.4215  0.0091  0.0335
 5494TIP3    H116488   3.140   1.732   0.504  0.0483  1.8718 -0.8700
 5494TIP3    H216489   3.166   1.779   0.645 -0.8478 -1.4102  0.4874
 5495TIP3   OH216490   4.228   5.732   4.213 -0.4089 -0.5082  0.2306
 5495TIP3    H116491   4.249   5.791   4.141 -0.7078  0.7864  1.1720
 5495TIP3    H216492   4.226   5.645   4.173 -3.8863  0.4149 -2.1218
 5496TIP3   OH216493   5.548   1.806   2.856 -0.1163  0.5932 -0.1092
 5496TIP3    H116494   5.499   1.731   2.824  1.4173 -1.5045  2.0535
 5496TIP3    H216495   5.640   1.783   2.842  0.4119  1.8169  1.0715
 5497TIP3   OH216496   2.550   4.023   1.309  0.2011  0.6755 -1.0591
 5497TIP3    H116497   2.608   4.068   1.371  0.3466 -2.9172  1.7489
 5497TIP3    H216498   2.463   4.031   1.347  0.2690 -1.4673 -0.3057
 5498TIP3   OH216499   5.787   5.920   0.815 -0.3878  0.3546  0.2324
 5498TIP3    H116500   5.731   5.991   0.783  0.3875  0.0312 -1.9956
 5498TIP3    H216501   5.811   5.947   0.904 -0.6062  2.5821 -0.3225
 5499TIP3   OH216502   1.947   5.456   0.784  0.8167 -0.3812 -0.2042
 5499TIP3    H116503   1.934   5.453   0.690 -3.5914 -0.6171  0.2186
 5499TIP3    H216504   1.924   5.368   0.815  1.5627 -0.1261  1.1662
 5500TIP3   OH216505   2.544   1.139   4.289 -0.7092  0.6141 -0.7439
 5500TIP3    H116506   2.558   1.190   4.210  0.9387  1.4694  0.0468
 5500TIP3    H216507   2.622   1.155   4.342 -1.1791 -0.9530  0.5063
 5501TIP3   OH216508   2.291   1.964   3.091  0.8454 -0.1945 -0.4489
 5501TIP3    H116509   2.276   2.053   3.059 -0.5438 -0.0492  0.5132
 5501TIP3    H216510   2.286   1.972   3.186 -0.8842 -1.5397 -0.3790
 5502TIP3   OH216511   4.347   3.396   1.890 -0.1926  0.3490 -0.2011
 5502TIP3    H116512   4.410   3.441   1.947  0.4611 -0.0606 -0.5979
 5502TIP3    H216513   4.296   3.341   1.950 -0.0177  0.5048  0.0915
 5503TIP3   OH216514   0.706   3.136   2.511  0.2480 -0.2871 -0.1658
 5503TIP3    H116515   0.620   3.174   2.492 -0.0261  0.7409  2.7162
 5503TIP3    H216516   0.689   3.073   2.581  1.9195  0.6003  1.1097
 5504TIP3   OH216517   3.069   2.808   4.272 -0.7079  0.8642  0.1101
 5504TIP3    H116518   3.074   2.891   4.321  0.9378 -0.1966  1.8838
 5504TIP3    H216519   3.156   2.770   4.280 -1.0374 -0.4407 -1.8352
 5505TIP3   OH216520   5.233   5.250   4.007 -0.3898 -0.3030  0.3259
 5505TIP3    H116521   5.252   5.156   3.996 -0.4368 -0.3192  0.3784
 5505TIP3    H216522   5.313   5.287   4.044  1.2185  0.4660 -3.5232
 5506TIP3   OH216523   2.883   3.241   4.178  0.0894  0.5291  0.1616
 5506TIP3    H116524   2.936   3.269   4.253 -1.0607 -0.4290  1.3951
 5506TIP3    H216525   2.806   3.200   4.218 -1.6260  1.9195 -1.5671
 5507TIP3   OH216526   1.638   0.408   0.725 -0.1073  0.3284 -0.2988
 5507TIP3    H116527   1.713   0.362   0.764 -0.2711  1.0647  0.9195
 5507TIP3    H216528   1.562   0.376   0.774 -0.3765  0.8753 -0.3502
 5508TIP3   OH216529   3.265   1.475   0.924  0.6174 -0.5255  0.0152
 5508TIP3    H116530   3.226   1.554   0.961 -1.3541 -2.5074  2.5631
 5508TIP3    H216531   3.289   1.499   0.835  0.5421  3.0336  0.8308
 5509TIP3   OH216532   2.768   4.761   3.218  0.3584 -0.0753 -0.3693
 5509TIP3    H116533   2.744   4.840   3.169  0.3178 -0.0757 -0.3499
 5509TIP3    H216534   2.848   4.785   3.264 -0.0963  0.2250  0.2912
 5510TIP3   OH216535   3.846   5.320   2.951 -0.0199 -0.3572  0.0484
 5510TIP3    H116536   3.810   5.357   3.032  0.1880 -0.0036 -0.0224
 5510TIP3    H216537   3.869   5.395   2.898 -1.6026 -0.5643 -0.9986
 5511TIP3   OH216538   3.815   2.358   0.726 -0.1170 -0.3860  0.2110
 5511TIP3    H116539   3.801   2.443   0.768 -1.4136 -0.2701 -0.4123
 5511TIP3    H216540   3.728   2.331   0.697  0.3026 -1.8705  0.2743
 5512TIP3   OH216541   5.334   2.925   4.269  0.0809 -0.3593  0.2739
 5512TIP3    H116542   5.297   2.960   4.188  1.2769 -1.5081 -0.8325
 5512TIP3    H216543   5.288   2.843   4.283 -1.3291  0.6370  1.7588
 5513TIP3   OH216544   0.923   4.351   4.309  0.1593 -0.6279  0.1542
 5513TIP3    H116545   0.965   4.297   4.376 -0.2714 -3.3277 -1.5984
 5513TIP3    H216546   0.936   4.302   4.228 -0.2296  2.0156 -1.5947
 5514TIP3   OH216547   2.361   1.339   1.390  0.2502  0.1374  0.3242
 5514TIP3    H116548   2.267   1.327   1.402  0.0659  0.1072 -0.9287
 5514TIP3    H216549   2.397   1.251   1.390  0.0370  0.0299 -0.7547
 5515TIP3   OH216550   1.229   0.620   2.084  0.0089  0.2463 -0.0001
 5515TIP3    H116551   1.206   0.604   1.992  0.6019  0.8229 -0.2598
 5515TIP3    H216552   1.250   0.714   2.087 -2.0596  0.7284  1.1720
 5516TIP3   OH216553   4.433   3.044   3.458 -0.7000 -0.0999 -0.3690
 5516TIP3    H116554   4.512   3.097   3.447  0.5727 -2.0106 -1.1110
 5516TIP3    H216555   4.379   3.066   3.383 -0.7679  1.0192 -0.0103
 5517TIP3   OH216556   5.663   2.481   3.783 -0.1128  0.3296 -0.2733
 5517TIP3    H116557   5.696   2.490   3.694 -0.5181  0.8659 -0.3754
 5517TIP3    H216558   5.588   2.541   3.787 -0.0674  0.3487  0.4399
 5518TIP3   OH216559   3.302   5.347   4.716  0.2062 -0.0043  0.4098
 5518TIP3    H116560   3.214   5.350   4.754 -0.6471 -0.4138 -1.4224
 5518TIP3    H216561   3.293   5.388   4.630  1.8529  0.0760  0.2402
 5519TIP3   OH216562  -0.005   2.021   2.896 -0.4804 -0.0895 -0.1351
 5519TIP3    H116563   0.044   2.071   2.961  1.9802  1.1596 -2.7615
 5519TIP3    H216564   0.043   1.938   2.888 -1.1804 -0.5284  0.0859
 5520TIP3   OH216565   4.810   1.606   2.493 -0.2763 -0.6209  0.2366
 5520TIP3    H116566   4.870   1.666   2.540 -0.0606 -1.5860  1.2297
 5520TIP3    H216567   4.728   1.612   2.542 -0.2674 -1.0914  0.3121
 5521TIP3   OH216568   3.864   2.338   3.131 -0.3848  0.1056  0.5659
 5521TIP3    H116569   3.935   2.402   3.132  0.1843 -0.4912 -0.2299
 5521TIP3    H216570   3.906   2.256   3.105 -1.2745 -0.3722  0.6000
 5522TIP3   OH216571   1.577   5.158   2.745 -0.5085  0.2760 -0.2385
 5522TIP3    H116572   1.539   5.156   2.833  0.8913 -0.7782  0.3762
 5522TIP3    H216573   1.658   5.207   2.755  0.4911 -1.2362 -0.5547
 5523TIP3   OH216574   1.331   1.176   0.034  0.6767 -0.7099  0.5763
 5523TIP3    H116575   1.337   1.127   0.117  0.5356 -1.5520  0.1023
 5523TIP3    H216576   1.271   1.248   0.053  2.1865  0.2954  1.7655
 5524TIP3   OH216577   1.533   4.062   4.587  0.0764  0.0755 -0.1634
 5524TIP3    H116578   1.555   4.117   4.512  0.6264 -2.1840 -1.7542
 5524TIP3    H216579   1.446   4.091   4.614  1.5396  3.9101  1.2502
 5525TIP3   OH216580   5.801   1.627   1.910 -0.2531  0.0905  0.6689
 5525TIP3    H116581   5.727   1.584   1.953 -0.3625 -0.3834  0.0125
 5525TIP3    H216582   5.785   1.616   1.817  1.7362 -1.9198  0.4834
 5526TIP3   OH216583   1.627   1.192   0.660 -0.5488  0.0530  0.2345
 5526TIP3    H116584   1.642   1.175   0.753  3.3058 -1.5152 -0.4644
 5526TIP3    H216585   1.616   1.105   0.621  0.4638  0.4413 -1.0307
 5527TIP3   OH216586   5.856   5.092   2.008  0.0717  0.6020 -0.2232
 5527TIP3    H116587   5.900   5.171   1.979  0.6057  0.4459  0.1471
 5527TIP3    H216588   5.763   5.108   1.990  0.0670  1.6672  0.6523
 5528TIP3   OH216589   1.697   5.249   0.512 -0.8126 -0.2279  0.6979
 5528TIP3    H116590   1.637   5.182   0.479  0.3873 -0.5555 -0.9180
 5528TIP3    H216591   1.664   5.331   0.475 -0.9407 -0.2346  0.7930
 5529TIP3   OH216592   5.458   0.865   3.227  0.1828  0.4890  0.1302
 5529TIP3    H116593   5.416   0.811   3.160 -0.1056  0.6198  0.2029
 5529TIP3    H216594   5.506   0.932   3.179 -1.4066  1.6302  0.0618
 5530TIP3   OH216595   1.044   4.192   0.636 -0.8353  0.2273  0.5113
 5530TIP3    H116596   0.966   4.195   0.692 -0.8983 -0.1093  0.4456
 5530TIP3    H216597   1.114   4.227   0.690 -0.6808 -1.0409  1.1689
 5531TIP3   OH216598   4.079   4.618   2.715 -0.1298  0.1269  0.9119
 5531TIP3    H116599   4.138   4.609   2.640  0.1903  1.9691  0.8906
 5531TIP3    H216600   4.003   4.565   2.692  0.7708 -0.8862  0.1595
 5532TIP3   OH216601   0.329   4.014   1.480 -0.0278  0.2053  0.0462
 5532TIP3    H116602   0.243   3.975   1.464 -0.7269  0.8769  1.8796
 5532TIP3    H216603   0.324   4.048   1.569  2.7075 -1.1692  0.8336
 5533TIP3   OH216604   0.796   3.668   0.911  0.1929  0.5441  0.0956
 5533TIP3    H116605   0.878   3.646   0.865 -0.6309  1.7722 -2.1030
 5533TIP3    H216606   0.806   3.759   0.937 -0.3530  0.5996  0.1236
 5534TIP3   OH216607   0.149   4.445   3.400  0.4842 -0.0879 -0.1212
 5534TIP3    H116608   0.081   4.407   3.344 -0.3325  2.5744 -1.0977
 5534TIP3    H216609   0.112   4.529   3.429  2.6851  0.6481  0.7649
 5535TIP3   OH216610   1.300   0.600   4.979 -0.1065 -1.1084 -0.4356
 5535TIP3    H116611   1.327   0.608   5.071 -1.1714 -0.8578 -0.1278
 5535TIP3    H216612   1.378   0.567   4.934  1.1753  0.9345  0.1410
 5536TIP3   OH216613   5.436   5.728   2.610  0.3572  0.2448 -0.1713
 5536TIP3    H116614   5.352   5.694   2.640  1.3752 -1.1448  1.2411
 5536TIP3    H216615   5.495   5.653   2.614  2.1342  1.6151  0.7581
 5537TIP3   OH216616   6.308   3.760   3.308  0.0320 -0.4760  0.2828
 5537TIP3    H116617   6.314   3.665   3.300 -1.6979 -0.7324  1.3644
 5537TIP3    H216618   6.323   3.777   3.401 -1.4507  0.0781  0.4556
 5538TIP3   OH216619   2.322   5.520   2.349 -0.7189 -0.2806 -0.5793
 5538TIP3    H116620   2.313   5.534   2.443 -0.4204 -1.2999 -0.3876
 5538TIP3    H216621   2.289   5.431   2.335  1.3615 -1.0193 -1.0889
 5539TIP3   OH216622   2.979   0.999   4.395 -0.0008  0.2944  0.5386
 5539TIP3    H116623   2.918   0.932   4.364  0.6093  0.4982 -1.1984
 5539TIP3    H216624   3.064   0.970   4.364  0.3449  1.5828  0.2439
 5540TIP3   OH216625   1.236   4.334   4.400  0.9501  0.0307 -0.0861
 5540TIP3    H116626   1.214   4.421   4.365 -2.0040 -0.4307  0.3585
 5540TIP3    H216627   1.251   4.350   4.493 -1.3899 -0.0951  0.3701
 5541TIP3   OH216628   1.421   3.221   3.066  0.2736 -0.2552 -0.6400
 5541TIP3    H116629   1.355   3.265   3.013  0.6411  1.0430 -0.0583
 5541TIP3    H216630   1.492   3.285   3.074  1.2311 -1.2951 -0.5204
 5542TIP3   OH216631   5.807   4.441   4.548  0.2465  0.1249  0.0302
 5542TIP3    H116632   5.892   4.401   4.565  0.2739  0.1124 -0.1332
 5542TIP3    H216633   5.775   4.467   4.634  0.4537  0.2048  0.0831
 5543TIP3   OH216634   2.328   2.203   4.712 -0.1987  0.0575  0.3910
 5543TIP3    H116635   2.378   2.227   4.790  1.6362 -0.6109 -0.5194
 5543TIP3    H216636   2.393   2.168   4.651 -1.5637  0.5651 -1.4622
 5544TIP3   OH216637   3.516   4.641   5.016 -0.2005 -0.0851  0.3302
 5544TIP3    H116638   3.510   4.553   4.981 -0.8752 -1.3666  3.3694
 5544TIP3    H216639   3.433   4.655   5.062  1.1557  0.7756  2.6971
 5545TIP3   OH216640   3.516   0.311   2.405  0.3413  0.2514  0.0589
 5545TIP3    H116641   3.495   0.231   2.452  0.9501  0.8174  1.3244
 5545TIP3    H216642   3.557   0.281   2.324 -1.4665 -0.7551 -0.5394
 5546TIP3   OH216643   4.484   4.858   1.451 -0.3796 -0.0236 -0.1733
 5546TIP3    H116644   4.471   4.785   1.512  2.9155 -1.6052 -1.1355
 5546TIP3    H216645   4.531   4.924   1.502 -0.8285  0.2212 -0.0703
 5547TIP3   OH216646   6.129   5.949   2.374 -0.4695  0.0146  0.0042
 5547TIP3    H116647   6.119   6.033   2.328 -1.9301  0.2520  0.6887
 5547TIP3    H216648   6.177   5.971   2.453 -0.3518  0.1077 -0.0926
 5548TIP3   OH216649   5.509   5.050   1.394 -0.5881  0.3344 -0.4251
 5548TIP3    H116650   5.423   5.061   1.353 -0.5663 -0.7171 -0.8079
 5548TIP3    H216651   5.509   4.960   1.426  0.5033  0.1816 -0.7801
 5549TIP3   OH216652   0.408   5.894   3.034 -0.3502  0.0003 -0.0228
 5549TIP3    H116653   0.355   5.968   3.062  0.5317 -0.0750  1.9549
 5549TIP3    H216654   0.368   5.818   3.076 -0.9762 -0.6369 -1.6728
 5550TIP3   OH216655   6.007   0.627   4.570 -0.0558  0.2052 -0.3824
 5550TIP3    H116656   5.965   0.709   4.598 -0.2745 -0.2911  0.8181
 5550TIP3    H216657   5.950   0.559   4.606  0.1126 -0.4814 -1.3936
 5551TIP3   OH216658   4.266   2.037   3.380  0.1087  0.0493 -0.3437
 5551TIP3    H116659   4.262   2.129   3.354  2.0210  0.6263  1.1477
 5551TIP3    H216660   4.176   2.007   3.377 -0.7709  2.4122  0.5888
 5552TIP3   OH216661   2.547   2.698   1.266 -0.1797  0.8038 -0.0340
 5552TIP3    H116662   2.590   2.774   1.227 -0.6532 -0.5688 -3.6000
 5552TIP3    H216663   2.467   2.734   1.306 -0.2698  2.2537 -1.4176
 5553TIP3   OH216664   4.312   5.093   1.284 -0.0134 -0.2189  0.4942
 5553TIP3    H116665   4.375   5.144   1.334  0.9819  1.6855 -2.4471
 5553TIP3    H216666   4.242   5.155   1.262 -1.3273 -1.4605  0.9802
 5554TIP3   OH216667   2.412   3.020   1.158  0.0665 -0.4161  0.3113
 5554TIP3    H116668   2.433   2.996   1.068  1.8064 -2.0687  1.0969
 5554TIP3    H216669   2.317   3.008   1.164  0.2393 -2.9447 -0.6319
 5555TIP3   OH216670   0.154   3.043   3.548 -0.7047 -0.0912 -0.5642
 5555TIP3    H116671   0.089   3.113   3.548  0.2959  0.8633 -0.4170
 5555TIP3    H216672   0.189   3.043   3.638  0.3543  0.2542 -0.9577
 5556TIP3   OH216673   2.516   5.002   3.216 -0.1512 -0.7539 -0.0982
 5556TIP3    H116674   2.426   5.033   3.230 -0.1165 -1.2500  1.4663
 5556TIP3    H216675   2.555   5.004   3.304  1.8738  0.9024 -0.9446
 5557TIP3   OH216676   5.527   2.181   4.765 -0.0137  0.5351  0.1940
 5557TIP3    H116677   5.543   2.242   4.837 -0.6926  1.5509 -0.4932
 5557TIP3    H216678   5.435   2.194   4.742 -0.6680 -1.9324  1.1009
 5558TIP3   OH216679   4.472   0.086   0.828  0.2818 -0.2518 -0.1412
 5558TIP3    H116680   4.472   0.039   0.745  0.4588  3.7347 -2.6727
 5558TIP3    H216681   4.554   0.135   0.827 -0.8362  1.7694  1.1620
 5559TIP3   OH216682   0.047   4.416   1.779  0.0910  0.2879  0.6028
 5559TIP3    H116683   0.024   4.488   1.838  0.8307 -1.0068  2.6113
 5559TIP3    H216684   0.004   4.339   1.818 -0.6687 -0.4015 -1.4617
 5560TIP3   OH216685   3.881   2.757   3.220 -0.7747  0.2603  0.2966
 5560TIP3    H116686   3.965   2.768   3.176 -1.3557 -1.3407 -1.3000
 5560TIP3    H216687   3.829   2.833   3.192 -0.7256 -0.1040 -0.8245
 5561TIP3   OH216688   4.323   3.681   3.658 -0.4307 -0.5161 -0.3470
 5561TIP3    H116689   4.262   3.667   3.586 -0.6096  0.3973 -0.3818
 5561TIP3    H216690   4.348   3.773   3.651  2.1460 -1.2238 -1.2547
 5562TIP3   OH216691   4.924   5.917   0.619  0.8077  0.2114  0.3989
 5562TIP3    H116692   4.908   5.833   0.663  2.0513 -0.2976 -0.0838
 5562TIP3    H216693   5.019   5.919   0.604  0.6102  1.0522 -0.8969
 5563TIP3   OH216694   6.323   4.118   1.230  0.1783 -0.0404 -0.0754
 5563TIP3    H116695   6.321   4.209   1.200  3.2665  0.4658  0.8904
 5563TIP3    H216696   6.312   4.123   1.325  0.1314 -0.6986 -0.0383
 5564TIP3   OH216697   2.928   1.907   0.380  0.3243  0.5041  0.0830
 5564TIP3    H116698   2.999   1.906   0.315 -0.4031 -0.8125 -0.7407
 5564TIP3    H216699   2.864   1.967   0.344 -0.8551 -1.4962 -1.3737
 5565TIP3   OH216700   0.071   4.851   4.623  0.3644 -0.1305 -0.3076
 5565TIP3    H116701   0.159   4.830   4.654  1.0063 -0.1966 -2.0396
 5565TIP3    H216702   0.047   4.778   4.567 -2.4523 -2.0486  3.0073
 5566TIP3   OH216703   0.731   3.307   4.688  0.1414  0.2527  0.3809
 5566TIP3    H116704   0.663   3.268   4.633 -0.2141 -0.6245  1.4004
 5566TIP3    H216705   0.790   3.235   4.709  1.2354  0.9442 -0.2320
 5567TIP3   OH216706   5.142   4.155   4.352 -0.5448  0.3237  0.1050
 5567TIP3    H116707   5.204   4.097   4.308  0.9462  2.1312 -0.3117
 5567TIP3    H216708   5.125   4.114   4.436 -0.6573 -1.4014 -0.7264
 5568TIP3   OH216709   4.266   4.686   0.507  0.4069 -0.2441  0.2307
 5568TIP3    H116710   4.297   4.685   0.417 -0.4189 -1.9156 -0.0693
 5568TIP3    H216711   4.320   4.752   0.550  1.5053 -0.1332 -1.2359
 5569TIP3   OH216712   3.078   1.390   5.156  0.1485 -0.4097  0.4362
 5569TIP3    H116713   3.153   1.442   5.127 -0.4578  0.3848  0.2408
 5569TIP3    H216714   3.011   1.406   5.089  0.1352 -1.9228  0.0527
 5570TIP3   OH216715   0.770   4.830   2.375  0.0629  0.6097  0.3923
 5570TIP3    H116716   0.818   4.913   2.367  1.6374 -0.1922  1.0466
 5570TIP3    H216717   0.696   4.840   2.316 -0.7683  3.1355  1.6731
 5571TIP3   OH216718   5.153   4.028   2.464 -0.1072 -0.4203 -0.2605
 5571TIP3    H116719   5.133   3.996   2.552  0.8328 -1.3671 -0.3661
 5571TIP3    H216720   5.139   4.122   2.468  1.6611 -0.1710  1.4479
 5572TIP3   OH216721   0.803   3.879   4.481  0.1378  0.1199 -0.0468
 5572TIP3    H116722   0.729   3.825   4.505 -0.0357  0.2027 -0.3837
 5572TIP3    H216723   0.879   3.835   4.519 -0.0546 -0.1081  0.0710
 5573TIP3   OH216724   6.092   0.545   4.940 -0.5125  0.1330  0.0531
 5573TIP3    H116725   6.119   0.471   4.884  0.7009  0.2591  0.4369
 5573TIP3    H216726   6.164   0.554   5.003  0.2421  2.7537 -1.0548
 5574TIP3   OH216727   5.087   3.331   3.537 -0.1391 -0.5913  0.5554
 5574TIP3    H116728   5.101   3.372   3.623 -0.6800 -0.8602  0.7754
 5574TIP3    H216729   5.008   3.278   3.549  0.1861 -1.1794  0.0857
 5575TIP3   OH216730   0.093   3.539   1.703  0.0113  0.4011  0.1729
 5575TIP3    H116731   0.048   3.618   1.733 -1.1120 -0.2563  0.2743
 5575TIP3    H216732   0.165   3.527   1.765 -1.0892  0.1605  1.4449
 5576TIP3   OH216733   2.201   0.969   0.106  0.1386  1.0662 -0.1487
 5576TIP3    H116734   2.197   0.980   0.201  0.4712 -0.2237  0.0226
 5576TIP3    H216735   2.128   1.021   0.073 -2.3233 -1.3815  1.0888
 5577TIP3   OH216736   0.256   4.171   2.649  0.6619 -0.1318 -0.1847
 5577TIP3    H116737   0.246   4.199   2.558 -0.8531 -0.8764 -0.2755
 5577TIP3    H216738   0.351   4.161   2.660  0.9106  0.4601 -1.5173
 5578TIP3   OH216739   3.018   3.694   0.847  0.4871  0.6281  0.0732
 5578TIP3    H116740   3.057   3.609   0.865  0.5154  0.7677  0.7033
 5578TIP3    H216741   2.940   3.697   0.903 -2.2279 -0.8616 -3.2298
 5579TIP3   OH216742   1.214   5.229   5.135 -0.4332  0.1186 -0.2599
 5579TIP3    H116743   1.120   5.226   5.116 -0.0235  0.3790 -2.5613
 5579TIP3    H216744   1.250   5.154   5.089  0.4283 -0.3621  1.1575
 5580TIP3   OH216745   3.406   1.543   0.365  0.3238 -0.0875 -0.0557
 5580TIP3    H116746   3.447   1.458   0.345  1.2142 -0.2122  2.0105
 5580TIP3    H216747   3.478   1.597   0.398 -0.7263  0.5132  1.3470
 5581TIP3   OH216748   2.080   5.121   3.607 -0.1265 -0.1329 -0.5659
 5581TIP3    H116749   2.174   5.140   3.599  0.1801 -0.1422  2.0505
 5581TIP3    H216750   2.053   5.170   3.684 -2.7590  1.3099 -2.2701
 5582TIP3   OH216751   6.202   4.373   1.088  0.0782 -0.2123 -0.1401
 5582TIP3    H116752   6.207   4.448   1.029 -2.6818  1.6943  1.8243
 5582TIP3    H216753   6.182   4.299   1.031 -0.3501  1.1483 -1.8218
 5583TIP3   OH216754   4.161   2.203   2.587 -0.4201 -0.5146 -0.1621
 5583TIP3    H116755   4.195   2.282   2.628  0.2698 -0.3348 -1.0426
 5583TIP3    H216756   4.177   2.133   2.651 -1.4556  0.1104  0.8178
 5584TIP3   OH216757   3.196   0.175   3.724 -0.1232 -0.1263 -0.3153
 5584TIP3    H116758   3.210   0.081   3.730  1.0558  0.0843  1.0469
 5584TIP3    H216759   3.148   0.197   3.804  0.6936  0.5764 -0.0021
 5585TIP3   OH216760   5.948   0.230   3.894 -0.1522 -0.2518 -0.1148
 5585TIP3    H116761   5.926   0.144   3.932  0.8305 -0.2440  0.4992
 5585TIP3    H216762   5.868   0.257   3.849 -0.3158 -1.7211 -0.7477
 5586TIP3   OH216763   1.047   1.325   1.955 -0.5397 -0.3466 -0.1842
 5586TIP3    H116764   1.026   1.278   2.036  3.0938 -0.9016  0.6161
 5586TIP3    H216765   1.044   1.258   1.887 -1.0805 -0.4208 -0.0961
 5587TIP3   OH216766   0.625   3.836   4.836 -0.2165 -0.4628  0.2174
 5587TIP3    H116767   0.621   3.745   4.865 -2.7542  0.5171  3.7048
 5587TIP3    H216768   0.556   3.843   4.770  1.6044 -1.4712 -1.9015
 5588TIP3   OH216769   1.217   5.307   2.178 -0.2574  0.5257 -0.2269
 5588TIP3    H116770   1.177   5.346   2.255 -0.8744  0.4060 -0.4820
 5588TIP3    H216771   1.146   5.300   2.114 -0.1534 -0.8973 -0.2352
 5589TIP3   OH216772   3.315   3.232   2.403 -0.6825 -0.0001  0.0849
 5589TIP3    H116773   3.297   3.206   2.494 -1.3550 -0.8387 -0.2725
 5589TIP3    H216774   3.311   3.150   2.354 -1.2909  0.5685 -0.8432
 5590TIP3   OH216775   5.306   2.724   3.626 -0.7955 -0.3385  0.0535
 5590TIP3    H116776   5.339   2.688   3.709  0.2792 -1.2355 -0.7181
 5590TIP3    H216777   5.381   2.717   3.567 -1.3952  0.7585 -0.8620
 5591TIP3   OH216778   4.779   5.603   1.933 -0.0723  0.4494 -0.1474
 5591TIP3    H116779   4.850   5.624   1.993  0.9963  0.1300 -1.2512
 5591TIP3    H216780   4.724   5.681   1.933 -0.3626  0.2831  1.5652
 5592TIP3   OH216781   3.651   3.229   1.317  0.4257 -0.8273  0.0463
 5592TIP3    H116782   3.679   3.146   1.278  1.8412  0.1340 -1.1050
 5592TIP3    H216783   3.559   3.236   1.293  0.8959 -0.9597 -2.0060
 5593TIP3   OH216784   0.783   4.728   4.619  0.0158 -0.1927 -0.4730
 5593TIP3    H116785   0.773   4.696   4.708 -1.0946  0.1839 -0.4490
 5593TIP3    H216786   0.871   4.766   4.617 -0.2460  0.5366  0.6993
 5594TIP3   OH216787   4.798   5.070   4.360  0.4758  0.3831  0.4310
 5594TIP3    H116788   4.732   5.132   4.328 -0.8657 -0.2349  1.8773
 5594TIP3    H216789   4.825   5.105   4.444  0.6507 -0.3103  0.6728
 5595TIP3   OH216790   2.184   0.990   2.717  0.4287 -0.1950 -0.4386
 5595TIP3    H116791   2.149   1.030   2.797  1.6892 -0.9499  0.5325
 5595TIP3    H216792   2.208   0.901   2.744  0.8502 -0.4621 -1.6647
 5596TIP3   OH216793   5.060   1.396   1.235  0.3601  0.0223  0.2292
 5596TIP3    H116794   5.137   1.340   1.227 -0.1282 -0.6544  0.1617
 5596TIP3    H216795   5.091   1.474   1.280  0.4762 -1.5059  2.9770
 5597TIP3   OH216796   4.852   1.424   1.955 -0.2082  0.5071 -0.4450
 5597TIP3    H116797   4.933   1.460   1.990 -0.6279  0.5603  0.5196
 5597TIP3    H216798   4.875   1.336   1.925  0.5982  1.1859 -1.8893
 5598TIP3   OH216799   4.909   4.645   4.869 -0.4067 -0.6804  0.0877
 5598TIP3    H116800   4.919   4.582   4.940  1.3737 -0.7843 -0.2154
 5598TIP3    H216801   4.856   4.599   4.803  0.4722 -1.7158  0.0680
 5599TIP3   OH216802   1.819   5.262   4.764 -0.0739 -0.0279  0.5475
 5599TIP3    H116803   1.774   5.194   4.713  0.7453 -1.2011  1.3549
 5599TIP3    H216804   1.912   5.242   4.753  0.2029  1.2590  0.4201
 5600TIP3   OH216805   0.254   2.151   0.368 -0.4261  0.0146 -0.0906
 5600TIP3    H116806   0.160   2.150   0.349 -0.5374  2.2665  0.1617
 5600TIP3    H216807   0.295   2.127   0.285 -1.1910 -1.0774 -0.1819
 5601TIP3   OH216808   3.243  -0.010   3.044 -0.8507 -1.1318 -0.2697
 5601TIP3    H116809   3.294   0.063   3.079  0.6553 -2.9974  1.7489
 5601TIP3    H216810   3.152   0.017   3.053 -0.3863  1.6877 -2.5370
 5602TIP3   OH216811   6.021   2.878   0.522 -0.1982 -0.4076 -0.3136
 5602TIP3    H116812   6.040   2.882   0.616  1.4676 -2.6306 -0.4670
 5602TIP3    H216813   5.965   2.801   0.512 -1.0326  0.2766 -1.0667
 5603TIP3   OH216814   0.501   2.001   4.556  0.2915  0.1494 -0.4783
 5603TIP3    H116815   0.460   1.985   4.641  2.4437 -0.0171  0.5989
 5603TIP3    H216816   0.521   1.914   4.522 -0.1796  0.2286 -0.9747
 5604TIP3   OH216817   1.088   0.658   2.399  0.3360 -0.2971 -0.1620
 5604TIP3    H116818   1.067   0.621   2.484  1.1620 -3.3047 -1.1559
 5604TIP3    H216819   1.182   0.676   2.403  0.2240  0.3242 -0.1940
 5605TIP3   OH216820   0.805   3.756   3.102 -0.5041  0.0900  0.2865
 5605TIP3    H116821   0.857   3.766   3.022 -2.0430 -0.3550 -0.8247
 5605TIP3    H216822   0.829   3.830   3.156 -0.9405  1.6054 -1.4987
 5606TIP3   OH216823   4.402   2.956   3.711  0.5517 -0.1841 -0.1105
 5606TIP3    H116824   4.404   2.995   3.624  0.7944 -0.3825 -0.1973
 5606TIP3    H216825   4.385   2.863   3.696 -0.0947 -0.1002  0.1000
 5607TIP3   OH216826   2.904   5.392   0.630 -0.1689 -0.2171 -0.2089
 5607TIP3    H116827   2.808   5.390   0.627 -0.1645 -2.3631 -0.5404
 5607TIP3    H216828   2.931   5.384   0.539  0.3277 -0.3473 -0.0545
 5608TIP3   OH216829   1.296   2.179   1.391 -0.6273 -0.3689  0.2998
 5608TIP3    H116830   1.348   2.247   1.434 -0.1282 -0.4826 -0.1165
 5608TIP3    H216831   1.350   2.100   1.397 -0.2657 -0.2503 -1.0748
 5609TIP3   OH216832   3.589   4.716   3.669  0.0118  0.1505  0.1328
 5609TIP3    H116833   3.521   4.775   3.638 -0.1542 -1.0658 -2.0048
 5609TIP3    H216834   3.635   4.688   3.589  1.0488 -1.4245  1.2139
 5610TIP3   OH216835   1.687   0.628   0.585 -0.4033  0.3148 -0.1134
 5610TIP3    H116836   1.598   0.641   0.554 -0.2425  1.4176 -0.1656
 5610TIP3    H216837   1.683   0.552   0.642 -0.9535 -1.0118 -1.8322
 5611TIP3   OH216838   4.110   5.674   1.614 -0.3685 -0.2899 -0.4740
 5611TIP3    H116839   4.147   5.710   1.533  2.0039  0.4712  0.8473
 5611TIP3    H216840   4.162   5.595   1.631  0.9114  0.8794  1.5095
 5612TIP3   OH216841   3.591   4.569   2.431  0.4271  0.3093 -0.4261
 5612TIP3    H116842   3.551   4.604   2.351 -3.7954  0.1932  1.3338
 5612TIP3    H216843   3.592   4.475   2.418 -0.8188  0.2429 -0.2229
 5613TIP3   OH216844   5.829   5.061   3.578 -0.0027 -0.1171 -0.6533
 5613TIP3    H116845   5.883   4.982   3.578  1.8464  1.0916 -1.1953
 5613TIP3    H216846   5.879   5.125   3.628 -1.5552  0.6905 -0.0616
 5614TIP3   OH216847   2.954   5.816   0.851  0.3648  0.1202  0.0205
 5614TIP3    H116848   2.920   5.808   0.762 -1.4553 -0.2999  0.7070
 5614TIP3    H216849   2.949   5.909   0.871  0.5335  0.1803 -0.2051
 5615TIP3   OH216850   6.090   0.762   0.039 -0.0025 -0.1027 -0.3983
 5615TIP3    H116851   6.018   0.824   0.031 -0.1927 -0.0776  1.0865
 5615TIP3    H216852   6.064   0.704   0.111  1.0400 -0.6805 -0.4558
 5616TIP3   OH216853   0.829   4.027   4.798  0.0246  0.4493  0.0464
 5616TIP3    H116854   0.770   3.951   4.797  0.6421 -0.0429 -0.9763
 5616TIP3    H216855   0.788   4.090   4.739  0.7079 -0.0582 -0.9920
 5617TIP3   OH216856   3.206   0.608   1.407 -0.4985 -0.7066 -0.8005
 5617TIP3    H116857   3.203   0.540   1.339 -3.2043 -1.5811  0.0357
 5617TIP3    H216858   3.159   0.569   1.481  0.4053  1.0492  0.7740
 5618TIP3   OH216859   4.817   2.302   0.965 -0.5913  0.5163  0.0070
 5618TIP3    H116860   4.847   2.318   0.875 -0.0280 -1.1239 -0.1215
 5618TIP3    H216861   4.847   2.379   1.014  0.2971  0.7882 -0.9313
 5619TIP3   OH216862   1.060   4.781   4.595  0.1576 -0.7489 -0.6060
 5619TIP3    H116863   1.087   4.855   4.650  0.1927 -0.3322 -1.1774
 5619TIP3    H216864   1.053   4.818   4.507 -1.5153 -1.0098 -0.6151
 5620TIP3   OH216865   3.642   1.761   2.472 -0.0295  0.5130 -0.2055
 5620TIP3    H116866   3.627   1.855   2.465 -0.7824  0.5448  1.3676
 5620TIP3    H216867   3.556   1.724   2.491  0.5015 -0.2994  0.7342
 5621TIP3   OH216868   0.596   0.179   2.502  0.1426 -0.3778  0.4310
 5621TIP3    H116869   0.670   0.121   2.485 -0.6808 -1.4450  0.3599
 5621TIP3    H216870   0.555   0.143   2.581 -0.1364  0.3752  0.6409
 5622TIP3   OH216871   2.895   0.048   1.917  0.0124  0.5460 -0.0858
 5622TIP3    H116872   2.922  -0.013   1.987 -1.5759  1.2481  1.1928
 5622TIP3    H216873   2.923   0.005   1.837 -1.8209 -2.3892  0.6731
 5623TIP3   OH216874   2.252   3.399   1.359  0.3087 -0.2843  0.4090
 5623TIP3    H116875   2.338   3.357   1.357  0.0611 -0.7689 -0.8514
 5623TIP3    H216876   2.261   3.476   1.303 -0.3842 -0.9935 -0.7174
 5624TIP3   OH216877   4.504   6.001   3.705 -0.0415 -0.2056 -0.2148
 5624TIP3    H116878   4.549   6.004   3.790  0.0045 -2.8591 -0.0766
 5624TIP3    H216879   4.500   5.908   3.682 -5.2157 -0.2469 -0.3836
 5625TIP3   OH216880   6.008   4.857   3.573  0.0821  0.1684 -0.1376
 5625TIP3    H116881   5.994   4.778   3.624  0.9696  1.1923  1.7916
 5625TIP3    H216882   6.100   4.879   3.587  0.1415  0.9394 -1.5608
 5626TIP3   OH216883   0.363   2.427   2.936  0.7367  0.0878  0.4895
 5626TIP3    H116884   0.411   2.421   2.853 -1.2869 -0.6916 -0.7052
 5626TIP3    H216885   0.301   2.355   2.932 -0.6654  1.1690  1.8561
 5627TIP3   OH216886   4.151   1.794   3.773 -0.0038 -0.1239  0.0017
 5627TIP3    H116887   4.223   1.829   3.720  0.7811  0.2274  1.2833
 5627TIP3    H216888   4.119   1.718   3.723  0.0772  0.7603 -1.4446
 5628TIP3   OH216889   3.872   4.222   4.693 -0.7617  0.8000  0.1275
 5628TIP3    H116890   3.939   4.257   4.752 -1.4677  2.0865  0.2024
 5628TIP3    H216891   3.846   4.139   4.733 -0.8098  1.3643  1.3275
 5629TIP3   OH216892   0.859   3.092   3.318 -0.2656  0.0501  0.3489
 5629TIP3    H116893   0.823   3.022   3.372 -0.8602  0.8830  1.0391
 5629TIP3    H216894   0.834   3.173   3.362 -0.9661  0.7676 -1.2745
 5630TIP3   OH216895   6.190   3.253   1.596 -0.0353 -0.0549 -0.1491
 5630TIP3    H116896   6.227   3.304   1.667 -0.7193 -0.6608  0.6640
 5630TIP3    H216897   6.202   3.307   1.518  0.3219  0.8093  0.4960
 5631TIP3   OH216898   3.786   1.306   2.261 -0.4664 -0.1503  0.1423
 5631TIP3    H116899   3.804   1.361   2.337 -0.0968 -0.6513  0.4296
 5631TIP3    H216900   3.866   1.308   2.209 -0.2768 -0.7806  0.3944
 5632TIP3   OH216901   0.988   3.105   4.185  0.1115  0.0587 -0.3835
 5632TIP3    H116902   0.940   3.057   4.119  0.8187 -0.6277 -0.4161
 5632TIP3    H216903   1.057   3.151   4.137  1.8475 -1.9756  0.0330
 5633TIP3   OH216904   0.489   5.236   0.450 -0.5169 -0.2789 -0.0733
 5633TIP3    H116905   0.394   5.247   0.442 -0.7317 -1.5604  0.4704
 5633TIP3    H216906   0.501   5.142   0.464  0.7516  0.0126  0.9958
 5634TIP3   OH216907   1.584   0.895   3.771 -0.3700 -0.1307  0.4937
 5634TIP3    H116908   1.533   0.959   3.822  1.8573 -0.2799  3.1212
 5634TIP3    H216909   1.567   0.812   3.814 -0.3936 -0.7378 -0.6560
 5635TIP3   OH216910   1.372   3.122   4.220  0.0161  0.3063 -0.0625
 5635TIP3    H116911   1.305   3.170   4.269  0.2439 -0.8463  1.4594
 5635TIP3    H216912   1.433   3.092   4.287  2.0063  1.1608 -1.3806
 5636TIP3   OH216913   1.701   4.910   3.373  0.0962  0.0043 -0.0956
 5636TIP3    H116914   1.676   4.823   3.404 -1.6466 -0.1370 -1.7156
 5636TIP3    H216915   1.790   4.922   3.406 -0.4676 -1.3762  2.1928
 5637TIP3   OH216916   3.073   2.762   3.959  0.5165  0.5167  0.1848
 5637TIP3    H116917   3.092   2.742   4.051 -1.3785 -0.7076  0.3563
 5637TIP3    H216918   3.063   2.858   3.958 -1.3108  0.4260  1.7045
 5638TIP3   OH216919   0.812   4.185   0.768  0.7683  0.0141  0.1289
 5638TIP3    H116920   0.780   4.253   0.827  0.9619 -0.7766  1.1848
 5638TIP3    H216921   0.799   4.221   0.681 -2.3372  0.0380  0.4847
 5639TIP3   OH216922   0.379   5.431   3.124 -0.2256 -0.1542  0.2225
 5639TIP3    H116923   0.459   5.432   3.072  0.0133 -3.1676  0.3430
 5639TIP3    H216924   0.392   5.498   3.190  1.4246  0.6195 -0.8378
 5640TIP3   OH216925   4.960   4.369   4.369  0.3048 -0.1160 -0.4913
 5640TIP3    H116926   5.010   4.288   4.361  0.4151 -0.0387 -0.5829
 5640TIP3    H216927   5.014   4.425   4.425 -1.0279 -1.1152  1.9512
 5641TIP3   OH216928   2.386   0.405   1.276 -0.1587  0.9450 -0.3635
 5641TIP3    H116929   2.438   0.483   1.255  0.6875  0.2056 -1.0766
 5641TIP3    H216930   2.437   0.332   1.242 -2.0284  0.2263 -1.7789
 5642TIP3   OH216931   4.977   0.332   0.749 -0.1236  0.1360  0.5131
 5642TIP3    H116932   4.961   0.359   0.659  0.7619 -0.4245  0.1715
 5642TIP3    H216933   4.896   0.288   0.776 -0.9964  1.7008  0.5537
 5643TIP3   OH216934   0.568   4.247   3.093 -0.6677  0.4833 -0.1335
 5643TIP3    H116935   0.514   4.279   3.165 -0.9072  0.6614 -0.3896
 5643TIP3    H216936   0.506   4.224   3.025 -0.4502  0.1790 -0.2334
 5644TIP3   OH216937   0.188   3.078   4.611  0.7256 -0.4807 -0.3282
 5644TIP3    H116938   0.193   3.042   4.700  0.8042  2.0658  0.8004
 5644TIP3    H216939   0.276   3.067   4.575  0.4889 -2.2526 -0.4343
 5645TIP3   OH216940   5.131   2.486   1.429  0.0220  0.1722 -0.0317
 5645TIP3    H116941   5.186   2.563   1.439 -0.3237  0.4558 -0.3042
 5645TIP3    H216942   5.064   2.495   1.497 -0.4547  0.4930 -0.5357
 5646TIP3   OH216943   1.135   3.556   4.745  0.3293  0.4697 -0.1053
 5646TIP3    H116944   1.179   3.477   4.713  0.0676 -0.7745  2.3294
 5646TIP3    H216945   1.203   3.623   4.746  0.7146  0.1308 -1.6585
 5647TIP3   OH216946   1.183   2.024   3.071  0.2182  0.3381 -0.1762
 5647TIP3    H116947   1.151   2.028   3.162  0.5146 -0.5508 -0.0206
 5647TIP3    H216948   1.221   1.937   3.063  1.9115  1.0660 -0.5870
 5648TIP3   OH216949   0.520   3.643   1.381 -0.4325  0.3336  0.3402
 5648TIP3    H116950   0.425   3.647   1.382 -0.4761 -0.4853  0.2802
 5648TIP3    H216951   0.543   3.591   1.458  0.0507  1.7322  1.1814
 5649TIP3   OH216952   5.619   2.900   0.705 -0.6866 -0.0341  0.7780
 5649TIP3    H116953   5.566   2.979   0.694 -0.8339 -0.1011  1.0029
 5649TIP3    H216954   5.558   2.827   0.693 -0.8983 -0.1163  2.1486
 5650TIP3   OH216955   3.655   5.107   4.573 -0.0319 -0.4818  0.3843
 5650TIP3    H116956   3.700   5.130   4.491  0.9865  0.8305  1.2804
 5650TIP3    H216957   3.720   5.056   4.622 -0.4243 -0.7379  0.6444
 5651TIP3   OH216958   4.309   5.859   3.215  0.0323 -0.1523 -0.3016
 5651TIP3    H116959   4.226   5.812   3.210 -1.0902  1.6052  0.9621
 5651TIP3    H216960   4.320   5.899   3.128 -1.4584  1.2055  0.1008
 5652TIP3   OH216961   5.585   5.762   4.640  0.5810  0.2355  0.2837
 5652TIP3    H116962   5.496   5.759   4.675  1.0066 -0.4408  1.3380
 5652TIP3    H216963   5.612   5.853   4.652  0.6884  0.0426  1.6876
 5653TIP3   OH216964   5.782   1.319   0.293 -0.0992 -0.4889 -0.2892
 5653TIP3    H116965   5.776   1.382   0.365 -0.1855 -0.3517 -0.4142
 5653TIP3    H216966   5.769   1.234   0.334 -1.5086 -0.3233 -0.3133
 5654TIP3   OH216967   6.338   1.621   1.957 -0.2013 -0.6434 -0.0502
 5654TIP3    H116968   6.320   1.633   2.050  2.1096  1.9142  0.1904
 5654TIP3    H216969   6.387   1.699   1.931  0.1327 -1.7282 -3.2040
 5655TIP3   OH216970   4.527   2.807   1.106  0.1445 -0.2239  0.2139
 5655TIP3    H116971   4.541   2.725   1.058  3.1279 -0.0989  0.6522
 5655TIP3    H216972   4.489   2.780   1.189  0.9003 -1.1779  0.2722
 5656TIP3   OH216973   1.287   0.194   0.072 -0.0346  0.5798 -0.3910
 5656TIP3    H116974   1.293   0.210   0.167  0.0378 -0.5917 -0.1846
 5656TIP3    H216975   1.322   0.106   0.060 -0.3215  0.6004 -1.4768
 5657TIP3   OH216976   4.034   1.809   1.525  0.6808  0.7891 -0.0476
 5657TIP3    H116977   4.039   1.741   1.458  2.1460  1.0244 -0.1934
 5657TIP3    H216978   3.940   1.827   1.532  0.4311  0.2814 -1.5459
 5658TIP3   OH216979   1.540   5.324   4.525  0.3529  0.1086  0.5486
 5658TIP3    H116980   1.463   5.380   4.520 -0.3982 -0.9493 -0.1935
 5658TIP3    H216981   1.537   5.288   4.614 -0.7507 -0.9096  0.1302
 5659TIP3   OH216982   3.366   3.838   0.768  0.7898  0.5591 -0.0281
 5659TIP3    H116983   3.324   3.907   0.820  0.3957  0.7188 -0.5517
 5659TIP3    H216984   3.454   3.831   0.805 -0.4037 -1.5339  2.8027
 5660TIP3   OH216985   5.302   1.315   2.504 -0.2188 -0.7637  0.5816
 5660TIP3    H116986   5.283   1.223   2.488  0.8354 -1.0272  0.7613
 5660TIP3    H216987   5.324   1.350   2.418  0.0416 -0.8504  0.6107
 5661TIP3   OH216988   1.543   0.236   3.042  0.3826 -0.0831 -0.5347
 5661TIP3    H116989   1.625   0.284   3.026  1.1638 -1.9772 -2.9466
 5661TIP3    H216990   1.562   0.147   3.012 -1.9773 -1.0943  0.7491
 5662TIP3   OH216991   1.054   5.878   5.196 -0.0930  0.1213  0.3387
 5662TIP3    H116992   1.101   5.961   5.193  1.2367 -0.5231  1.8410
 5662TIP3    H216993   1.099   5.821   5.134 -1.5309  0.7133 -1.3379
 5663TIP3   OH216994   0.997   3.922   3.810  0.1567 -0.0642 -0.0992
 5663TIP3    H116995   0.926   3.878   3.856 -0.0218 -0.4035 -0.7025
 5663TIP3    H216996   0.969   4.014   3.805 -1.5419 -0.6278 -2.7347
 5664TIP3   OH216997   2.876   3.632   2.643  0.1050  0.0853  0.3233
 5664TIP3    H116998   2.880   3.693   2.717 -0.1557  1.6701 -0.9304
 5664TIP3    H216999   2.962   3.639   2.602  0.0042 -0.2450  0.0527
 5665TIP3   OH217000   1.191   4.143   0.145  0.0680 -0.1978 -0.4392
 5665TIP3    H117001   1.139   4.203   0.198  2.9943  1.9466  0.2089
 5665TIP3    H217002   1.159   4.056   0.169 -2.0669  0.9195  1.0828
 5666TIP3   OH217003   4.817   5.643   4.991  0.1763  0.3584  0.4636
 5666TIP3    H117004   4.882   5.706   4.959  0.7824  0.4103  1.7426
 5666TIP3    H217005   4.736   5.668   4.946  0.7037  1.2180 -0.0486
 5667TIP3   OH217006   0.742   1.746   4.557 -0.1769  0.0374 -0.0512
 5667TIP3    H117007   0.764   1.737   4.650  0.6506  0.4249 -0.2032
 5667TIP3    H217008   0.823   1.722   4.511 -0.7014 -0.5634 -0.6882
 5668TIP3   OH217009   0.512   2.867   4.875 -0.0811 -0.3428  0.2362
 5668TIP3    H117010   0.466   2.951   4.874  0.0776 -0.1296 -3.6863
 5668TIP3    H217011   0.451   2.807   4.918 -3.4738  0.3142 -3.1210
 5669TIP3   OH217012   2.647   5.592   0.699  0.6598  0.2810  0.4384
 5669TIP3    H117013   2.615   5.680   0.677 -2.8823 -0.7802  0.7735
 5669TIP3    H217014   2.660   5.550   0.614 -0.7845  0.1621  0.2495
 5670TIP3   OH217015   0.062   4.068   4.687 -0.0761  0.8609  0.1542
 5670TIP3    H117016  -0.009   4.131   4.698  0.8023  1.7983  0.6281
 5670TIP3    H217017   0.128   4.115   4.636  0.6438  0.3673  0.6196
 5671TIP3   OH217018   0.937   1.260   1.651  0.3768 -0.2670  0.2988
 5671TIP3    H117019   0.884   1.310   1.713  0.7121 -0.6309  0.8974
 5671TIP3    H217020   0.879   1.242   1.578  0.3016  1.1576 -0.0214
 5672TIP3   OH217021   4.468   0.364   4.838  0.9092  0.3397 -0.2096
 5672TIP3    H117022   4.531   0.293   4.847  1.8146  0.9713 -1.2508
 5672TIP3    H217023   4.411   0.337   4.766 -0.1067 -0.2804  0.8029
 5673TIP3   OH217024   3.260   2.928   2.361  0.3287  0.4453  0.2921
 5673TIP3    H117025   3.254   2.851   2.417 -0.6647  1.0887  1.0920
 5673TIP3    H217026   3.200   2.909   2.289  0.8201  0.0681 -0.0276
 5674TIP3   OH217027   1.092   2.959   1.080  0.8185 -0.7996  0.4457
 5674TIP3    H117028   1.047   3.031   1.124  0.7519 -1.0484  0.7910
 5674TIP3    H217029   1.039   2.882   1.099  2.3908 -1.4609  2.5462
 5675TIP3   OH217030   2.012   5.459   3.490  0.5609 -0.4192 -0.4380
 5675TIP3    H117031   2.065   5.401   3.435  0.1242 -1.3579  0.1019
 5675TIP3    H217032   1.986   5.530   3.431  0.0460 -1.4282 -1.4816
 5676TIP3   OH217033   4.439   0.197   2.291  0.3158  0.0087 -0.1784
 5676TIP3    H117034   4.448   0.103   2.273 -1.3289 -0.4115  1.0169
 5676TIP3    H217035   4.455   0.239   2.206  1.0060 -1.3301 -0.7494
 5677TIP3   OH217036   0.140   2.311   4.309 -0.1383  0.5247 -0.2489
 5677TIP3    H117037   0.199   2.382   4.284 -0.4555  0.8351 -0.1311
 5677TIP3    H217038   0.065   2.355   4.350 -0.4344  0.1380 -0.3607
 5678TIP3   OH217039   0.241   1.086   2.890 -0.1461  0.1506  0.0777
 5678TIP3    H117040   0.149   1.108   2.900  0.0622  0.2956  2.0361
 5678TIP3    H217041   0.254   1.010   2.947  0.9691  0.2618 -0.0043
 5679TIP3   OH217042   0.590   5.004   0.746  0.3747 -0.3116  0.8083
 5679TIP3    H117043   0.655   5.055   0.795  0.8388 -0.1300  0.0201
 5679TIP3    H217044   0.637   4.976   0.667 -0.5720  0.0072  0.1203
 5680TIP3   OH217045   2.188   2.234   0.684  0.4640 -0.0713 -0.0167
 5680TIP3    H117046   2.255   2.290   0.645 -1.1253  2.3262  0.4690
 5680TIP3    H217047   2.145   2.290   0.750 -1.3247 -1.8244  0.4034
 5681TIP3   OH217048   2.875   1.804   4.862  0.1766 -0.6771 -0.5745
 5681TIP3    H117049   2.817   1.878   4.878 -0.4640 -1.4248  0.7649
 5681TIP3    H217050   2.959   1.832   4.899 -0.3848 -1.0398  1.0767
 5682TIP3   OH217051   0.494   1.000   1.533  0.1545 -0.0032  0.1259
 5682TIP3    H117052   0.449   0.918   1.551  0.3360 -0.2385 -0.4884
 5682TIP3    H217053   0.450   1.064   1.589  0.5441 -0.6706  1.2251
 5683TIP3   OH217054   5.329   2.069   0.741 -0.2101 -0.6923  0.2074
 5683TIP3    H117055   5.377   2.148   0.766  0.2623 -0.1707 -2.1173
 5683TIP3    H217056   5.248   2.073   0.792  0.3320  0.6454  1.0233
 5684TIP3   OH217057   3.990   5.837   0.079 -0.1871 -0.4609  0.0269
 5684TIP3    H117058   4.071   5.872   0.117 -0.1802  0.3143 -0.6655
 5684TIP3    H217059   4.009   5.828  -0.014 -0.0486 -2.8070  0.2219
 5685TIP3   OH217060   2.682   2.956   0.830 -0.2811 -0.4240 -0.5779
 5685TIP3    H117061   2.594   2.989   0.811  0.0673  0.5224 -0.5991
 5685TIP3    H217062   2.727   3.029   0.871  1.2361 -0.0694 -2.6728
 5686TIP3   OH217063   2.382   2.517   0.999  0.3225 -0.4962 -0.3963
 5686TIP3    H117064   2.455   2.517   0.937  0.7005 -2.6967 -0.0271
 5686TIP3    H217065   2.376   2.427   1.029 -1.1762  0.0868  1.2369
 5687TIP3   OH217066   1.640   2.803   4.135 -0.3982 -0.3371  0.2828
 5687TIP3    H117067   1.723   2.761   4.158  0.0063  0.9842  1.3851
 5687TIP3    H217068   1.665   2.889   4.102 -1.3058 -0.0404  0.3436
 5688TIP3   OH217069   2.327   4.581   2.045 -0.1182 -0.1778 -0.2738
 5688TIP3    H117070   2.291   4.611   1.961  1.3286  2.9153  0.0690
 5688TIP3    H217071   2.402   4.527   2.020  0.9869  1.6253 -1.0612
 5689TIP3   OH217072   2.649   2.082   1.884  0.0564  0.0606 -0.2150
 5689TIP3    H117073   2.558   2.105   1.867 -0.4163  1.6375  3.4898
 5689TIP3    H217074   2.658   2.085   1.979  4.0895  0.3300 -0.3987
 5690TIP3   OH217075   1.999   1.565   1.463  0.4969 -0.3207 -0.5230
 5690TIP3    H117076   2.000   1.660   1.450  2.1733 -0.0007  1.4588
 5690TIP3    H217077   1.939   1.551   1.536 -0.8073 -0.9788 -1.6697
 5691TIP3   OH217078   0.695   4.342   4.787 -0.0716  0.2898 -0.4870
 5691TIP3    H117079   0.605   4.357   4.817 -0.4021 -2.3663  0.1338
 5691TIP3    H217080   0.735   4.291   4.858  1.9256  1.3266 -0.8034
 5692TIP3   OH217081   5.069   4.724   1.336 -0.5284  0.0255 -0.5987
 5692TIP3    H117082   5.079   4.688   1.425  1.1493 -1.9032 -1.4824
 5692TIP3    H217083   4.979   4.755   1.333 -1.2614 -1.6784  1.1624
 5693TIP3   OH217084   5.337   5.794   4.675 -0.2230 -0.4156  0.0746
 5693TIP3    H117085   5.302   5.882   4.660 -0.4306 -0.3766  0.7599
 5693TIP3    H217086   5.289   5.739   4.614  1.5102  0.2785 -2.0113
 5694TIP3   OH217087   3.717   0.626   1.747 -0.1255  0.5433  0.3118
 5694TIP3    H117088   3.628   0.640   1.779 -0.8227 -1.3602 -0.6386
 5694TIP3    H217089   3.729   0.691   1.678 -0.5542  1.1986  0.8456
 5695TIP3   OH217090   1.723   0.087   1.448  0.1796  0.0231 -0.3029
 5695TIP3    H117091   1.742   0.049   1.534 -1.8578 -0.8130 -0.1759
 5695TIP3    H217092   1.801   0.067   1.396  0.7870 -0.8819  0.8928
 5696TIP3   OH217093   3.002   3.844   3.454  0.7452 -0.0066  0.0278
 5696TIP3    H117094   3.062   3.827   3.381  2.1119  1.7101  0.6846
 5696TIP3    H217095   2.947   3.917   3.423 -0.1279 -0.6977 -0.0728
 5697TIP3   OH217096   3.205   1.611   5.003 -0.2961 -0.0180  0.2704
 5697TIP3    H117097   3.273   1.640   5.064 -0.2384 -0.3597  0.3718
 5697TIP3    H217098   3.177   1.691   4.959  1.0631 -0.0221 -0.6815
 5698TIP3   OH217099   4.964   2.458   0.370 -0.0990  0.2731  0.1372
 5698TIP3    H117100   4.998   2.378   0.409 -0.4728 -0.3207 -0.7126
 5698TIP3    H217101   4.991   2.453   0.278 -0.4686  0.9309 -0.0161
 5699TIP3   OH217102   4.545   3.125   2.081  0.8553 -0.3152 -0.0030
 5699TIP3    H117103   4.593   3.152   2.159  0.5965  2.6141 -0.7351
 5699TIP3    H217104   4.603   3.146   2.008  0.2839 -1.0830 -0.7010
 5700TIP3   OH217105   5.911   4.676   5.100 -0.4893 -0.7568  0.2952
 5700TIP3    H117106   5.905   4.729   5.180  0.5430 -0.8500  0.4460
 5700TIP3    H217107   5.838   4.707   5.046 -0.0262  0.6969  0.4604
 5701TIP3   OH217108   5.758   5.654   1.280 -0.2612 -0.1829  0.2081
 5701TIP3    H117109   5.786   5.586   1.218 -1.7977  0.6605 -1.5181
 5701TIP3    H217110   5.828   5.719   1.279  0.1186 -0.5879  0.0474
 5702TIP3   OH217111   5.737   0.850   5.122 -0.0617 -0.2045  0.6152
 5702TIP3    H117112   5.755   0.944   5.125 -0.0515 -0.2166  1.0200
 5702TIP3    H217113   5.683   0.834   5.200  0.5452 -0.6518  0.9509
 5703TIP3   OH217114   3.416   1.044   3.089 -0.2212 -0.0301 -0.1629
 5703TIP3    H117115   3.464   1.021   3.168  0.6659 -0.2888 -0.7622
 5703TIP3    H217116   3.442   1.135   3.071  0.8933 -0.5014 -1.0651
 5704TIP3   OH217117   1.356   5.553   3.990 -0.0859 -0.7173 -0.0373
 5704TIP3    H117118   1.437   5.564   4.040  0.4597 -1.3415 -0.7493
 5704TIP3    H217119   1.334   5.641   3.961 -1.1713 -0.1132  2.3918
 5705TIP3   OH217120   3.533   4.535   4.464  0.3497  0.4933  0.0465
 5705TIP3    H117121   3.588   4.458   4.460 -0.5509 -0.1287 -0.8030
 5705TIP3    H217122   3.594   4.609   4.456  0.9313 -0.1883 -3.3574
 5706TIP3   OH217123   5.992   2.628   1.085  0.1451  0.3122  0.5733
 5706TIP3    H117124   5.996   2.620   1.180  0.8009 -0.3256  0.5007
 5706TIP3    H217125   5.902   2.658   1.067 -0.2384 -0.3557  1.3373
 5707TIP3   OH217126   4.131   0.164   2.819  0.6299 -0.3492  0.4002
 5707TIP3    H117127   4.109   0.253   2.792  0.7156  0.3460  2.4763
 5707TIP3    H217128   4.048   0.116   2.811  0.1604  0.3609  0.9169
 5708TIP3   OH217129   3.532   2.957   2.315 -0.5707  0.4106 -0.6013
 5708TIP3    H117130   3.539   2.965   2.220 -0.9330  0.0457 -0.6630
 5708TIP3    H217131   3.438   2.953   2.332 -0.4957 -0.7090 -0.3369
 5709TIP3   OH217132   2.777   5.026   2.538  0.5438  0.0776  0.1236
 5709TIP3    H117133   2.835   4.950   2.538 -0.5962 -0.8693  1.8182
 5709TIP3    H217134   2.717   5.010   2.465  1.7265  0.5701 -1.0057
 5710TIP3   OH217135   2.815   2.572   3.417 -0.0515 -0.2784  0.2875
 5710TIP3    H117136   2.772   2.649   3.454 -1.4841 -0.8748 -0.0478
 5710TIP3    H217137   2.899   2.604   3.385 -1.7842  1.8780 -2.6276
 5711TIP3   OH217138   0.396   4.069   1.183  0.3533 -0.3299 -0.1927
 5711TIP3    H117139   0.317   4.103   1.140  1.1076  1.8377 -0.0093
 5711TIP3    H217140   0.373   4.070   1.277 -0.0432 -1.5660 -0.2641
 5712TIP3   OH217141   5.051   1.000   2.346  0.0349  0.7871 -0.1640
 5712TIP3    H117142   5.115   1.032   2.409 -0.6286  0.7584  0.5454
 5712TIP3    H217143   5.049   0.905   2.358  0.9086  0.6204 -1.2127
 5713TIP3   OH217144   6.129   4.073   4.032  0.1953  0.2452 -0.2317
 5713TIP3    H117145   6.143   4.034   3.946  2.6891 -1.2287  0.7190
 5713TIP3    H217146   6.074   4.010   4.078  0.9077 -0.2124  0.0128
 5714TIP3   OH217147   5.807   3.901   1.630  0.3237  0.2245  0.5278
 5714TIP3    H117148   5.873   3.966   1.606  0.8561 -0.3525  0.3880
 5714TIP3    H217149   5.800   3.844   1.553 -1.3695  1.0805 -0.0073
 5715TIP3   OH217150   2.354   0.944   4.312  0.0298  0.6012 -0.3434
 5715TIP3    H117151   2.300   1.004   4.365  0.6753 -2.4886  4.5080
 5715TIP3    H217152   2.439   0.987   4.306 -0.4477  1.6334 -0.0462
 5716TIP3   OH217153   2.659   0.430   3.523  0.0538  0.7657  0.7777
 5716TIP3    H117154   2.668   0.471   3.609  1.3996  2.3835 -0.0707
 5716TIP3    H217155   2.633   0.502   3.465  0.4735 -0.0137 -0.4122
 5717TIP3   OH217156   2.396   1.869   3.645 -0.3244  0.1300 -0.0567
 5717TIP3    H117157   2.384   1.830   3.558  0.3821 -0.7634  0.2325
 5717TIP3    H217158   2.395   1.794   3.705  0.6968  0.5845  0.5479
 5718TIP3   OH217159   2.935   3.903   3.147 -0.5311  0.3659  0.2572
 5718TIP3    H117160   2.917   3.815   3.179 -2.7226  0.9974  0.9799
 5718TIP3    H217161   2.919   3.898   3.052 -0.5075 -0.0506  0.2754
 5719TIP3   OH217162   4.378   4.809   1.158  0.3234 -0.2562  0.2767
 5719TIP3    H117163   4.371   4.867   1.234  0.4880  2.5283 -1.6666
 5719TIP3    H217164   4.471   4.807   1.137  0.3162 -1.2369  0.3080
 5720TIP3   OH217165   5.238   2.057   1.068 -0.2894  0.0363 -0.1166
 5720TIP3    H117166   5.163   2.077   1.124  1.0384 -1.6846  2.4966
 5720TIP3    H217167   5.204   1.995   1.003 -1.9302  2.2710 -1.4898
 5721TIP3   OH217168   5.080   0.849   1.188 -0.0653 -0.3581  0.0191
 5721TIP3    H117169   5.153   0.812   1.139  1.4877  0.6429  1.4655
 5721TIP3    H217170   5.070   0.790   1.263  0.6346  0.5884  0.8916
 5722TIP3   OH217171   3.775   2.715   0.474  0.0649 -0.3529  0.4980
 5722TIP3    H117172   3.860   2.693   0.436 -0.0497 -2.6425  1.3775
 5722TIP3    H217173   3.714   2.652   0.434 -0.7934 -0.1490  1.4455
 5723TIP3   OH217174   1.882   2.802   3.903  0.8158  0.0817 -0.4289
 5723TIP3    H117175   1.946   2.846   3.960  0.8209 -0.1695 -0.2352
 5723TIP3    H217176   1.887   2.849   3.820  0.2697  0.9202  0.0090
 5724TIP3   OH217177   6.310   0.918   0.266 -0.2399 -0.0485  0.4595
 5724TIP3    H117178   6.252   0.978   0.218 -1.2201  0.2177  1.8967
 5724TIP3    H217179   6.351   0.973   0.332  0.8768 -0.4568  0.1195
 5725TIP3   OH217180   2.972   2.395   4.732  0.3562 -0.6758  0.5811
 5725TIP3    H117181   2.955   2.307   4.767  1.2758 -0.7188  0.9342
 5725TIP3    H217182   2.978   2.382   4.637 -1.1560 -0.7118  0.4526
 5726TIP3   OH217183   6.081   5.620   1.555 -0.2715 -0.3361 -0.1362
 5726TIP3    H117184   6.069   5.542   1.500  1.6682 -0.8782  0.1135
 5726TIP3    H217185   6.111   5.688   1.493 -2.6937  0.5225 -0.4905
 5727TIP3   OH217186   4.720   3.679   1.153 -0.1090 -0.2762  0.4442
 5727TIP3    H117187   4.683   3.727   1.078 -1.7402 -1.1796  0.6249
 5727TIP3    H217188   4.814   3.687   1.142 -0.3249  0.5598 -1.0978
 5728TIP3   OH217189   4.738   5.293   3.885 -0.2754  0.2569  0.2512
 5728TIP3    H117190   4.736   5.386   3.909 -1.2785 -0.0140  1.3056
 5728TIP3    H217191   4.822   5.262   3.921 -0.1941  0.6286  0.3954
 5729TIP3   OH217192   0.358   0.220   0.554  0.3214 -0.3374  0.3015
 5729TIP3    H117193   0.269   0.237   0.521 -0.3472 -1.2765  1.5454
 5729TIP3    H217194   0.366   0.276   0.630  0.3341 -1.1260  0.8920
 5730TIP3   OH217195   0.529   3.078   3.039  0.3611 -0.4166  0.1917
 5730TIP3    H117196   0.625   3.084   3.031  0.2919 -0.4547 -0.8691
 5730TIP3    H217197   0.498   3.073   2.948 -0.6738 -0.0486  0.5072
 5731TIP3   OH217198   5.860   1.009   1.358  0.0110 -0.3559  0.7607
 5731TIP3    H117199   5.895   1.037   1.442  0.6421  2.4401 -0.3003
 5731TIP3    H217200   5.930   1.026   1.295 -1.1167 -0.4645 -0.6034
 5732TIP3   OH217201   3.732   1.012   3.834 -1.0471  0.2377  0.2115
 5732TIP3    H117202   3.716   1.105   3.848 -1.7114  0.0273  0.9224
 5732TIP3    H217203   3.755   1.005   3.741  0.2074  1.2623  0.4119
 5733TIP3   OH217204   3.573   5.357   4.768 -0.0608 -0.1520 -0.3492
 5733TIP3    H117205   3.598   5.353   4.675 -0.0999  3.2341 -0.6239
 5733TIP3    H217206   3.477   5.358   4.767 -0.0774  1.7360 -0.4911
 5734TIP3   OH217207   5.132   4.693   3.852  0.8991  0.1182  0.1926
 5734TIP3    H117208   5.143   4.632   3.925  1.3649 -0.1782 -0.1153
 5734TIP3    H217209   5.128   4.636   3.775  0.6838  0.4442 -0.0405
 5735TIP3   OH217210   3.919   3.612   3.775 -0.2935 -0.0935  0.1510
 5735TIP3    H117211   3.840   3.634   3.725  0.7276  0.7302 -1.1779
 5735TIP3    H217212   3.965   3.696   3.785  1.0069 -0.7347 -0.2135
 5736TIP3   OH217213   1.076   5.833   2.319  0.3368 -0.0468 -0.1515
 5736TIP3    H117214   1.136   5.777   2.367  0.8759  0.4312 -0.2543
 5736TIP3    H217215   1.130   5.907   2.290 -0.2338  0.2426 -0.4985
 5737TIP3   OH217216   2.800   5.955   2.832 -0.2930  0.4430 -0.5620
 5737TIP3    H117217   2.731   5.889   2.836  0.4347 -0.5705 -2.9713
 5737TIP3    H217218   2.775   6.020   2.898 -1.2219 -2.0014  1.6869
 5738TIP3   OH217219   5.604   4.142   0.783  0.0485 -0.0110  0.7301
 5738TIP3    H117220   5.551   4.094   0.719 -0.4364  0.8975  0.4366
 5738TIP3    H217221   5.694   4.131   0.752 -0.0223 -0.9148  0.7998
 5739TIP3   OH217222   2.129   1.974   0.089  0.0753  0.5505 -0.1351
 5739TIP3    H117223   2.115   2.030   0.165  0.9243  0.7659 -0.1308
 5739TIP3    H217224   2.041   1.956   0.056 -0.2135  1.8794 -0.1297
 5740TIP3   OH217225   0.448   5.322   0.935 -0.0948 -0.2817  0.0842
 5740TIP3    H117226   0.451   5.416   0.954 -0.7837 -0.2089 -0.1613
 5740TIP3    H217227   0.510   5.311   0.863  0.6715 -0.1682  0.7121
 5741TIP3   OH217228   0.881   1.705   1.209  0.8750 -0.2320  0.1455
 5741TIP3    H117229   0.913   1.795   1.220 -0.6657  0.4400 -0.5631
 5741TIP3    H217230   0.956   1.656   1.176  2.4359  0.2063  2.7727
 5742TIP3   OH217231   6.127   1.562   2.538  0.7367 -0.1028  0.1090
 5742TIP3    H117232   6.084   1.478   2.554 -0.8754  0.8570  1.0803
 5742TIP3    H217233   6.067   1.609   2.479  0.9594  0.8612  0.6382
 5743TIP3   OH217234   2.967   2.716   0.522 -0.2017 -0.3451  0.0733
 5743TIP3    H117235   3.003   2.802   0.503 -1.7384  0.3303  0.0737
 5743TIP3    H217236   2.990   2.700   0.614  0.0179  0.1084  0.0981
 5744TIP3   OH217237   5.446   0.422   4.018 -0.1042 -0.0766 -0.1402
 5744TIP3    H117238   5.360   0.382   4.021  0.3029 -1.3982 -3.1332
 5744TIP3    H217239   5.504   0.357   4.057 -0.4667  1.2398  2.8707
 5745TIP3   OH217240   2.073   3.218   0.782  0.1120 -0.4473  0.0646
 5745TIP3    H117241   2.070   3.172   0.866 -1.8593  0.8210  0.7704
 5745TIP3    H217242   2.065   3.150   0.716 -0.5328 -1.2871  0.9863
 5746TIP3   OH217243   4.678   5.398   2.841  0.1114 -0.2248 -0.4655
 5746TIP3    H117244   4.678   5.467   2.908  0.2160 -1.0592  0.4134
 5746TIP3    H217245   4.592   5.405   2.800 -0.4562 -0.5094  0.6273
 5747TIP3   OH217246   5.712   5.173   1.271 -0.4382 -0.6890 -0.1699
 5747TIP3    H117247   5.661   5.103   1.312 -0.6051 -0.8721 -0.6784
 5747TIP3    H217248   5.711   5.152   1.178 -0.4102 -0.0624 -0.3186
 5748TIP3   OH217249   0.493   2.411   5.081 -0.8855 -0.0971 -0.0032
 5748TIP3    H117250   0.524   2.492   5.120 -0.4847  0.4888 -1.4701
 5748TIP3    H217251   0.500   2.346   5.151 -0.0333  0.8620  0.8286
 5749TIP3   OH217252   5.959   4.014   2.794  0.1150  0.4464  0.4985
 5749TIP3    H117253   6.025   3.966   2.845  1.4416 -0.1156 -1.6144
 5749TIP3    H217254   6.005   4.092   2.762 -0.5232  0.5395 -0.2132
 5750TIP3   OH217255   5.455   4.442   3.402 -0.5869 -0.4857  0.1454
 5750TIP3    H117256   5.394   4.389   3.350 -1.7779 -0.2334  1.2399
 5750TIP3    H217257   5.458   4.398   3.487  0.5740 -0.3366  0.1984
 5751TIP3   OH217258   6.298   0.542   0.055 -0.1726  0.0027 -0.1831
 5751TIP3    H117259   6.366   0.485   0.019 -1.0086 -0.8968 -0.3785
 5751TIP3    H217260   6.249   0.573  -0.022 -0.2573  0.2974 -0.0131
 5752TIP3   OH217261   3.951   0.524   3.547 -0.1643  0.3817 -0.1549
 5752TIP3    H117262   3.957   0.615   3.573 -2.6435  0.3239  0.8600
 5752TIP3    H217263   3.926   0.526   3.455  0.3736  0.6981 -0.2962
 5753TIP3   OH217264   2.596   4.526   3.691 -0.4211  0.1426 -0.5911
 5753TIP3    H117265   2.649   4.464   3.742 -2.5671  0.1026  1.7696
 5753TIP3    H217266   2.509   4.485   3.687 -0.7288  0.8473 -3.1493
 5754TIP3   OH217267   0.313   1.669   2.839 -0.5955 -0.0731 -0.6527
 5754TIP3    H117268   0.347   1.580   2.833 -1.1163 -0.4137  0.8643
 5754TIP3    H217269   0.391   1.723   2.854 -0.4281 -0.5184  0.1855
 5755TIP3   OH217270   3.137   5.388   4.482  0.4263 -0.1280  0.0569
 5755TIP3    H117271   3.137   5.388   4.386 -1.8551 -1.3443  0.0009
 5755TIP3    H217272   3.064   5.332   4.506  0.2622  1.0241  2.5248
 5756TIP3   OH217273   5.825   3.543   5.141  0.2180  1.1019  0.0448
 5756TIP3    H117274   5.808   3.474   5.205  1.3006  0.3608 -0.4227
 5756TIP3    H217275   5.739   3.570   5.110 -0.2177 -0.4820 -0.2040
 5757TIP3   OH217276   4.305   0.346   3.029 -0.1111  0.2364 -0.1535
 5757TIP3    H117277   4.343   0.385   2.951 -0.7498 -0.8806 -1.0486
 5757TIP3    H217278   4.282   0.257   3.003 -0.0280 -0.2770  1.4026
 5758TIP3   OH217279   1.376   0.686   4.260 -0.1430 -0.0594 -0.5476
 5758TIP3    H117280   1.288   0.720   4.244 -0.9406 -1.1152  1.2469
 5758TIP3    H217281   1.362   0.601   4.302  1.7201 -0.0096  0.3148
 5759TIP3   OH217282   6.293   4.222   1.498 -0.4259  0.0045 -0.4011
 5759TIP3    H117283   6.307   4.158   1.568  0.2778  0.1331 -0.4131
 5759TIP3    H217284   6.210   4.264   1.520 -0.3178 -0.1049  0.2429
 5760TIP3   OH217285   5.225   3.865   0.737  0.1909  0.0089  0.6595
 5760TIP3    H117286   5.303   3.914   0.710 -0.2089  0.7402  0.8122
 5760TIP3    H217287   5.154   3.903   0.686 -0.2207 -0.0075  1.2159
 5761TIP3   OH217288   1.690   4.631   5.186 -0.3347 -0.7164 -0.0295
 5761TIP3    H117289   1.713   4.540   5.204  1.6024 -0.5599 -1.3743
 5761TIP3    H217290   1.678   4.633   5.091 -1.4529  0.2302  0.1138
 5762TIP3   OH217291   5.771   5.196   2.631  0.4413  0.4129  0.5370
 5762TIP3    H117292   5.802   5.201   2.541  0.4097  0.3154  0.5205
 5762TIP3    H217293   5.692   5.142   2.626  0.4194  0.4370  0.6177
 5763TIP3   OH217294   4.673   5.931   3.942 -0.2061 -0.5615 -0.1720
 5763TIP3    H117295   4.679   5.882   3.860  0.9305 -1.4279  0.4080
 5763TIP3    H217296   4.688   5.865   4.010  0.1531  0.3870  0.6821
 5764TIP3   OH217297   6.256   4.184   1.858 -0.6091  0.6460  0.1886
 5764TIP3    H117298   6.254   4.092   1.884 -1.6984  1.1096  1.8802
 5764TIP3    H217299   6.169   4.202   1.824 -0.2122  0.9197 -0.7231
 5765TIP3   OH217300   5.299   1.790   0.717  0.4471  0.2436 -0.0806
 5765TIP3    H117301   5.214   1.794   0.761  0.9049 -0.5221  0.9119
 5765TIP3    H217302   5.342   1.872   0.741  1.2911 -0.7943  2.2331
 5766TIP3   OH217303   1.919   5.516   4.276 -0.3534  0.1938 -0.0902
 5766TIP3    H117304   1.846   5.476   4.322  0.5275 -1.6870 -0.2307
 5766TIP3    H217305   1.908   5.610   4.290 -2.3668 -0.0844  0.4899
 5767TIP3   OH217306   2.930   1.183   1.140  0.5329 -0.0321 -0.2176
 5767TIP3    H117307   2.964   1.129   1.070  1.2585  0.4743 -0.2680
 5767TIP3    H217308   2.854   1.135   1.173  0.6390 -0.6388 -0.8380
 5768TIP3   OH217309   3.196   4.026   2.969 -0.5050  0.5717  0.2133
 5768TIP3    H117310   3.112   4.060   2.937 -2.3462 -1.5304  2.4427
 5768TIP3    H217311   3.182   3.932   2.977  1.7565  0.2901  1.6465
 5769TIP3   OH217312   3.134   5.357   3.093  0.0626 -0.0167 -0.0672
 5769TIP3    H117313   3.070   5.424   3.069  0.1727  0.0597 -0.1506
 5769TIP3    H217314   3.128   5.291   3.024 -0.0041 -0.0635 -0.0165
 5770TIP3   OH217315   5.536   1.529   4.492  0.0630 -0.0269 -0.2066
 5770TIP3    H117316   5.574   1.605   4.447  0.0274 -1.6343 -3.2263
 5770TIP3    H217317   5.455   1.562   4.529  0.0500  1.4485 -1.4227
 5771TIP3   OH217318   3.548   0.060   4.401  0.8181  0.3569  0.6718
 5771TIP3    H117319   3.593  -0.009   4.352 -1.1717 -0.0675 -0.6883
 5771TIP3    H217320   3.576   0.142   4.361 -0.3068  0.0438 -0.8118
 5772TIP3   OH217321   2.189   4.027   1.735  0.0922  0.3297 -0.2496
 5772TIP3    H117322   2.237   4.105   1.709  0.2703  0.5763  0.7773
 5772TIP3    H217323   2.114   4.023   1.676  0.4332  0.9109 -0.7267
 5773TIP3   OH217324   3.730   0.030   1.413 -0.3353  0.5306  0.5097
 5773TIP3    H117325   3.640  -0.005   1.417  0.1649 -0.9969 -0.4507
 5773TIP3    H217326   3.775  -0.013   1.485 -0.0545  0.2600  0.1758
 5774TIP3   OH217327   4.055   0.759   0.205 -0.2272 -0.2733  0.1401
 5774TIP3    H117328   3.975   0.793   0.165  0.9155  1.5196 -0.7071
 5774TIP3    H217329   4.107   0.836   0.227  1.3398 -1.3924  0.5727
 5775TIP3   OH217330   4.179   1.735   0.966  0.5496  0.2306  0.1722
 5775TIP3    H117331   4.096   1.782   0.973  1.4497  1.8821  0.5347
 5775TIP3    H217332   4.218   1.744   1.053  0.3951 -1.9940  0.5189
 5776TIP3   OH217333   5.250   0.240   4.772 -0.2831 -0.4035  0.1859
 5776TIP3    H117334   5.285   0.151   4.781 -0.4901 -0.5122 -0.0729
 5776TIP3    H217335   5.265   0.263   4.680 -0.9948 -0.5000  0.0391
 5777TIP3   OH217336   4.783   5.034   0.307 -0.3904 -0.6632  0.2179
 5777TIP3    H117337   4.877   5.054   0.307 -0.4865 -0.1570 -0.6470
 5777TIP3    H217338   4.744   5.104   0.360 -0.3601 -0.4359 -0.0571
 5778TIP3   OH217339   0.393   3.412   2.656 -0.1072 -0.1589 -0.4110
 5778TIP3    H117340   0.348   3.328   2.665  0.3850 -0.3563  0.3024
 5778TIP3    H217341   0.344   3.471   2.714 -1.2947  0.4199 -1.9435
 5779TIP3   OH217342   1.972   4.557   1.886  0.4881 -0.4585 -0.0140
 5779TIP3    H117343   1.888   4.595   1.861  0.9501  0.4038 -0.2869
 5779TIP3    H217344   2.016   4.626   1.935  2.0516  0.0167 -1.9734
 5780TIP3   OH217345   2.040   4.767   1.683 -0.3785  0.1079  0.6275
 5780TIP3    H117346   2.034   4.721   1.599 -0.0302  0.8530  0.1846
 5780TIP3    H217347   1.968   4.829   1.681 -1.5688 -1.1872  1.7246
 5781TIP3   OH217348   1.463   5.098   4.361  0.0157  0.4831  0.0145
 5781TIP3    H117349   1.509   5.163   4.307  2.2569 -2.2945 -1.7625
 5781TIP3    H217350   1.509   5.100   4.445  1.7521 -0.4042 -0.8572
 5782TIP3   OH217351   3.909   1.955   2.806  0.0739 -0.4481 -0.3020
 5782TIP3    H117352   3.841   2.017   2.831  0.9084  0.6841 -0.7513
 5782TIP3    H217353   3.867   1.897   2.742 -0.2463  0.7346 -1.1851
 5783TIP3   OH217354   4.688   2.508   3.432  0.1834  0.0406  0.2587
 5783TIP3    H117355   4.718   2.488   3.521 -2.2470 -1.2229  0.8836
 5783TIP3    H217356   4.647   2.427   3.402 -2.1853  1.4695 -0.6111
 5784TIP3   OH217357   3.302   5.394   1.893  0.0672 -0.0611  0.3853
 5784TIP3    H117358   3.361   5.353   1.830 -0.8494  0.2836 -0.7461
 5784TIP3    H217359   3.261   5.466   1.844  0.2527  1.0236  1.7614
 5785TIP3   OH217360   1.667   3.044   3.200 -0.5688  0.0017 -0.0125
 5785TIP3    H117361   1.579   3.063   3.232 -0.4216 -0.0227  0.4103
 5785TIP3    H217362   1.655   3.027   3.107 -0.9708  0.2935 -0.0182
 5786TIP3   OH217363   3.174   3.821   2.712 -0.0546  0.3593 -0.5583
 5786TIP3    H117364   3.264   3.825   2.745 -0.3716  0.2014  0.3450
 5786TIP3    H217365   3.119   3.834   2.790 -0.8923 -2.7362 -0.4983
 5787TIP3   OH217366   0.735   2.511   0.214  0.8743 -0.3412 -0.3882
 5787TIP3    H117367   0.738   2.528   0.308  1.9974 -1.5625 -0.1707
 5787TIP3    H217368   0.733   2.597   0.173 -0.3860  0.2012  0.7629
 5788TIP3   OH217369   4.069   3.498   4.314  0.1216 -0.1855 -0.0812
 5788TIP3    H117370   4.154   3.472   4.350 -0.1245 -1.7361 -0.5393
 5788TIP3    H217371   4.022   3.416   4.304 -1.6396  0.6841  0.6319
 5789TIP3   OH217372   6.211   0.635   2.723  0.1764  0.2223  0.5670
 5789TIP3    H117373   6.183   0.712   2.674  1.7793  1.1217  0.9845
 5789TIP3    H217374   6.156   0.633   2.801 -0.8630  0.0786 -0.1583
 5790TIP3   OH217375   2.724   4.225   2.907  0.5304 -0.4618  0.3114
 5790TIP3    H117376   2.762   4.293   2.962  3.0113 -2.1956  0.9058
 5790TIP3    H217377   2.646   4.196   2.955  0.7555  0.3759  1.1981
 5791TIP3   OH217378   2.216   2.638   2.837 -0.2281  0.4303 -0.2502
 5791TIP3    H117379   2.180   2.598   2.917 -0.6399  0.5419 -0.3737
 5791TIP3    H217380   2.259   2.718   2.868  0.4845 -0.0357 -0.0201
 5792TIP3   OH217381   4.335   1.885   0.395 -0.0600 -0.3912 -0.2691
 5792TIP3    H117382   4.306   1.972   0.369  1.8801  0.1204 -0.9334
 5792TIP3    H217383   4.359   1.842   0.312  0.2470 -1.0535  0.1535
 5793TIP3   OH217384   5.073   4.477   3.998  0.1116 -0.0580 -0.0209
 5793TIP3    H117385   5.021   4.502   4.074  1.2490 -0.7608  1.0345
 5793TIP3    H217386   5.140   4.418   4.033  1.6882  0.8821 -1.2773
 5794TIP3   OH217387   4.058   2.599   1.712 -0.1042 -0.4591  0.3154
 5794TIP3    H117388   4.014   2.640   1.787  2.9019  0.4436  1.7248
 5794TIP3    H217389   4.118   2.667   1.680 -0.2467 -1.3491 -2.0251
 5795TIP3   OH217390   0.809   1.454   4.609  0.1497 -0.2152 -0.4790
 5795TIP3    H117391   0.843   1.482   4.524 -0.7709 -0.0092 -0.7849
 5795TIP3    H217392   0.715   1.466   4.602  0.1969  1.5466  1.2111
 5796TIP3   OH217393   0.256   3.021   1.753 -0.3476  0.3557  0.1729
 5796TIP3    H117394   0.251   3.059   1.841 -0.8680  0.2514  0.1918
 5796TIP3    H217395   0.336   2.968   1.755  1.1010  2.4198 -0.2634
 5797TIP3   OH217396   4.350   3.803   0.300  0.4226 -0.1611  0.5417
 5797TIP3    H117397   4.293   3.828   0.227 -2.1118 -1.4194  1.9675
 5797TIP3    H217398   4.433   3.781   0.258 -0.1025  1.5906 -1.6669
 5798TIP3   OH217399   0.939   3.113   4.664 -0.3505 -0.4159 -0.6461
 5798TIP3    H117400   1.007   3.056   4.698  2.0359  2.2402 -0.5536
 5798TIP3    H217401   0.940   3.098   4.569  0.9708  0.1017 -0.7424
 5799TIP3   OH217402   2.877   3.666   1.695 -0.2057 -0.1461 -0.0203
 5799TIP3    H117403   2.802   3.628   1.651  0.4039 -0.2125 -1.0272
 5799TIP3    H217404   2.952   3.639   1.642  0.3263  1.7895 -0.3292
 5800TIP3   OH217405   1.825   0.988   0.304  0.2390  0.6753  0.1389
 5800TIP3    H117406   1.878   0.973   0.383 -1.6279 -0.2643  1.2631
 5800TIP3    H217407   1.765   1.058   0.329  0.8040  1.6173 -1.0686
 5801TIP3   OH217408   3.738   0.288   2.597  0.0397  0.4313 -0.0948
 5801TIP3    H117409   3.714   0.197   2.581 -3.1827  1.0681  0.4202
 5801TIP3    H217410   3.680   0.339   2.541 -0.7274  2.2315  2.1609
 5802TIP3   OH217411   5.267   0.693   1.016  0.0458  0.1316 -0.0265
 5802TIP3    H117412   5.236   0.713   0.927  1.9369 -1.0286 -1.0215
 5802TIP3    H217413   5.258   0.598   1.024 -4.0696  0.5143  2.7135
 5803TIP3   OH217414   1.861   0.778   2.772  0.4845  0.1630  0.1122
 5803TIP3    H117415   1.934   0.778   2.710 -0.9777 -1.5175 -1.7341
 5803TIP3    H217416   1.871   0.697   2.821 -0.3479 -0.2630 -0.4156
 5804TIP3   OH217417   5.178   1.322   3.058 -0.7711 -0.1041  0.1842
 5804TIP3    H117418   5.104   1.265   3.080 -1.7774  0.8976 -0.5055
 5804TIP3    H217419   5.196   1.369   3.139 -2.6751  1.5786 -0.2720
 5805TIP3   OH217420   3.168   5.416   4.060 -0.1557  0.2921 -0.2484
 5805TIP3    H117421   3.142   5.331   4.023 -1.0330  1.2038 -1.7944
 5805TIP3    H217422   3.253   5.398   4.102  0.6704 -0.9505 -2.2753
 5806TIP3   OH217423   1.169   5.099   1.723  0.4311  0.4804  0.0074
 5806TIP3    H117424   1.229   5.061   1.659 -0.7883 -2.0264  0.1954
 5806TIP3    H217425   1.082   5.089   1.684 -0.1248  1.2616  0.9858
 5807TIP3   OH217426   3.034   1.972   2.613 -0.5075  0.1227 -0.3242
 5807TIP3    H117427   2.988   1.948   2.693 -0.3403 -0.4922 -0.4100
 5807TIP3    H217428   2.989   2.050   2.581 -0.2543  0.6784  0.6478
 5808TIP3   OH217429   0.254   1.830   1.584  0.0682 -0.1307  0.2852
 5808TIP3    H117430   0.256   1.838   1.680  1.2980 -1.3578  0.3961
 5808TIP3    H217431   0.222   1.741   1.569  0.3971 -0.1310 -0.4256
 5809TIP3   OH217432   4.901   4.578   4.210 -0.1308  0.0625 -0.2426
 5809TIP3    H117433   4.817   4.591   4.253 -0.1012 -0.4852 -0.0175
 5809TIP3    H217434   4.942   4.505   4.257  0.6827  0.6434 -0.0373
 5810TIP3   OH217435   4.220   2.419   1.533 -0.4356  0.5787  0.3747
 5810TIP3    H117436   4.157   2.349   1.513  0.1443 -0.1103  0.8908
 5810TIP3    H217437   4.182   2.464   1.609 -1.2877  1.4542 -0.5515
 5811TIP3   OH217438   5.120   5.704   0.095 -0.0378 -0.1052  0.1041
 5811TIP3    H117439   5.069   5.756   0.157  0.0802 -0.1051  0.2015
 5811TIP3    H217440   5.054   5.657   0.044 -0.1949  0.9825 -0.7341
 5812TIP3   OH217441   5.502   2.924   1.355  0.1815  0.5494  0.2959
 5812TIP3    H117442   5.417   2.957   1.385 -0.1772  0.1039 -0.2100
 5812TIP3    H217443   5.551   3.003   1.331 -0.0525  0.8161  0.6878
 5813TIP3   OH217444   1.851   0.256   0.802  0.2583  0.5022  0.7435
 5813TIP3    H117445   1.844   0.201   0.880  0.2802 -1.1520 -0.3742
 5813TIP3    H217446   1.944   0.277   0.795  0.4891 -0.5797  0.3738
 5814TIP3   OH217447   2.363   4.737   4.974 -0.8928 -0.2920  0.1733
 5814TIP3    H117448   2.433   4.703   5.030 -1.0703  0.6785  1.0334
 5814TIP3    H217449   2.289   4.749   5.034 -0.4156  2.9146  0.3121
 5815TIP3   OH217450   4.673   5.402   4.868 -0.2708  0.4805  0.2736
 5815TIP3    H117451   4.585   5.417   4.902 -0.3806  1.2851 -0.3384
 5815TIP3    H217452   4.732   5.433   4.938 -0.4929  1.9371 -0.1552
 5816TIP3   OH217453   5.645   0.089   3.858  0.6347 -0.3202 -0.0877
 5816TIP3    H117454   5.573   0.038   3.896  0.3595 -0.4425 -0.7437
 5816TIP3    H217455   5.601   0.151   3.799  1.0268  0.0614  0.0166
 5817TIP3   OH217456   3.654   3.467   3.200  0.4904 -0.0923 -0.0925
 5817TIP3    H117457   3.679   3.378   3.175  3.1919  0.7119 -0.6803
 5817TIP3    H217458   3.652   3.516   3.118  1.2924  0.8405  0.4123
 5818TIP3   OH217459   2.177   5.860   3.235  0.1606 -0.4426 -0.4775
 5818TIP3    H117460   2.121   5.792   3.274 -2.1171  0.5138 -1.8631
 5818TIP3    H217461   2.220   5.901   3.310  0.0827 -2.0955  0.5438
 5819TIP3   OH217462   6.177   5.963   1.921 -0.2048 -0.1880 -0.4563
 5819TIP3    H117463   6.115   6.015   1.973  0.7634  0.1504  0.4059
 5819TIP3    H217464   6.194   5.885   1.975  1.5161  0.6016  0.2177
 5820TIP3   OH217465   3.700   4.117   3.822  0.4942  0.7103 -0.0314
 5820TIP3    H117466   3.702   4.033   3.868  1.6416  0.7198 -0.0403
 5820TIP3    H217467   3.641   4.102   3.748  2.7618 -0.9802 -1.6384
 5821TIP3   OH217468   0.091   2.395   0.402  0.2818  0.0740  0.7277
 5821TIP3    H117469   0.023   2.344   0.446  0.3065  0.1832  0.8936
 5821TIP3    H217470   0.173   2.366   0.442  0.4066 -0.5509  0.0592
 5822TIP3   OH217471   3.214   4.808   4.456  0.3467  0.1458  0.3400
 5822TIP3    H117472   3.125   4.775   4.445 -0.7732  2.5620  1.2635
 5822TIP3    H217473   3.204   4.882   4.517  2.1097  3.7637 -3.2559
 5823TIP3   OH217474   5.535   2.307   3.255  0.7096 -0.2125  0.1249
 5823TIP3    H117475   5.516   2.277   3.344  0.0688 -0.0895  0.0313
 5823TIP3    H217476   5.511   2.233   3.199 -3.4702  1.2531 -0.3612
 5824TIP3   OH217477   5.548   3.247   4.461  0.4166 -0.4762  0.4537
 5824TIP3    H117478   5.545   3.155   4.487 -1.1738 -0.9381 -1.1546
 5824TIP3    H217479   5.473   3.286   4.505 -0.3333 -0.5255 -0.7321
 5825TIP3   OH217480   5.408   4.983   0.948  0.3585  0.5207  0.1274
 5825TIP3    H117481   5.330   4.941   0.985  0.4678 -1.2371 -1.4859
 5825TIP3    H217482   5.479   4.959   1.007 -0.0226  0.6031  0.6233
 5826TIP3   OH217483   4.526   0.159   0.327  0.3855 -0.1565 -0.2147
 5826TIP3    H117484   4.480   0.189   0.249  1.4029  2.0118 -0.0387
 5826TIP3    H217485   4.554   0.239   0.371  0.9821 -1.3495  1.6991
 5827TIP3   OH217486   2.688   4.761   3.647  0.0563  0.4828 -0.0958
 5827TIP3    H117487   2.662   4.673   3.622 -1.4724  1.0943 -0.8504
 5827TIP3    H217488   2.686   4.761   3.743 -1.4749  0.0734 -0.0921
 5828TIP3   OH217489   5.405   0.877   3.559  0.0852 -0.3795  0.2707
 5828TIP3    H117490   5.459   0.806   3.524  1.7002  0.9753 -0.1301
 5828TIP3    H217491   5.334   0.887   3.496 -0.8482 -2.3603  0.9273
 5829TIP3   OH217492   1.356   1.247   0.526 -0.4911 -0.5686 -0.2340
 5829TIP3    H117493   1.432   1.238   0.584  0.9604  0.9505 -1.7749
 5829TIP3    H217494   1.290   1.291   0.580  0.7578  0.6729  0.3487
 5830TIP3   OH217495   0.820   4.061   1.925  0.5667 -0.1910 -0.8101
 5830TIP3    H117496   0.838   4.120   1.852 -0.1126  0.6067 -0.3622
 5830TIP3    H217497   0.891   4.076   1.987  0.1765  0.4769 -0.5156
 5831TIP3   OH217498   2.390   0.082   2.503  0.0500 -0.2398  0.0111
 5831TIP3    H117499   2.342   0.136   2.440 -1.8152  0.2642  1.7361
 5831TIP3    H217500   2.409   0.001   2.455  0.3186  0.7923 -1.7230
 5832TIP3   OH217501   1.042   5.837   1.856 -0.6665 -0.0626 -0.0458
 5832TIP3    H117502   1.004   5.896   1.790 -2.7248  0.2898  1.3621
 5832TIP3    H217503   1.124   5.879   1.881 -0.4202  0.3957 -1.5096
 5833TIP3   OH217504   0.505   0.039   1.045  0.3851 -0.6321 -0.3789
 5833TIP3    H117505   0.427   0.070   1.092  0.7633 -0.5489  0.2154
 5833TIP3    H217506   0.481  -0.049   1.014 -0.8691  0.4039 -2.5052
 5834TIP3   OH217507   1.093   3.840   0.543 -0.3030 -0.6049 -0.0978
 5834TIP3    H117508   1.127   3.751   0.531  0.5228 -0.5577  1.5384
 5834TIP3    H217509   1.170   3.896   0.536 -0.7620 -0.0489 -0.7350
 5835TIP3   OH217510   4.952   1.484   0.373  0.2222  0.0236 -0.3209
 5835TIP3    H117511   5.001   1.509   0.451 -1.6716  1.3993  0.4915
 5835TIP3    H217512   4.934   1.566   0.328 -2.1465 -0.2964 -0.0597
 5836TIP3   OH217513   3.174   1.348   2.349  0.6766 -0.2207 -0.0797
 5836TIP3    H117514   3.226   1.390   2.281 -0.2461  0.2057 -0.5476
 5836TIP3    H217515   3.138   1.270   2.308 -0.6580  0.5353 -0.4213
 5837TIP3   OH217516   4.113   4.459   3.840  0.1261  0.3727  0.5556
 5837TIP3    H117517   4.110   4.428   3.749 -0.9148 -1.5568  1.1745
 5837TIP3    H217518   4.078   4.548   3.836 -2.1901 -0.5016 -0.6826
 5838TIP3   OH217519   1.721   3.490   0.254 -0.2252  0.6832 -0.4423
 5838TIP3    H117520   1.740   3.551   0.183  0.6266  1.1825  0.1859
 5838TIP3    H217521   1.721   3.545   0.333 -0.2447 -0.0005  0.0429
 5839TIP3   OH217522   3.773   4.304   5.019 -0.4858 -0.4702  0.2217
 5839TIP3    H117523   3.831   4.374   5.049 -0.6148 -0.4977  0.5386
 5839TIP3    H217524   3.788   4.232   5.081 -0.4299 -0.6849 -0.0407
 5840TIP3   OH217525   3.610   0.920   4.078 -0.1319  0.0297  0.0065
 5840TIP3    H117526   3.604   0.974   4.000  0.8762  0.9628  0.5409
 5840TIP3    H217527   3.603   0.830   4.046 -3.8085  0.4116 -0.7289
 5841TIP3   OH217528   5.418   4.003   1.785 -0.4791  0.1342 -0.1200
 5841TIP3    H117529   5.503   4.044   1.768 -0.3213 -1.1700 -3.1724
 5841TIP3    H217530   5.436   3.909   1.783 -2.2793 -0.2772 -3.5704
 5842TIP3   OH217531   4.285   1.636   0.487 -0.3990  0.2251 -0.2088
 5842TIP3    H117532   4.290   1.651   0.582 -1.5759 -1.1489  0.1141
 5842TIP3    H217533   4.289   1.724   0.449  1.0931  0.7611  1.0252
 5843TIP3   OH217534   3.513   3.984   4.099 -0.1504  0.0302  0.0035
 5843TIP3    H117535   3.479   4.029   4.177  0.7553  1.9615 -0.6638
 5843TIP3    H217536   3.604   3.963   4.121 -0.1275 -0.1297 -0.2421
 5844TIP3   OH217537   0.290   3.122   4.114  0.0567 -0.3116 -0.2954
 5844TIP3    H117538   0.242   3.197   4.079 -0.0817  0.6598  1.8194
 5844TIP3    H217539   0.235   3.088   4.185  1.3855 -0.6553  0.6139
 5845TIP3   OH217540   5.623   4.845   4.258  0.3031  0.1969  0.6016
 5845TIP3    H117541   5.663   4.797   4.330  0.5001  1.4688  1.3739
 5845TIP3    H217542   5.697   4.878   4.207  0.1729 -0.1966  0.1520
 5846TIP3   OH217543   5.566   5.294   1.534 -0.3097  0.8301  0.0353
 5846TIP3    H117544   5.485   5.342   1.517 -0.9593  0.3376  1.5658
 5846TIP3    H217545   5.554   5.209   1.491 -0.5463  0.8108  0.1405
 5847TIP3   OH217546   2.129   0.042   3.702 -0.0022  0.6228  0.1468
 5847TIP3    H117547   2.203   0.032   3.642 -0.9812  2.9231 -1.6063
 5847TIP3    H217548   2.163   0.098   3.773  0.6500 -0.6266  0.8650
 5848TIP3   OH217549   1.347   0.215   4.459  0.3392 -0.3657  0.2124
 5848TIP3    H117550   1.355   0.159   4.536  1.4555 -0.2299  0.2025
 5848TIP3    H217551   1.275   0.176   4.409 -0.4483 -0.4164  1.3432
 5849TIP3   OH217552   5.167   2.935   2.046 -0.4023  0.0430  0.7682
 5849TIP3    H117553   5.114   3.013   2.030  0.4963  0.5819  0.3296
 5849TIP3    H217554   5.216   2.956   2.126 -1.5270 -0.8338  1.7268
 5850TIP3   OH217555   0.297   5.036   1.547 -0.4223 -0.4878 -0.0099
 5850TIP3    H117556   0.235   4.974   1.586 -0.0862  0.2862  1.8642
 5850TIP3    H217557   0.366   5.046   1.613 -0.2303  1.5020 -0.4558
 5851TIP3   OH217558   1.279   2.717   0.690 -0.1601  0.6084  0.3740
 5851TIP3    H117559   1.305   2.759   0.609  1.6367  0.4842  0.8519
 5851TIP3    H217560   1.237   2.787   0.741  0.2064  1.1037  0.0045
 5852TIP3   OH217561   4.351   1.878   4.327 -0.0556  0.0841  0.0788
 5852TIP3    H117562   4.442   1.867   4.355  0.3814  2.1402 -0.3832
 5852TIP3    H217563   4.357   1.901   4.234 -1.1397 -0.9337 -0.2718
 5853TIP3   OH217564   3.075   4.112   0.231 -0.0533 -0.3178 -0.2694
 5853TIP3    H117565   3.049   4.141   0.144  0.6010 -2.2645 -1.1761
 5853TIP3    H217566   3.168   4.092   0.224 -0.5284 -3.0507  0.0636
 5854TIP3   OH217567   4.652   4.814   1.170 -0.0259 -0.0804 -0.1008
 5854TIP3    H117568   4.736   4.780   1.142  0.5974  1.3858 -0.1276
 5854TIP3    H217569   4.657   4.816   1.265 -0.4217 -0.9033 -0.0556
 5855TIP3   OH217570   1.115   3.064   5.111 -0.6004  0.9408 -0.0099
 5855TIP3    H117571   1.078   3.152   5.101 -1.3002  0.6922  0.2962
 5855TIP3    H217572   1.039   3.009   5.132 -0.4514 -0.0417 -1.8455
 5856TIP3   OH217573   3.999   1.017   4.339 -0.2788  0.2400  0.4214
 5856TIP3    H117574   3.911   1.032   4.305 -0.1948 -1.4144 -0.6325
 5856TIP3    H217575   4.017   0.925   4.319  1.0446  0.0882  2.1292
 5857TIP3   OH217576   5.494   4.408   4.094  0.7227  0.3191  0.1227
 5857TIP3    H117577   5.532   4.407   4.182  1.7400 -0.1785 -0.3117
 5857TIP3    H217578   5.399   4.407   4.109  0.8738  0.7350  1.2146
 5858TIP3   OH217579   3.470   5.849   2.202  0.2313 -0.3090 -0.1557
 5858TIP3    H117580   3.430   5.780   2.149  0.4358 -0.3547 -0.2505
 5858TIP3    H217581   3.410   5.860   2.276  0.8975 -1.5735  0.6139
 5859TIP3   OH217582   4.452   5.585   4.953 -0.3011 -0.1119  0.2393
 5859TIP3    H117583   4.427   5.613   5.041 -0.6557  2.6357 -0.6436
 5859TIP3    H217584   4.480   5.665   4.909 -0.9630 -1.2448 -2.4551
 5860TIP3   OH217585   4.399   0.595   1.381 -0.3263  0.2546 -0.4074
 5860TIP3    H117586   4.351   0.512   1.375  1.5332 -0.8582 -0.7815
 5860TIP3    H217587   4.394   0.632   1.293  0.0167 -0.1654 -0.6080
 5861TIP3   OH217588   2.614   2.667   2.829  0.2189 -0.1533 -0.0540
 5861TIP3    H117589   2.604   2.758   2.857 -1.3256 -0.0784 -0.7425
 5861TIP3    H217590   2.645   2.622   2.908  1.8264  1.0754  0.0837
 5862TIP3   OH217591   3.316   0.345   1.636  0.5579  0.1162 -0.1947
 5862TIP3    H117592   3.352   0.430   1.661 -0.0169 -0.4812  3.2051
 5862TIP3    H217593   3.221   0.360   1.634  0.5281 -0.1604 -0.9067
 5863TIP3   OH217594   5.929   1.360   1.144  0.2158  0.0774 -0.0515
 5863TIP3    H117595   5.908   1.443   1.186 -2.3646 -1.1159  1.2467
 5863TIP3    H217596   6.016   1.338   1.177  0.7605  1.9925 -0.0627
 5864TIP3   OH217597   5.805   0.804   0.129 -0.3254 -0.3806 -0.3037
 5864TIP3    H117598   5.857   0.762   0.197  2.1935 -0.1970 -2.0000
 5864TIP3    H217599   5.774   0.732   0.074 -0.7505 -0.3866 -0.0630
 5865TIP3   OH217600   4.242   0.385   3.424  0.0737  0.2411 -0.0571
 5865TIP3    H117601   4.275   0.311   3.476 -0.6124  0.2744  0.4331
 5865TIP3    H217602   4.220   0.452   3.489  0.8955  0.9777 -0.5078
 5866TIP3   OH217603   4.485   1.343   1.457 -0.3746 -0.2153  0.5101
 5866TIP3    H117604   4.542   1.405   1.502 -0.8524  0.2401  0.4879
 5866TIP3    H217605   4.413   1.327   1.518 -1.8411  1.5855 -0.6545
 5867TIP3   OH217606   3.749   1.325   4.524 -0.4490  0.3544 -0.0363
 5867TIP3    H117607   3.697   1.302   4.601  0.3106  0.2897  0.4763
 5867TIP3    H217608   3.727   1.416   4.506 -0.3324  0.4912  0.5103
 5868TIP3   OH217609   4.034   3.148   5.051  0.8283  0.5581 -0.0432
 5868TIP3    H117610   4.025   3.218   5.116 -0.1845 -0.6543  1.1982
 5868TIP3    H217611   3.981   3.177   4.977 -4.1278 -1.0657  2.4636
 5869TIP3   OH217612   1.363   4.977   1.577  0.4237 -0.5696  0.4368
 5869TIP3    H117613   1.388   4.887   1.599  0.4503 -0.9508 -1.0206
 5869TIP3    H217614   1.446   5.020   1.554  0.1608 -0.9585 -1.4227
 5870TIP3   OH217615   3.515   1.224   1.106  0.0852 -0.3413  0.5456
 5870TIP3    H117616   3.517   1.317   1.128  0.8777 -0.6268  1.7582
 5870TIP3    H217617   3.427   1.196   1.131 -0.2168  0.1099  0.0164
 5871TIP3   OH217618   4.979   0.107   1.163  0.5426  0.1520  0.1856
 5871TIP3    H117619   5.030   0.026   1.168  0.0251 -0.1167  1.5049
 5871TIP3    H217620   5.006   0.147   1.080  0.4077 -1.6276 -0.7612
 5872TIP3   OH217621   3.215   1.239   3.793 -0.3462 -0.9105 -0.4561
 5872TIP3    H117622   3.124   1.237   3.823  0.2789  0.4836  1.7121
 5872TIP3    H217623   3.215   1.304   3.722 -1.0008 -0.8175 -0.3792
 5873TIP3   OH217624   5.385   1.415   2.255  0.2331 -0.0078 -0.2828
 5873TIP3    H117625   5.314   1.378   2.203  0.2264 -0.5497  0.1048
 5873TIP3    H217626   5.463   1.369   2.225  0.3883  0.4062 -0.5276
 5874TIP3   OH217627   3.491   3.354   4.670  0.5374 -0.0774 -0.1166
 5874TIP3    H117628   3.401   3.381   4.655 -0.6140 -1.9944  2.5304
 5874TIP3    H217629   3.534   3.366   4.585 -2.0511  1.2883 -1.3638
 5875TIP3   OH217630   0.764   5.424   3.387  0.1011 -0.3880 -0.1714
 5875TIP3    H117631   0.746   5.404   3.295  0.4927 -0.9720 -0.1237
 5875TIP3    H217632   0.767   5.339   3.430  1.0035 -0.1872  0.1858
 5876TIP3   OH217633   5.244   3.163   2.996  0.4126 -0.0421 -0.3912
 5876TIP3    H117634   5.240   3.154   3.091  0.3272  0.8645 -0.3035
 5876TIP3    H217635   5.317   3.107   2.970  1.7003  1.1897  0.4278
 5877TIP3   OH217636   3.311   2.734   2.551  0.5350  0.6248 -0.4506
 5877TIP3    H117637   3.236   2.740   2.610  1.0813  1.0156  0.2202
 5877TIP3    H217638   3.385   2.768   2.602  1.3613 -0.6038 -0.7804
 5878TIP3   OH217639   0.683   4.268   3.408 -0.0067 -0.5071  0.1345
 5878TIP3    H117640   0.596   4.269   3.370 -0.1693  0.2137  0.5081
 5878TIP3    H217641   0.741   4.297   3.338 -0.2495  0.4039  0.3058
 5879TIP3   OH217642   3.153   0.041   4.025  0.2640  0.0944 -0.3077
 5879TIP3    H117643   3.079   0.099   4.009 -1.1713 -1.7490 -0.5936
 5879TIP3    H217644   3.221   0.099   4.061 -0.8713  2.0380 -1.1484
 5880TIP3   OH217645   1.368   5.476   4.830 -0.0819  0.0629 -0.0607
 5880TIP3    H117646   1.406   5.518   4.907 -0.3032 -1.9979  1.2688
 5880TIP3    H217647   1.312   5.543   4.790  0.1852  1.2465  1.4586
 5881TIP3   OH217648   1.801   1.472   4.941 -0.0355 -0.1232  0.2957
 5881TIP3    H117649   1.856   1.542   4.907 -0.2944 -0.4292 -0.7982
 5881TIP3    H217650   1.780   1.498   5.031 -0.4596  1.3868 -0.2226
 5882TIP3   OH217651   2.257   0.900   2.221 -0.3380  0.2554  0.3736
 5882TIP3    H117652   2.200   0.932   2.292 -1.0448  0.4182 -0.2583
 5882TIP3    H217653   2.219   0.935   2.141 -0.1327 -0.7470 -0.1876
 5883TIP3   OH217654   4.974   0.471   4.489  0.3273  0.5194  0.0745
 5883TIP3    H117655   5.045   0.415   4.459  0.4542  0.2178  0.9302
 5883TIP3    H217656   4.972   0.459   4.584 -2.7508 -1.7356 -0.1341
 5884TIP3   OH217657   3.103   3.025   4.449  0.0525  0.0308 -0.8661
 5884TIP3    H117658   3.020   3.015   4.496  0.8750 -1.7793  0.3047
 5884TIP3    H217659   3.126   3.117   4.461 -0.1750 -0.1658  1.6805
 5885TIP3   OH217660   1.484   1.824   2.259  0.6966  0.0064  0.0529
 5885TIP3    H117661   1.499   1.730   2.247  1.2836  0.0492  0.3974
 5885TIP3    H217662   1.561   1.865   2.221  0.4892  0.3419 -0.0013
 5886TIP3   OH217663   2.213   0.169   3.915 -0.1841 -0.3019 -0.1418
 5886TIP3    H117664   2.278   0.152   3.984  0.5108  4.4534  0.7396
 5886TIP3    H217665   2.136   0.201   3.962 -0.7903  0.2295 -1.4515
 5887TIP3   OH217666   0.730   1.680   0.416 -0.3988  0.2288 -0.3623
 5887TIP3    H117667   0.669   1.612   0.385  0.5071 -0.8259  0.0958
 5887TIP3    H217668   0.749   1.656   0.506  1.6238 -0.2047 -0.8403
 5888TIP3   OH217669   0.708   1.267   3.634  0.7542 -0.2038 -0.4209
 5888TIP3    H117670   0.671   1.355   3.638 -1.4195 -1.0722 -0.2129
 5888TIP3    H217671   0.788   1.277   3.582 -0.5670  1.5522 -2.2699
 5889TIP3   OH217672   3.085   0.767   0.036 -0.2012  0.0553 -0.2931
 5889TIP3    H117673   3.013   0.712   0.005  1.0786 -1.2612 -1.0479
 5889TIP3    H217674   3.155   0.705   0.056  1.0823  1.3653 -0.5863
 5890TIP3   OH217675   1.600   5.826   1.030 -0.4642  0.5092  0.2254
 5890TIP3    H117676   1.505   5.811   1.027 -0.5978  1.3352  0.0937
 5890TIP3    H217677   1.626   5.796   1.117 -0.7256 -0.3796  0.0085
 5891TIP3   OH217678   1.030   0.450   4.320 -0.5465 -0.3786  0.3823
 5891TIP3    H117679   1.114   0.473   4.279  0.4863 -0.0374  2.5262
 5891TIP3    H217680   0.968   0.450   4.248  0.8321  1.7901 -0.9566
 5892TIP3   OH217681   1.109   5.255   0.445  0.2483  0.3590  0.1705
 5892TIP3    H117682   1.061   5.202   0.381 -0.6584 -0.3843  1.4116
 5892TIP3    H217683   1.041   5.302   0.493  0.7666 -0.2873  1.5951
 5893TIP3   OH217684   2.692   2.616   1.667  1.0395 -0.2611  0.4393
 5893TIP3    H117685   2.659   2.616   1.756  1.3644  0.7276  0.5726
 5893TIP3    H217686   2.668   2.530   1.632 -0.8790  0.0790  0.8114
 5894TIP3   OH217687   0.799   2.309   2.996 -0.1969  0.2925  0.7137
 5894TIP3    H117688   0.746   2.319   2.916  0.9372 -0.4807 -0.1632
 5894TIP3    H217689   0.740   2.265   3.057 -0.2437 -1.7633 -0.6817
 5895TIP3   OH217690   5.747   1.152   0.813  0.9214 -0.8178 -0.1509
 5895TIP3    H117691   5.738   1.070   0.861 -0.3630  1.7795  4.6186
 5895TIP3    H217692   5.833   1.185   0.838  0.7593  0.0677 -0.7036
 5896TIP3   OH217693   4.327   2.520   3.629  0.4609 -0.2981 -0.6036
 5896TIP3    H117694   4.389   2.576   3.583 -1.3327  1.5986 -0.8529
 5896TIP3    H217695   4.285   2.577   3.693 -2.3329 -0.9544 -1.7145
 5897TIP3   OH217696   1.846   0.379   0.050 -0.0455 -0.1449 -0.0148
 5897TIP3    H117697   1.848   0.446  -0.018 -0.1887 -0.2152 -0.0883
 5897TIP3    H217698   1.850   0.428   0.132 -0.8624 -0.0039 -0.0489
 5898TIP3   OH217699   2.859   0.282   3.280 -0.3807  0.1341  0.3382
 5898TIP3    H117700   2.870   0.228   3.202 -1.1038 -0.6134  0.7331
 5898TIP3    H217701   2.906   0.363   3.261 -0.0485 -0.2785 -0.6297
 5899TIP3   OH217702   5.507   3.981   4.655  0.3778 -0.0298 -0.3210
 5899TIP3    H117703   5.525   4.003   4.563  0.5211 -0.7604 -0.4734
 5899TIP3    H217704   5.507   3.885   4.657 -0.9350 -0.0430  0.1809
 5900TIP3   OH217705   0.176   1.099   1.088 -0.6948 -0.6272  0.2958
 5900TIP3    H117706   0.090   1.091   1.047 -0.1159 -2.6071 -0.6342
 5900TIP3    H217707   0.232   1.039   1.039  0.4908 -1.7227  2.8464
 5901TIP3   OH217708   0.613   0.598   3.320 -0.0781 -0.1721 -0.1732
 5901TIP3    H117709   0.698   0.642   3.326 -1.1367  1.7744  1.8156
 5901TIP3    H217710   0.627   0.511   3.357  1.1330 -0.0769 -0.3778
 5902TIP3   OH217711   1.646   2.840   1.987 -0.6615 -0.1192  0.0676
 5902TIP3    H117712   1.625   2.931   1.964  1.7538  0.3864 -0.4228
 5902TIP3    H217713   1.666   2.843   2.081  1.2929  0.3069 -0.3186
 5903TIP3   OH217714   4.322   0.438   3.990  0.2345  0.0236 -0.2958
 5903TIP3    H117715   4.352   0.412   4.077  0.6796 -0.7711 -0.6848
 5903TIP3    H217716   4.252   0.501   4.007  1.1248  0.7997  0.6327
 5904TIP3   OH217717   2.035   4.299   4.157  0.2582 -0.1450  0.4841
 5904TIP3    H117718   1.988   4.295   4.074  0.8989  0.4145  0.0841
 5904TIP3    H217719   2.006   4.381   4.198  0.1378 -0.2911  0.6935
 5905TIP3   OH217720   2.066   4.817   2.297  0.0776 -0.4600  0.0184
 5905TIP3    H117721   2.016   4.753   2.347 -0.4627 -0.7758 -0.8996
 5905TIP3    H217722   2.108   4.766   2.228  0.9592 -0.0614  0.2366
 5906TIP3   OH217723   5.402   2.594   3.880 -0.2515  0.8538  0.0333
 5906TIP3    H117724   5.401   2.512   3.929  0.4005  1.1517  0.5602
 5906TIP3    H217725   5.434   2.659   3.943  0.3500  1.2936 -0.7146
 5907TIP3   OH217726   1.710   3.723   0.105  0.4534  0.2307 -0.0722
 5907TIP3    H117727   1.755   3.773   0.037  2.0586 -0.1741  0.6407
 5907TIP3    H217728   1.655   3.788   0.150  0.3432  0.7534 -0.9340
 5908TIP3   OH217729   0.095   4.455   1.506 -0.1853 -0.6432  0.0464
 5908TIP3    H117730   0.099   4.494   1.594  0.9674  1.5607 -0.9103
 5908TIP3    H217731   0.055   4.369   1.520  1.7167 -1.1798  3.0028
 5909TIP3   OH217732   1.231   5.978   2.769 -0.1932 -0.4941 -0.1490
 5909TIP3    H117733   1.158   5.964   2.709 -0.2441 -1.0003  0.0286
 5909TIP3    H217734   1.193   5.965   2.856  0.1806 -1.0815 -0.0726
 5910TIP3   OH217735   2.313   2.878   4.659  0.3808  0.4555  0.0024
 5910TIP3    H117736   2.355   2.953   4.617  1.4788 -0.4450 -0.5862
 5910TIP3    H217737   2.258   2.840   4.590 -0.1038  0.6717  0.2709
 5911TIP3   OH217738   5.669   2.780   2.640  0.0843  0.5316  0.0610
 5911TIP3    H117739   5.731   2.733   2.584  0.4924  1.6234 -0.4187
 5911TIP3    H217740   5.623   2.840   2.582  1.0014  2.1820  0.9685
 5912TIP3   OH217741   0.480   2.080   3.850  0.8298  0.4804 -0.2939
 5912TIP3    H117742   0.546   2.014   3.871  0.7829  0.8785  1.2507
 5912TIP3    H217743   0.397   2.041   3.874  0.7896  1.0310  0.5152
 5913TIP3   OH217744   0.108   3.079   0.061 -0.4336  0.3744 -0.3604
 5913TIP3    H117745   0.181   3.043   0.010 -0.8258  0.0148 -0.6811
 5913TIP3    H217746   0.148   3.108   0.143 -0.2537 -2.0167  0.4880
 5914TIP3   OH217747   1.754   2.052   1.554 -0.0276 -0.4033 -0.1400
 5914TIP3    H117748   1.727   2.112   1.624 -0.3348 -1.9935  1.1863
 5914TIP3    H217749   1.843   2.078   1.532 -0.0573  0.3529  0.6079
 5915TIP3   OH217750   1.147   5.021   4.737 -0.3292 -0.0116  0.0198
 5915TIP3    H117751   1.189   5.098   4.700 -0.0627 -0.4997 -0.6998
 5915TIP3    H217752   1.202   4.997   4.812 -0.4387  0.5179  0.2714
 5916TIP3   OH217753   5.753   3.470   1.175  0.1691 -0.3948 -0.3581
 5916TIP3    H117754   5.672   3.513   1.200  0.3261 -1.0375  1.3585
 5916TIP3    H217755   5.727   3.382   1.147  0.1446 -0.1396 -1.1665
 5917TIP3   OH217756   0.691   5.952   2.703 -0.6461 -0.6607  0.0365
 5917TIP3    H117757   0.739   5.870   2.688 -1.5154 -1.4861  1.5738
 5917TIP3    H217758   0.655   5.974   2.617 -0.7290 -2.1239 -0.3326
 5918TIP3   OH217759   2.169   0.908   1.012  0.5819 -0.3713 -0.2330
 5918TIP3    H117760   2.090   0.874   1.054 -0.0080  1.3586  0.1187
 5918TIP3    H217761   2.148   0.999   0.990  2.3278  0.0033 -0.5041
 5919TIP3   OH217762   4.785   0.872   0.490  0.2757  0.3601  0.0461
 5919TIP3    H117763   4.851   0.924   0.536 -0.5028  3.1877 -1.8183
 5919TIP3    H217764   4.835   0.810   0.437  1.2079 -1.6366  2.9922
 5920TIP3   OH217765   6.321   3.593   1.959  0.4758  0.3054 -0.5727
 5920TIP3    H117766   6.356   3.669   2.006 -0.8607  0.8174 -0.3689
 5920TIP3    H217767   6.229   3.587   1.987  0.3282 -0.8812 -1.2344
 5921TIP3   OH217768   0.089   2.633   1.746  0.8151 -0.1665  0.1182
 5921TIP3    H117769   0.110   2.701   1.682 -0.2355  0.2848  0.2317
 5921TIP3    H217770   0.102   2.550   1.699 -1.6939  0.1617 -1.2995
 5922TIP3   OH217771   2.898   3.601   4.961  0.0621 -0.0500 -0.3936
 5922TIP3    H117772   2.813   3.635   4.989  0.0876 -0.3108  0.0169
 5922TIP3    H217773   2.905   3.516   5.006  0.3237 -0.2488 -0.8105
 5923TIP3   OH217774   0.635   3.658   0.654 -0.0283 -0.2626 -0.2634
 5923TIP3    H117775   0.643   3.608   0.736  0.0281 -0.6562 -0.5086
 5923TIP3    H217776   0.716   3.710   0.650  0.5241 -1.1242 -0.6517
 5924TIP3   OH217777   0.120   5.593   4.505 -0.0458  0.1042  0.2990
 5924TIP3    H117778   0.030   5.607   4.532  0.2260  0.6296  0.9684
 5924TIP3    H217779   0.115   5.526   4.437 -0.9621  0.3246  0.1353
 5925TIP3   OH217780   5.395   5.427   1.753  0.0783 -0.5578  0.2472
 5925TIP3    H117781   5.333   5.470   1.812 -1.4079 -0.0757 -1.5613
 5925TIP3    H217782   5.360   5.444   1.665  3.1248  0.2322 -0.9278
 5926TIP3   OH217783   0.440   4.573   2.404 -0.0454 -0.2379  0.1574
 5926TIP3    H117784   0.349   4.546   2.391 -0.0173 -0.5693  0.6212
 5926TIP3    H217785   0.489   4.525   2.337 -0.1563 -0.3863  0.1809
 5927TIP3   OH217786   3.356   1.752   2.545  0.4004  0.1482  0.2143
 5927TIP3    H117787   3.262   1.748   2.531  0.6741 -2.2796 -1.5036
 5927TIP3    H217788   3.370   1.715   2.632 -0.1457 -0.8529 -0.1157
 5928TIP3   OH217789   3.611   0.720   3.534  0.3335  0.4240  0.0080
 5928TIP3    H117790   3.638   0.664   3.462 -2.3056 -0.0662 -0.7253
 5928TIP3    H217791   3.562   0.662   3.593 -0.3156  1.4651  0.5289
 5929TIP3   OH217792   5.936   2.342   1.144  0.0652 -0.4634  0.0722
 5929TIP3    H117793   5.891   2.382   1.069 -1.3894 -1.0524  0.5815
 5929TIP3    H217794   5.998   2.409   1.174  1.9573 -0.8138 -2.6609
 5930TIP3   OH217795   1.652   1.994   2.916 -0.3499  0.0354  0.1642
 5930TIP3    H117796   1.572   1.949   2.889 -0.5959  0.6937 -0.2471
 5930TIP3    H217797   1.629   2.036   2.999  0.5240 -2.3109  1.7040
 5931TIP3   OH217798   4.651   3.414   0.542  0.2240 -0.0920  0.1895
 5931TIP3    H117799   4.580   3.478   0.535  0.8990  0.6253 -0.1631
 5931TIP3    H217800   4.720   3.448   0.486  1.1502 -0.3922  1.1233
 5932TIP3   OH217801   3.129   4.463   4.319  0.0692 -0.1199  0.2433
 5932TIP3    H117802   3.183   4.531   4.278 -0.1451 -0.0311  0.1067
 5932TIP3    H217803   3.153   4.382   4.273 -0.2101 -0.0115 -0.0975
 5933TIP3   OH217804   5.901   4.664   3.994  0.1888  0.1310 -0.2814
 5933TIP3    H117805   5.861   4.621   4.069  1.1491 -0.0124  0.1675
 5933TIP3    H217806   5.830   4.672   3.930 -0.7003  0.4758  0.7244
 5934TIP3   OH217807   1.434   5.676   4.398  0.1270 -0.0243 -0.0860
 5934TIP3    H117808   1.520   5.691   4.437 -0.3691  0.4762  0.8433
 5934TIP3    H217809   1.442   5.711   4.309  1.3465 -1.4097 -0.5542
 5935TIP3   OH217810   6.152   4.454   3.432  0.5811 -0.4566  0.1548
 5935TIP3    H117811   6.192   4.400   3.364  1.0896 -1.0831  0.9341
 5935TIP3    H217812   6.119   4.391   3.496 -1.8948  0.0162 -0.5591
 5936TIP3   OH217813   2.054   1.036   2.951 -0.1640  0.2840  0.3871
 5936TIP3    H117814   2.030   1.127   2.934  0.4064  0.6527  1.4965
 5936TIP3    H217815   1.989   0.985   2.901  0.8054  1.2644 -2.0285
 5937TIP3   OH217816   2.053   4.499   3.184 -0.2730  0.0111 -0.2163
 5937TIP3    H117817   2.003   4.427   3.146  0.4589  0.4190 -2.0673
 5937TIP3    H217818   2.013   4.578   3.145 -0.8370  0.6125  1.4967
 5938TIP3   OH217819   4.709   4.177   0.765 -0.0318  0.0184 -0.0660
 5938TIP3    H117820   4.703   4.270   0.742 -2.1734  0.6530  2.4936
 5938TIP3    H217821   4.760   4.175   0.845 -0.8739 -0.8566  0.4791
 5939TIP3   OH217822   0.466   3.183   3.378 -0.1565 -0.1822 -0.0676
 5939TIP3    H117823   0.474   3.132   3.297  1.5977 -0.6558  0.3670
 5939TIP3    H217824   0.412   3.129   3.435 -0.6748 -0.2446 -0.6003
 5940TIP3   OH217825   0.840   5.105   3.147  0.0357 -0.1233 -0.1505
 5940TIP3    H117826   0.826   5.099   3.241  2.7172  0.0841  0.3541
 5940TIP3    H217827   0.801   5.026   3.111 -1.4104  0.0100  1.0526
 5941TIP3   OH217828   2.779   1.403   5.127  0.3806 -0.2227  0.6346
 5941TIP3    H117829   2.718   1.415   5.199  1.0780 -0.5408  1.3009
 5941TIP3    H217830   2.824   1.487   5.118  1.2870 -0.5879  1.5328
 5942TIP3   OH217831   6.036   3.417   2.240 -0.9108  0.2346  0.3496
 5942TIP3    H117832   5.954   3.373   2.218 -0.9376  0.1417  0.6262
 5942TIP3    H217833   6.059   3.467   2.162  0.0061 -1.5929 -0.6154
 5943TIP3   OH217834   3.401   4.229   4.870 -0.0058  0.3905  0.0344
 5943TIP3    H117835   3.346   4.304   4.895 -1.5541 -0.5781 -0.2977
 5943TIP3    H217836   3.371   4.158   4.927 -0.0845 -0.5280 -1.1190
 5944TIP3   OH217837   5.822   0.326   3.629 -0.1223  0.0351 -0.1497
 5944TIP3    H117838   5.793   0.241   3.597  0.8102 -0.1581 -0.5096
 5944TIP3    H217839   5.872   0.364   3.557  0.5146  0.3484  0.4412
 5945TIP3   OH217840   5.080   1.429   0.635 -0.3516 -0.1117 -0.0662
 5945TIP3    H117841   5.017   1.471   0.693 -0.4479  1.1080 -1.0228
 5945TIP3    H217842   5.162   1.477   0.650  0.3357 -1.5481  1.0166
 5946TIP3   OH217843   2.527   0.471   5.089 -0.1066  0.7747  0.0531
 5946TIP3    H117844   2.510   0.417   5.012 -0.1366  0.0345  0.5700
 5946TIP3    H217845   2.443   0.512   5.109 -0.3621  0.1313  0.3223
 5947TIP3   OH217846   1.312   1.203   1.311 -0.3418  0.0075 -0.6124
 5947TIP3    H117847   1.357   1.223   1.229  1.9104 -1.5993  0.1453
 5947TIP3    H217848   1.370   1.237   1.379 -0.3085 -1.9505  0.3969
 5948TIP3   OH217849   4.249   3.890   4.650 -0.1572  0.4226  0.0022
 5948TIP3    H117850   4.209   3.971   4.620 -1.9339 -0.4522 -0.1216
 5948TIP3    H217851   4.302   3.860   4.576  0.2738  1.3151 -0.0528
 5949TIP3   OH217852   4.909   4.083   4.217  0.0722 -0.0429  0.3021
 5949TIP3    H117853   4.912   3.991   4.241 -0.3561  0.2475  1.5375
 5949TIP3    H217854   4.992   4.119   4.249 -0.0483  0.1347  0.4163
 5950TIP3   OH217855   5.733   1.908   3.450  0.5958  0.7917  0.2587
 5950TIP3    H117856   5.702   1.874   3.366 -0.5787  0.3237  0.8600
 5950TIP3    H217857   5.659   1.897   3.509  2.3593 -1.8491  2.1889
 5951TIP3   OH217858   0.834   2.306   1.072 -0.0705 -0.3938 -0.0537
 5951TIP3    H117859   0.881   2.230   1.038 -1.1904 -2.4707  2.6647
 5951TIP3    H217860   0.742   2.277   1.078 -0.2660  0.4573  2.6431
 5952TIP3   OH217861   0.848   5.245   2.134 -0.1630 -0.0067 -0.4210
 5952TIP3    H117862   0.882   5.213   2.051 -0.4216  2.2231 -1.4555
 5952TIP3    H217863   0.758   5.271   2.116 -0.1258  0.8165  0.4510
 5953TIP3   OH217864   0.639   3.622   3.995 -0.0461 -0.4797 -0.0364
 5953TIP3    H117865   0.614   3.551   3.936  0.7344  0.0156 -0.9966
 5953TIP3    H217866   0.567   3.629   4.057 -1.0279 -0.8365 -1.1059
 5954TIP3   OH217867   5.137   0.857   4.777  0.6003 -0.2180 -0.0967
 5954TIP3    H117868   5.182   0.773   4.778  1.5845  0.2371 -1.7655
 5954TIP3    H217869   5.206   0.922   4.788 -0.1674  0.4012  1.3810
 5955TIP3   OH217870   3.580   0.226   3.988  0.0031  0.2656  0.4023
 5955TIP3    H117871   3.523   0.169   4.040  0.3200  0.4767  0.9924
 5955TIP3    H217872   3.522   0.295   3.956 -0.2999 -0.1555  0.0221
 5956TIP3   OH217873   4.368   2.799   4.066  0.2767 -0.2756 -0.1534
 5956TIP3    H117874   4.382   2.758   4.151  2.7758 -0.7162 -0.7046
 5956TIP3    H217875   4.371   2.893   4.085  0.6924 -0.3686  0.2544
 5957TIP3   OH217876   3.266   5.953   4.080 -0.3374 -0.2207 -0.0210
 5957TIP3    H117877   3.311   6.022   4.128  0.1086 -0.4842 -0.0508
 5957TIP3    H217878   3.174   5.960   4.108 -0.0806 -0.4016  0.9176
 5958TIP3   OH217879   1.389   3.925   0.564  0.4284  0.1992 -0.0494
 5958TIP3    H117880   1.442   3.896   0.490 -0.0155  3.3414 -1.7484
 5958TIP3    H217881   1.445   3.988   0.610 -0.6907  1.1970 -0.0231
 5959TIP3   OH217882   5.835   0.239   2.512  0.2703 -0.3664 -0.5739
 5959TIP3    H117883   5.751   0.247   2.557  1.7240 -1.0586  2.4697
 5959TIP3    H217884   5.816   0.185   2.435 -2.1729  0.1638 -0.4314
 5960TIP3   OH217885   6.150   5.986   0.433  0.0337  0.0608  0.8202
 5960TIP3    H117886   6.093   6.019   0.502 -0.7517 -1.1894  0.8029
 5960TIP3    H217887   6.090   5.955   0.366  0.7896  0.9465 -0.2982
 5961TIP3   OH217888   4.302   4.826   4.784  0.2078  0.2433  0.4657
 5961TIP3    H117889   4.360   4.855   4.854  0.2920  0.5851  0.2610
 5961TIP3    H217890   4.231   4.890   4.784  0.5223  0.6133 -0.1569
 5962TIP3   OH217891   4.565   1.815   1.066  0.3710  0.4380 -0.5694
 5962TIP3    H117892   4.576   1.848   1.155 -0.6135  0.5962 -0.5006
 5962TIP3    H217893   4.654   1.789   1.039  0.9332  1.8185 -0.1208
 5963TIP3   OH217894   1.629   4.955   0.216 -0.1004 -0.0530  0.2624
 5963TIP3    H117895   1.591   4.868   0.226 -1.1991  0.5690  1.8923
 5963TIP3    H217896   1.706   4.954   0.272  0.1109 -0.0884 -0.0252
 5964TIP3   OH217897   0.922   0.689   3.580 -0.6149  0.4154 -0.0555
 5964TIP3    H117898   1.001   0.683   3.526 -1.0690 -0.3776 -0.6577
 5964TIP3    H217899   0.955   0.681   3.670 -0.1206 -1.6639 -0.3593
 5965TIP3   OH217900   3.093   4.900   0.783  0.7215  0.3249  0.0165
 5965TIP3    H117901   3.030   4.829   0.792  1.0153  0.0545 -0.0260
 5965TIP3    H217902   3.040   4.979   0.776  0.3185 -0.0446 -1.5560
 5966TIP3   OH217903   5.928   4.916   4.123 -0.1897  0.3829  0.1129
 5966TIP3    H117904   5.877   4.935   4.045 -0.6089 -0.4333  0.1780
 5966TIP3    H217905   5.956   4.825   4.112  1.6802  0.9426 -0.1525
 5967TIP3   OH217906   5.613   5.146   3.164 -0.4129  0.0052 -0.6828
 5967TIP3    H117907   5.665   5.165   3.087  3.3279 -1.3297  1.2738
 5967TIP3    H217908   5.639   5.213   3.228  0.1383 -1.5716  0.8401
 5968TIP3   OH217909   1.621   0.286   3.657  1.1536 -0.0532 -0.6030
 5968TIP3    H117910   1.559   0.336   3.711  1.6531 -2.1149  2.0751
 5968TIP3    H217911   1.628   0.201   3.700  4.2301 -0.6578 -2.0104
 5969TIP3   OH217912   1.809   3.259   2.476  0.1803 -0.7782  0.1297
 5969TIP3    H117913   1.850   3.329   2.424 -2.6325 -1.2413 -3.0361
 5969TIP3    H217914   1.880   3.197   2.491  1.6781  0.5023 -1.1983
 5970TIP3   OH217915   0.694   4.637   0.947 -0.3195  0.3525  0.4232
 5970TIP3    H117916   0.696   4.541   0.947 -0.8058  0.3379  0.0471
 5970TIP3    H217917   0.674   4.660   1.038 -0.3830  0.0892  0.4770
 5971TIP3   OH217918   0.608   3.897   1.478 -0.4413  0.5728  0.5166
 5971TIP3    H117919   0.515   3.918   1.487 -0.2930  1.9844 -0.8806
 5971TIP3    H217920   0.609   3.813   1.432 -1.0367  1.2816 -0.8290
 5972TIP3   OH217921   1.338   0.529   1.598  0.0089  0.0384 -0.0905
 5972TIP3    H117922   1.321   0.453   1.542 -0.2660 -0.2435  0.3649
 5972TIP3    H217923   1.428   0.518   1.628  0.4197  0.6035 -1.1019
 5973TIP3   OH217924   2.709   3.230   2.720 -0.4338  0.4419  0.1727
 5973TIP3    H117925   2.696   3.322   2.700 -0.0294  0.4817  0.0801
 5973TIP3    H217926   2.716   3.227   2.816 -0.1680  0.5422  0.1555
 5974TIP3   OH217927   0.350   0.538   3.247 -0.2365  0.4245 -0.0306
 5974TIP3    H117928   0.277   0.555   3.306  1.1466 -0.8108  2.1998
 5974TIP3    H217929   0.427   0.571   3.294  0.9794 -0.9454 -0.9615
 5975TIP3   OH217930   2.138   3.368   4.581  0.2541  0.3063 -0.0857
 5975TIP3    H117931   2.111   3.296   4.523 -0.4811  0.1143  0.4800
 5975TIP3    H217932   2.143   3.328   4.668 -0.6431  1.0412  0.3225
 5976TIP3   OH217933   0.067   4.950   0.153  0.1658  0.8162 -0.2802
 5976TIP3    H117934   0.141   5.006   0.129  1.5724 -0.1182  1.5227
 5976TIP3    H217935   0.108   4.868   0.181 -1.6469 -0.1005 -0.1563
 5977TIP3   OH217936   1.327   2.251   3.226 -0.2019 -0.4105  0.2397
 5977TIP3    H117937   1.339   2.305   3.304 -1.7252 -1.0535  0.9706
 5977TIP3    H217938   1.311   2.313   3.155 -3.3956  0.2000  1.3214
 5978TIP3   OH217939   4.866   4.939   5.155  0.1055 -0.1922  0.3393
 5978TIP3    H117940   4.908   5.014   5.197  3.0855  0.2340 -2.9468
 5978TIP3    H217941   4.909   4.863   5.195 -0.1702 -0.0108  0.9974
 5979TIP3   OH217942   4.363   4.273   5.105  0.3131 -0.3695  0.6256
 5979TIP3    H117943   4.397   4.338   5.045 -1.9501  1.2319  0.9243
 5979TIP3    H217944   4.440   4.228   5.139  1.7319 -0.8453 -2.8135
 5980TIP3   OH217945   6.322   5.336   0.674 -0.0700 -0.1599 -0.0967
 5980TIP3    H117946   6.250   5.383   0.631  0.5815  1.6408  0.6771
 5980TIP3    H217947   6.372   5.299   0.602 -0.9826 -0.2410 -0.7088
 5981TIP3   OH217948   5.932   4.809   2.865  0.5488  0.4512 -0.2650
 5981TIP3    H117949   5.956   4.813   2.773 -1.8628 -2.8472 -1.2471
 5981TIP3    H217950   5.838   4.828   2.867  0.2672 -0.8041  1.2534
 5982TIP3   OH217951   4.930   5.836   1.593 -0.1654  0.8572  0.4799
 5982TIP3    H117952   4.983   5.805   1.667 -0.8024 -0.1469  0.5342
 5982TIP3    H217953   4.994   5.864   1.528  0.5155 -1.7259 -0.0633
 5983TIP3   OH217954   2.781   4.178   1.442  0.0444  0.1256 -0.5660
 5983TIP3    H117955   2.822   4.099   1.406  0.8113  1.4541 -2.7810
 5983TIP3    H217956   2.825   4.192   1.526 -0.8686 -2.3305  0.4370
 5984TIP3   OH217957   2.055   0.540   4.092  0.3807  0.7213 -0.7431
 5984TIP3    H117958   2.108   0.461   4.086  0.0858  0.5559 -1.1493
 5984TIP3    H217959   2.105   0.597   4.150  0.1766 -0.0924  0.2595
 5985TIP3   OH217960   2.384   5.693   4.638  0.0376  0.0298  0.0715
 5985TIP3    H117961   2.292   5.701   4.615 -0.4794 -2.7005  0.8364
 5985TIP3    H217962   2.394   5.743   4.719 -0.6844  0.5757 -0.1733
 5986TIP3   OH217963   2.503   4.440   4.703 -0.8562  0.2385 -0.2774
 5986TIP3    H117964   2.417   4.465   4.738 -0.2655  2.2470 -0.1303
 5986TIP3    H217965   2.484   4.409   4.614 -1.7554  0.4607 -0.1746
 5987TIP3   OH217966   6.046   5.428   0.520  0.2763  0.1794 -0.0339
 5987TIP3    H117967   6.016   5.361   0.459 -0.7358 -0.2498  0.8904
 5987TIP3    H217968   5.985   5.422   0.594  0.8049  1.4119  0.5365
 5988TIP3   OH217969   5.707   0.514   1.948 -0.0063  0.1170  0.2822
 5988TIP3    H117970   5.768   0.535   1.877  1.1138 -0.6565  0.9805
 5988TIP3    H217971   5.695   0.596   1.995 -1.5376  0.8946 -1.3208
 5989TIP3   OH217972   5.960   0.814   1.182 -0.2493 -0.5563  0.0452
 5989TIP3    H117973   6.003   0.893   1.149  1.3026 -0.7428  1.5219
 5989TIP3    H217974   5.878   0.845   1.220  0.0026  0.2306 -0.0388
 5990TIP3   OH217975   1.881   5.347   3.191 -0.1693 -0.3257 -0.2401
 5990TIP3    H117976   1.814   5.302   3.242 -1.4954  3.0224  1.2639
 5990TIP3    H217977   1.843   5.358   3.104 -1.1920  0.5752  0.2936
 5991TIP3   OH217978   5.541   1.112   2.131 -0.0435  0.4640 -0.2584
 5991TIP3    H117979   5.624   1.097   2.177 -0.4475 -3.1790 -0.4548
 5991TIP3    H217980   5.566   1.131   2.041  0.5789  1.0414  0.0242
 5992TIP3   OH217981   3.497   1.277   0.342  0.4833  0.0321 -0.4092
 5992TIP3    H117982   3.430   1.209   0.350  0.8556 -0.1950  1.0639
 5992TIP3    H217983   3.533   1.264   0.254 -0.7536 -0.4295 -0.8731
 5993TIP3   OH217984   1.641   4.433   3.018  0.0930 -0.1468  0.0594
 5993TIP3    H117985   1.569   4.391   2.970 -1.2295  0.2562  1.5958
 5993TIP3    H217986   1.671   4.503   2.961 -1.4678  0.3462 -0.1893
 5994TIP3   OH217987   0.094   5.839   1.443 -0.1450  0.4227  0.1464
 5994TIP3    H117988   0.125   5.885   1.521  3.5945  0.4625 -1.1611
 5994TIP3    H217989   0.095   5.906   1.375 -1.1935 -0.1265 -0.4271
 5995TIP3   OH217990   3.743   3.850   3.847  0.1718  0.1006  0.1846
 5995TIP3    H117991   3.776   3.792   3.915 -0.0646 -1.8810 -1.3107
 5995TIP3    H217992   3.656   3.816   3.827  0.5186  0.1924 -1.6022
 5996TIP3   OH217993   1.767   3.035   4.088  0.0074 -0.0652 -0.3650
 5996TIP3    H117994   1.852   3.025   4.131 -0.4867  0.1780  0.7093
 5996TIP3    H217995   1.787   3.082   4.007  0.9504 -0.4281 -0.3630
 5997TIP3   OH217996   3.231   2.130   1.528  0.2151  0.1222 -0.3479
 5997TIP3    H117997   3.264   2.096   1.611 -0.1718  0.5296 -0.0248
 5997TIP3    H217998   3.151   2.080   1.512 -1.2531  1.9475  0.9447
 5998TIP3   OH217999   0.321   0.026   0.755 -0.6316 -0.3789 -0.4009
 5998TIP3    H118000   0.336   0.047   0.663  1.2492  0.5140  0.0575
 5998TIP3    H218001   0.237   0.067   0.775 -1.1437 -0.7163 -1.7334
 5999TIP3   OH218002   1.229   4.000   1.539  0.3891 -0.5427  0.3788
 5999TIP3    H118003   1.197   3.938   1.604  0.1886 -1.7076 -0.7968
 5999TIP3    H218004   1.150   4.030   1.494  0.1816  2.4097  2.4159
 6000TIP3   OH218005   1.869   0.856   0.747 -0.1212  0.1930 -0.3480
 6000TIP3    H118006   1.849   0.888   0.835  1.2938  1.7444 -0.5370
 6000TIP3    H218007   1.788   0.813   0.717 -1.2067  1.2350  1.0076
 6001TIP3   OH218008   6.298   1.066   0.934  0.2098  0.0254 -0.0819
 6001TIP3    H118009   6.267   1.110   0.855 -1.9425 -0.0725  0.6547
 6001TIP3    H218010   6.315   0.976   0.907 -2.5918 -0.6031 -0.0713
 6002TIP3   OH218011   4.254   0.179   1.937  0.2448  0.3077  0.2296
 6002TIP3    H118012   4.301   0.151   1.858  1.9382 -0.5739  1.5038
 6002TIP3    H218013   4.315   0.237   1.982 -0.9115  1.2232  0.6715
 6003TIP3   OH218014   3.170   4.413   0.245  0.0784 -0.1820  0.5894
 6003TIP3    H118015   3.233   4.436   0.313  0.2273 -1.4639  0.9011
 6003TIP3    H218016   3.154   4.320   0.256  1.4259 -0.8722 -2.1867
 6004TIP3   OH218017   2.791   5.728   2.239 -0.3353 -0.1370  0.3363
 6004TIP3    H118018   2.784   5.820   2.215 -1.1424  0.1211  1.5116
 6004TIP3    H218019   2.862   5.694   2.183 -0.4131  1.0402 -0.5052
 6005TIP3   OH218020   6.182   5.861   4.272  0.1396  0.1347  0.0340
 6005TIP3    H118021   6.214   5.942   4.311  0.1666  0.7607 -1.2421
 6005TIP3    H218022   6.203   5.869   4.179  0.0957 -1.3203 -0.1233
 6006TIP3   OH218023   0.912   0.696   2.982 -0.8174 -0.1305  0.1847
 6006TIP3    H118024   0.959   0.661   3.058 -1.4159 -0.8027  0.2565
 6006TIP3    H218025   0.980   0.712   2.917 -0.4362 -0.7025  0.4341
 6007TIP3   OH218026   0.571   2.028   0.633  0.1301  0.0749  0.6093
 6007TIP3    H118027   0.619   2.109   0.648  1.1903 -0.5910  0.9820
 6007TIP3    H218028   0.582   2.010   0.540  2.4090 -1.1178  1.0392
 6008TIP3   OH218029   2.155   4.309   0.848 -0.0468 -1.1473  0.2157
 6008TIP3    H118030   2.230   4.269   0.891  2.4043  1.9827 -0.7619
 6008TIP3    H218031   2.079   4.274   0.895  2.0442 -3.3866  2.1965
 6009TIP3   OH218032   4.254   4.531   2.540 -0.0319  0.2728  0.2616
 6009TIP3    H118033   4.283   4.456   2.590 -0.6346 -0.6989 -0.8014
 6009TIP3    H218034   4.230   4.495   2.455 -2.3768  1.3252  0.4179
 6010TIP3   OH218035   2.968   5.069   4.712  0.2925 -0.0510  0.4136
 6010TIP3    H118036   2.893   5.049   4.656  0.6681  0.7955 -0.4093
 6010TIP3    H218037   3.038   5.094   4.652  0.3663  2.0343  1.2653
 6011TIP3   OH218038   3.505   4.694   3.946 -0.2475 -0.3200  0.5773
 6011TIP3    H118039   3.416   4.659   3.943 -0.6539  0.7785 -1.5277
 6011TIP3    H218040   3.529   4.708   3.855  1.5305  0.8073  1.1659
 6012TIP3   OH218041   5.056   2.364   1.726  0.0416  0.2280 -0.3215
 6012TIP3    H118042   5.115   2.421   1.777 -0.5344 -0.1771  0.8310
 6012TIP3    H218043   4.990   2.423   1.691  0.9809  0.6564 -1.4477
 6013TIP3   OH218044   2.946   1.853   1.145 -0.1391  0.3023  0.5291
 6013TIP3    H118045   2.865   1.903   1.158  0.3612  1.0106  0.9433
 6013TIP3    H218046   2.991   1.898   1.074  0.3976  0.5625  1.0227
 6014TIP3   OH218047   3.621   1.222   0.117 -0.3767 -0.0603 -0.0575
 6014TIP3    H118048   3.642   1.290   0.052 -1.1428  0.0560 -0.2008
 6014TIP3    H218049   3.637   1.140   0.072  0.9141  0.0129  0.2367
 6015TIP3   OH218050   4.196   1.482   4.688  0.6114  0.5239 -0.1203
 6015TIP3    H118051   4.171   1.476   4.780  0.2500 -1.2587 -0.3059
 6015TIP3    H218052   4.175   1.572   4.663 -1.6451  0.3297  0.8736
 6016TIP3   OH218053   4.948   3.309   2.687 -0.1233  0.1626 -0.0964
 6016TIP3    H118054   4.865   3.352   2.667  0.5399  1.3764 -0.3604
 6016TIP3    H218055   4.990   3.367   2.751 -0.0613 -1.1467  1.1058
 6017TIP3   OH218056   5.105   5.321   4.404  0.2541 -0.2110 -0.1689
 6017TIP3    H118057   5.101   5.259   4.477 -0.6769 -0.4432 -0.4131
 6017TIP3    H218058   5.017   5.356   4.397  0.8314  1.4349  0.1865
 6018TIP3   OH218059   1.268   5.789   3.190  0.3979 -0.2641 -0.1981
 6018TIP3    H118060   1.291   5.768   3.099  0.1379 -0.9493 -0.1168
 6018TIP3    H218061   1.192   5.846   3.183  0.7792  0.2219 -0.4225
 6019TIP3   OH218062   4.758   2.714   1.807 -0.1180 -0.5571  0.1275
 6019TIP3    H118063   4.664   2.733   1.804 -0.0638 -0.4053 -1.6315
 6019TIP3    H218064   4.794   2.780   1.866 -1.0379 -0.2173  0.3244
 6020TIP3   OH218065   4.230   3.600   2.955 -0.0259  0.4818  0.4481
 6020TIP3    H118066   4.233   3.589   3.051  1.1941 -1.5534  0.2454
 6020TIP3    H218067   4.258   3.515   2.921 -0.4166  1.1779 -1.7388
 6021TIP3   OH218068   2.986   5.694   0.408  0.8481  0.1564  0.0852
 6021TIP3    H118069   3.041   5.616   0.400  0.6133 -0.0683  0.6540
 6021TIP3    H218070   3.034   5.762   0.360 -0.6431 -1.1945 -3.6863
 6022TIP3   OH218071   4.900   1.209   0.445 -0.1275 -0.5010  0.7503
 6022TIP3    H118072   4.869   1.174   0.361 -2.0992  0.0454  1.2047
 6022TIP3    H218073   4.911   1.302   0.430  0.1982 -0.5083  0.9277
 6023TIP3   OH218074   3.319   5.655   1.308  0.5044  0.2800  0.4399
 6023TIP3    H118075   3.250   5.635   1.371  0.3333 -0.9749 -0.1215
 6023TIP3    H218076   3.364   5.731   1.345 -0.8672  0.8211  1.0573
 6024TIP3   OH218077   4.059   0.038   2.300 -0.9595  0.4613 -0.1868
 6024TIP3    H118078   4.091   0.014   2.387  0.0610 -0.6140 -0.8306
 6024TIP3    H218079   4.073   0.133   2.295  0.2233  0.3293  0.3228
 6025TIP3   OH218080   0.227   1.053   0.044 -0.1106  0.4074  0.0869
 6025TIP3    H118081   0.195   0.963   0.039 -0.7205  0.5638  1.0152
 6025TIP3    H218082   0.214   1.087  -0.045  0.5585 -0.5461 -0.4002
 6026TIP3   OH218083   6.132   0.644   2.249  0.1679 -0.6344  0.4009
 6026TIP3    H118084   6.216   0.687   2.265 -0.3536  0.3793  0.4808
 6026TIP3    H218085   6.120   0.585   2.324  1.3773 -1.7220 -0.2306
 6027TIP3   OH218086   2.536   1.012   0.265  0.4219  0.6441 -0.1370
 6027TIP3    H118087   2.557   0.931   0.218  1.5504  0.3277  0.8613
 6027TIP3    H218088   2.457   1.044   0.222  0.6089 -0.3656 -1.3187
 6028TIP3   OH218089   1.397   5.079   1.947 -0.2182 -0.0970  0.3564
 6028TIP3    H118090   1.404   4.984   1.944  0.7999 -0.1158  1.9934
 6028TIP3    H218091   1.332   5.100   1.880  0.2065 -1.8490 -0.6706
 6029TIP3   OH218092   0.084   0.537   1.801  0.1297 -0.0884 -0.6542
 6029TIP3    H118093  -0.010   0.523   1.791  0.2869 -2.4089  0.4738
 6029TIP3    H218094   0.092   0.587   1.882 -0.1393  0.8921 -1.2126
 6030TIP3   OH218095   4.935   2.285   4.445 -0.1556 -0.2630 -0.0486
 6030TIP3    H118096   4.874   2.222   4.483  1.1455 -2.2518 -1.0877
 6030TIP3    H218097   5.004   2.296   4.511  0.9119 -1.9422 -0.8142
 6031TIP3   OH218098   1.939   2.428   4.453  0.1756 -0.6054 -0.2844
 6031TIP3    H118099   1.977   2.399   4.536 -0.0024 -0.3730 -0.1204
 6031TIP3    H218100   2.014   2.434   4.394  0.1765 -1.6792 -0.4093
 6032TIP3   OH218101   2.599   0.864   3.885 -0.1336  0.2061  0.5895
 6032TIP3    H118102   2.660   0.926   3.924 -1.1031  0.6853  1.3931
 6032TIP3    H218103   2.512   0.897   3.909 -0.7346 -0.2101 -0.9044
 6033TIP3   OH218104   4.848   3.733   3.328 -0.6360  0.1970  0.0722
 6033TIP3    H118105   4.781   3.776   3.275  0.8344  2.3089 -0.1681
 6033TIP3    H218106   4.803   3.656   3.364 -2.0483 -0.6557 -3.1530
 6034TIP3   OH218107   0.418   5.861   1.137 -0.4377  0.4803  0.2083
 6034TIP3    H118108   0.354   5.840   1.069  0.7670 -1.1327 -0.4992
 6034TIP3    H218109   0.475   5.785   1.140  0.0332  0.8553  2.5021
 6035TIP3   OH218110   4.072   3.853   1.774 -0.7389 -0.0132 -0.1521
 6035TIP3    H118111   4.119   3.775   1.803  0.6163  1.1103  0.8271
 6035TIP3    H218112   4.107   3.871   1.687 -1.7974 -1.0312 -0.8234
 6036TIP3   OH218113   6.234   3.913   4.934  0.4354  0.0805 -0.4975
 6036TIP3    H118114   6.275   3.977   4.992 -1.1761  0.5662  0.1705
 6036TIP3    H218115   6.145   3.905   4.967  0.1781 -1.4344 -1.4730
 6037TIP3   OH218116   0.399   2.606   1.542  0.4360 -0.3707  0.0986
 6037TIP3    H118117   0.346   2.526   1.539  1.7176 -1.2257 -0.6543
 6037TIP3    H218118   0.335   2.677   1.549 -0.7314 -1.4540  0.7050
 6038TIP3   OH218119   3.700   3.842   0.971 -0.1028  0.3547  0.4842
 6038TIP3    H118120   3.756   3.893   1.029  1.5896 -1.1376  0.2279
 6038TIP3    H218121   3.631   3.807   1.028  0.2937  0.6626  1.1650
 6039TIP3   OH218122   2.494   5.541   0.168 -0.3819 -0.4042  0.1292
 6039TIP3    H118123   2.586   5.542   0.194  0.8150 -1.8682 -3.5391
 6039TIP3    H218124   2.467   5.632   0.172  1.1676  0.0469  1.3078
 6040TIP3   OH218125   1.837   1.506   2.663 -0.0692 -0.4702 -0.1742
 6040TIP3    H118126   1.767   1.442   2.680  0.1463 -0.7575 -0.3510
 6040TIP3    H218127   1.791   1.589   2.651 -0.3513 -0.5838  0.0994
 6041TIP3   OH218128   5.393   4.727   3.399  0.3367  1.0108 -0.0276
 6041TIP3    H118129   5.431   4.640   3.402 -0.0732  0.8344  0.0938
 6041TIP3    H218130   5.398   4.752   3.307  0.0827  0.6919 -0.1294
 6042TIP3   OH218131   1.355   5.879   1.339  0.1601 -0.6356 -0.5157
 6042TIP3    H118132   1.278   5.853   1.289 -1.0072 -0.6866  1.2469
 6042TIP3    H218133   1.321   5.916   1.420  1.9800 -0.0608  0.0491
 6043TIP3   OH218134   3.597   0.387   5.193  0.1609  0.0648 -0.1366
 6043TIP3    H118135   3.674   0.332   5.177  0.7093  0.6910  0.3037
 6043TIP3    H218136   3.563   0.407   5.105  0.3653 -0.3998 -0.3246
 6044TIP3   OH218137   2.580   5.317   4.356  0.3994  0.0444 -0.1726
 6044TIP3    H118138   2.536   5.354   4.432 -0.5853 -0.3227 -0.5478
 6044TIP3    H218139   2.563   5.223   4.362  0.7613 -0.0500 -0.5686
 6045TIP3   OH218140   5.252   2.601   0.435 -0.3661  0.1651  0.0898
 6045TIP3    H118141   5.290   2.569   0.354  1.2977  1.2000  0.4182
 6045TIP3    H218142   5.245   2.524   0.492  0.2854 -0.2161 -0.3452
 6046TIP3   OH218143   4.926   5.936   4.614 -0.0431 -0.3970 -0.5002
 6046TIP3    H118144   4.943   5.842   4.622  1.7470 -0.1203 -0.5624
 6046TIP3    H218145   4.854   5.953   4.674  1.2273 -1.4122  1.4362
 6047TIP3   OH218146   0.918   3.216   1.724 -0.0984  0.3180 -0.4922
 6047TIP3    H118147   0.913   3.212   1.819  0.1835  2.7704 -0.3326
 6047TIP3    H218148   0.834   3.179   1.694 -0.7040  0.6403  0.7486
 6048TIP3   OH218149   1.233   3.607   1.681 -0.4466  0.6361  0.4491
 6048TIP3    H118150   1.176   3.546   1.728 -0.6139  0.3402 -0.1354
 6048TIP3    H218151   1.196   3.693   1.698 -0.3761  0.5531  1.0413
 6049TIP3   OH218152   1.933   2.895   2.649 -0.0795  0.0129 -0.0324
 6049TIP3    H118153   2.002   2.873   2.586  0.1935 -0.4127  0.4043
 6049TIP3    H218154   1.979   2.940   2.720 -0.3309  0.1816  0.0225
 6050TIP3   OH218155   5.282   2.393   4.300 -0.5974  1.0885 -0.0893
 6050TIP3    H118156   5.311   2.385   4.391  0.0556 -1.3002 -0.4461
 6050TIP3    H218157   5.187   2.383   4.305 -0.6202  1.4854  0.3638
 6051TIP3   OH218158   3.400   2.987   4.360 -0.7198  0.3408 -0.4894
 6051TIP3    H118159   3.320   2.992   4.413 -0.0234  0.7189  0.5653
 6051TIP3    H218160   3.458   2.931   4.411  0.8561  2.6455  0.4109
 6052TIP3   OH218161   2.031   1.853   0.849  0.2913 -0.0157  0.5304
 6052TIP3    H118162   1.977   1.825   0.922 -1.4853 -0.5612 -0.9328
 6052TIP3    H218163   2.118   1.816   0.868 -1.0130 -3.3890  0.5560
 6053TIP3   OH218164   2.272   0.743   2.834  0.3531  0.3581  0.0157
 6053TIP3    H118165   2.222   0.667   2.862 -0.8701  0.5455 -1.5296
 6053TIP3    H218166   2.326   0.765   2.910  0.3640 -1.7083  0.6824
 6054TIP3   OH218167   4.982   0.398   1.721 -0.1209 -0.0217  1.0198
 6054TIP3    H118168   5.047   0.440   1.777  0.2451 -0.2418  0.7629
 6054TIP3    H218169   5.032   0.366   1.646 -0.8240  1.6220 -0.2158
 6055TIP3   OH218170   1.984   4.547   4.262  0.5056  0.3102 -0.1534
 6055TIP3    H118171   1.998   4.611   4.193  2.9589 -0.1123 -0.1517
 6055TIP3    H218172   1.917   4.586   4.318  0.0900  1.6704 -1.5244
 6056TIP3   OH218173   0.344   1.612   1.783 -0.4492  0.0769  0.1481
 6056TIP3    H118174   0.359   1.609   1.877  0.0026 -1.6791  0.0569
 6056TIP3    H218175   0.304   1.528   1.763  0.8755 -0.2321 -1.4360
 6057TIP3   OH218176   1.652   2.533   3.850 -0.6782 -0.8515 -0.4777
 6057TIP3    H118177   1.676   2.448   3.812 -1.2010 -0.7065 -1.1604
 6057TIP3    H218178   1.734   2.569   3.882 -0.3841 -1.4390 -0.5542
 6058TIP3   OH218179   0.510   3.891   3.090 -0.0459  0.1159  0.3141
 6058TIP3    H118180   0.480   3.828   3.156 -1.1509 -0.0989 -0.3718
 6058TIP3    H218181   0.583   3.847   3.047 -0.5861 -0.5614  0.0791
 6059TIP3   OH218182   5.790   4.983   3.903  0.0833 -0.3105 -0.6110
 6059TIP3    H118183   5.835   5.026   3.831  0.4295 -0.6713 -0.6096
 6059TIP3    H218184   5.698   5.009   3.893  0.0111 -0.9037 -1.5758
 6060TIP3   OH218185   4.008   1.129   3.768  0.1139  0.3948  0.5419
 6060TIP3    H118186   4.100   1.130   3.742 -0.5376  1.7613 -2.1170
 6060TIP3    H218187   3.962   1.094   3.692 -1.6842  1.0630  1.2726
 6061TIP3   OH218188   3.840   5.284   2.372  0.0096  0.0360 -0.3040
 6061TIP3    H118189   3.870   5.230   2.298  0.3061  0.1509 -0.2711
 6061TIP3    H218190   3.917   5.291   2.428  0.6181  2.2252 -1.3252
 6062TIP3   OH218191   0.433   2.193   1.989  0.1808  0.4781  0.4396
 6062TIP3    H118192   0.422   2.235   1.904  0.0996  1.6469  1.0017
 6062TIP3    H218193   0.491   2.252   2.038 -1.9651  1.3008  2.1421
 6063TIP3   OH218194   2.636   5.537   3.665 -0.3081  0.4629  0.0510
 6063TIP3    H118195   2.567   5.542   3.599 -1.5537 -0.4955  1.2572
 6063TIP3    H218196   2.717   5.544   3.614 -1.2390  0.2458 -1.5290
 6064TIP3   OH218197   4.269   1.859   1.932  0.5714 -0.0268 -0.4979
 6064TIP3    H118198   4.255   1.953   1.936  0.1220 -0.1266  0.6500
 6064TIP3    H218199   4.317   1.838   2.013 -0.7031 -0.9847  0.0599
 6065TIP3   OH218200   0.582   4.639   1.238 -0.1253 -0.1436  0.3789
 6065TIP3    H118201   0.486   4.644   1.244 -0.0562  0.8167  0.8953
 6065TIP3    H218202   0.601   4.545   1.231 -1.0056 -0.4932  2.0665
 6066TIP3   OH218203   2.603   5.533   2.966  0.0766  0.0245 -0.0808
 6066TIP3    H118204   2.601   5.588   2.888  0.3890 -1.7095 -1.3723
 6066TIP3    H218205   2.648   5.453   2.938 -2.6709 -2.0391  0.9184
 6067TIP3   OH218206   3.109   5.412   1.496  0.5627  0.1101  0.3573
 6067TIP3    H118207   3.067   5.351   1.557 -0.5266  0.0458 -0.4240
 6067TIP3    H218208   3.074   5.498   1.519 -0.9355 -0.0827 -1.0114
 6068TIP3   OH218209   4.440   5.496   2.519 -0.6132  0.1295  0.2732
 6068TIP3    H118210   4.390   5.464   2.595 -1.4543  0.5027 -0.1162
 6068TIP3    H218211   4.444   5.421   2.460  0.5277 -0.3371  0.9112
 6069TIP3   OH218212   3.681   4.291   4.014 -0.5953  0.9057 -0.2789
 6069TIP3    H118213   3.685   4.226   3.944 -1.1904  0.0319  0.4626
 6069TIP3    H218214   3.745   4.260   4.079 -1.0729  0.8966  0.1988
 6070TIP3   OH218215   3.653   1.706   4.430 -0.3368 -0.4549  0.3805
 6070TIP3    H118216   3.580   1.743   4.380  0.1337 -1.6932 -1.3154
 6070TIP3    H218217   3.676   1.627   4.382  1.2068 -0.8382  1.7012
 6071TIP3   OH218218   2.403   3.612   3.564 -0.7715  0.7812  0.3347
 6071TIP3    H118219   2.378   3.528   3.526 -1.1742  0.8558  0.4278
 6071TIP3    H218220   2.337   3.628   3.633 -0.0045  0.5956  1.1275
 6072TIP3   OH218221   1.448   1.335   1.506 -0.4374 -0.0740 -0.1004
 6072TIP3    H118222   1.526   1.308   1.456  0.1688 -2.2074  1.8097
 6072TIP3    H218223   1.468   1.424   1.535  0.9786 -0.3043 -0.2797
 6073TIP3   OH218224   0.631   5.673   3.411 -0.1870 -0.0180  0.1162
 6073TIP3    H118225   0.541   5.659   3.383 -0.9622  0.8113  2.0271
 6073TIP3    H218226   0.672   5.587   3.406 -0.7115 -0.2082 -1.8578
 6074TIP3   OH218227   4.758   1.203   1.462 -0.4625  0.2191  0.0404
 6074TIP3    H118228   4.796   1.285   1.493 -0.5284  1.2943 -2.4652
 6074TIP3    H218229   4.832   1.144   1.454 -0.3362  0.1682  1.3433
 6075TIP3   OH218230   3.620   3.243   3.506 -0.2452 -0.1129 -0.5516
 6075TIP3    H118231   3.611   3.315   3.568  0.6790 -0.5449  0.1098
 6075TIP3    H218232   3.540   3.245   3.454 -0.4830  1.0281 -0.1580
 6076TIP3   OH218233   3.584   3.933   1.635  0.0254  0.4165  0.4535
 6076TIP3    H118234   3.521   3.863   1.651  1.2108 -1.4776 -2.4356
 6076TIP3    H218235   3.666   3.901   1.673  0.0574  1.4070  1.2837
 6077TIP3   OH218236   3.604   4.358   1.306 -0.6810  0.4956 -0.3221
 6077TIP3    H118237   3.626   4.446   1.277 -0.5889  0.7187  0.3941
 6077TIP3    H218238   3.649   4.300   1.244  0.3363  0.9552 -0.0367
 6078TIP3   OH218239   4.046   0.808   4.768 -0.2212  0.1937  0.1691
 6078TIP3    H118240   4.023   0.891   4.727  0.6201 -0.2639 -1.2901
 6078TIP3    H218241   4.135   0.790   4.739  0.7572  0.2019  2.8480
 6079TIP3   OH218242   3.825   5.305   1.456  0.2306  1.0014  0.2555
 6079TIP3    H118243   3.829   5.329   1.363  0.1197  0.6114  0.1474
 6079TIP3    H218244   3.766   5.229   1.459 -1.9769  2.6624  1.0002
 6080TIP3   OH218245   3.336   5.126   3.784  0.3700  0.0662 -0.1674
 6080TIP3    H118246   3.246   5.102   3.765  0.4953 -0.5933  0.0421
 6080TIP3    H218247   3.356   5.084   3.868  1.6111 -1.8038 -1.3316
 6081TIP3   OH218248   1.563   3.644   3.722  0.3225 -0.0218  0.2424
 6081TIP3    H118249   1.479   3.610   3.690 -0.2369  1.8263 -0.3723
 6081TIP3    H218250   1.548   3.665   3.814  0.1925  0.0240  0.2109
 6082TIP3   OH218251   1.040   4.092   4.444 -0.1004  0.0925  0.0000
 6082TIP3    H118252   0.990   4.011   4.429 -0.3425  0.6018 -2.3973
 6082TIP3    H218253   1.101   4.096   4.370  2.4133  0.3638  1.9404
 6083TIP3   OH218254   6.127   1.821   0.349  0.0502 -0.4438 -0.3022
 6083TIP3    H118255   6.182   1.888   0.388 -0.6871  1.1944 -1.9206
 6083TIP3    H218256   6.188   1.763   0.304  0.6170 -0.2372  0.1855
 6084TIP3   OH218257   3.169   1.600   1.705 -0.1780  0.3896  0.2904
 6084TIP3    H118258   3.253   1.560   1.725  0.1372  0.5528 -0.6690
 6084TIP3    H218259   3.170   1.683   1.752 -0.8505 -0.7017  2.3229
 6085TIP3   OH218260   6.115   0.890   1.802  0.0755 -0.0440 -0.1163
 6085TIP3    H118261   6.101   0.836   1.880  0.9393 -0.1984 -0.0513
 6085TIP3    H218262   6.171   0.837   1.745 -0.1984  0.2389 -0.6534
 6086TIP3   OH218263   4.708   2.593   0.370 -1.0190  0.0789  0.6611
 6086TIP3    H118264   4.778   2.544   0.413 -0.0332  1.1391  0.3180
 6086TIP3    H218265   4.742   2.609   0.282 -0.9241  2.1007  1.0241
 6087TIP3   OH218266   4.789   0.265   2.251 -0.3910 -0.6232  0.3349
 6087TIP3    H118267   4.796   0.359   2.268 -1.2452 -0.2068 -1.4229
 6087TIP3    H218268   4.770   0.258   2.158  0.8067 -2.6124  0.1784
 6088TIP3   OH218269   3.754   1.804   1.571 -0.0315  0.3121  0.7196
 6088TIP3    H118270   3.725   1.713   1.585 -0.4323  0.4423  0.7571
 6088TIP3    H218271   3.722   1.825   1.483  0.5157  0.2466  0.5022
 6089TIP3   OH218272   1.134   2.851  -0.023 -0.3885  0.5088  0.6807
 6089TIP3    H118273   1.159   2.932   0.021  1.7587  0.6152 -0.5747
 6089TIP3    H218274   1.057   2.820   0.025 -1.1093  3.1096  1.3721
 6090TIP3   OH218275   4.310   0.678   0.113 -0.0925  0.2899 -0.0169
 6090TIP3    H118276   4.232   0.699   0.164 -0.3040  0.6353 -0.4810
 6090TIP3    H218277   4.277   0.661   0.025  0.5669  2.7204 -0.8164
 6091TIP3   OH218278   6.258   3.765   1.223  0.3527 -0.2409  0.2557
 6091TIP3    H118279   6.202   3.687   1.229  0.1379 -0.2291 -1.1770
 6091TIP3    H218280   6.235   3.817   1.300 -0.3874 -1.0271  0.5862
 6092TIP3   OH218281   1.305   1.016   4.585 -0.5394  0.0595  0.3618
 6092TIP3    H118282   1.313   1.102   4.627 -0.0766  0.2044  0.0007
 6092TIP3    H218283   1.356   0.957   4.640 -0.1208  0.2020  0.1300
 6093TIP3   OH218284   4.003   5.898   2.992 -0.2407  0.1328 -0.2181
 6093TIP3    H118285   3.987   5.949   2.913 -2.0195 -0.3642 -0.2079
 6093TIP3    H218286   4.023   5.964   3.059 -1.9661  0.8266 -0.3331
 6094TIP3   OH218287   4.750   2.443   1.849  0.4262  0.2083  0.3799
 6094TIP3    H118288   4.674   2.453   1.905  0.3939 -0.0187  0.3771
 6094TIP3    H218289   4.774   2.532   1.824  0.3381  0.2963  0.6160
 6095TIP3   OH218290   3.970   0.079   1.049 -0.8790 -0.5179  0.7417
 6095TIP3    H118291   4.029   0.154   1.034  0.0200 -1.2167  0.7102
 6095TIP3    H218292   3.888   0.119   1.078 -0.6644  0.5304 -0.0143
 6096TIP3   OH218293   4.702   1.118   2.303  0.1674 -0.7674  0.2498
 6096TIP3    H118294   4.614   1.082   2.297  0.4534 -1.3770 -0.4999
 6096TIP3    H218295   4.715   1.166   2.221 -0.2643  1.2428  1.3016
 6097TIP3   OH218296   5.321   4.156   4.755 -0.4973  0.4450 -0.7747
 6097TIP3    H118297   5.402   4.107   4.740 -0.2513  1.4347 -3.1752
 6097TIP3    H218298   5.255   4.107   4.705 -0.7692  1.1385 -1.1093
 6098TIP3   OH218299   2.388   3.915   3.540 -0.6143  0.3288  0.1825
 6098TIP3    H118300   2.427   3.828   3.548 -0.9095 -0.0889 -2.2041
 6098TIP3    H218301   2.308   3.900   3.490 -1.0881  1.8780  0.4406
 6099TIP3   OH218302   3.147   1.857   1.835  0.5456 -0.1584 -0.5452
 6099TIP3    H118303   3.227   1.908   1.848  1.5964 -1.5912 -1.1047
 6099TIP3    H218304   3.099   1.867   1.918  1.3115  0.6807 -0.1775
 6100TIP3   OH218305   0.246   3.542   2.830 -0.0067  0.1700  0.5018
 6100TIP3    H118306   0.190   3.601   2.780  2.0818  3.1218  1.3638
 6100TIP3    H218307   0.211   3.544   2.919 -0.2997 -0.4185  0.4032
 6101TIP3   OH218308   0.527   2.173   3.603  0.0774  0.0483 -0.0835
 6101TIP3    H118309   0.506   2.157   3.695  0.8171  3.4634  0.8279
 6101TIP3    H218310   0.476   2.108   3.555 -0.3082 -1.8847  2.6994
 6102TIP3   OH218311   5.847   0.297   0.742 -0.2967  0.2557 -0.8670
 6102TIP3    H118312   5.899   0.217   0.750 -2.1275 -0.8955  0.2026
 6102TIP3    H218313   5.908   0.367   0.763  0.8576 -1.0226  0.2372
 6103TIP3   OH218314   2.089   5.547   3.113  0.0083  0.2244  0.0658
 6103TIP3    H118315   2.050   5.515   3.032  0.0168 -2.3262  0.9836
 6103TIP3    H218316   2.018   5.543   3.177  0.5538  0.1335  0.6695
 6104TIP3   OH218317   1.022   5.517   4.174 -0.6478 -0.0942  0.2305
 6104TIP3    H118318   0.968   5.448   4.135 -1.0941  0.8167 -0.8189
 6104TIP3    H218319   0.972   5.546   4.250 -0.6171 -0.6948  0.4860
 6105TIP3   OH218320   0.492   0.808   3.466 -0.2168 -0.0255  0.7987
 6105TIP3    H118321   0.550   0.739   3.432 -1.0269 -1.4356  2.1445
 6105TIP3    H218322   0.490   0.873   3.396  2.4691 -0.1954  0.4474
 6106TIP3   OH218323   0.117   3.926   3.922  0.2150  0.0593  0.8603
 6106TIP3    H118324   0.055   3.871   3.970  0.3050 -1.3505 -0.5389
 6106TIP3    H218325   0.088   4.016   3.938 -1.9649 -0.5501  0.5728
 6107TIP3   OH218326   0.835   1.836   2.990  0.2120  0.3447  0.2500
 6107TIP3    H118327   0.827   1.865   2.899 -2.3735  0.1934  0.3628
 6107TIP3    H218328   0.897   1.763   2.986  1.9492  1.7608 -0.9748
 6108TIP3   OH218329   4.575   0.265   4.044 -0.0183  0.3694  0.2485
 6108TIP3    H118330   4.639   0.196   4.062  0.3351  0.1146 -1.7161
 6108TIP3    H218331   4.491   0.219   4.037  0.1862  0.1462 -0.8633
 6109TIP3   OH218332   4.441   3.647   4.264  0.1313  0.2562  0.0313
 6109TIP3    H118333   4.410   3.697   4.188 -0.3717  0.7342  0.5419
 6109TIP3    H218334   4.482   3.713   4.320 -2.0105  0.4615  1.5099
 6110TIP3   OH218335   3.317   4.227   0.629  0.1895  0.5051 -0.5440
 6110TIP3    H118336   3.316   4.172   0.707  1.1553 -0.7216 -1.3513
 6110TIP3    H218337   3.261   4.302   0.651  0.3026  0.1039  1.2373
 6111TIP3   OH218338   1.380   4.632   4.152 -0.5219 -0.0057  0.3798
 6111TIP3    H118339   1.452   4.629   4.090 -1.3626 -0.6342 -0.6071
 6111TIP3    H218340   1.380   4.722   4.185  0.2301  0.2011 -0.1692
 6112TIP3   OH218341   4.658   3.557   4.823 -0.6842 -0.2370 -0.2543
 6112TIP3    H118342   4.592   3.488   4.837 -1.9181  0.8165 -0.6648
 6112TIP3    H218343   4.668   3.561   4.728  0.9810 -1.2711 -0.1538
 6113TIP3   OH218344   0.122   0.454   4.641 -0.1049  0.4197 -0.1572
 6113TIP3    H118345   0.080   0.465   4.555  1.3000  0.0261 -0.9222
 6113TIP3    H218346   0.215   0.470   4.624  0.1764  0.4457  1.3276
 6114TIP3   OH218347   2.412   0.367   1.957  0.0355 -0.4929 -0.2256
 6114TIP3    H118348   2.434   0.367   2.050 -1.0140  0.5471  0.0490
 6114TIP3    H218349   2.475   0.428   1.918 -0.8358  0.7165  0.1832
 6115TIP3   OH218350   4.224   0.542   4.548  0.3289  0.3001 -0.2054
 6115TIP3    H118351   4.311   0.544   4.507  0.4111  0.2212 -0.0335
 6115TIP3    H218352   4.222   0.459   4.595  0.3166  0.4930  0.1322
 6116TIP3   OH218353   0.401   3.202   1.125 -1.0528 -0.0978 -0.0821
 6116TIP3    H118354   0.333   3.249   1.173 -0.5372  1.0910 -0.4698
 6116TIP3    H218355   0.385   3.224   1.033 -2.5383 -3.0121 -0.6336
 6117TIP3   OH218356   4.674   1.451   3.698 -0.1831  0.6480  0.4929
 6117TIP3    H118357   4.628   1.477   3.618 -0.0470  1.8842  0.7965
 6117TIP3    H218358   4.611   1.468   3.768  0.2438  1.0563  0.7831
 6118TIP3   OH218359   5.007   1.128   3.117  0.0921 -0.2895 -0.3688
 6118TIP3    H118360   5.050   1.059   3.066 -0.4735  0.0438 -1.3302
 6118TIP3    H218361   4.930   1.084   3.154  0.0963 -0.3438 -0.4235
 6119TIP3   OH218362   2.817   3.785   4.717 -0.0062 -0.1067 -0.4237
 6119TIP3    H118363   2.849   3.736   4.792  1.4320 -0.1070 -0.9990
 6119TIP3    H218364   2.740   3.832   4.749  0.9841  0.4486  1.2311
 6120TIP3   OH218365   5.193   4.193   1.781 -0.2131 -0.0336 -0.0504
 6120TIP3    H118366   5.264   4.130   1.782 -0.2274 -0.0564 -0.3571
 6120TIP3    H218367   5.214   4.252   1.709 -1.8251 -1.5785 -1.8867
 6121TIP3   OH218368   6.214   3.211   2.306  0.0674  0.2303 -0.1357
 6121TIP3    H118369   6.150   3.148   2.339 -0.2351  0.7559  0.3071
 6121TIP3    H218370   6.163   3.289   2.287  0.5411  0.5846  0.0250
 6122TIP3   OH218371   0.865   4.382   3.233 -0.5613 -0.2781  0.3985
 6122TIP3    H118372   0.826   4.367   3.147  0.9484 -0.9154 -0.2088
 6122TIP3    H218373   0.926   4.454   3.219  1.5024 -1.9651  0.3045
 6123TIP3   OH218374   0.869   2.481   4.023  0.3323 -0.0576  0.5844
 6123TIP3    H118375   0.870   2.539   4.099  0.7935  1.1198 -0.2833
 6123TIP3    H218376   0.939   2.514   3.967  0.2642 -1.1564 -0.1762
 6124TIP3   OH218377   4.083  -0.009   2.029  0.4337  0.3628 -0.0298
 6124TIP3    H118378   4.064   0.007   2.121  0.6614  2.4163 -0.2875
 6124TIP3    H218379   4.150   0.056   2.007  3.0218 -2.3607 -0.7800
 6125TIP3   OH218380   5.124   5.175   4.640 -0.3275 -0.2685 -0.0642
 6125TIP3    H118381   5.069   5.160   4.717  0.2976 -1.7153  0.1314
 6125TIP3    H218382   5.140   5.088   4.604  1.3666  0.1529 -0.4357
 6126TIP3   OH218383   1.774   3.143   4.397  0.2882  0.2630 -0.7589
 6126TIP3    H118384   1.719   3.160   4.474  0.4032  0.0669 -0.6342
 6126TIP3    H218385   1.738   3.201   4.329  1.5114  2.0599  0.0358
 6127TIP3   OH218386   4.680   0.841   3.293  0.2541 -0.0427 -0.0893
 6127TIP3    H118387   4.702   0.769   3.234 -0.7049 -0.9027  0.5783
 6127TIP3    H218388   4.629   0.801   3.363  0.1939  1.1916  0.6095
 6128TIP3   OH218389   5.564   4.955   1.675 -0.1533  0.3670 -0.0354
 6128TIP3    H118390   5.641   4.993   1.633 -1.4458  0.8415 -2.1052
 6128TIP3    H218391   5.502   5.028   1.683 -0.4903 -0.0351  1.4723
 6129TIP3   OH218392   2.587   2.470   5.013  0.2901 -0.0712 -0.2984
 6129TIP3    H118393   2.615   2.519   4.935  0.7804 -1.5463 -1.0837
 6129TIP3    H218394   2.665   2.468   5.069  0.2583  0.0641 -0.2485
 6130TIP3   OH218395   3.570   1.607   3.796  0.6575  0.3568 -0.6151
 6130TIP3    H118396   3.538   1.635   3.882 -0.7096 -2.2141 -0.1862
 6130TIP3    H218397   3.663   1.629   3.797  0.5467  0.9548  1.2516
 6131TIP3   OH218398   3.926   2.519   4.906 -0.0804  0.2491 -0.3299
 6131TIP3    H118399   3.866   2.467   4.853  1.3857  0.1019 -1.9734
 6131TIP3    H218400   3.952   2.460   4.977 -1.2055  0.0325 -0.0784
 6132TIP3   OH218401   3.356   4.090   2.161  0.6571  0.0124 -0.2585
 6132TIP3    H118402   3.317   4.146   2.228 -1.1769 -0.3731 -0.9446
 6132TIP3    H218403   3.372   4.007   2.205  0.1364 -0.0065 -0.0955
 6133TIP3   OH218404   4.689   5.743   4.150  0.3746 -0.2796  0.3306
 6133TIP3    H118405   4.654   5.654   4.154  1.3452 -0.6987  4.2505
 6133TIP3    H218406   4.668   5.781   4.235  1.5918  2.6348 -0.5293
 6134TIP3   OH218407   3.144   0.190   0.237 -0.5358  1.0460  0.3302
 6134TIP3    H118408   3.093   0.122   0.281 -0.4972 -0.1349 -1.3443
 6134TIP3    H218409   3.094   0.270   0.250  0.0264  1.0426  3.4100
 6135TIP3   OH218410   3.064   2.102   4.325  0.0003  0.3441  0.2356
 6135TIP3    H118411   3.069   2.026   4.267 -2.0309 -0.7375  1.3854
 6135TIP3    H218412   3.154   2.135   4.329  0.7206 -1.2969 -1.1879
 6136TIP3   OH218413   2.294   2.847   3.020  0.3306  0.3925 -0.0235
 6136TIP3    H118414   2.257   2.932   3.000  1.0327  0.6951 -0.0752
 6136TIP3    H218415   2.222   2.798   3.061 -0.0977  0.9764 -0.0678
 6137TIP3   OH218416   0.332   0.521   2.028  0.1959 -0.1678  0.5434
 6137TIP3    H118417   0.301   0.431   2.019 -0.6716 -0.0732  2.2316
 6137TIP3    H218418   0.292   0.567   1.954 -0.6325 -0.8540  0.5468
 6138TIP3   OH218419   4.264   4.866   1.819 -0.3694  0.4194  0.4599
 6138TIP3    H118420   4.255   4.789   1.875  0.8214  0.2079  0.3897
 6138TIP3    H218421   4.191   4.860   1.758 -0.8260 -0.1470  1.0399
 6139TIP3   OH218422   4.489   1.442   3.476 -0.1721 -0.2881 -0.0603
 6139TIP3    H118423   4.462   1.532   3.461  1.2042  0.3303  0.9986
 6139TIP3    H218424   4.520   1.412   3.390 -0.2973  0.3714 -0.3407
 6140TIP3   OH218425   4.466   1.568   4.640 -0.1333  0.4139 -0.0751
 6140TIP3    H118426   4.485   1.596   4.730  1.5849  1.6273 -0.7576
 6140TIP3    H218427   4.375   1.538   4.643 -0.2518  0.8184  1.9657
 6141TIP3   OH218428   1.007   5.344   4.535  0.3302  0.3017 -0.7569
 6141TIP3    H118429   1.065   5.282   4.491  1.0637  0.0379  0.5424
 6141TIP3    H218430   1.038   5.347   4.625 -3.1290 -1.7151  0.7055
 6142TIP3   OH218431   5.101   0.742   3.557  0.2870 -0.1936  0.0055
 6142TIP3    H118432   5.006   0.737   3.572  0.0851  1.1006 -0.6716
 6142TIP3    H218433   5.114   0.829   3.519  1.6953 -0.5376 -0.3368
 6143TIP3   OH218434   6.186   4.583   5.113  0.0741 -0.5785  0.5325
 6143TIP3    H118435   6.211   4.664   5.157  1.2918 -0.3814 -0.4639
 6143TIP3    H218436   6.097   4.598   5.083  0.0808  0.1594  0.8567
 6144TIP3   OH218437   0.529   3.330   1.743  0.4671 -0.0742  0.3875
 6144TIP3    H118438   0.574   3.392   1.685  0.6321  0.1486  0.7457
 6144TIP3    H218439   0.568   3.245   1.722  1.1743  0.1408  0.7984
 6145TIP3   OH218440   1.463   0.802   4.040 -0.5313 -0.1430  0.0238
 6145TIP3    H118441   1.383   0.839   4.001 -0.1783  0.7259  0.0945
 6145TIP3    H218442   1.446   0.801   4.134 -0.3177  0.4250  0.0751
 6146TIP3   OH218443   4.079   4.801   5.031 -0.1046  1.1000  0.4356
 6146TIP3    H118444   4.047   4.823   5.118  0.7844  1.5443  0.6609
 6146TIP3    H218445   4.087   4.886   4.986 -1.4474  0.8024 -0.4028
 6147TIP3   OH218446   3.088   3.869   4.250 -0.2379 -0.1108 -0.5611
 6147TIP3    H118447   3.076   3.856   4.344 -1.6298 -0.3224 -0.7402
 6147TIP3    H218448   3.171   3.826   4.230  0.7432  1.0846  0.7855
 6148TIP3   OH218449   3.449   0.632   1.811 -0.2173  0.2897 -0.0781
 6148TIP3    H118450   3.425   0.711   1.763 -1.0576  0.4093  0.5341
 6148TIP3    H218451   3.380   0.620   1.875 -1.3428 -2.2101 -1.6049
 6149TIP3   OH218452   3.002   1.667   4.632  0.3947 -0.6649 -0.3624
 6149TIP3    H118453   2.991   1.723   4.709 -0.8574 -1.3864  0.0016
 6149TIP3    H218454   3.022   1.581   4.667 -1.6000 -1.3393 -0.7566
 6150TIP3   OH218455   4.783   0.571   0.283 -0.7527  0.4627  0.1208
 6150TIP3    H118456   4.846   0.641   0.299 -2.7593  1.9328  2.2457
 6150TIP3    H218457   4.711   0.613   0.236 -1.4056 -0.4634  0.2594
 6151TIP3   OH218458   3.758   5.458   0.517  0.2345  0.1652 -0.5597
 6151TIP3    H118459   3.774   5.379   0.465  0.4224 -0.6807  0.7350
 6151TIP3    H218460   3.742   5.425   0.605 -2.2343  1.3859 -0.4621
 6152TIP3   OH218461   0.983   2.775   0.215 -0.3433  0.0168 -0.3768
 6152TIP3    H118462   0.968   2.746   0.305  2.0071 -0.8966 -0.2056
 6152TIP3    H218463   1.004   2.869   0.224 -1.2237  0.1983 -0.1239
 6153TIP3   OH218464   5.274   3.649   0.377 -0.1289 -0.2994 -0.4445
 6153TIP3    H118465   5.316   3.595   0.444  0.1279 -1.2611 -1.3529
 6153TIP3    H218466   5.298   3.739   0.400  0.5724 -0.6708  0.3184
 6154TIP3   OH218467   4.021   4.592   1.408 -0.4946 -0.0673  0.6421
 6154TIP3    H118468   4.106   4.609   1.368 -0.8395 -1.1611 -0.5835
 6154TIP3    H218469   4.033   4.618   1.500  0.9038  0.5655  0.3064
 6155TIP3   OH218470   0.988   2.362   4.459 -0.0769 -0.2494 -0.2679
 6155TIP3    H118471   1.077   2.330   4.443  0.4470  1.4002 -0.8839
 6155TIP3    H218472   0.977   2.356   4.553 -0.2844 -2.8282 -0.3780
 6156TIP3   OH218473   1.657   4.254   2.307 -0.1818  0.2494  0.4816
 6156TIP3    H118474   1.644   4.172   2.355 -0.6085 -0.2582 -0.4641
 6156TIP3    H218475   1.747   4.248   2.273  0.4367  1.0017  1.9098
 6157TIP3   OH218476   2.188   2.172   4.475  0.1634  0.0156 -0.0995
 6157TIP3    H118477   2.224   2.192   4.562 -0.1525 -2.3582  0.6579
 6157TIP3    H218478   2.208   2.249   4.423  0.0776  1.6837  2.1607
 6158TIP3   OH218479   4.812   1.005   3.728 -0.3576  0.2076 -0.1038
 6158TIP3    H118480   4.848   0.957   3.803  0.2022  0.1325 -0.4124
 6158TIP3    H218481   4.734   1.049   3.762 -0.0759  0.2192  0.5313
 6159TIP3   OH218482   0.822   5.342   1.644 -0.0655  0.6932  0.8206
 6159TIP3    H118483   0.828   5.287   1.566 -0.1540 -1.3496  2.1523
 6159TIP3    H218484   0.737   5.383   1.638 -0.9855 -1.1020  0.8043
 6160TIP3   OH218485   1.129   4.555   4.731 -0.2984  0.5844  0.4401
 6160TIP3    H118486   1.103   4.634   4.684 -2.7599  1.0897  2.4338
 6160TIP3    H218487   1.067   4.488   4.702  1.6774 -0.6872 -1.1282
 6161TIP3   OH218488   1.711   1.744   2.995 -0.7096 -0.1760  0.0421
 6161TIP3    H118489   1.718   1.836   2.969 -0.9806 -0.7719 -2.4226
 6161TIP3    H218490   1.645   1.745   3.065  0.7827  1.6861  1.5506
 6162TIP3   OH218491   2.464   1.543   0.717 -0.4243  0.4700  0.3384
 6162TIP3    H118492   2.486   1.556   0.625 -1.5443 -1.1382 -0.1906
 6162TIP3    H218493   2.549   1.528   0.759 -0.0025 -0.2153 -0.7051
 6163TIP3   OH218494   0.654   2.916   2.691  0.7266  0.2997 -0.1610
 6163TIP3    H118495   0.562   2.935   2.708  1.0515  0.9134  0.9893
 6163TIP3    H218496   0.662   2.822   2.706  0.4528  0.3793  0.5010
 6164TIP3   OH218497   2.649   4.030   0.781 -0.2184 -0.1956 -0.4089
 6164TIP3    H118498   2.637   4.114   0.736 -2.2033 -0.0149  0.3369
 6164TIP3    H218499   2.685   3.972   0.715 -1.1684  0.5968 -1.6629
 6165TIP3   OH218500   2.098   4.981   3.970 -0.4226  0.5871  0.1082
 6165TIP3    H118501   2.031   5.048   3.984 -1.8390 -0.7984  0.2983
 6165TIP3    H218502   2.176   5.030   3.944 -1.2834  2.3233  0.6107
 6166TIP3   OH218503   2.812   5.576   2.757 -0.0267  0.1525 -0.3954
 6166TIP3    H118504   2.782   5.537   2.675 -0.8260  3.9059 -2.1014
 6166TIP3    H218505   2.892   5.622   2.734 -0.4104  1.5066  0.8230
 6167TIP3   OH218506   3.535   0.634   3.797  0.8569  0.0581  0.2245
 6167TIP3    H118507   3.476   0.706   3.819  1.8263  1.1387 -0.5937
 6167TIP3    H218508   3.496   0.558   3.840 -1.0128  0.7553 -0.1276
 6168TIP3   OH218509   3.112   2.856   0.995  0.1567 -0.5521  0.0830
 6168TIP3    H118510   3.203   2.853   1.025  1.0711  1.9379 -2.1136
 6168TIP3    H218511   3.064   2.898   1.067  0.5012 -2.5267  1.5627
 6169TIP3   OH218512   2.038   2.756   0.531 -0.3836  0.3281  0.2697
 6169TIP3    H118513   2.097   2.831   0.530  0.3373 -0.1843 -1.9440
 6169TIP3    H218514   2.057   2.711   0.613  1.4578  0.8469  0.1607
 6170TIP3   OH218515   0.034   1.616   2.636 -0.2774  0.3890  0.4518
 6170TIP3    H118516  -0.060   1.618   2.614 -0.3327 -0.4172  0.5733
 6170TIP3    H218517   0.077   1.599   2.553 -0.3848 -1.1490  0.6733
 6171TIP3   OH218518   0.651   0.705   2.929  0.3285  0.4640 -0.5852
 6171TIP3    H118519   0.659   0.713   2.834  0.5636  1.5211 -0.4869
 6171TIP3    H218520   0.742   0.695   2.960  0.2194 -0.3526 -0.5010
 6172TIP3   OH218521   0.615   0.868   2.468 -0.2228 -1.0114 -0.3507
 6172TIP3    H118522   0.612   0.779   2.431 -0.9307 -0.5679 -1.4149
 6172TIP3    H218523   0.647   0.855   2.557 -1.4888 -2.4880 -0.0557
 6173TIP3   OH218524   5.898   0.062   0.231  0.3737 -0.0186 -0.2762
 6173TIP3    H118525   5.836   0.094   0.165  0.3351  1.4160  0.4029
 6173TIP3    H218526   5.954   0.000   0.184 -0.3850  0.0927 -1.3591
 6174TIP3   OH218527   4.399   4.739   0.241 -0.2692 -0.0007 -0.3074
 6174TIP3    H118528   4.393   4.824   0.284 -0.4395  0.7054 -1.6842
 6174TIP3    H218529   4.473   4.747   0.181 -1.5357 -0.0778 -1.9809
 6175TIP3   OH218530   3.101   4.688   4.722  0.1666 -0.5597 -0.3701
 6175TIP3    H118531   3.020   4.699   4.673  1.7600 -0.3747 -3.1951
 6175TIP3    H218532   3.143   4.612   4.683  0.9905 -1.1997  1.6266
 6176TIP3   OH218533   3.716   5.835   1.175 -0.0457 -0.1455 -0.1823
 6176TIP3    H118534   3.651   5.767   1.158 -0.1900 -0.2241  0.6383
 6176TIP3    H218535   3.751   5.813   1.261  0.9219  0.0148 -0.5211
 6177TIP3   OH218536   2.280   4.942   4.809  0.9969  0.4809 -0.2066
 6177TIP3    H118537   2.348   4.929   4.743  1.3081  0.1200  0.1906
 6177TIP3    H218538   2.301   4.882   4.879  1.0601  1.3513  0.5442
 6178TIP3   OH218539   3.767   2.301   1.813 -0.1785  0.4070  0.0408
 6178TIP3    H118540   3.833   2.234   1.834  0.1735  0.9446  0.6949
 6178TIP3    H218541   3.716   2.262   1.743  0.2088 -0.4360  0.2027
 6179TIP3   OH218542   5.844   5.226   4.254  0.5543 -0.1156  0.1522
 6179TIP3    H118543   5.879   5.144   4.217  1.7336  0.7129 -0.6395
 6179TIP3    H218544   5.912   5.256   4.314  1.0133  1.2511 -1.0073
 6180TIP3   OH218545   4.738   3.229   0.957  0.4116 -0.2643 -0.2594
 6180TIP3    H118546   4.729   3.148   1.007  1.3508 -0.5689 -0.5609
 6180TIP3    H218547   4.831   3.232   0.934  0.3002  0.6915 -0.6036
 6181TIP3   OH218548   1.620   3.509   4.681  0.1076 -0.5252  0.6730
 6181TIP3    H118549   1.561   3.513   4.606  0.5554  0.7922  0.3660
 6181TIP3    H218550   1.675   3.432   4.664  0.1661 -0.2795 -0.3298
 6182TIP3   OH218551   5.027   3.222   0.899 -0.1765  0.7312 -0.1637
 6182TIP3    H118552   5.004   3.152   0.838 -0.0271  0.8573 -0.3641
 6182TIP3    H218553   5.082   3.281   0.848 -1.0766  1.4952 -0.2681
 6183TIP3   OH218554   5.111   2.109   1.548 -0.3721 -0.0513  0.1325
 6183TIP3    H118555   5.034   2.069   1.509 -0.5139  1.8792 -1.7414
 6183TIP3    H218556   5.077   2.182   1.600  0.1698  0.9435 -0.8765
 6184TIP3   OH218557   1.692   5.974   4.292 -0.2802  0.2750  0.2200
 6184TIP3    H118558   1.736   5.984   4.208 -1.3357  2.4444 -0.1609
 6184TIP3    H218559   1.742   5.907   4.339  1.4213  0.3414 -1.4136
 6185TIP3   OH218560   5.550   2.387   1.882 -0.2321 -0.2325  0.3625
 6185TIP3    H118561   5.520   2.297   1.897  0.4744 -0.3305  1.2643
 6185TIP3    H218562   5.634   2.377   1.838 -0.0533 -0.0209  0.6546
 6186TIP3   OH218563   0.405   2.663   1.212  0.5382 -0.7642  0.3278
 6186TIP3    H118564   0.397   2.756   1.235  1.0871 -0.6773  0.1780
 6186TIP3    H218565   0.315   2.630   1.214  0.0238  0.3082 -1.8978
 6187TIP3   OH218566   3.558   2.544   2.117 -0.4042 -0.1698  0.2340
 6187TIP3    H118567   3.615   2.475   2.148 -0.7193 -1.0561 -1.0886
 6187TIP3    H218568   3.592   2.624   2.158  1.8149 -0.6444 -0.5678
 6188TIP3   OH218569   5.026   2.007   4.671 -0.1506 -0.0349  0.5106
 6188TIP3    H118570   4.946   2.009   4.619 -0.8398 -0.2268  1.5377
 6188TIP3    H218571   4.996   1.993   4.761  1.1053 -1.6765  0.7361
 6189TIP3   OH218572   2.207   4.147   0.598 -0.4481  0.0208  0.4310
 6189TIP3    H118573   2.182   4.210   0.667  0.8134  1.0482 -0.0097
 6189TIP3    H218574   2.275   4.093   0.637  0.5259  0.8362 -0.0804
 6190TIP3   OH218575   4.805   3.827   0.136  0.1795 -0.1247 -0.3404
 6190TIP3    H118576   4.879   3.882   0.111 -0.1129  2.1032  2.9759
 6190TIP3    H218577   4.728   3.873   0.101  0.1236 -0.1964 -0.3122
 6191TIP3   OH218578   1.367   5.373   0.552 -0.6178  0.2556  0.3443
 6191TIP3    H118579   1.281   5.362   0.512 -0.2137  0.0724 -0.4897
 6191TIP3    H218580   1.429   5.366   0.479  0.1608 -0.4885  1.0571
 6192TIP3   OH218581   0.938   0.922   2.683 -0.6686  0.3387 -1.0780
 6192TIP3    H118582   1.025   0.960   2.672 -0.8174  0.9988 -0.1199
 6192TIP3    H218583   0.881   0.997   2.701 -1.1891 -0.2102 -0.3496
 6193TIP3   OH218584   5.477   1.996   2.521  0.0920  0.1323  1.0453
 6193TIP3    H118585   5.403   2.015   2.464 -0.2928  0.3208  1.6095
 6193TIP3    H218586   5.485   2.073   2.577 -0.4039 -0.6313  2.1899
 6194TIP3   OH218587   0.915   1.309   2.807 -0.1944  0.2689  0.3249
 6194TIP3    H118588   0.975   1.311   2.732  0.5006  3.0753  0.8451
 6194TIP3    H218589   0.973   1.301   2.883 -0.6724  0.5394  0.7205
 6195TIP3   OH218590   0.133   4.589   0.817  0.0588 -0.3931 -0.1140
 6195TIP3    H118591   0.135   4.623   0.907 -1.0671  0.4332 -0.3722
 6195TIP3    H218592   0.183   4.653   0.766 -0.0008 -0.4169 -0.2026
 6196TIP3   OH218593   2.592   4.358   1.495  0.1433  0.1778  0.4688
 6196TIP3    H118594   2.546   4.365   1.411  0.6458  1.7844  0.2993
 6196TIP3    H218595   2.664   4.297   1.477 -1.2040 -1.4785  0.4443
 6197TIP3   OH218596   1.520   2.447   0.711 -0.0087 -0.0183 -0.0143
 6197TIP3    H118597   1.505   2.538   0.739  0.8703 -0.0421  0.5540
 6197TIP3    H218598   1.475   2.394   0.776 -2.3057  0.0050 -1.4485
 6198TIP3   OH218599   4.514   3.286   1.714  0.1886  0.3534 -0.3824
 6198TIP3    H118600   4.459   3.273   1.636 -0.9222  1.1302  0.2508
 6198TIP3    H218601   4.467   3.351   1.766  1.2061  0.2673  0.6781
 6199TIP3   OH218602   2.451   3.131   1.920 -0.5635  0.5012 -0.3223
 6199TIP3    H118603   2.516   3.075   1.877 -0.9205 -0.3783  0.2678
 6199TIP3    H218604   2.499   3.171   1.993 -0.3480  0.8526 -0.6542
 6200TIP3   OH218605   5.882   5.257   4.933 -0.1138 -0.7099 -0.1046
 6200TIP3    H118606   5.819   5.328   4.923  1.1788  0.4611 -0.2734
 6200TIP3    H218607   5.957   5.284   4.879  0.7361 -1.8035  0.4936
 6201TIP3   OH218608   0.895   5.389   2.518 -0.5437 -0.2640  0.0717
 6201TIP3    H118609   0.951   5.456   2.557 -0.8569 -0.7839  1.4676
 6201TIP3    H218610   0.948   5.309   2.520 -0.6814 -0.3648 -0.2676
 6202TIP3   OH218611   3.443   5.852   0.937 -0.2835  0.1556 -0.1193
 6202TIP3    H118612   3.475   5.932   0.979  0.4954 -0.4279  0.4202
 6202TIP3    H218613   3.358   5.835   0.980  0.3507 -0.2571  1.0164
 6203TIP3   OH218614   4.222   3.067   3.276 -0.3025 -0.0129 -0.4678
 6203TIP3    H118615   4.159   3.092   3.208 -0.1228 -1.6782 -1.2766
 6203TIP3    H218616   4.173   3.007   3.332 -0.4902  1.4407  0.9985
 6204TIP3   OH218617   0.237   5.587   0.751 -0.0859 -0.4027 -0.0081
 6204TIP3    H118618   0.250   5.536   0.671 -1.7715 -0.3137 -0.3753
 6204TIP3    H218619   0.303   5.656   0.746 -0.9371  0.3584 -1.9983
 6205TIP3   OH218620   2.038   2.975   4.232 -0.2562 -0.6389 -0.0194
 6205TIP3    H118621   2.128   2.998   4.256 -0.2390 -0.0825 -0.5773
 6205TIP3    H218622   1.990   2.976   4.314 -0.0771  0.6268  0.0955
 6206TIP3   OH218623   4.274   2.549   0.746  0.4449  0.5720 -0.0319
 6206TIP3    H118624   4.267   2.539   0.651 -1.0111 -0.4553  0.1432
 6206TIP3    H218625   4.211   2.486   0.781 -1.3479  3.0433  1.5300
 6207TIP3   OH218626   3.910   0.963   0.467 -0.0574 -0.1501  0.3320
 6207TIP3    H118627   3.875   1.048   0.440  2.3594 -0.1100 -3.6072
 6207TIP3    H218628   3.857   0.899   0.419  1.5245 -0.3883 -1.2297
 6208TIP3   OH218629   2.728   4.630   4.639 -0.0308  0.4319 -0.4257
 6208TIP3    H118630   2.663   4.584   4.692  0.6575 -0.5289 -0.3854
 6208TIP3    H218631   2.760   4.564   4.577  2.0954  0.3735  0.6248
 6209TIP3   OH218632   2.983   0.877   2.845  0.2267 -0.2743 -0.0206
 6209TIP3    H118633   3.021   0.893   2.931  0.9526  1.0537 -0.5659
 6209TIP3    H218634   2.892   0.856   2.863  0.7638 -1.7977  1.1877
 6210TIP3   OH218635   1.875   0.861   2.179 -0.0395 -0.3413 -0.3990
 6210TIP3    H118636   1.846   0.950   2.157 -0.7002 -0.3295  0.4538
 6210TIP3    H218637   1.853   0.809   2.103  2.5492  0.6308 -1.9522
 6211TIP3   OH218638   1.069   1.026   1.699  0.2567 -0.2014  0.0856
 6211TIP3    H118639   1.006   0.972   1.746 -1.1293 -0.0303 -1.4461
 6211TIP3    H218640   1.024   1.110   1.688  1.8182  0.8420  1.2206
 6212TIP3   OH218641   5.707   3.726   4.100 -0.1703 -0.2931  0.2256
 6212TIP3    H118642   5.697   3.631   4.111 -0.9874 -0.3115 -0.5042
 6212TIP3    H218643   5.659   3.745   4.019  1.3830  0.5019 -0.5412
 6213TIP3   OH218644   0.039   2.987   2.636  0.4614  0.1523 -0.3528
 6213TIP3    H118645   0.100   3.060   2.651 -0.0889  0.3556  1.0365
 6213TIP3    H218646   0.069   2.919   2.696  0.3345 -0.3743 -0.8869
 6214TIP3   OH218647   4.341   5.334   2.804  0.1430 -0.3249 -0.1077
 6214TIP3    H118648   4.332   5.326   2.899 -2.0870  0.3625 -0.1902
 6214TIP3    H218649   4.292   5.259   2.770 -0.7225  0.4880 -0.6956
 6215TIP3   OH218650   3.949   5.380   0.945  0.1631 -0.3060  0.4374
 6215TIP3    H118651   3.989   5.436   0.879 -1.0545 -0.4005 -0.4235
 6215TIP3    H218652   3.960   5.291   0.911 -0.8994 -0.3205  0.0788
 6216TIP3   OH218653   4.371   3.458   3.819  0.2026  0.3533 -0.3907
 6216TIP3    H118654   4.459   3.462   3.857 -0.2797 -0.5861  0.9100
 6216TIP3    H218655   4.351   3.549   3.796  1.8726  0.4608 -1.6275
 6217TIP3   OH218656   4.445   4.734   2.506 -0.2479  0.3509  0.3393
 6217TIP3    H118657   4.392   4.800   2.550 -0.6948  0.1957  0.0380
 6217TIP3    H218658   4.399   4.652   2.521  1.2442 -0.1991  2.2509
 6218TIP3   OH218659   4.025   0.845   3.496  0.1967  0.0502 -0.0103
 6218TIP3    H118660   4.064   0.785   3.433  0.8761  0.5009 -0.0253
 6218TIP3    H218661   4.076   0.832   3.576 -1.0813 -1.0183  0.6925
 6219TIP3   OH218662   2.098   3.695   2.056  0.1985  0.2586  0.1582
 6219TIP3    H118663   2.102   3.665   2.146 -2.1931 -0.3564  0.1303
 6219TIP3    H218664   2.053   3.625   2.009  0.4706  1.0175 -1.3009
 6220TIP3   OH218665   3.730   2.013   4.452  0.1066 -0.0203  0.1471
 6220TIP3    H118666   3.638   1.997   4.472  0.0232  0.5719  0.2667
 6220TIP3    H218667   3.759   1.935   4.405 -0.5783 -0.0106 -0.3006
 6221TIP3   OH218668   2.200   5.087   1.298 -0.2106  0.2993 -0.1765
 6221TIP3    H118669   2.192   4.994   1.276 -0.0368  0.4704 -0.9760
 6221TIP3    H218670   2.294   5.102   1.303 -0.2279  0.0050  1.8656
 6222TIP3   OH218671   0.252   0.306   3.592  0.0153  0.2568  0.5038
 6222TIP3    H118672   0.275   0.226   3.640  1.5129  0.1594 -0.3318
 6222TIP3    H218673   0.194   0.276   3.522 -0.2927  0.0546  0.8456
 6223TIP3   OH218674   3.901   2.040   5.214  0.1945 -0.2257 -0.2179
 6223TIP3    H118675   3.857   2.116   5.176 -0.6940  0.3990  1.9157
 6223TIP3    H218676   3.868   1.966   5.163 -0.7440  0.5700 -0.8172
 6224TIP3   OH218677   0.423   1.394   2.445 -0.1499 -0.6516  0.4172
 6224TIP3    H118678   0.348   1.371   2.500 -0.5286 -0.9733 -0.2172
 6224TIP3    H218679   0.417   1.333   2.371 -0.2348  0.4182 -0.4878
 6225TIP3   OH218680   1.212   0.477   4.115 -0.0559  0.3316  0.0806
 6225TIP3    H118681   1.299   0.454   4.147 -0.4464 -0.6601  0.4758
 6225TIP3    H218682   1.221   0.567   4.085  1.0027  0.3839  0.4897
 6226TIP3   OH218683   4.946   2.773   1.432 -0.6962  0.2653 -0.5374
 6226TIP3    H118684   4.877   2.824   1.391 -1.1942 -0.0104 -0.0548
 6226TIP3    H218685   5.003   2.747   1.359 -1.3890  0.0514 -1.0131
 6227TIP3   OH218686   5.367   0.667   3.070  0.1779 -0.3353 -0.1531
 6227TIP3    H118687   5.279   0.668   3.034  0.1208  0.4889 -0.0143
 6227TIP3    H218688   5.407   0.587   3.035  0.3377  0.7089 -2.5320
 6228TIP3   OH218689   0.840   5.150   0.828  0.9006  0.1866  0.2347
 6228TIP3    H118690   0.778   5.223   0.838  0.5865  0.2235 -1.5982
 6228TIP3    H218691   0.901   5.160   0.901 -0.8148  0.5843  1.6732
 6229TIP3   OH218692   2.098   2.639   4.622 -0.2939 -0.2121 -0.1380
 6229TIP3    H118693   2.153   2.652   4.545  0.2319  2.7196  0.6413
 6229TIP3    H218694   2.133   2.561   4.664  0.9397 -0.4600 -1.5542
 6230TIP3   OH218695   1.260   0.888   1.511 -1.1571 -0.4145  0.0961
 6230TIP3    H118696   1.340   0.859   1.555 -1.3282 -0.7414  0.1929
 6230TIP3    H218697   1.207   0.928   1.580  0.0220  2.2267 -0.4031
 6231TIP3   OH218698   2.908   1.030   3.238 -0.0020  0.0058 -0.2829
 6231TIP3    H118699   2.813   1.037   3.237  0.0324  0.4977 -0.9485
 6231TIP3    H218700   2.925   0.938   3.260 -0.5918  0.2320  1.2174
 6232TIP3   OH218701   4.470   6.006   1.188 -0.6199  0.3498  0.4448
 6232TIP3    H118702   4.508   5.948   1.253 -0.1320  0.7187  0.4932
 6232TIP3    H218703   4.398   5.955   1.150  1.4953 -1.4279 -1.5067
 6233TIP3   OH218704   1.861   2.070   3.924 -0.2243 -0.0262  0.1043
 6233TIP3    H118705   1.922   2.133   3.965 -0.2273  0.4086 -0.5510
 6233TIP3    H218706   1.830   2.114   3.845 -0.1278 -0.9084 -0.4401
 6234TIP3   OH218707   5.137   0.288   5.065  0.0505 -0.2936  0.0779
 6234TIP3    H118708   5.161   0.289   4.972  2.5155 -0.3839  0.6366
 6234TIP3    H218709   5.214   0.321   5.110 -1.7177  1.4685  2.0272
 6235TIP3   OH218710   3.090   4.615   3.679  0.2821  0.0390 -0.2031
 6235TIP3    H118711   3.172   4.565   3.686  0.9707  1.0960 -0.3789
 6235TIP3    H218712   3.063   4.629   3.769  0.2467 -0.4001 -0.1456
 6236TIP3   OH218713   6.088   1.159   2.293  0.5230 -0.1076  0.9681
 6236TIP3    H118714   6.150   1.138   2.363  0.2363 -0.0471  1.2450
 6236TIP3    H218715   6.133   1.225   2.240  2.1143 -2.4930 -0.8799
 6237TIP3   OH218716   2.578   4.702   0.445 -0.1887 -0.3110  0.3936
 6237TIP3    H118717   2.592   4.773   0.381  0.2984 -1.8984 -1.3616
 6237TIP3    H218718   2.483   4.691   0.449 -0.1960 -1.4645 -1.6252
 6238TIP3   OH218719   6.220   2.402   0.783 -0.1993 -0.6331  0.4652
 6238TIP3    H118720   6.226   2.487   0.825 -0.9315 -0.2237 -0.2318
 6238TIP3    H218721   6.144   2.360   0.823 -1.0347 -0.1521 -0.5793
 6239TIP3   OH218722   0.526   0.944   0.714  0.0269  0.2382 -0.0991
 6239TIP3    H118723   0.477   0.927   0.795  0.4949  0.2895  0.2019
 6239TIP3    H218724   0.479   0.895   0.647 -1.5776  1.8320 -0.2103
 6240TIP3   OH218725   0.450   2.243   4.441 -0.2120  0.4296  0.0780
 6240TIP3    H118726   0.457   2.168   4.500  0.3917  0.6644  0.3172
 6240TIP3    H218727   0.489   2.214   4.359 -0.4465  0.3168  0.0066
 6241TIP3   OH218728   6.203   0.862   3.838  0.5163 -0.0753  0.0998
 6241TIP3    H118729   6.233   0.893   3.923 -0.6959  0.0920  0.4822
 6241TIP3    H218730   6.139   0.793   3.858  0.4919 -0.2915 -0.6775
 6242TIP3   OH218731   0.529   2.354   0.940 -0.3012  0.3305  0.3929
 6242TIP3    H118732   0.583   2.415   0.992  0.8187  1.3257 -1.8271
 6242TIP3    H218733   0.574   2.348   0.856 -1.4011 -2.1970 -0.0938
 6243TIP3   OH218734   0.955   1.562   2.092 -0.1607 -0.0167 -0.1147
 6243TIP3    H118735   0.991   1.534   2.176 -0.5175  0.6294  0.2569
 6243TIP3    H218736   0.942   1.481   2.043 -0.2937 -0.4249  0.5915
 6244TIP3   OH218737   5.843   1.092   4.480  0.4518  0.4837 -0.2676
 6244TIP3    H118738   5.815   1.146   4.554 -1.0742 -0.0586 -0.4048
 6244TIP3    H218739   5.836   1.149   4.404 -1.3332  0.0958 -0.4375
 6245TIP3   OH218740   4.414   3.064   1.839  0.2368  0.4113 -0.0059
 6245TIP3    H118741   4.459   3.116   1.772 -1.8182  0.5860 -1.3263
 6245TIP3    H218742   4.433   3.110   1.921 -0.1795  2.3226 -0.9277
 6246TIP3   OH218743   1.838   5.013   0.369 -0.3810 -0.1231  0.0351
 6246TIP3    H118744   1.865   5.105   0.363 -0.1634 -0.1975 -0.1301
 6246TIP3    H218745   1.917   4.966   0.395 -0.6133 -0.2007  0.6245
 6247TIP3   OH218746   5.487   2.126   1.949  0.0842 -0.1293 -0.1554
 6247TIP3    H118747   5.531   2.175   2.019 -1.7223  1.3283  0.0201
 6247TIP3    H218748   5.433   2.062   1.995  0.9955 -1.0520 -0.3345
 6248TIP3   OH218749   1.309   0.324   1.924  0.3360  0.3872  0.0969
 6248TIP3    H118750   1.330   0.396   1.865 -2.0756  1.1482  0.0457
 6248TIP3    H218751   1.214   0.329   1.935  0.3892 -1.3666  1.9618
 6249TIP3   OH218752   3.975   0.390   2.734 -0.3419  0.4094 -0.4514
 6249TIP3    H118753   3.895   0.349   2.702  0.4044 -0.8083 -0.8276
 6249TIP3    H218754   3.948   0.438   2.812 -1.3024 -0.6785 -0.0859
 6250TIP3   OH218755   2.065   0.718   2.572  0.0115 -0.5032 -0.2329
 6250TIP3    H118756   2.157   0.714   2.597  0.0004  0.6513  0.0468
 6250TIP3    H218757   2.062   0.781   2.500 -0.7403  0.6213  0.7394
 6251TIP3   OH218758   3.765   3.762   0.511 -0.2332 -0.6346 -1.1980
 6251TIP3    H118759   3.713   3.827   0.558  1.5494  0.4361 -0.6142
 6251TIP3    H218760   3.827   3.814   0.460  1.4775 -1.8479 -0.4404
 6252TIP3   OH218761   0.595   1.955   2.411 -0.0734 -0.2527 -0.2370
 6252TIP3    H118762   0.656   1.963   2.338 -1.0810  0.5481 -1.0097
 6252TIP3    H218763   0.643   1.991   2.486  0.9341 -1.0084 -0.4879
 6253TIP3   OH218764   1.285   3.818   3.011  0.4833  0.2781 -0.2323
 6253TIP3    H118765   1.339   3.756   3.060 -1.1145 -0.3895  0.7493
 6253TIP3    H218766   1.212   3.838   3.069  0.1538  1.9174 -1.1355
 6254TIP3   OH218767   0.651   1.833   1.155  0.6440  0.0555 -0.1403
 6254TIP3    H118768   0.734   1.786   1.157  2.1283  2.4402  2.4699
 6254TIP3    H218769   0.655   1.885   1.075  2.3640  1.1416  0.5996
 6255TIP3   OH218770   3.612   2.446   3.153  0.2132  0.1676  0.7235
 6255TIP3    H118771   3.623   2.540   3.162  0.2995  0.2240  0.0792
 6255TIP3    H218772   3.700   2.410   3.161 -0.0790 -0.1152  3.5811
 6256TIP3   OH218773   3.516   5.714   0.730 -0.1104 -0.0786 -0.0388
 6256TIP3    H118774   3.427   5.679   0.730  0.0120 -0.5294  2.2383
 6256TIP3    H218775   3.523   5.763   0.812  1.6849  0.0801 -0.2442
 6257TIP3   OH218776   0.841   2.159   1.336 -0.0014 -0.7975  0.3812
 6257TIP3    H118777   0.847   2.238   1.282 -0.9738 -0.0709  1.2988
 6257TIP3    H218778   0.895   2.094   1.290  3.4146  1.2582  1.1769
 6258TIP3   OH218779   2.895   4.390   0.843 -0.1864 -0.3237 -0.6571
 6258TIP3    H118780   2.910   4.296   0.846  0.4926 -0.2407 -1.2514
 6258TIP3    H218781   2.866   4.407   0.753  1.4758  0.2769 -1.1166
 6259TIP3   OH218782   5.933   1.016   1.657  0.1831  0.5315 -0.1783
 6259TIP3    H118783   5.994   0.986   1.724 -0.3453  2.4805  1.2989
 6259TIP3    H218784   5.986   1.071   1.599  0.5161 -0.6720 -1.0516
 6260TIP3   OH218785   2.112   2.776   0.799  0.2481 -0.0246 -0.1147
 6260TIP3    H118786   2.142   2.862   0.770  1.8680 -1.0431 -1.6385
 6260TIP3    H218787   2.122   2.778   0.894  1.3373  1.1031 -0.2225
 6261TIP3   OH218788   2.429   5.593   4.979  0.0792  0.2791  0.8113
 6261TIP3    H118789   2.369   5.665   4.998  0.2600  0.3326  1.2010
 6261TIP3    H218790   2.516   5.630   4.998  0.3129  0.4814 -0.5725
 6262TIP3   OH218791   3.345   4.609   4.270  0.1531  0.0734 -0.2926
 6262TIP3    H118792   3.415   4.586   4.331 -0.1057 -0.6655 -0.2642
 6262TIP3    H218793   3.344   4.705   4.269 -0.0685  0.0947  1.1207
 6263TIP3   OH218794   2.576   2.831   4.832  0.2512  0.9660 -0.5856
 6263TIP3    H118795   2.630   2.861   4.905  0.9147 -1.4929  0.0539
 6263TIP3    H218796   2.638   2.820   4.760 -0.0615  1.5869 -0.9509
 6264TIP3   OH218797   0.851   2.862   3.485  0.1079  0.3364  0.4148
 6264TIP3    H118798   0.841   2.796   3.417  1.7458 -0.0392  0.5129
 6264TIP3    H218799   0.918   2.827   3.544 -0.3488  1.2356  1.5127
 6265TIP3   OH218800   5.046   2.723   3.688  0.6100 -0.3383 -0.0761
 6265TIP3    H118801   5.080   2.702   3.775  1.8915  1.1257 -0.1692
 6265TIP3    H218802   5.120   2.707   3.629  0.7966  1.6353 -0.4604
 6266TIP3   OH218803   1.200   1.017   5.008 -0.4066 -0.1610  0.6973
 6266TIP3    H118804   1.145   0.960   4.953  2.0182 -1.2939 -0.6912
 6266TIP3    H218805   1.190   1.104   4.968  2.1804 -1.1296 -2.4910
 6267TIP3   OH218806   4.675   4.799   0.495 -0.4234  0.2534 -0.0944
 6267TIP3    H118807   4.738   4.870   0.483 -0.9435  0.8987  0.8492
 6267TIP3    H218808   4.729   4.720   0.504  0.3166  0.8878  1.3792
 6268TIP3   OH218809   3.748   5.216   0.372 -0.1605  0.1837 -0.4532
 6268TIP3    H118810   3.815   5.175   0.317 -1.2924 -1.9493 -0.3446
 6268TIP3    H218811   3.771   5.189   0.461 -0.0355  1.1557 -0.1747
 6269TIP3   OH218812   5.233   1.357   0.925  0.0309 -0.3255  0.0522
 6269TIP3    H118813   5.283   1.298   0.981  0.7050 -0.9307 -1.1429
 6269TIP3    H218814   5.299   1.409   0.879 -0.5182  0.4004  0.0621
 6270TIP3   OH218815   2.227   1.614   2.094  0.6657 -0.2718 -0.2783
 6270TIP3    H118816   2.228   1.526   2.055  0.4426 -0.5131  0.2551
 6270TIP3    H218817   2.151   1.657   2.056  0.0877 -0.7192  0.3404
 6271TIP3   OH218818   5.432   1.576   3.483  0.4230  0.0716 -0.0833
 6271TIP3    H118819   5.379   1.627   3.545 -0.6333 -0.7141 -0.3279
 6271TIP3    H218820   5.369   1.525   3.433  1.2827  0.4024 -1.5738
 6272TIP3   OH218821   2.399   4.906   1.222 -0.2787  0.6552  0.3162
 6272TIP3    H118822   2.395   4.847   1.298  2.0757  0.0183  0.0084
 6272TIP3    H218823   2.448   4.982   1.253  1.0675  0.2085 -0.6390
 6273TIP3   OH218824   1.768   1.893   5.137 -0.3424 -0.0051  0.2844
 6273TIP3    H118825   1.763   1.833   5.062 -1.4605  0.2002  0.1679
 6273TIP3    H218826   1.738   1.977   5.102  1.7891  0.8094  0.2988
 6274TIP3   OH218827   6.183   5.032   1.059  0.3596  0.1038 -0.0617
 6274TIP3    H118828   6.270   5.065   1.036  0.9261 -1.1972  0.0910
 6274TIP3    H218829   6.179   5.037   1.154  0.5949 -0.5486 -0.0068
 6275TIP3   OH218830   3.329   1.579   2.052  0.4849  0.4095 -0.1515
 6275TIP3    H118831   3.248   1.621   2.081  0.4112  1.2052 -1.4002
 6275TIP3    H218832   3.390   1.593   2.124 -0.1008  1.0109  0.2418
 6276TIP3   OH218833   1.272   5.114   0.691 -0.1002  0.6513 -0.0276
 6276TIP3    H118834   1.181   5.144   0.690  0.0839  1.2141  0.2475
 6276TIP3    H218835   1.306   5.138   0.605 -0.8695 -1.6331 -1.0626
 6277TIP3   OH218836   2.327   5.938   2.178 -0.5041 -0.3847 -0.2097
 6277TIP3    H118837   2.254   5.876   2.171 -0.8267 -0.3374  1.8784
 6277TIP3    H218838   2.392   5.892   2.231 -0.0109  0.4209 -0.0962
 6278TIP3   OH218839   2.273   3.351   3.459  0.1233 -0.5681  0.0508
 6278TIP3    H118840   2.305   3.288   3.524 -0.4022 -1.6811 -0.7364
 6278TIP3    H218841   2.268   3.301   3.378  0.7843  0.8040 -0.8669
 6279TIP3   OH218842   3.381   0.315   0.458  0.1972  0.1331 -0.0055
 6279TIP3    H118843   3.458   0.357   0.497  2.1344 -2.6495 -0.4830
 6279TIP3    H218844   3.413   0.278   0.376 -1.8955 -0.4248 -0.6199
 6280TIP3   OH218845   2.408   0.091   4.143  0.7205  0.0757 -0.0499
 6280TIP3    H118846   2.371   0.133   4.221  1.3248  0.6454 -0.0615
 6280TIP3    H218847   2.500   0.119   4.142  0.8339 -0.3034 -0.7126
 6281TIP3   OH218848   0.720   5.116   3.390  0.1766  0.5045  0.2636
 6281TIP3    H118849   0.634   5.118   3.348 -0.3799  1.3184  1.3822
 6281TIP3    H218850   0.723   5.030   3.432  0.0678  0.3188 -0.1072
 6282TIP3   OH218851   5.977   3.109   2.444  0.4459 -0.5781  0.2308
 6282TIP3    H118852   5.921   3.096   2.367 -0.9580 -0.4395  1.1942
 6282TIP3    H218853   5.974   3.025   2.490 -0.3852 -0.0464  1.1793
 6283TIP3   OH218854   2.731   4.769   4.924 -0.2186  0.4355  0.0752
 6283TIP3    H118855   2.694   4.760   5.012  0.0614  1.8497  0.3761
 6283TIP3    H218856   2.664   4.817   4.875  0.3553  1.2532  0.0598
 6284TIP3   OH218857   0.414   1.517   0.136 -0.4895 -0.2182  0.2707
 6284TIP3    H118858   0.436   1.543   0.225  0.2673  1.5109 -0.3884
 6284TIP3    H218859   0.461   1.434   0.123 -0.5625 -0.4575  1.4373
 6285TIP3   OH218860   1.010   2.208   2.219 -0.2340  0.3912 -1.1862
 6285TIP3    H118861   1.054   2.171   2.295 -0.0354 -0.7235 -1.8322
 6285TIP3    H218862   1.009   2.302   2.236  0.1277  0.1905  0.0229
 6286TIP3   OH218863   0.781   2.881   1.842  0.3473 -0.0571 -0.2018
 6286TIP3    H118864   0.852   2.945   1.853  1.0918 -0.5389 -1.8647
 6286TIP3    H218865   0.826   2.798   1.830 -0.5321 -0.4840 -0.6119
 6287TIP3   OH218866   2.638   3.667   2.907  0.1040 -0.3070 -0.0230
 6287TIP3    H118867   2.664   3.609   2.835  1.1612  1.4290 -1.1076
 6287TIP3    H218868   2.557   3.628   2.940  0.7326 -2.3691 -0.7073
 6288TIP3   OH218869   4.618   0.602   2.083  0.2414  0.1543 -0.1163
 6288TIP3    H118870   4.665   0.684   2.068 -1.3169  0.6654 -2.8351
 6288TIP3    H218871   4.549   0.626   2.144 -0.9080  1.2297 -1.7587
 6289TIP3   OH218872   3.916   3.565   1.649  1.0911 -0.0637 -0.4802
 6289TIP3    H118873   4.004   3.538   1.621  0.5981 -2.8148  0.3366
 6289TIP3    H218874   3.908   3.530   1.738 -0.9975 -0.3096 -0.7163
 6290TIP3   OH218875   0.652   0.964   3.004 -0.1021 -0.4545 -0.3192
 6290TIP3    H118876   0.664   0.871   2.983  1.1338 -0.5915  0.8335
 6290TIP3    H218877   0.664   1.009   2.921 -0.5829 -1.3100 -0.8718
 6291TIP3   OH218878   1.637   2.240   0.998 -0.5044 -0.1358 -0.1952
 6291TIP3    H118879   1.640   2.199   1.084  2.0594 -0.5054 -0.4023
 6291TIP3    H218880   1.608   2.330   1.015 -1.7394 -0.7002  0.8063
 6292TIP3   OH218881   3.651   3.289   2.718 -0.1883 -0.0519 -0.2033
 6292TIP3    H118882   3.698   3.346   2.656  1.5405  0.1879  1.2354
 6292TIP3    H218883   3.717   3.227   2.748 -0.4507  0.9316  2.6907
 6293TIP3   OH218884   2.214   3.258   3.931 -0.5621  0.0665 -0.1356
 6293TIP3    H118885   2.283   3.313   3.967 -1.4753  0.2756  1.3817
 6293TIP3    H218886   2.163   3.316   3.875 -0.3130  0.2462 -0.1746
 6294TIP3   OH218887   2.238   3.784   2.500 -0.0842 -0.3829  0.0555
 6294TIP3    H118888   2.275   3.724   2.436  0.9094 -0.6870  0.8766
 6294TIP3    H218889   2.307   3.794   2.566 -1.2941 -0.5978  1.4118
 6295TIP3   OH218890   1.723   2.289   2.057  0.0859 -0.0044  0.7161
 6295TIP3    H118891   1.728   2.286   2.152 -2.3958  0.4878  0.9328
 6295TIP3    H218892   1.630   2.275   2.037  0.4165  0.6094 -1.5978
 6296TIP3   OH218893   6.148   5.145   3.406 -0.1407  0.0330 -0.1573
 6296TIP3    H118894   6.121   5.231   3.439  2.0141  1.1334 -1.0218
 6296TIP3    H218895   6.239   5.135   3.436  0.2653 -1.0843 -1.6055
 6297TIP3   OH218896   4.689   0.478   5.077  0.2471  0.3675  0.4283
 6297TIP3    H118897   4.734   0.473   5.162  0.2548  1.0322  0.4663
 6297TIP3    H218898   4.611   0.424   5.088 -1.0603  2.4004  1.6771
 6298TIP3   OH218899   0.766   1.884   2.716  0.3754 -0.1587  0.2059
 6298TIP3    H118900   0.777   1.971   2.677 -0.3959  0.2574  0.8816
 6298TIP3    H218901   0.782   1.823   2.643  0.6682  0.5498 -0.3351
 6299TIP3   OH218902   3.075   1.746   2.427 -0.2493  0.6926  0.1510
 6299TIP3    H118903   3.038   1.673   2.477  0.8263 -0.0789 -0.1370
 6299TIP3    H218904   3.046   1.824   2.474 -2.6284  0.1941 -0.3164
 6300TIP3   OH218905   6.364   3.653   2.589  0.8228  0.0793  0.2187
 6300TIP3    H118906   6.330   3.737   2.618  1.0555  0.1212  0.3665
 6300TIP3    H218907   6.308   3.629   2.515  0.4194  0.1095  0.5098
 6301TIP3   OH218908   4.162   1.355   4.965 -0.0706  0.2700  0.3320
 6301TIP3    H118909   4.237   1.375   5.021 -0.1530  0.6631  0.3069
 6301TIP3    H218910   4.116   1.283   5.009  0.8829 -0.6708 -0.1693
 6302TIP3   OH218911   2.488   3.864   3.864 -0.3424 -0.7412  0.4801
 6302TIP3    H118912   2.566   3.919   3.858 -1.4799  0.9510  0.4720
 6302TIP3    H218913   2.426   3.902   3.802 -1.5099 -1.4598  1.1587
 6303TIP3   OH218914   4.337   4.241   1.773 -0.1706 -0.1255  0.1375
 6303TIP3    H118915   4.355   4.147   1.767 -0.1078 -0.0629 -0.9332
 6303TIP3    H218916   4.284   4.259   1.695  0.6365  0.9036 -0.1879
 6304TIP3   OH218917   0.058   5.606   2.484  0.2253 -0.1415 -0.3881
 6304TIP3    H118918   0.024   5.567   2.565 -1.2591 -2.4994 -2.0085
 6304TIP3    H218919   0.150   5.624   2.503 -0.0757 -0.6615  1.8096
 6305TIP3   OH218920   4.187   0.316   4.856  0.2347  0.3034  0.2171
 6305TIP3    H118921   4.093   0.314   4.836  0.2219  1.1686  0.1695
 6305TIP3    H218922   4.229   0.303   4.771  0.1662  0.1336  0.2071
 6306TIP3   OH218923   3.320   0.759   3.007 -0.0225 -0.8953  0.1318
 6306TIP3    H118924   3.367   0.676   3.009  0.5969 -0.6217 -1.4273
 6306TIP3    H218925   3.357   0.809   3.080  2.0583 -0.7475 -0.9421
 6307TIP3   OH218926   6.318   0.593   5.119 -0.4212  0.4362  0.2998
 6307TIP3    H118927   6.337   0.507   5.157  1.3540  0.4826 -0.3894
 6307TIP3    H218928   6.286   0.645   5.192  0.5206 -0.2121  1.2043
 6308TIP3   OH218929   4.850   3.396   3.356  0.0638 -0.0319  0.5739
 6308TIP3    H118930   4.925   3.440   3.395 -0.5723  0.9272  0.7451
 6308TIP3    H218931   4.875   3.382   3.265  0.4636  0.2297  0.6401
 6309TIP3   OH218932   6.329   5.078   0.808 -0.0067 -0.5688  0.0255
 6309TIP3    H118933   6.344   5.170   0.785  2.2885 -0.9975 -0.4444
 6309TIP3    H218934   6.339   5.031   0.725 -0.3554 -1.3285  0.4051
 6310TIP3   OH218935   6.244   1.656   2.221 -0.2427  0.5693  0.5432
 6310TIP3    H118936   6.236   1.734   2.277 -0.6254  0.9128  0.0231
 6310TIP3    H218937   6.169   1.662   2.161  0.3916  0.4306 -0.2733
 6311TIP3   OH218938   3.553   0.892   2.437  0.2192 -0.1438  0.1805
 6311TIP3    H118939   3.607   0.825   2.480  1.1467  1.6559  1.9775
 6311TIP3    H218940   3.611   0.932   2.372  0.3316  0.2536  0.5193
 6312TIP3   OH218941   3.639   3.210   4.939 -0.3780 -0.5483 -0.0330
 6312TIP3    H118942   3.711   3.173   4.888 -1.6573 -2.4250 -0.5841
 6312TIP3    H218943   3.617   3.291   4.892  1.3609  0.1043  0.1861
 6313TIP3   OH218944   1.855   0.564   3.849 -0.5383  0.0789  0.9869
 6313TIP3    H118945   1.888   0.496   3.908 -1.3945 -0.8460  0.4455
 6313TIP3    H218946   1.768   0.584   3.883 -0.7016  0.1433  0.5390
 6314TIP3   OH218947   2.212   4.807   0.617 -0.3971 -1.0215  0.0761
 6314TIP3    H118948   2.267   4.755   0.559 -2.0530 -2.5360 -0.2414
 6314TIP3    H218949   2.208   4.757   0.698 -2.0788 -1.4938 -0.2576
 6315TIP3   OH218950   1.376   4.815   3.411  0.6004  0.6106 -0.4349
 6315TIP3    H118951   1.280   4.805   3.408  0.5747  1.0372 -1.6537
 6315TIP3    H218952   1.405   4.742   3.465 -0.2636 -0.9427 -1.9253
 6316TIP3   OH218953   2.813   1.971   4.615 -0.1047  0.1209 -0.0046
 6316TIP3    H118954   2.842   1.886   4.582 -1.1925 -0.4792  0.5015
 6316TIP3    H218955   2.761   2.008   4.543 -1.1220 -0.4660  0.3942
 6317TIP3   OH218956   5.709   4.779   2.671  0.2556  0.1994 -0.4524
 6317TIP3    H118957   5.659   4.697   2.670 -0.2518  0.4955  0.0043
 6317TIP3    H218958   5.784   4.763   2.613  0.9187 -1.0578  0.7002
 6318TIP3   OH218959   3.455   3.255   0.025 -0.1762 -0.0091 -0.0679
 6318TIP3    H118960   3.431   3.300   0.106 -0.6027  1.7969 -1.1373
 6318TIP3    H218961   3.371   3.239  -0.019  0.1705  1.4715 -1.3568
 6319TIP3   OH218962   2.400   1.626   1.459 -0.5259 -0.7356  0.0438
 6319TIP3    H118963   2.389   1.647   1.552  0.5928 -0.7259  0.1877
 6319TIP3    H218964   2.377   1.533   1.452  0.1888 -0.9490  0.4868
 6320TIP3   OH218965   4.816   5.966   0.164  0.2649  0.5274  0.6281
 6320TIP3    H118966   4.827   6.012   0.081 -1.5454 -1.4364 -0.8026
 6320TIP3    H218967   4.735   5.916   0.154  0.9585 -1.2455  2.8754
 6321TIP3   OH218968   1.469   0.884   5.030 -0.4351 -0.0340 -0.0883
 6321TIP3    H118969   1.456   0.828   5.106 -0.7810  1.2271  0.8148
 6321TIP3    H218970   1.381   0.916   5.008 -0.2557  0.0995 -0.6382
 6322TIP3   OH218971   1.756   2.332   3.690  0.0479  0.0673  0.0756
 6322TIP3    H118972   1.850   2.347   3.684  0.2759 -0.2858  2.0986
 6322TIP3    H218973   1.732   2.295   3.605  1.6116  0.6576 -0.6663
 6323TIP3   OH218974   1.944   5.402   1.956  0.2064  0.0971  0.0217
 6323TIP3    H118975   1.957   5.433   1.866 -1.7752  3.0569  0.6246
 6323TIP3    H218976   1.859   5.437   1.982  0.4706 -1.1151  2.9115
 6324TIP3   OH218977   3.050   3.963   2.536 -0.0097  0.3732  0.1567
 6324TIP3    H118978   2.979   3.986   2.595 -0.8313 -0.0850 -0.6360
 6324TIP3    H218979   3.104   3.901   2.585 -0.8848 -0.2865  0.2968
 6325TIP3   OH218980   3.944   4.298   1.343  0.2397 -1.2900  0.4261
 6325TIP3    H118981   4.014   4.282   1.280 -1.1448  0.1011 -1.5659
 6325TIP3    H218982   3.974   4.373   1.394 -0.2466  0.1631 -1.2995
 6326TIP3   OH218983   3.159   0.873   1.322  0.1744  0.0194  0.7939
 6326TIP3    H118984   3.179   0.785   1.353  0.0282  0.3341  1.8266
 6326TIP3    H218985   3.065   0.884   1.339  0.0807  0.1900  0.1883
 6327TIP3   OH218986   5.907   2.894   3.133  0.0633  0.8101  0.1836
 6327TIP3    H118987   5.828   2.873   3.183  0.1175  1.8443  0.7220
 6327TIP3    H218988   5.883   2.874   3.042 -0.8393  1.1751  0.3316
 6328TIP3   OH218989   2.236   5.334   0.270  0.4947  0.6369 -0.0461
 6328TIP3    H118990   2.228   5.410   0.328 -0.6660 -0.5921  1.4778
 6328TIP3    H218991   2.153   5.329   0.224  1.2483  1.3416 -1.5606
 6329TIP3   OH218992   2.208   4.663   4.509  0.1630  0.2099  0.1520
 6329TIP3    H118993   2.129   4.613   4.529  1.2494 -1.9175 -0.5543
 6329TIP3    H218994   2.181   4.725   4.441 -0.8632 -0.6113 -0.2202
 6330TIP3   OH218995   3.801   2.791   0.095  0.3662 -0.1139 -0.4828
 6330TIP3    H118996   3.728   2.776   0.155  0.0385  0.4862 -0.7186
 6330TIP3    H218997   3.810   2.708   0.047  3.1880 -2.1084  3.0080
 6331TIP3   OH218998   2.057   5.606   2.642 -0.0999  0.3970  0.3997
 6331TIP3    H118999   2.015   5.618   2.556 -1.2342  0.5894  0.9620
 6331TIP3    H219000   2.145   5.575   2.621 -0.8801 -1.1809 -0.8072
 6332TIP3   OH219001   2.080   1.365   4.309 -0.2168  0.0616  0.3861
 6332TIP3    H119002   2.035   1.282   4.329  0.5914 -0.3941  0.3644
 6332TIP3    H219003   2.121   1.390   4.391 -1.0667  0.8392  0.5844
 6333TIP3   OH219004   1.215   1.951   2.736  0.1580 -0.1415  0.3637
 6333TIP3    H119005   1.138   1.899   2.710  0.6844 -1.1354  0.7211
 6333TIP3    H219006   1.178   2.028   2.779 -0.6344 -1.4055  2.0454
 6334TIP3   OH219007   1.606   2.010   0.317  0.4310 -0.6250 -0.1439
 6334TIP3    H119008   1.645   2.064   0.248 -1.3363 -0.1066 -0.7787
 6334TIP3    H219009   1.562   2.072   0.375 -1.8755 -1.3103 -1.0455
 6335TIP3   OH219010   0.027   3.299   2.102  0.2605  0.7089 -0.5622
 6335TIP3    H119011  -0.044   3.262   2.156  0.1939  1.3225 -0.2228
 6335TIP3    H219012   0.058   3.375   2.152  1.4272  0.2281 -0.5173
 6336TIP3   OH219013   5.151   2.322   4.975 -0.0081  0.2932  0.9954
 6336TIP3    H119014   5.177   2.412   4.954 -0.5584 -0.1327 -1.9030
 6336TIP3    H219015   5.122   2.326   5.066  1.8627  2.5993  1.5820
 6337TIP3   OH219016   6.069   4.982   5.072 -0.2658  0.0668  0.2958
 6337TIP3    H119017   5.992   4.954   5.023 -0.8385  1.0075  0.6337
 6337TIP3    H219018   6.100   5.060   5.027  0.8676 -0.6428 -0.1935
 6338TIP3   OH219019   4.799   0.373   1.135 -0.5885 -0.7183 -0.2620
 6338TIP3    H119020   4.855   0.395   1.061 -0.1794 -0.4135  0.1319
 6338TIP3    H219021   4.847   0.403   1.212 -1.0068 -1.0277  0.1314
 6339TIP3   OH219022   2.883   3.808   2.157  0.2929 -0.4222  0.3460
 6339TIP3    H119023   2.909   3.752   2.084 -1.4457  0.1292 -0.7838
 6339TIP3    H219024   2.963   3.824   2.205  1.2997 -1.7416 -0.7921
 6340TIP3   OH219025   0.787   0.255   1.404  0.2874  0.0854 -0.5067
 6340TIP3    H119026   0.743   0.211   1.331 -1.0744  1.0192 -0.2969
 6340TIP3    H219027   0.825   0.333   1.366 -1.0660  0.9652 -0.1225
 6341TIP3   OH219028   2.619   2.709   0.583 -0.0378  0.4298  0.1212
 6341TIP3    H119029   2.643   2.798   0.557 -1.3891  1.3598  1.8208
 6341TIP3    H219030   2.693   2.655   0.556  0.8207  2.0566 -0.9551
 6342TIP3   OH219031   0.326   1.308   3.264 -0.0440 -0.3497 -0.0560
 6342TIP3    H119032   0.234   1.281   3.263  0.3301 -1.8359  1.2791
 6342TIP3    H219033   0.355   1.302   3.173 -1.2362  0.0460 -0.4716
 6343TIP3   OH219034   4.630   1.824   5.161 -0.0843 -0.5680  0.1400
 6343TIP3    H119035   4.580   1.870   5.094 -0.8248  0.2179  1.2199
 6343TIP3    H219036   4.572   1.754   5.191 -0.2774 -0.0895  0.8984
 6344TIP3   OH219037   0.484   4.147   0.763 -0.2281  0.3810  0.0094
 6344TIP3    H119038   0.487   4.242   0.760  0.1769  0.4531  1.6071
 6344TIP3    H219039   0.571   4.119   0.735 -0.3415  0.4685 -0.4422
 6345TIP3   OH219040   5.219   3.811   2.292  0.3788 -0.0599 -0.1292
 6345TIP3    H119041   5.180   3.893   2.323 -1.4266 -0.3040 -1.6148
 6345TIP3    H219042   5.179   3.743   2.346  0.9300 -0.0831  0.2583
 6346TIP3   OH219043   0.302   4.755   2.616 -0.7542 -0.6815 -0.3922
 6346TIP3    H119044   0.368   4.777   2.682 -2.0232  3.1976 -0.2074
 6346TIP3    H219045   0.352   4.728   2.540  0.8627 -1.5553  0.9082
 6347TIP3   OH219046   2.380   2.986   0.860  0.0566  0.3529  0.1959
 6347TIP3    H119047   2.332   3.004   0.780  1.4393 -0.5992 -0.9031
 6347TIP3    H219048   2.331   2.917   0.904 -0.0599  0.0235 -0.4543
 6348TIP3   OH219049   0.805   5.840   3.214 -0.5134 -0.2575  0.3806
 6348TIP3    H119050   0.726   5.797   3.248 -1.5893  0.7927 -0.6737
 6348TIP3    H219051   0.773   5.892   3.140  1.3701 -0.6715 -0.7705
 6349TIP3   OH219052   5.598   2.623   0.540  0.3241 -0.2058 -0.0994
 6349TIP3    H119053   5.688   2.636   0.513  0.3337 -1.1584 -0.5610
 6349TIP3    H219054   5.547   2.631   0.459  0.1031 -0.6881 -0.0077
 6350TIP3   OH219055   4.490   2.798   1.743  0.0770 -0.1208 -0.0576
 6350TIP3    H119056   4.488   2.888   1.774  0.2883 -1.0250  2.8623
 6350TIP3    H219057   4.403   2.763   1.763  1.0319 -1.4684  2.0006
 6351TIP3   OH219058   1.114   3.340   0.681 -0.3737 -0.2366  0.3478
 6351TIP3    H119059   1.030   3.329   0.637 -0.4675 -1.1808  0.7278
 6351TIP3    H219060   1.133   3.253   0.717  1.7799 -0.6448 -1.5338
 6352TIP3   OH219061   5.707   2.731   1.470  0.3328  0.3170  0.4285
 6352TIP3    H119062   5.633   2.785   1.444  1.7497  1.8757 -0.5992
 6352TIP3    H219063   5.679   2.689   1.551 -1.3751  1.4408  0.4721
 6353TIP3   OH219064   0.492   4.404   1.510 -0.3575  0.1506 -0.3606
 6353TIP3    H119065   0.474   4.398   1.416  2.7663 -0.5424 -1.0308
 6353TIP3    H219066   0.541   4.324   1.530  2.1901  1.9363  1.0241
 6354TIP3   OH219067   0.478   3.994   4.443  0.1306 -0.3938  0.1132
 6354TIP3    H119068   0.527   3.913   4.425  0.4648 -0.0120 -0.7394
 6354TIP3    H219069   0.464   4.033   4.357  0.3068  0.6563  0.5502
 6355TIP3   OH219070   5.951   1.756   2.396  0.1595 -0.3990  0.2161
 6355TIP3    H119071   5.966   1.752   2.301 -1.1743 -0.4727 -0.0099
 6355TIP3    H219072   5.859   1.731   2.407 -0.7768  2.9722  1.1960
 6356TIP3   OH219073   4.349   0.111   1.086  0.0521  0.0700  0.1485
 6356TIP3    H119074   4.278   0.169   1.060 -0.5540 -0.8167 -0.2378
 6356TIP3    H219075   4.391   0.087   1.004 -0.0509 -0.4591  0.2454
 6357TIP3   OH219076   1.983   2.672   1.188 -0.0637 -0.3418 -0.3861
 6357TIP3    H119077   1.970   2.579   1.208 -0.5921  0.1354  1.7472
 6357TIP3    H219078   1.917   2.691   1.121 -1.0957 -1.1452  0.3553
 6358TIP3   OH219079   5.204   3.324   0.729 -0.4594  0.4131 -0.0562
 6358TIP3    H119080   5.166   3.305   0.643  1.4451  1.7160 -1.2602
 6358TIP3    H219081   5.252   3.406   0.717  1.2346 -0.2200  1.7837
 6359TIP3   OH219082   4.408   4.311   4.706  0.1158  0.5378 -0.1195
 6359TIP3    H119083   4.314   4.306   4.687  0.2143  0.4837 -0.6080
 6359TIP3    H219084   4.449   4.326   4.621  0.6452 -0.5572 -0.0765
 6360TIP3   OH219085   5.717   0.660   4.716 -0.7421 -0.0430 -0.0084
 6360TIP3    H119086   5.655   0.667   4.644 -1.0097 -0.5978  0.1615
 6360TIP3    H219087   5.753   0.571   4.709 -0.4512  0.0485  0.2792
 6361TIP3   OH219088   0.529   1.269   0.111 -0.2284  0.3866 -0.0813
 6361TIP3    H119089   0.606   1.265   0.168 -0.2045  0.0942 -0.1300
 6361TIP3    H219090   0.564   1.253   0.023 -0.2793  0.7320 -0.1627
 6362TIP3   OH219091   2.583   1.307   2.787  0.1075  0.0250  0.0319
 6362TIP3    H119092   2.500   1.306   2.740  0.8166  1.1289 -1.3158
 6362TIP3    H219093   2.633   1.378   2.747  1.2247  0.2278  1.6813
 6363TIP3   OH219094   1.941   0.280   3.090 -0.8257 -0.1628 -0.6839
 6363TIP3    H119095   2.011   0.277   3.155 -0.8619  2.3398 -0.4285
 6363TIP3    H219096   1.864   0.244   3.134 -0.2186 -0.9736 -0.2646
 6364TIP3   OH219097   1.394   3.456   3.575  0.3712 -0.1421 -0.1165
 6364TIP3    H119098   1.307   3.484   3.603  0.5924  0.3685  0.0698
 6364TIP3    H219099   1.418   3.519   3.507  0.6018 -0.2754 -0.1580
 6365TIP3   OH219100   2.420   2.846   3.281  0.2007  0.1163  0.1011
 6365TIP3    H119101   2.389   2.902   3.210  2.3454  1.0305 -0.2120
 6365TIP3    H219102   2.413   2.758   3.246  0.0030  0.4600 -0.7670
 6366TIP3   OH219103   4.680   0.024   0.118  0.3158 -0.1414 -0.1883
 6366TIP3    H119104   4.700   0.061   0.032 -0.0815  1.2190  0.2682
 6366TIP3    H219105   4.590   0.054   0.136  0.5593 -0.0188  0.8895
 6367TIP3   OH219106   4.194   2.187   0.532 -0.4094 -0.2294 -0.3278
 6367TIP3    H119107   4.242   2.217   0.455 -0.7065 -0.2843 -0.5382
 6367TIP3    H219108   4.253   2.126   0.575  0.6553  1.4572  0.7122
 6368TIP3   OH219109   0.516   0.155   3.144 -0.2985  0.4185  0.0522
 6368TIP3    H119110   0.421   0.163   3.134 -0.1098  0.1277 -2.5569
 6368TIP3    H219111   0.551   0.232   3.098  0.7516  0.0548  0.2237
 6369TIP3   OH219112   6.205   2.545   2.621  0.5935  0.4353  0.3709
 6369TIP3    H119113   6.235   2.571   2.708  1.7202 -2.7066  1.0539
 6369TIP3    H219114   6.277   2.568   2.563  1.1956 -0.3460  0.8006
 6370TIP3   OH219115   3.665   2.950   1.208  0.1009  0.1927 -0.5787
 6370TIP3    H119116   3.707   2.898   1.139  0.5262  0.7220 -0.7227
 6370TIP3    H219117   3.614   2.886   1.258  0.1307 -0.2680 -1.1212
 6371TIP3   OH219118   1.068   1.489   4.700 -0.4700  0.1794 -0.3862
 6371TIP3    H119119   0.973   1.482   4.707 -0.4748  1.0228  0.6235
 6371TIP3    H219120   1.082   1.550   4.628 -0.6939  0.1328 -0.4690
 6372TIP3   OH219121   1.076   4.518   4.005  0.1811 -1.0679 -0.4064
 6372TIP3    H119122   1.164   4.483   3.993  0.0044 -1.1835 -1.4636
 6372TIP3    H219123   1.028   4.489   3.928 -0.4303  0.0729 -0.4866
 6373TIP3   OH219124   4.838   4.566   1.152 -0.0919  0.3125  0.4124
 6373TIP3    H119125   4.816   4.529   1.066  0.8264 -0.4562  0.5012
 6373TIP3    H219126   4.796   4.507   1.215  0.4744  0.0225  0.5245
 6374TIP3   OH219127   5.520   4.444   0.851  0.2345  0.1972 -0.5584
 6374TIP3    H119128   5.524   4.501   0.928 -0.7436  0.4190 -0.6599
 6374TIP3    H219129   5.563   4.363   0.878  1.2728  0.8270 -0.2788
 6375TIP3   OH219130   1.503   5.476   3.082 -0.0007 -0.1572 -0.2686
 6375TIP3    H119131   1.581   5.492   3.029 -0.1127 -1.8790 -1.0011
 6375TIP3    H219132   1.437   5.534   3.045  0.2423 -0.5144 -1.2711
 6376TIP3   OH219133   3.344   5.446   2.343  0.6181 -0.0429  0.4116
 6376TIP3    H119134   3.312   5.423   2.430  2.1529 -0.3203  0.9290
 6376TIP3    H219135   3.437   5.466   2.356  0.3669  2.1277 -0.7880
 6377TIP3   OH219136   3.486   5.400   0.405 -0.3137 -0.5377  0.0253
 6377TIP3    H119137   3.536   5.336   0.354 -0.1966  0.1879 -0.8075
 6377TIP3    H219138   3.552   5.442   0.461 -0.0029  0.2329 -0.8793
 6378TIP3   OH219139   6.072   0.433   0.829 -0.7341  0.7470 -0.0529
 6378TIP3    H119140   6.061   0.513   0.880 -0.7957  0.5011  0.3200
 6378TIP3    H219141   6.152   0.447   0.779 -0.4929  0.8513  0.3652
 6379TIP3   OH219142   4.008   5.793   0.781  1.0701  0.2278 -0.3474
 6379TIP3    H119143   4.014   5.842   0.863 -0.3643  1.2131 -0.8050
 6379TIP3    H219144   3.926   5.822   0.741  1.4005 -0.7477 -1.8120
 6380TIP3   OH219145   0.586   0.038   3.678  0.3020  0.6679 -0.0731
 6380TIP3    H119146   0.505   0.061   3.724  0.4406  2.9313 -0.8275
 6380TIP3    H219147   0.556  -0.005   3.598 -0.0332 -0.4776  0.6345
 6381TIP3   OH219148   4.986   1.159   3.547  0.1365 -0.3342 -0.6238
 6381TIP3    H119149   4.959   1.083   3.496 -1.9821 -0.7065  0.9543
 6381TIP3    H219150   4.989   1.128   3.637 -0.7233  1.3991  0.0492
 6382TIP3   OH219151   1.495   1.690   3.188  0.7580 -0.2168 -0.3689
 6382TIP3    H119152   1.481   1.745   3.265 -0.4539 -0.4004 -0.4363
 6382TIP3    H219153   1.460   1.604   3.213 -2.7299  0.4885 -2.0935
 6383TIP3   OH219154   1.964   3.709   0.445 -0.0190 -0.5452 -0.3755
 6383TIP3    H119155   2.049   3.684   0.482  0.0794  0.3005 -0.0077
 6383TIP3    H219156   1.968   3.681   0.354  0.8896  0.0136 -0.5165
 6384TIP3   OH219157   6.255   2.964   0.726  0.6454  0.0205 -0.5161
 6384TIP3    H119158   6.333   3.010   0.757  0.9189 -1.4336  1.1094
 6384TIP3    H219159   6.198   2.959   0.803 -0.7125  0.3096 -1.4654
 6385TIP3   OH219160   4.972   1.223   2.156  0.6687 -0.3234  0.4395
 6385TIP3    H119161   5.039   1.276   2.199 -0.4544  0.0358  1.8156
 6385TIP3    H219162   4.946   1.158   2.221 -0.0660 -0.6921 -0.1960
 6386TIP3   OH219163   0.155   4.381  -0.024 -0.0916  0.1610  0.6853
 6386TIP3    H119164   0.182   4.472  -0.031  0.6342 -0.0549  0.5621
 6386TIP3    H219165   0.125   4.372   0.066 -1.4059  0.8388  0.3346
 6387TIP3   OH219166   5.623   4.438   1.253  0.0147  0.6757 -0.7755
 6387TIP3    H119167   5.713   4.461   1.271 -0.1200  0.1968  0.6393
 6387TIP3    H219168   5.583   4.427   1.339 -0.9166 -0.8933 -1.3523
 6388TIP3   OH219169   4.272   1.337   2.559 -0.1081  0.3731 -0.4786
 6388TIP3    H119170   4.325   1.257   2.566 -1.6779 -0.6933 -0.2548
 6388TIP3    H219171   4.217   1.336   2.637 -0.4889  1.4285 -0.7263
 6389TIP3   OH219172   5.629   0.831   2.950 -0.5016  0.1315 -0.1362
 6389TIP3    H119173   5.609   0.921   2.976 -2.4358 -0.4002  0.4193
 6389TIP3    H219174   5.684   0.797   3.021  2.1262  1.4679 -1.4011
 6390TIP3   OH219175   6.254   5.376   1.000  0.4640  0.2700 -0.5374
 6390TIP3    H119176   6.268   5.458   0.953 -1.4504  0.9147 -0.0899
 6390TIP3    H219177   6.216   5.318   0.933  0.4910  0.2152 -0.5046
 6391TIP3   OH219178   4.536   1.610   3.069 -0.1285  0.0356  0.1609
 6391TIP3    H119179   4.516   1.536   3.127  0.2497 -0.6402 -0.5579
 6391TIP3    H219180   4.619   1.588   3.029 -1.1682 -0.3117 -1.9087
 6392TIP3   OH219181   3.562   5.737   0.031 -0.1209 -0.1366  0.2437
 6392TIP3    H119182   3.518   5.671   0.085  0.6759  0.3094  1.4852
 6392TIP3    H219183   3.655   5.730   0.054 -0.0137  1.4219  0.4374
 6393TIP3   OH219184   2.026   1.500   1.158  0.4846  0.3524  0.4671
 6393TIP3    H119185   2.045   1.506   1.252  1.6791 -0.5829  0.3029
 6393TIP3    H219186   2.103   1.457   1.121  0.6394  1.9501 -1.1606
 6394TIP3   OH219187   3.211   4.417   4.929  0.1208  0.4109 -0.6019
 6394TIP3    H119188   3.163   4.356   4.985  0.2447  0.2205 -0.7037
 6394TIP3    H219189   3.145   4.450   4.868 -0.0673  0.7939 -0.2020
 6395TIP3   OH219190   5.577   3.520   3.924 -0.3574  0.0112  0.2399
 6395TIP3    H119191   5.556   3.610   3.898 -0.2184 -0.1648 -0.5177
 6395TIP3    H219192   5.511   3.497   3.989 -1.9972 -0.2189 -1.4245
 6396TIP3   OH219193   0.178   1.757   4.471 -0.0627 -0.5760 -0.1501
 6396TIP3    H119194   0.192   1.851   4.462 -2.2386 -0.3257 -1.7850
 6396TIP3    H219195   0.156   1.745   4.564 -0.7283  0.7102 -0.1168
 6397TIP3   OH219196   4.679   4.501   0.914 -0.1182 -0.5295  0.1977
 6397TIP3    H119197   4.635   4.580   0.883 -0.7557 -0.5347  1.0351
 6397TIP3    H219198   4.746   4.482   0.848 -1.2922 -0.4482 -1.0537
 6398TIP3   OH219199   4.389   0.835   5.054 -0.5703 -0.1615 -0.0980
 6398TIP3    H119200   4.383   0.761   4.993 -0.3523 -0.4597  0.2349
 6398TIP3    H219201   4.450   0.896   5.012  0.8821 -1.0972  0.5397
 6399TIP3   OH219202   5.082   5.432   4.932  1.0043 -0.0926 -0.3539
 6399TIP3    H119203   5.037   5.514   4.914  1.4524  0.0093 -1.0655
 6399TIP3    H219204   5.096   5.393   4.845  1.4661 -0.5582 -0.0779
 6400TIP3   OH219205   0.795   1.781   4.820 -0.8085  0.3864  0.2799
 6400TIP3    H119206   0.816   1.691   4.844  0.3243  0.5652  0.0533
 6400TIP3    H219207   0.827   1.834   4.893 -2.8706  0.5254  1.1335
 6401TIP3   OH219208   5.122   4.529   4.563 -0.1718  0.3456 -0.3001
 6401TIP3    H119209   5.174   4.490   4.633  0.6521  1.5034 -0.2236
 6401TIP3    H219210   5.048   4.570   4.608 -1.1761 -1.2983 -0.4077
 6402TIP3   OH219211   3.899   5.019   2.595  0.3382 -0.2269  0.1665
 6402TIP3    H119212   3.976   4.972   2.566 -0.2375 -1.9722  1.2978
 6402TIP3    H219213   3.825   4.965   2.566 -0.4584  1.1093 -0.4014
 6403TIP3   OH219214   3.642   0.366   0.593 -0.8217 -0.0888 -0.6348
 6403TIP3    H119215   3.658   0.314   0.672  0.3505 -0.1973 -0.9224
 6403TIP3    H219216   3.729   0.379   0.556 -1.3906 -0.3163 -2.0926
 6404TIP3   OH219217   5.782   0.053   3.536 -0.3236 -0.0183  0.4607
 6404TIP3    H119218   5.829  -0.018   3.580 -3.0403 -1.9826  0.4740
 6404TIP3    H219219   5.690   0.035   3.554 -1.2813  1.9075 -1.9737
 6405TIP3   OH219220   1.426   2.205   2.813  0.2105  0.6343  0.4845
 6405TIP3    H119221   1.361   2.148   2.856 -0.4775  0.1590 -1.1063
 6405TIP3    H219222   1.485   2.144   2.768 -1.0294  1.0949 -1.9606
 6406TIP3   OH219223   5.533   2.406   4.940 -0.4686  0.5490  0.0297
 6406TIP3    H119224   5.517   2.454   4.859 -0.4242 -0.4327 -0.5775
 6406TIP3    H219225   5.470   2.442   5.002 -0.4735  1.3437 -0.4142
 6407TIP3   OH219226   4.972   3.784   3.039  0.0321 -0.5272  0.3499
 6407TIP3    H119227   5.065   3.794   3.019 -0.3149 -1.7031 -2.3201
 6407TIP3    H219228   4.957   3.841   3.114  2.6596  0.6110  0.1136
 6408TIP3   OH219229   5.864   2.805   2.874  0.3576 -0.6250 -0.4107
 6408TIP3    H119230   5.795   2.755   2.831 -0.3690  0.5557 -0.6908
 6408TIP3    H219231   5.880   2.878   2.814 -0.5956  1.0011  1.2167
 6409TIP3   OH219232   2.264   5.149   5.196  0.1464  0.1698 -0.2647
 6409TIP3    H119233   2.340   5.123   5.144  0.9396  0.5106  0.6977
 6409TIP3    H219234   2.233   5.230   5.153  0.7240  0.3913 -0.2721
 6410TIP3   OH219235   0.844   0.492   4.695 -0.3059 -0.0791  0.4313
 6410TIP3    H119236   0.885   0.567   4.653  0.8206 -1.2079 -0.5323
 6410TIP3    H219237   0.764   0.478   4.645  0.6305 -0.9202 -0.8809
 6411TIP3   OH219238   0.156   2.434   1.582 -0.0636 -0.3181  0.2520
 6411TIP3    H119239   0.201   2.359   1.621  0.8728 -0.5434 -1.1931
 6411TIP3    H219240   0.106   2.398   1.509  2.4535  0.6675 -2.1693
 6412TIP3   OH219241   1.894   4.977   2.144  0.2692 -0.3100 -0.0466
 6412TIP3    H119242   1.917   4.887   2.164  0.5693 -0.7064 -2.0006
 6412TIP3    H219243   1.977   5.022   2.133  0.1889 -0.5722 -2.1560
 6413TIP3   OH219244   3.804   4.990   5.041 -0.0688 -0.3011 -0.9615
 6413TIP3    H119245   3.877   5.042   5.075  0.4673 -0.9554 -1.1014
 6413TIP3    H219246   3.737   5.055   5.019 -0.0509  0.2028  0.4035
 6414TIP3   OH219247   3.752   1.873   4.910  0.0907 -0.1235  0.2495
 6414TIP3    H119248   3.826   1.876   4.971 -0.8474  0.0938  1.4183
 6414TIP3    H219249   3.790   1.842   4.828  1.3287 -0.8396  1.0534
 6415TIP3   OH219250   0.166   3.621   3.065  0.3922 -0.0202  0.0726
 6415TIP3    H119251   0.224   3.661   3.130 -0.3116  2.1124 -0.5033
 6415TIP3    H219252   0.107   3.566   3.116  1.2142 -0.1075  0.9650
 6416TIP3   OH219253   3.334   1.066   0.377  0.3855  0.0239  0.0383
 6416TIP3    H119254   3.397   0.995   0.382 -1.5620 -1.8257 -0.1387
 6416TIP3    H219255   3.254   1.025   0.344 -0.6747  2.4250 -0.6018
 6417TIP3   OH219256   0.159   1.983   4.908  0.1844 -0.6974 -0.3006
 6417TIP3    H119257   0.132   2.049   4.844  1.0866  0.0484  0.0621
 6417TIP3    H219258   0.237   1.944   4.870 -0.4500 -1.7070 -0.5990
 6418TIP3   OH219259   3.739   1.454   4.030  0.3247  0.5375 -0.0778
 6418TIP3    H119260   3.734   1.392   3.957 -0.5405  0.7078 -0.1791
 6418TIP3    H219261   3.795   1.524   3.999  2.3042 -0.7371  0.4650
 6419TIP3   OH219262   2.373   2.829   0.136  0.6822  0.0553  0.0822
 6419TIP3    H119263   2.293   2.790   0.172  0.6558  0.3238  0.3212
 6419TIP3    H219264   2.345   2.870   0.055  0.3596  1.0492  0.6831
 6420TIP3   OH219265   3.904   4.165   4.136 -0.1672  0.2406 -0.2495
 6420TIP3    H119266   3.867   4.076   4.141  2.4148 -0.9177  0.0181
 6420TIP3    H219267   3.904   4.196   4.226 -0.5832  0.2938 -0.2665
 6421TIP3   OH219268   2.482   6.001   5.158 -0.5755 -0.1227  0.4245
 6421TIP3    H119269   2.564   5.979   5.115 -1.1266 -0.4854 -0.4592
 6421TIP3    H219270   2.482   5.949   5.239 -0.5141 -1.1047 -0.1992
 6422TIP3   OH219271   6.322   3.796   4.709 -0.4882 -0.0558 -0.3621
 6422TIP3    H119272   6.277   3.828   4.787  0.3988 -0.7179  0.4450
 6422TIP3    H219273   6.372   3.871   4.677 -1.8538  0.5769 -1.0514
 6423TIP3   OH219274   5.110   1.989   2.544 -0.3775 -0.2621  0.2238
 6423TIP3    H119275   5.156   1.970   2.462 -0.2425 -0.2956  0.3059
 6423TIP3    H219276   5.181   2.002   2.608 -0.5018 -1.5241  0.6288
 6424TIP3   OH219277   5.974   4.220   1.784 -0.0132 -0.0934 -0.6913
 6424TIP3    H119278   6.022   4.260   1.712  2.9557 -0.9963  0.6292
 6424TIP3    H219279   5.946   4.295   1.838  1.0225  0.4251 -0.8520
 6425TIP3   OH219280   6.071   3.643   1.600 -0.2264 -0.5641  0.2613
 6425TIP3    H119281   6.022   3.631   1.518  1.1691  0.3490 -0.7439
 6425TIP3    H219282   6.029   3.582   1.662 -1.0010 -1.6372 -1.2521
 6426TIP3   OH219283   2.957   3.692   1.188  0.5102 -0.0831  0.3385
 6426TIP3    H119284   3.012   3.763   1.221 -0.3534  0.2091  1.1902
 6426TIP3    H219285   2.880   3.692   1.245  0.4482 -1.6510  0.3094
 6427TIP3   OH219286   6.252   1.119   5.070  0.3248 -0.0889  0.6203
 6427TIP3    H119287   6.184   1.182   5.048  1.0530  0.2378 -0.8653
 6427TIP3    H219288   6.305   1.162   5.137 -0.4928 -0.0590  1.2601
 6428TIP3   OH219289   0.294   2.705   4.562 -0.4795  0.1731 -0.0904
 6428TIP3    H119290   0.361   2.646   4.530 -0.7804 -0.1411 -0.1435
 6428TIP3    H219291   0.301   2.782   4.505  1.4611  1.2010  1.4056
 6429TIP3   OH219292   1.390   0.785   2.695 -0.2681  0.2153  0.3234
 6429TIP3    H119293   1.412   0.703   2.651 -0.4959  0.6773 -0.6598
 6429TIP3    H219294   1.468   0.803   2.749 -0.0324 -0.4075  0.2107
 6430TIP3   OH219295   3.916   5.133   0.146  0.1507  0.0075  0.4494
 6430TIP3    H119296   3.995   5.183   0.166  0.4710  0.4580 -1.6527
 6430TIP3    H219297   3.946   5.064   0.087 -1.0780  0.5622 -0.8955
 6431TIP3   OH219298   1.621   4.371   4.111 -0.1089  0.2053  0.2985
 6431TIP3    H119299   1.544   4.325   4.145  0.2558  0.2654  1.2375
 6431TIP3    H219300   1.695   4.315   4.134  0.1049 -0.0798 -1.0082
 6432TIP3   OH219301   4.131   0.782   3.739 -0.8616  0.2536  0.2567
 6432TIP3    H119302   4.117   0.813   3.828 -0.7534  1.3839 -0.1042
 6432TIP3    H219303   4.209   0.727   3.745 -0.6786  0.5678  0.7946
 6433TIP3   OH219304   6.316   3.315   5.108  0.1405  0.1500  0.8307
 6433TIP3    H119305   6.239   3.279   5.064  0.7253 -1.8869  1.3646
 6433TIP3    H219306   6.309   3.409   5.095 -1.0116 -0.1725 -1.4623
 6434TIP3   OH219307   2.534   0.639   0.338  0.3723 -0.1267 -0.1476
 6434TIP3    H119308   2.455   0.659   0.387 -0.6464 -0.4285 -1.5805
 6434TIP3    H219309   2.513   0.664   0.248  3.4446  4.0421 -0.0349
 6435TIP3   OH219310   4.659   3.479   0.806 -0.2994 -0.2856 -0.0995
 6435TIP3    H119311   4.671   3.398   0.855  0.3531  0.0648  0.3327
 6435TIP3    H219312   4.657   3.452   0.714 -2.3045 -1.0373  0.1224
 6436TIP3   OH219313   5.240   4.390   4.212 -0.1369  0.3287  0.1165
 6436TIP3    H119314   5.236   4.313   4.269  2.2502 -0.5199 -0.7703
 6436TIP3    H219315   5.262   4.462   4.270  0.2653 -0.1549  0.5699
 6437TIP3   OH219316   0.733   1.104   1.184  0.5906 -0.5720  0.0979
 6437TIP3    H119317   0.775   1.166   1.244  0.5667 -1.4726  1.0784
 6437TIP3    H219318   0.777   1.117   1.100 -1.0089  2.4430 -0.4144
 6438TIP3   OH219319   4.545   5.563   1.551 -0.8050  0.2488 -0.1686
 6438TIP3    H119320   4.508   5.587   1.466  0.0759  0.3435 -0.5382
 6438TIP3    H219321   4.490   5.607   1.615 -1.1394  0.6356 -0.7197
 6439TIP3   OH219322   1.116   4.877   3.492  0.6523 -0.4352 -0.3699
 6439TIP3    H119323   1.066   4.837   3.564 -0.4443  1.9382  0.2868
 6439TIP3    H219324   1.172   4.941   3.536  1.3940 -0.2973 -1.4946
 6440TIP3   OH219325   2.121   5.533   1.040 -0.1944  0.2798 -0.3739
 6440TIP3    H119326   2.167   5.489   1.112  1.0256  1.1047 -0.6078
 6440TIP3    H219327   2.063   5.595   1.083 -0.9889 -0.6538 -0.0716
 6441TIP3   OH219328   4.688   5.735   3.725 -0.4109 -0.2451 -0.2096
 6441TIP3    H119329   4.754   5.666   3.725  0.2108  0.3228 -1.3192
 6441TIP3    H219330   4.641   5.724   3.642 -1.4620 -0.3981  0.3904
 6442TIP3   OH219331   1.118   0.647   3.414  0.3498 -0.5245 -0.4805
 6442TIP3    H119332   1.159   0.573   3.460  0.8483 -0.6312 -1.0809
 6442TIP3    H219333   1.085   0.609   3.332  0.1215 -0.1915 -0.5440
 6443TIP3   OH219334   4.432   2.597   0.990  0.3187  0.2478 -0.1218
 6443TIP3    H119335   4.374   2.577   0.916 -0.0585  1.8686 -0.2932
 6443TIP3    H219336   4.493   2.523   0.992 -1.1188 -1.0093 -0.5540
 6444TIP3   OH219337   2.223   2.514   3.777 -0.1506 -0.2511  0.0352
 6444TIP3    H119338   2.235   2.534   3.684  0.2838  1.2465  0.3950
 6444TIP3    H219339   2.291   2.565   3.821  1.7090 -3.2967  0.9836
 6445TIP3   OH219340   0.539   5.391   4.514  0.5297  0.0301  0.2855
 6445TIP3    H119341   0.622   5.361   4.550  0.4474  0.8819  1.2461
 6445TIP3    H219342   0.533   5.483   4.540 -0.4948  0.1113 -0.1701
 6446TIP3   OH219343   1.065   0.129   2.639  0.1471 -0.2073  0.3365
 6446TIP3    H119344   1.134   0.195   2.628 -0.4928  0.4241 -0.0788
 6446TIP3    H219345   1.024   0.151   2.722 -0.6601  0.5293 -0.2251
 6447TIP3   OH219346   1.511   4.047   1.441  0.4669  0.0588  0.0484
 6447TIP3    H119347   1.420   4.029   1.464  0.6427  0.3848  1.0636
 6447TIP3    H219348   1.509   4.134   1.402  0.4593  0.4854  0.9721
 6448TIP3   OH219349   0.890   1.482   4.205 -0.1732 -0.0229 -0.0712
 6448TIP3    H119350   0.802   1.521   4.204  0.1478  0.7084 -1.1563
 6448TIP3    H219351   0.930   1.510   4.123  0.7641 -1.1017 -0.0081
 6449TIP3   OH219352   5.824   3.898   2.381  0.2934 -0.2144 -0.3913
 6449TIP3    H119353   5.736   3.911   2.416  0.8244 -0.6665  1.2058
 6449TIP3    H219354   5.866   3.983   2.391  0.1114 -0.0486 -0.9824
 6450TIP3   OH219355   4.499   5.215   3.225  0.0538 -0.1472 -0.0300
 6450TIP3    H119356   4.573   5.199   3.166  0.4601  0.1659  0.3948
 6450TIP3    H219357   4.522   5.169   3.305 -0.1797  0.0164  0.1301
 6451TIP3   OH219358   5.073   1.518   2.292 -0.3226  0.0634 -0.0621
 6451TIP3    H119359   5.142   1.518   2.359  0.3518  1.0278 -0.7288
 6451TIP3    H219360   4.993   1.538   2.341  0.1061  0.4273  0.5195
 6452TIP3   OH219361   4.766   5.390   0.224 -0.1040 -0.2669  0.5551
 6452TIP3    H119362   4.860   5.395   0.207 -0.1184 -0.9438  0.2345
 6452TIP3    H219363   4.759   5.375   0.318  0.0411  1.5330  0.8841
 6453TIP3   OH219364   5.808   2.171   3.356 -0.0664 -0.2379 -0.0375
 6453TIP3    H119365   5.787   2.088   3.399  0.3818 -1.4930 -2.0964
 6453TIP3    H219366   5.727   2.196   3.312 -0.3156  0.6460  0.9083
 6454TIP3   OH219367   0.441   5.101   3.355 -0.0067 -0.2388 -0.0533
 6454TIP3    H119368   0.368   5.103   3.292 -0.3420  1.8251  0.3228
 6454TIP3    H219369   0.451   5.193   3.382  1.6491 -0.7443  1.1657
 6455TIP3   OH219370   3.856   1.923   3.142  0.2464 -0.5453 -0.1923
 6455TIP3    H119371   3.762   1.939   3.136  0.2421 -0.0705  0.9185
 6455TIP3    H219372   3.874   1.860   3.072 -1.2259 -2.0905  0.7295
 6456TIP3   OH219373   3.804   0.973   3.114 -0.1155  0.1800 -0.3319
 6456TIP3    H119374   3.883   0.931   3.150 -1.1158 -2.3755 -0.9371
 6456TIP3    H219375   3.741   0.968   3.186 -0.3530  0.3748 -0.5298
 6457TIP3   OH219376   2.965   2.053   3.015 -0.5622  0.2420 -0.6048
 6457TIP3    H119377   3.028   2.017   3.077  0.7100  0.8236 -1.4947
 6457TIP3    H219378   2.883   2.059   3.064 -0.1629 -1.3653  0.3253
 6458TIP3   OH219379   1.442  -0.001   2.640  0.2904 -0.1488 -0.1851
 6458TIP3    H119380   1.389   0.026   2.715 -0.2035  0.8308 -0.8623
 6458TIP3    H219381   1.527  -0.022   2.677 -0.7458 -2.5731  1.0570
 6459TIP3   OH219382   1.438   3.187   2.165  0.2937  0.4920  0.0140
 6459TIP3    H119383   1.435   3.162   2.073  0.2685  1.6872 -0.3220
 6459TIP3    H219384   1.350   3.220   2.184 -0.8682 -3.0065  1.4677
 6460TIP3   OH219385   1.591   2.245   4.507  0.0432 -0.2770  0.5784
 6460TIP3    H119386   1.505   2.225   4.543 -0.0163  0.2884  0.7692
 6460TIP3    H219387   1.599   2.340   4.516  0.3750 -0.2286 -0.1301
 6461TIP3   OH219388   2.384   0.541   2.512  0.2606  0.5836 -0.0270
 6461TIP3    H119389   2.364   0.554   2.419  1.8303 -1.9122 -0.8214
 6461TIP3    H219390   2.462   0.484   2.512 -0.1522 -0.1355  2.8197
 6462TIP3   OH219391   4.871   3.563   1.707 -0.5714 -0.3661  0.5269
 6462TIP3    H119392   4.831   3.650   1.705  2.8571  1.4190 -2.1833
 6462TIP3    H219393   4.846   3.523   1.623 -0.5427 -1.2265  0.9129
 6463TIP3   OH219394   5.250   0.603   1.608 -0.0456  0.8275 -0.3787
 6463TIP3    H119395   5.272   0.515   1.640  1.3220  1.4711  0.5485
 6463TIP3    H219396   5.192   0.639   1.675  2.6338  2.0892  1.4125
 6464TIP3   OH219397   4.214   5.941   4.036  0.2357  0.4395 -0.5197
 6464TIP3    H119398   4.174   5.966   4.120 -0.3220  1.1091 -0.9731
 6464TIP3    H219399   4.302   5.978   4.040 -1.2235  4.6464 -2.0530
 6465TIP3   OH219400   5.251   5.503   4.262 -0.2203 -0.1644  0.0790
 6465TIP3    H119401   5.329   5.462   4.226 -1.3299 -0.2977 -2.3895
 6465TIP3    H219402   5.195   5.429   4.287 -0.4843 -0.1209 -0.3658
 6466TIP3   OH219403   3.782   0.754   4.296 -0.2939 -0.1197 -0.0406
 6466TIP3    H119404   3.781   0.848   4.278 -1.0664 -0.3135 -1.1254
 6466TIP3    H219405   3.772   0.713   4.210  2.0157 -1.2577  0.1695
 6467TIP3   OH219406   3.712   3.845   2.300 -0.0709  0.5018 -0.3041
 6467TIP3    H119407   3.745   3.825   2.213  0.7213  1.4104 -0.2302
 6467TIP3    H219408   3.776   3.906   2.336  0.2816 -0.7796  1.3820
 6468TIP3   OH219409   1.311   5.176   1.251 -0.2635  0.2534  0.4706
 6468TIP3    H119410   1.358   5.231   1.189 -1.1666  0.4347 -0.0710
 6468TIP3    H219411   1.364   5.097   1.258 -0.3357  0.0657 -0.8316
 6469TIP3   OH219412   2.012   3.463   0.251 -0.5062 -0.2834 -0.1257
 6469TIP3    H119413   2.035   3.391   0.309  0.4044  0.7984  0.8776
 6469TIP3    H219414   1.920   3.447   0.230  0.0670 -2.6317 -1.2562
 6470TIP3   OH219415   3.006   5.306   3.640 -0.3202 -0.1639 -0.0234
 6470TIP3    H119416   2.935   5.258   3.596 -0.7613  0.8592 -0.4545
 6470TIP3    H219417   3.083   5.287   3.587 -0.6138  0.0869 -0.5533
 6471TIP3   OH219418   3.535   0.558   3.081 -0.2948  0.4557 -0.2582
 6471TIP3    H119419   3.577   0.502   3.016 -1.3150  0.5478 -1.0018
 6471TIP3    H219420   3.450   0.517   3.098 -1.1312  1.8515 -0.9401
 6472TIP3   OH219421   3.509   2.717   3.199  0.3275  0.5265  0.2307
 6472TIP3    H119422   3.557   2.729   3.281  0.4804 -0.6323  0.3309
 6472TIP3    H219423   3.476   2.804   3.178 -0.9129  0.6241  2.2541
 6473TIP3   OH219424   1.120   3.097   2.177  0.1160 -0.2891  0.0698
 6473TIP3    H119425   1.165   3.098   2.092  1.7276 -0.0297  0.8889
 6473TIP3    H219426   1.141   3.012   2.214 -0.4751 -0.3487  0.2830
 6474TIP3   OH219427   3.623   4.630   0.600  0.3449  0.2538 -0.1563
 6474TIP3    H119428   3.697   4.611   0.543  0.5581 -0.5889  0.3776
 6474TIP3    H219429   3.624   4.560   0.665  0.9446  1.8737  1.7224
 6475TIP3   OH219430   4.347   2.741   5.031 -0.5925 -1.0501 -0.3460
 6475TIP3    H119431   4.375   2.683   4.960 -1.8066 -1.0181 -0.8853
 6475TIP3    H219432   4.288   2.686   5.083 -0.4000 -0.8031  0.1351
 6476TIP3   OH219433   3.358   0.433   4.066 -0.2844 -0.0467 -0.1755
 6476TIP3    H119434   3.286   0.411   4.125  0.2488 -1.0929  0.1027
 6476TIP3    H219435   3.340   0.383   3.986  0.5735 -1.0047  0.2114
 6477TIP3   OH219436   5.152   0.839   0.718 -0.8522 -0.2262  0.0839
 6477TIP3    H119437   5.245   0.848   0.741 -0.5178 -0.0745 -1.2600
 6477TIP3    H219438   5.109   0.908   0.768 -0.2291 -0.2188  0.6283
 6478TIP3   OH219439   5.763   2.797   3.655  0.0231  0.7346  0.4312
 6478TIP3    H119440   5.815   2.860   3.705 -0.5821 -0.3398  2.5128
 6478TIP3    H219441   5.814   2.716   3.656  0.0317  0.6982 -0.8081
 6479TIP3   OH219442   5.445   1.901   1.249 -0.0100 -0.3658 -0.8558
 6479TIP3    H119443   5.408   1.958   1.181 -0.5558 -0.0194 -0.2841
 6479TIP3    H219444   5.510   1.956   1.294 -0.5976 -0.1449 -0.2489
 6480TIP3   OH219445   4.742   0.579   4.438  0.8901  0.6867 -0.0406
 6480TIP3    H119446   4.769   0.666   4.407 -0.7420  1.1639 -0.2123
 6480TIP3    H219447   4.824   0.535   4.457  1.7665  3.0625  2.3256
 6481TIP3   OH219448   2.916   0.894   0.197 -0.4781 -0.8081 -0.3218
 6481TIP3    H119449   2.871   0.833   0.256 -0.0395 -0.0228  0.8530
 6481TIP3    H219450   2.993   0.845   0.168 -0.0605 -0.7908  0.7134
 6482TIP3   OH219451   3.323   3.569   1.665  0.0072 -0.1493 -0.2517
 6482TIP3    H119452   3.402   3.570   1.611  0.0716 -1.2714 -0.1936
 6482TIP3    H219453   3.262   3.511   1.619 -0.0610 -0.8547  0.6891
 6483TIP3   OH219454   3.336   1.401   0.054 -0.3944  0.1143 -0.1679
 6483TIP3    H119455   3.396   1.475   0.063 -0.6519  0.4039 -0.7896
 6483TIP3    H219456   3.285   1.402   0.135 -1.3101  1.4447 -0.7249
 6484TIP3   OH219457   1.395   1.373   5.040  0.4671 -0.0015 -0.0191
 6484TIP3    H119458   1.470   1.324   5.007 -0.8448 -1.2625 -1.3547
 6484TIP3    H219459   1.405   1.461   5.004  0.9486 -0.3533 -0.7578
 6485TIP3   OH219460   3.750   4.459   3.224 -0.1060 -0.5439  0.0655
 6485TIP3    H119461   3.724   4.502   3.143  2.0197 -0.9676 -0.9032
 6485TIP3    H219462   3.679   4.396   3.240 -2.1562  1.6749  0.3370
 6486TIP3   OH219463   2.272   0.615   2.289  0.2759  0.0360 -0.1657
 6486TIP3    H119464   2.203   0.584   2.230 -0.0514 -0.6811  0.5764
 6486TIP3    H219465   2.289   0.705   2.260 -1.5245  0.5187  0.1305
 6487TIP3   OH219466   5.197   4.944   0.686  0.3939  0.1259 -0.4682
 6487TIP3    H119467   5.269   4.998   0.719  1.4338 -0.8143 -1.1112
 6487TIP3    H219468   5.194   4.962   0.592  1.0003 -1.1733 -0.7563
 6488TIP3   OH219469   1.441   2.122   4.237 -0.0080  0.2652  0.7515
 6488TIP3    H119470   1.456   2.108   4.330  2.3724  0.3909  0.4489
 6488TIP3    H219471   1.494   2.198   4.215  0.9203 -0.8046 -1.0137
 6489TIP3   OH219472   1.715   5.779   3.625  0.7755 -0.0072  0.1302
 6489TIP3    H119473   1.738   5.716   3.557  0.1867 -1.0109  0.8237
 6489TIP3    H219474   1.667   5.727   3.690 -0.5507  1.3432  0.2858
 6490TIP3   OH219475   3.675   3.000   2.536  0.1831 -0.3810  0.1150
 6490TIP3    H119476   3.605   2.963   2.590 -1.3476  1.2504 -0.6135
 6490TIP3    H219477   3.643   2.991   2.447  0.9913  0.2119 -0.2460
 6491TIP3   OH219478   0.585   3.570   4.925  0.9475 -0.4115 -0.2295
 6491TIP3    H119479   0.530   3.597   4.999  1.9085  1.5023 -0.1527
 6491TIP3    H219480   0.528   3.513   4.873 -0.1769 -0.7506  1.2888
 6492TIP3   OH219481   4.993   2.579   4.425  0.2421 -0.3753 -0.2110
 6492TIP3    H119482   4.986   2.483   4.427 -0.9534 -0.3498  2.9383
 6492TIP3    H219483   4.909   2.608   4.389  0.7018 -0.4695 -1.4041
 6493TIP3   OH219484   2.104   3.901   3.496 -1.1197  0.2956  0.2007
 6493TIP3    H119485   2.039   3.849   3.542 -0.8509  0.7569  1.1252
 6493TIP3    H219486   2.085   3.991   3.521  0.3924  0.3712  1.1904
 6494TIP3   OH219487   2.729   4.929   4.077 -0.0901  0.5317  0.1952
 6494TIP3    H119488   2.812   4.973   4.062  0.0062  0.5275  0.6822
 6494TIP3    H219489   2.727   4.857   4.014 -0.6995  1.8210 -1.3160
 6495TIP3   OH219490   0.478   0.494   4.925  0.3518  0.5180 -0.7028
 6495TIP3    H119491   0.538   0.543   4.868  1.0898 -0.0451 -0.4101
 6495TIP3    H219492   0.435   0.562   4.977  2.0486  0.8207  0.3617
 6496TIP3   OH219493   0.943   1.028   3.903  0.2148  0.7059  0.6174
 6496TIP3    H119494   0.861   0.982   3.921 -0.2362 -0.0444 -2.6908
 6496TIP3    H219495   0.922   1.121   3.916 -1.8853  0.7289 -2.1559
 6497TIP3   OH219496   1.278   5.240   3.359 -0.1722 -0.2690  0.2598
 6497TIP3    H119497   1.313   5.310   3.414 -2.8909  0.0971  1.7148
 6497TIP3    H219498   1.350   5.176   3.353  1.0141  0.7576  2.3111
 6498TIP3   OH219499   5.442   4.471   1.751 -0.1157  0.2711  0.0547
 6498TIP3    H119500   5.489   4.449   1.832  2.2597 -1.2194 -1.6069
 6498TIP3    H219501   5.350   4.465   1.775  0.5013  0.1684  2.7262
 6499TIP3   OH219502   5.197   1.816   3.101 -0.7355  0.1592 -0.3038
 6499TIP3    H119503   5.152   1.836   3.183 -0.9666 -0.8784 -0.1690
 6499TIP3    H219504   5.204   1.901   3.057 -1.9331  0.4987  0.1201
 6500TIP3   OH219505   0.361   0.738   0.837  0.8821 -0.1179  1.3711
 6500TIP3    H119506   0.281   0.688   0.853  0.3300  1.1296  2.7729
 6500TIP3    H219507   0.429   0.672   0.826 -0.1229 -1.1903  1.3684
 6501TIP3   OH219508   1.703   1.268   2.691  0.0247  0.0252  0.5098
 6501TIP3    H119509   1.700   1.202   2.621  1.7046 -1.2702  1.5946
 6501TIP3    H219510   1.634   1.241   2.752  0.5999 -0.6608  0.8697
 6502TIP3   OH219511   4.626   2.729   3.930 -0.1390 -0.3664  0.3257
 6502TIP3    H119512   4.632   2.748   3.836 -0.1257 -0.3462  0.3308
 6502TIP3    H219513   4.554   2.782   3.961  1.0038  1.0302  0.6918
 6503TIP3   OH219514   0.970   0.467   3.199  0.2249  0.0581  0.3233
 6503TIP3    H119515   0.932   0.423   3.124  0.1090  0.2085  0.2919
 6503TIP3    H219516   1.043   0.412   3.226 -0.4417 -0.6038  0.8164
 6504TIP3   OH219517   5.285   4.542   0.804 -0.0001  0.4735  0.1547
 6504TIP3    H119518   5.370   4.507   0.775  1.5011  1.8363  2.4892
 6504TIP3    H219519   5.290   4.538   0.900 -2.7056  0.4440  0.3671
 6505TIP3   OH219520   3.354   4.427   1.274 -0.2302  0.1449 -0.1076
 6505TIP3    H119521   3.307   4.361   1.324  0.5344 -0.1765  0.2018
 6505TIP3    H219522   3.446   4.405   1.285  0.0499  1.3637  0.1482
 6506TIP3   OH219523   1.820   4.193   3.296 -0.0232 -0.3393 -0.4322
 6506TIP3    H119524   1.764   4.153   3.229 -0.5578 -0.6828  0.2118
 6506TIP3    H219525   1.775   4.274   3.320 -0.3420 -0.6959  0.2041
 6507TIP3   OH219526   5.425   2.706   2.753  0.0853 -0.0052  0.2198
 6507TIP3    H119527   5.509   2.751   2.749 -0.0360  0.1280 -1.4981
 6507TIP3    H219528   5.441   2.629   2.807  1.6633 -0.6734 -1.1210
 6508TIP3   OH219529   3.145   2.921   4.996  0.4683  0.6605 -0.2487
 6508TIP3    H119530   3.224   2.962   4.960  0.5228 -0.5603 -1.6177
 6508TIP3    H219531   3.116   2.982   5.064  1.5758  2.0277 -0.9264
 6509TIP3   OH219532   5.707   4.007   3.737 -0.1076 -0.1266 -0.2442
 6509TIP3    H119533   5.650   4.068   3.784 -1.9404 -0.8890 -1.3576
 6509TIP3    H219534   5.708   4.039   3.647  0.9141 -0.3727 -0.3345
 6510TIP3   OH219535   2.259   0.548   1.506 -0.4496 -0.1721  0.3396
 6510TIP3    H119536   2.260   0.506   1.592  0.4089  0.3582  0.5954
 6510TIP3    H219537   2.329   0.505   1.458  1.2212  1.7050  0.9852
 6511TIP3   OH219538   5.077   1.357   1.799 -0.4183  0.5634  0.5026
 6511TIP3    H119539   5.171   1.340   1.789 -0.5509 -0.7439  1.1706
 6511TIP3    H219540   5.045   1.369   1.710  0.0619 -0.9694  0.0958
 6512TIP3   OH219541   5.760   2.843   2.142  0.1598 -0.5531 -0.1060
 6512TIP3    H119542   5.819   2.918   2.132  0.0256 -0.4090  0.1825
 6512TIP3    H219543   5.816   2.766   2.132  0.2234 -0.4181 -0.8857
 6513TIP3   OH219544   1.418   1.724   0.943 -0.3962  0.5431  0.0700
 6513TIP3    H119545   1.490   1.714   0.882 -1.4792  1.2992 -1.3915
 6513TIP3    H219546   1.429   1.812   0.980  0.7192 -0.2140  1.6378
 6514TIP3   OH219547   4.883   3.455   3.857 -0.1093 -0.1277 -0.7329
 6514TIP3    H119548   4.860   3.388   3.793 -0.8372 -1.7481  1.1046
 6514TIP3    H219549   4.975   3.440   3.875 -0.6417 -1.8801  0.9155
 6515TIP3   OH219550   1.264   1.741   3.079  0.4453  0.6713 -0.6930
 6515TIP3    H119551   1.340   1.739   3.136 -0.1601  0.4588  0.1307
 6515TIP3    H219552   1.287   1.685   3.005  1.3144  1.1129 -0.7636
 6516TIP3   OH219553   2.372   4.732   3.347  0.0712 -0.1733  0.3570
 6516TIP3    H119554   2.331   4.804   3.298  0.8159 -0.2607 -0.4192
 6516TIP3    H219555   2.425   4.776   3.414  0.2346 -0.0052  0.1203
 6517TIP3   OH219556   6.079   5.358   0.012  0.2241 -0.7203 -0.1072
 6517TIP3    H119557   6.136   5.307   0.070  1.1349  1.1536  0.7213
 6517TIP3    H219558   5.991   5.346   0.049  0.4966 -1.2230  0.4058
 6518TIP3   OH219559   4.141   4.159   2.616 -0.2412  0.2871 -0.1005
 6518TIP3    H119560   4.082   4.133   2.687 -0.8927 -2.5671 -1.5298
 6518TIP3    H219561   4.228   4.162   2.657 -0.9680  1.9540  1.4548
 6519TIP3   OH219562   1.971   1.819   0.381 -0.7291  0.3108  0.0966
 6519TIP3    H119563   2.007   1.883   0.443 -0.3950 -0.7535  1.0379
 6519TIP3    H219564   1.907   1.770   0.432 -1.8168  0.6162 -0.9292
 6520TIP3   OH219565   3.240   4.687   2.859  0.2057  0.0193 -0.3198
 6520TIP3    H119566   3.225   4.602   2.818  1.0263 -0.5630  0.5597
 6520TIP3    H219567   3.190   4.684   2.940  1.9339 -0.4800  0.7704
 6521TIP3   OH219568   4.689   5.950   1.572 -0.1097 -0.4067  0.4109
 6521TIP3    H119569   4.770   5.903   1.592  1.1602  1.7097  0.5050
 6521TIP3    H219570   4.669   5.927   1.482  0.0039 -1.7652  0.7184
 6522TIP3   OH219571   4.519   2.813   0.236  0.1809  0.5063  0.1600
 6522TIP3    H119572   4.549   2.723   0.244 -1.4393 -0.2214 -1.3845
 6522TIP3    H219573   4.590   2.857   0.188 -0.5952 -0.9201 -2.4886
 6523TIP3   OH219574   6.153   2.030   4.272  0.0721 -0.1823  0.0810
 6523TIP3    H119575   6.224   2.012   4.211  1.9791 -0.1390  2.1889
 6523TIP3    H219576   6.107   1.947   4.281  1.0452 -0.7230  0.1508
 6524TIP3   OH219577   2.384   3.112   4.511  0.4627 -0.0943 -0.1484
 6524TIP3    H119578   2.470   3.152   4.524  1.1838 -1.4741 -0.5531
 6524TIP3    H219579   2.351   3.151   4.430  0.7206  0.3883 -0.0262
 6525TIP3   OH219580   0.954   4.353   4.661  0.4376  0.0953  0.3840
 6525TIP3    H119581   0.999   4.290   4.718  2.6843  2.0911  1.0098
 6525TIP3    H219582   0.861   4.344   4.684  1.0233 -0.7750  2.7667
 6526TIP3   OH219583   4.333   0.069   3.959  0.0661 -0.4331 -0.3207
 6526TIP3    H119584   4.253   0.102   3.917  0.3172 -1.4089 -1.6332
 6526TIP3    H219585   4.301   0.021   4.035 -0.3989  1.3947  0.7145
 6527TIP3   OH219586   4.784   3.641   2.912  0.0196 -0.7640  0.1053
 6527TIP3    H119587   4.841   3.707   2.952 -1.3506  0.3190  0.3339
 6527TIP3    H219588   4.702   3.648   2.960 -1.1789 -0.4801 -1.8569
 6528TIP3   OH219589   4.106   1.200   3.275  0.1064 -0.5944 -0.1255
 6528TIP3    H119590   4.094   1.106   3.259 -0.6869 -0.6097  0.5066
 6528TIP3    H219591   4.169   1.204   3.347 -0.8856 -0.6943  0.7715
 6529TIP3   OH219592   3.921   5.738   1.828  0.6146  0.2751  0.0582
 6529TIP3    H119593   3.979   5.706   1.760 -1.9245 -1.6495 -1.4039
 6529TIP3    H219594   3.841   5.686   1.817 -1.5863  3.0581  1.5444
 6530TIP3   OH219595   5.763   0.884   4.136  0.0635  0.7201  0.2276
 6530TIP3    H119596   5.710   0.814   4.100  0.7365 -0.0808  0.7542
 6530TIP3    H219597   5.801   0.848   4.216  0.7584  1.5297  0.2888
 6531TIP3   OH219598   3.723   5.100   1.162  0.2354 -0.5087 -0.7775
 6531TIP3    H119599   3.759   5.041   1.229 -1.7517 -1.1863 -0.2392
 6531TIP3    H219600   3.709   5.045   1.086 -2.0294 -0.9014 -0.1356
 6532TIP3   OH219601   2.161   4.396   2.661  0.2578 -0.1774  0.3316
 6532TIP3    H119602   2.115   4.318   2.628  0.5491 -0.1693 -0.0955
 6532TIP3    H219603   2.250   4.365   2.679  0.3430  0.0358  0.2681
 6533TIP3   OH219604   0.074   1.778   3.167 -0.7029  0.2252  0.8895
 6533TIP3    H119605   0.054   1.730   3.086  2.7432  0.3005 -0.1817
 6533TIP3    H219606   0.017   1.739   3.233 -0.7724 -2.7302 -0.7566
 6534TIP3   OH219607   6.096   1.343   3.007  0.5908  0.3461  0.2335
 6534TIP3    H119608   6.078   1.288   3.083 -0.3956  1.6377  0.9826
 6534TIP3    H219609   6.017   1.336   2.953  0.7896  0.4009 -0.0661
 6535TIP3   OH219610   2.937   1.341   0.888 -0.5686  0.0589 -0.5018
 6535TIP3    H119611   2.988   1.305   0.960 -0.3992  0.2212 -0.5401
 6535TIP3    H219612   2.846   1.316   0.907 -0.6822  1.0394  0.3434
 6536TIP3   OH219613   3.310   1.700   1.391  0.9295  0.2200  0.4554
 6536TIP3    H119614   3.380   1.635   1.381  0.0588 -0.8138  0.8170
 6536TIP3    H219615   3.250   1.660   1.454  0.7573  1.7354  1.2940
 6537TIP3   OH219616   5.613   4.633   0.497  0.2143  0.0810 -0.2547
 6537TIP3    H119617   5.559   4.680   0.560  0.0204 -0.6320  0.1279
 6537TIP3    H219618   5.583   4.663   0.412 -0.5997 -0.0964 -0.0371
 6538TIP3   OH219619   1.842   3.706   4.158  0.1296  0.4361  0.1179
 6538TIP3    H119620   1.870   3.758   4.084  0.4653  0.0349 -0.0413
 6538TIP3    H219621   1.747   3.696   4.146  0.3926 -0.9512 -1.1341
 6539TIP3   OH219622   1.888   2.565   3.022  0.1336  0.6160 -0.5955
 6539TIP3    H119623   1.831   2.493   3.047  0.2241  0.2426 -1.4449
 6539TIP3    H219624   1.888   2.623   3.099 -2.2531  1.1906 -0.9508
 6540TIP3   OH219625   1.760   1.476   1.570  0.1061  0.5274 -0.6085
 6540TIP3    H119626   1.736   1.567   1.587  0.2781  0.2771  1.2507
 6540TIP3    H219627   1.693   1.444   1.511 -2.9636  0.5153  2.5315
 6541TIP3   OH219628   0.666   1.289   2.575  0.0163  0.0223 -0.3643
 6541TIP3    H119629   0.701   1.237   2.503  2.1287  0.9957 -0.1018
 6541TIP3    H219630   0.610   1.355   2.531 -1.1819 -1.2404 -0.8219
 6542TIP3   OH219631   5.421   0.089   1.180  0.3229 -0.2496  0.4025
 6542TIP3    H119632   5.513   0.100   1.159  0.0124 -0.4788 -1.1883
 6542TIP3    H219633   5.387   0.178   1.187  0.7038 -0.1583  1.3021
 6543TIP3   OH219634   2.356   4.851   2.499  0.4206  0.1343  0.0498
 6543TIP3    H119635   2.401   4.835   2.417  0.1584 -2.6015  0.3301
 6543TIP3    H219636   2.279   4.795   2.495  0.8954 -0.8277  2.5249
 6544TIP3   OH219637   5.773   2.591   3.082 -0.5385  0.1787  0.7174
 6544TIP3    H119638   5.770   2.509   3.033  0.0435  0.9129 -0.6246
 6544TIP3    H219639   5.814   2.653   3.022 -2.1893  1.8042  1.1475
 6545TIP3   OH219640   0.989   4.160   1.430 -0.0248  0.1877 -0.6948
 6545TIP3    H119641   1.054   4.228   1.415  0.7593 -0.2361  0.6533
 6545TIP3    H219642   0.944   4.150   1.345  0.8266  1.3347 -1.3009
 6546TIP3   OH219643   0.286   5.492   2.022 -0.0679 -0.7807 -0.1857
 6546TIP3    H119644   0.316   5.515   2.110 -0.0466  2.1673 -0.8417
 6546TIP3    H219645   0.191   5.498   2.026 -0.0971 -1.1747 -0.2461
 6547TIP3   OH219646   5.305   1.764   0.285 -0.1553  0.6273  0.2281
 6547TIP3    H119647   5.362   1.691   0.308 -0.8925 -0.0256  0.0479
 6547TIP3    H219648   5.323   1.831   0.350 -0.8176 -0.4375  1.5490
 6548TIP3   OH219649   0.418   5.979   3.803 -0.1542 -0.2947  0.3063
 6548TIP3    H119650   0.478   6.036   3.851 -1.2474  0.2511  1.0651
 6548TIP3    H219651   0.475   5.911   3.766  0.8223 -0.4277  1.9217
 6549TIP3   OH219652   0.588   0.154   0.743 -0.1958 -0.1484 -0.4481
 6549TIP3    H119653   0.633   0.078   0.706 -0.0276 -0.4743  0.4182
 6549TIP3    H219654   0.499   0.124   0.760 -0.3974  0.1298 -0.9806
 6550TIP3   OH219655   4.914   4.332   0.368  0.0552  0.3961  0.0359
 6550TIP3    H119656   4.818   4.336   0.376 -0.6425 -2.0296 -4.1974
 6550TIP3    H219657   4.943   4.293   0.450 -2.5775  0.8564  1.3043
 6551TIP3   OH219658   5.503   2.749   4.070 -0.3143 -0.2130 -0.0597
 6551TIP3    H119659   5.442   2.809   4.112 -0.1670 -1.3758  1.9463
 6551TIP3    H219660   5.586   2.795   4.068 -0.7079  0.5010 -0.7028
 6552TIP3   OH219661   4.237   3.226   3.784  0.3814 -0.0724 -0.5346
 6552TIP3    H119662   4.185   3.247   3.706 -1.6702 -0.0252  0.7695
 6552TIP3    H219663   4.284   3.307   3.804 -0.2428  0.3878 -0.8950
 6553TIP3   OH219664   0.216   2.380   4.649  0.0969 -0.1306  0.0813
 6553TIP3    H119665   0.286   2.402   4.710 -1.0326  4.5299  0.0954
 6553TIP3    H219666   0.254   2.393   4.562  0.2738 -1.5096 -0.0596
 6554TIP3   OH219667   3.522   1.959   3.731 -0.2025  0.3272 -0.4340
 6554TIP3    H119668   3.458   2.030   3.730 -1.0239 -0.4012 -0.7118
 6554TIP3    H219669   3.543   1.945   3.638 -0.8337 -0.4803 -0.4645
 6555TIP3   OH219670   4.110   5.692   3.160 -0.7015  0.1104  0.1674
 6555TIP3    H119671   4.063   5.748   3.099 -0.3679  1.0126  0.7268
 6555TIP3    H219672   4.042   5.652   3.214 -0.8479  1.6329  1.1707
 6556TIP3   OH219673   1.532   0.402   1.708  0.1195  0.3578 -0.2851
 6556TIP3    H119674   1.605   0.400   1.770 -2.3398  0.9225  2.9075
 6556TIP3    H219675   1.512   0.310   1.690  1.3809  0.2004 -0.9575
 6557TIP3   OH219676   5.636   0.648   0.515 -0.6572 -0.1372  0.3424
 6557TIP3    H119677   5.603   0.577   0.569 -0.6873 -0.1612  0.2914
 6557TIP3    H219678   5.652   0.609   0.429  0.1104 -0.2830  0.5391
 6558TIP3   OH219679   0.095   1.301   1.283  0.0034  0.4592  0.7701
 6558TIP3    H119680   0.190   1.304   1.291 -0.0395  0.7201  1.2052
 6558TIP3    H219681   0.079   1.270   1.193  0.4949  0.1746  0.7808
 6559TIP3   OH219682   2.078   4.478   3.744  0.1110  0.0977  0.0995
 6559TIP3    H119683   2.137   4.465   3.670 -1.0411  0.2539 -0.8786
 6559TIP3    H219684   2.081   4.395   3.792  1.5480  0.3101  0.4003
 6560TIP3   OH219685   3.215   3.639   4.467  0.1031 -0.0833 -0.0489
 6560TIP3    H119686   3.140   3.698   4.458 -0.4180 -0.8082 -0.6364
 6560TIP3    H219687   3.291   3.694   4.450 -0.2326  0.8030  1.1502
 6561TIP3   OH219688   0.384   1.007   2.366  0.5569  0.5365 -0.2125
 6561TIP3    H119689   0.411   1.065   2.295  0.0397  0.7520 -0.2423
 6561TIP3    H219690   0.458   1.006   2.426  0.7209  0.9234 -0.4049
 6562TIP3   OH219691   3.922   2.933   1.820  0.3492 -0.5377 -0.5508
 6562TIP3    H119692   3.856   2.918   1.752  1.1233 -1.0749 -1.2041
 6562TIP3    H219693   3.974   3.007   1.788 -0.5427  0.5502  0.4449
 6563TIP3   OH219694   3.423   3.812   2.024  0.8746 -0.2861 -0.2086
 6563TIP3    H119695   3.474   3.884   1.986 -1.4716  1.6492  0.0639
 6563TIP3    H219696   3.425   3.828   2.119  1.1818 -1.1969 -0.0536
 6564TIP3   OH219697   1.028   2.537   0.070  0.0092 -0.4057 -0.4162
 6564TIP3    H119698   0.983   2.573  -0.006 -0.7203 -1.1432 -0.3540
 6564TIP3    H219699   1.024   2.607   0.135  0.0080 -0.0285 -0.8174
 6565TIP3   OH219700   0.721   0.829   4.747 -0.4810 -0.5929  0.8021
 6565TIP3    H119701   0.716   0.876   4.830 -1.1518 -1.4902  1.2886
 6565TIP3    H219702   0.645   0.771   4.748 -1.8260  0.9529 -1.4502
 6566TIP3   OH219703   2.768   3.996   2.658  0.0845  0.1172  0.6103
 6566TIP3    H119704   2.726   3.914   2.631 -0.3655 -0.3973  2.7251
 6566TIP3    H219705   2.696   4.060   2.660  0.6854  1.0743 -2.5901
 6567TIP3   OH219706   3.445   2.611   0.554 -0.1672  0.4256  0.2043
 6567TIP3    H119707   3.457   2.564   0.471 -0.8628  0.2435  0.1929
 6567TIP3    H219708   3.376   2.675   0.535 -0.3049  0.4063  0.6307
 6568TIP3   OH219709   2.377   3.872   1.112 -0.2145 -0.5363  0.2677
 6568TIP3    H119710   2.452   3.893   1.168  1.2438 -0.4126 -1.6315
 6568TIP3    H219711   2.326   3.952   1.110  0.4818 -0.0797  0.3014
 6569TIP3   OH219712   1.690   3.013   2.625  0.2650  0.5864  0.1513
 6569TIP3    H119713   1.763   2.951   2.631  1.7169  2.2175  0.1798
 6569TIP3    H219714   1.658   3.021   2.714  0.1158 -0.0546  0.1601
 6570TIP3   OH219715   4.164   4.456   0.064 -0.6510 -0.3489 -0.1939
 6570TIP3    H119716   4.162   4.544   0.103  0.5436 -0.1625 -0.4966
 6570TIP3    H219717   4.074   4.440   0.036 -0.9839  0.5814  0.2930
 6571TIP3   OH219718   4.379   3.236   1.034 -0.2665  0.8300  0.3691
 6571TIP3    H119719   4.404   3.208   0.946 -0.1469 -1.1397  0.9691
 6571TIP3    H219720   4.285   3.256   1.027 -1.0229 -2.1894  0.3354
 6572TIP3   OH219721   1.516   5.386   0.314  0.1602  0.3247 -0.0561
 6572TIP3    H119722   1.447   5.445   0.285  1.4200  1.1409 -1.5224
 6572TIP3    H219723   1.527   5.323   0.242  0.3863 -0.3013  0.5091
 6573TIP3   OH219724   6.140   3.934   4.484  0.5337  0.0717  0.0292
 6573TIP3    H119725   6.103   3.978   4.560  0.2270  0.3952 -0.3059
 6573TIP3    H219726   6.126   3.841   4.501  1.0095  0.1073  0.6487
 6574TIP3   OH219727   4.009   1.745   1.974 -0.1927  0.2010 -0.4482
 6574TIP3    H119728   4.100   1.750   1.946  0.0203  0.3087  0.2414
 6574TIP3    H219729   4.012   1.698   2.058 -0.6676  0.9983  0.0314
 6575TIP3   OH219730   0.881  -0.024   1.430 -0.1523  0.2847  0.1322
 6575TIP3    H119731   0.959  -0.009   1.375 -1.3242 -0.4832 -1.8655
 6575TIP3    H219732   0.815   0.034   1.393 -1.8422 -2.3383 -1.3112
 6576TIP3   OH219733   0.917   3.637   4.203  0.0256 -0.0018 -0.2130
 6576TIP3    H119734   0.875   3.621   4.288 -0.5404 -0.1541 -0.5135
 6576TIP3    H219735   0.929   3.549   4.166  1.0935  0.0051  0.0899
 6577TIP3   OH219736   1.320   3.059   4.946  0.2980  0.0539 -0.0714
 6577TIP3    H119737   1.263   3.045   5.022  1.8512  0.3580  1.1977
 6577TIP3    H219738   1.352   2.972   4.924 -0.1079 -0.0265 -0.3696
 6578TIP3   OH219739   5.200   1.614   1.042  0.3351  0.0876  0.0944
 6578TIP3    H119740   5.135   1.617   1.113 -0.4676  0.2683 -0.6313
 6578TIP3    H219741   5.232   1.524   1.043  2.7063  0.8263  2.7408
 6579TIP3   OH219742   2.977   4.149   4.244 -0.5884  0.4210  0.3114
 6579TIP3    H119743   2.969   4.055   4.227 -2.9611  0.6261 -0.0334
 6579TIP3    H219744   3.072   4.166   4.243 -0.0336 -2.1671  1.6638
 6580TIP3   OH219745   3.191   0.013   4.795 -0.6599 -0.6067  0.2175
 6580TIP3    H119746   3.194   0.095   4.745  0.7215 -1.2819 -0.9146
 6580TIP3    H219747   3.194  -0.055   4.728 -1.7787 -1.6054  1.1398
 6581TIP3   OH219748   0.956   2.678   0.465  0.0705  0.3577 -0.2239
 6581TIP3    H119749   0.890   2.610   0.454 -0.6270  1.0188 -0.2668
 6581TIP3    H219750   1.040   2.632   0.461 -0.3936 -0.7329  1.3464
 6582TIP3   OH219751   1.740   5.532   2.973 -0.1198 -0.0625 -0.6401
 6582TIP3    H119752   1.821   5.504   2.931  0.0797 -0.0071 -0.2968
 6582TIP3    H219753   1.742   5.627   2.968  0.9735  0.0803  1.4196
 6583TIP3   OH219754   4.108   2.556   2.362  0.5498 -0.2218 -0.1419
 6583TIP3    H119755   4.060   2.629   2.323 -0.0520 -0.6012 -0.1302
 6583TIP3    H219756   4.200   2.583   2.359  0.3329  0.5571 -0.0864
 6584TIP3   OH219757   0.771   5.665   4.022 -0.1435 -0.0334  0.3677
 6584TIP3    H119758   0.809   5.579   4.005 -1.4390 -0.1838 -2.3961
 6584TIP3    H219759   0.728   5.657   4.107  0.9169 -1.6552  0.7851
 6585TIP3   OH219760   5.849   3.519   3.816  0.0262  0.3165  0.1689
 6585TIP3    H119761   5.846   3.439   3.764 -1.1707  0.1292  0.4802
 6585TIP3    H219762   5.758   3.533   3.844  0.1128  2.0157 -0.2366
 6586TIP3   OH219763   3.879   5.437   5.038 -0.3401 -0.3194 -0.2513
 6586TIP3    H119764   3.836   5.499   4.979 -1.7183  0.6504  1.6624
 6586TIP3    H219765   3.939   5.491   5.089 -0.2549 -0.8688  0.2386
 6587TIP3   OH219766   0.525   0.229   1.521  0.0453  0.2185  0.2900
 6587TIP3    H119767   0.619   0.232   1.502 -0.0825  0.2469 -0.3711
 6587TIP3    H219768   0.513   0.147   1.568  0.4549  0.3803  0.6864
 6588TIP3   OH219769   3.217   0.989   2.771 -0.1712 -0.2039  0.6778
 6588TIP3    H119770   3.281   0.929   2.810  0.6633  0.4693  0.3686
 6588TIP3    H219771   3.132   0.949   2.791  0.2840 -0.5182  2.0918
 6589TIP3   OH219772   2.299   1.279   1.690 -0.3274 -0.4715 -0.0428
 6589TIP3    H119773   2.217   1.322   1.715 -0.6051  0.6271 -2.5714
 6589TIP3    H219774   2.346   1.344   1.639  0.8191 -2.0318 -1.0867
 6590TIP3   OH219775   4.918   5.971   3.310 -0.0253  0.1375  0.3891
 6590TIP3    H119776   4.861   6.037   3.270 -0.1254 -0.9447 -1.3720
 6590TIP3    H219777   4.871   5.943   3.388 -0.0364  2.0259  1.1075
 6591TIP3   OH219778   1.600   3.456   1.970  0.1512  0.0302 -0.0175
 6591TIP3    H119779   1.619   3.373   1.925 -0.2745  1.4245 -3.0241
 6591TIP3    H219780   1.505   3.460   1.974  0.1738  0.3209  0.2436
 6592TIP3   OH219781   3.972   2.285   2.204  0.0767 -0.5263  0.1328
 6592TIP3    H119782   3.949   2.320   2.291  0.0367  0.6792 -0.3434
 6592TIP3    H219783   3.891   2.244   2.173 -0.2478  0.0541  0.1893
 6593TIP3   OH219784   4.167   1.288   0.311 -0.4449 -0.0484 -0.3560
 6593TIP3    H119785   4.154   1.277   0.405  0.8396 -1.1205 -0.2749
 6593TIP3    H219786   4.226   1.363   0.305  0.9770 -1.1083 -0.1658
 6594TIP3   OH219787   0.557   1.630   2.369  0.1380 -0.3476  0.3300
 6594TIP3    H119788   0.532   1.541   2.395 -1.0631  0.1289  0.8541
 6594TIP3    H219789   0.551   1.629   2.273  1.3133 -1.1566  0.2384
 6595TIP3   OH219790   2.687   4.760   1.303  0.0314 -0.6355 -0.3303
 6595TIP3    H119791   2.700   4.795   1.214 -1.2007 -1.3375 -0.8109
 6595TIP3    H219792   2.595   4.735   1.305  0.4390 -2.1586  0.6103
 6596TIP3   OH219793   4.676   2.521   4.159 -0.0925 -0.0056 -0.2294
 6596TIP3    H119794   4.650   2.429   4.156  0.0028 -0.0172 -0.6973
 6596TIP3    H219795   4.667   2.552   4.069  0.9777  0.1367 -0.3014
 6597TIP3   OH219796   2.972   5.970   1.689 -0.1801  0.6323  0.1607
 6597TIP3    H119797   3.056   6.014   1.676  0.0152  0.4816  0.8684
 6597TIP3    H219798   2.976   5.893   1.632 -0.0190  0.8668 -0.1451
 6598TIP3   OH219799   4.791   4.553   4.636  0.3031 -0.0974  0.6062
 6598TIP3    H119800   4.773   4.482   4.574  2.2495 -0.4045  0.3388
 6598TIP3    H219801   4.718   4.614   4.624 -0.0177 -0.7575 -1.0955
 6599TIP3   OH219802   3.814   0.056   3.541  0.1832  0.1489  0.3205
 6599TIP3    H119803   3.838  -0.016   3.600  0.5255 -0.5626 -0.6608
 6599TIP3    H219804   3.895   0.105   3.529 -0.1301  0.9125  1.2620
 6600TIP3   OH219805   2.973   5.284   0.373 -0.1613  0.6612  0.1136
 6600TIP3    H119806   2.903   5.238   0.327  0.7889 -0.7828  0.0778
 6600TIP3    H219807   3.013   5.340   0.306 -1.1403  1.3697  0.0936
 6601TIP3   OH219808   1.793   0.237   2.437  0.0768 -0.0004  0.4313
 6601TIP3    H119809   1.773   0.174   2.506  1.4341  0.1338  0.9902
 6601TIP3    H219810   1.823   0.315   2.484  0.3291  0.3539 -0.2940
 6602TIP3   OH219811   2.905   4.251   1.190  0.0734  0.4387 -0.0186
 6602TIP3    H119812   2.838   4.253   1.259 -0.5987  0.5177 -0.6676
 6602TIP3    H219813   2.930   4.159   1.184  0.3702  0.4771  0.5505
 6603TIP3   OH219814   1.775   3.864   3.355  0.3346  0.3879 -0.1042
 6603TIP3    H119815   1.849   3.825   3.309  0.5695 -2.2868  2.2689
 6603TIP3    H219816   1.804   3.952   3.379  1.5537  0.4717 -1.7716
 6604TIP3   OH219817   2.614   4.756   0.721 -0.0247 -0.3037 -0.5243
 6604TIP3    H119818   2.636   4.708   0.642 -1.2223  0.2603 -1.2308
 6604TIP3    H219819   2.542   4.706   0.760  2.2325 -2.0590  1.6723
 6605TIP3   OH219820   5.508   4.106   4.429 -0.1494 -0.2099  0.0824
 6605TIP3    H119821   5.531   4.196   4.404 -4.6085  1.0240 -0.4663
 6605TIP3    H219822   5.526   4.054   4.351  2.0625  0.2307  0.2515
 6606TIP3   OH219823   3.793   2.578   3.678 -0.5940  0.1679  0.0128
 6606TIP3    H119824   3.775   2.559   3.770  0.7116  0.5697  0.3771
 6606TIP3    H219825   3.839   2.662   3.680 -1.0613  0.4615 -1.0661
 6607TIP3   OH219826   2.080   2.098   1.054  0.2642 -0.2874 -0.4192
 6607TIP3    H119827   2.144   2.050   1.002  0.5631 -0.3628  0.0095
 6607TIP3    H219828   2.079   2.186   1.016  3.5162  0.9618  1.8878
 6608TIP3   OH219829   1.592   2.309   4.108  0.7143 -0.2196  0.7045
 6608TIP3    H119830   1.675   2.296   4.155  0.6927  1.9680  1.4635
 6608TIP3    H219831   1.565   2.398   4.131 -0.6740 -0.0305 -1.3864
 6609TIP3   OH219832   0.638   2.406   3.781  0.8174 -0.1154  0.4866
 6609TIP3    H119833   0.686   2.378   3.859  0.3253 -0.7949  0.5458
 6609TIP3    H219834   0.593   2.328   3.750  0.2180  0.3774  0.0878
 6610TIP3   OH219835   4.007   1.137   1.530 -0.0054  0.2241  0.2748
 6610TIP3    H119836   4.073   1.080   1.568 -0.0242 -0.3581 -0.5306
 6610TIP3    H219837   4.048   1.173   1.452 -1.0004 -1.1205 -0.9486
 6611TIP3   OH219838   4.912   4.806   1.063  0.6257  0.1114  0.4736
 6611TIP3    H119839   4.899   4.723   1.110 -0.2642  0.3517  0.6713
 6611TIP3    H219840   4.859   4.797   0.984  1.8437 -0.1514 -0.3356
 6612TIP3   OH219841   2.688   0.679   2.553 -0.0563  0.7034 -0.6817
 6612TIP3    H119842   2.776   0.708   2.579  0.4985 -1.0656 -0.4600
 6612TIP3    H219843   2.632   0.754   2.572  1.0777  1.1465  1.1726
 6613TIP3   OH219844   3.624   0.957   1.006  0.0805  0.1333 -0.1656
 6613TIP3    H119845   3.634   0.926   1.096 -0.9655 -1.2242 -0.4811
 6613TIP3    H219846   3.660   0.886   0.952 -0.3681  0.4185 -0.8577
 6614TIP3   OH219847   0.907   0.163   3.167 -0.2693  0.4402  0.4606
 6614TIP3    H119848   0.811   0.154   3.166 -0.1491 -1.1310 -0.6393
 6614TIP3    H219849   0.930   0.162   3.260 -1.1215 -2.2076  0.7453
 6615TIP3   OH219850   6.023   0.085   0.724  0.7333  0.4671 -0.3336
 6615TIP3    H119851   5.974   0.005   0.706 -0.9519  2.0296 -3.8256
 6615TIP3    H219852   6.104   0.076   0.674  1.0268  0.5426  0.1207
 6616TIP3   OH219853   2.582   2.743   4.369 -0.4314  0.0531 -0.5891
 6616TIP3    H119854   2.641   2.668   4.380 -1.9265 -1.1135 -0.2529
 6616TIP3    H219855   2.630   2.817   4.405  0.0850 -1.2095  1.4487
 6617TIP3   OH219856   2.271   3.585   2.257  0.4481 -0.4499 -0.1789
 6617TIP3    H119857   2.303   3.495   2.253  0.1742 -0.6375  1.3254
 6617TIP3    H219858   2.347   3.639   2.235  1.1195 -0.9825  0.7940
 6618TIP3   OH219859   2.413   5.497   1.930  0.3991 -0.5003  0.4917
 6618TIP3    H119860   2.479   5.475   1.864  1.1842  1.3014  0.5943
 6618TIP3    H219861   2.463   5.535   2.002 -0.6910  0.3990  0.8083
 6619TIP3   OH219862   3.121   2.425   3.249  0.1293  0.5258  0.4531
 6619TIP3    H119863   3.174   2.459   3.320  0.7144 -0.2395  0.3999
 6619TIP3    H219864   3.165   2.343   3.223 -1.8144 -0.8722  1.3218
 6620TIP3   OH219865   0.019   4.087   2.138 -0.3649 -0.2775 -0.0433
 6620TIP3    H119866  -0.034   4.021   2.093  0.1168 -0.4889 -0.3063
 6620TIP3    H219867   0.032   4.156   2.073 -0.2270 -0.2788 -0.0180
 6621TIP3   OH219868   3.166   3.205   2.702 -0.0786  0.1646 -0.0425
 6621TIP3    H119869   3.107   3.176   2.772  0.6454  0.7637  0.8439
 6621TIP3    H219870   3.114   3.199   2.622 -1.2487  0.4166  0.6795
 6622TIP3   OH219871   0.734   1.106   2.781  0.1509 -0.4898 -0.1684
 6622TIP3    H119872   0.806   1.169   2.791  0.5924 -1.1009  0.6782
 6622TIP3    H219873   0.665   1.154   2.736  0.7561  0.3783 -0.1819
 6623TIP3   OH219874   0.867   5.565   1.924 -0.5991 -0.1974  0.4026
 6623TIP3    H119875   0.896   5.488   1.875  0.3220 -0.2325  0.9668
 6623TIP3    H219876   0.788   5.595   1.878  2.0454  1.8980 -3.3710
 6624TIP3   OH219877   3.598   3.356   4.401  0.7924  0.3152 -0.0471
 6624TIP3    H119878   3.687   3.339   4.432 -0.1193 -2.6477  1.2291
 6624TIP3    H219879   3.586   3.295   4.328  0.0490  1.2600 -0.7394
 6625TIP3   OH219880   0.918   3.301   2.249  0.0112  0.2431 -0.0720
 6625TIP3    H119881   0.865   3.265   2.320 -0.9618  0.8971 -0.4533
 6625TIP3    H219882   0.976   3.229   2.224 -0.1919 -0.2509  0.8387
 6626TIP3   OH219883   2.520   0.624   1.114  0.0331  0.2979  0.4844
 6626TIP3    H119884   2.590   0.564   1.089  0.1596  0.0674  1.3662
 6626TIP3    H219885   2.480   0.650   1.031 -0.7519 -1.8732  0.1117
 6627TIP3   OH219886   6.030   2.391   4.512 -0.4514  0.8001  0.6474
 6627TIP3    H119887   6.088   2.466   4.523  0.3214 -0.1383  4.1068
 6627TIP3    H219888   5.943   2.425   4.533 -0.5048  1.2272 -0.2164
 6628TIP3   OH219889   3.150   4.402   1.894 -0.2494 -0.0100 -0.4014
 6628TIP3    H119890   3.167   4.320   1.848  0.7715 -0.2046  0.2712
 6628TIP3    H219891   3.221   4.407   1.959 -0.0715  1.5882 -0.6801
 6629TIP3   OH219892   6.164   0.662   0.621 -0.3259 -0.1170 -0.3146
 6629TIP3    H119893   6.084   0.614   0.604 -0.2242  0.1683 -1.7934
 6629TIP3    H219894   6.234   0.597   0.613 -0.4366 -0.6018  2.0800
 6630TIP3   OH219895   5.800   0.653   3.865  0.2096  0.4043  0.0460
 6630TIP3    H119896   5.765   0.621   3.948  0.8907  0.0743  0.2162
 6630TIP3    H219897   5.725   0.655   3.806 -0.1646  0.0916  0.5069
 6631TIP3   OH219898   3.378   5.306   1.309  0.0321  0.4969 -0.0441
 6631TIP3    H119899   3.377   5.259   1.225 -1.4875 -1.3297  0.9216
 6631TIP3    H219900   3.314   5.376   1.299  1.9033  2.1551 -1.3036
 6632TIP3   OH219901   2.629   4.990   0.405 -0.1376  0.7860 -0.2423
 6632TIP3    H119902   2.625   5.079   0.370 -0.1466  0.5789 -0.7697
 6632TIP3    H219903   2.719   4.981   0.437 -0.2490  1.1172  0.1846
 6633TIP3   OH219904   2.782   2.106   1.609 -0.4191 -0.0180  0.1528
 6633TIP3    H119905   2.746   2.081   1.693  1.1805  1.2708  1.2898
 6633TIP3    H219906   2.869   2.066   1.607 -0.7639 -0.7814 -1.3039
 6634TIP3   OH219907   4.430   3.426   4.934 -0.5684  0.2134 -0.2803
 6634TIP3    H119908   4.452   3.422   5.027 -0.8309 -1.9221 -0.2710
 6634TIP3    H219909   4.450   3.339   4.900 -0.5280  0.9151 -2.2415
 6635TIP3   OH219910   3.720   3.646   0.225  0.0034 -0.1595 -0.0931
 6635TIP3    H119911   3.755   3.562   0.195 -0.8854 -0.5248 -0.1187
 6635TIP3    H219912   3.772   3.666   0.304  0.4715 -0.5411 -0.2980
 6636TIP3   OH219913   0.187   5.886   4.768  0.2309  0.3421 -0.1614
 6636TIP3    H119914   0.231   5.850   4.690  1.4949  0.1435  0.6192
 6636TIP3    H219915   0.094   5.871   4.751  0.4957  0.0672 -1.5219
 6637TIP3   OH219916   1.997   2.549   2.400  0.2247 -0.1508  0.2314
 6637TIP3    H119917   1.908   2.577   2.422 -0.0409  0.6539 -1.6298
 6637TIP3    H219918   2.010   2.469   2.450 -2.0520 -1.0185 -0.4215
 6638TIP3   OH219919   3.275   0.331   2.775  0.2744  0.3593  0.6633
 6638TIP3    H119920   3.182   0.309   2.770  0.4920 -0.6141  0.6710
 6638TIP3    H219921   3.321   0.251   2.750  1.1157  1.0018  0.0566
 6639TIP3   OH219922   6.000   3.692   3.626 -0.1023  0.2292  0.0679
 6639TIP3    H119923   5.932   3.697   3.558  1.2724 -0.9357 -1.4455
 6639TIP3    H219924   5.955   3.654   3.701 -1.7793  1.9645  0.0401
 6640TIP3   OH219925   2.487   1.097   1.064  0.0922 -0.1031 -0.1477
 6640TIP3    H119926   2.437   1.019   1.087 -1.3448  0.7171 -0.3647
 6640TIP3    H219927   2.421   1.166   1.055  1.4655  1.5700  1.7702
   6.35205   5.98877   5.18643   0.00000   0.00000  -2.11735   0.00000  -2.11735  -2.99438
