        90  EXT
         1         1  GLY       N               7.2010000000        2.9500000000       20.2260000000  PROA      1              97.2100000000
         2         1  GLY       CA              6.3620000000        1.8540000000       19.7690000000  PROA      1              97.6700000000
         3         1  GLY       C               6.6220000000        1.4650000000       18.3260000000  PROA      1              97.9800000000
         4         1  GLY       O               7.3430000000        2.1630000000       17.6100000000  PROA      1              97.4500000000
         5         2  PRO       N               6.0650000000        0.3190000000       17.7250000000  PROA      2              98.1100000000
         6         2  PRO       CA              6.2060000000       -0.0490000000       16.3140000000  PROA      2              98.2000000000
         7         2  PRO       C               5.5440000000        0.9550000000       15.3740000000  PROA      2              98.3400000000
         8         2  PRO       CB              5.5120000000       -1.4120000000       16.2340000000  PROA      2              97.9600000000
         9         2  PRO       O               4.6540000000        1.7020000000       15.7890000000  PROA      2              98.1800000000
        10         2  PRO       CG              5.4490000000       -1.8920000000       17.6480000000  PROA      2              96.5000000000
        11         2  PRO       CD              5.6650000000       -0.7190000000       18.5610000000  PROA      2              94.2200000000
        12         3  GLY       N               6.1300000000        1.0310000000       14.1780000000  PROA      3              97.9800000000
        13         3  GLY       CA              5.5670000000        1.8920000000       13.1490000000  PROA      3              97.9300000000
        14         3  GLY       C               4.1770000000        1.4700000000       12.7140000000  PROA      3              98.2300000000
        15         3  GLY       O               3.7310000000        0.3640000000       13.0250000000  PROA      3              98.0800000000
        16         4  ASN       N               3.5500000000        2.4050000000       12.1200000000  PROA      4              97.9100000000
        17         4  ASN       CA              2.2720000000        2.0440000000       11.5150000000  PROA      4              97.8000000000
        18         4  ASN       C               2.4440000000        0.9790000000       10.4350000000  PROA      4              98.0100000000
        19         4  ASN       CB              1.5840000000        3.2820000000       10.9350000000  PROA      4              97.3200000000
        20         4  ASN       O               3.4710000000        0.9380000000        9.7560000000  PROA      4              97.7200000000
        21         4  ASN       CG              1.0790000000        4.2260000000       12.0090000000  PROA      4              91.7600000000
        22         4  ASN       ND2             0.8290000000        5.4730000000       11.6310000000  PROA      4              89.8600000000
        23         4  ASN       OD1             0.9170000000        3.8370000000       13.1680000000  PROA      4              87.5400000000
        24         5  PRO       N               1.5400000000        0.1290000000       10.2950000000  PROA      5              97.8500000000
        25         5  PRO       CA              1.6000000000       -0.7860000000        9.1520000000  PROA      5              97.8600000000
        26         5  PRO       C               1.7310000000       -0.0550000000        7.8180000000  PROA      5              98.1900000000
        27         5  PRO       CB              0.2710000000       -1.5400000000        9.2340000000  PROA      5              97.6600000000
        28         5  PRO       O               1.2980000000        1.0940000000        7.6940000000  PROA      5              98.1100000000
        29         5  PRO       CG             -0.1800000000       -1.3670000000       10.6480000000  PROA      5              96.4000000000
        30         5  PRO       CD              0.4550000000       -0.1250000000       11.2030000000  PROA      5              95.9300000000
        31         6  GLY       N               2.5140000000       -0.7860000000        6.9570000000  PROA      6              98.0500000000
        32         6  GLY       CA              2.6330000000       -0.2260000000        5.6200000000  PROA      6              97.9700000000
        33         6  GLY       C               1.3050000000       -0.1330000000        4.8920000000  PROA      6              98.2500000000
        34         6  GLY       O               0.2940000000       -0.6570000000        5.3650000000  PROA      6              98.0900000000
        35         7  PRO       N               1.3370000000        0.4550000000        3.8720000000  PROA      7              98.2400000000
        36         7  PRO       CA              0.1480000000        0.4650000000        3.0170000000  PROA      7              98.2100000000
        37         7  PRO       C              -0.1670000000       -0.9080000000        2.4280000000  PROA      7              98.4500000000
        38         7  PRO       CB              0.5150000000        1.4620000000        1.9140000000  PROA      7              98.0900000000
        39         7  PRO       O               0.6980000000       -1.7870000000        2.4050000000  PROA      7              98.4000000000
        40         7  PRO       CG              2.0080000000        1.4370000000        1.8580000000  PROA      7              97.4100000000
        41         7  PRO       CD              2.5310000000        1.1010000000        3.2250000000  PROA      7              97.3300000000
        42         8  GLY       N              -1.4330000000       -0.9980000000        2.0240000000  PROA      8              97.9700000000
        43         8  GLY       CA             -1.8160000000       -2.2440000000        1.3780000000  PROA      8              97.9000000000
        44         8  GLY       C              -1.2150000000       -2.4080000000       -0.0050000000  PROA      8              98.3000000000
        45         8  GLY       O              -0.6590000000       -1.4600000000       -0.5630000000  PROA      8              98.2100000000
        46         9  ASN       N              -1.3310000000       -3.5860000000       -0.5130000000  PROA      9              98.1100000000
        47         9  ASN       CA             -0.9090000000       -3.8840000000       -1.8770000000  PROA      9              98.0600000000
        48         9  ASN       C              -1.7860000000       -3.1730000000       -2.9030000000  PROA      9              98.3600000000
        49         9  ASN       CB             -0.9190000000       -5.3940000000       -2.1250000000  PROA      9              97.6800000000
        50         9  ASN       O              -2.9490000000       -2.8700000000       -2.6290000000  PROA      9              98.2500000000
        51         9  ASN       CG              0.1520000000       -6.1220000000       -1.3360000000  PROA      9              93.4800000000
        52         9  ASN       ND2            -0.0080000000       -7.4320000000       -1.1900000000  PROA      9              92.0500000000
        53         9  ASN       OD1             1.1140000000       -5.5120000000       -0.8630000000  PROA      9              91.0700000000
        54        10  PRO       N              -1.1400000000       -2.9480000000       -4.0040000000  PROA      10             98.3200000000
        55        10  PRO       CA             -1.9920000000       -2.3920000000       -5.0580000000  PROA      10             98.3000000000
        56        10  PRO       C              -3.1310000000       -3.3310000000       -5.4520000000  PROA      10             98.5100000000
        57        10  PRO       CB             -1.0230000000       -2.1890000000       -6.2250000000  PROA      10             98.1900000000
        58        10  PRO       O              -3.0500000000       -4.5390000000       -5.2150000000  PROA      10             98.4700000000
        59        10  PRO       CG              0.3080000000       -2.6150000000       -5.6950000000  PROA      10             97.2000000000
        60        10  PRO       CD              0.1150000000       -3.1730000000       -4.3140000000  PROA      10             96.5900000000
        61        11  GLY       N              -4.2990000000       -2.7460000000       -5.9100000000  PROA      11             98.0600000000
        62        11  GLY       CA             -5.4200000000       -3.5500000000       -6.3730000000  PROA      11             98.0100000000
        63        11  GLY       C              -5.0860000000       -4.3970000000       -7.5860000000  PROA      11             98.3000000000
        64        11  GLY       O              -3.9870000000       -4.2960000000       -8.1370000000  PROA      11             98.2100000000
        65        12  PRO       N              -5.8840000000       -5.2250000000       -8.0190000000  PROA      12             98.2200000000
        66        12  PRO       CA             -5.7070000000       -6.0330000000       -9.2270000000  PROA      12             98.2400000000
        67        12  PRO       C              -5.8020000000       -5.2080000000      -10.5080000000  PROA      12             98.4900000000
        68        12  PRO       CB             -6.8510000000       -7.0470000000       -9.1440000000  PROA      12             98.0900000000
        69        12  PRO       O              -6.3760000000       -4.1160000000      -10.5020000000  PROA      12             98.4600000000
        70        12  PRO       CG             -7.8830000000       -6.3880000000       -8.2870000000  PROA      12             96.8500000000
        71        12  PRO       CD             -7.1960000000       -5.4040000000       -7.3850000000  PROA      12             96.2100000000
        72        13  GLY       N              -5.1300000000       -5.6340000000      -11.5460000000  PROA      13             98.0600000000
        73        13  GLY       CA             -5.2430000000       -5.0020000000      -12.8510000000  PROA      13             98.0500000000
        74        13  GLY       C              -6.6490000000       -5.0480000000      -13.4170000000  PROA      13             98.3600000000
        75        13  GLY       O              -7.4780000000       -5.8440000000      -12.9700000000  PROA      13             98.3200000000
        76        14  ASN       N              -7.0130000000       -4.3330000000      -14.2010000000  PROA      14             98.0100000000
        77        14  ASN       CA             -8.2760000000       -4.3170000000      -14.9300000000  PROA      14             97.9000000000
        78        14  ASN       C              -8.3940000000       -5.5090000000      -15.8740000000  PROA      14             98.1800000000
        79        14  ASN       CB             -8.4310000000       -3.0070000000      -15.7070000000  PROA      14             97.3500000000
        80        14  ASN       O              -7.3900000000       -5.9930000000      -16.4000000000  PROA      14             98.0000000000
        81        14  ASN       CG             -9.8590000000       -2.7560000000      -16.1490000000  PROA      14             91.3300000000
        82        14  ASN       ND2           -10.0340000000       -1.8360000000      -17.0910000000  PROA      14             89.4800000000
        83        14  ASN       OD1           -10.7960000000       -3.3810000000      -15.6480000000  PROA      14             87.2800000000
        84        15  PRO       N              -9.5960000000       -6.3740000000      -15.6380000000  PROA      15             97.7700000000
        85        15  PRO       CA             -9.8130000000       -7.5160000000      -16.5290000000  PROA      15             97.4700000000
        86        15  PRO       C              -9.7440000000       -7.1340000000      -18.0060000000  PROA      15             97.5600000000
        87        15  PRO       CB            -11.2190000000       -7.9930000000      -16.1540000000  PROA      15             97.1300000000
        88        15  PRO       O              -9.9260000000       -5.9650000000      -18.3540000000  PROA      15             96.9400000000
        89        15  PRO       CG            -11.6140000000       -7.1400000000      -14.9920000000  PROA      15             95.4200000000
        90        15  PRO       CD            -10.6210000000       -6.0210000000      -14.8620000000  PROA      15             95.1900000000
