PSF EXT CMAP XPLOR

         3 !NTITLE
* GENERATED BY CHARMM-GUI (HTTP://WWW.CHARMM-GUI.ORG) V3.7 ON JUN, 18. 2026. JOB
* READ PDB, MANIPULATE STRUCTURE IF NEEDED, AND GENERATE TOPOLOGY FILE          
*  DATE:     6/18/26      0:35: 8      CREATED BY USER: charmm-gui              

       171 !NATOM
         1 PROA     1        GLY      N        NH3     -0.300000       14.0070           0
         2 PROA     1        GLY      HT1      HC       0.330000       1.00800           0
         3 PROA     1        GLY      HT2      HC       0.330000       1.00800           0
         4 PROA     1        GLY      HT3      HC       0.330000       1.00800           0
         5 PROA     1        GLY      CA       CT2      0.130000       12.0110           0
         6 PROA     1        GLY      HA1      HB2      0.900000E-01   1.00800           0
         7 PROA     1        GLY      HA2      HB2      0.900000E-01   1.00800           0
         8 PROA     1        GLY      C        C        0.510000       12.0110           0
         9 PROA     1        GLY      O        O       -0.510000       15.9994           0
        10 PROA     2        PRO      N        N       -0.290000       14.0070           0
        11 PROA     2        PRO      CD       CP3       0.00000       12.0110           0
        12 PROA     2        PRO      HD1      HA2      0.900000E-01   1.00800           0
        13 PROA     2        PRO      HD2      HA2      0.900000E-01   1.00800           0
        14 PROA     2        PRO      CA       CP1      0.200000E-01   12.0110           0
        15 PROA     2        PRO      HA       HB1      0.900000E-01   1.00800           0
        16 PROA     2        PRO      CB       CP2     -0.180000       12.0110           0
        17 PROA     2        PRO      HB1      HA2      0.900000E-01   1.00800           0
        18 PROA     2        PRO      HB2      HA2      0.900000E-01   1.00800           0
        19 PROA     2        PRO      CG       CP2     -0.180000       12.0110           0
        20 PROA     2        PRO      HG1      HA2      0.900000E-01   1.00800           0
        21 PROA     2        PRO      HG2      HA2      0.900000E-01   1.00800           0
        22 PROA     2        PRO      C        C        0.510000       12.0110           0
        23 PROA     2        PRO      O        O       -0.510000       15.9994           0
        24 PROA     3        GLY      N        NH1     -0.470000       14.0070           0
        25 PROA     3        GLY      HN       H        0.310000       1.00800           0
        26 PROA     3        GLY      CA       CT2     -0.200000E-01   12.0110           0
        27 PROA     3        GLY      HA1      HB2      0.900000E-01   1.00800           0
        28 PROA     3        GLY      HA2      HB2      0.900000E-01   1.00800           0
        29 PROA     3        GLY      C        C        0.510000       12.0110           0
        30 PROA     3        GLY      O        O       -0.510000       15.9994           0
        31 PROA     4        ASN      N        NH1     -0.470000       14.0070           0
        32 PROA     4        ASN      HN       H        0.310000       1.00800           0
        33 PROA     4        ASN      CA       CT1      0.700000E-01   12.0110           0
        34 PROA     4        ASN      HA       HB1      0.900000E-01   1.00800           0
        35 PROA     4        ASN      CB       CT2     -0.180000       12.0110           0
        36 PROA     4        ASN      HB1      HA2      0.900000E-01   1.00800           0
        37 PROA     4        ASN      HB2      HA2      0.900000E-01   1.00800           0
        38 PROA     4        ASN      CG       CC       0.550000       12.0110           0
        39 PROA     4        ASN      OD1      O       -0.550000       15.9994           0
        40 PROA     4        ASN      ND2      NH2     -0.620000       14.0070           0
        41 PROA     4        ASN      HD21     H        0.320000       1.00800           0
        42 PROA     4        ASN      HD22     H        0.300000       1.00800           0
        43 PROA     4        ASN      C        C        0.510000       12.0110           0
        44 PROA     4        ASN      O        O       -0.510000       15.9994           0
        45 PROA     5        PRO      N        N       -0.290000       14.0070           0
        46 PROA     5        PRO      CD       CP3       0.00000       12.0110           0
        47 PROA     5        PRO      HD1      HA2      0.900000E-01   1.00800           0
        48 PROA     5        PRO      HD2      HA2      0.900000E-01   1.00800           0
        49 PROA     5        PRO      CA       CP1      0.200000E-01   12.0110           0
        50 PROA     5        PRO      HA       HB1      0.900000E-01   1.00800           0
        51 PROA     5        PRO      CB       CP2     -0.180000       12.0110           0
        52 PROA     5        PRO      HB1      HA2      0.900000E-01   1.00800           0
        53 PROA     5        PRO      HB2      HA2      0.900000E-01   1.00800           0
        54 PROA     5        PRO      CG       CP2     -0.180000       12.0110           0
        55 PROA     5        PRO      HG1      HA2      0.900000E-01   1.00800           0
        56 PROA     5        PRO      HG2      HA2      0.900000E-01   1.00800           0
        57 PROA     5        PRO      C        C        0.510000       12.0110           0
        58 PROA     5        PRO      O        O       -0.510000       15.9994           0
        59 PROA     6        GLY      N        NH1     -0.470000       14.0070           0
        60 PROA     6        GLY      HN       H        0.310000       1.00800           0
        61 PROA     6        GLY      CA       CT2     -0.200000E-01   12.0110           0
        62 PROA     6        GLY      HA1      HB2      0.900000E-01   1.00800           0
        63 PROA     6        GLY      HA2      HB2      0.900000E-01   1.00800           0
        64 PROA     6        GLY      C        C        0.510000       12.0110           0
        65 PROA     6        GLY      O        O       -0.510000       15.9994           0
        66 PROA     7        PRO      N        N       -0.290000       14.0070           0
        67 PROA     7        PRO      CD       CP3       0.00000       12.0110           0
        68 PROA     7        PRO      HD1      HA2      0.900000E-01   1.00800           0
        69 PROA     7        PRO      HD2      HA2      0.900000E-01   1.00800           0
        70 PROA     7        PRO      CA       CP1      0.200000E-01   12.0110           0
        71 PROA     7        PRO      HA       HB1      0.900000E-01   1.00800           0
        72 PROA     7        PRO      CB       CP2     -0.180000       12.0110           0
        73 PROA     7        PRO      HB1      HA2      0.900000E-01   1.00800           0
        74 PROA     7        PRO      HB2      HA2      0.900000E-01   1.00800           0
        75 PROA     7        PRO      CG       CP2     -0.180000       12.0110           0
        76 PROA     7        PRO      HG1      HA2      0.900000E-01   1.00800           0
        77 PROA     7        PRO      HG2      HA2      0.900000E-01   1.00800           0
        78 PROA     7        PRO      C        C        0.510000       12.0110           0
        79 PROA     7        PRO      O        O       -0.510000       15.9994           0
        80 PROA     8        GLY      N        NH1     -0.470000       14.0070           0
        81 PROA     8        GLY      HN       H        0.310000       1.00800           0
        82 PROA     8        GLY      CA       CT2     -0.200000E-01   12.0110           0
        83 PROA     8        GLY      HA1      HB2      0.900000E-01   1.00800           0
        84 PROA     8        GLY      HA2      HB2      0.900000E-01   1.00800           0
        85 PROA     8        GLY      C        C        0.510000       12.0110           0
        86 PROA     8        GLY      O        O       -0.510000       15.9994           0
        87 PROA     9        ASN      N        NH1     -0.470000       14.0070           0
        88 PROA     9        ASN      HN       H        0.310000       1.00800           0
        89 PROA     9        ASN      CA       CT1      0.700000E-01   12.0110           0
        90 PROA     9        ASN      HA       HB1      0.900000E-01   1.00800           0
        91 PROA     9        ASN      CB       CT2     -0.180000       12.0110           0
        92 PROA     9        ASN      HB1      HA2      0.900000E-01   1.00800           0
        93 PROA     9        ASN      HB2      HA2      0.900000E-01   1.00800           0
        94 PROA     9        ASN      CG       CC       0.550000       12.0110           0
        95 PROA     9        ASN      OD1      O       -0.550000       15.9994           0
        96 PROA     9        ASN      ND2      NH2     -0.620000       14.0070           0
        97 PROA     9        ASN      HD21     H        0.320000       1.00800           0
        98 PROA     9        ASN      HD22     H        0.300000       1.00800           0
        99 PROA     9        ASN      C        C        0.510000       12.0110           0
       100 PROA     9        ASN      O        O       -0.510000       15.9994           0
       101 PROA     10       PRO      N        N       -0.290000       14.0070           0
       102 PROA     10       PRO      CD       CP3       0.00000       12.0110           0
       103 PROA     10       PRO      HD1      HA2      0.900000E-01   1.00800           0
       104 PROA     10       PRO      HD2      HA2      0.900000E-01   1.00800           0
       105 PROA     10       PRO      CA       CP1      0.200000E-01   12.0110           0
       106 PROA     10       PRO      HA       HB1      0.900000E-01   1.00800           0
       107 PROA     10       PRO      CB       CP2     -0.180000       12.0110           0
       108 PROA     10       PRO      HB1      HA2      0.900000E-01   1.00800           0
       109 PROA     10       PRO      HB2      HA2      0.900000E-01   1.00800           0
       110 PROA     10       PRO      CG       CP2     -0.180000       12.0110           0
       111 PROA     10       PRO      HG1      HA2      0.900000E-01   1.00800           0
       112 PROA     10       PRO      HG2      HA2      0.900000E-01   1.00800           0
       113 PROA     10       PRO      C        C        0.510000       12.0110           0
       114 PROA     10       PRO      O        O       -0.510000       15.9994           0
       115 PROA     11       GLY      N        NH1     -0.470000       14.0070           0
       116 PROA     11       GLY      HN       H        0.310000       1.00800           0
       117 PROA     11       GLY      CA       CT2     -0.200000E-01   12.0110           0
       118 PROA     11       GLY      HA1      HB2      0.900000E-01   1.00800           0
       119 PROA     11       GLY      HA2      HB2      0.900000E-01   1.00800           0
       120 PROA     11       GLY      C        C        0.510000       12.0110           0
       121 PROA     11       GLY      O        O       -0.510000       15.9994           0
       122 PROA     12       PRO      N        N       -0.290000       14.0070           0
       123 PROA     12       PRO      CD       CP3       0.00000       12.0110           0
       124 PROA     12       PRO      HD1      HA2      0.900000E-01   1.00800           0
       125 PROA     12       PRO      HD2      HA2      0.900000E-01   1.00800           0
       126 PROA     12       PRO      CA       CP1      0.200000E-01   12.0110           0
       127 PROA     12       PRO      HA       HB1      0.900000E-01   1.00800           0
       128 PROA     12       PRO      CB       CP2     -0.180000       12.0110           0
       129 PROA     12       PRO      HB1      HA2      0.900000E-01   1.00800           0
       130 PROA     12       PRO      HB2      HA2      0.900000E-01   1.00800           0
       131 PROA     12       PRO      CG       CP2     -0.180000       12.0110           0
       132 PROA     12       PRO      HG1      HA2      0.900000E-01   1.00800           0
       133 PROA     12       PRO      HG2      HA2      0.900000E-01   1.00800           0
       134 PROA     12       PRO      C        C        0.510000       12.0110           0
       135 PROA     12       PRO      O        O       -0.510000       15.9994           0
       136 PROA     13       GLY      N        NH1     -0.470000       14.0070           0
       137 PROA     13       GLY      HN       H        0.310000       1.00800           0
       138 PROA     13       GLY      CA       CT2     -0.200000E-01   12.0110           0
       139 PROA     13       GLY      HA1      HB2      0.900000E-01   1.00800           0
       140 PROA     13       GLY      HA2      HB2      0.900000E-01   1.00800           0
       141 PROA     13       GLY      C        C        0.510000       12.0110           0
       142 PROA     13       GLY      O        O       -0.510000       15.9994           0
       143 PROA     14       ASN      N        NH1     -0.470000       14.0070           0
       144 PROA     14       ASN      HN       H        0.310000       1.00800           0
       145 PROA     14       ASN      CA       CT1      0.700000E-01   12.0110           0
       146 PROA     14       ASN      HA       HB1      0.900000E-01   1.00800           0
       147 PROA     14       ASN      CB       CT2     -0.180000       12.0110           0
       148 PROA     14       ASN      HB1      HA2      0.900000E-01   1.00800           0
       149 PROA     14       ASN      HB2      HA2      0.900000E-01   1.00800           0
       150 PROA     14       ASN      CG       CC       0.550000       12.0110           0
       151 PROA     14       ASN      OD1      O       -0.550000       15.9994           0
       152 PROA     14       ASN      ND2      NH2     -0.620000       14.0070           0
       153 PROA     14       ASN      HD21     H        0.320000       1.00800           0
       154 PROA     14       ASN      HD22     H        0.300000       1.00800           0
       155 PROA     14       ASN      C        C        0.510000       12.0110           0
       156 PROA     14       ASN      O        O       -0.510000       15.9994           0
       157 PROA     15       PRO      N        N       -0.290000       14.0070           0
       158 PROA     15       PRO      CD       CP3       0.00000       12.0110           0
       159 PROA     15       PRO      HD1      HA2      0.900000E-01   1.00800           0
       160 PROA     15       PRO      HD2      HA2      0.900000E-01   1.00800           0
       161 PROA     15       PRO      CA       CP1      0.200000E-01   12.0110           0
       162 PROA     15       PRO      HA       HB1      0.900000E-01   1.00800           0
       163 PROA     15       PRO      CB       CP2     -0.180000       12.0110           0
       164 PROA     15       PRO      HB1      HA2      0.900000E-01   1.00800           0
       165 PROA     15       PRO      HB2      HA2      0.900000E-01   1.00800           0
       166 PROA     15       PRO      CG       CP2     -0.180000       12.0110           0
       167 PROA     15       PRO      HG1      HA2      0.900000E-01   1.00800           0
       168 PROA     15       PRO      HG2      HA2      0.900000E-01   1.00800           0
       169 PROA     15       PRO      C        CC       0.340000       12.0110           0
       170 PROA     15       PRO      OT1      OC      -0.670000       15.9994           0
       171 PROA     15       PRO      OT2      OC      -0.670000       15.9994           0

       176 !NBOND: bonds
         2         1         3         1         4         1         1         5
         8         5         8        10         5         6         5         7
         9         8        22        14        22        24        10        14
        14        16        16        19        19        11        10        11
        15        14        20        19        21        19        12        11
        13        11        17        16        18        16        23        22
        24        25        24        26        29        26        29        31
        26        27        26        28        30        29        35        33
        38        35        40        38        31        32        31        33
        43        33        43        45        33        34        35        36
        35        37        40        41        40        42        43        44
        38        39        57        49        57        59        45        49
        49        51        51        54        54        46        45        46
        50        49        55        54        56        54        47        46
        48        46        52        51        53        51        58        57
        59        60        59        61        64        61        64        66
        61        62        61        63        65        64        78        70
        78        80        66        70        70        72        72        75
        75        67        66        67        71        70        76        75
        77        75        68        67        69        67        73        72
        74        72        79        78        80        81        80        82
        85        82        85        87        82        83        82        84
        86        85        91        89        94        91        96        94
        87        88        87        89        99        89        99       101
        89        90        91        92        91        93        96        97
        96        98        99       100        94        95       113       105
       113       115       101       105       105       107       107       110
       110       102       101       102       106       105       111       110
       112       110       103       102       104       102       108       107
       109       107       114       113       115       116       115       117
       120       117       120       122       117       118       117       119
       121       120       134       126       134       136       122       126
       126       128       128       131       131       123       122       123
       127       126       132       131       133       131       124       123
       125       123       129       128       130       128       135       134
       136       137       136       138       141       138       141       143
       138       139       138       140       142       141       147       145
       150       147       152       150       143       144       143       145
       155       145       155       157       145       146       147       148
       147       149       152       153       152       154       155       156
       150       151       169       161       157       161       161       163
       163       166       166       158       157       158       162       161
       167       166       168       166       159       158       160       158
       164       163       165       163       169       171       169       170

       327 !NTHETA: angles
         2         1         3         2         1         4         2         1         5
         3         1         4         3         1         5         4         1         5
         1         5         6         1         5         7         1         5         8
         6         5         7         6         5         8         7         5         8
         5         8         9         5         8        10         9         8        10
         8        10        11         8        10        14        11        10        14
        10        11        12        10        11        13        10        11        19
        12        11        13        12        11        19        13        11        19
        10        14        15        10        14        16        10        14        22
        15        14        16        15        14        22        16        14        22
        14        16        17        14        16        18        14        16        19
        17        16        18        17        16        19        18        16        19
        11        19        16        11        19        20        11        19        21
        16        19        20        16        19        21        20        19        21
        14        22        23        14        22        24        23        22        24
        22        24        25        22        24        26        25        24        26
        24        26        27        24        26        28        24        26        29
        27        26        28        27        26        29        28        26        29
        26        29        30        26        29        31        30        29        31
        29        31        32        29        31        33        32        31        33
        31        33        34        31        33        35        31        33        43
        34        33        35        34        33        43        35        33        43
        33        35        36        33        35        37        33        35        38
        36        35        37        36        35        38        37        35        38
        35        38        39        35        38        40        39        38        40
        38        40        41        38        40        42        41        40        42
        33        43        44        33        43        45        44        43        45
        43        45        46        43        45        49        46        45        49
        45        46        47        45        46        48        45        46        54
        47        46        48        47        46        54        48        46        54
        45        49        50        45        49        51        45        49        57
        50        49        51        50        49        57        51        49        57
        49        51        52        49        51        53        49        51        54
        52        51        53        52        51        54        53        51        54
        46        54        51        46        54        55        46        54        56
        51        54        55        51        54        56        55        54        56
        49        57        58        49        57        59        58        57        59
        57        59        60        57        59        61        60        59        61
        59        61        62        59        61        63        59        61        64
        62        61        63        62        61        64        63        61        64
        61        64        65        61        64        66        65        64        66
        64        66        67        64        66        70        67        66        70
        66        67        68        66        67        69        66        67        75
        68        67        69        68        67        75        69        67        75
        66        70        71        66        70        72        66        70        78
        71        70        72        71        70        78        72        70        78
        70        72        73        70        72        74        70        72        75
        73        72        74        73        72        75        74        72        75
        67        75        72        67        75        76        67        75        77
        72        75        76        72        75        77        76        75        77
        70        78        79        70        78        80        79        78        80
        78        80        81        78        80        82        81        80        82
        80        82        83        80        82        84        80        82        85
        83        82        84        83        82        85        84        82        85
        82        85        86        82        85        87        86        85        87
        85        87        88        85        87        89        88        87        89
        87        89        90        87        89        91        87        89        99
        90        89        91        90        89        99        91        89        99
        89        91        92        89        91        93        89        91        94
        92        91        93        92        91        94        93        91        94
        91        94        95        91        94        96        95        94        96
        94        96        97        94        96        98        97        96        98
        89        99       100        89        99       101       100        99       101
        99       101       102        99       101       105       102       101       105
       101       102       103       101       102       104       101       102       110
       103       102       104       103       102       110       104       102       110
       101       105       106       101       105       107       101       105       113
       106       105       107       106       105       113       107       105       113
       105       107       108       105       107       109       105       107       110
       108       107       109       108       107       110       109       107       110
       102       110       107       102       110       111       102       110       112
       107       110       111       107       110       112       111       110       112
       105       113       114       105       113       115       114       113       115
       113       115       116       113       115       117       116       115       117
       115       117       118       115       117       119       115       117       120
       118       117       119       118       117       120       119       117       120
       117       120       121       117       120       122       121       120       122
       120       122       123       120       122       126       123       122       126
       122       123       124       122       123       125       122       123       131
       124       123       125       124       123       131       125       123       131
       122       126       127       122       126       128       122       126       134
       127       126       128       127       126       134       128       126       134
       126       128       129       126       128       130       126       128       131
       129       128       130       129       128       131       130       128       131
       123       131       128       123       131       132       123       131       133
       128       131       132       128       131       133       132       131       133
       126       134       135       126       134       136       135       134       136
       134       136       137       134       136       138       137       136       138
       136       138       139       136       138       140       136       138       141
       139       138       140       139       138       141       140       138       141
       138       141       142       138       141       143       142       141       143
       141       143       144       141       143       145       144       143       145
       143       145       146       143       145       147       143       145       155
       146       145       147       146       145       155       147       145       155
       145       147       148       145       147       149       145       147       150
       148       147       149       148       147       150       149       147       150
       147       150       151       147       150       152       151       150       152
       150       152       153       150       152       154       153       152       154
       145       155       156       145       155       157       156       155       157
       155       157       158       155       157       161       158       157       161
       157       158       159       157       158       160       157       158       166
       159       158       160       159       158       166       160       158       166
       157       161       162       157       161       163       157       161       169
       162       161       163       162       161       169       163       161       169
       161       163       164       161       163       165       161       163       166
       164       163       165       164       163       166       165       163       166
       158       166       163       158       166       167       158       166       168
       163       166       167       163       166       168       167       166       168
       161       169       170       161       169       171       170       169       171

       494 !NPHI: dihedrals
         1         5         8         9         1         5         8        10
         2         1         5         6         2         1         5         7
         2         1         5         8         3         1         5         6
         3         1         5         7         3         1         5         8
         4         1         5         6         4         1         5         7
         4         1         5         8         5         8        10        11
         5         8        10        14         6         5         8         9
         6         5         8        10         7         5         8         9
         7         5         8        10         8        10        11        12
         8        10        11        13         8        10        11        19
         8        10        14        15         8        10        14        16
         8        10        14        22         9         8        10        11
         9         8        10        14        10        11        19        16
        10        11        19        20        10        11        19        21
        10        14        16        17        10        14        16        18
        10        14        16        19        10        14        22        23
        10        14        22        24        11        10        14        15
        11        10        14        16        11        10        14        22
        11        19        16        14        11        19        16        17
        11        19        16        18        12        11        10        14
        12        11        19        16        12        11        19        20
        12        11        19        21        13        11        10        14
        13        11        19        16        13        11        19        20
        13        11        19        21        14        10        11        19
        14        16        19        20        14        16        19        21
        14        22        24        25        14        22        24        26
        15        14        16        17        15        14        16        18
        15        14        16        19        15        14        22        23
        15        14        22        24        16        14        22        23
        16        14        22        24        17        16        14        22
        17        16        19        20        17        16        19        21
        18        16        14        22        18        16        19        20
        18        16        19        21        19        16        14        22
        22        24        26        27        22        24        26        28
        22        24        26        29        23        22        24        25
        23        22        24        26        24        26        29        30
        24        26        29        31        25        24        26        27
        25        24        26        28        25        24        26        29
        26        29        31        32        26        29        31        33
        27        26        29        30        27        26        29        31
        28        26        29        30        28        26        29        31
        29        31        33        34        29        31        33        35
        29        31        33        43        30        29        31        32
        30        29        31        33        31        33        35        36
        31        33        35        37        31        33        35        38
        31        33        43        44        31        33        43        45
        32        31        33        34        32        31        33        35
        32        31        33        43        33        35        38        39
        33        35        38        40        33        43        45        46
        33        43        45        49        34        33        35        36
        34        33        35        37        34        33        35        38
        34        33        43        44        34        33        43        45
        35        33        43        44        35        33        43        45
        35        38        40        41        35        38        40        42
        36        35        33        43        36        35        38        39
        36        35        38        40        37        35        33        43
        37        35        38        39        37        35        38        40
        38        35        33        43        39        38        40        41
        39        38        40        42        43        45        46        47
        43        45        46        48        43        45        46        54
        43        45        49        50        43        45        49        51
        43        45        49        57        44        43        45        46
        44        43        45        49        45        46        54        51
        45        46        54        55        45        46        54        56
        45        49        51        52        45        49        51        53
        45        49        51        54        45        49        57        58
        45        49        57        59        46        45        49        50
        46        45        49        51        46        45        49        57
        46        54        51        49        46        54        51        52
        46        54        51        53        47        46        45        49
        47        46        54        51        47        46        54        55
        47        46        54        56        48        46        45        49
        48        46        54        51        48        46        54        55
        48        46        54        56        49        45        46        54
        49        51        54        55        49        51        54        56
        49        57        59        60        49        57        59        61
        50        49        51        52        50        49        51        53
        50        49        51        54        50        49        57        58
        50        49        57        59        51        49        57        58
        51        49        57        59        52        51        49        57
        52        51        54        55        52        51        54        56
        53        51        49        57        53        51        54        55
        53        51        54        56        54        51        49        57
        57        59        61        62        57        59        61        63
        57        59        61        64        58        57        59        60
        58        57        59        61        59        61        64        65
        59        61        64        66        60        59        61        62
        60        59        61        63        60        59        61        64
        61        64        66        67        61        64        66        70
        62        61        64        65        62        61        64        66
        63        61        64        65        63        61        64        66
        64        66        67        68        64        66        67        69
        64        66        67        75        64        66        70        71
        64        66        70        72        64        66        70        78
        65        64        66        67        65        64        66        70
        66        67        75        72        66        67        75        76
        66        67        75        77        66        70        72        73
        66        70        72        74        66        70        72        75
        66        70        78        79        66        70        78        80
        67        66        70        71        67        66        70        72
        67        66        70        78        67        75        72        70
        67        75        72        73        67        75        72        74
        68        67        66        70        68        67        75        72
        68        67        75        76        68        67        75        77
        69        67        66        70        69        67        75        72
        69        67        75        76        69        67        75        77
        70        66        67        75        70        72        75        76
        70        72        75        77        70        78        80        81
        70        78        80        82        71        70        72        73
        71        70        72        74        71        70        72        75
        71        70        78        79        71        70        78        80
        72        70        78        79        72        70        78        80
        73        72        70        78        73        72        75        76
        73        72        75        77        74        72        70        78
        74        72        75        76        74        72        75        77
        75        72        70        78        78        80        82        83
        78        80        82        84        78        80        82        85
        79        78        80        81        79        78        80        82
        80        82        85        86        80        82        85        87
        81        80        82        83        81        80        82        84
        81        80        82        85        82        85        87        88
        82        85        87        89        83        82        85        86
        83        82        85        87        84        82        85        86
        84        82        85        87        85        87        89        90
        85        87        89        91        85        87        89        99
        86        85        87        88        86        85        87        89
        87        89        91        92        87        89        91        93
        87        89        91        94        87        89        99       100
        87        89        99       101        88        87        89        90
        88        87        89        91        88        87        89        99
        89        91        94        95        89        91        94        96
        89        99       101       102        89        99       101       105
        90        89        91        92        90        89        91        93
        90        89        91        94        90        89        99       100
        90        89        99       101        91        89        99       100
        91        89        99       101        91        94        96        97
        91        94        96        98        92        91        89        99
        92        91        94        95        92        91        94        96
        93        91        89        99        93        91        94        95
        93        91        94        96        94        91        89        99
        95        94        96        97        95        94        96        98
        99       101       102       103        99       101       102       104
        99       101       102       110        99       101       105       106
        99       101       105       107        99       101       105       113
       100        99       101       102       100        99       101       105
       101       102       110       107       101       102       110       111
       101       102       110       112       101       105       107       108
       101       105       107       109       101       105       107       110
       101       105       113       114       101       105       113       115
       102       101       105       106       102       101       105       107
       102       101       105       113       102       110       107       105
       102       110       107       108       102       110       107       109
       103       102       101       105       103       102       110       107
       103       102       110       111       103       102       110       112
       104       102       101       105       104       102       110       107
       104       102       110       111       104       102       110       112
       105       101       102       110       105       107       110       111
       105       107       110       112       105       113       115       116
       105       113       115       117       106       105       107       108
       106       105       107       109       106       105       107       110
       106       105       113       114       106       105       113       115
       107       105       113       114       107       105       113       115
       108       107       105       113       108       107       110       111
       108       107       110       112       109       107       105       113
       109       107       110       111       109       107       110       112
       110       107       105       113       113       115       117       118
       113       115       117       119       113       115       117       120
       114       113       115       116       114       113       115       117
       115       117       120       121       115       117       120       122
       116       115       117       118       116       115       117       119
       116       115       117       120       117       120       122       123
       117       120       122       126       118       117       120       121
       118       117       120       122       119       117       120       121
       119       117       120       122       120       122       123       124
       120       122       123       125       120       122       123       131
       120       122       126       127       120       122       126       128
       120       122       126       134       121       120       122       123
       121       120       122       126       122       123       131       128
       122       123       131       132       122       123       131       133
       122       126       128       129       122       126       128       130
       122       126       128       131       122       126       134       135
       122       126       134       136       123       122       126       127
       123       122       126       128       123       122       126       134
       123       131       128       126       123       131       128       129
       123       131       128       130       124       123       122       126
       124       123       131       128       124       123       131       132
       124       123       131       133       125       123       122       126
       125       123       131       128       125       123       131       132
       125       123       131       133       126       122       123       131
       126       128       131       132       126       128       131       133
       126       134       136       137       126       134       136       138
       127       126       128       129       127       126       128       130
       127       126       128       131       127       126       134       135
       127       126       134       136       128       126       134       135
       128       126       134       136       129       128       126       134
       129       128       131       132       129       128       131       133
       130       128       126       134       130       128       131       132
       130       128       131       133       131       128       126       134
       134       136       138       139       134       136       138       140
       134       136       138       141       135       134       136       137
       135       134       136       138       136       138       141       142
       136       138       141       143       137       136       138       139
       137       136       138       140       137       136       138       141
       138       141       143       144       138       141       143       145
       139       138       141       142       139       138       141       143
       140       138       141       142       140       138       141       143
       141       143       145       146       141       143       145       147
       141       143       145       155       142       141       143       144
       142       141       143       145       143       145       147       148
       143       145       147       149       143       145       147       150
       143       145       155       156       143       145       155       157
       144       143       145       146       144       143       145       147
       144       143       145       155       145       147       150       151
       145       147       150       152       145       155       157       158
       145       155       157       161       146       145       147       148
       146       145       147       149       146       145       147       150
       146       145       155       156       146       145       155       157
       147       145       155       156       147       145       155       157
       147       150       152       153       147       150       152       154
       148       147       145       155       148       147       150       151
       148       147       150       152       149       147       145       155
       149       147       150       151       149       147       150       152
       150       147       145       155       151       150       152       153
       151       150       152       154       155       157       158       159
       155       157       158       160       155       157       158       166
       155       157       161       162       155       157       161       163
       155       157       161       169       156       155       157       158
       156       155       157       161       157       158       166       163
       157       158       166       167       157       158       166       168
       157       161       163       164       157       161       163       165
       157       161       163       166       157       161       169       170
       157       161       169       171       158       157       161       162
       158       157       161       163       158       157       161       169
       158       166       163       161       158       166       163       164
       158       166       163       165       159       158       157       161
       159       158       166       163       159       158       166       167
       159       158       166       168       160       158       157       161
       160       158       166       163       160       158       166       167
       160       158       166       168       161       157       158       166
       161       163       166       167       161       163       166       168
       162       161       163       164       162       161       163       165
       162       161       163       166       162       161       169       170
       162       161       169       171       163       161       169       170
       163       161       169       171       164       163       161       169
       164       163       166       167       164       163       166       168
       165       163       161       169       165       163       166       167
       165       163       166       168       166       163       161       169

        41 !NIMPHI: impropers
         8         5        10         9        10         8        14        11
        22        14        24        23        24        22        26        25
        29        26        31        30        31        29        33        32
        43        33        45        44        38        40        35        39
        38        35        40        39        40        38        41        42
        40        38        42        41        45        43        49        46
        57        49        59        58        59        57        61        60
        64        61        66        65        66        64        70        67
        78        70        80        79        80        78        82        81
        85        82        87        86        87        85        89        88
        99        89       101       100        94        96        91        95
        94        91        96        95        96        94        97        98
        96        94        98        97       101        99       105       102
       113       105       115       114       115       113       117       116
       120       117       122       121       122       120       126       123
       134       126       136       135       136       134       138       137
       141       138       143       142       143       141       145       144
       155       145       157       156       150       152       147       151
       150       147       152       151       152       150       153       154
       152       150       154       153       157       155       161       158
       169       161       171       170

        17 !NDON: donors
         1         2         1         3         1         4        24        25
        31        32        40        41        40        42        59        60
        80        81        87        88        96        97        96        98
       115       116       136       137       143       144       152       153
       152       154

        19 !NACC: acceptors
         9         8        23        22        30        29        39        38
        44        43        58        57        65        64        79        78
        86        85        95        94       100        99       114       113
       121       120       135       134       142       141       151       150
       156       155       170       169       171       169

         0 !NNB

         0         0         0         0         0         0         0         0
         0         0         0         0         0         0         0         0
         0         0         0         0         0         0         0         0
         0         0         0         0         0         0         0         0
         0         0         0         0         0         0         0         0
         0         0         0         0         0         0         0         0
         0         0         0         0         0         0         0         0
         0         0         0         0         0         0         0         0
         0         0         0         0         0         0         0         0
         0         0         0         0         0         0         0         0
         0         0         0         0         0         0         0         0
         0         0         0         0         0         0         0         0
         0         0         0         0         0         0         0         0
         0         0         0         0         0         0         0         0
         0         0         0         0         0         0         0         0
         0         0         0         0         0         0         0         0
         0         0         0         0         0         0         0         0
         0         0         0         0         0         0         0         0
         0         0         0         0         0         0         0         0
         0         0         0         0         0         0         0         0
         0         0         0         0         0         0         0         0
         0         0         0

        51         0 !NGRP NST2
         0         2         0         7         1         0         9         1         0
        15         1         0        18         1         0        21         1         0
        23         1         0        28         1         0        30         1         0
        34         1         0        37         1         0        39         1         0
        42         1         0        44         1         0        50         1         0
        53         1         0        56         1         0        58         1         0
        63         1         0        65         1         0        71         1         0
        74         1         0        77         1         0        79         1         0
        84         1         0        86         1         0        90         1         0
        93         1         0        95         1         0        98         1         0
       100         1         0       106         1         0       109         1         0
       112         1         0       114         1         0       119         1         0
       121         1         0       127         1         0       130         1         0
       133         1         0       135         1         0       140         1         0
       142         1         0       146         1         0       149         1         0
       151         1         0       154         1         0       156         1         0
       162         1         0       165         1         0       168         2         0

         0         0 !NUMLP NUMLPH

        13 !NCRTERM: cross-terms
         8        10        14        22        10        14        22        24
        22        24        26        29        24        26        29        31
        29        31        33        43        31        33        43        45
        43        45        49        57        45        49        57        59
        57        59        61        64        59        61        64        66
        64        66        70        78        66        70        78        80
        78        80        82        85        80        82        85        87
        85        87        89        99        87        89        99       101
        99       101       105       113       101       105       113       115
       113       115       117       120       115       117       120       122
       120       122       126       134       122       126       134       136
       134       136       138       141       136       138       141       143
       141       143       145       155       143       145       155       157
