* GENERATED BY CHARMM-GUI (HTTP://WWW.CHARMM-GUI.ORG) V3.7 ON JUN, 18. 2026. JOB
* GENERATES IONS
*  DATE:     6/18/26      0:40:15      CREATED BY USER: charmm-gui
*
       171  EXT
         1         1  GLY       N              22.1485277101        0.4689066211        0.1754655503  PROA      1              97.2100000000
         2         1  GLY       HT1            22.9184804106        0.5719105438        0.8669588842  PROA      1               0.0000000000
         3         1  GLY       HT2            21.6805941895        1.3875017423        0.0382764123  PROA      1               0.0000000000
         4         1  GLY       HT3            22.5383084616        0.1401645929       -0.7309555885  PROA      1               0.0000000000
         5         1  GLY       CA             21.1812903769       -0.4991456877        0.6667014087  PROA      1              97.6700000000
         6         1  GLY       HA1            20.9302411430       -0.2228906370        1.6800920230  PROA      1               0.0000000000
         7         1  GLY       HA2            21.6538283682       -1.4700362196        0.6471430355  PROA      1               0.0000000000
         8         1  GLY       C              19.9122059452       -0.5483776459       -0.1628592700  PROA      1              97.9800000000
         9         1  GLY       O              19.7007115181        0.2981693675       -1.0336802972  PROA      1              97.4500000000
        10         2  PRO       N              18.9172366287       -1.5307978991        0.0093397579  PROA      2              98.1100000000
        11         2  PRO       CD             19.2927452503       -2.7339230886        0.5991050107  PROA      2              94.2200000000
        12         2  PRO       HD1            19.4469841817       -2.5845311685        1.6886343426  PROA      2               0.0000000000
        13         2  PRO       HD2            20.2295188266       -3.1037157150        0.1312477257  PROA      2               0.0000000000
        14         2  PRO       CA             17.6340891942       -1.5675225211       -0.6966418025  PROA      2              98.2000000000
        15         2  PRO       HA             17.7890644190       -1.5033018755       -1.7617154790  PROA      2               0.0000000000
        16         2  PRO       CB             17.0063893877       -2.8804893036       -0.2192361248  PROA      2              97.9600000000
        17         2  PRO       HB1            16.5285481604       -3.4195108421       -1.0649285235  PROA      2               0.0000000000
        18         2  PRO       HB2            16.2412066125       -2.6901109778        0.5632749003  PROA      2               0.0000000000
        19         2  PRO       CG             18.1477655328       -3.6697832632        0.3357778755  PROA      2              96.5000000000
        20         2  PRO       HG1            17.8397810918       -4.1648538754        1.2814748022  PROA      2               0.0000000000
        21         2  PRO       HG2            18.4572994898       -4.4492399021       -0.3928702437  PROA      2               0.0000000000
        22         2  PRO       C              16.7386422761       -0.3798008106       -0.3540750862  PROA      2              98.3400000000
        23         2  PRO       O              16.9126361470        0.2482742680        0.6935803097  PROA      2              98.1800000000
        24         3  GLY       N              15.9156139838       -0.0305609187       -1.3441477744  PROA      3              97.9800000000
        25         3  GLY       HN             15.9233182356       -0.4704761113       -2.2388111928  PROA      3               0.0000000000
        26         3  GLY       CA             14.9500909122        1.0387002686       -1.1402440927  PROA      3              97.9300000000
        27         3  GLY       HA1            14.4396760417        1.2056723975       -2.0772007569  PROA      3               0.0000000000
        28         3  GLY       HA2            15.4951147949        1.9246787021       -0.8499304609  PROA      3               0.0000000000
        29         3  GLY       C              13.9240442242        0.7188958497       -0.0704953710  PROA      3              98.2300000000
        30         3  GLY       O              13.7974466846       -0.4313271057        0.3535720952  PROA      3              98.0800000000
        31         4  ASN       N              13.3378338703        1.7609466749        0.3661709761  PROA      4              97.9100000000
        32         4  ASN       HN             13.5903760995        2.6962563884        0.1329465971  PROA      4               0.0000000000
        33         4  ASN       CA             12.2165259126        1.5398256008        1.2735870518  PROA      4              97.8000000000
        34         4  ASN       HA             12.5631537794        0.9251029919        2.0909803644  PROA      4               0.0000000000
        35         4  ASN       CB             11.6813642279        2.8734096933        1.8004109688  PROA      4              97.3200000000
        36         4  ASN       HB1            10.7187066266        2.6944488296        2.3248477996  PROA      4               0.0000000000
        37         4  ASN       HB2            11.5077936939        3.5572064471        0.9424681344  PROA      4               0.0000000000
        38         4  ASN       CG             12.6380716816        3.5456286363        2.7660555932  PROA      4              91.7600000000
        39         4  ASN       OD1            13.5309015598        2.9023787232        3.3227694856  PROA      4              87.5400000000
        40         4  ASN       ND2            12.4587076276        4.8444959555        2.9689477401  PROA      4              89.8600000000
        41         4  ASN       HD21           13.0599110770        5.3403881825        3.5955619050  PROA      4               0.0000000000
        42         4  ASN       HD22           11.7223185279        5.3275525169        2.4952522131  PROA      4               0.0000000000
        43         4  ASN       C              11.0977942146        0.7492791268        0.6000258738  PROA      4              98.0100000000
        44         4  ASN       O              10.8876228461        0.8694952776       -0.6077932653  PROA      4              97.7200000000
        45         5  PRO       N              10.4394209124       -0.0516660027        1.2959766583  PROA      5              97.8500000000
        46         5  PRO       CD             10.7706343245       -0.5115456357        2.6169662112  PROA      5              95.9300000000
        47         5  PRO       HD1            10.6659045509        0.3184115447        3.3468567673  PROA      5               0.0000000000
        48         5  PRO       HD2            11.8091487360       -0.9036013784        2.6347870466  PROA      5               0.0000000000
        49         5  PRO       CA              9.2510360674       -0.6824456127        0.7153454986  PROA      5              97.8600000000
        50         5  PRO       HA              9.5257555134       -1.2999023015       -0.1247717827  PROA      5               0.0000000000
        51         5  PRO       CB              8.6431809228       -1.4427647643        1.8959842710  PROA      5              97.6600000000
        52         5  PRO       HB1             8.2620730172       -2.4346485064        1.5719490896  PROA      5               0.0000000000
        53         5  PRO       HB2             7.8071965326       -0.8669937372        2.3473081193  PROA      5               0.0000000000
        54         5  PRO       CG              9.7661546982       -1.5983458084        2.8693549293  PROA      5              96.4000000000
        55         5  PRO       HG1             9.3790577080       -1.5208711265        3.9078377098  PROA      5               0.0000000000
        56         5  PRO       HG2            10.2445252468       -2.5924383772        2.7380747923  PROA      5               0.0000000000
        57         5  PRO       C               8.2600248849        0.3334590248        0.1523955862  PROA      5              98.1900000000
        58         5  PRO       O               8.2153842980        1.4781151480        0.6115639404  PROA      5              98.1100000000
        59         6  GLY       N               7.6478774593       -0.1782203424       -0.9666355816  PROA      6              98.0500000000
        60         6  GLY       HN              7.8566651524       -1.0534134953       -1.3936271489  PROA      6               0.0000000000
        61         6  GLY       CA              6.6140898011        0.6717814176       -1.5359422528  PROA      6              97.9700000000
        62         6  GLY       HA1             6.2402820971        0.1862678422       -2.4252308868  PROA      6               0.0000000000
        63         6  GLY       HA2             7.0681049925        1.6178890181       -1.7909726828  PROA      6               0.0000000000
        64         6  GLY       C               5.4567801132        0.9204490575       -0.5867237894  PROA      6              98.2500000000
        65         6  GLY       O               5.3721185735        0.2969731409        0.4737177248  PROA      6              98.0900000000
        66         7  PRO       N               4.6780962911        1.7251489322       -0.9517958600  PROA      7              98.2400000000
        67         7  PRO       CD              4.7045939101        2.5080161524       -2.2355317330  PROA      7              97.3300000000
        68         7  PRO       HD1             4.8504095563        1.8274166521       -3.1000891806  PROA      7               0.0000000000
        69         7  PRO       HD2             5.5141351152        3.2668660425       -2.2085624156  PROA      7               0.0000000000
        70         7  PRO       CA              3.4449167516        1.9226478493       -0.1868720722  PROA      7              98.2100000000
        71         7  PRO       HA              3.6680178960        2.0448693180        0.8608906822  PROA      7               0.0000000000
        72         7  PRO       CB              2.8089274337        3.1463749102       -0.8526923692  PROA      7              98.0900000000
        73         7  PRO       HB1             3.0975583302        4.0786051680       -0.3219272692  PROA      7               0.0000000000
        74         7  PRO       HB2             1.7011831393        3.0628870426       -0.8549270183  PROA      7               0.0000000000
        75         7  PRO       CG              3.3438566456        3.1431182832       -2.2479164130  PROA      7              97.4100000000
        76         7  PRO       HG1             2.6642409526        2.5669039069       -2.9115380230  PROA      7               0.0000000000
        77         7  PRO       HG2             3.4168520906        4.1849631333       -2.6267634957  PROA      7               0.0000000000
        78         7  PRO       C               2.5094316473        0.7178030977       -0.2538925483  PROA      7              98.4500000000
        79         7  PRO       O               2.6491013087       -0.1280870312       -1.1406604297  PROA      7              98.4000000000
        80         8  GLY       N               1.6287775298        0.7149414926        0.7453632431  PROA      8              97.9700000000
        81         8  GLY       HN              1.6039924553        1.3826807667        1.4846011588  PROA      8               0.0000000000
        82         8  GLY       CA              0.6416489724       -0.3536516343        0.7309778173  PROA      8              97.9000000000
        83         8  GLY       HA1             0.1402881378       -0.3526912610        1.6874953360  PROA      8               0.0000000000
        84         8  GLY       HA2             1.1668594909       -1.2861819878        0.5866503302  PROA      8               0.0000000000
        85         8  GLY       C              -0.3924216738       -0.1955160664       -0.3674196703  PROA      8              98.3000000000
        86         8  GLY       O              -0.4760593957        0.8576279638       -1.0023183892  PROA      8              98.2100000000
        87         9  ASN       N              -1.1364354809       -1.2277766493       -0.5676334159  PROA      9              98.1100000000
        88         9  ASN       HN             -0.9843357191       -2.0894185025       -0.0899812280  PROA      9               0.0000000000
        89         9  ASN       CA             -2.2519634922       -1.2054507471       -1.5070389780  PROA      9              98.0600000000
        90         9  ASN       HA             -1.8990350646       -0.7829352972       -2.4360634703  PROA      9               0.0000000000
        91         9  ASN       CB             -2.7900063461       -2.6195362319       -1.7363338301  PROA      9              97.6800000000
        92         9  ASN       HB1            -3.7304717962       -2.5572898866       -2.3240597760  PROA      9               0.0000000000
        93         9  ASN       HB2            -3.0049856888       -3.0881597326       -0.7524905730  PROA      9               0.0000000000
        94         9  ASN       CG             -1.8109624167       -3.5018683773       -2.4863398097  PROA      9              93.4800000000
        95         9  ASN       OD1            -0.8812425605       -3.0100273049       -3.1305341503  PROA      9              91.0700000000
        96         9  ASN       ND2            -2.0143388216       -4.8116252772       -2.4076575291  PROA      9              92.0500000000
        97         9  ASN       HD21           -1.4002549900       -5.4423618050       -2.8820755730  PROA      9               0.0000000000
        98         9  ASN       HD22           -2.7815922040       -5.1673103370       -1.8739812365  PROA      9               0.0000000000
        99         9  ASN       C              -3.3699394936       -0.2846971133       -1.0278016609  PROA      9              98.3600000000
       100         9  ASN       O              -3.5218407749       -0.0584505841        0.1743599375  PROA      9              98.2500000000
       101        10  PRO       N              -4.0534252607        0.1883714537       -2.0223846576  PROA      10             98.3200000000
       102        10  PRO       CD             -3.8812501583        0.0467811338       -3.3154654421  PROA      10             96.5900000000
       103        10  PRO       HD1            -4.0145530051       -1.0207652116       -3.5913290507  PROA      10              0.0000000000
       104        10  PRO       HD2            -2.8596753504        0.3840919831       -3.5913855059  PROA      10              0.0000000000
       105        10  PRO       CA             -5.2186179571        0.9646945073       -1.5915662545  PROA      10             98.3000000000
       106        10  PRO       HA             -4.9164001638        1.7593638049       -0.9284897839  PROA      10              0.0000000000
       107        10  PRO       CB             -5.8380310697        1.4331545907       -2.9102517918  PROA      10             98.1900000000
       108        10  PRO       HB1            -5.8885199397        2.5421791218       -2.9501163377  PROA      10              0.0000000000
       109        10  PRO       HB2            -6.8630254479        1.0225623801       -3.0322119492  PROA      10              0.0000000000
       110        10  PRO       CG             -4.9255765610        0.9052543576       -3.9698201536  PROA      10             97.2000000000
       111        10  PRO       HG1            -5.5052461068        0.3029623944       -4.7016138996  PROA      10              0.0000000000
       112        10  PRO       HG2            -4.4397919021        1.7492149757       -4.5046455628  PROA      10              0.0000000000
       113        10  PRO       C              -6.2156144252        0.1335230284       -0.7856940468  PROA      10             98.5100000000
       114        10  PRO       O              -6.2211903650       -1.0962508903       -0.8837706379  PROA      10             98.4700000000
       115        11  GLY       N              -6.9663256752        0.8007960527        0.1668773837  PROA      11             98.0600000000
       116        11  GLY       HN             -6.8394735510        1.7703159503        0.3612714765  PROA      11              0.0000000000
       117        11  GLY       CA             -7.9900539723        0.1168763704        0.9425449942  PROA      11             98.0100000000
       118        11  GLY       HA1            -8.3962444697        0.8248664998        1.6496852754  PROA      11              0.0000000000
       119        11  GLY       HA2            -7.5167198002       -0.7013581930        1.4647854384  PROA      11              0.0000000000
       120        11  GLY       C              -9.1187128349       -0.4302353842        0.0898247001  PROA      11             98.3000000000
       121        11  GLY       O              -9.1565104242       -0.2004436452       -1.1215258267  PROA      11             98.2100000000
       122        12  PRO       N              -9.9928637363       -1.1425401158        0.5780451125  PROA      12             98.2200000000
       123        12  PRO       CD             -9.9811098437       -1.4683522636        2.0094951781  PROA      12             96.2100000000
       124        12  PRO       HD1            -9.9625675066       -0.5366841799        2.6129184391  PROA      12              0.0000000000
       125        12  PRO       HD2            -9.0968919903       -2.0946120932        2.2512104697  PROA      12              0.0000000000
       126        12  PRO       CA            -11.1710515189       -1.6536895732       -0.1248466154  PROA      12             98.2400000000
       127        12  PRO       HA            -10.8890419170       -2.0666923072       -1.0800506756  PROA      12              0.0000000000
       128        12  PRO       CB            -11.7586220816       -2.6663859751        0.8615751155  PROA      12             98.0900000000
       129        12  PRO       HB1           -11.4056383414       -3.6937603137        0.6292573694  PROA      12              0.0000000000
       130        12  PRO       HB2           -12.8688826556       -2.6519530506        0.8272205486  PROA      12              0.0000000000
       131        12  PRO       CG            -11.2633730164       -2.2253032120        2.2009512239  PROA      12             96.8500000000
       132        12  PRO       HG1           -12.0190354246       -1.5713773462        2.6863888194  PROA      12              0.0000000000
       133        12  PRO       HG2           -11.0862060754       -3.1106074550        2.8483634917  PROA      12              0.0000000000
       134        12  PRO       C             -12.1845406328       -0.5595648584       -0.4509477108  PROA      12             98.4900000000
       135        12  PRO       O             -12.1803566807        0.4992362090        0.1822179818  PROA      12             98.4600000000
       136        13  GLY       N             -12.9359334201       -0.7346125794       -1.5070117120  PROA      13             98.0600000000
       137        13  GLY       HN            -12.8011612483       -1.5014277559       -2.1295238887  PROA      13              0.0000000000
       138        13  GLY       CA            -14.0179131940        0.1769274209       -1.8441060559  PROA      13             98.0500000000
       139        13  GLY       HA1           -14.4651451481       -0.1680629360       -2.7645685245  PROA      13              0.0000000000
       140        13  GLY       HA2           -13.5906776257        1.1590336138       -1.9827535166  PROA      13              0.0000000000
       141        13  GLY       C             -15.0898040046        0.2529655293       -0.7742573300  PROA      13             98.3600000000
       142        13  GLY       O             -15.1820119506       -0.6284504878        0.0832212410  PROA      13             98.3200000000
       143        14  ASN       N             -15.7875675386        1.1254577184       -0.6729635473  PROA      14             98.0100000000
       144        14  ASN       HN            -15.6353180931        1.9181310956       -1.2522255654  PROA      14              0.0000000000
       145        14  ASN       CA            -16.9359930554        1.2997347329        0.2088597652  PROA      14             97.9000000000
       146        14  ASN       HA            -16.6348448874        1.0262530081        1.2092016144  PROA      14              0.0000000000
       147        14  ASN       CB            -17.4218760534        2.7512090780        0.1773329865  PROA      14             97.3500000000
       148        14  ASN       HB1           -17.9808968746        2.9244773483       -0.7667225388  PROA      14              0.0000000000
       149        14  ASN       HB2           -16.5413693900        3.4275611695        0.2093153371  PROA      14              0.0000000000
       150        14  ASN       CG            -18.3300930043        3.0881435746        1.3431657854  PROA      14             91.3300000000
       151        14  ASN       OD1           -18.3813191045        2.3603622902        2.3367981564  PROA      14             87.2800000000
       152        14  ASN       ND2           -19.0521717771        4.1972469474        1.2296714935  PROA      14             89.4800000000
       153        14  ASN       HD21          -19.6692763728        4.4698365830        1.9678292061  PROA      14              0.0000000000
       154        14  ASN       HD22          -18.9786771442        4.7596349703        0.4060707100  PROA      14              0.0000000000
       155        14  ASN       C             -18.0739031308        0.3529699028       -0.1581838520  PROA      14             98.1800000000
       156        14  ASN       O             -18.2478080311        0.0068789648       -1.3281950264  PROA      14             98.0000000000
       157        15  PRO       N             -18.5166702878       -0.5497464745        0.9543741855  PROA      15             97.7700000000
       158        15  PRO       CD            -18.1544011399       -0.3881857032        2.2271935685  PROA      15             95.1900000000
       159        15  PRO       HD1           -18.4468564290        0.6257158301        2.5731669632  PROA      15              0.0000000000
       160        15  PRO       HD2           -17.0556840341       -0.5184623490        2.3224444072  PROA      15              0.0000000000
       161        15  PRO       CA            -19.6359476914       -1.4604272686        0.7033511091  PROA      15             97.4700000000
       162        15  PRO       HA            -19.3596319731       -2.2032501954       -0.0276743057  PROA      15              0.0000000000
       163        15  PRO       CB            -19.9547541547       -2.0180616908        2.0934576842  PROA      15             97.1300000000
       164        15  PRO       HB1           -19.9177804306       -3.1283303770        2.0909888802  PROA      15              0.0000000000
       165        15  PRO       HB2           -20.9634213401       -1.6932476410        2.4268584175  PROA      15              0.0000000000
       166        15  PRO       CG            -18.8946136974       -1.4538518968        2.9832034451  PROA      15             95.4200000000
       167        15  PRO       HG1           -19.3585392010       -1.0177465958        3.8936311901  PROA      15              0.0000000000
       168        15  PRO       HG2           -18.1911741420       -2.2575942955        3.2889228164  PROA      15              0.0000000000
       169        15  PRO       C             -20.8515934268       -0.7522057626        0.1093462738  PROA      15             97.5600000000
       170        15  PRO       OT1           -20.7718509947        0.4884879343       -0.0953981885  PROA      15              0.0000000000
       171        15  PRO       OT2           -21.8730794287       -1.4442502685       -0.1460764146  PROA      15              0.0000000000
