* SET NIONTYPES = 1
* SET NPOSTOT = 42
* SET NNEGTOT = 42
* SET NIONTOT = 84
*  DATE:     6/18/26      0:41:26      CREATED BY USER: charmm-gui
*
        84  EXT
         1         1  LIT       LIT            36.7188272712       14.3471926898      -29.4989172913  IONS      1               1.0000000000
         2         2  LIT       LIT            26.4204098660      -20.0822805882       30.5389500962  IONS      2               1.0000000000
         3         3  LIT       LIT            -8.3473111069        1.3875066160      -21.8518526787  IONS      3               1.0000000000
         4         4  LIT       LIT            11.7287927121       36.5095722316      -12.7955921348  IONS      4               1.0000000000
         5         5  LIT       LIT            26.2653330716        2.0539389773       15.5649928975  IONS      5               1.0000000000
         6         6  LIT       LIT           -10.9734578974       20.1847972775       29.4968460847  IONS      6               1.0000000000
         7         7  LIT       LIT            25.6380773357       18.1785117879       15.7385285036  IONS      7               1.0000000000
         8         8  LIT       LIT           -30.5106737358      -31.0307898462        7.4879301915  IONS      8               1.0000000000
         9         9  LIT       LIT            12.9135274063      -13.5980853002      -10.7732855922  IONS      9               1.0000000000
        10        10  LIT       LIT            13.9673070539       21.7770699228       24.8190515604  IONS      10              1.0000000000
        11        11  LIT       LIT            31.8179414505      -23.2215067911      -17.9536485033  IONS      11              1.0000000000
        12        12  LIT       LIT           -24.0749241600      -38.0755474050       20.9827118904  IONS      12              1.0000000000
        13        13  LIT       LIT           -23.6152736137        6.4947805037      -25.8287202853  IONS      13              1.0000000000
        14        14  LIT       LIT           -34.5477149219      -17.6618761881        1.3332951355  IONS      14              1.0000000000
        15        15  LIT       LIT            -6.6309864283      -27.5164565686      -24.3084628741  IONS      15              1.0000000000
        16        16  LIT       LIT           -22.9409920108       -9.2741505174      -27.2299293690  IONS      16              1.0000000000
        17        17  LIT       LIT           -14.1750983581       28.7042393211       25.8271097356  IONS      17              1.0000000000
        18        18  LIT       LIT           -31.9291846823       11.0424568008        0.9291693653  IONS      18              1.0000000000
        19        19  LIT       LIT             7.3172301178       29.8590144865       28.6919467729  IONS      19              1.0000000000
        20        20  LIT       LIT            30.7105494119      -11.5645018366       -4.9209803474  IONS      20              1.0000000000
        21        21  LIT       LIT            15.9088382555      -24.5185176074       33.5580132666  IONS      21              1.0000000000
        22        22  LIT       LIT            27.0552687988       28.3337312165       -8.5638324848  IONS      22              1.0000000000
        23        23  LIT       LIT            -8.8262118135        3.7970901021       26.0568759440  IONS      23              1.0000000000
        24        24  LIT       LIT           -13.2214621915       -1.6777995422      -13.5735072395  IONS      24              1.0000000000
        25        25  LIT       LIT           -37.8090145923       15.5738369886        9.6615065273  IONS      25              1.0000000000
        26        26  LIT       LIT            32.6507174566      -29.6134482124      -13.3270722843  IONS      26              1.0000000000
        27        27  LIT       LIT             0.2073078135      -34.6556711773      -29.0300933144  IONS      27              1.0000000000
        28        28  LIT       LIT           -19.4493022380       -9.7323978437      -36.8232458693  IONS      28              1.0000000000
        29        29  LIT       LIT            -8.6867770401       24.2345759965      -33.8256867631  IONS      29              1.0000000000
        30        30  LIT       LIT            25.2399335010      -37.1838413335      -23.6220295695  IONS      30              1.0000000000
        31        31  LIT       LIT            -8.6641602008      -39.4040722313       21.2745436542  IONS      31              1.0000000000
        32        32  LIT       LIT            40.1437831394        9.0546901069       24.2509869700  IONS      32              1.0000000000
        33        33  LIT       LIT            40.9563122477       -0.6653733615       -5.8556918608  IONS      33              1.0000000000
        34        34  LIT       LIT           -40.0788917400        1.3668971425      -23.7912858039  IONS      34              1.0000000000
        35        35  LIT       LIT            26.7205115995       15.7296208938       28.9419496438  IONS      35              1.0000000000
        36        36  LIT       LIT           -36.5186678773        3.5364737117       -9.9396020173  IONS      36              1.0000000000
        37        37  LIT       LIT            -5.2387509091       41.9909046836       -0.6351583090  IONS      37              1.0000000000
        38        38  LIT       LIT            24.2388728665       -4.3979121331       38.0541075048  IONS      38              1.0000000000
        39        39  LIT       LIT           -32.4229899398       29.6459633161       10.0117400740  IONS      39              1.0000000000
        40        40  LIT       LIT           -21.8654813884       23.1764329395      -21.8244881769  IONS      40              1.0000000000
        41        41  LIT       LIT           -10.4711913047      -23.6390749272      -28.6156410996  IONS      41              1.0000000000
        42        42  LIT       LIT            -9.6832049405       40.6056189363       18.4576842108  IONS      42              1.0000000000
        43        43  CLA       CLA             5.3804541216      -15.7121442097      -11.9753673566  IONS      43             -1.0000000000
        44        44  CLA       CLA            11.1369333790       17.4445880197       26.8483982626  IONS      44             -1.0000000000
        45        45  CLA       CLA            -0.9197916951       17.0133248889       -0.9622440798  IONS      45             -1.0000000000
        46        46  CLA       CLA            30.8762744636      -19.1676695132       -9.3691140685  IONS      46             -1.0000000000
        47        47  CLA       CLA            -4.6001513150      -31.1876922034      -24.1574990710  IONS      47             -1.0000000000
        48        48  CLA       CLA           -36.8009130481      -10.8961166908       28.5520023076  IONS      48             -1.0000000000
        49        49  CLA       CLA            -1.9840192120       25.7089298115       30.1766991778  IONS      49             -1.0000000000
        50        50  CLA       CLA            39.5766868630       22.5418542276       -2.8865492292  IONS      50             -1.0000000000
        51        51  CLA       CLA           -12.7303457762       -8.8620737152      -32.4661464821  IONS      51             -1.0000000000
        52        52  CLA       CLA            15.4278249213        8.5699986549      -25.9725776320  IONS      52             -1.0000000000
        53        53  CLA       CLA             8.9047340532        7.6694134318       45.0683274134  IONS      53             -1.0000000000
        54        54  CLA       CLA            40.1381132905       -0.7627236096      -12.2658506678  IONS      54             -1.0000000000
        55        55  CLA       CLA            13.0675660485       22.6400401073      -32.2504528330  IONS      55             -1.0000000000
        56        56  CLA       CLA             5.3230002316       39.1463287049      -25.2061801238  IONS      56             -1.0000000000
        57        57  CLA       CLA            18.9227878124      -32.2055950069      -12.7595594762  IONS      57             -1.0000000000
        58        58  CLA       CLA            -4.9063875491      -25.2376120141      -25.0045789077  IONS      58             -1.0000000000
        59        59  CLA       CLA            39.6967969158       27.1469694856        1.7865581148  IONS      59             -1.0000000000
        60        60  CLA       CLA            19.0137599030      -14.4853979585       24.9449578247  IONS      60             -1.0000000000
        61        61  CLA       CLA            11.1712299810      -14.6669584754      -17.3346651243  IONS      61             -1.0000000000
        62        62  CLA       CLA           -13.1419268021      -25.2745207392       -9.7045776696  IONS      62             -1.0000000000
        63        63  CLA       CLA           -23.2385438680       -0.5781862413      -29.6586497344  IONS      63             -1.0000000000
        64        64  CLA       CLA            -6.8325756831       15.8599650537       41.0162502886  IONS      64             -1.0000000000
        65        65  CLA       CLA           -24.4705061786      -32.8778810045        1.8016327211  IONS      65             -1.0000000000
        66        66  CLA       CLA           -20.4244090376      -28.2704996111      -19.9507085568  IONS      66             -1.0000000000
        67        67  CLA       CLA            28.6259500966       33.8106917521       -4.5650052544  IONS      67             -1.0000000000
        68        68  CLA       CLA            12.9124346462       25.4518894816       29.4055025814  IONS      68             -1.0000000000
        69        69  CLA       CLA            -6.9156514004      -17.4842803806       -7.2141516064  IONS      69             -1.0000000000
        70        70  CLA       CLA            28.5473974999       -2.8120080797       -5.0493143152  IONS      70             -1.0000000000
        71        71  CLA       CLA            16.4475423650       13.9453151809       18.3964618756  IONS      71             -1.0000000000
        72        72  CLA       CLA           -24.9419817529      -25.3302527316       14.2228814216  IONS      72             -1.0000000000
        73        73  CLA       CLA            -1.1071982879      -39.3819502098      -29.6204139184  IONS      73             -1.0000000000
        74        74  CLA       CLA           -29.8524951460        2.3412780534       -5.1250637888  IONS      74             -1.0000000000
        75        75  CLA       CLA           -20.2889828866       12.3688971504      -36.7508824144  IONS      75             -1.0000000000
        76        76  CLA       CLA            14.7755928994      -18.3753852152      -39.4329178442  IONS      76             -1.0000000000
        77        77  CLA       CLA            22.9203837228       -8.8587744854      -15.9754525676  IONS      77             -1.0000000000
        78        78  CLA       CLA           -19.9336320197       30.3208811904       29.2829862222  IONS      78             -1.0000000000
        79        79  CLA       CLA           -37.6196209897       -0.4326275244      -25.8246461832  IONS      79             -1.0000000000
        80        80  CLA       CLA            25.1222192859      -28.5858266754       -1.8936750790  IONS      80             -1.0000000000
        81        81  CLA       CLA            28.3595264026      -35.5601065191      -18.4549728934  IONS      81             -1.0000000000
        82        82  CLA       CLA           -15.9291702277       43.0558419967       20.4620292038  IONS      82             -1.0000000000
        83        83  CLA       CLA           -32.8839026799      -29.1207188612       -7.2804120286  IONS      83             -1.0000000000
        84        84  CLA       CLA             3.6504543394      -26.3389318872       17.2772668760  IONS      84             -1.0000000000
