* GENERATED BY CHARMM-GUI (HTTP://WWW.CHARMM-GUI.ORG) V3.7 ON JUN, 18. 2026. JOB
* READ PDB, MANIPULATE STRUCTURE IF NEEDED, AND GENERATE TOPOLOGY FILE
*  DATE:     6/18/26      0:35: 8      CREATED BY USER: charmm-gui
*
       171  EXT
         1         1  GLY       N               7.2010000000        2.9500000000       20.2260000000  PROA      1              97.2100000000
         2         1  GLY       HT1             6.8708014592        3.2750838718       21.1570689555  PROA      1               0.0000000000
         3         1  GLY       HT2             7.1471675166        3.7347713405       19.5456797498  PROA      1               0.0000000000
         4         1  GLY       HT3             8.1858203180        2.6244287998       20.3017097811  PROA      1               0.0000000000
         5         1  GLY       CA              6.3620000000        1.8540000000       19.7690000000  PROA      1              97.6700000000
         6         1  GLY       HA1             5.3334754221        2.1672886201       19.8704423043  PROA      1               0.0000000000
         7         1  GLY       HA2             6.5613366855        1.0043806581       20.4051721212  PROA      1               0.0000000000
         8         1  GLY       C               6.6220000000        1.4650000000       18.3260000000  PROA      1              97.9800000000
         9         1  GLY       O               7.3430000000        2.1630000000       17.6100000000  PROA      1              97.4500000000
        10         2  PRO       N               6.0650000000        0.3190000000       17.7250000000  PROA      2              98.1100000000
        11         2  PRO       CD              5.6650000000       -0.7190000000       18.5610000000  PROA      2              94.2200000000
        12         2  PRO       HD1             4.7260495460       -0.4382460927       19.0832365817  PROA      2               0.0000000000
        13         2  PRO       HD2             6.4629968858       -0.9298570224       19.3039145611  PROA      2               0.0000000000
        14         2  PRO       CA              6.2060000000       -0.0490000000       16.3140000000  PROA      2              98.2000000000
        15         2  PRO       HA              7.2459218386       -0.0555014538       16.0293179867  PROA      2               0.0000000000
        16         2  PRO       CB              5.5120000000       -1.4120000000       16.2340000000  PROA      2              97.9600000000
        17         2  PRO       HB1             6.0968725790       -2.1159234072       15.6043270738  PROA      2               0.0000000000
        18         2  PRO       HB2             4.4918153028       -1.3105246323       15.8062173168  PROA      2               0.0000000000
        19         2  PRO       CG              5.4490000000       -1.8920000000       17.6480000000  PROA      2              96.5000000000
        20         2  PRO       HG1             4.4558298764       -2.3480128632       17.8478934172  PROA      2               0.0000000000
        21         2  PRO       HG2             6.2362858271       -2.6561895692       17.8226062220  PROA      2               0.0000000000
        22         2  PRO       C               5.5440000000        0.9550000000       15.3740000000  PROA      2              98.3400000000
        23         2  PRO       O               4.6540000000        1.7020000000       15.7890000000  PROA      2              98.1800000000
        24         3  GLY       N               6.1300000000        1.0310000000       14.1780000000  PROA      3              97.9800000000
        25         3  GLY       HN              6.9523551573        0.5193058000       13.9415504171  PROA      3               0.0000000000
        26         3  GLY       CA              5.5670000000        1.8920000000       13.1490000000  PROA      3              97.9300000000
        27         3  GLY       HA1             6.2267746461        1.8601711205       12.2946141615  PROA      3               0.0000000000
        28         3  GLY       HA2             5.5207572727        2.8949689248       13.5467508872  PROA      3               0.0000000000
        29         3  GLY       C               4.1770000000        1.4700000000       12.7140000000  PROA      3              98.2300000000
        30         3  GLY       O               3.7310000000        0.3640000000       13.0250000000  PROA      3              98.0800000000
        31         4  ASN       N               3.5500000000        2.4050000000       12.1200000000  PROA      4              97.9100000000
        32         4  ASN       HN              3.8692918689        3.3458648445       12.0438324515  PROA      4               0.0000000000
        33         4  ASN       CA              2.2720000000        2.0440000000       11.5150000000  PROA      4              97.8000000000
        34         4  ASN       HA              1.6547931979        1.5946114309       12.2787226386  PROA      4               0.0000000000
        35         4  ASN       CB              1.5840000000        3.2820000000       10.9350000000  PROA      4              97.3200000000
        36         4  ASN       HB1             0.7207301204        2.9585058148       10.3154136341  PROA      4               0.0000000000
        37         4  ASN       HB2             2.3072524888        3.8305770480       10.2948908705  PROA      4               0.0000000000
        38         4  ASN       CG              1.0790000000        4.2260000000       12.0090000000  PROA      4              91.7600000000
        39         4  ASN       OD1             0.9170000000        3.8370000000       13.1680000000  PROA      4              87.5400000000
        40         4  ASN       ND2             0.8290000000        5.4730000000       11.6310000000  PROA      4              89.8600000000
        41         4  ASN       HD21            0.4938828396        6.1396347481       12.2968037259  PROA      4               0.0000000000
        42         4  ASN       HD22            0.9756936059        5.7462219416       10.6802998598  PROA      4               0.0000000000
        43         4  ASN       C               2.4440000000        0.9790000000       10.4350000000  PROA      4              98.0100000000
        44         4  ASN       O               3.4710000000        0.9380000000        9.7560000000  PROA      4              97.7200000000
        45         5  PRO       N               1.5400000000        0.1290000000       10.2950000000  PROA      5              97.8500000000
        46         5  PRO       CD              0.4550000000       -0.1250000000       11.2030000000  PROA      5              95.9300000000
        47         5  PRO       HD1            -0.2521808221        0.7308197174       11.2006833772  PROA      5               0.0000000000
        48         5  PRO       HD2             0.8469849673       -0.2904154388       12.2284379496  PROA      5               0.0000000000
        49         5  PRO       CA              1.6000000000       -0.7860000000        9.1520000000  PROA      5              97.8600000000
        50         5  PRO       HA              2.4768166672       -1.4102106564        9.2158292356  PROA      5               0.0000000000
        51         5  PRO       CB              0.2710000000       -1.5400000000        9.2340000000  PROA      5              97.6600000000
        52         5  PRO       HB1             0.4124238186       -2.6154151356        8.9940896375  PROA      5               0.0000000000
        53         5  PRO       HB2            -0.4708136954       -1.1092982339        8.5281077827  PROA      5               0.0000000000
        54         5  PRO       CG             -0.1800000000       -1.3670000000       10.6480000000  PROA      5              96.4000000000
        55         5  PRO       HG1            -1.2864673938       -1.2730229017       10.6825123583  PROA      5               0.0000000000
        56         5  PRO       HG2             0.1241318804       -2.2486098036       11.2517887421  PROA      5               0.0000000000
        57         5  PRO       C               1.7310000000       -0.0550000000        7.8180000000  PROA      5              98.1900000000
        58         5  PRO       O               1.2980000000        1.0940000000        7.6940000000  PROA      5              98.1100000000
        59         6  GLY       N               2.5140000000       -0.7860000000        6.9570000000  PROA      6              98.0500000000
        60         6  GLY       HN              2.9838436415       -1.6356153525        7.1789861696  PROA      6               0.0000000000
        61         6  GLY       CA              2.6330000000       -0.2260000000        5.6200000000  PROA      6              97.9700000000
        62         6  GLY       HA1             3.2993430057       -0.8604502460        5.0545357746  PROA      6               0.0000000000
        63         6  GLY       HA2             3.0520284248        0.7649571225        5.7133223798  PROA      6               0.0000000000
        64         6  GLY       C               1.3050000000       -0.1330000000        4.8920000000  PROA      6              98.2500000000
        65         6  GLY       O               0.2940000000       -0.6570000000        5.3650000000  PROA      6              98.0900000000
        66         7  PRO       N               1.3370000000        0.4550000000        3.8720000000  PROA      7              98.2400000000
        67         7  PRO       CD              2.5310000000        1.1010000000        3.2250000000  PROA      7              97.3300000000
        68         7  PRO       HD1             3.3789537256        0.3863363460        3.1784403239  PROA      7               0.0000000000
        69         7  PRO       HD2             2.8305039070        2.0098603511        3.7873235140  PROA      7               0.0000000000
        70         7  PRO       CA              0.1480000000        0.4650000000        3.0170000000  PROA      7              98.2100000000
        71         7  PRO       HA             -0.7255160713        0.7295666497        3.5910149464  PROA      7               0.0000000000
        72         7  PRO       CB              0.5150000000        1.4620000000        1.9140000000  PROA      7              98.0900000000
        73         7  PRO       HB1             0.1467974622        2.4798275513        2.1640532069  PROA      7               0.0000000000
        74         7  PRO       HB2             0.0786695760        1.1515048931        0.9407162854  PROA      7               0.0000000000
        75         7  PRO       CG              2.0080000000        1.4370000000        1.8580000000  PROA      7              97.4100000000
        76         7  PRO       HG1             2.3456618820        0.6724277765        1.1260793026  PROA      7               0.0000000000
        77         7  PRO       HG2             2.3906673693        2.4306737952        1.5410264807  PROA      7               0.0000000000
        78         7  PRO       C              -0.1670000000       -0.9080000000        2.4280000000  PROA      7              98.4500000000
        79         7  PRO       O               0.6980000000       -1.7870000000        2.4050000000  PROA      7              98.4000000000
        80         8  GLY       N              -1.4330000000       -0.9980000000        2.0240000000  PROA      8              97.9700000000
        81         8  GLY       HN             -2.1180704398       -0.2827337217        2.1337058699  PROA      8               0.0000000000
        82         8  GLY       CA             -1.8160000000       -2.2440000000        1.3780000000  PROA      8              97.9000000000
        83         8  GLY       HA1            -2.8927793939       -2.2559297150        1.2961880734  PROA      8               0.0000000000
        84         8  GLY       HA2            -1.4810224302       -3.0572170222        2.0047036581  PROA      8               0.0000000000
        85         8  GLY       C              -1.2150000000       -2.4080000000       -0.0050000000  PROA      8              98.3000000000
        86         8  GLY       O              -0.6590000000       -1.4600000000       -0.5630000000  PROA      8              98.2100000000
        87         9  ASN       N              -1.3310000000       -3.5860000000       -0.5130000000  PROA      9              98.1100000000
        88         9  ASN       HN             -1.7144288854       -4.3482879043        0.0023756631  PROA      9               0.0000000000
        89         9  ASN       CA             -0.9090000000       -3.8840000000       -1.8770000000  PROA      9              98.0600000000
        90         9  ASN       HA              0.0862174160       -3.4877679115       -2.0137724925  PROA      9               0.0000000000
        91         9  ASN       CB             -0.9190000000       -5.3940000000       -2.1250000000  PROA      9              97.6800000000
        92         9  ASN       HB1            -0.7505972079       -5.5835645840       -3.2064237957  PROA      9               0.0000000000
        93         9  ASN       HB2            -1.9102935357       -5.8014137066       -1.8332417858  PROA      9               0.0000000000
        94         9  ASN       CG              0.1520000000       -6.1220000000       -1.3360000000  PROA      9              93.4800000000
        95         9  ASN       OD1             1.1140000000       -5.5120000000       -0.8630000000  PROA      9              91.0700000000
        96         9  ASN       ND2            -0.0080000000       -7.4320000000       -1.1900000000  PROA      9              92.0500000000
        97         9  ASN       HD21            0.6669965278       -7.9642875595       -0.6790698272  PROA      9               0.0000000000
        98         9  ASN       HD22           -0.8034978621       -7.8863171150       -1.5909727053  PROA      9               0.0000000000
        99         9  ASN       C              -1.7860000000       -3.1730000000       -2.9030000000  PROA      9              98.3600000000
       100         9  ASN       O              -2.9490000000       -2.8700000000       -2.6290000000  PROA      9              98.2500000000
       101        10  PRO       N              -1.1400000000       -2.9480000000       -4.0040000000  PROA      10             98.3200000000
       102        10  PRO       CD              0.1150000000       -3.1730000000       -4.3140000000  PROA      10             96.5900000000
       103        10  PRO       HD1             0.3097164299       -4.2662989607       -4.2964365901  PROA      10              0.0000000000
       104        10  PRO       HD2             0.7741782588       -2.6595436246       -3.5823087041  PROA      10              0.0000000000
       105        10  PRO       CA             -1.9920000000       -2.3920000000       -5.0580000000  PROA      10             98.3000000000
       106        10  PRO       HA             -2.4771324681       -1.4927630435       -4.7137258688  PROA      10              0.0000000000
       107        10  PRO       CB             -1.0230000000       -2.1890000000       -6.2250000000  PROA      10             98.1900000000
       108        10  PRO       HB1            -1.0001368951       -1.1232640575       -6.5376625944  PROA      10              0.0000000000
       109        10  PRO       HB2            -1.3184770260       -2.8122820694       -7.0957964790  PROA      10              0.0000000000
       110        10  PRO       CG              0.3080000000       -2.6150000000       -5.6950000000  PROA      10             97.2000000000
       111        10  PRO       HG1             0.7476447261       -3.3907757044       -6.3577058542  PROA      10              0.0000000000
       112        10  PRO       HG2             0.9960148299       -1.7434974912       -5.6574041358  PROA      10              0.0000000000
       113        10  PRO       C              -3.1310000000       -3.3310000000       -5.4520000000  PROA      10             98.5100000000
       114        10  PRO       O              -3.0500000000       -4.5390000000       -5.2150000000  PROA      10             98.4700000000
       115        11  GLY       N              -4.2990000000       -2.7460000000       -5.9100000000  PROA      11             98.0600000000
       116        11  GLY       HN             -4.4219832505       -1.7572228742       -5.9423151993  PROA      11              0.0000000000
       117        11  GLY       CA             -5.4200000000       -3.5500000000       -6.3730000000  PROA      11             98.0100000000
       118        11  GLY       HA1            -6.2261407097       -2.8774247989       -6.6261163286  PROA      11              0.0000000000
       119        11  GLY       HA2            -5.7171503691       -4.1993841616       -5.5628827309  PROA      11              0.0000000000
       120        11  GLY       C              -5.0860000000       -4.3970000000       -7.5860000000  PROA      11             98.3000000000
       121        11  GLY       O              -3.9870000000       -4.2960000000       -8.1370000000  PROA      11             98.2100000000
       122        12  PRO       N              -5.8840000000       -5.2250000000       -8.0190000000  PROA      12             98.2200000000
       123        12  PRO       CD             -7.1960000000       -5.4040000000       -7.3850000000  PROA      12             96.2100000000
       124        12  PRO       HD1            -7.7377160404       -4.4356551455       -7.3486565998  PROA      12              0.0000000000
       125        12  PRO       HD2            -7.0719752016       -5.8081283661       -6.3584684702  PROA      12              0.0000000000
       126        12  PRO       CA             -5.7070000000       -6.0330000000       -9.2270000000  PROA      12             98.2400000000
       127        12  PRO       HA             -4.7204471492       -6.4675302972       -9.2473067496  PROA      12              0.0000000000
       128        12  PRO       CB             -6.8510000000       -7.0470000000       -9.1440000000  PROA      12             98.0900000000
       129        12  PRO       HB1            -6.5038169156       -7.9965264379       -8.6836408607  PROA      12              0.0000000000
       130        12  PRO       HB2            -7.2582742569       -7.2657092147      -10.1541292228  PROA      12              0.0000000000
       131        12  PRO       CG             -7.8830000000       -6.3880000000       -8.2870000000  PROA      12             96.8500000000
       132        12  PRO       HG1            -8.6239576478       -5.8613511043       -8.9256838632  PROA      12              0.0000000000
       133        12  PRO       HG2            -8.4125806481       -7.1520384124       -7.6786546920  PROA      12              0.0000000000
       134        12  PRO       C              -5.8020000000       -5.2080000000      -10.5080000000  PROA      12             98.4900000000
       135        12  PRO       O              -6.3760000000       -4.1160000000      -10.5020000000  PROA      12             98.4600000000
       136        13  GLY       N              -5.1300000000       -5.6340000000      -11.5460000000  PROA      13             98.0600000000
       137        13  GLY       HN             -4.5092192042       -6.4119325784      -11.4899413663  PROA      13              0.0000000000
       138        13  GLY       CA             -5.2430000000       -5.0020000000      -12.8510000000  PROA      13             98.0500000000
       139        13  GLY       HA1            -4.5762629238       -5.5177462999      -13.5260950664  PROA      13              0.0000000000
       140        13  GLY       HA2            -4.9412574379       -3.9704789313      -12.7451622258  PROA      13              0.0000000000
       141        13  GLY       C              -6.6490000000       -5.0480000000      -13.4170000000  PROA      13             98.3600000000
       142        13  GLY       O              -7.4780000000       -5.8440000000      -12.9700000000  PROA      13             98.3200000000
       143        14  ASN       N              -7.0130000000       -4.3330000000      -14.2010000000  PROA      14             98.0100000000
       144        14  ASN       HN             -6.4163098525       -3.5846029685      -14.4673047375  PROA      14              0.0000000000
       145        14  ASN       CA             -8.2760000000       -4.3170000000      -14.9300000000  PROA      14             97.9000000000
       146        14  ASN       HA             -9.0773193177       -4.4261316439      -14.2143576847  PROA      14              0.0000000000
       147        14  ASN       CB             -8.4310000000       -3.0070000000      -15.7070000000  PROA      14             97.3500000000
       148        14  ASN       HB1            -7.7838846446       -3.0434188485      -16.6090434530  PROA      14              0.0000000000
       149        14  ASN       HB2            -8.1085081166       -2.1633299743      -15.0604809518  PROA      14              0.0000000000
       150        14  ASN       CG             -9.8590000000       -2.7560000000      -16.1490000000  PROA      14             91.3300000000
       151        14  ASN       OD1           -10.7960000000       -3.3810000000      -15.6480000000  PROA      14             87.2800000000
       152        14  ASN       ND2           -10.0340000000       -1.8360000000      -17.0910000000  PROA      14             89.4800000000
       153        14  ASN       HD21          -10.9544464308       -1.6280677821      -17.4219721450  PROA      14              0.0000000000
       154        14  ASN       HD22           -9.2453006126       -1.3513191895      -17.4692033689  PROA      14              0.0000000000
       155        14  ASN       C              -8.3940000000       -5.5090000000      -15.8740000000  PROA      14             98.1800000000
       156        14  ASN       O              -7.3900000000       -5.9930000000      -16.4000000000  PROA      14             98.0000000000
       157        15  PRO       N              -9.5960000000       -6.3740000000      -15.6380000000  PROA      15             97.7700000000
       158        15  PRO       CD            -10.6210000000       -6.0210000000      -14.8620000000  PROA      15             95.1900000000
       159        15  PRO       HD1           -11.0487258519       -5.0612955439      -15.2215023751  PROA      15              0.0000000000
       160        15  PRO       HD2           -10.2748721477       -5.9117053020      -13.8124885975  PROA      15              0.0000000000
       161        15  PRO       CA             -9.8130000000       -7.5160000000      -16.5290000000  PROA      15             97.4700000000
       162        15  PRO       HA             -9.0364574763       -8.2516082650      -16.3933658482  PROA      15              0.0000000000
       163        15  PRO       CB            -11.2190000000       -7.9930000000      -16.1540000000  PROA      15             97.1300000000
       164        15  PRO       HB1           -11.2083286414       -9.0667585970      -15.8693979897  PROA      15              0.0000000000
       165        15  PRO       HB2           -11.9221679384       -7.8535635811      -17.0026354001  PROA      15              0.0000000000
       166        15  PRO       CG            -11.6140000000       -7.1400000000      -14.9920000000  PROA      15             95.4200000000
       167        15  PRO       HG1           -12.6312107664       -6.7248260001      -15.1569429961  PROA      15              0.0000000000
       168        15  PRO       HG2           -11.6212233972       -7.7482539623      -14.0623396720  PROA      15              0.0000000000
       169        15  PRO       C              -9.7440000000       -7.1340000000      -18.0060000000  PROA      15             97.5600000000
       170        15  PRO       OT1            -9.5174703785       -5.9287726577      -18.2953291964  PROA      15              0.0000000000
       171        15  PRO       OT2            -9.9170762967       -8.0432973413      -18.8608818285  PROA      15              0.0000000000
