;;
;; Generated by CHARMM-GUI FF-Converter
;;
;; Correspondance:
;; jul316@lehigh.edu or wonpil@lehigh.edu
;;
;; GROMACS topology file for PROA
;;


[ moleculetype ]
; name	nrexcl
PROA	     3

[ atoms ]
; nr	type	resnr	residu	atom	cgnr	charge	mass
     1        NH3      1      GLY      N      1    -0.300000    14.0070   ; qtot -0.300
     2         HC      1      GLY    HT1      2     0.330000     1.0080   ; qtot  0.030
     3         HC      1      GLY    HT2      3     0.330000     1.0080   ; qtot  0.360
     4         HC      1      GLY    HT3      4     0.330000     1.0080   ; qtot  0.690
     5        CT2      1      GLY     CA      5     0.130000    12.0110   ; qtot  0.820
     6        HB2      1      GLY    HA1      6     0.090000     1.0080   ; qtot  0.910
     7        HB2      1      GLY    HA2      7     0.090000     1.0080   ; qtot  1.000
     8          C      1      GLY      C      8     0.510000    12.0110   ; qtot  1.510
     9          O      1      GLY      O      9    -0.510000    15.9994   ; qtot  1.000
    10          N      2      PRO      N     10    -0.290000    14.0070   ; qtot  0.710
    11        CP3      2      PRO     CD     11     0.000000    12.0110   ; qtot  0.710
    12        HA2      2      PRO    HD1     12     0.090000     1.0080   ; qtot  0.800
    13        HA2      2      PRO    HD2     13     0.090000     1.0080   ; qtot  0.890
    14        CP1      2      PRO     CA     14     0.020000    12.0110   ; qtot  0.910
    15        HB1      2      PRO     HA     15     0.090000     1.0080   ; qtot  1.000
    16        CP2      2      PRO     CB     16    -0.180000    12.0110   ; qtot  0.820
    17        HA2      2      PRO    HB1     17     0.090000     1.0080   ; qtot  0.910
    18        HA2      2      PRO    HB2     18     0.090000     1.0080   ; qtot  1.000
    19        CP2      2      PRO     CG     19    -0.180000    12.0110   ; qtot  0.820
    20        HA2      2      PRO    HG1     20     0.090000     1.0080   ; qtot  0.910
    21        HA2      2      PRO    HG2     21     0.090000     1.0080   ; qtot  1.000
    22          C      2      PRO      C     22     0.510000    12.0110   ; qtot  1.510
    23          O      2      PRO      O     23    -0.510000    15.9994   ; qtot  1.000
    24        NH1      3      GLY      N     24    -0.470000    14.0070   ; qtot  0.530
    25          H      3      GLY     HN     25     0.310000     1.0080   ; qtot  0.840
    26        CT2      3      GLY     CA     26    -0.020000    12.0110   ; qtot  0.820
    27        HB2      3      GLY    HA1     27     0.090000     1.0080   ; qtot  0.910
    28        HB2      3      GLY    HA2     28     0.090000     1.0080   ; qtot  1.000
    29          C      3      GLY      C     29     0.510000    12.0110   ; qtot  1.510
    30          O      3      GLY      O     30    -0.510000    15.9994   ; qtot  1.000
    31        NH1      4      ASP      N     31    -0.470000    14.0070   ; qtot  0.530
    32          H      4      ASP     HN     32     0.310000     1.0080   ; qtot  0.840
    33        CT1      4      ASP     CA     33     0.070000    12.0110   ; qtot  0.910
    34        HB1      4      ASP     HA     34     0.090000     1.0080   ; qtot  1.000
    35       CT2A      4      ASP     CB     35    -0.280000    12.0110   ; qtot  0.720
    36        HA2      4      ASP    HB1     36     0.090000     1.0080   ; qtot  0.810
    37        HA2      4      ASP    HB2     37     0.090000     1.0080   ; qtot  0.900
    38         CC      4      ASP     CG     38     0.620000    12.0110   ; qtot  1.520
    39         OC      4      ASP    OD1     39    -0.760000    15.9994   ; qtot  0.760
    40         OC      4      ASP    OD2     40    -0.760000    15.9994   ; qtot -0.000
    41          C      4      ASP      C     41     0.510000    12.0110   ; qtot  0.510
    42          O      4      ASP      O     42    -0.510000    15.9994   ; qtot -0.000
    43          N      5      PRO      N     43    -0.290000    14.0070   ; qtot -0.290
    44        CP3      5      PRO     CD     44     0.000000    12.0110   ; qtot -0.290
    45        HA2      5      PRO    HD1     45     0.090000     1.0080   ; qtot -0.200
    46        HA2      5      PRO    HD2     46     0.090000     1.0080   ; qtot -0.110
    47        CP1      5      PRO     CA     47     0.020000    12.0110   ; qtot -0.090
    48        HB1      5      PRO     HA     48     0.090000     1.0080   ; qtot -0.000
    49        CP2      5      PRO     CB     49    -0.180000    12.0110   ; qtot -0.180
    50        HA2      5      PRO    HB1     50     0.090000     1.0080   ; qtot -0.090
    51        HA2      5      PRO    HB2     51     0.090000     1.0080   ; qtot -0.000
    52        CP2      5      PRO     CG     52    -0.180000    12.0110   ; qtot -0.180
    53        HA2      5      PRO    HG1     53     0.090000     1.0080   ; qtot -0.090
    54        HA2      5      PRO    HG2     54     0.090000     1.0080   ; qtot -0.000
    55          C      5      PRO      C     55     0.510000    12.0110   ; qtot  0.510
    56          O      5      PRO      O     56    -0.510000    15.9994   ; qtot -0.000
    57        NH1      6      GLY      N     57    -0.470000    14.0070   ; qtot -0.470
    58          H      6      GLY     HN     58     0.310000     1.0080   ; qtot -0.160
    59        CT2      6      GLY     CA     59    -0.020000    12.0110   ; qtot -0.180
    60        HB2      6      GLY    HA1     60     0.090000     1.0080   ; qtot -0.090
    61        HB2      6      GLY    HA2     61     0.090000     1.0080   ; qtot -0.000
    62          C      6      GLY      C     62     0.510000    12.0110   ; qtot  0.510
    63          O      6      GLY      O     63    -0.510000    15.9994   ; qtot -0.000
    64        NH1      7      SER      N     64    -0.470000    14.0070   ; qtot -0.470
    65          H      7      SER     HN     65     0.310000     1.0080   ; qtot -0.160
    66        CT1      7      SER     CA     66     0.070000    12.0110   ; qtot -0.090
    67        HB1      7      SER     HA     67     0.090000     1.0080   ; qtot -0.000
    68        CT2      7      SER     CB     68     0.050000    12.0110   ; qtot  0.050
    69        HA2      7      SER    HB1     69     0.090000     1.0080   ; qtot  0.140
    70        HA2      7      SER    HB2     70     0.090000     1.0080   ; qtot  0.230
    71        OH1      7      SER     OG     71    -0.660000    15.9994   ; qtot -0.430
    72          H      7      SER    HG1     72     0.430000     1.0080   ; qtot -0.000
    73          C      7      SER      C     73     0.510000    12.0110   ; qtot  0.510
    74          O      7      SER      O     74    -0.510000    15.9994   ; qtot -0.000
    75        NH1      8      GLY      N     75    -0.470000    14.0070   ; qtot -0.470
    76          H      8      GLY     HN     76     0.310000     1.0080   ; qtot -0.160
    77        CT2      8      GLY     CA     77    -0.020000    12.0110   ; qtot -0.180
    78        HB2      8      GLY    HA1     78     0.090000     1.0080   ; qtot -0.090
    79        HB2      8      GLY    HA2     79     0.090000     1.0080   ; qtot -0.000
    80          C      8      GLY      C     80     0.510000    12.0110   ; qtot  0.510
    81          O      8      GLY      O     81    -0.510000    15.9994   ; qtot -0.000
    82        NH1      9      ASN      N     82    -0.470000    14.0070   ; qtot -0.470
    83          H      9      ASN     HN     83     0.310000     1.0080   ; qtot -0.160
    84        CT1      9      ASN     CA     84     0.070000    12.0110   ; qtot -0.090
    85        HB1      9      ASN     HA     85     0.090000     1.0080   ; qtot -0.000
    86        CT2      9      ASN     CB     86    -0.180000    12.0110   ; qtot -0.180
    87        HA2      9      ASN    HB1     87     0.090000     1.0080   ; qtot -0.090
    88        HA2      9      ASN    HB2     88     0.090000     1.0080   ; qtot -0.000
    89         CC      9      ASN     CG     89     0.550000    12.0110   ; qtot  0.550
    90          O      9      ASN    OD1     90    -0.550000    15.9994   ; qtot -0.000
    91        NH2      9      ASN    ND2     91    -0.620000    14.0070   ; qtot -0.620
    92          H      9      ASN   HD21     92     0.320000     1.0080   ; qtot -0.300
    93          H      9      ASN   HD22     93     0.300000     1.0080   ; qtot -0.000
    94          C      9      ASN      C     94     0.510000    12.0110   ; qtot  0.510
    95          O      9      ASN      O     95    -0.510000    15.9994   ; qtot -0.000
    96          N     10      PRO      N     96    -0.290000    14.0070   ; qtot -0.290
    97        CP3     10      PRO     CD     97     0.000000    12.0110   ; qtot -0.290
    98        HA2     10      PRO    HD1     98     0.090000     1.0080   ; qtot -0.200
    99        HA2     10      PRO    HD2     99     0.090000     1.0080   ; qtot -0.110
   100        CP1     10      PRO     CA    100     0.020000    12.0110   ; qtot -0.090
   101        HB1     10      PRO     HA    101     0.090000     1.0080   ; qtot -0.000
   102        CP2     10      PRO     CB    102    -0.180000    12.0110   ; qtot -0.180
   103        HA2     10      PRO    HB1    103     0.090000     1.0080   ; qtot -0.090
   104        HA2     10      PRO    HB2    104     0.090000     1.0080   ; qtot -0.000
   105        CP2     10      PRO     CG    105    -0.180000    12.0110   ; qtot -0.180
   106        HA2     10      PRO    HG1    106     0.090000     1.0080   ; qtot -0.090
   107        HA2     10      PRO    HG2    107     0.090000     1.0080   ; qtot -0.000
   108          C     10      PRO      C    108     0.510000    12.0110   ; qtot  0.510
   109          O     10      PRO      O    109    -0.510000    15.9994   ; qtot -0.000
   110        NH1     11      GLY      N    110    -0.470000    14.0070   ; qtot -0.470
   111          H     11      GLY     HN    111     0.310000     1.0080   ; qtot -0.160
   112        CT2     11      GLY     CA    112    -0.020000    12.0110   ; qtot -0.180
   113        HB2     11      GLY    HA1    113     0.090000     1.0080   ; qtot -0.090
   114        HB2     11      GLY    HA2    114     0.090000     1.0080   ; qtot -0.000
   115          C     11      GLY      C    115     0.510000    12.0110   ; qtot  0.510
   116          O     11      GLY      O    116    -0.510000    15.9994   ; qtot -0.000
   117        NH1     12      SER      N    117    -0.470000    14.0070   ; qtot -0.470
   118          H     12      SER     HN    118     0.310000     1.0080   ; qtot -0.160
   119        CT1     12      SER     CA    119     0.070000    12.0110   ; qtot -0.090
   120        HB1     12      SER     HA    120     0.090000     1.0080   ; qtot -0.000
   121        CT2     12      SER     CB    121     0.050000    12.0110   ; qtot  0.050
   122        HA2     12      SER    HB1    122     0.090000     1.0080   ; qtot  0.140
   123        HA2     12      SER    HB2    123     0.090000     1.0080   ; qtot  0.230
   124        OH1     12      SER     OG    124    -0.660000    15.9994   ; qtot -0.430
   125          H     12      SER    HG1    125     0.430000     1.0080   ; qtot -0.000
   126          C     12      SER      C    126     0.510000    12.0110   ; qtot  0.510
   127          O     12      SER      O    127    -0.510000    15.9994   ; qtot -0.000
   128        NH1     13      GLY      N    128    -0.470000    14.0070   ; qtot -0.470
   129          H     13      GLY     HN    129     0.310000     1.0080   ; qtot -0.160
   130        CT2     13      GLY     CA    130    -0.020000    12.0110   ; qtot -0.180
   131        HB2     13      GLY    HA1    131     0.090000     1.0080   ; qtot -0.090
   132        HB2     13      GLY    HA2    132     0.090000     1.0080   ; qtot -0.000
   133          C     13      GLY      C    133     0.510000    12.0110   ; qtot  0.510
   134          O     13      GLY      O    134    -0.510000    15.9994   ; qtot -0.000
   135        NH1     14      ASP      N    135    -0.470000    14.0070   ; qtot -0.470
   136          H     14      ASP     HN    136     0.310000     1.0080   ; qtot -0.160
   137        CT1     14      ASP     CA    137     0.070000    12.0110   ; qtot -0.090
   138        HB1     14      ASP     HA    138     0.090000     1.0080   ; qtot -0.000
   139       CT2A     14      ASP     CB    139    -0.280000    12.0110   ; qtot -0.280
   140        HA2     14      ASP    HB1    140     0.090000     1.0080   ; qtot -0.190
   141        HA2     14      ASP    HB2    141     0.090000     1.0080   ; qtot -0.100
   142         CC     14      ASP     CG    142     0.620000    12.0110   ; qtot  0.520
   143         OC     14      ASP    OD1    143    -0.760000    15.9994   ; qtot -0.240
   144         OC     14      ASP    OD2    144    -0.760000    15.9994   ; qtot -1.000
   145          C     14      ASP      C    145     0.510000    12.0110   ; qtot -0.490
   146          O     14      ASP      O    146    -0.510000    15.9994   ; qtot -1.000
   147          N     15      PRO      N    147    -0.290000    14.0070   ; qtot -1.290
   148        CP3     15      PRO     CD    148     0.000000    12.0110   ; qtot -1.290
   149        HA2     15      PRO    HD1    149     0.090000     1.0080   ; qtot -1.200
   150        HA2     15      PRO    HD2    150     0.090000     1.0080   ; qtot -1.110
   151        CP1     15      PRO     CA    151     0.020000    12.0110   ; qtot -1.090
   152        HB1     15      PRO     HA    152     0.090000     1.0080   ; qtot -1.000
   153        CP2     15      PRO     CB    153    -0.180000    12.0110   ; qtot -1.180
   154        HA2     15      PRO    HB1    154     0.090000     1.0080   ; qtot -1.090
   155        HA2     15      PRO    HB2    155     0.090000     1.0080   ; qtot -1.000
   156        CP2     15      PRO     CG    156    -0.180000    12.0110   ; qtot -1.180
   157        HA2     15      PRO    HG1    157     0.090000     1.0080   ; qtot -1.090
   158        HA2     15      PRO    HG2    158     0.090000     1.0080   ; qtot -1.000
   159         CC     15      PRO      C    159     0.340000    12.0110   ; qtot -0.660
   160         OC     15      PRO    OT1    160    -0.670000    15.9994   ; qtot -1.330
   161         OC     15      PRO    OT2    161    -0.670000    15.9994   ; qtot -2.000

[ bonds ]
; ai	aj	funct	b0	Kb
    2     1     1
    3     1     1
    4     1     1
    1     5     1
    5     6     1
    5     7     1
    8     5     1
    9     8     1
    8    10     1
   10    11     1
   10    14     1
   12    11     1
   13    11     1
   19    11     1
   15    14     1
   14    16     1
   22    14     1
   17    16     1
   18    16     1
   16    19     1
   20    19     1
   21    19     1
   23    22     1
   22    24     1
   24    25     1
   24    26     1
   26    27     1
   26    28     1
   29    26     1
   30    29     1
   29    31     1
   31    32     1
   31    33     1
   33    34     1
   35    33     1
   41    33     1
   35    36     1
   35    37     1
   38    35     1
   38    39     1
   40    38     1
   42    41     1
   41    43     1
   43    44     1
   43    47     1
   45    44     1
   46    44     1
   52    44     1
   48    47     1
   47    49     1
   55    47     1
   50    49     1
   51    49     1
   49    52     1
   53    52     1
   54    52     1
   56    55     1
   55    57     1
   57    58     1
   57    59     1
   59    60     1
   59    61     1
   62    59     1
   63    62     1
   62    64     1
   64    65     1
   64    66     1
   66    67     1
   68    66     1
   73    66     1
   68    69     1
   68    70     1
   71    68     1
   71    72     1
   74    73     1
   73    75     1
   75    76     1
   75    77     1
   77    78     1
   77    79     1
   80    77     1
   81    80     1
   80    82     1
   82    83     1
   82    84     1
   84    85     1
   86    84     1
   94    84     1
   86    87     1
   86    88     1
   89    86     1
   89    90     1
   91    89     1
   91    92     1
   91    93     1
   94    95     1
   94    96     1
   96    97     1
   96   100     1
   98    97     1
   99    97     1
  105    97     1
  101   100     1
  100   102     1
  108   100     1
  103   102     1
  104   102     1
  102   105     1
  106   105     1
  107   105     1
  109   108     1
  108   110     1
  110   111     1
  110   112     1
  112   113     1
  112   114     1
  115   112     1
  116   115     1
  115   117     1
  117   118     1
  117   119     1
  119   120     1
  121   119     1
  126   119     1
  121   122     1
  121   123     1
  124   121     1
  124   125     1
  127   126     1
  126   128     1
  128   129     1
  128   130     1
  130   131     1
  130   132     1
  133   130     1
  134   133     1
  133   135     1
  135   136     1
  135   137     1
  137   138     1
  139   137     1
  145   137     1
  139   140     1
  139   141     1
  142   139     1
  142   143     1
  144   142     1
  146   145     1
  145   147     1
  147   148     1
  147   151     1
  149   148     1
  150   148     1
  156   148     1
  152   151     1
  151   153     1
  159   151     1
  154   153     1
  155   153     1
  153   156     1
  157   156     1
  158   156     1
  159   160     1
  159   161     1

[ pairs ]
; ai	aj	funct	c6	c12 or
; ai	aj	funct	fudgeQQ	q1	q2	c6	c12
    1     9     1
    1    10     1
    2     6     1
    2     7     1
    2     8     1
    3     6     1
    3     7     1
    3     8     1
    4     6     1
    4     7     1
    4     8     1
    5    11     1
    5    14     1
    6     9     1
    6    10     1
    7     9     1
    7    10     1
    8    12     1
    8    13     1
    8    15     1
    8    16     1
    8    19     1
    8    22     1
    9    11     1
    9    14     1
   10    17     1
   10    18     1
   10    20     1
   10    21     1
   10    23     1
   10    24     1
   11    15     1
   11    17     1
   11    18     1
   11    22     1
   12    14     1
   12    16     1
   12    20     1
   12    21     1
   13    14     1
   13    16     1
   13    20     1
   13    21     1
   14    20     1
   14    21     1
   14    25     1
   14    26     1
   15    17     1
   15    18     1
   15    19     1
   15    23     1
   15    24     1
   16    23     1
   16    24     1
   17    20     1
   17    21     1
   17    22     1
   18    20     1
   18    21     1
   18    22     1
   19    22     1
   22    27     1
   22    28     1
   22    29     1
   23    25     1
   23    26     1
   24    30     1
   24    31     1
   25    27     1
   25    28     1
   25    29     1
   26    32     1
   26    33     1
   27    30     1
   27    31     1
   28    30     1
   28    31     1
   29    34     1
   29    35     1
   29    41     1
   30    32     1
   30    33     1
   31    36     1
   31    37     1
   31    38     1
   31    42     1
   31    43     1
   32    34     1
   32    35     1
   32    41     1
   33    39     1
   33    40     1
   33    44     1
   33    47     1
   34    36     1
   34    37     1
   34    38     1
   34    42     1
   34    43     1
   35    42     1
   35    43     1
   36    39     1
   36    40     1
   36    41     1
   37    39     1
   37    40     1
   37    41     1
   38    41     1
   41    45     1
   41    46     1
   41    48     1
   41    49     1
   41    52     1
   41    55     1
   42    44     1
   42    47     1
   43    50     1
   43    51     1
   43    53     1
   43    54     1
   43    56     1
   43    57     1
   44    48     1
   44    50     1
   44    51     1
   44    55     1
   45    47     1
   45    49     1
   45    53     1
   45    54     1
   46    47     1
   46    49     1
   46    53     1
   46    54     1
   47    53     1
   47    54     1
   47    58     1
   47    59     1
   48    50     1
   48    51     1
   48    52     1
   48    56     1
   48    57     1
   49    56     1
   49    57     1
   50    53     1
   50    54     1
   50    55     1
   51    53     1
   51    54     1
   51    55     1
   52    55     1
   55    60     1
   55    61     1
   55    62     1
   56    58     1
   56    59     1
   57    63     1
   57    64     1
   58    60     1
   58    61     1
   58    62     1
   59    65     1
   59    66     1
   60    63     1
   60    64     1
   61    63     1
   61    64     1
   62    67     1
   62    68     1
   62    73     1
   63    65     1
   63    66     1
   64    69     1
   64    70     1
   64    71     1
   64    74     1
   64    75     1
   65    67     1
   65    68     1
   65    73     1
   66    72     1
   66    76     1
   66    77     1
   67    69     1
   67    70     1
   67    71     1
   67    74     1
   67    75     1
   68    74     1
   68    75     1
   69    72     1
   69    73     1
   70    72     1
   70    73     1
   71    73     1
   73    78     1
   73    79     1
   73    80     1
   74    76     1
   74    77     1
   75    81     1
   75    82     1
   76    78     1
   76    79     1
   76    80     1
   77    83     1
   77    84     1
   78    81     1
   78    82     1
   79    81     1
   79    82     1
   80    85     1
   80    86     1
   80    94     1
   81    83     1
   81    84     1
   82    87     1
   82    88     1
   82    89     1
   82    95     1
   82    96     1
   83    85     1
   83    86     1
   83    94     1
   84    90     1
   84    91     1
   84    97     1
   84   100     1
   85    87     1
   85    88     1
   85    89     1
   85    95     1
   85    96     1
   86    92     1
   86    93     1
   86    95     1
   86    96     1
   87    90     1
   87    91     1
   87    94     1
   88    90     1
   88    91     1
   88    94     1
   89    94     1
   90    92     1
   90    93     1
   94    98     1
   94    99     1
   94   101     1
   94   102     1
   94   105     1
   94   108     1
   95    97     1
   95   100     1
   96   103     1
   96   104     1
   96   106     1
   96   107     1
   96   109     1
   96   110     1
   97   101     1
   97   103     1
   97   104     1
   97   108     1
   98   100     1
   98   102     1
   98   106     1
   98   107     1
   99   100     1
   99   102     1
   99   106     1
   99   107     1
  100   106     1
  100   107     1
  100   111     1
  100   112     1
  101   103     1
  101   104     1
  101   105     1
  101   109     1
  101   110     1
  102   109     1
  102   110     1
  103   106     1
  103   107     1
  103   108     1
  104   106     1
  104   107     1
  104   108     1
  105   108     1
  108   113     1
  108   114     1
  108   115     1
  109   111     1
  109   112     1
  110   116     1
  110   117     1
  111   113     1
  111   114     1
  111   115     1
  112   118     1
  112   119     1
  113   116     1
  113   117     1
  114   116     1
  114   117     1
  115   120     1
  115   121     1
  115   126     1
  116   118     1
  116   119     1
  117   122     1
  117   123     1
  117   124     1
  117   127     1
  117   128     1
  118   120     1
  118   121     1
  118   126     1
  119   125     1
  119   129     1
  119   130     1
  120   122     1
  120   123     1
  120   124     1
  120   127     1
  120   128     1
  121   127     1
  121   128     1
  122   125     1
  122   126     1
  123   125     1
  123   126     1
  124   126     1
  126   131     1
  126   132     1
  126   133     1
  127   129     1
  127   130     1
  128   134     1
  128   135     1
  129   131     1
  129   132     1
  129   133     1
  130   136     1
  130   137     1
  131   134     1
  131   135     1
  132   134     1
  132   135     1
  133   138     1
  133   139     1
  133   145     1
  134   136     1
  134   137     1
  135   140     1
  135   141     1
  135   142     1
  135   146     1
  135   147     1
  136   138     1
  136   139     1
  136   145     1
  137   143     1
  137   144     1
  137   148     1
  137   151     1
  138   140     1
  138   141     1
  138   142     1
  138   146     1
  138   147     1
  139   146     1
  139   147     1
  140   143     1
  140   144     1
  140   145     1
  141   143     1
  141   144     1
  141   145     1
  142   145     1
  145   149     1
  145   150     1
  145   152     1
  145   153     1
  145   156     1
  145   159     1
  146   148     1
  146   151     1
  147   154     1
  147   155     1
  147   157     1
  147   158     1
  147   160     1
  147   161     1
  148   152     1
  148   154     1
  148   155     1
  148   159     1
  149   151     1
  149   153     1
  149   157     1
  149   158     1
  150   151     1
  150   153     1
  150   157     1
  150   158     1
  151   157     1
  151   158     1
  152   154     1
  152   155     1
  152   156     1
  152   160     1
  152   161     1
  153   160     1
  153   161     1
  154   157     1
  154   158     1
  154   159     1
  155   157     1
  155   158     1
  155   159     1
  156   159     1

[ angles ] 
; ai	aj	ak	funct	th0	cth	S0	Kub
    2     1     3     5
    2     1     4     5
    2     1     5     5
    3     1     4     5
    3     1     5     5
    4     1     5     5
    1     5     6     5
    1     5     7     5
    1     5     8     5
    6     5     7     5
    6     5     8     5
    7     5     8     5
    5     8     9     5
    5     8    10     5
    9     8    10     5
    8    10    11     5
    8    10    14     5
   11    10    14     5
   10    11    12     5
   10    11    13     5
   10    11    19     5
   12    11    13     5
   12    11    19     5
   13    11    19     5
   10    14    15     5
   10    14    16     5
   10    14    22     5
   15    14    16     5
   15    14    22     5
   16    14    22     5
   14    16    17     5
   14    16    18     5
   14    16    19     5
   17    16    18     5
   17    16    19     5
   18    16    19     5
   11    19    16     5
   11    19    20     5
   11    19    21     5
   16    19    20     5
   16    19    21     5
   20    19    21     5
   14    22    23     5
   14    22    24     5
   23    22    24     5
   22    24    25     5
   22    24    26     5
   25    24    26     5
   24    26    27     5
   24    26    28     5
   24    26    29     5
   27    26    28     5
   27    26    29     5
   28    26    29     5
   26    29    30     5
   26    29    31     5
   30    29    31     5
   29    31    32     5
   29    31    33     5
   32    31    33     5
   31    33    34     5
   31    33    35     5
   31    33    41     5
   34    33    35     5
   34    33    41     5
   35    33    41     5
   33    35    36     5
   33    35    37     5
   33    35    38     5
   36    35    37     5
   36    35    38     5
   37    35    38     5
   35    38    39     5
   35    38    40     5
   39    38    40     5
   33    41    42     5
   33    41    43     5
   42    41    43     5
   41    43    44     5
   41    43    47     5
   44    43    47     5
   43    44    45     5
   43    44    46     5
   43    44    52     5
   45    44    46     5
   45    44    52     5
   46    44    52     5
   43    47    48     5
   43    47    49     5
   43    47    55     5
   48    47    49     5
   48    47    55     5
   49    47    55     5
   47    49    50     5
   47    49    51     5
   47    49    52     5
   50    49    51     5
   50    49    52     5
   51    49    52     5
   44    52    49     5
   44    52    53     5
   44    52    54     5
   49    52    53     5
   49    52    54     5
   53    52    54     5
   47    55    56     5
   47    55    57     5
   56    55    57     5
   55    57    58     5
   55    57    59     5
   58    57    59     5
   57    59    60     5
   57    59    61     5
   57    59    62     5
   60    59    61     5
   60    59    62     5
   61    59    62     5
   59    62    63     5
   59    62    64     5
   63    62    64     5
   62    64    65     5
   62    64    66     5
   65    64    66     5
   64    66    67     5
   64    66    68     5
   64    66    73     5
   67    66    68     5
   67    66    73     5
   68    66    73     5
   66    68    69     5
   66    68    70     5
   66    68    71     5
   69    68    70     5
   69    68    71     5
   70    68    71     5
   68    71    72     5
   66    73    74     5
   66    73    75     5
   74    73    75     5
   73    75    76     5
   73    75    77     5
   76    75    77     5
   75    77    78     5
   75    77    79     5
   75    77    80     5
   78    77    79     5
   78    77    80     5
   79    77    80     5
   77    80    81     5
   77    80    82     5
   81    80    82     5
   80    82    83     5
   80    82    84     5
   83    82    84     5
   82    84    85     5
   82    84    86     5
   82    84    94     5
   85    84    86     5
   85    84    94     5
   86    84    94     5
   84    86    87     5
   84    86    88     5
   84    86    89     5
   87    86    88     5
   87    86    89     5
   88    86    89     5
   86    89    90     5
   86    89    91     5
   90    89    91     5
   89    91    92     5
   89    91    93     5
   92    91    93     5
   84    94    95     5
   84    94    96     5
   95    94    96     5
   94    96    97     5
   94    96   100     5
   97    96   100     5
   96    97    98     5
   96    97    99     5
   96    97   105     5
   98    97    99     5
   98    97   105     5
   99    97   105     5
   96   100   101     5
   96   100   102     5
   96   100   108     5
  101   100   102     5
  101   100   108     5
  102   100   108     5
  100   102   103     5
  100   102   104     5
  100   102   105     5
  103   102   104     5
  103   102   105     5
  104   102   105     5
   97   105   102     5
   97   105   106     5
   97   105   107     5
  102   105   106     5
  102   105   107     5
  106   105   107     5
  100   108   109     5
  100   108   110     5
  109   108   110     5
  108   110   111     5
  108   110   112     5
  111   110   112     5
  110   112   113     5
  110   112   114     5
  110   112   115     5
  113   112   114     5
  113   112   115     5
  114   112   115     5
  112   115   116     5
  112   115   117     5
  116   115   117     5
  115   117   118     5
  115   117   119     5
  118   117   119     5
  117   119   120     5
  117   119   121     5
  117   119   126     5
  120   119   121     5
  120   119   126     5
  121   119   126     5
  119   121   122     5
  119   121   123     5
  119   121   124     5
  122   121   123     5
  122   121   124     5
  123   121   124     5
  121   124   125     5
  119   126   127     5
  119   126   128     5
  127   126   128     5
  126   128   129     5
  126   128   130     5
  129   128   130     5
  128   130   131     5
  128   130   132     5
  128   130   133     5
  131   130   132     5
  131   130   133     5
  132   130   133     5
  130   133   134     5
  130   133   135     5
  134   133   135     5
  133   135   136     5
  133   135   137     5
  136   135   137     5
  135   137   138     5
  135   137   139     5
  135   137   145     5
  138   137   139     5
  138   137   145     5
  139   137   145     5
  137   139   140     5
  137   139   141     5
  137   139   142     5
  140   139   141     5
  140   139   142     5
  141   139   142     5
  139   142   143     5
  139   142   144     5
  143   142   144     5
  137   145   146     5
  137   145   147     5
  146   145   147     5
  145   147   148     5
  145   147   151     5
  148   147   151     5
  147   148   149     5
  147   148   150     5
  147   148   156     5
  149   148   150     5
  149   148   156     5
  150   148   156     5
  147   151   152     5
  147   151   153     5
  147   151   159     5
  152   151   153     5
  152   151   159     5
  153   151   159     5
  151   153   154     5
  151   153   155     5
  151   153   156     5
  154   153   155     5
  154   153   156     5
  155   153   156     5
  148   156   153     5
  148   156   157     5
  148   156   158     5
  153   156   157     5
  153   156   158     5
  157   156   158     5
  151   159   160     5
  151   159   161     5
  160   159   161     5

[ dihedrals ]
; ai	aj	ak	al	funct	phi0	cp	mult
    2     1     5     6     9
    2     1     5     7     9
    2     1     5     8     9
    3     1     5     6     9
    3     1     5     7     9
    3     1     5     8     9
    4     1     5     6     9
    4     1     5     7     9
    4     1     5     8     9
    1     5     8     9     9
    1     5     8    10     9
    6     5     8     9     9
    6     5     8    10     9
    7     5     8     9     9
    7     5     8    10     9
    5     8    10    11     9
    5     8    10    14     9
    9     8    10    11     9
    9     8    10    14     9
    8    10    11    12     9
    8    10    11    13     9
    8    10    11    19     9
   14    10    11    19     9
    8    10    14    15     9
    8    10    14    16     9
    8    10    14    22     9
   11    10    14    15     9
   11    10    14    16     9
   11    10    14    22     9
   12    11    10    14     9
   13    11    10    14     9
   10    11    19    16     9
   10    11    19    20     9
   10    11    19    21     9
   12    11    19    16     9
   12    11    19    20     9
   12    11    19    21     9
   13    11    19    16     9
   13    11    19    20     9
   13    11    19    21     9
   10    14    16    17     9
   10    14    16    18     9
   10    14    16    19     9
   15    14    16    17     9
   15    14    16    18     9
   15    14    16    19     9
   10    14    22    23     9
   10    14    22    24     9
   15    14    22    23     9
   15    14    22    24     9
   16    14    22    23     9
   16    14    22    24     9
   17    16    14    22     9
   18    16    14    22     9
   19    16    14    22     9
   14    16    19    20     9
   14    16    19    21     9
   17    16    19    20     9
   17    16    19    21     9
   18    16    19    20     9
   18    16    19    21     9
   11    19    16    14     9
   11    19    16    17     9
   11    19    16    18     9
   14    22    24    25     9
   14    22    24    26     9
   23    22    24    25     9
   23    22    24    26     9
   22    24    26    27     9
   22    24    26    28     9
   22    24    26    29     9
   25    24    26    27     9
   25    24    26    28     9
   25    24    26    29     9
   24    26    29    30     9
   24    26    29    31     9
   27    26    29    30     9
   27    26    29    31     9
   28    26    29    30     9
   28    26    29    31     9
   26    29    31    32     9
   26    29    31    33     9
   30    29    31    32     9
   30    29    31    33     9
   29    31    33    34     9
   29    31    33    35     9
   29    31    33    41     9
   32    31    33    34     9
   32    31    33    35     9
   32    31    33    41     9
   31    33    35    36     9
   31    33    35    37     9
   31    33    35    38     9
   34    33    35    36     9
   34    33    35    37     9
   34    33    35    38     9
   31    33    41    42     9
   31    33    41    43     9
   34    33    41    42     9
   34    33    41    43     9
   35    33    41    42     9
   35    33    41    43     9
   36    35    33    41     9
   37    35    33    41     9
   38    35    33    41     9
   33    35    38    39     9
   33    35    38    40     9
   36    35    38    39     9
   36    35    38    40     9
   37    35    38    39     9
   37    35    38    40     9
   33    41    43    44     9
   33    41    43    47     9
   42    41    43    44     9
   42    41    43    47     9
   41    43    44    45     9
   41    43    44    46     9
   41    43    44    52     9
   47    43    44    52     9
   41    43    47    48     9
   41    43    47    49     9
   41    43    47    55     9
   44    43    47    48     9
   44    43    47    49     9
   44    43    47    55     9
   45    44    43    47     9
   46    44    43    47     9
   43    44    52    49     9
   43    44    52    53     9
   43    44    52    54     9
   45    44    52    49     9
   45    44    52    53     9
   45    44    52    54     9
   46    44    52    49     9
   46    44    52    53     9
   46    44    52    54     9
   43    47    49    50     9
   43    47    49    51     9
   43    47    49    52     9
   48    47    49    50     9
   48    47    49    51     9
   48    47    49    52     9
   43    47    55    56     9
   43    47    55    57     9
   48    47    55    56     9
   48    47    55    57     9
   49    47    55    56     9
   49    47    55    57     9
   50    49    47    55     9
   51    49    47    55     9
   52    49    47    55     9
   47    49    52    53     9
   47    49    52    54     9
   50    49    52    53     9
   50    49    52    54     9
   51    49    52    53     9
   51    49    52    54     9
   44    52    49    47     9
   44    52    49    50     9
   44    52    49    51     9
   47    55    57    58     9
   47    55    57    59     9
   56    55    57    58     9
   56    55    57    59     9
   55    57    59    60     9
   55    57    59    61     9
   55    57    59    62     9
   58    57    59    60     9
   58    57    59    61     9
   58    57    59    62     9
   57    59    62    63     9
   57    59    62    64     9
   60    59    62    63     9
   60    59    62    64     9
   61    59    62    63     9
   61    59    62    64     9
   59    62    64    65     9
   59    62    64    66     9
   63    62    64    65     9
   63    62    64    66     9
   62    64    66    67     9
   62    64    66    68     9
   62    64    66    73     9
   65    64    66    67     9
   65    64    66    68     9
   65    64    66    73     9
   64    66    68    69     9
   64    66    68    70     9
   64    66    68    71     9
   67    66    68    69     9
   67    66    68    70     9
   67    66    68    71     9
   64    66    73    74     9
   64    66    73    75     9
   67    66    73    74     9
   67    66    73    75     9
   68    66    73    74     9
   68    66    73    75     9
   69    68    66    73     9
   70    68    66    73     9
   71    68    66    73     9
   66    68    71    72     9
   69    68    71    72     9
   70    68    71    72     9
   66    73    75    76     9
   66    73    75    77     9
   74    73    75    76     9
   74    73    75    77     9
   73    75    77    78     9
   73    75    77    79     9
   73    75    77    80     9
   76    75    77    78     9
   76    75    77    79     9
   76    75    77    80     9
   75    77    80    81     9
   75    77    80    82     9
   78    77    80    81     9
   78    77    80    82     9
   79    77    80    81     9
   79    77    80    82     9
   77    80    82    83     9
   77    80    82    84     9
   81    80    82    83     9
   81    80    82    84     9
   80    82    84    85     9
   80    82    84    86     9
   80    82    84    94     9
   83    82    84    85     9
   83    82    84    86     9
   83    82    84    94     9
   82    84    86    87     9
   82    84    86    88     9
   82    84    86    89     9
   85    84    86    87     9
   85    84    86    88     9
   85    84    86    89     9
   82    84    94    95     9
   82    84    94    96     9
   85    84    94    95     9
   85    84    94    96     9
   86    84    94    95     9
   86    84    94    96     9
   87    86    84    94     9
   88    86    84    94     9
   89    86    84    94     9
   84    86    89    90     9
   84    86    89    91     9
   87    86    89    90     9
   87    86    89    91     9
   88    86    89    90     9
   88    86    89    91     9
   86    89    91    92     9
   86    89    91    93     9
   90    89    91    92     9
   90    89    91    93     9
   84    94    96    97     9
   84    94    96   100     9
   95    94    96    97     9
   95    94    96   100     9
   94    96    97    98     9
   94    96    97    99     9
   94    96    97   105     9
  100    96    97   105     9
   94    96   100   101     9
   94    96   100   102     9
   94    96   100   108     9
   97    96   100   101     9
   97    96   100   102     9
   97    96   100   108     9
   98    97    96   100     9
   99    97    96   100     9
   96    97   105   102     9
   96    97   105   106     9
   96    97   105   107     9
   98    97   105   102     9
   98    97   105   106     9
   98    97   105   107     9
   99    97   105   102     9
   99    97   105   106     9
   99    97   105   107     9
   96   100   102   103     9
   96   100   102   104     9
   96   100   102   105     9
  101   100   102   103     9
  101   100   102   104     9
  101   100   102   105     9
   96   100   108   109     9
   96   100   108   110     9
  101   100   108   109     9
  101   100   108   110     9
  102   100   108   109     9
  102   100   108   110     9
  103   102   100   108     9
  104   102   100   108     9
  105   102   100   108     9
  100   102   105   106     9
  100   102   105   107     9
  103   102   105   106     9
  103   102   105   107     9
  104   102   105   106     9
  104   102   105   107     9
   97   105   102   100     9
   97   105   102   103     9
   97   105   102   104     9
  100   108   110   111     9
  100   108   110   112     9
  109   108   110   111     9
  109   108   110   112     9
  108   110   112   113     9
  108   110   112   114     9
  108   110   112   115     9
  111   110   112   113     9
  111   110   112   114     9
  111   110   112   115     9
  110   112   115   116     9
  110   112   115   117     9
  113   112   115   116     9
  113   112   115   117     9
  114   112   115   116     9
  114   112   115   117     9
  112   115   117   118     9
  112   115   117   119     9
  116   115   117   118     9
  116   115   117   119     9
  115   117   119   120     9
  115   117   119   121     9
  115   117   119   126     9
  118   117   119   120     9
  118   117   119   121     9
  118   117   119   126     9
  117   119   121   122     9
  117   119   121   123     9
  117   119   121   124     9
  120   119   121   122     9
  120   119   121   123     9
  120   119   121   124     9
  117   119   126   127     9
  117   119   126   128     9
  120   119   126   127     9
  120   119   126   128     9
  121   119   126   127     9
  121   119   126   128     9
  122   121   119   126     9
  123   121   119   126     9
  124   121   119   126     9
  119   121   124   125     9
  122   121   124   125     9
  123   121   124   125     9
  119   126   128   129     9
  119   126   128   130     9
  127   126   128   129     9
  127   126   128   130     9
  126   128   130   131     9
  126   128   130   132     9
  126   128   130   133     9
  129   128   130   131     9
  129   128   130   132     9
  129   128   130   133     9
  128   130   133   134     9
  128   130   133   135     9
  131   130   133   134     9
  131   130   133   135     9
  132   130   133   134     9
  132   130   133   135     9
  130   133   135   136     9
  130   133   135   137     9
  134   133   135   136     9
  134   133   135   137     9
  133   135   137   138     9
  133   135   137   139     9
  133   135   137   145     9
  136   135   137   138     9
  136   135   137   139     9
  136   135   137   145     9
  135   137   139   140     9
  135   137   139   141     9
  135   137   139   142     9
  138   137   139   140     9
  138   137   139   141     9
  138   137   139   142     9
  135   137   145   146     9
  135   137   145   147     9
  138   137   145   146     9
  138   137   145   147     9
  139   137   145   146     9
  139   137   145   147     9
  140   139   137   145     9
  141   139   137   145     9
  142   139   137   145     9
  137   139   142   143     9
  137   139   142   144     9
  140   139   142   143     9
  140   139   142   144     9
  141   139   142   143     9
  141   139   142   144     9
  137   145   147   148     9
  137   145   147   151     9
  146   145   147   148     9
  146   145   147   151     9
  145   147   148   149     9
  145   147   148   150     9
  145   147   148   156     9
  151   147   148   156     9
  145   147   151   152     9
  145   147   151   153     9
  145   147   151   159     9
  148   147   151   152     9
  148   147   151   153     9
  148   147   151   159     9
  149   148   147   151     9
  150   148   147   151     9
  147   148   156   153     9
  147   148   156   157     9
  147   148   156   158     9
  149   148   156   153     9
  149   148   156   157     9
  149   148   156   158     9
  150   148   156   153     9
  150   148   156   157     9
  150   148   156   158     9
  147   151   153   154     9
  147   151   153   155     9
  147   151   153   156     9
  152   151   153   154     9
  152   151   153   155     9
  152   151   153   156     9
  147   151   159   160     9
  147   151   159   161     9
  152   151   159   160     9
  152   151   159   161     9
  153   151   159   160     9
  153   151   159   161     9
  154   153   151   159     9
  155   153   151   159     9
  156   153   151   159     9
  151   153   156   157     9
  151   153   156   158     9
  154   153   156   157     9
  154   153   156   158     9
  155   153   156   157     9
  155   153   156   158     9
  148   156   153   151     9
  148   156   153   154     9
  148   156   153   155     9

[ dihedrals ]
; ai	aj	ak	al	funct	q0	cq
    8     5    10     9     2
   10     8    14    11     2
   22    14    24    23     2
   24    22    26    25     2
   29    26    31    30     2
   31    29    33    32     2
   38    35    40    39     2
   41    33    43    42     2
   43    41    47    44     2
   55    47    57    56     2
   57    55    59    58     2
   62    59    64    63     2
   64    62    66    65     2
   73    66    75    74     2
   75    73    77    76     2
   80    77    82    81     2
   82    80    84    83     2
   89    86    91    90     2
   89    91    86    90     2
   91    89    93    92     2
   91    89    92    93     2
   94    84    96    95     2
   96    94   100    97     2
  108   100   110   109     2
  110   108   112   111     2
  115   112   117   116     2
  117   115   119   118     2
  126   119   128   127     2
  128   126   130   129     2
  133   130   135   134     2
  135   133   137   136     2
  142   139   144   143     2
  145   137   147   146     2
  147   145   151   148     2
  159   151   161   160     2

[ cmap ] 
; ai	aj	ak	al	am	funct
    8    10    14    22    24     1
   22    24    26    29    31     1
   29    31    33    41    43     1
   41    43    47    55    57     1
   55    57    59    62    64     1
   62    64    66    73    75     1
   73    75    77    80    82     1
   80    82    84    94    96     1
   94    96   100   108   110     1
  108   110   112   115   117     1
  115   117   119   126   128     1
  126   128   130   133   135     1
  133   135   137   145   147     1

#ifdef POSRES
[ position_restraints ]
    1     1    POSRES_FC_BB    POSRES_FC_BB    POSRES_FC_BB   
    5     1    POSRES_FC_BB    POSRES_FC_BB    POSRES_FC_BB   
    8     1    POSRES_FC_BB    POSRES_FC_BB    POSRES_FC_BB   
    9     1    POSRES_FC_BB    POSRES_FC_BB    POSRES_FC_BB   
   10     1    POSRES_FC_BB    POSRES_FC_BB    POSRES_FC_BB   
   11     1    POSRES_FC_SC    POSRES_FC_SC    POSRES_FC_SC   
   14     1    POSRES_FC_BB    POSRES_FC_BB    POSRES_FC_BB   
   16     1    POSRES_FC_SC    POSRES_FC_SC    POSRES_FC_SC   
   19     1    POSRES_FC_SC    POSRES_FC_SC    POSRES_FC_SC   
   22     1    POSRES_FC_BB    POSRES_FC_BB    POSRES_FC_BB   
   23     1    POSRES_FC_BB    POSRES_FC_BB    POSRES_FC_BB   
   24     1    POSRES_FC_BB    POSRES_FC_BB    POSRES_FC_BB   
   26     1    POSRES_FC_BB    POSRES_FC_BB    POSRES_FC_BB   
   29     1    POSRES_FC_BB    POSRES_FC_BB    POSRES_FC_BB   
   30     1    POSRES_FC_BB    POSRES_FC_BB    POSRES_FC_BB   
   31     1    POSRES_FC_BB    POSRES_FC_BB    POSRES_FC_BB   
   33     1    POSRES_FC_BB    POSRES_FC_BB    POSRES_FC_BB   
   35     1    POSRES_FC_SC    POSRES_FC_SC    POSRES_FC_SC   
   38     1    POSRES_FC_SC    POSRES_FC_SC    POSRES_FC_SC   
   39     1    POSRES_FC_SC    POSRES_FC_SC    POSRES_FC_SC   
   40     1    POSRES_FC_SC    POSRES_FC_SC    POSRES_FC_SC   
   41     1    POSRES_FC_BB    POSRES_FC_BB    POSRES_FC_BB   
   42     1    POSRES_FC_BB    POSRES_FC_BB    POSRES_FC_BB   
   43     1    POSRES_FC_BB    POSRES_FC_BB    POSRES_FC_BB   
   44     1    POSRES_FC_SC    POSRES_FC_SC    POSRES_FC_SC   
   47     1    POSRES_FC_BB    POSRES_FC_BB    POSRES_FC_BB   
   49     1    POSRES_FC_SC    POSRES_FC_SC    POSRES_FC_SC   
   52     1    POSRES_FC_SC    POSRES_FC_SC    POSRES_FC_SC   
   55     1    POSRES_FC_BB    POSRES_FC_BB    POSRES_FC_BB   
   56     1    POSRES_FC_BB    POSRES_FC_BB    POSRES_FC_BB   
   57     1    POSRES_FC_BB    POSRES_FC_BB    POSRES_FC_BB   
   59     1    POSRES_FC_BB    POSRES_FC_BB    POSRES_FC_BB   
   62     1    POSRES_FC_BB    POSRES_FC_BB    POSRES_FC_BB   
   63     1    POSRES_FC_BB    POSRES_FC_BB    POSRES_FC_BB   
   64     1    POSRES_FC_BB    POSRES_FC_BB    POSRES_FC_BB   
   66     1    POSRES_FC_BB    POSRES_FC_BB    POSRES_FC_BB   
   68     1    POSRES_FC_SC    POSRES_FC_SC    POSRES_FC_SC   
   71     1    POSRES_FC_SC    POSRES_FC_SC    POSRES_FC_SC   
   73     1    POSRES_FC_BB    POSRES_FC_BB    POSRES_FC_BB   
   74     1    POSRES_FC_BB    POSRES_FC_BB    POSRES_FC_BB   
   75     1    POSRES_FC_BB    POSRES_FC_BB    POSRES_FC_BB   
   77     1    POSRES_FC_BB    POSRES_FC_BB    POSRES_FC_BB   
   80     1    POSRES_FC_BB    POSRES_FC_BB    POSRES_FC_BB   
   81     1    POSRES_FC_BB    POSRES_FC_BB    POSRES_FC_BB   
   82     1    POSRES_FC_BB    POSRES_FC_BB    POSRES_FC_BB   
   84     1    POSRES_FC_BB    POSRES_FC_BB    POSRES_FC_BB   
   86     1    POSRES_FC_SC    POSRES_FC_SC    POSRES_FC_SC   
   89     1    POSRES_FC_SC    POSRES_FC_SC    POSRES_FC_SC   
   90     1    POSRES_FC_SC    POSRES_FC_SC    POSRES_FC_SC   
   91     1    POSRES_FC_SC    POSRES_FC_SC    POSRES_FC_SC   
   94     1    POSRES_FC_BB    POSRES_FC_BB    POSRES_FC_BB   
   95     1    POSRES_FC_BB    POSRES_FC_BB    POSRES_FC_BB   
   96     1    POSRES_FC_BB    POSRES_FC_BB    POSRES_FC_BB   
   97     1    POSRES_FC_SC    POSRES_FC_SC    POSRES_FC_SC   
  100     1    POSRES_FC_BB    POSRES_FC_BB    POSRES_FC_BB   
  102     1    POSRES_FC_SC    POSRES_FC_SC    POSRES_FC_SC   
  105     1    POSRES_FC_SC    POSRES_FC_SC    POSRES_FC_SC   
  108     1    POSRES_FC_BB    POSRES_FC_BB    POSRES_FC_BB   
  109     1    POSRES_FC_BB    POSRES_FC_BB    POSRES_FC_BB   
  110     1    POSRES_FC_BB    POSRES_FC_BB    POSRES_FC_BB   
  112     1    POSRES_FC_BB    POSRES_FC_BB    POSRES_FC_BB   
  115     1    POSRES_FC_BB    POSRES_FC_BB    POSRES_FC_BB   
  116     1    POSRES_FC_BB    POSRES_FC_BB    POSRES_FC_BB   
  117     1    POSRES_FC_BB    POSRES_FC_BB    POSRES_FC_BB   
  119     1    POSRES_FC_BB    POSRES_FC_BB    POSRES_FC_BB   
  121     1    POSRES_FC_SC    POSRES_FC_SC    POSRES_FC_SC   
  124     1    POSRES_FC_SC    POSRES_FC_SC    POSRES_FC_SC   
  126     1    POSRES_FC_BB    POSRES_FC_BB    POSRES_FC_BB   
  127     1    POSRES_FC_BB    POSRES_FC_BB    POSRES_FC_BB   
  128     1    POSRES_FC_BB    POSRES_FC_BB    POSRES_FC_BB   
  130     1    POSRES_FC_BB    POSRES_FC_BB    POSRES_FC_BB   
  133     1    POSRES_FC_BB    POSRES_FC_BB    POSRES_FC_BB   
  134     1    POSRES_FC_BB    POSRES_FC_BB    POSRES_FC_BB   
  135     1    POSRES_FC_BB    POSRES_FC_BB    POSRES_FC_BB   
  137     1    POSRES_FC_BB    POSRES_FC_BB    POSRES_FC_BB   
  139     1    POSRES_FC_SC    POSRES_FC_SC    POSRES_FC_SC   
  142     1    POSRES_FC_SC    POSRES_FC_SC    POSRES_FC_SC   
  143     1    POSRES_FC_SC    POSRES_FC_SC    POSRES_FC_SC   
  144     1    POSRES_FC_SC    POSRES_FC_SC    POSRES_FC_SC   
  145     1    POSRES_FC_BB    POSRES_FC_BB    POSRES_FC_BB   
  146     1    POSRES_FC_BB    POSRES_FC_BB    POSRES_FC_BB   
  147     1    POSRES_FC_BB    POSRES_FC_BB    POSRES_FC_BB   
  148     1    POSRES_FC_SC    POSRES_FC_SC    POSRES_FC_SC   
  151     1    POSRES_FC_BB    POSRES_FC_BB    POSRES_FC_BB   
  153     1    POSRES_FC_SC    POSRES_FC_SC    POSRES_FC_SC   
  156     1    POSRES_FC_SC    POSRES_FC_SC    POSRES_FC_SC   
  159     1    POSRES_FC_BB    POSRES_FC_BB    POSRES_FC_BB   
  160     1    POSRES_FC_SC    POSRES_FC_SC    POSRES_FC_SC   
  161     1    POSRES_FC_SC    POSRES_FC_SC    POSRES_FC_SC   
#endif
