Title
19942
    1ASP      N    1   5.901   5.663   3.641 -0.1589 -0.2544 -0.4378
    1ASP    HT1    2   5.922   5.753   3.688  0.6923  0.4561 -2.1174
    1ASP    HT2    3   5.804   5.660   3.604  0.5697 -2.3088 -2.4407
    1ASP    HT3    4   5.966   5.656   3.560  0.0130  1.1338 -0.4414
    1ASP     CA    5   5.905   5.557   3.742 -0.4090  0.5118  0.6300
    1ASP     HA    6   6.010   5.540   3.758 -0.5891  1.2011  2.7687
    1ASP     CB    7   5.844   5.597   3.876 -0.3555  0.5186  0.8998
    1ASP    HB1    8   5.735   5.618   3.870 -0.4260 -0.1752 -0.5037
    1ASP    HB2    9   5.896   5.689   3.911  1.4402  0.2811 -0.9953
    1ASP     CG   10   5.870   5.501   3.986  0.1036 -0.5386  0.5037
    1ASP    OD1   11   5.986   5.460   3.996 -0.7007 -0.7111 -0.5825
    1ASP    OD2   12   5.773   5.463   4.060  0.3537 -0.4906  0.1446
    1ASP      C   13   5.850   5.424   3.683 -0.4201  0.2977 -0.0358
    1ASP      O   14   5.862   5.403   3.563  0.0242  0.1265  0.2231
    2ALA      N   15   5.788   5.331   3.761 -0.1614  0.0303  0.0892
    2ALA     HN   16   5.786   5.344   3.860 -1.6598  2.0403 -0.1388
    2ALA     CA   17   5.737   5.207   3.722  0.1960  0.1212  0.7963
    2ALA     HA   18   5.808   5.178   3.646  0.8526  2.4936  0.4196
    2ALA     CB   19   5.734   5.113   3.843  0.3414  0.6955 -0.1540
    2ALA    HB1   20   5.671   5.156   3.924  2.8171  0.3620  2.0742
    2ALA    HB2   21   5.834   5.122   3.890 -0.0422  4.3215  0.2826
    2ALA    HB3   22   5.717   5.004   3.829  0.1098  0.6453  0.4663
    2ALA      C   23   5.604   5.206   3.656  0.1701  0.5511  0.9706
    2ALA      O   24   5.528   5.306   3.657  0.2844  0.1784 -0.5900
    3ASP      N   25   5.561   5.092   3.592  0.2711  0.2034 -0.0911
    3ASP     HN   26   5.627   5.018   3.582 -0.1017  0.1138 -2.5882
    3ASP     CA   27   5.423   5.076   3.542 -0.2843 -0.5189 -0.1745
    3ASP     HA   28   5.400   5.164   3.484  2.7718  0.5289  0.0133
    3ASP     CB   29   5.412   4.946   3.455  0.0332 -0.4007  0.5726
    3ASP    HB1   30   5.309   4.948   3.412 -0.5958 -2.2164  1.9155
    3ASP    HB2   31   5.430   4.852   3.511  1.3818 -0.9821 -0.7798
    3ASP     CG   32   5.508   4.938   3.342 -0.2880 -0.1325  0.6694
    3ASP    OD1   33   5.572   5.031   3.293  0.0605 -0.9373 -0.2160
    3ASP    OD2   34   5.520   4.827   3.281 -0.7157 -0.3466 -0.3090
    3ASP      C   35   5.326   5.069   3.659 -0.0323 -0.1660 -0.3874
    3ASP      O   36   5.345   4.991   3.752  0.0556  0.2905  0.2904
    4GLY      N   37   5.218   5.150   3.654  0.1818 -0.3677 -0.5197
    4GLY     HN   38   5.218   5.223   3.585 -1.0136 -0.6061 -0.7897
    4GLY     CA   39   5.115   5.153   3.763  0.2644 -0.2252  0.4529
    4GLY    HA1   40   5.068   5.249   3.745 -1.1689 -0.4497  2.6727
    4GLY    HA2   41   5.148   5.137   3.864 -3.1127  1.9848  2.0808
    4GLY      C   42   5.005   5.053   3.745 -0.1976 -0.3282  0.6003
    4GLY      O   43   5.022   4.948   3.678 -0.3489  0.3658 -0.0960
    5PRO      N   44   4.890   5.080   3.801  0.1629 -0.1917 -0.1353
    5PRO     CD   45   4.856   5.212   3.866  0.4339 -0.2013 -0.0938
    5PRO    HD1   46   4.826   5.291   3.794  0.1349 -0.2424 -0.0166
    5PRO    HD2   47   4.931   5.254   3.937  0.8193 -2.2124  0.7568
    5PRO     CA   48   4.776   4.992   3.812  0.4043 -0.2101  0.3803
    5PRO     HA   49   4.804   4.924   3.891  1.3225  0.9786  1.1013
    5PRO     CB   50   4.660   5.076   3.872  0.0587  0.1116 -0.0055
    5PRO    HB1   51   4.596   5.027   3.948 -0.3576  3.3683  1.9300
    5PRO    HB2   52   4.609   5.121   3.784  0.3428 -0.4316 -0.4535
    5PRO     CG   53   4.740   5.180   3.956 -0.5811 -0.3679 -0.6069
    5PRO    HG1   54   4.686   5.270   3.991 -0.8428 -1.0126  0.7168
    5PRO    HG2   55   4.776   5.129   4.049  0.7475 -0.7595 -1.3147
    5PRO      C   56   4.735   4.901   3.700 -0.0365 -0.4526  0.7583
    5PRO      O   57   4.746   4.947   3.585 -0.2722  0.5465  0.6725
    6GLY      N   58   4.681   4.779   3.740 -0.2050 -0.1003 -0.1415
    6GLY     HN   59   4.684   4.750   3.835 -0.2198  1.0003  0.2021
    6GLY     CA   60   4.620   4.684   3.649  0.4075  0.0282 -0.3906
    6GLY    HA1   61   4.565   4.619   3.715  0.2735  1.3160  0.8049
    6GLY    HA2   62   4.695   4.629   3.594  0.4631 -0.6330  0.3359
    6GLY      C   63   4.513   4.743   3.555 -0.4645  0.1606  0.4942
    6GLY      O   64   4.466   4.852   3.578 -0.1617  0.1985 -0.4003
    7ASP      N   65   4.478   4.674   3.444 -0.1258  0.6741 -0.2745
    7ASP     HN   66   4.533   4.595   3.420 -0.1626 -0.0596  1.8184
    7ASP     CA   67   4.377   4.718   3.359  0.0247  0.6501  0.7339
    7ASP     HA   68   4.411   4.816   3.329  3.1205 -0.1706  1.2214
    7ASP     CB   69   4.375   4.620   3.231 -0.3610 -0.5952 -0.4722
    7ASP    HB1   70   4.289   4.650   3.167  1.2978  1.9153 -1.7076
    7ASP    HB2   71   4.374   4.513   3.259  2.6344 -0.4586  0.5536
    7ASP     CG   72   4.501   4.646   3.140 -0.5810 -0.4079 -0.2569
    7ASP    OD1   73   4.549   4.761   3.134  0.3905  0.6412 -0.2501
    7ASP    OD2   74   4.531   4.555   3.061 -0.0513 -0.0014 -0.4488
    7ASP      C   75   4.240   4.722   3.425 -0.1227 -0.2453 -0.4338
    7ASP      O   76   4.209   4.621   3.493 -0.2150 -0.2014 -0.8867
    8PRO      N   77   4.158   4.820   3.416 -0.4176  0.5381  0.9451
    8PRO     CD   78   4.180   4.935   3.331 -0.0063  0.2496 -0.6050
    8PRO    HD1   79   4.192   4.905   3.224 -0.4181 -1.2433 -0.2459
    8PRO    HD2   80   4.265   4.994   3.371 -0.9024 -0.0892  1.9413
    8PRO     CA   81   4.031   4.819   3.485 -0.0880  0.1278 -0.2141
    8PRO     HA   82   4.042   4.791   3.589 -1.3017 -0.9585 -0.3476
    8PRO     CB   83   3.990   4.968   3.471  0.4412 -0.0720  0.5185
    8PRO    HB1   84   4.029   5.012   3.565  2.3203 -0.9586  0.1865
    8PRO    HB2   85   3.880   4.985   3.470  0.2150 -1.4191  0.3821
    8PRO     CG   86   4.055   5.020   3.351 -0.1546  0.3112 -0.4106
    8PRO    HG1   87   3.987   5.015   3.263 -0.9548 -2.8756  0.2624
    8PRO    HG2   88   4.078   5.127   3.370  0.5702 -0.2095  1.9609
    8PRO      C   89   3.921   4.720   3.433 -0.2480  0.0994  0.2624
    8PRO      O   90   3.855   4.661   3.517  0.2401  0.4198 -0.5261
    9ASP      N   91   3.908   4.706   3.300  0.6376  0.4331  0.0974
    9ASP     HN   92   3.971   4.748   3.236 -0.0171  0.5085 -0.5184
    9ASP     CA   93   3.791   4.637   3.241  1.0285 -0.5305  0.3995
    9ASP     HA   94   3.711   4.648   3.313  0.8123  2.1423 -0.1596
    9ASP     CB   95   3.751   4.715   3.115  0.0303 -0.0398  0.0694
    9ASP    HB1   96   3.682   4.650   3.057  0.7374  0.0227 -0.8566
    9ASP    HB2   97   3.844   4.737   3.060 -0.9431 -0.1016 -1.6699
    9ASP     CG   98   3.686   4.848   3.140 -0.6413 -0.1083 -0.3269
    9ASP    OD1   99   3.681   4.908   3.252 -0.7835  0.0234  0.5260
    9ASP    OD2  100   3.632   4.909   3.045 -0.1262 -0.0017  0.4018
    9ASP      C  101   3.820   4.492   3.198 -0.0073  0.5881 -0.0447
    9ASP      O  102   3.728   4.422   3.155 -0.4196 -0.7047 -0.7418
   10ALA      N  103   3.944   4.445   3.220 -0.8792  0.5252  0.1227
   10ALA     HN  104   4.021   4.503   3.241  0.1864 -0.1755 -1.6052
   10ALA     CA  105   3.988   4.310   3.195 -0.0837 -0.1058 -0.0757
   10ALA     HA  106   3.958   4.291   3.092  0.7926  3.3020 -1.1069
   10ALA     CB  107   4.144   4.307   3.208  0.5466  0.2040  0.4799
   10ALA    HB1  108   4.180   4.213   3.160  0.6344  0.6442 -0.3214
   10ALA    HB2  109   4.165   4.329   3.315  0.2572 -0.1306  0.6087
   10ALA    HB3  110   4.189   4.394   3.156 -0.6459  1.1712  1.0078
   10ALA      C  111   3.920   4.196   3.278  0.1641  0.0697 -0.1480
   10ALA      O  112   3.882   4.210   3.396  0.0476  0.2663 -0.5725
   11GLY      N  113   3.891   4.079   3.221 -0.0565  0.7395 -0.3511
   11GLY     HN  114   3.917   4.063   3.126  0.9994 -0.0004  0.0443
   11GLY     CA  115   3.842   3.968   3.298 -0.4892  0.3144  0.1915
   11GLY    HA1  116   3.734   3.970   3.302 -0.5505 -0.7905 -0.3724
   11GLY    HA2  117   3.873   3.970   3.402 -1.8087  1.1891  0.5938
   11GLY      C  118   3.873   3.830   3.235  1.1331  0.0053  0.1697
   11GLY    OT1  119   3.783   3.756   3.186  0.0676  0.1340 -0.4759
   11GLY    OT2  120   3.996   3.799   3.222  0.4383  0.0382 -0.0594
   12LIT    LIT  121   6.126   5.573   4.036  0.4472 -0.2516 -0.0655
   13LIT    LIT  122   2.249   4.803   2.020 -0.9397  1.1028  0.1328
   14LIT    LIT  123   1.074   2.882   3.974 -0.6793  0.5962 -1.0995
   15LIT    LIT  124   4.482   5.719   4.443  0.1795 -0.8368 -0.8479
   16LIT    LIT  125   2.986   4.636   2.982 -0.3584  0.3266  0.2487
   17LIT    LIT  126   1.622   1.157   3.328  0.4334  0.0864  0.3830
   18LIT    LIT  127   1.732   0.039   1.725 -0.2697 -0.0158 -0.1118
   19LIT    LIT  128   2.513   4.872   4.409  0.4862  0.4324  0.1456
   20LIT    LIT  129   0.319   2.092   3.866 -0.7749 -0.1864 -0.1732
   21LIT    LIT  130   0.771   3.799   0.832  0.1512 -0.1621  0.5602
   22LIT    LIT  131   2.092   5.388   4.521 -0.2536  0.6999  0.2244
   23LIT    LIT  132   5.534   1.851   1.386 -0.0593 -0.1114 -0.5216
   24LIT    LIT  133   4.650   5.249   3.474  0.1860  0.5860 -0.4479
   25LIT    LIT  134   6.244   0.474   1.863  0.1736  1.0456  0.5696
   26LIT    LIT  135   3.846   2.960   1.167  0.8362 -0.0899  0.3455
   27LIT    LIT  136   0.634   0.910   4.813 -0.9590 -0.8932 -0.0461
   28LIT    LIT  137   3.991   5.181   2.535 -0.2578 -0.0592 -0.3349
   29LIT    LIT  138   4.688   2.422   5.157 -0.9988 -0.4256  0.7100
   30LIT    LIT  139   5.168   4.608   3.197  1.5617  0.4161 -0.2567
   31LIT    LIT  140   3.646   5.071   3.169 -0.3072 -0.6054  0.8181
   32LIT    LIT  141   3.326   0.843   1.443 -0.0688  0.6280  0.1601
   33LIT    LIT  142   5.605   4.905   3.135 -0.5687  0.6020 -0.4712
   34CLA    CLA  143   3.044   5.779   0.366 -0.4273  0.4519 -0.0372
   35CLA    CLA  144   2.210   0.527   0.894  0.3126 -0.0806  0.1550
   36CLA    CLA  145   1.067   5.929   5.061 -0.1356  0.3429  0.1686
   37CLA    CLA  146   0.061   3.655   0.592  0.2424  0.0662  0.3722
   38CLA    CLA  147   4.004   5.501   4.864 -0.1908 -0.3143 -0.2374
   39CLA    CLA  148   5.457   5.971   4.645  0.1355  0.1983  0.2484
   40CLA    CLA  149   3.410   3.056   0.215  0.0472  0.0062  0.1081
   41CLA    CLA  150   4.189   2.595   3.391  0.1067 -0.1583  0.1529
   42CLA    CLA  151   5.819   2.809   2.764 -0.0524 -0.0613 -0.0503
   43CLA    CLA  152   6.086   4.930   1.655  0.1774 -0.3458 -0.0857
   44CLA    CLA  153   1.632   2.992   0.134 -0.2879 -0.1538  0.0858
   45CLA    CLA  154   5.339   5.360   2.491  0.3770  0.1281 -0.2911
   46CLA    CLA  155   1.594   2.001   2.121 -0.4611  0.0881  0.1146
   47CLA    CLA  156   2.180   3.535   0.492  0.1128 -0.3628 -0.3697
   48CLA    CLA  157   1.157   0.669   3.706  0.0357  0.0469  0.1956
   49CLA    CLA  158   1.012   0.026   3.330  0.1131 -0.3123 -0.3523
   50CLA    CLA  159   3.928   5.467   4.027 -0.0641  0.3817  0.2331
   51CLA    CLA  160   3.359   5.080   4.692  0.3560  0.2231 -0.1072
   52TIP3   OH2  161   3.634   2.216   4.120 -0.4261 -0.4150 -0.2117
   52TIP3    H1  162   3.694   2.170   4.179  0.7458  0.1407 -0.9189
   52TIP3    H2  163   3.682   2.221   4.038 -0.2209  2.5778 -0.0039
   53TIP3   OH2  164   2.596   1.316   0.729  0.3997 -0.3489 -0.2244
   53TIP3    H1  165   2.592   1.289   0.637 -1.2054 -0.1326 -0.2458
   53TIP3    H2  166   2.654   1.392   0.729 -0.8199  0.6256 -1.3383
   54TIP3   OH2  167   1.731   3.834   0.648 -0.1356  0.0124 -0.0497
   54TIP3    H1  168   1.762   3.925   0.643 -1.0201  0.3269 -0.1064
   54TIP3    H2  169   1.783   3.787   0.583  1.1113  0.2390  0.7675
   55TIP3   OH2  170   3.402   1.235   0.538 -0.4542  0.0720 -0.1412
   55TIP3    H1  171   3.386   1.308   0.597  1.0441  3.3238 -3.3742
   55TIP3    H2  172   3.316   1.214   0.502 -0.7026  1.6527 -0.5547
   56TIP3   OH2  173   0.585   5.556   4.167 -0.1005  0.2086  0.4067
   56TIP3    H1  174   0.665   5.550   4.115 -0.8820  2.0078 -1.1308
   56TIP3    H2  175   0.524   5.496   4.125 -0.0917  0.1321  0.5046
   57TIP3   OH2  176   6.302   4.333   1.448 -0.5846 -0.1481 -0.6093
   57TIP3    H1  177   6.284   4.412   1.498  0.6406  0.8515 -1.6579
   57TIP3    H2  178   6.257   4.346   1.364  0.1098 -0.2756 -1.0135
   58TIP3   OH2  179   2.951   2.028   2.000  0.3932 -0.0423  0.1234
   58TIP3    H1  180   2.924   2.043   1.909 -0.4077  0.9917  0.5108
   58TIP3    H2  181   3.040   2.064   2.005  0.8829 -1.1111 -0.5113
   59TIP3   OH2  182   3.347   5.456   2.624  0.7876  0.7866  0.0626
   59TIP3    H1  183   3.402   5.532   2.607 -1.6513  3.3081  2.4216
   59TIP3    H2  184   3.395   5.406   2.690  2.5130  0.0572 -1.6620
   60TIP3   OH2  185   1.762   5.469   2.352  0.3078 -0.3770  0.1271
   60TIP3    H1  186   1.783   5.523   2.428  0.0992  0.6765 -0.5403
   60TIP3    H2  187   1.666   5.467   2.350  0.3102 -1.1080  0.3647
   61TIP3   OH2  188   3.785   0.420   2.841 -0.0538 -0.1604  0.5219
   61TIP3    H1  189   3.837   0.496   2.812  0.4571 -1.3042 -1.7661
   61TIP3    H2  190   3.839   0.379   2.908  1.4075 -0.4972 -0.7887
   62TIP3   OH2  191   4.020   5.940   3.643  0.3465 -0.5888  0.2522
   62TIP3    H1  192   4.081   5.900   3.582  0.8118 -1.5984  1.3451
   62TIP3    H2  193   3.982   5.867   3.692 -1.1979  0.0727  0.1158
   63TIP3   OH2  194   5.228   0.218   3.181 -0.0565 -0.3439  0.5953
   63TIP3    H1  195   5.319   0.212   3.210  0.4393 -0.4835 -0.9477
   63TIP3    H2  196   5.219   0.307   3.147 -0.4979 -0.3353  0.7241
   64TIP3   OH2  197   5.676   4.627   4.631  0.2081  0.0769 -0.2322
   64TIP3    H1  198   5.770   4.619   4.645  0.2802  0.4863 -0.4475
   64TIP3    H2  199   5.638   4.630   4.719  0.2856 -1.1955 -0.1416
   65TIP3   OH2  200   3.793   2.874   0.454 -0.2635 -0.2135  0.0894
   65TIP3    H1  201   3.698   2.878   0.465 -0.3613 -2.5178  0.4145
   65TIP3    H2  202   3.819   2.789   0.490  2.0824  0.7993  1.0714
   66TIP3   OH2  203   3.290   4.515   3.953 -0.1648 -0.1577  0.3274
   66TIP3    H1  204   3.367   4.464   3.981 -1.1665 -0.4165  2.9436
   66TIP3    H2  205   3.266   4.566   4.031 -2.4994  0.1194 -0.4961
   67TIP3   OH2  206   4.881   1.812   2.523 -0.1975 -0.3465 -0.1064
   67TIP3    H1  207   4.840   1.884   2.572  1.4275  1.1500 -0.8637
   67TIP3    H2  208   4.975   1.829   2.529  0.0957 -0.2468 -3.4658
   68TIP3   OH2  209   6.108   3.319   3.280 -0.2629  0.4823 -0.0591
   68TIP3    H1  210   6.139   3.365   3.358 -0.6093 -0.5648  0.7171
   68TIP3    H2  211   6.163   3.351   3.209  0.3735  1.0981  0.7006
   69TIP3   OH2  212   1.281   4.490   1.849 -0.3261 -0.3149 -0.1315
   69TIP3    H1  213   1.283   4.483   1.944 -1.0390  0.1710 -0.0747
   69TIP3    H2  214   1.358   4.543   1.827  0.4385 -1.3119  0.0749
   70TIP3   OH2  215   1.730   5.483   0.098  0.1228  0.0366  0.5293
   70TIP3    H1  216   1.816   5.522   0.089 -0.6830  1.4412 -1.8535
   70TIP3    H2  217   1.699   5.512   0.184  1.4375  0.6791  0.8095
   71TIP3   OH2  218   4.113   4.450   2.696  0.2265  0.1387 -0.5618
   71TIP3    H1  219   4.047   4.438   2.764  0.0666  0.5292 -0.6504
   71TIP3    H2  220   4.192   4.475   2.743  0.5478 -1.1452 -0.3757
   72TIP3   OH2  221   0.584   2.192   0.237  0.6061 -0.1476  0.0921
   72TIP3    H1  222   0.568   2.104   0.270  0.1984  0.1310  0.6670
   72TIP3    H2  223   0.537   2.249   0.299  1.2199  0.4944 -0.0253
   73TIP3   OH2  224   4.035   4.231   1.824 -0.6294 -0.3464 -0.2729
   73TIP3    H1  225   3.957   4.276   1.856  0.4263 -0.0211  2.0183
   73TIP3    H2  226   4.076   4.293   1.763 -1.9734 -0.4267 -1.3083
   74TIP3   OH2  227   4.739   5.007   4.563  0.1080  0.1469 -0.2775
   74TIP3    H1  228   4.681   4.932   4.547 -1.1832  1.1268 -0.3550
   74TIP3    H2  229   4.705   5.046   4.644  2.5077 -0.9317  1.3641
   75TIP3   OH2  230   5.285   5.060   3.100  0.3472  0.2166 -0.0228
   75TIP3    H1  231   5.351   5.129   3.111  0.3531  0.8768 -3.1330
   75TIP3    H2  232   5.201   5.106   3.098  0.1136 -0.1825  0.4033
   76TIP3   OH2  233   4.371   4.108   3.769  0.1208 -0.3460 -0.1196
   76TIP3    H1  234   4.294   4.065   3.734  0.9268 -1.3315 -0.7289
   76TIP3    H2  235   4.371   4.086   3.862  1.0098 -2.5098 -0.5766
   77TIP3   OH2  236   0.511   0.328   1.901  0.2084  0.2009  0.4693
   77TIP3    H1  237   0.464   0.305   1.981 -0.0602 -0.0072  0.2562
   77TIP3    H2  238   0.601   0.300   1.917  0.4873  1.4709  1.2464
   78TIP3   OH2  239   1.265   0.714   1.554  0.5537  0.0924  0.4087
   78TIP3    H1  240   1.263   0.714   1.459  1.1505 -0.5014  0.3905
   78TIP3    H2  241   1.337   0.772   1.577 -0.6086  1.5483  0.5487
   79TIP3   OH2  242   4.684   0.564   3.837 -0.1154 -0.2987  0.1617
   79TIP3    H1  243   4.588   0.567   3.837 -0.2666 -1.2701  3.2723
   79TIP3    H2  244   4.709   0.625   3.907  1.6617  0.7204 -1.2654
   80TIP3   OH2  245   1.091   3.015   0.161  0.3174 -0.1903 -0.0063
   80TIP3    H1  246   1.134   2.980   0.239  0.2162 -0.9787 -0.2958
   80TIP3    H2  247   1.058   2.938   0.115 -0.0704  0.3008 -0.5701
   81TIP3   OH2  248   3.849   3.775   4.322 -0.0377  0.2433  0.3121
   81TIP3    H1  249   3.765   3.821   4.321 -0.4680 -0.5136 -0.1592
   81TIP3    H2  250   3.840   3.708   4.254  0.5193 -0.5966  1.0357
   82TIP3   OH2  251   3.542   0.275   3.908 -0.0723  0.2449 -0.2247
   82TIP3    H1  252   3.478   0.346   3.908  0.4545  0.7240 -0.4514
   82TIP3    H2  253   3.613   0.305   3.851  1.2791  0.5705  1.5304
   83TIP3   OH2  254   3.524   2.262   4.670  0.5793 -0.8705  0.4809
   83TIP3    H1  255   3.431   2.243   4.681 -0.0399  0.9086 -1.1179
   83TIP3    H2  256   3.550   2.209   4.594  0.6250 -0.6360  0.3327
   84TIP3   OH2  257   5.622   3.287   3.687 -0.0110  0.1626 -0.2382
   84TIP3    H1  258   5.545   3.341   3.706  0.5822  1.0946 -0.4384
   84TIP3    H2  259   5.598   3.236   3.610 -0.2840  0.7341 -0.5290
   85TIP3   OH2  260   2.235   4.919   3.899 -0.4707 -0.6382 -0.0820
   85TIP3    H1  261   2.188   4.837   3.884 -0.5907 -0.6395  0.2781
   85TIP3    H2  262   2.327   4.893   3.899 -0.5476 -1.0326  1.4242
   86TIP3   OH2  263   0.201   2.716   0.338 -0.0726 -0.1225 -0.0822
   86TIP3    H1  264   0.293   2.701   0.317  0.0861 -0.9820  1.0854
   86TIP3    H2  265   0.192   2.682   0.427 -1.3420  0.6764  0.1142
   87TIP3   OH2  266   5.453   5.782   1.429 -0.2996  0.3534  0.2455
   87TIP3    H1  267   5.527   5.782   1.368  0.1901  0.7170  0.8283
   87TIP3    H2  268   5.492   5.766   1.515 -0.9492  0.1176  0.5063
   88TIP3   OH2  269   0.414   1.900   2.431  0.5755  0.3048 -0.2016
   88TIP3    H1  270   0.486   1.937   2.381  0.2085  0.2836 -0.7455
   88TIP3    H2  271   0.457   1.858   2.506  1.1120  0.4655 -0.4121
   89TIP3   OH2  272   1.429   2.161   4.144 -0.3266  0.0421  0.3342
   89TIP3    H1  273   1.398   2.073   4.163  0.8915 -0.3825  0.4023
   89TIP3    H2  274   1.416   2.170   4.049 -0.3229 -0.2680  0.3015
   90TIP3   OH2  275   0.734   4.862   4.743 -0.2287 -0.0123  0.5875
   90TIP3    H1  276   0.762   4.785   4.793 -0.2983  0.3742  1.2451
   90TIP3    H2  277   0.798   4.871   4.673 -0.9908 -1.4709 -0.3300
   91TIP3   OH2  278   3.652   3.125   2.352 -0.0458 -0.1549 -0.5691
   91TIP3    H1  279   3.573   3.154   2.398  0.4769  0.1530  0.1590
   91TIP3    H2  280   3.707   3.203   2.347  2.1884 -1.2210  3.0650
   92TIP3   OH2  281   3.931   3.200   4.076 -0.4728 -0.1269  0.2854
   92TIP3    H1  282   3.929   3.234   4.165  0.8677  0.8728 -0.0440
   92TIP3    H2  283   3.959   3.273   4.022  2.8347 -1.7404 -0.4043
   93TIP3   OH2  284   3.123   3.781   1.703  0.4503 -0.1873  0.2443
   93TIP3    H1  285   3.105   3.793   1.610 -2.5618 -0.3919  0.7083
   93TIP3    H2  286   3.133   3.687   1.713 -0.4473 -0.2926  0.2693
   94TIP3   OH2  287   4.390   2.131   3.309  0.1516 -0.3239  0.2820
   94TIP3    H1  288   4.404   2.211   3.260 -0.9006 -0.6003 -0.5232
   94TIP3    H2  289   4.390   2.158   3.401 -0.8718  0.7271 -0.0052
   95TIP3   OH2  290   4.168   4.634   4.108 -0.2238 -0.2395 -0.4660
   95TIP3    H1  291   4.190   4.591   4.190  0.2243 -0.6565 -0.7944
   95TIP3    H2  292   4.222   4.590   4.043 -2.2621 -1.5101 -1.3892
   96TIP3   OH2  293   2.773   4.461   3.435 -0.2049  0.2626  0.1624
   96TIP3    H1  294   2.687   4.438   3.471 -0.0728  0.8867  0.9097
   96TIP3    H2  295   2.834   4.434   3.503  0.1188  0.6711  0.0358
   97TIP3   OH2  296   4.637   1.096   0.895 -0.2595  0.1092 -0.4515
   97TIP3    H1  297   4.621   1.141   0.978 -1.0361 -0.5702 -0.2122
   97TIP3    H2  298   4.679   1.161   0.840  0.1347  0.6217  0.4226
   98TIP3   OH2  299   1.564   5.610   0.936 -0.4000  0.2324  0.3296
   98TIP3    H1  300   1.626   5.543   0.965 -0.0451  1.0749  1.6232
   98TIP3    H2  301   1.488   5.560   0.906  0.7153 -0.8065 -0.8895
   99TIP3   OH2  302   3.679   4.862   2.517  0.3279  0.0297 -0.3697
   99TIP3    H1  303   3.658   4.817   2.599 -0.3751 -2.0194 -1.5909
   99TIP3    H2  304   3.772   4.844   2.503  0.1368 -0.7717 -0.6626
  100TIP3   OH2  305   5.231   5.822   1.053 -0.2227 -0.0183 -0.6612
  100TIP3    H1  306   5.276   5.779   1.126 -0.8915 -0.6509 -0.6116
  100TIP3    H2  307   5.287   5.807   0.977 -0.8505 -1.7304 -0.8193
  101TIP3   OH2  308   0.122   1.369   0.974 -0.1266 -0.3079 -0.4885
  101TIP3    H1  309   0.188   1.336   0.913  1.4274  3.1426 -0.9056
  101TIP3    H2  310   0.171   1.383   1.056 -1.3567 -1.4377  0.4962
  102TIP3   OH2  311   3.964   5.321   2.403  0.3556  0.5133 -0.6194
  102TIP3    H1  312   4.018   5.398   2.385 -0.1969  0.7339 -1.3883
  102TIP3    H2  313   3.889   5.330   2.343  0.0810 -0.4090 -0.4244
  103TIP3   OH2  314   4.987   1.715   2.259  0.3947 -0.3917 -0.0727
  103TIP3    H1  315   4.930   1.688   2.331 -0.5457  1.4377 -0.0902
  103TIP3    H2  316   4.951   1.671   2.182 -0.7516  0.4034 -0.0058
  104TIP3   OH2  317   2.869   0.211   1.071 -0.0990 -0.2460  0.0934
  104TIP3    H1  318   2.901   0.295   1.037  0.2340 -0.2751  0.3367
  104TIP3    H2  319   2.782   0.202   1.032  0.2698 -0.2749 -0.7545
  105TIP3   OH2  320   3.117   1.186   0.556  0.1124 -0.5528 -0.8318
  105TIP3    H1  321   3.063   1.179   0.635 -0.4149 -0.1920 -1.1508
  105TIP3    H2  322   3.082   1.119   0.497  0.0078 -0.3183 -1.0398
  106TIP3   OH2  323   3.690   0.707   0.354  0.0373 -0.2463  0.5264
  106TIP3    H1  324   3.755   0.652   0.311 -0.2424  0.8971 -1.4975
  106TIP3    H2  325   3.629   0.730   0.284 -1.9705 -0.4114  2.1311
  107TIP3   OH2  326   3.539   4.184   1.872  0.3362 -0.1339 -0.3244
  107TIP3    H1  327   3.546   4.240   1.795  0.5307  0.8688  0.3971
  107TIP3    H2  328   3.445   4.180   1.890  0.3711  0.5937  0.0566
  108TIP3   OH2  329   3.602   1.049   4.743  0.5009  0.1337 -0.2591
  108TIP3    H1  330   3.683   1.064   4.791 -0.3039  0.1464  1.1329
  108TIP3    H2  331   3.533   1.051   4.809 -0.5347 -1.0494 -1.2323
  109TIP3   OH2  332   6.291   0.093   1.480  0.5697  0.1603 -0.0824
  109TIP3    H1  333   6.275   0.065   1.389  1.4786 -1.4348  0.2183
  109TIP3    H2  334   6.383   0.119   1.481  0.2407  1.3676  0.1185
  110TIP3   OH2  335   0.594   5.520   4.603  0.2164  0.2097  0.4306
  110TIP3    H1  336   0.678   5.508   4.646  1.0876  1.1744 -0.9349
  110TIP3    H2  337   0.598   5.607   4.565 -1.6654  0.5364  0.8598
  111TIP3   OH2  338   4.525   0.303   3.572 -0.1941  0.1506 -0.4364
  111TIP3    H1  339   4.574   0.385   3.569 -0.9625  0.6112 -0.6589
  111TIP3    H2  340   4.564   0.254   3.645  1.2717  0.0606 -1.2266
  112TIP3   OH2  341   2.235   4.621   0.820  0.1109  0.1938 -0.3805
  112TIP3    H1  342   2.156   4.569   0.805 -0.7818  0.6268  2.2289
  112TIP3    H2  343   2.307   4.566   0.789 -1.0537 -1.1385 -0.8048
  113TIP3   OH2  344   3.778   2.055   4.272 -0.6609  0.1839 -0.0928
  113TIP3    H1  345   3.794   1.991   4.203 -1.7346  0.7564 -0.9050
  113TIP3    H2  346   3.785   2.005   4.353  2.2113 -0.1798 -0.4844
  114TIP3   OH2  347   6.129   1.751   0.050 -0.1527 -0.3020  0.1974
  114TIP3    H1  348   6.096   1.802   0.124  0.5747  1.5696 -0.6920
  114TIP3    H2  349   6.054   1.740  -0.007 -0.5646 -1.1947  0.8837
  115TIP3   OH2  350   1.580   4.680   3.144 -0.2179  0.3809  0.2120
  115TIP3    H1  351   1.588   4.601   3.090 -0.9254  0.0731  0.5577
  115TIP3    H2  352   1.495   4.717   3.121  0.0083  0.9220  0.2226
  116TIP3   OH2  353   6.142   3.725   0.112 -0.3404  0.3399 -0.3118
  116TIP3    H1  354   6.103   3.787   0.174  0.8672  0.4133  0.4187
  116TIP3    H2  355   6.237   3.734   0.126 -0.1012 -0.8061 -1.0469
  117TIP3   OH2  356   4.970   5.881   4.918 -0.6749  0.0912 -0.0024
  117TIP3    H1  357   4.967   5.930   5.000  1.4115  0.4980 -0.1174
  117TIP3    H2  358   5.058   5.897   4.883 -0.9656 -1.3441 -1.5364
  118TIP3   OH2  359   5.123   2.110   2.850 -0.4229  0.6669 -0.6881
  118TIP3    H1  360   5.208   2.071   2.832 -1.6894 -2.2882 -0.8893
  118TIP3    H2  361   5.090   2.138   2.764  0.4184  2.1364 -0.5660
  119TIP3   OH2  362   3.781   3.298   0.880 -0.3303 -0.4145 -0.5292
  119TIP3    H1  363   3.779   3.325   0.971  1.5466 -2.4936  0.2407
  119TIP3    H2  364   3.768   3.203   0.883  2.7388 -1.0155 -2.0611
  120TIP3   OH2  365   1.220   0.488   2.588  0.3023 -0.0490 -0.3085
  120TIP3    H1  366   1.314   0.489   2.606 -0.2955  0.5262  3.5838
  120TIP3    H2  367   1.203   0.568   2.539  1.4383  1.6398  1.9279
  121TIP3   OH2  368   5.146   3.353   1.873 -0.1555  0.1185  0.1670
  121TIP3    H1  369   5.095   3.404   1.810  0.6254  1.0696  0.2833
  121TIP3    H2  370   5.169   3.273   1.826 -0.2646  0.4590 -0.4734
  122TIP3   OH2  371   1.616   3.046   2.866  0.0231 -0.5534  0.7302
  122TIP3    H1  372   1.621   3.056   2.771  0.3942 -0.5543  0.7479
  122TIP3    H2  373   1.524   3.031   2.884 -0.0259 -0.7077  0.3531
  123TIP3   OH2  374   0.647   1.008   0.867 -0.1649  0.1571  0.0895
  123TIP3    H1  375   0.641   1.052   0.782 -0.8045 -3.2651 -1.8379
  123TIP3    H2  376   0.740   0.990   0.878  0.0545  1.5669  0.7106
  124TIP3   OH2  377   3.996   2.241   4.651  0.4779  0.1996 -0.1702
  124TIP3    H1  378   3.977   2.327   4.690 -1.2700 -0.1936 -0.0982
  124TIP3    H2  379   4.020   2.186   4.726 -0.0765  0.1876  0.0023
  125TIP3   OH2  380   0.459   5.614   3.284  0.2257 -0.1301 -0.0981
  125TIP3    H1  381   0.513   5.582   3.211  0.4707  1.1058 -0.4900
  125TIP3    H2  382   0.509   5.590   3.362  1.4098  1.0094 -0.4531
  126TIP3   OH2  383   1.694   1.024   3.461  0.2703 -0.4255  0.3673
  126TIP3    H1  384   1.660   0.947   3.507  1.1551  0.2268  2.2083
  126TIP3    H2  385   1.789   1.021   3.475  0.8537 -0.9999 -2.7905
  127TIP3   OH2  386   0.854   4.365   2.375  0.0212 -0.5411 -0.3665
  127TIP3    H1  387   0.860   4.420   2.453  1.5374  0.9695 -1.4737
  127TIP3    H2  388   0.940   4.321   2.371 -0.2172 -0.9645 -0.9261
  128TIP3   OH2  389   3.216   3.300   4.994  0.3803  0.1537 -0.2386
  128TIP3    H1  390   3.237   3.390   5.019  0.4172  0.4683 -1.3529
  128TIP3    H2  391   3.293   3.269   4.948  0.4140 -0.4981  0.2516
  129TIP3   OH2  392   5.532   5.851   0.432 -0.3424  0.1718  0.6160
  129TIP3    H1  393   5.446   5.821   0.403  0.0780 -0.4359 -0.0507
  129TIP3    H2  394   5.591   5.827   0.361  0.7761 -1.5699  2.0468
  130TIP3   OH2  395   5.039   4.565   2.289 -0.2548 -0.1568  0.3856
  130TIP3    H1  396   5.061   4.629   2.355  0.8712 -2.2759  2.2082
  130TIP3    H2  397   5.102   4.580   2.219  0.5885  0.1516  1.1908
  131TIP3   OH2  398   1.970   1.266   0.649 -0.2071  0.2958 -0.1723
  131TIP3    H1  399   1.915   1.265   0.571 -0.3947 -1.0641 -0.0420
  131TIP3    H2  400   2.059   1.273   0.614 -0.3320  0.4455 -0.4718
  132TIP3   OH2  401   1.533   4.485   2.745 -0.0496  0.4181  0.1537
  132TIP3    H1  402   1.507   4.469   2.836  0.2261  0.6640  0.2761
  132TIP3    H2  403   1.601   4.421   2.728 -1.6388 -1.1702 -0.6051
  133TIP3   OH2  404   1.354   2.670   3.874 -0.4492 -0.2658  0.1609
  133TIP3    H1  405   1.357   2.635   3.963 -1.8723 -1.4895 -0.2206
  133TIP3    H2  406   1.311   2.755   3.882  1.7366  0.8459  0.9238
  134TIP3   OH2  407   1.855   1.859   0.307 -0.1111 -0.2205  0.1984
  134TIP3    H1  408   1.868   1.911   0.227 -0.3860 -0.7791 -0.2157
  134TIP3    H2  409   1.858   1.923   0.378 -1.5592  0.5264 -0.3787
  135TIP3   OH2  410   2.349   5.056   1.682  0.2561 -0.1661  0.1593
  135TIP3    H1  411   2.368   5.133   1.629  0.7740  0.1157  0.7471
  135TIP3    H2  412   2.301   4.998   1.623 -1.5730  1.2534  0.1658
  136TIP3   OH2  413   3.530   0.558   3.325 -0.2472 -0.2083  0.7921
  136TIP3    H1  414   3.570   0.491   3.381  0.4252 -1.6344 -1.2910
  136TIP3    H2  415   3.436   0.550   3.342 -0.1353 -1.3529  0.9365
  137TIP3   OH2  416   2.403   1.386   2.646  0.5566  0.5317 -0.2241
  137TIP3    H1  417   2.448   1.371   2.729  0.0040 -1.4701 -0.2287
  137TIP3    H2  418   2.454   1.338   2.581 -2.6654 -4.1602  0.1611
  138TIP3   OH2  419   3.200   5.536   0.197  0.3516  0.6346 -0.2764
  138TIP3    H1  420   3.167   5.611   0.246  1.3649  0.5383  0.5931
  138TIP3    H2  421   3.203   5.465   0.262 -1.7754 -0.5513 -1.3616
  139TIP3   OH2  422   2.565   5.260   4.693 -0.0093 -0.0752 -0.2159
  139TIP3    H1  423   2.642   5.205   4.706  0.0177 -0.3642 -1.4985
  139TIP3    H2  424   2.513   5.249   4.773  1.4111  0.3656  0.8091
  140TIP3   OH2  425   6.244   1.213   0.440 -0.4665  0.4431 -0.1028
  140TIP3    H1  426   6.193   1.155   0.495  1.8929 -0.0085  1.7919
  140TIP3    H2  427   6.263   1.161   0.361  0.7123 -1.0523  1.0982
  141TIP3   OH2  428   1.872   2.895   5.203 -0.4001 -0.0486 -0.0943
  141TIP3    H1  429   1.931   2.969   5.190  0.2650 -0.6034 -0.3886
  141TIP3    H2  430   1.911   2.825   5.149 -1.2312 -0.4822 -0.1423
  142TIP3   OH2  431   2.846   2.191   3.539  0.4364  0.4414  0.0667
  142TIP3    H1  432   2.880   2.123   3.480 -0.8478  0.2613 -0.4864
  142TIP3    H2  433   2.889   2.272   3.509  2.1596 -0.1163  0.8798
  143TIP3   OH2  434   2.228   1.789   5.028 -0.2541  0.2332 -0.3348
  143TIP3    H1  435   2.153   1.836   4.993  0.5938  1.3191 -0.7435
  143TIP3    H2  436   2.278   1.854   5.077  0.2416 -0.5539  0.2462
  144TIP3   OH2  437   6.045   3.745   4.368 -0.2445 -0.1996  0.4464
  144TIP3    H1  438   6.017   3.802   4.296  0.0304 -0.2824  0.2724
  144TIP3    H2  439   5.969   3.690   4.386 -1.2238  1.5642  1.9668
  145TIP3   OH2  440   2.760   4.766   4.144 -0.1327  0.1746  0.3677
  145TIP3    H1  441   2.821   4.703   4.106  0.1946  0.5479  0.2759
  145TIP3    H2  442   2.787   4.850   4.109  0.5153  0.6023  1.8401
  146TIP3   OH2  443   0.283   5.828   3.263  0.1557  0.0691 -0.1857
  146TIP3    H1  444   0.228   5.829   3.185 -0.0555 -0.2810 -0.0432
  146TIP3    H2  445   0.333   5.747   3.256 -1.6183 -1.2392  1.2354
  147TIP3   OH2  446   0.239   5.764   1.447 -0.0301 -0.4627  0.2730
  147TIP3    H1  447   0.215   5.744   1.537  0.0864  0.6172  0.5617
  147TIP3    H2  448   0.334   5.766   1.447 -0.0331  0.5090  0.3770
  148TIP3   OH2  449   4.331   4.958   0.513 -0.7218 -0.2310  0.0287
  148TIP3    H1  450   4.292   4.926   0.594 -1.6816 -0.0388 -0.3447
  148TIP3    H2  451   4.295   4.901   0.445  1.2296 -1.3567 -0.1284
  149TIP3   OH2  452   2.075   0.861   3.119 -0.0281 -0.1072 -0.3402
  149TIP3    H1  453   2.067   0.822   3.206 -0.2042  1.9990  0.6305
  149TIP3    H2  454   1.987   0.855   3.083 -0.2184  0.0535  0.0895
  150TIP3   OH2  455   5.331   2.710   5.138  0.4339 -0.2586  0.1890
  150TIP3    H1  456   5.323   2.805   5.130 -0.0194 -0.1214  1.8911
  150TIP3    H2  457   5.418   2.691   5.102  1.2099  1.0084  1.2903
  151TIP3   OH2  458   1.492   3.015   4.594  0.1120 -0.4086  0.0960
  151TIP3    H1  459   1.461   2.954   4.661  0.7932  0.1885  0.9692
  151TIP3    H2  460   1.586   3.021   4.608 -0.0642  1.6176  0.6875
  152TIP3   OH2  461   0.169   1.437   3.966 -0.4516 -0.1110 -0.3636
  152TIP3    H1  462   0.226   1.507   3.934  0.9105 -0.9391  0.1276
  152TIP3    H2  463   0.119   1.477   4.037 -1.5882  1.0260 -1.7446
  153TIP3   OH2  464   3.959   3.919   0.958  0.3077 -0.1834 -0.2147
  153TIP3    H1  465   3.923   3.850   1.014  0.3525 -0.4992 -0.5732
  153TIP3    H2  466   4.052   3.921   0.979 -0.1059  1.7887  1.9780
  154TIP3   OH2  467   0.299   0.264   4.935  0.2924  0.4188 -0.6457
  154TIP3    H1  468   0.280   0.181   4.978  0.9794  0.0430 -1.0549
  154TIP3    H2  469   0.215   0.310   4.933 -0.7059 -1.3253 -2.7180
  155TIP3   OH2  470   6.232   1.095   5.204  0.3953  0.1912 -0.0556
  155TIP3    H1  471   6.167   1.032   5.173 -1.1284  2.2268 -1.3734
  155TIP3    H2  472   6.314   1.066   5.166  0.1543 -2.0387  1.0095
  156TIP3   OH2  473   0.730   5.297   0.770 -0.0815 -0.2008 -0.4423
  156TIP3    H1  474   0.769   5.374   0.728 -0.1916  0.0628 -0.0684
  156TIP3    H2  475   0.799   5.264   0.829  0.2859 -0.9202 -1.2553
  157TIP3   OH2  476   4.127   3.437   4.719 -0.1344 -0.7881  0.0535
  157TIP3    H1  477   4.124   3.508   4.782  0.6407  0.0736 -0.8562
  157TIP3    H2  478   4.220   3.416   4.710  0.0005  0.4664 -2.2547
  158TIP3   OH2  479   3.923   2.969   4.441  0.8486  0.0015  0.2692
  158TIP3    H1  480   3.887   2.968   4.352  0.4322 -0.5855  0.4327
  158TIP3    H2  481   3.931   2.876   4.464  1.0074  0.1497  0.8219
  159TIP3   OH2  482   3.647   1.838   2.070  0.2438  0.4057 -0.1712
  159TIP3    H1  483   3.616   1.909   2.014 -1.2367  0.7038  0.9739
  159TIP3    H2  484   3.700   1.881   2.136  1.3393  0.1417 -0.8548
  160TIP3   OH2  485   0.079   0.741   2.056 -0.3047 -0.0331 -0.9997
  160TIP3    H1  486   0.028   0.816   2.027  2.2807  2.3402  0.1802
  160TIP3    H2  487   0.128   0.714   1.978 -0.2457  0.3599 -1.0986
  161TIP3   OH2  488   4.818   0.986   2.027 -0.2875  0.0076 -0.4256
  161TIP3    H1  489   4.729   1.016   2.043 -0.3015  0.0795 -0.6258
  161TIP3    H2  490   4.836   1.012   1.936 -0.6253 -1.3626 -0.9153
  162TIP3   OH2  491   3.138   1.828   4.834  0.0139 -0.2948  0.5827
  162TIP3    H1  492   3.220   1.829   4.784  0.0533  1.3239  0.6405
  162TIP3    H2  493   3.155   1.768   4.907  0.7017 -0.9539 -0.1005
  163TIP3   OH2  494   5.296   4.962   0.858 -0.0742  0.0063 -0.1345
  163TIP3    H1  495   5.333   4.977   0.771 -0.0364 -0.5106 -0.2131
  163TIP3    H2  496   5.255   4.875   0.852 -2.0181  0.8882 -0.2940
  164TIP3   OH2  497   0.140   4.260   2.319  0.6076  0.0546  0.8586
  164TIP3    H1  498   0.188   4.188   2.278 -0.6458 -0.1451 -0.3211
  164TIP3    H2  499   0.161   4.336   2.265  0.8545  0.3147  1.3073
  165TIP3   OH2  500   1.531   4.695   4.060 -0.3644 -0.3197  0.2212
  165TIP3    H1  501   1.569   4.735   3.982  0.4087  0.4894  0.9897
  165TIP3    H2  502   1.469   4.630   4.026 -0.8208  0.7466 -1.0519
  166TIP3   OH2  503   0.520   1.709   4.625 -0.4918 -0.4025  0.0408
  166TIP3    H1  504   0.497   1.792   4.667 -0.4473 -0.3299 -0.0773
  166TIP3    H2  505   0.553   1.654   4.696 -0.6996 -0.3840  0.1501
  167TIP3   OH2  506   1.298   5.179   4.372 -0.2650  0.4430  0.0774
  167TIP3    H1  507   1.377   5.127   4.386 -0.8254 -1.2348 -2.4307
  167TIP3    H2  508   1.306   5.213   4.283 -2.2954  0.3391 -0.1987
  168TIP3   OH2  509   1.529   4.330   4.753 -0.1824 -0.7509 -0.0954
  168TIP3    H1  510   1.578   4.250   4.739  0.3730 -0.4944  0.3546
  168TIP3    H2  511   1.577   4.377   4.821  0.5035  0.7727 -1.5677
  169TIP3   OH2  512   1.994   1.912   4.612  0.3391 -0.9017 -0.1358
  169TIP3    H1  513   1.906   1.886   4.640 -0.1702  0.3629 -0.4748
  169TIP3    H2  514   1.990   1.911   4.516  0.1918  0.6455 -0.1770
  170TIP3   OH2  515   1.817   2.946   0.407  0.1167 -0.3812  0.6185
  170TIP3    H1  516   1.741   2.932   0.351  1.3022 -0.8869 -0.9075
  170TIP3    H2  517   1.861   2.862   0.410  2.9254  0.7846 -2.0732
  171TIP3   OH2  518   1.392   4.732   4.316  0.2688  0.5269  0.5268
  171TIP3    H1  519   1.433   4.707   4.399  0.6414 -0.1810  0.1331
  171TIP3    H2  520   1.454   4.705   4.249 -0.2996  0.5510 -0.0179
  172TIP3   OH2  521   5.080   5.613   3.587  0.6068  0.7834  0.3524
  172TIP3    H1  522   5.111   5.594   3.675  0.5946 -2.9120 -0.2556
  172TIP3    H2  523   5.141   5.567   3.529 -0.5224  1.4165 -1.4622
  173TIP3   OH2  524   6.189   1.789   1.126 -0.0196 -0.4846  0.7286
  173TIP3    H1  525   6.243   1.795   1.205  0.4975  0.6007  0.3169
  173TIP3    H2  526   6.212   1.868   1.076  1.0625 -2.0531 -1.3751
  174TIP3   OH2  527   0.444   2.152   1.112 -0.4633 -0.0469 -0.1248
  174TIP3    H1  528   0.407   2.073   1.072 -1.7056  0.1181  0.6532
  174TIP3    H2  529   0.435   2.138   1.206  1.2968  0.1041  0.1036
  175TIP3   OH2  530   6.144   5.300   4.286  0.7402 -0.1320  0.0796
  175TIP3    H1  531   6.101   5.290   4.371  1.3033  1.1515  0.5433
  175TIP3    H2  532   6.074   5.293   4.222  0.0566  0.4415  0.7454
  176TIP3   OH2  533   1.549   0.812   4.150  0.6510  1.0416  0.2894
  176TIP3    H1  534   1.590   0.737   4.193 -1.1758 -0.5003 -0.5269
  176TIP3    H2  535   1.623   0.868   4.126  2.1558 -0.7843  0.3366
  177TIP3   OH2  536   3.958   3.826   1.731 -0.6776  0.4443  0.0134
  177TIP3    H1  537   3.868   3.804   1.755 -0.1121 -1.6444  0.4257
  177TIP3    H2  538   4.003   3.741   1.727  0.9357  1.3049 -1.5947
  178TIP3   OH2  539   6.134   1.298   4.713  0.0695  0.0402 -0.2243
  178TIP3    H1  540   6.229   1.302   4.699  0.4514  0.5080  1.9940
  178TIP3    H2  541   6.122   1.220   4.768 -0.7538  0.3112 -0.0132
  179TIP3   OH2  542   2.397   4.492   2.846  0.0383 -0.5251  0.4430
  179TIP3    H1  543   2.467   4.524   2.903  0.2850  0.1938 -0.2450
  179TIP3    H2  544   2.371   4.569   2.794 -0.8211 -0.9385  0.2353
  180TIP3   OH2  545   0.078   5.233   2.503  0.3856 -0.0802 -0.5316
  180TIP3    H1  546   0.160   5.205   2.462  0.8890  3.4861 -2.4419
  180TIP3    H2  547   0.009   5.186   2.455  1.2144 -0.3455 -1.4929
  181TIP3   OH2  548   0.468   4.866   3.867  0.6328 -0.3337 -0.4577
  181TIP3    H1  549   0.380   4.830   3.868  0.1311  0.6915 -2.1697
  181TIP3    H2  550   0.481   4.901   3.955 -0.3046 -1.3027  0.0825
  182TIP3   OH2  551   5.195   0.549   4.924 -0.9019  0.1224 -0.0956
  182TIP3    H1  552   5.245   0.564   4.844  0.7353  2.0830  1.1831
  182TIP3    H2  553   5.225   0.464   4.956 -0.8308 -0.2162 -1.0423
  183TIP3   OH2  554   1.132   5.782   2.064  0.0102 -0.0531  0.1838
  183TIP3    H1  555   1.071   5.772   2.136 -0.2127 -2.9133 -0.3087
  183TIP3    H2  556   1.213   5.813   2.105 -0.5368 -0.2092  1.4214
  184TIP3   OH2  557   3.028   3.831   1.111  0.1414  0.5514 -0.2979
  184TIP3    H1  558   3.029   3.817   1.016 -3.4459 -0.5899 -0.2842
  184TIP3    H2  559   2.977   3.758   1.146 -1.7862  2.8354  2.0689
  185TIP3   OH2  560   4.848   0.411   3.051  0.6340  0.1042  0.2154
  185TIP3    H1  561   4.790   0.449   2.985  0.9665 -0.2058 -0.2657
  185TIP3    H2  562   4.845   0.472   3.124 -1.4806 -0.6472  0.8255
  186TIP3   OH2  563   3.529   5.301   0.017  0.1625 -0.2704  0.0309
  186TIP3    H1  564   3.519   5.382  -0.033  1.4367  0.1080  0.3545
  186TIP3    H2  565   3.442   5.283   0.053 -0.2402  0.6774 -0.4567
  187TIP3   OH2  566   5.467   0.037   1.053 -0.5863  0.0020  0.0292
  187TIP3    H1  567   5.383   0.010   1.015 -0.6241  0.2692 -0.0816
  187TIP3    H2  568   5.494   0.111   0.999  0.3370 -0.8612 -0.7373
  188TIP3   OH2  569   5.138   2.131   3.145  0.4634 -0.0626 -0.2249
  188TIP3    H1  570   5.105   2.132   3.055 -0.3685 -2.6004 -0.0075
  188TIP3    H2  571   5.234   2.132   3.136  0.3898 -0.8622 -1.1568
  189TIP3   OH2  572   4.050   0.048   3.422  0.2209 -0.2645  0.8995
  189TIP3    H1  573   3.993   0.082   3.492  1.3480 -0.1899  1.8075
  189TIP3    H2  574   4.138   0.075   3.448  0.7897 -1.2360  0.0328
  190TIP3   OH2  575   3.416   1.231   1.530  0.5320  0.2699  0.6203
  190TIP3    H1  576   3.428   1.186   1.446 -2.7849 -0.2084  0.2707
  190TIP3    H2  577   3.363   1.307   1.509  0.3601  0.6106  2.1919
  191TIP3   OH2  578   3.539   5.009   4.961 -0.0736  0.3109 -0.5248
  191TIP3    H1  579   3.494   5.036   4.881  0.1188 -0.8633 -1.0466
  191TIP3    H2  580   3.609   4.951   4.931 -1.0831 -1.5955  0.5781
  192TIP3   OH2  581   4.717   3.321   0.008 -0.0138  0.1892  0.0406
  192TIP3    H1  582   4.633   3.317  -0.038  1.9844 -1.4343 -4.0393
  192TIP3    H2  583   4.725   3.236   0.051 -1.0655  0.9720  1.8725
  193TIP3   OH2  584   1.476   1.004   2.180 -0.1778  0.3765 -0.5348
  193TIP3    H1  585   1.530   1.007   2.101 -0.2627  2.2533 -0.5689
  193TIP3    H2  586   1.530   1.045   2.247 -1.1243  1.3003 -0.3120
  194TIP3   OH2  587   2.260   4.860   1.291 -0.1472  0.6661  0.1830
  194TIP3    H1  588   2.317   4.827   1.222  0.7016  0.6871  0.8577
  194TIP3    H2  589   2.180   4.885   1.246  0.0270 -0.2221 -0.6556
  195TIP3   OH2  590   4.515   1.368   2.656 -0.4232  0.3237 -0.6034
  195TIP3    H1  591   4.430   1.327   2.665 -1.3004  1.2933 -3.4978
  195TIP3    H2  592   4.578   1.296   2.658 -1.5003 -0.6313 -0.7042
  196TIP3   OH2  593   0.444   2.650   0.211 -0.2437 -0.4315 -0.1744
  196TIP3    H1  594   0.466   2.621   0.122  0.2316  0.1678 -0.2633
  196TIP3    H2  595   0.501   2.726   0.226 -2.3233  1.2783 -0.4625
  197TIP3   OH2  596   1.031   2.527   1.365 -0.3485 -0.2565  0.8678
  197TIP3    H1  597   1.050   2.595   1.301  0.0116 -1.1271  0.0148
  197TIP3    H2  598   0.952   2.557   1.410  1.2841  1.9978  2.4099
  198TIP3   OH2  599   5.077   5.113   4.191  0.1237  0.1646 -0.1448
  198TIP3    H1  600   4.989   5.107   4.229  0.2250 -3.6819 -0.1952
  198TIP3    H2  601   5.136   5.105   4.266  0.4351  0.3455 -0.3678
  199TIP3   OH2  602   1.765   4.863   4.787  0.2988  0.2325 -0.1585
  199TIP3    H1  603   1.796   4.901   4.869  2.2148 -0.3515 -0.5501
  199TIP3    H2  604   1.704   4.928   4.752  1.5407  1.7736  0.4159
  200TIP3   OH2  605   5.950   1.442   1.402  0.3736 -1.3520 -0.0854
  200TIP3    H1  606   5.929   1.536   1.400  0.6689 -1.2769  0.1214
  200TIP3    H2  607   5.924   1.414   1.490 -2.0689 -2.0485 -0.9656
  201TIP3   OH2  608   3.600   0.844   5.041  0.0138 -0.0664  0.1961
  201TIP3    H1  609   3.674   0.895   5.007  0.8244  1.0661  3.3621
  201TIP3    H2  610   3.523   0.898   5.021  0.4993  0.7157  0.4029
  202TIP3   OH2  611   3.807   2.683   3.044 -0.7336  0.1009 -0.0143
  202TIP3    H1  612   3.848   2.663   3.128 -0.3586  0.5017 -0.1010
  202TIP3    H2  613   3.876   2.725   2.992 -1.6629  2.2967  0.4181
  203TIP3   OH2  614   0.502   5.646   0.641  0.6293  0.0689 -0.1101
  203TIP3    H1  615   0.432   5.710   0.658 -0.3835 -0.3170 -2.4601
  203TIP3    H2  616   0.475   5.602   0.561  2.3847 -1.8481  0.2738
  204TIP3   OH2  617   1.127   0.929   0.832 -0.2461  0.1925  0.6968
  204TIP3    H1  618   1.204   0.986   0.829 -0.5991  0.6462  0.0998
  204TIP3    H2  619   1.063   0.978   0.883  0.0093 -0.3882  1.6012
  205TIP3   OH2  620   0.411   1.026   4.431  0.3912  0.2569 -0.6471
  205TIP3    H1  621   0.439   0.958   4.370 -0.1081 -0.6816  0.1381
  205TIP3    H2  622   0.421   1.107   4.382  3.1877 -0.1190 -0.8573
  206TIP3   OH2  623   2.625   0.593   4.747 -0.1429 -0.4040 -0.2825
  206TIP3    H1  624   2.655   0.506   4.774  1.2432 -0.1698 -0.9820
  206TIP3    H2  625   2.564   0.575   4.675  1.0645 -0.7937 -1.2555
  207TIP3   OH2  626   3.316   2.061   2.931 -0.2715  0.0324 -0.4214
  207TIP3    H1  627   3.340   2.073   2.839 -0.0083 -0.9782 -0.4955
  207TIP3    H2  628   3.394   2.023   2.971 -0.7234 -0.4506  0.0050
  208TIP3   OH2  629   1.940   3.586   2.139  0.1206 -0.5591  0.1957
  208TIP3    H1  630   1.881   3.537   2.082 -1.9971  1.2099  0.6882
  208TIP3    H2  631   1.962   3.664   2.088 -0.6051  0.3267  1.1813
  209TIP3   OH2  632   1.345   5.241   0.310  0.5764 -0.5043  0.5262
  209TIP3    H1  633   1.283   5.201   0.371 -0.3851 -0.4631 -0.4007
  209TIP3    H2  634   1.388   5.310   0.362 -1.2218  0.4720  0.8135
  210TIP3   OH2  635   4.494   3.401   2.083 -0.3193  0.6462 -0.0280
  210TIP3    H1  636   4.405   3.426   2.057 -0.7530 -0.2457  0.5429
  210TIP3    H2  637   4.515   3.462   2.154 -1.3871 -0.5284  1.3816
  211TIP3   OH2  638   0.166   2.516   0.150 -0.2844  0.2146 -0.3377
  211TIP3    H1  639   0.185   2.562   0.068 -1.2997  0.7887 -0.2686
  211TIP3    H2  640   0.170   2.584   0.217  2.6527 -0.5840  0.4738
  212TIP3   OH2  641   5.417   5.669   2.600  0.6775  0.2478  0.0294
  212TIP3    H1  642   5.385   5.581   2.581 -0.9986  0.4261  1.7430
  212TIP3    H2  643   5.469   5.660   2.680  1.2936  0.6729 -0.3122
  213TIP3   OH2  644   3.110   4.051   0.597  0.4380  0.0915  0.0795
  213TIP3    H1  645   3.205   4.064   0.593  0.3081  3.6777  3.0538
  213TIP3    H2  646   3.097   3.988   0.668  0.5674 -1.7613 -1.4906
  214TIP3   OH2  647   1.929   2.966   0.882  0.8498 -0.4332 -0.5116
  214TIP3    H1  648   1.888   2.890   0.842 -1.4247  0.1772  0.5065
  214TIP3    H2  649   1.943   3.027   0.809  1.0965 -1.1467 -1.0644
  215TIP3   OH2  650   2.433   4.499   1.087  0.1777  0.0166  0.3491
  215TIP3    H1  651   2.435   4.492   1.183 -0.5533  0.3210  0.3931
  215TIP3    H2  652   2.516   4.542   1.065 -0.8682  2.5603  1.0905
  216TIP3   OH2  653   4.328   3.063   3.561 -0.3626  0.1758  0.4563
  216TIP3    H1  654   4.293   3.006   3.492 -0.3746 -0.0096  0.6135
  216TIP3    H2  655   4.343   3.147   3.517 -0.4980  0.1001  0.2602
  217TIP3   OH2  656   3.800   2.024   2.914  0.5720 -0.3289  0.3947
  217TIP3    H1  657   3.892   2.003   2.897  0.4995 -0.5600  0.2907
  217TIP3    H2  658   3.792   2.117   2.893  0.1986 -0.8377 -2.0160
  218TIP3   OH2  659   3.376   1.146   2.960 -0.1169 -1.0328 -0.3412
  218TIP3    H1  660   3.423   1.090   3.021  0.3830 -1.2120 -0.8775
  218TIP3    H2  661   3.386   1.103   2.875 -0.5125 -0.6138 -0.6064
  219TIP3   OH2  662   6.082   2.750   0.672  0.2041  0.6286  0.5093
  219TIP3    H1  663   6.107   2.813   0.740 -0.7276  1.1036  0.4230
  219TIP3    H2  664   6.047   2.803   0.601  0.0569  0.0565  0.1442
  220TIP3   OH2  665   5.549   5.154   1.613 -0.0160  0.2109  0.0346
  220TIP3    H1  666   5.633   5.115   1.588 -1.2638 -2.2979 -0.5540
  220TIP3    H2  667   5.551   5.155   1.709  0.7281  0.2841  0.0225
  221TIP3   OH2  668   1.904   4.099   2.546 -0.2035  0.0040 -0.0582
  221TIP3    H1  669   1.933   4.015   2.582 -0.1952 -1.0339 -2.2731
  221TIP3    H2  670   1.983   4.153   2.543 -0.5758  0.9329  3.2719
  222TIP3   OH2  671   0.958   4.496   1.366 -0.4118 -0.3649 -0.1038
  222TIP3    H1  672   0.988   4.414   1.326 -1.5037 -1.1253  0.5844
  222TIP3    H2  673   0.901   4.535   1.300 -0.7523 -0.7034 -0.0115
  223TIP3   OH2  674   0.839   2.954   3.039 -0.6308  0.2906 -0.2553
  223TIP3    H1  675   0.852   2.905   2.958  2.6256 -2.0689  1.5024
  223TIP3    H2  676   0.776   2.902   3.089  0.7075 -0.7012  0.4587
  224TIP3   OH2  677   5.399   0.518   1.940 -0.6379 -0.0820  0.1341
  224TIP3    H1  678   5.384   0.425   1.959 -1.0910 -0.2464 -0.9146
  224TIP3    H2  679   5.314   0.549   1.909 -0.2368  0.4263 -0.4815
  225TIP3   OH2  680   1.296   3.082   4.110 -0.0376  0.2079 -0.2841
  225TIP3    H1  681   1.347   3.038   4.179  0.8129 -0.8517 -1.5325
  225TIP3    H2  682   1.224   3.125   4.157 -0.2964 -1.6415  1.1223
  226TIP3   OH2  683   4.004   3.485   0.861  0.1227 -0.0619  0.1948
  226TIP3    H1  684   3.956   3.556   0.818 -0.5118 -0.2465  0.5964
  226TIP3    H2  685   3.940   3.415   0.871  0.1729  0.0964  1.7528
  227TIP3   OH2  686   5.022   1.974   3.681  0.1415 -0.4787 -0.2354
  227TIP3    H1  687   5.068   1.896   3.713 -1.3535 -0.7552  1.3638
  227TIP3    H2  688   4.971   2.005   3.756  0.4537  1.8984 -0.9092
  228TIP3   OH2  689   5.520   1.559   3.065  0.4652 -0.2130 -0.0710
  228TIP3    H1  690   5.515   1.471   3.104  1.0288 -0.1437  0.1702
  228TIP3    H2  691   5.431   1.592   3.069  0.2015 -0.8688 -0.3753
  229TIP3   OH2  692   5.173   1.250   5.071 -0.2646 -0.0754  0.0547
  229TIP3    H1  693   5.100   1.212   5.022  0.5903 -1.4931 -0.1690
  229TIP3    H2  694   5.251   1.218   5.026  0.5331 -0.8549  1.8963
  230TIP3   OH2  695   5.397   3.786   0.429 -0.2611  0.0182  0.3753
  230TIP3    H1  696   5.377   3.848   0.359 -0.3501  0.8522  1.1220
  230TIP3    H2  697   5.452   3.836   0.490 -1.2422 -0.2953  1.5368
  231TIP3   OH2  698   3.119   2.906   0.165 -0.1917 -0.0960  0.6987
  231TIP3    H1  699   3.131   2.881   0.073  0.8160 -0.5581  0.9500
  231TIP3    H2  700   3.201   2.948   0.190 -0.5555  0.2614  1.3275
  232TIP3   OH2  701   2.379   2.602   1.661 -0.5091 -0.3937 -0.2850
  232TIP3    H1  702   2.364   2.518   1.619 -2.7858 -0.8151  1.1797
  232TIP3    H2  703   2.405   2.580   1.750  2.2471  0.4927 -0.7802
  233TIP3   OH2  704   2.076   5.876   3.210 -1.0758 -0.2949 -0.1854
  233TIP3    H1  705   2.029   5.886   3.293  0.7560  0.0034  0.8790
  233TIP3    H2  706   2.015   5.908   3.143 -2.6874 -0.7739  1.0075
  234TIP3   OH2  707   5.209   2.308   1.224  0.3296  0.0821  0.0738
  234TIP3    H1  708   5.221   2.259   1.143 -2.9665  0.8952 -1.0705
  234TIP3    H2  709   5.264   2.385   1.215  2.5758 -1.4220  0.1810
  235TIP3   OH2  710   0.515   4.562   4.111 -0.1346 -0.0146  0.2257
  235TIP3    H1  711   0.457   4.606   4.174  1.0847  2.4147 -0.2386
  235TIP3    H2  712   0.577   4.513   4.166 -1.0725 -0.6398  0.7721
  236TIP3   OH2  713   0.708   3.269   4.898  0.5645  0.5587 -0.0994
  236TIP3    H1  714   0.651   3.260   4.822  0.7722  1.4993 -0.3777
  236TIP3    H2  715   0.776   3.203   4.885 -0.2615 -0.3377  0.0650
  237TIP3   OH2  716   6.329   2.906   2.644 -0.1818  0.2586  0.1757
  237TIP3    H1  717   6.400   2.848   2.619  1.6804  2.1947  0.6514
  237TIP3    H2  718   6.249   2.857   2.624  1.2321 -2.6569  1.0928
  238TIP3   OH2  719   2.379   0.384   5.042  0.2443  0.1994  0.5348
  238TIP3    H1  720   2.386   0.308   4.984  1.6383  0.5951  0.1385
  238TIP3    H2  721   2.285   0.402   5.047 -0.1765 -1.9127  1.1277
  239TIP3   OH2  722   4.135   2.485   4.487 -0.0426  0.3380 -0.2201
  239TIP3    H1  723   4.085   2.462   4.565  2.0176 -0.6354  0.8830
  239TIP3    H2  724   4.134   2.405   4.434  1.0689 -0.0117  0.2504
  240TIP3   OH2  725   0.520   2.513   4.723  0.2501  0.2014  0.1283
  240TIP3    H1  726   0.544   2.552   4.807 -0.0691 -0.5831  0.6074
  240TIP3    H2  727   0.428   2.488   4.735 -0.0100  0.7444 -0.7170
  241TIP3   OH2  728   4.408   3.979   3.364  0.1952 -0.6283  0.1156
  241TIP3    H1  729   4.314   3.993   3.373  0.1599 -1.0522  0.4653
  241TIP3    H2  730   4.421   3.887   3.388  0.7930 -0.3698  0.8520
  242TIP3   OH2  731   4.272   0.586   0.322  0.3357  0.3145  0.2135
  242TIP3    H1  732   4.181   0.615   0.329 -0.4774 -1.7806 -0.8107
  242TIP3    H2  733   4.284   0.568   0.228  1.7074  0.1829  0.3887
  243TIP3   OH2  734   6.097   3.161   1.161  0.1160  0.0122 -0.5251
  243TIP3    H1  735   6.045   3.134   1.085  0.8400 -2.4486 -0.2173
  243TIP3    H2  736   6.046   3.133   1.236  0.4957  0.3111 -0.1529
  244TIP3   OH2  737   2.667   4.303   0.334  0.2048 -0.2061  1.0005
  244TIP3    H1  738   2.756   4.277   0.356  0.7071 -0.2819 -0.8886
  244TIP3    H2  739   2.617   4.222   0.335  0.2801 -0.2441  1.5437
  245TIP3   OH2  740   6.004   5.604   1.600 -0.2077 -0.4090  0.0620
  245TIP3    H1  741   5.921   5.626   1.643 -0.9316 -1.8821 -0.4990
  245TIP3    H2  742   5.978   5.549   1.525  1.3226 -1.6188  0.3598
  246TIP3   OH2  743   3.215   3.308   1.811  0.0571  0.0083 -0.0822
  246TIP3    H1  744   3.265   3.237   1.853  1.6151  0.1094 -1.6673
  246TIP3    H2  745   3.248   3.388   1.852  2.6626  0.2395 -2.3050
  247TIP3   OH2  746   4.181   4.534   2.460  0.3485  0.1551  0.0493
  247TIP3    H1  747   4.142   4.475   2.396  0.2852  0.1558  0.0866
  247TIP3    H2  748   4.137   4.512   2.542 -0.0058  0.5779 -0.0288
  248TIP3   OH2  749   6.243   1.275   4.304 -0.0682  0.5351 -0.0227
  248TIP3    H1  750   6.235   1.276   4.400 -1.3230 -0.5797 -0.0848
  248TIP3    H2  751   6.308   1.206   4.287  2.2297  2.5322  0.0718
  249TIP3   OH2  752   2.279   2.238   4.748 -0.3404 -0.6813 -0.0924
  249TIP3    H1  753   2.335   2.176   4.701  0.6019  0.9215 -1.1868
  249TIP3    H2  754   2.323   2.251   4.832  1.1438  0.7584 -1.0420
  250TIP3   OH2  755   6.246   5.559   2.807  0.4078  0.0775  0.2237
  250TIP3    H1  756   6.229   5.643   2.765 -0.1072 -0.3642 -0.4918
  250TIP3    H2  757   6.270   5.581   2.897 -0.7910  0.9357  0.3591
  251TIP3   OH2  758   3.717   3.989   1.247 -0.0193  0.1924 -0.1594
  251TIP3    H1  759   3.682   4.060   1.301 -0.3546 -0.0391 -0.0679
  251TIP3    H2  760   3.757   3.929   1.310  0.8378  0.6136 -0.2895
  252TIP3   OH2  761   5.989   2.719   3.827  0.3687 -0.1781  0.9793
  252TIP3    H1  762   6.040   2.659   3.882 -0.9821 -1.8928  0.4523
  252TIP3    H2  763   5.899   2.688   3.834  0.1056 -0.4173 -2.0822
  253TIP3   OH2  764   6.160   1.211   0.012  0.1460 -0.1623 -0.2206
  253TIP3    H1  765   6.148   1.305   0.001  1.0454  0.0781  0.7306
  253TIP3    H2  766   6.103   1.187   0.085  0.9784 -0.0918  0.4593
  254TIP3   OH2  767   1.793   1.607   0.527 -0.0372  0.6914  0.3790
  254TIP3    H1  768   1.804   1.694   0.491  1.1787  0.5819  0.4600
  254TIP3    H2  769   1.861   1.598   0.593  2.4804 -1.6687 -2.2485
  255TIP3   OH2  770   3.390   3.267   2.100  0.2102 -0.1705 -0.6373
  255TIP3    H1  771   3.355   3.206   2.165  3.8238 -1.0469  0.6852
  255TIP3    H2  772   3.457   3.217   2.054  0.5456  1.6895 -2.2816
  256TIP3   OH2  773   4.671   1.869   2.741  0.6568 -0.5891 -0.1810
  256TIP3    H1  774   4.749   1.864   2.797  1.0138  0.4012 -0.5724
  256TIP3    H2  775   4.625   1.786   2.757  2.6220 -1.9811 -1.1626
  257TIP3   OH2  776   0.593   5.897   3.164 -0.0857  0.0080  0.1628
  257TIP3    H1  777   0.676   5.936   3.136  0.0131 -0.1356  0.2505
  257TIP3    H2  778   0.620   5.825   3.222 -0.2522 -0.4925 -0.3739
  258TIP3   OH2  779   0.398   2.788   4.941  0.1189 -0.3092 -0.1645
  258TIP3    H1  780   0.458   2.857   4.969 -0.4796  0.2957 -0.3596
  258TIP3    H2  781   0.349   2.766   5.020 -2.0992  1.9248 -0.7952
  259TIP3   OH2  782   1.945   5.522   1.505 -0.8477 -0.4773 -0.0873
  259TIP3    H1  783   1.957   5.430   1.483 -1.7977 -0.5035 -0.5515
  259TIP3    H2  784   2.024   5.565   1.474 -0.9579 -0.9400 -1.0330
  260TIP3   OH2  785   2.602   1.559   0.272  0.4595  0.1506  0.0744
  260TIP3    H1  786   2.619   1.534   0.181  2.8922  1.0465  0.1943
  260TIP3    H2  787   2.560   1.645   0.265 -0.3062 -0.2413 -0.2100
  261TIP3   OH2  788   3.110   1.266  -0.008 -0.2431 -0.0206 -0.1470
  261TIP3    H1  789   3.066   1.181  -0.005  0.2515 -0.3569 -1.7069
  261TIP3    H2  790   3.155   1.273   0.076 -1.5549 -0.5815  0.6424
  262TIP3   OH2  791   0.508   5.495   0.935 -0.1736  0.1747  0.4592
  262TIP3    H1  792   0.423   5.528   0.905 -0.6001  0.3335  1.7808
  262TIP3    H2  793   0.555   5.474   0.854 -1.3918  0.2619 -0.3048
  263TIP3   OH2  794   3.508   4.505   2.864  0.1305  0.1498  0.0700
  263TIP3    H1  795   3.451   4.460   2.926 -1.6240  2.1328 -0.0069
  263TIP3    H2  796   3.480   4.473   2.778 -0.6408  0.8499  0.0543
  264TIP3   OH2  797   1.239   0.126   5.087 -0.0585  0.3270 -0.2148
  264TIP3    H1  798   1.259   0.141   5.180  1.6202  0.9927 -0.6345
  264TIP3    H2  799   1.208   0.211   5.056 -1.0134 -0.0047 -0.1781
  265TIP3   OH2  800   1.962   3.238   4.088 -0.0638 -0.1367  0.1827
  265TIP3    H1  801   1.964   3.143   4.100  0.0828 -0.2109 -0.3847
  265TIP3    H2  802   2.001   3.252   4.002  1.0546  0.5348  0.7809
  266TIP3   OH2  803   4.946   5.354   0.138  0.2037  0.1163 -0.1266
  266TIP3    H1  804   4.963   5.386   0.226  0.9749  1.2812 -0.6796
  266TIP3    H2  805   5.001   5.277   0.129  0.9889  0.6533  0.0214
  267TIP3   OH2  806   1.449   4.706   1.755 -0.2756 -0.0550 -0.1249
  267TIP3    H1  807   1.443   4.696   1.660  2.1323 -0.3702 -0.3132
  267TIP3    H2  808   1.508   4.780   1.768 -0.7268  0.1133  1.1380
  268TIP3   OH2  809   4.900   5.320   1.215 -0.1313  0.1344 -0.1031
  268TIP3    H1  810   4.863   5.242   1.174  1.2973 -1.5927  1.6928
  268TIP3    H2  811   4.994   5.300   1.225  0.0011  1.3872  1.7925
  269TIP3   OH2  812   5.240   5.223   0.096 -0.2932  0.0430  0.2514
  269TIP3    H1  813   5.213   5.140   0.136 -2.1057  1.5741  2.4914
  269TIP3    H2  814   5.176   5.237   0.026 -1.3840  0.5570  1.3191
  270TIP3   OH2  815   4.231   5.946   0.609 -0.0316  0.2033 -0.2671
  270TIP3    H1  816   4.260   5.865   0.565  2.0380  1.2204 -0.8816
  270TIP3    H2  817   4.201   5.916   0.695  0.2325 -1.2819 -0.6491
  271TIP3   OH2  818   3.780   3.656   2.360  0.9102  0.0770 -0.0060
  271TIP3    H1  819   3.862   3.679   2.315  0.3448 -1.5279 -1.9745
  271TIP3    H2  820   3.729   3.737   2.360  1.9945  0.7788  0.1266
  272TIP3   OH2  821   2.047   3.560   0.984  0.4074 -0.2208 -0.0439
  272TIP3    H1  822   2.107   3.588   0.915 -0.8189 -0.8894 -1.4321
  272TIP3    H2  823   1.975   3.623   0.980  0.5878  0.0880  1.0618
  273TIP3   OH2  824   0.213   5.369   1.454 -0.3559 -0.1839 -0.1909
  273TIP3    H1  825   0.134   5.389   1.505  0.5539 -0.8214  1.5774
  273TIP3    H2  826   0.181   5.316   1.381 -1.7137  0.6938 -0.2718
  274TIP3   OH2  827   2.970   5.384   1.274 -0.2413 -0.0588  0.7316
  274TIP3    H1  828   2.942   5.294   1.290  0.4201 -0.2921  0.6032
  274TIP3    H2  829   2.923   5.410   1.195  0.2830 -0.6145  0.2349
  275TIP3   OH2  830   1.359   0.291   3.045  0.0242  0.0762 -0.4743
  275TIP3    H1  831   1.379   0.240   2.967  1.1649  0.1176 -0.2249
  275TIP3    H2  832   1.287   0.244   3.087  0.1270 -0.5414 -0.9805
  276TIP3   OH2  833   3.851   2.928   2.336 -0.0377 -0.0700  0.0061
  276TIP3    H1  834   3.792   3.000   2.357  0.2620  0.4055 -0.7256
  276TIP3    H2  835   3.805   2.850   2.364 -0.4647  0.3873  0.6116
  277TIP3   OH2  836   4.597   1.889   4.982  0.1654  0.3087 -0.0739
  277TIP3    H1  837   4.638   1.810   5.018  0.5276  0.8323  0.6797
  277TIP3    H2  838   4.517   1.857   4.939  0.3735 -0.4801  0.1060
  278TIP3   OH2  839   1.436   5.224   1.012  0.5860 -0.3184  0.4522
  278TIP3    H1  840   1.505   5.163   1.036  0.7142 -0.2224  0.3314
  278TIP3    H2  841   1.420   5.275   1.092 -0.1397 -1.0963  0.8095
  279TIP3   OH2  842   0.299   1.157   2.759  0.0159 -0.1917 -0.6051
  279TIP3    H1  843   0.231   1.212   2.797 -0.3637 -0.6811 -0.5499
  279TIP3    H2  844   0.379   1.207   2.767 -0.1043 -0.1753  0.5915
  280TIP3   OH2  845   1.023   1.557   4.398  0.0735  0.0675 -0.4751
  280TIP3    H1  846   1.017   1.523   4.309 -1.2459  3.2606 -1.7580
  280TIP3    H2  847   0.953   1.513   4.445 -0.2307 -0.5244 -1.4446
  281TIP3   OH2  848   1.841   5.563   2.981  0.0927  0.0218 -0.0450
  281TIP3    H1  849   1.795   5.486   2.948  0.3895 -0.1861  0.0253
  281TIP3    H2  850   1.930   5.532   2.998 -0.2449 -0.0910  1.7249
  282TIP3   OH2  851   1.989   0.177   0.859 -0.0198  0.5665  0.7321
  282TIP3    H1  852   1.978   0.152   0.950  0.6036  0.1074  0.6866
  282TIP3    H2  853   2.074   0.221   0.856 -0.8324  2.2154  0.7045
  283TIP3   OH2  854   1.034   1.096   4.794 -0.2239 -0.3675  0.0757
  283TIP3    H1  855   1.067   1.029   4.853 -0.6547  0.2915  1.1009
  283TIP3    H2  856   0.973   1.148   4.848  1.4777  1.9931 -0.1038
  284TIP3   OH2  857   5.923   4.312   1.908 -0.2428 -0.7098 -0.1419
  284TIP3    H1  858   5.929   4.263   1.827  1.8426  1.4992 -1.4772
  284TIP3    H2  859   5.852   4.374   1.894 -0.0338 -0.4843 -0.2259
  285TIP3   OH2  860   5.736   3.532   4.917  0.4513  0.1708 -0.1493
  285TIP3    H1  861   5.772   3.538   4.829  0.3021 -0.5331 -0.2607
  285TIP3    H2  862   5.757   3.617   4.957  2.9771 -0.4658  0.0776
  286TIP3   OH2  863   4.878   2.617   4.145  0.3536  0.2789 -0.3122
  286TIP3    H1  864   4.812   2.568   4.192 -0.3200  0.2701 -1.2427
  286TIP3    H2  865   4.960   2.599   4.192 -0.0682 -0.8164  0.0285
  287TIP3   OH2  866   2.725   0.334   4.383  0.0724 -0.0345  0.3060
  287TIP3    H1  867   2.647   0.303   4.337 -1.2885  1.1661  1.6863
  287TIP3    H2  868   2.765   0.254   4.418 -0.6374 -0.6597 -0.2587
  288TIP3   OH2  869   0.568   0.652   2.254  0.0520  0.2228 -0.6871
  288TIP3    H1  870   0.550   0.625   2.163 -1.0882  2.9336 -1.3738
  288TIP3    H2  871   0.497   0.612   2.304 -3.3757  3.7528 -2.1115
  289TIP3   OH2  872   3.001   0.373   4.811  0.0779 -0.1638 -0.0531
  289TIP3    H1  873   2.912   0.378   4.846 -0.1289 -0.5957 -0.4978
  289TIP3    H2  874   3.041   0.301   4.859 -0.0702 -0.4797 -0.3931
  290TIP3   OH2  875   3.672   0.898   3.227  0.0649 -0.2975 -0.2734
  290TIP3    H1  876   3.752   0.946   3.248  0.1852 -0.6865  0.1579
  290TIP3    H2  877   3.687   0.809   3.258 -0.7782 -0.2231  0.3976
  291TIP3   OH2  878   3.551   1.168   0.164  0.4920 -0.4870  0.3652
  291TIP3    H1  879   3.622   1.169   0.100  1.0407  2.0905  0.8721
  291TIP3    H2  880   3.587   1.121   0.239  1.0664 -0.6553 -0.0084
  292TIP3   OH2  881   3.372   3.139   1.480 -0.3432  0.8364  0.0575
  292TIP3    H1  882   3.427   3.172   1.551  1.8748  1.5122 -1.8684
  292TIP3    H2  883   3.378   3.044   1.487  0.8182  0.9056  0.0658
  293TIP3   OH2  884   2.413   5.092   0.561 -0.5092 -0.5108  0.2698
  293TIP3    H1  885   2.413   5.016   0.503  0.4342 -0.1237 -0.2569
  293TIP3    H2  886   2.485   5.147   0.529 -0.6025  0.1775  1.1973
  294TIP3   OH2  887   0.459   1.198   0.172  0.5901 -0.5116  0.4155
  294TIP3    H1  888   0.478   1.117   0.219  1.5848 -0.4413  0.1424
  294TIP3    H2  889   0.543   1.242   0.165  0.2434  0.0430 -0.3864
  295TIP3   OH2  890   1.731   0.590   2.535  0.5528  0.0758 -0.3573
  295TIP3    H1  891   1.811   0.638   2.513  0.8512 -0.7958 -1.2359
  295TIP3    H2  892   1.687   0.577   2.451  0.3139 -0.8961 -0.0876
  296TIP3   OH2  893   2.090   4.979   0.170  0.0488 -0.1740 -0.1568
  296TIP3    H1  894   2.089   4.986   0.265 -0.0737 -0.3877 -0.1411
  296TIP3    H2  895   1.998   4.965   0.146 -0.4217  2.8310 -0.5512
  297TIP3   OH2  896   6.216   3.539   1.857  0.8902 -0.0510  0.0396
  297TIP3    H1  897   6.270   3.617   1.850 -2.0152  2.2763  1.4576
  297TIP3    H2  898   6.248   3.494   1.935  1.9606  0.1930 -0.2437
  298TIP3   OH2  899   3.102   5.323   0.373  0.0463 -0.4201  0.4295
  298TIP3    H1  900   3.150   5.259   0.320  0.5292 -1.5968  2.1656
  298TIP3    H2  901   3.012   5.317   0.341  0.5064 -0.2981 -0.9544
  299TIP3   OH2  902   6.097   5.372   1.823  0.0811  0.3053  0.0713
  299TIP3    H1  903   6.061   5.404   1.905  1.7354  2.6240 -0.0129
  299TIP3    H2  904   6.087   5.446   1.762  1.1819 -0.4549 -1.0804
  300TIP3   OH2  905   6.152   4.381   0.761 -0.2451  0.3358  0.6068
  300TIP3    H1  906   6.161   4.384   0.666 -0.1975  0.3386  0.6114
  300TIP3    H2  907   6.242   4.380   0.794 -0.2593  0.8429  0.6679
  301TIP3   OH2  908   2.220   3.281   3.613  0.2967  0.4332 -0.5732
  301TIP3    H1  909   2.295   3.264   3.671 -0.6489 -0.2690  0.4976
  301TIP3    H2  910   2.229   3.217   3.543  0.8514  0.5381 -0.6018
  302TIP3   OH2  911   4.151   3.030   3.753  0.7415 -0.6945  0.0010
  302TIP3    H1  912   4.216   3.021   3.683 -0.2937  0.6178 -1.1762
  302TIP3    H2  913   4.129   3.123   3.753 -0.4873 -0.9651  0.9923
  303TIP3   OH2  914   4.201   4.825   1.629  0.1331 -0.3780  0.0379
  303TIP3    H1  915   4.205   4.903   1.574 -2.9892 -0.3483 -0.3270
  303TIP3    H2  916   4.253   4.846   1.706  1.4013  1.0599 -1.1611
  304TIP3   OH2  917   0.267   1.452   1.181 -0.0993  0.2506  0.6107
  304TIP3    H1  918   0.357   1.447   1.213 -0.4617 -1.5645  1.4277
  304TIP3    H2  919   0.213   1.442   1.259 -1.0035 -1.0943 -0.1566
  305TIP3   OH2  920   1.514   2.115   0.934 -0.5760 -0.2412 -0.6003
  305TIP3    H1  921   1.455   2.072   0.996  0.6905 -0.3923  0.5537
  305TIP3    H2  922   1.521   2.205   0.966  1.5791 -0.7896  0.7136
  306TIP3   OH2  923   3.916   1.386   3.090  0.5641 -0.1425 -0.2554
  306TIP3    H1  924   3.892   1.405   2.999 -0.1662 -0.3022 -0.1001
  306TIP3    H2  925   3.994   1.331   3.083  0.8902  0.3752 -0.7701
  307TIP3   OH2  926   2.614   5.453   4.328 -0.8197  0.7117 -0.1968
  307TIP3    H1  927   2.659   5.434   4.246  0.7801  1.1222  0.5520
  307TIP3    H2  928   2.659   5.530   4.362 -0.5536 -0.2420  1.7240
  308TIP3   OH2  929   5.819   0.250   0.620  0.2392 -0.1566  0.4744
  308TIP3    H1  930   5.748   0.225   0.679  0.0626  1.7466  1.1301
  308TIP3    H2  931   5.789   0.224   0.533 -1.0843  0.2476  0.7958
  309TIP3   OH2  932   1.074   1.423   1.079 -0.4139 -0.5841 -0.0513
  309TIP3    H1  933   1.099   1.388   1.164 -0.0619  0.3212  0.2222
  309TIP3    H2  934   1.069   1.517   1.092 -4.0028 -0.6366 -0.0601
  310TIP3   OH2  935   0.537   4.583   2.665 -0.1554  0.2688 -0.0407
  310TIP3    H1  936   0.470   4.608   2.729  0.0912  0.4761  0.1396
  310TIP3    H2  937   0.578   4.506   2.704 -2.1601 -1.6523 -1.4526
  311TIP3   OH2  938   2.489   4.538   1.370  0.2163 -0.4924 -0.6092
  311TIP3    H1  939   2.469   4.620   1.414  1.0321 -0.1996 -0.7720
  311TIP3    H2  940   2.577   4.515   1.400  0.5272 -0.6188 -1.5718
  312TIP3   OH2  941   0.168   2.855   3.757  0.1837  0.0271 -0.3546
  312TIP3    H1  942   0.193   2.943   3.731  0.3291 -0.4655 -2.0004
  312TIP3    H2  943   0.079   2.863   3.792  0.0162  0.7427 -0.9394
  313TIP3   OH2  944   1.397   4.094   4.923  0.0396  0.0405 -0.0411
  313TIP3    H1  945   1.310   4.086   4.883  0.0204 -1.5795  0.2462
  313TIP3    H2  946   1.442   4.013   4.899  1.5599  0.9240 -0.3351
  314TIP3   OH2  947   2.055   2.806   3.581 -0.2029 -0.0647 -0.2536
  314TIP3    H1  948   1.972   2.770   3.612  0.1671 -0.2853  0.5045
  314TIP3    H2  949   2.117   2.734   3.589 -0.1240 -0.1698 -1.6728
  315TIP3   OH2  950   2.094   2.193   3.573 -0.0587 -0.7239 -0.2423
  315TIP3    H1  951   2.014   2.171   3.621 -0.0345 -0.8704 -0.2692
  315TIP3    H2  952   2.138   2.109   3.559 -0.5287 -0.8084 -1.3496
  316TIP3   OH2  953   2.615   3.020   2.431 -0.6203 -0.1652 -0.1934
  316TIP3    H1  954   2.599   3.019   2.337 -0.9096 -1.2007 -0.1543
  316TIP3    H2  955   2.594   2.931   2.459  0.2378 -0.0980  0.7227
  317TIP3   OH2  956   2.760   5.686   3.403  0.0801  0.0255 -0.0036
  317TIP3    H1  957   2.665   5.696   3.396 -0.2990 -2.6345  0.2188
  317TIP3    H2  958   2.789   5.760   3.457 -1.6364  1.6635 -1.2136
  318TIP3   OH2  959   1.681   2.505   2.884  0.1810  0.2666 -0.2396
  318TIP3    H1  960   1.640   2.591   2.879  0.9749  0.6219 -0.8284
  318TIP3    H2  961   1.752   2.508   2.819 -0.2296 -1.0772 -0.7812
  319TIP3   OH2  962   0.879   2.647   0.684  0.1711  0.0816 -0.1631
  319TIP3    H1  963   0.851   2.713   0.747  2.4419  1.5352 -0.5541
  319TIP3    H2  964   0.890   2.695   0.602  0.6787 -1.0335 -0.7829
  320TIP3   OH2  965   3.792   2.592   1.309  0.4599 -0.6977  0.2889
  320TIP3    H1  966   3.827   2.547   1.386 -1.2685 -1.2824  0.7641
  320TIP3    H2  967   3.736   2.661   1.344  0.7672 -0.0423 -0.4575
  321TIP3   OH2  968   2.544   5.903   0.901 -0.1661  0.4888  0.2835
  321TIP3    H1  969   2.607   5.863   0.961  0.2307  1.4493  0.5268
  321TIP3    H2  970   2.599   5.951   0.839 -0.5902 -0.1651 -0.6155
  322TIP3   OH2  971   3.296   4.482   5.156 -0.3190 -0.6760  0.1591
  322TIP3    H1  972   3.307   4.543   5.083 -2.5918  1.1200  1.2157
  322TIP3    H2  973   3.376   4.428   5.153  0.8251  0.9388 -2.0922
  323TIP3   OH2  974   4.368   4.477   4.265  0.8693 -0.0466 -0.5248
  323TIP3    H1  975   4.366   4.384   4.287 -0.6689  0.2364  0.6763
  323TIP3    H2  976   4.365   4.478   4.169 -0.7077 -1.2279 -0.5242
  324TIP3   OH2  977   1.267   0.513   4.139  0.1391  0.0934 -0.0059
  324TIP3    H1  978   1.196   0.469   4.092  0.0034 -0.4225  0.6708
  324TIP3    H2  979   1.261   0.479   4.229 -0.0138  1.5328  0.5586
  325TIP3   OH2  980   4.559   4.696   1.426  0.1309  0.2772 -0.0977
  325TIP3    H1  981   4.496   4.655   1.485  0.6059  1.7501  1.5115
  325TIP3    H2  982   4.638   4.706   1.478  0.9970  0.4565 -1.4084
  326TIP3   OH2  983   5.313   0.640   2.791 -0.3673 -0.2676  0.1705
  326TIP3    H1  984   5.316   0.652   2.886 -0.6388  0.2833  0.1119
  326TIP3    H2  985   5.398   0.601   2.769 -0.4757 -0.8165  0.6924
  327TIP3   OH2  986   4.934   3.104   2.004 -0.1204  0.8943  0.3597
  327TIP3    H1  987   4.956   3.139   1.918 -2.7236 -1.2126 -1.3104
  327TIP3    H2  988   4.843   3.130   2.018 -1.3480 -2.7372  0.1630
  328TIP3   OH2  989   1.329   1.102   1.151 -0.0732 -0.0154  0.0939
  328TIP3    H1  990   1.277   1.077   1.227  1.7206  0.8649  1.6849
  328TIP3    H2  991   1.354   1.193   1.167  0.4197  0.1662 -1.5124
  329TIP3   OH2  992   0.246   1.973   0.092 -0.3082  0.6874  0.1226
  329TIP3    H1  993   0.189   1.975   0.169 -0.0307  0.1212  0.3431
  329TIP3    H2  994   0.188   1.943   0.021 -0.0471 -0.9862  0.5690
  330TIP3   OH2  995   5.143   2.655   1.296 -0.0954  0.0904  0.3783
  330TIP3    H1  996   5.136   2.656   1.201  0.8116 -2.7460  0.1958
  330TIP3    H2  997   5.232   2.625   1.314 -0.7416 -0.9482  2.0953
  331TIP3   OH2  998   4.979   3.454   2.322 -0.5683  0.0410  0.0105
  331TIP3    H1  999   5.003   3.484   2.234  0.8354  1.9455  0.9849
  331TIP3    H2 1000   5.062   3.443   2.368 -1.2309 -1.9076  0.8425
  332TIP3   OH2 1001   4.128   1.377   2.757  0.0494  0.8693  0.2039
  332TIP3    H1 1002   4.132   1.353   2.850 -1.4803  1.1251  0.3773
  332TIP3    H2 1003   4.156   1.299   2.710 -1.7110 -0.2079  0.8369
  333TIP3   OH2 1004   0.512   1.880   5.207  0.0675  0.3715  0.3817
  333TIP3    H1 1005   0.428   1.896   5.165 -0.3032  1.6021  1.5099
  333TIP3    H2 1006   0.554   1.812   5.154 -1.1711  0.5203 -0.8199
  334TIP3   OH2 1007   5.035   0.646   3.621  0.4740  0.6277  0.0262
  334TIP3    H1 1008   5.095   0.615   3.689  2.1191  2.2175 -0.6398
  334TIP3    H2 1009   4.986   0.568   3.596  1.1300 -0.3912  1.7143
  335TIP3   OH2 1010   5.060   3.280   0.824  0.1652  0.2679  0.2999
  335TIP3    H1 1011   5.097   3.226   0.895  0.4741 -0.6617 -0.5351
  335TIP3    H2 1012   4.970   3.296   0.850 -0.5110 -2.2010 -0.2138
  336TIP3   OH2 1013   4.266   0.963   0.653 -0.3429  1.0822 -0.2228
  336TIP3    H1 1014   4.354   0.998   0.637  0.1484 -0.1708 -0.3723
  336TIP3    H2 1015   4.259   0.889   0.593 -1.4338  1.0339 -0.0516
  337TIP3   OH2 1016   5.578   4.997   2.643 -0.1068 -0.5802  0.1522
  337TIP3    H1 1017   5.627   4.934   2.697 -0.1998  1.2406  2.5277
  337TIP3    H2 1018   5.629   5.004   2.562  1.5151 -1.5144  1.0291
  338TIP3   OH2 1019   2.342   1.462   0.704 -0.4440 -0.5753 -0.1833
  338TIP3    H1 1020   2.437   1.454   0.699 -0.1144  2.3305 -0.0634
  338TIP3    H2 1021   2.324   1.474   0.797 -0.7276  0.5819 -0.3786
  339TIP3   OH2 1022   2.883   4.094   4.118 -0.1222 -0.5823  0.4417
  339TIP3    H1 1023   2.973   4.070   4.139  0.4135  1.5771  0.8421
  339TIP3    H2 1024   2.835   4.081   4.200  0.7539  2.2511  1.5040
  340TIP3   OH2 1025   0.478   2.488   5.151 -0.4009 -0.3301 -0.3756
  340TIP3    H1 1026   0.569   2.459   5.158 -0.9123 -1.9574  0.1922
  340TIP3    H2 1027   0.440   2.431   5.083 -1.1853 -0.2454 -0.0229
  341TIP3   OH2 1028   1.339   4.500   3.935 -0.1389 -0.2594 -0.0111
  341TIP3    H1 1029   1.259   4.532   3.978  0.9765  0.8040  1.3990
  341TIP3    H2 1030   1.336   4.405   3.947 -0.4098 -0.0894  1.5115
  342TIP3   OH2 1031   3.456   2.415   5.143  0.5411 -0.4284 -0.4171
  342TIP3    H1 1032   3.416   2.487   5.094  1.4479 -1.3684 -2.6597
  342TIP3    H2 1033   3.401   2.406   5.221 -1.3037  0.8181 -1.4932
  343TIP3   OH2 1034   2.709   4.774   4.414 -0.1773  0.5410 -0.2116
  343TIP3    H1 1035   2.789   4.756   4.463 -0.9604  0.5875  1.1220
  343TIP3    H2 1036   2.739   4.790   4.324  1.2515  0.0700  0.1563
  344TIP3   OH2 1037   3.377   1.340   4.967 -0.0092 -0.0737  0.3234
  344TIP3    H1 1038   3.293   1.381   4.946  0.6808  1.0691 -0.3078
  344TIP3    H2 1039   3.410   1.389   5.042 -0.1670 -0.9048  0.9475
  345TIP3   OH2 1040   0.173   3.614   2.862 -0.1459 -0.1589  0.3587
  345TIP3    H1 1041   0.231   3.537   2.866 -2.8127 -2.3499 -0.1344
  345TIP3    H2 1042   0.135   3.620   2.949 -0.2729  0.3396  0.2716
  346TIP3   OH2 1043   1.639   5.362   3.916 -0.7059  0.3336  0.2481
  346TIP3    H1 1044   1.570   5.416   3.877  1.2389  2.6807 -0.1894
  346TIP3    H2 1045   1.696   5.424   3.959 -0.8835 -1.8627  4.0610
  347TIP3   OH2 1046   5.928   3.041   2.248 -0.7857 -0.5541 -0.6015
  347TIP3    H1 1047   5.921   3.133   2.272 -1.6319 -0.4008 -1.3793
  347TIP3    H2 1048   5.889   2.995   2.323 -0.7919 -0.2513 -0.4148
  348TIP3   OH2 1049   4.132   5.893   4.094 -0.3223  0.1463 -0.0633
  348TIP3    H1 1050   4.092   5.818   4.049  0.4307  0.0410 -0.5902
  348TIP3    H2 1051   4.096   5.889   4.182  0.7379 -1.6986  0.3533
  349TIP3   OH2 1052   6.334   3.340   4.176 -0.3675 -0.5463 -0.3082
  349TIP3    H1 1053   6.349   3.305   4.088 -1.6001  0.1355 -0.8187
  349TIP3    H2 1054   6.265   3.406   4.164 -0.2599 -0.1430  1.1075
  350TIP3   OH2 1055   1.355   2.165   3.858  0.3368 -0.2849  0.3155
  350TIP3    H1 1056   1.276   2.210   3.887  0.9827  0.7567  0.5222
  350TIP3    H2 1057   1.324   2.081   3.824 -0.9310  0.4197 -0.3385
  351TIP3   OH2 1058   2.473   4.777   5.054  0.4582  0.1650 -0.1061
  351TIP3    H1 1059   2.520   4.809   5.130 -0.0705 -1.4212  0.9391
  351TIP3    H2 1060   2.476   4.682   5.061 -1.8022 -0.0205 -0.6535
  352TIP3   OH2 1061   4.330   5.289   2.433  0.4381  0.0455  0.1091
  352TIP3    H1 1062   4.363   5.291   2.343  0.6109 -0.7748  0.1470
  352TIP3    H2 1063   4.292   5.376   2.446 -2.1364 -0.6840 -1.7096
  353TIP3   OH2 1064   6.155   4.947   3.853  0.0580  0.0178 -0.0671
  353TIP3    H1 1065   6.140   5.024   3.908  0.5742  1.0739 -1.3663
  353TIP3    H2 1066   6.090   4.884   3.884 -0.6374  1.0935  0.7697
  354TIP3   OH2 1067   2.587   0.377   3.500 -0.6304 -0.1063  0.2193
  354TIP3    H1 1068   2.611   0.285   3.489  0.0427 -0.0214  0.8910
  354TIP3    H2 1069   2.491   0.377   3.497 -0.6559 -0.9037  0.6702
  355TIP3   OH2 1070   4.845   0.812   0.189 -0.2274  0.1999  0.7014
  355TIP3    H1 1071   4.824   0.760   0.266  0.7395 -1.2823  0.0185
  355TIP3    H2 1072   4.777   0.789   0.125 -0.0993  0.1737  0.5733
  356TIP3   OH2 1073   0.588   4.012   3.137 -0.2759  0.1451  0.6342
  356TIP3    H1 1074   0.626   3.998   3.224 -0.0958 -0.2364  0.4954
  356TIP3    H2 1075   0.534   4.091   3.147  1.4258  1.3685  0.5670
  357TIP3   OH2 1076   3.422   4.572   2.048  0.4405 -0.2713  0.0701
  357TIP3    H1 1077   3.467   4.643   2.002  0.1619 -0.7937 -1.0369
  357TIP3    H2 1078   3.331   4.579   2.019  0.3512 -0.9011  0.1890
  358TIP3   OH2 1079   1.321   3.402   3.178 -0.1453 -0.1336 -1.0469
  358TIP3    H1 1080   1.316   3.399   3.274  2.8640 -1.5410 -0.7900
  358TIP3    H2 1081   1.343   3.493   3.157 -0.4594  0.1005 -0.3728
  359TIP3   OH2 1082   0.956   5.980   3.359  0.2379  0.2164  0.4284
  359TIP3    H1 1083   0.903   5.959   3.282 -0.4756  0.2902  0.9002
  359TIP3    H2 1084   0.903   5.955   3.434  0.1972  1.7765  0.9548
  360TIP3   OH2 1085   1.154   5.396   1.671 -0.1258  0.0479  0.4319
  360TIP3    H1 1086   1.124   5.466   1.613  0.2087  0.4083  0.6850
  360TIP3    H2 1087   1.102   5.408   1.751 -0.7477 -0.5848  0.1366
  361TIP3   OH2 1088   1.873  -0.023   0.670  0.6735  0.0487  0.1253
  361TIP3    H1 1089   1.915   0.040   0.730  0.1981  1.0608 -0.5785
  361TIP3    H2 1090   1.884   0.016   0.583  0.8292 -1.1155 -0.3971
  362TIP3   OH2 1091   0.511   4.118   4.559  0.0439 -0.5099 -0.1631
  362TIP3    H1 1092   0.450   4.170   4.506  0.6116  0.4046  0.0515
  362TIP3    H2 1093   0.456   4.079   4.627 -0.2182  0.8425  0.4283
  363TIP3   OH2 1094   1.369   3.629   4.813  0.4620 -0.4286 -0.0923
  363TIP3    H1 1095   1.404   3.540   4.815 -0.2300 -0.7305 -0.7937
  363TIP3    H2 1096   1.288   3.624   4.864  1.3188  0.2263  1.3819
  364TIP3   OH2 1097   4.862   4.586   2.682 -0.1524  0.2876 -0.5037
  364TIP3    H1 1098   4.787   4.581   2.742  0.5697 -0.7648  0.3541
  364TIP3    H2 1099   4.895   4.675   2.693 -1.2015  0.7357 -0.8208
  365TIP3   OH2 1100   4.271   4.920   2.620 -0.3316  0.1105  0.4627
  365TIP3    H1 1101   4.247   4.870   2.542 -0.6628  0.1285  0.5509
  365TIP3    H2 1102   4.360   4.951   2.602 -0.2717 -0.1841  0.2444
  366TIP3   OH2 1103   3.835   5.900   1.587 -0.2998 -0.0194  0.2254
  366TIP3    H1 1104   3.845   5.921   1.494  2.5714 -2.8186 -0.2699
  366TIP3    H2 1105   3.740   5.894   1.600 -0.8312  1.7167 -2.1467
  367TIP3   OH2 1106   0.328   1.192   4.825 -0.0605  0.3934 -0.2706
  367TIP3    H1 1107   0.351   1.283   4.807  1.5264 -0.0825 -0.7993
  367TIP3    H2 1108   0.344   1.182   4.919  1.1480  0.3001 -0.4733
  368TIP3   OH2 1109   4.544   0.007   2.041  0.1728 -0.5088 -0.2916
  368TIP3    H1 1110   4.466   0.057   2.065  0.7432  0.4267 -0.2878
  368TIP3    H2 1111   4.602   0.015   2.117  0.3528 -1.0252 -0.3709
  369TIP3   OH2 1112   1.519   4.427   3.008  0.5115 -0.5262 -0.4250
  369TIP3    H1 1113   1.611   4.405   2.995  0.3217 -0.7266 -1.6157
  369TIP3    H2 1114   1.487   4.363   3.070  0.8377 -1.3863 -1.1214
  370TIP3   OH2 1115   3.044   0.428   1.239 -0.1094  0.2630 -0.4276
  370TIP3    H1 1116   3.124   0.382   1.261  0.5975  1.3819 -0.5684
  370TIP3    H2 1117   2.984   0.408   1.311  0.0394 -1.1534 -0.6807
  371TIP3   OH2 1118   1.631   2.636   4.832 -0.0423  0.1332 -0.2668
  371TIP3    H1 1119   1.719   2.607   4.807 -0.5988 -0.4403 -1.7055
  371TIP3    H2 1120   1.607   2.700   4.765 -2.0192 -2.2483 -2.0565
  372TIP3   OH2 1121   4.570   4.313   0.881  0.6454  0.0992 -0.3965
  372TIP3    H1 1122   4.618   4.392   0.906  0.1044  0.0450  0.8673
  372TIP3    H2 1123   4.485   4.321   0.924 -0.5294  0.1780 -2.5654
  373TIP3   OH2 1124   5.790   5.981   2.746 -0.4974 -0.1641 -0.1165
  373TIP3    H1 1125   5.809   5.903   2.694  1.0082 -0.2907  0.5501
  373TIP3    H2 1126   5.742   6.039   2.687  1.1075 -0.3192 -1.6625
  374TIP3   OH2 1127   3.438   1.505   1.927 -0.3872  0.0038 -0.0205
  374TIP3    H1 1128   3.471   1.515   2.017  0.1061  0.8813 -0.2833
  374TIP3    H2 1129   3.483   1.427   1.895 -0.7517 -0.4591  0.5733
  375TIP3   OH2 1130   3.027   3.724   3.636  0.1274  0.2821 -0.2458
  375TIP3    H1 1131   3.084   3.758   3.567 -1.0848  0.3512 -1.2539
  375TIP3    H2 1132   2.942   3.764   3.618 -0.9397 -1.9338 -0.4370
  376TIP3   OH2 1133   2.662   1.836   3.192 -0.1294 -0.0529  0.2980
  376TIP3    H1 1134   2.720   1.803   3.123 -2.5763 -0.2673 -1.8163
  376TIP3    H2 1135   2.581   1.859   3.147 -0.6606  3.3549  2.5762
  377TIP3   OH2 1136   4.835   0.362   1.292 -0.0526 -0.0569  0.1723
  377TIP3    H1 1137   4.905   0.361   1.357  0.8930  0.4110 -0.8035
  377TIP3    H2 1138   4.872   0.411   1.218 -0.7758 -1.2964 -1.0555
  378TIP3   OH2 1139   0.929   5.634   4.533  0.1502  0.0488 -0.2306
  378TIP3    H1 1140   0.958   5.570   4.468  1.4235  0.2727  0.1039
  378TIP3    H2 1141   0.882   5.582   4.598  1.1097 -0.5489 -0.0021
  379TIP3   OH2 1142   1.975   4.053   1.613  0.2579  0.5007 -0.1516
  379TIP3    H1 1143   1.969   4.141   1.648 -2.2543  0.1294  0.5054
  379TIP3    H2 1144   2.040   4.060   1.542 -0.6253  3.0951 -0.8048
  380TIP3   OH2 1145   0.429   3.750   3.472 -0.6329 -0.1323 -0.1257
  380TIP3    H1 1146   0.433   3.739   3.377  1.6672 -3.0529  0.1865
  380TIP3    H2 1147   0.335   3.747   3.493 -1.1226 -0.4439 -2.1975
  381TIP3   OH2 1148   4.322   5.574   2.493  0.5744 -0.2324  0.2399
  381TIP3    H1 1149   4.340   5.538   2.580  0.6040 -0.0862  0.2930
  381TIP3    H2 1150   4.364   5.660   2.492 -0.6180  0.3702  0.5686
  382TIP3   OH2 1151   4.277   5.874   2.808 -0.0158 -0.2210 -0.5897
  382TIP3    H1 1152   4.235   5.838   2.886 -0.6034 -1.4091 -1.4172
  382TIP3    H2 1153   4.356   5.918   2.840 -1.4358  1.3647  0.9193
  383TIP3   OH2 1154   3.591   2.560   1.115  0.6283 -0.3523  0.1415
  383TIP3    H1 1155   3.660   2.566   1.182 -0.3278  0.9676  1.0506
  383TIP3    H2 1156   3.628   2.605   1.039  0.3173  1.5359  1.0559
  384TIP3   OH2 1157   3.000   1.809   0.713  0.2770  0.2917 -0.5448
  384TIP3    H1 1158   3.078   1.767   0.676  0.7568 -0.2090  0.9376
  384TIP3    H2 1159   2.958   1.740   0.764 -0.9199  0.6767 -0.9954
  385TIP3   OH2 1160   0.660   5.559   0.349  0.2736  0.1281 -0.4227
  385TIP3    H1 1161   0.700   5.603   0.424  0.2936  2.0181 -1.4729
  385TIP3    H2 1162   0.698   5.471   0.349  0.3841  0.1220  1.6573
  386TIP3   OH2 1163   2.251   0.238   0.796  0.1285  0.3966 -0.2644
  386TIP3    H1 1164   2.330   0.251   0.745  0.2303  0.5547 -0.0700
  386TIP3    H2 1165   2.243   0.318   0.849 -0.6332  0.7647 -0.9105
  387TIP3   OH2 1166   1.186   2.368   4.440  0.8101  0.2615  0.4151
  387TIP3    H1 1167   1.215   2.281   4.469  0.9377  0.5119  1.0507
  387TIP3    H2 1168   1.090   2.365   4.450  0.9775  0.9057  2.4824
  388TIP3   OH2 1169   4.281   0.611   1.172  0.0714 -0.0383  0.1832
  388TIP3    H1 1170   4.220   0.574   1.236 -0.1422 -0.5194 -0.2904
  388TIP3    H2 1171   4.366   0.575   1.195  0.4808  1.7693  1.7524
  389TIP3   OH2 1172   1.918   2.825   4.304 -0.5275 -0.1687  0.1070
  389TIP3    H1 1173   1.919   2.847   4.211 -0.9075 -0.6450 -0.0139
  389TIP3    H2 1174   2.010   2.823   4.329 -0.3220 -1.5741 -0.6398
  390TIP3   OH2 1175   0.960   2.354   0.719  0.2140  0.0387  0.6945
  390TIP3    H1 1176   0.932   2.446   0.727  0.5839  0.0016  2.8667
  390TIP3    H2 1177   1.045   2.359   0.675 -0.2053  0.6440 -0.0832
  391TIP3   OH2 1178   0.108   3.305   1.430 -0.4823 -0.4771  0.0285
  391TIP3    H1 1179   0.114   3.389   1.475  0.2779 -0.8419  0.6397
  391TIP3    H2 1180   0.193   3.296   1.386 -1.0794 -0.2863 -1.2178
  392TIP3   OH2 1181   4.566   0.691   1.508 -0.2140  0.0190  0.0061
  392TIP3    H1 1182   4.618   0.737   1.574  0.0066 -2.1904  1.4659
  392TIP3    H2 1183   4.475   0.707   1.532 -0.1319 -0.8505  0.9177
  393TIP3   OH2 1184   1.377   4.262   1.324  0.1732 -0.2031 -0.1599
  393TIP3    H1 1185   1.295   4.254   1.372 -0.8801 -1.3941 -2.0342
  393TIP3    H2 1186   1.410   4.173   1.319  0.7411  0.0346 -0.8074
  394TIP3   OH2 1187   3.359   4.897   5.133  0.0853  0.2818  0.3363
  394TIP3    H1 1188   3.416   4.954   5.081 -0.1524  1.7116  1.5923
  394TIP3    H2 1189   3.282   4.949   5.151  0.4802  0.1511  2.7675
  395TIP3   OH2 1190   0.085   2.882   5.025 -0.1777 -0.5403  0.4332
  395TIP3    H1 1191   0.039   2.843   4.950 -1.1348  0.2422  0.5978
  395TIP3    H2 1192   0.128   2.959   4.989 -0.5325 -0.2370  0.6465
  396TIP3   OH2 1193   4.872   4.349   2.512 -0.2102 -0.2078 -0.2865
  396TIP3    H1 1194   4.776   4.348   2.505 -0.2302  1.1654 -0.3367
  396TIP3    H2 1195   4.891   4.426   2.565  0.9024 -0.1792 -0.7183
  397TIP3   OH2 1196   2.388   3.396   4.564  0.2532 -0.2972 -0.4466
  397TIP3    H1 1197   2.351   3.312   4.591 -0.0084  0.1917  0.7842
  397TIP3    H2 1198   2.330   3.461   4.603  0.7649  0.4685 -0.9430
  398TIP3   OH2 1199   3.798   5.736   3.709 -0.3945 -0.0440  0.2698
  398TIP3    H1 1200   3.768   5.732   3.800 -0.4382 -1.5232  0.2227
  398TIP3    H2 1201   3.732   5.788   3.663  0.4867  2.1770  1.3722
  399TIP3   OH2 1202   4.509   0.588   4.883  0.0050 -0.0784 -0.2793
  399TIP3    H1 1203   4.597   0.565   4.915  0.1389  1.0348  0.1971
  399TIP3    H2 1204   4.469   0.504   4.861  0.9894 -0.6469  0.0355
  400TIP3   OH2 1205   1.740   1.488   1.629 -0.2354  0.0108  0.0904
  400TIP3    H1 1206   1.804   1.448   1.569 -1.1526 -2.6088  0.7322
  400TIP3    H2 1207   1.789   1.501   1.710 -0.1844 -0.8099  0.1953
  401TIP3   OH2 1208   0.444   4.373   2.033  0.0369 -0.1754 -0.0896
  401TIP3    H1 1209   0.489   4.419   1.962 -0.8556 -0.2741 -0.7363
  401TIP3    H2 1210   0.354   4.405   2.028 -0.2177 -0.7946  0.4793
  402TIP3   OH2 1211   5.956   0.574   2.379 -0.2034  0.0499 -0.0315
  402TIP3    H1 1212   6.036   0.534   2.344 -0.2164 -0.7587  0.8267
  402TIP3    H2 1213   5.977   0.667   2.385  0.8640 -0.2060  0.6349
  403TIP3   OH2 1214   5.402   0.607   4.744  0.1039 -0.0299 -0.2955
  403TIP3    H1 1215   5.328   0.630   4.688 -0.3549 -2.2208 -0.7000
  403TIP3    H2 1216   5.471   0.583   4.683  0.9035  1.1918  0.0911
  404TIP3   OH2 1217   0.015   0.872   4.015  0.3657  0.0629 -0.3162
  404TIP3    H1 1218   0.044   0.876   4.106 -0.6703  2.4083 -0.0230
  404TIP3    H2 1219   0.086   0.911   3.965 -0.2823  1.5669 -0.1203
  405TIP3   OH2 1220   6.198   1.671   2.607 -0.3656 -0.1100  0.7309
  405TIP3    H1 1221   6.170   1.730   2.537  3.1512 -1.2570 -1.9502
  405TIP3    H2 1222   6.130   1.605   2.612 -1.2467  0.6251 -0.8131
  406TIP3   OH2 1223   4.994   4.215   4.299 -0.0736 -0.3150 -0.1346
  406TIP3    H1 1224   4.903   4.243   4.311 -0.1930  0.0985 -1.7748
  406TIP3    H2 1225   4.989   4.119   4.302 -0.5620 -0.2964 -0.1912
  407TIP3   OH2 1226   0.783   2.634   1.049 -0.1077 -0.2290 -0.2247
  407TIP3    H1 1227   0.747   2.552   1.014  0.9716 -1.2320  0.8992
  407TIP3    H2 1228   0.875   2.633   1.021  0.6334 -0.7885  2.0699
  408TIP3   OH2 1229   3.112   3.036   0.458 -0.8821  0.0550 -0.5299
  408TIP3    H1 1230   3.179   3.042   0.389 -0.1009  1.0473  0.2788
  408TIP3    H2 1231   3.065   3.119   0.453 -0.8057  0.1453  0.1263
  409TIP3   OH2 1232   1.312   4.234   3.949 -0.1022  0.1246  0.5170
  409TIP3    H1 1233   1.303   4.222   4.044 -0.4620 -1.1801  0.3353
  409TIP3    H2 1234   1.259   4.163   3.911  0.3848  0.3759 -0.6580
  410TIP3   OH2 1235   3.461   3.259   1.247 -0.0701  0.5067  0.1720
  410TIP3    H1 1236   3.411   3.220   1.319 -1.7951  0.4308 -1.0035
  410TIP3    H2 1237   3.521   3.190   1.220 -0.8212 -0.1967  0.2484
  411TIP3   OH2 1238   1.588   3.361   1.026 -0.0402  0.1158  0.2408
  411TIP3    H1 1239   1.645   3.329   0.956  0.1975  0.7519  0.1366
  411TIP3    H2 1240   1.591   3.292   1.092 -1.8578 -1.4450 -1.1890
  412TIP3   OH2 1241   0.756   0.437   1.929  0.1839  0.5802  0.0373
  412TIP3    H1 1242   0.770   0.408   1.839  2.7730 -2.5883  1.2574
  412TIP3    H2 1243   0.841   0.473   1.956  0.0717 -0.3370  1.7453
  413TIP3   OH2 1244   6.025   1.467   1.043  0.3229 -0.1578  0.1510
  413TIP3    H1 1245   5.968   1.483   1.118 -0.2724  0.8580 -0.4957
  413TIP3    H2 1246   6.113   1.472   1.078  0.0461 -0.4918  0.9242
  414TIP3   OH2 1247   4.542   0.562   1.276  0.4335  0.2079 -0.2220
  414TIP3    H1 1248   4.555   0.595   1.365  1.6516 -0.2443 -0.2098
  414TIP3    H2 1249   4.626   0.577   1.233  0.0804 -0.2430 -1.0735
  415TIP3   OH2 1250   3.639   1.063   1.351 -0.2506  0.4227  0.2937
  415TIP3    H1 1251   3.703   1.004   1.313 -0.2878  0.5195  0.0805
  415TIP3    H2 1252   3.568   1.067   1.287  0.7335  2.4517 -0.7771
  416TIP3   OH2 1253   0.409   2.855   3.906 -0.3767 -0.3752 -0.4113
  416TIP3    H1 1254   0.339   2.796   3.878 -0.3841 -0.3299 -0.4881
  416TIP3    H2 1255   0.373   2.943   3.894  0.4803 -0.2637 -2.5981
  417TIP3   OH2 1256   2.943   1.153   0.777  0.3753  0.3655 -0.0289
  417TIP3    H1 1257   2.934   1.244   0.807  0.4115  1.1517 -2.2614
  417TIP3    H2 1258   2.857   1.114   0.794  0.5012  0.6237  1.3915
  418TIP3   OH2 1259   3.208   2.810   2.446 -0.7390 -0.0236  0.6545
  418TIP3    H1 1260   3.129   2.854   2.477 -0.0516  2.5585 -0.9707
  418TIP3    H2 1261   3.177   2.747   2.381 -1.4587  1.7438 -0.7968
  419TIP3   OH2 1262   2.015   2.970   2.593 -0.6711  0.4516 -0.5426
  419TIP3    H1 1263   1.932   3.016   2.609 -0.6229 -0.2208  2.3670
  419TIP3    H2 1264   1.996   2.879   2.616  0.4981  0.0006 -1.2907
  420TIP3   OH2 1265   3.712   5.479   3.812 -0.5602 -0.3462 -0.1826
  420TIP3    H1 1266   3.634   5.511   3.857 -0.9617  1.1035 -1.7974
  420TIP3    H2 1267   3.783   5.492   3.874 -0.7967  3.2610 -0.4837
  421TIP3   OH2 1268   4.271   2.183   3.808  0.0764  0.4983 -0.2714
  421TIP3    H1 1269   4.254   2.277   3.809 -1.5188  0.2552  1.0462
  421TIP3    H2 1270   4.232   2.151   3.890  4.3588 -0.7497  1.5135
  422TIP3   OH2 1271   4.045   5.590   2.422 -0.8479 -0.1172 -0.2416
  422TIP3    H1 1272   4.137   5.598   2.446 -0.5869 -0.7067 -0.9897
  422TIP3    H2 1273   3.997   5.606   2.503 -0.0993  0.4703  0.0943
  423TIP3   OH2 1274   2.049   0.135   4.534  0.6219  0.1205 -0.2097
  423TIP3    H1 1275   2.097   0.208   4.495  1.5684 -0.8096 -0.8356
  423TIP3    H2 1276   2.086   0.127   4.622 -0.2730  1.0866  0.2791
  424TIP3   OH2 1277   4.360   1.849   0.487 -0.8651 -0.4217  0.1390
  424TIP3    H1 1278   4.415   1.898   0.425 -0.3764 -0.6922  0.3477
  424TIP3    H2 1279   4.398   1.868   0.573 -0.8267 -0.9494  0.2440
  425TIP3   OH2 1280   3.801   0.579   0.839  0.6523  0.3095  0.4942
  425TIP3    H1 1281   3.781   0.518   0.768  0.7607  0.9201 -0.0719
  425TIP3    H2 1282   3.782   0.665   0.802  3.6729  0.9177  0.1001
  426TIP3   OH2 1283   4.284   1.156   2.634 -0.6318  0.4151  0.0718
  426TIP3    H1 1284   4.297   1.131   2.543  0.9456 -1.1621  0.6574
  426TIP3    H2 1285   4.263   1.073   2.678  0.3896  0.8383  1.4150
  427TIP3   OH2 1286   5.357   5.146   2.240 -0.5102 -0.8909  0.2468
  427TIP3    H1 1287   5.370   5.058   2.276 -1.8295 -1.4542 -0.5564
  427TIP3    H2 1288   5.364   5.204   2.316 -0.6650 -1.7946  0.9745
  428TIP3   OH2 1289   1.840   3.519   0.187 -0.0761  0.0910 -0.2309
  428TIP3    H1 1290   1.800   3.433   0.202  0.0176  0.2890  1.3166
  428TIP3    H2 1291   1.934   3.503   0.193 -0.0749  0.3971  0.7307
  429TIP3   OH2 1292   4.609   5.022   0.576 -0.2461  0.2731  0.4432
  429TIP3    H1 1293   4.665   4.973   0.516  0.3856  1.1216  0.3217
  429TIP3    H2 1294   4.520   5.011   0.540  0.1342  0.8810 -0.7323
  430TIP3   OH2 1295   0.191   0.230   1.473  0.4001  0.0458  0.1924
  430TIP3    H1 1296   0.205   0.184   1.391  0.0262  0.0550  0.1201
  430TIP3    H2 1297   0.169   0.320   1.448 -1.7933 -0.4197  0.1763
  431TIP3   OH2 1298   3.850   1.368   0.219  0.2488  0.1327 -0.3826
  431TIP3    H1 1299   3.888   1.452   0.194 -0.2825  0.9782  1.4547
  431TIP3    H2 1300   3.756   1.386   0.228 -0.1384 -1.1035 -1.6233
  432TIP3   OH2 1301   4.283   2.071   0.955 -0.3452  0.6321  0.7733
  432TIP3    H1 1302   4.187   2.074   0.962 -0.3952  1.4912 -0.0755
  432TIP3    H2 1303   4.313   2.152   0.994 -0.0708  1.0649 -0.3046
  433TIP3   OH2 1304   1.495   5.817   2.420 -0.3304 -0.2941  0.5170
  433TIP3    H1 1305   1.431   5.845   2.354 -0.6303 -2.0533 -0.0180
  433TIP3    H2 1306   1.576   5.860   2.395 -0.7947  0.2282 -0.1257
  434TIP3   OH2 1307   3.592   3.646   1.213  0.3604  0.3257 -0.5779
  434TIP3    H1 1308   3.525   3.625   1.148 -1.3568 -0.8979  1.4435
  434TIP3    H2 1309   3.561   3.727   1.254  0.5603  0.2199 -0.2119
  435TIP3   OH2 1310   2.223   1.924   3.270  0.3668 -0.0284 -0.4937
  435TIP3    H1 1311   2.134   1.950   3.295  0.6213  0.2827  0.1488
  435TIP3    H2 1312   2.278   1.994   3.307  0.7926  0.3450 -1.8014
  436TIP3   OH2 1313   2.318   2.444   4.571 -1.7042  0.3049  0.1459
  436TIP3    H1 1314   2.310   2.376   4.638  0.4519 -0.3524 -0.1743
  436TIP3    H2 1315   2.322   2.526   4.620 -2.3877  0.0508  0.6535
  437TIP3   OH2 1316   3.422   2.649   3.260  0.0154 -0.2047  0.7937
  437TIP3    H1 1317   3.395   2.679   3.173  2.0675 -1.5051 -0.3837
  437TIP3    H2 1318   3.365   2.574   3.278 -0.3619  0.0110  0.5101
  438TIP3   OH2 1319   4.392   0.949   1.503  0.5127 -0.2137 -0.2583
  438TIP3    H1 1320   4.349   0.969   1.586  0.0826  0.3863 -0.6185
  438TIP3    H2 1321   4.408   1.034   1.463 -1.6142 -0.5249 -1.9512
  439TIP3   OH2 1322   4.039   0.601   3.464  0.1174 -0.0722  0.2897
  439TIP3    H1 1323   4.025   0.508   3.478 -1.6345  0.3552  1.8166
  439TIP3    H2 1324   4.089   0.606   3.382 -0.6347 -2.2820 -0.3776
  440TIP3   OH2 1325   4.603   4.366   3.834  1.0017 -0.0380  0.6606
  440TIP3    H1 1326   4.538   4.301   3.809 -0.5669  0.9545  1.9444
  440TIP3    H2 1327   4.660   4.373   3.757  0.3309 -1.8070 -0.0590
  441TIP3   OH2 1328   1.464   0.873   4.978  0.2366 -0.2359  0.1055
  441TIP3    H1 1329   1.452   0.945   4.916  0.3851  0.2087  0.5854
  441TIP3    H2 1330   1.476   0.916   5.063  1.6545 -0.7655  0.2030
  442TIP3   OH2 1331   5.381   4.665   4.733  0.2028 -0.0281 -0.3006
  442TIP3    H1 1332   5.431   4.595   4.775 -0.8997 -0.0369  1.0886
  442TIP3    H2 1333   5.367   4.636   4.643 -0.4078 -1.7061  0.3049
  443TIP3   OH2 1334   6.317   2.721   4.795  0.0585 -0.3580 -0.2495
  443TIP3    H1 1335   6.333   2.758   4.708  1.0982 -2.2196 -0.9033
  443TIP3    H2 1336   6.318   2.626   4.781 -1.2175 -0.6754  1.5603
  444TIP3   OH2 1337   0.070   4.603   1.816 -0.0591 -0.6174 -0.0793
  444TIP3    H1 1338  -0.025   4.609   1.826  0.0771  2.6272  0.2991
  444TIP3    H2 1339   0.099   4.694   1.807  2.8969 -1.5814 -1.5644
  445TIP3   OH2 1340   5.990   1.503   4.831 -0.1479 -0.4417  0.0229
  445TIP3    H1 1341   6.025   1.445   4.764  0.0326 -1.6155  1.1104
  445TIP3    H2 1342   5.995   1.453   4.912 -2.8313 -0.0672  0.5063
  446TIP3   OH2 1343   2.059   3.711   0.042 -0.1397  0.3207  0.1333
  446TIP3    H1 1344   2.080   3.619   0.029 -1.7526 -0.5559  2.9794
  446TIP3    H2 1345   2.122   3.741   0.108 -1.2270  0.4987  1.1142
  447TIP3   OH2 1346   5.256   3.573   2.778  0.1785  0.2866  0.1645
  447TIP3    H1 1347   5.231   3.532   2.695  0.0059  0.0984  0.3092
  447TIP3    H2 1348   5.306   3.651   2.752 -0.2322  0.4574 -0.1231
  448TIP3   OH2 1349   4.107   4.255   0.573  0.1310  0.4753  0.2114
  448TIP3    H1 1350   4.090   4.161   0.565 -0.1936  0.4792  0.8248
  448TIP3    H2 1351   4.196   4.266   0.538  0.2862 -0.1049  0.4135
  449TIP3   OH2 1352   3.230   2.253   0.743 -0.1948  0.2177 -0.6062
  449TIP3    H1 1353   3.264   2.273   0.655 -0.3757 -1.5968 -1.1358
  449TIP3    H2 1354   3.162   2.188   0.727 -0.7731  0.4411  0.8422
  450TIP3   OH2 1355   3.359   2.883   1.585 -0.3692 -0.1654 -0.7035
  450TIP3    H1 1356   3.310   2.928   1.654 -1.1435 -1.4245 -0.3839
  450TIP3    H2 1357   3.435   2.846   1.630 -0.4817 -0.3556 -0.6658
  451TIP3   OH2 1358   1.708   5.946   3.673  0.0314 -0.0243 -0.2507
  451TIP3    H1 1359   1.623   5.960   3.631 -0.6289  0.3113  1.1352
  451TIP3    H2 1360   1.722   5.852   3.669 -1.9245 -0.5054  2.2574
  452TIP3   OH2 1361   0.230   5.047   4.407  0.5192 -0.0872  0.1944
  452TIP3    H1 1362   0.291   5.028   4.478 -2.1366 -1.5226  2.2805
  452TIP3    H2 1363   0.172   5.114   4.443 -0.6324 -0.5486 -0.7518
  453TIP3   OH2 1364   0.786   0.747   3.468  0.7238 -0.1366 -1.0290
  453TIP3    H1 1365   0.744   0.661   3.478 -1.5255  1.0160  0.1763
  453TIP3    H2 1366   0.875   0.726   3.440  0.2457 -2.8564 -0.8639
  454TIP3   OH2 1367   2.697   4.911   3.265 -0.5528 -0.0144 -0.1574
  454TIP3    H1 1368   2.639   4.869   3.202  0.6661 -1.7365 -0.2127
  454TIP3    H2 1369   2.662   4.884   3.350 -0.8762  0.4360 -0.1463
  455TIP3   OH2 1370   4.082   5.347   1.653 -0.8193 -0.1361  0.3176
  455TIP3    H1 1371   4.053   5.305   1.734 -0.8451  0.9009  0.8682
  455TIP3    H2 1372   4.005   5.344   1.596 -0.5146 -1.7506 -0.0740
  456TIP3   OH2 1373   6.359   3.369   4.877  0.0733 -0.1701 -0.1354
  456TIP3    H1 1374   6.400   3.436   4.931  2.1745 -0.2707 -1.5243
  456TIP3    H2 1375   6.267   3.396   4.870  0.1963  0.8868  1.8006
  457TIP3   OH2 1376   1.284   5.670   0.420 -0.1031  0.3026 -0.8747
  457TIP3    H1 1377   1.349   5.701   0.483  0.4173 -0.2400 -1.1316
  457TIP3    H2 1378   1.334   5.655   0.340 -0.7430  0.9237 -1.4041
  458TIP3   OH2 1379   1.594   2.551   0.647 -0.4335  0.6563  0.1877
  458TIP3    H1 1380   1.546   2.612   0.704 -1.4187  0.3032 -0.2295
  458TIP3    H2 1381   1.671   2.525   0.697 -0.3981  1.6580  0.6712
  459TIP3   OH2 1382   6.163   0.639   2.644 -0.2828 -0.4347  0.3161
  459TIP3    H1 1383   6.170   0.545   2.631  1.1236 -0.6081  1.9132
  459TIP3    H2 1384   6.203   0.677   2.566  0.2307 -1.1817  0.2047
  460TIP3   OH2 1385   2.916   1.621   0.113  0.1010 -0.0941  0.0975
  460TIP3    H1 1386   2.939   1.628   0.206 -3.6360  3.1242  1.0272
  460TIP3    H2 1387   2.951   1.701   0.074 -0.6303 -0.1323 -0.6676
  461TIP3   OH2 1388   1.241   0.623   1.900  0.0973 -0.3649 -0.1557
  461TIP3    H1 1389   1.234   0.582   1.814 -0.3446 -1.3389  0.3301
  461TIP3    H2 1390   1.290   0.560   1.953 -1.7446 -0.9158  0.9866
  462TIP3   OH2 1391   5.025   0.073   3.381 -0.2885  0.0372 -0.3429
  462TIP3    H1 1392   5.091   0.105   3.319 -1.0712  1.1732 -0.6200
  462TIP3    H2 1393   4.943   0.111   3.350 -0.4713  2.0925  2.3203
  463TIP3   OH2 1394   1.824   0.176   4.782 -0.5687  0.2151  0.5446
  463TIP3    H1 1395   1.744   0.157   4.831 -0.3782 -0.7422  0.4970
  463TIP3    H2 1396   1.806   0.146   4.693 -0.4071  0.6630  0.3563
  464TIP3   OH2 1397   3.364   4.591   4.775  0.6850  0.2326  0.0090
  464TIP3    H1 1398   3.380   4.497   4.784  1.0612  0.2015 -0.8491
  464TIP3    H2 1399   3.398   4.629   4.856  0.5726 -0.3605  0.3418
  465TIP3   OH2 1400   2.609   3.611   3.970 -0.6029 -0.0213 -0.0240
  465TIP3    H1 1401   2.575   3.539   4.024  1.1087 -0.1250  1.0070
  465TIP3    H2 1402   2.660   3.568   3.901 -1.4475  0.1586 -0.7687
  466TIP3   OH2 1403   4.961   0.326   4.733  0.1451  0.4004 -0.3462
  466TIP3    H1 1404   5.050   0.347   4.703 -0.7684  0.8362 -3.0245
  466TIP3    H2 1405   4.971   0.243   4.779  1.8007 -0.0761 -1.4640
  467TIP3   OH2 1406   0.072   2.077   3.475 -0.0898  0.0156  0.2105
  467TIP3    H1 1407  -0.001   2.033   3.518 -1.2320  1.3797 -0.2516
  467TIP3    H2 1408   0.095   2.149   3.534  0.7359 -0.2545  0.2363
  468TIP3   OH2 1409   6.183   5.738   2.486 -0.3842 -0.1249 -0.2702
  468TIP3    H1 1410   6.089   5.721   2.480 -0.5252  0.3148  0.6195
  468TIP3    H2 1411   6.224   5.652   2.471 -0.7931  0.0662 -3.1079
  469TIP3   OH2 1412   1.226   3.983   0.738  0.2252  0.3021  0.0877
  469TIP3    H1 1413   1.312   3.940   0.741 -0.3212 -0.8857 -0.7907
  469TIP3    H2 1414   1.192   3.973   0.827 -0.0168 -1.3895 -0.1622
  470TIP3   OH2 1415   0.823   0.079   2.005  0.1488  0.1861 -0.0173
  470TIP3    H1 1416   0.911   0.059   1.974 -0.5803  0.9876 -2.8985
  470TIP3    H2 1417   0.831   0.081   2.100  3.4587  1.1670 -0.1938
  471TIP3   OH2 1418   3.094   4.577   2.503  0.0608 -0.2306  0.4719
  471TIP3    H1 1419   3.052   4.510   2.450  0.3470 -0.6122  0.7222
  471TIP3    H2 1420   3.182   4.543   2.520 -0.3508 -0.5912  2.0348
  472TIP3   OH2 1421   3.556   4.811   1.971  0.1726  0.1477  0.4094
  472TIP3    H1 1422   3.554   4.854   1.885  1.5267  0.3717  0.4711
  472TIP3    H2 1423   3.499   4.866   2.026  1.8130  1.9131  0.4657
  473TIP3   OH2 1424   0.591   2.422   1.400  0.4979 -0.4229 -0.1252
  473TIP3    H1 1425   0.536   2.456   1.470  0.9924 -0.5245  0.3136
  473TIP3    H2 1426   0.602   2.496   1.340  0.2536 -0.2737  0.0127
  474TIP3   OH2 1427   4.820   4.099   3.489 -0.2476 -0.0879 -0.1659
  474TIP3    H1 1428   4.740   4.080   3.537 -0.3456 -2.7772 -1.2052
  474TIP3    H2 1429   4.792   4.114   3.399  0.3303  0.0930 -0.3268
  475TIP3   OH2 1430   2.243   5.348   2.274 -0.4271  0.4344  0.5701
  475TIP3    H1 1431   2.334   5.350   2.304 -0.9563  0.0901  2.3035
  475TIP3    H2 1432   2.239   5.276   2.211  0.1918 -0.5340  1.6022
  476TIP3   OH2 1433   5.565   4.601   3.394 -0.0242 -0.1258 -0.0581
  476TIP3    H1 1434   5.490   4.541   3.392 -0.0961 -0.0718 -2.2947
  476TIP3    H2 1435   5.538   4.674   3.338  1.0362  0.7683  0.5585
  477TIP3   OH2 1436   5.497   1.211   3.784  0.1092 -0.7217  0.3400
  477TIP3    H1 1437   5.582   1.179   3.753  0.6595  1.3137 -0.4547
  477TIP3    H2 1438   5.475   1.283   3.724 -0.7035  0.7877  2.3086
  478TIP3   OH2 1439   0.220   0.110   2.519  0.0823 -0.2641 -0.3909
  478TIP3    H1 1440   0.208   0.015   2.519 -5.0709  0.1104 -0.1337
  478TIP3    H2 1441   0.218   0.135   2.612  2.2421  0.1362 -0.4030
  479TIP3   OH2 1442   0.593   3.395   3.608  0.0302  0.5410 -0.3252
  479TIP3    H1 1443   0.636   3.348   3.537 -1.1523 -1.2290  0.0870
  479TIP3    H2 1444   0.554   3.327   3.663 -2.2935  1.9717 -0.0452
  480TIP3   OH2 1445   0.627   4.200   1.619 -0.6655 -0.3408 -0.0565
  480TIP3    H1 1446   0.580   4.152   1.687 -0.7173 -1.6680 -0.9926
  480TIP3    H2 1447   0.698   4.245   1.665 -1.7249  0.1954  1.1076
  481TIP3   OH2 1448   3.663   1.984   0.398  0.9490 -0.1194 -0.3122
  481TIP3    H1 1449   3.577   1.947   0.415  0.5621  0.5381 -0.7627
  481TIP3    H2 1450   3.698   2.005   0.484 -0.6925  2.5603 -0.1774
  482TIP3   OH2 1451   4.412   3.595   2.393  0.5703  0.0798 -0.5163
  482TIP3    H1 1452   4.424   3.613   2.486  1.1923 -0.1757 -0.5473
  482TIP3    H2 1453   4.399   3.500   2.389 -0.8104  0.2503 -0.5528
  483TIP3   OH2 1454   4.207   2.210   0.107 -0.0363  0.2114 -0.3536
  483TIP3    H1 1455   4.177   2.126   0.142 -0.9685  0.1131 -1.3125
  483TIP3    H2 1456   4.226   2.264   0.184  0.3718 -0.7971  0.2734
  484TIP3   OH2 1457   2.542   2.796   2.795 -0.4016  0.2052 -0.0764
  484TIP3    H1 1458   2.601   2.779   2.721 -1.2055  0.6234 -0.8267
  484TIP3    H2 1459   2.457   2.763   2.767 -0.3818 -1.1484  1.3186
  485TIP3   OH2 1460   3.706   2.079   1.524  0.0791  0.0698  0.4163
  485TIP3    H1 1461   3.707   1.992   1.563  2.2550 -0.8271 -1.4683
  485TIP3    H2 1462   3.674   2.066   1.435 -1.3874  1.5279  0.6872
  486TIP3   OH2 1463   6.059   3.887   0.693  0.2786 -0.6059  0.5789
  486TIP3    H1 1464   6.015   3.852   0.615  1.2946 -0.5097 -0.0522
  486TIP3    H2 1465   5.987   3.910   0.752 -0.5887  0.6229 -0.8688
  487TIP3   OH2 1466   1.488   0.340   0.466  0.3268 -0.2026  0.2333
  487TIP3    H1 1467   1.433   0.418   0.463  2.0528  1.0848  0.5453
  487TIP3    H2 1468   1.498   0.322   0.559  0.9334 -0.0481  0.1993
  488TIP3   OH2 1469   2.569   0.216   0.760 -0.3901 -0.1683  0.0334
  488TIP3    H1 1470   2.659   0.248   0.764  0.5296 -2.6045  0.7272
  488TIP3    H2 1471   2.571   0.150   0.691 -1.0849 -1.7218  1.4337
  489TIP3   OH2 1472   1.066   3.125   2.771  0.5816  0.5188 -0.2926
  489TIP3    H1 1473   1.113   3.046   2.744 -0.7489 -1.3195  2.2586
  489TIP3    H2 1474   0.992   3.132   2.711 -1.6347 -2.7446  1.7223
  490TIP3   OH2 1475   0.694   2.109   2.781 -0.0342 -0.8485  0.1069
  490TIP3    H1 1476   0.677   2.016   2.791 -0.9849 -0.5985  1.1882
  490TIP3    H2 1477   0.786   2.115   2.756  0.0871 -2.0630  0.2075
  491TIP3   OH2 1478   0.349   0.193   0.749 -0.3344 -0.4488  0.0622
  491TIP3    H1 1479   0.324   0.105   0.720 -2.5954  0.1346  0.0013
  491TIP3    H2 1480   0.347   0.189   0.845  1.5476 -0.9308  0.1168
  492TIP3   OH2 1481   0.418   1.133   0.595 -0.5638  0.6861 -0.1506
  492TIP3    H1 1482   0.485   1.078   0.554 -1.1240 -1.8833  2.0815
  492TIP3    H2 1483   0.365   1.166   0.521  2.5295  2.1718 -1.9160
  493TIP3   OH2 1484   1.815   3.684   1.428  0.4348 -0.6942 -0.6393
  493TIP3    H1 1485   1.870   3.606   1.432  1.1739 -0.2951 -2.0834
  493TIP3    H2 1486   1.761   3.671   1.350  0.1730 -0.0174 -0.5788
  494TIP3   OH2 1487   5.415   3.277   0.446  0.0408  0.2908  0.2429
  494TIP3    H1 1488   5.366   3.360   0.446 -1.2231 -0.3852 -1.5507
  494TIP3    H2 1489   5.466   3.280   0.364  0.5573 -0.4025  0.5305
  495TIP3   OH2 1490   4.565   1.852   2.496  0.1358 -0.2628 -0.9031
  495TIP3    H1 1491   4.621   1.884   2.567 -0.0863  0.0068 -0.8470
  495TIP3    H2 1492   4.545   1.761   2.521  0.3147 -0.2697 -0.7804
  496TIP3   OH2 1493   4.015   3.450   4.004  0.2238 -0.3502  0.1842
  496TIP3    H1 1494   4.064   3.476   4.082 -0.9226 -0.7917  1.0906
  496TIP3    H2 1495   3.957   3.524   3.987 -2.1477 -1.6626  2.0122
  497TIP3   OH2 1496   0.467   4.124   0.590  0.0878 -0.4250 -0.0955
  497TIP3    H1 1497   0.381   4.098   0.556  0.0580  0.5115 -0.7703
  497TIP3    H2 1498   0.448   4.176   0.668 -0.0709  1.1691 -1.1430
  498TIP3   OH2 1499   0.158   5.090   3.941 -0.0639  0.2177  0.0022
  498TIP3    H1 1500   0.178   5.126   4.027 -0.1444 -2.8899  1.4410
  498TIP3    H2 1501   0.211   5.011   3.935 -0.6214 -0.0534 -2.5288
  499TIP3   OH2 1502   4.515   5.530   4.405 -0.2708 -0.0714  0.6860
  499TIP3    H1 1503   4.588   5.488   4.360 -0.4196  0.2261  0.1627
  499TIP3    H2 1504   4.460   5.458   4.435 -1.2070 -0.2772 -1.3282
  500TIP3   OH2 1505   5.605   1.626   3.428  0.5807 -0.4543 -0.2331
  500TIP3    H1 1506   5.683   1.601   3.476 -0.4486  0.7633  2.2287
  500TIP3    H2 1507   5.532   1.598   3.484 -0.6934  0.6407 -1.2747
  501TIP3   OH2 1508   5.081   0.281   2.303  0.2519 -0.4656  0.0310
  501TIP3    H1 1509   5.160   0.330   2.278  0.6326 -0.2555  1.5825
  501TIP3    H2 1510   5.093   0.195   2.263  0.4939  0.0648 -1.0853
  502TIP3   OH2 1511   3.953   4.800   1.834  0.6763  0.3409 -0.2825
  502TIP3    H1 1512   4.023   4.787   1.770  2.4146 -2.9993  1.9831
  502TIP3    H2 1513   3.995   4.845   1.907 -0.7905  2.3767 -0.6157
  503TIP3   OH2 1514   2.148   1.963   1.893  0.3699  0.2602 -0.5981
  503TIP3    H1 1515   2.064   1.987   1.931  0.4135  0.9548 -0.9275
  503TIP3    H2 1516   2.180   1.891   1.948 -0.0355  0.5666  0.0465
  504TIP3   OH2 1517   1.067   4.569   4.078 -0.1185  0.3821  0.4167
  504TIP3    H1 1518   1.049   4.507   4.007 -0.7076 -0.2562  1.1041
  504TIP3    H2 1519   0.988   4.567   4.132 -0.0792  1.6199  0.5410
  505TIP3   OH2 1520   4.538   4.810   1.832  0.0285 -0.5977  0.0375
  505TIP3    H1 1521   4.606   4.820   1.899  0.1721 -0.1213 -0.1754
  505TIP3    H2 1522   4.576   4.751   1.767  0.8343  0.8150 -0.8302
  506TIP3   OH2 1523   2.277   1.350   1.219  0.7685 -0.5124 -0.2446
  506TIP3    H1 1524   2.283   1.394   1.135  1.5248  0.1550  0.1415
  506TIP3    H2 1525   2.195   1.301   1.215  0.6056 -0.1773 -1.2156
  507TIP3   OH2 1526   1.067   4.429   4.949 -0.7241  0.0747  0.1869
  507TIP3    H1 1527   1.062   4.348   5.001  1.0429  0.4012  0.9253
  507TIP3    H2 1528   1.112   4.404   4.869  0.3857  0.4165  0.6814
  508TIP3   OH2 1529   5.944   0.762   3.020  0.1613 -0.1661 -0.1189
  508TIP3    H1 1530   6.019   0.733   2.969  1.3425 -0.3328  1.6256
  508TIP3    H2 1531   5.968   0.744   3.111 -2.0870 -0.4515  0.4988
  509TIP3   OH2 1532   5.672   1.982   1.306 -0.1417 -0.2633 -0.2879
  509TIP3    H1 1533   5.726   1.975   1.227 -0.9588 -1.4460 -0.7716
  509TIP3    H2 1534   5.654   2.075   1.314  2.3936  0.2731  0.2080
  510TIP3   OH2 1535   5.105   0.918   0.203 -0.5429  0.6214 -0.3112
  510TIP3    H1 1536   5.120   0.868   0.283 -0.0169 -0.9119 -1.3115
  510TIP3    H2 1537   5.017   0.893   0.175 -0.7000  1.0982 -0.2408
  511TIP3   OH2 1538   3.160   2.681   0.340  0.0985  1.0161 -0.0044
  511TIP3    H1 1539   3.194   2.650   0.257  1.0039  0.6767  0.4817
  511TIP3    H2 1540   3.126   2.769   0.321  0.6676  1.1065 -0.6423
  512TIP3   OH2 1541   4.202   3.782   0.897 -0.0843  0.1073  0.3261
  512TIP3    H1 1542   4.197   3.728   0.976  2.3496  0.8984  1.1109
  512TIP3    H2 1543   4.187   3.721   0.825  0.6351 -1.2430  1.2792
  513TIP3   OH2 1544   5.192   1.744   3.462 -0.1171  0.0733  0.3300
  513TIP3    H1 1545   5.101   1.718   3.476  0.0350 -0.8833 -0.3676
  513TIP3    H2 1546   5.187   1.836   3.436 -0.8378  0.1631  0.7552
  514TIP3   OH2 1547   4.821   0.206   0.515 -0.6457 -0.2840 -0.4814
  514TIP3    H1 1548   4.744   0.263   0.512 -0.0310  0.5680 -0.4323
  514TIP3    H2 1549   4.834   0.188   0.608 -0.8582 -0.5498 -0.4990
  515TIP3   OH2 1550   0.526   2.927   3.050  0.1860  0.1294 -0.4772
  515TIP3    H1 1551   0.438   2.945   3.082  0.6540 -0.0652  0.9771
  515TIP3    H2 1552   0.512   2.871   2.973 -0.9319 -1.2566  0.6741
  516TIP3   OH2 1553   4.829   3.641   4.856 -0.1012  0.1230 -0.4659
  516TIP3    H1 1554   4.814   3.554   4.893  0.0174  0.6799  0.9740
  516TIP3    H2 1555   4.912   3.633   4.809  0.7015 -0.1878  0.9441
  517TIP3   OH2 1556   5.027   1.983   2.281 -0.4376  0.1158  0.5412
  517TIP3    H1 1557   5.024   1.889   2.261  1.2738  0.0731  0.3234
  517TIP3    H2 1558   5.038   1.986   2.376  1.6955 -0.0238  0.3551
  518TIP3   OH2 1559   1.308   5.597   2.723  0.5460 -0.2550  0.2070
  518TIP3    H1 1560   1.401   5.620   2.729  0.3133  1.1161 -0.9017
  518TIP3    H2 1561   1.263   5.681   2.731 -0.6250 -0.9572  1.1339
  519TIP3   OH2 1562   5.557   2.016   2.164  0.3041  0.2225  0.2486
  519TIP3    H1 1563   5.596   2.017   2.077  0.3028  2.2885  0.2231
  519TIP3    H2 1564   5.511   2.100   2.171 -0.3067 -0.2117  1.9725
  520TIP3   OH2 1565   5.909   5.296   1.651 -0.1249 -0.0374  0.1106
  520TIP3    H1 1566   5.984   5.307   1.709  0.7833  0.2326 -1.0732
  520TIP3    H2 1567   5.945   5.256   1.572 -1.3024 -0.2735 -0.3266
  521TIP3   OH2 1568   6.094   2.831   4.410  0.0421 -0.0827  0.5598
  521TIP3    H1 1569   6.162   2.769   4.381 -0.0846  1.0175 -2.4246
  521TIP3    H2 1570   6.143   2.901   4.454  0.4379 -1.0377  1.6775
  522TIP3   OH2 1571   1.427   2.921   4.851  0.2512 -0.4854 -0.3217
  522TIP3    H1 1572   1.522   2.925   4.843  0.2654 -0.4972 -0.1606
  522TIP3    H2 1573   1.411   2.849   4.911  0.0863 -1.3487 -1.3673
  523TIP3   OH2 1574   0.603   2.040   3.143 -0.7297 -0.3751 -0.2750
  523TIP3    H1 1575   0.604   2.003   3.231  0.3821  0.6592  0.1841
  523TIP3    H2 1576   0.685   2.010   3.103 -0.4096  0.5362 -0.3340
  524TIP3   OH2 1577   3.030   3.508   2.060  0.0803 -0.2991  0.3184
  524TIP3    H1 1578   2.999   3.449   1.991  1.6658  0.5326 -1.1939
  524TIP3    H2 1579   3.037   3.453   2.137  0.4505 -1.8327 -0.7669
  525TIP3   OH2 1580   1.191   2.258   0.959  0.0223  0.2626  0.0229
  525TIP3    H1 1581   1.186   2.303   0.874  0.9235  0.6264  0.1571
  525TIP3    H2 1582   1.173   2.327   1.023 -2.4782 -0.3581  0.0889
  526TIP3   OH2 1583   4.716   1.866   2.205  0.2289  0.4964  0.1315
  526TIP3    H1 1584   4.623   1.888   2.212  0.0869  0.0393 -0.2731
  526TIP3    H2 1585   4.723   1.778   2.242  0.5914  0.7321  0.6397
  527TIP3   OH2 1586   2.337   4.808   4.351  0.0556  0.0671  0.7361
  527TIP3    H1 1587   2.284   4.731   4.372 -0.4110 -0.0680 -0.8221
  527TIP3    H2 1588   2.279   4.864   4.299  1.2422  0.1762 -0.5211
  528TIP3   OH2 1589   3.080   5.740   1.045  0.1531 -0.2758 -0.2148
  528TIP3    H1 1590   3.101   5.696   1.128 -0.5839 -0.8757 -0.3379
  528TIP3    H2 1591   3.111   5.680   0.977 -0.8475 -0.6207 -0.3836
  529TIP3   OH2 1592   0.678   2.720   4.622 -0.1003 -0.3843 -0.0372
  529TIP3    H1 1593   0.757   2.708   4.674  0.4471  1.7292 -0.2912
  529TIP3    H2 1594   0.617   2.654   4.655  1.0052 -0.6000  1.6830
  530TIP3   OH2 1595   2.435   4.781   1.511 -0.3243 -0.1425 -0.4860
  530TIP3    H1 1596   2.348   4.819   1.524  0.1207  0.7596 -0.0957
  530TIP3    H2 1597   2.472   4.773   1.599  0.2009 -0.0110 -0.6902
  531TIP3   OH2 1598   4.887   4.336   3.750  0.5509  0.5214  0.1374
  531TIP3    H1 1599   4.976   4.304   3.733 -0.1669 -1.5551 -0.0270
  531TIP3    H2 1600   4.849   4.347   3.663  0.4250  0.7182  0.2176
  532TIP3   OH2 1601   6.216   2.440   4.378  0.1557 -0.4023 -0.2117
  532TIP3    H1 1602   6.224   2.356   4.333  1.1387 -0.4942  0.1129
  532TIP3    H2 1603   6.213   2.418   4.471  0.1843 -0.0960 -0.1370
  533TIP3   OH2 1604   4.823   2.074   3.869 -0.0023  0.5666  0.1981
  533TIP3    H1 1605   4.848   2.118   3.950 -1.1211  0.8816  0.3958
  533TIP3    H2 1606   4.792   2.144   3.811  0.3628  0.2942 -0.3366
  534TIP3   OH2 1607   4.852   1.988   1.999 -0.8765  0.0447  0.2553
  534TIP3    H1 1608   4.854   1.950   2.087  2.3121 -0.7455 -0.0238
  534TIP3    H2 1609   4.863   2.082   2.013  0.1254 -0.1257  0.7453
  535TIP3   OH2 1610   1.357   0.926   4.525 -0.3796  0.2907 -0.6229
  535TIP3    H1 1611   1.294   0.974   4.578 -0.6747  1.5306 -2.0277
  535TIP3    H2 1612   1.347   0.962   4.437  0.9323 -0.8511 -1.2842
  536TIP3   OH2 1613   1.187   0.293   2.393 -0.4132 -0.1415  0.4621
  536TIP3    H1 1614   1.148   0.278   2.479  1.1998 -0.8767  1.1077
  536TIP3    H2 1615   1.263   0.348   2.411  0.3968 -0.9654 -0.3709
  537TIP3   OH2 1616   3.502   0.241   0.667 -0.7449 -0.1929  0.5654
  537TIP3    H1 1617   3.415   0.240   0.626  0.5504  0.4359 -2.4520
  537TIP3    H2 1618   3.531   0.150   0.663 -1.2327 -0.4106  1.6106
  538TIP3   OH2 1619   5.249   1.085   2.094 -0.1064 -0.1084 -0.3120
  538TIP3    H1 1620   5.314   1.149   2.122  0.9985 -1.6124  0.6737
  538TIP3    H2 1621   5.180   1.090   2.160  1.3875 -1.9762  1.5096
  539TIP3   OH2 1622   0.815   4.036   3.669  0.4728 -0.1352 -0.0898
  539TIP3    H1 1623   0.849   3.971   3.608 -0.6996  0.7588 -1.7780
  539TIP3    H2 1624   0.788   3.985   3.746  1.6481 -1.3348 -0.4424
  540TIP3   OH2 1625   5.252   4.121   1.459  0.0041 -0.3105  0.2823
  540TIP3    H1 1626   5.159   4.146   1.459 -0.6811 -2.5747  1.0527
  540TIP3    H2 1627   5.265   4.079   1.375  0.2236 -0.3440  0.3338
  541TIP3   OH2 1628   0.050   1.293   2.767 -0.1296 -0.0097  0.0842
  541TIP3    H1 1629   0.047   1.328   2.678  1.1875  1.0204  0.4186
  541TIP3    H2 1630  -0.042   1.278   2.790 -0.7125  2.3228 -0.4479
  542TIP3   OH2 1631   0.335   4.795   0.144  0.0391 -0.0212  0.3123
  542TIP3    H1 1632   0.393   4.858   0.187 -0.1758  1.1741 -1.0896
  542TIP3    H2 1633   0.250   4.838   0.142  0.3072  0.5854 -2.4316
  543TIP3   OH2 1634   5.954   4.937  -0.010  0.3712 -0.2143 -0.0523
  543TIP3    H1 1635   5.894   4.999   0.031  0.9045 -0.1960  0.7234
  543TIP3    H2 1636   6.039   4.982  -0.011  0.5967 -0.6345 -0.1912
  544TIP3   OH2 1637   0.188   2.976   4.341  0.4621 -0.4095 -0.5303
  544TIP3    H1 1638   0.158   2.885   4.344  0.3744 -0.3779 -0.4442
  544TIP3    H2 1639   0.174   3.003   4.250 -0.7864 -0.0519 -0.2437
  545TIP3   OH2 1640   4.688   1.662   4.721 -0.0722  0.4625  0.1376
  545TIP3    H1 1641   4.670   1.717   4.797  1.5927  0.4746  0.5586
  545TIP3    H2 1642   4.782   1.648   4.723 -0.1974 -0.8131 -1.0621
  546TIP3   OH2 1643   5.188   2.404   4.441 -0.4903 -0.7184 -0.0333
  546TIP3    H1 1644   5.251   2.430   4.374 -0.7870 -1.2327 -0.5168
  546TIP3    H2 1645   5.119   2.358   4.393 -0.0190 -2.3289  0.7777
  547TIP3   OH2 1646   2.223   3.954   3.932  0.0009 -0.2545  0.0730
  547TIP3    H1 1647   2.153   4.017   3.949 -0.8093 -0.2688 -2.6756
  547TIP3    H2 1648   2.301   4.008   3.919 -0.2587  0.0583 -0.2228
  548TIP3   OH2 1649   1.562   5.631   3.015  0.0401 -0.2180  0.5829
  548TIP3    H1 1650   1.544   5.666   2.928  1.3170 -2.2528 -0.5957
  548TIP3    H2 1651   1.655   5.607   3.013 -0.1168 -1.1602  2.1750
  549TIP3   OH2 1652   0.035   4.357   0.902  0.0569  0.1772 -0.4959
  549TIP3    H1 1653   0.033   4.263   0.917  0.4032  0.3696  0.9211
  549TIP3    H2 1654   0.094   4.391   0.970 -0.6533  1.4894 -0.4962
  550TIP3   OH2 1655   4.077   0.038   4.795 -0.1388  0.2681  0.4009
  550TIP3    H1 1656   4.151   0.026   4.855  1.5433 -1.4822 -1.8519
  550TIP3    H2 1657   4.110   0.098   4.729 -1.0417  0.1353 -0.1856
  551TIP3   OH2 1658   1.462   0.098   0.141 -0.0131  0.2140  0.4583
  551TIP3    H1 1659   1.544   0.090   0.091  0.3186  0.6257  0.9302
  551TIP3    H2 1660   1.405   0.032   0.103 -0.0231  0.9903 -0.9655
  552TIP3   OH2 1661   5.915   4.529   3.812  0.1886 -0.2701  0.4816
  552TIP3    H1 1662   5.863   4.547   3.733  0.8208  0.9605  0.3143
  552TIP3    H2 1663   5.928   4.616   3.852 -0.4694 -0.8993  2.1808
  553TIP3   OH2 1664   2.182   2.024   4.172  0.1153  0.1625 -0.2383
  553TIP3    H1 1665   2.149   2.110   4.149 -1.8398 -0.3816  0.3433
  553TIP3    H2 1666   2.277   2.035   4.178 -0.1750  2.5663  1.0206
  554TIP3   OH2 1667   2.170   0.513   2.759  0.1576 -0.1091 -0.0246
  554TIP3    H1 1668   2.252   0.549   2.794  1.3699 -0.8758 -1.8873
  554TIP3    H2 1669   2.145   0.575   2.690 -0.1950 -0.4787 -0.2274
  555TIP3   OH2 1670   2.993   1.215   4.421  0.4235  0.1542 -0.4616
  555TIP3    H1 1671   3.080   1.231   4.459  0.2927  0.7063 -0.3970
  555TIP3    H2 1672   2.938   1.284   4.457 -0.0415 -0.1813 -0.5220
  556TIP3   OH2 1673   1.933   0.581   1.017  0.2655  0.3198  0.2141
  556TIP3    H1 1674   2.018   0.558   0.979 -0.4728 -0.7152 -0.8920
  556TIP3    H2 1675   1.869   0.554   0.951 -1.0528 -0.8239  1.8515
  557TIP3   OH2 1676   1.159   1.570   4.954 -0.9495  0.0442 -0.4214
  557TIP3    H1 1677   1.169   1.626   4.877 -2.5102 -1.9346 -2.1708
  557TIP3    H2 1678   1.210   1.492   4.934  0.2375  0.2830  1.4612
  558TIP3   OH2 1679   4.559   5.096   3.432  0.1216  0.5195  0.1922
  558TIP3    H1 1680   4.533   5.083   3.341  2.8726  1.0943 -0.7844
  558TIP3    H2 1681   4.526   5.018   3.478 -0.6891 -0.1524 -1.4435
  559TIP3   OH2 1682   3.706   5.144   3.634  0.2163 -0.6704  0.0314
  559TIP3    H1 1683   3.691   5.066   3.581  0.6542 -0.0463 -1.0580
  559TIP3    H2 1684   3.659   5.128   3.716 -1.3736 -1.2287 -0.9472
  560TIP3   OH2 1685   1.474   3.596   3.934  0.0883  0.3197  0.8852
  560TIP3    H1 1686   1.441   3.598   4.024 -0.9306 -0.0584  0.5331
  560TIP3    H2 1687   1.469   3.504   3.909 -0.6261  0.5673  0.0893
  561TIP3   OH2 1688   2.700   3.849   0.914 -0.2745  0.4427  0.4669
  561TIP3    H1 1689   2.638   3.822   0.847  2.7767 -0.1125 -2.3984
  561TIP3    H2 1690   2.735   3.768   0.949 -0.3570  0.7415  1.2686
  562TIP3   OH2 1691   3.180   2.565   5.135  0.7038  0.1151  0.5843
  562TIP3    H1 1692   3.198   2.550   5.227 -0.0542  0.9217  0.8778
  562TIP3    H2 1693   3.084   2.571   5.129  0.7951  2.2512  0.1358
  563TIP3   OH2 1694   5.459   2.060   3.896 -0.6213  0.1407 -0.4439
  563TIP3    H1 1695   5.406   2.099   3.826  0.2637  2.3699  0.0583
  563TIP3    H2 1696   5.548   2.059   3.861 -0.5630 -1.2662 -0.3259
  564TIP3   OH2 1697   1.752   3.662   4.981 -0.2142 -0.1010  0.1665
  564TIP3    H1 1698   1.768   3.627   4.893  0.1855 -0.4851  0.3876
  564TIP3    H2 1699   1.690   3.600   5.020  1.4098 -1.2635  0.9869
  565TIP3   OH2 1700   0.406   3.288   4.322  0.0322 -0.4531 -0.3902
  565TIP3    H1 1701   0.406   3.384   4.321 -1.7808 -0.3953  0.6128
  565TIP3    H2 1702   0.416   3.265   4.415 -3.8421 -1.0705  0.0138
  566TIP3   OH2 1703   5.425   0.559   3.307  0.3808 -0.0020 -0.3360
  566TIP3    H1 1704   5.344   0.570   3.258  0.5384  1.0620 -0.3679
  566TIP3    H2 1705   5.401   0.574   3.398  0.0510 -2.1420 -0.0104
  567TIP3   OH2 1706   0.154   1.143   3.008 -0.2362 -1.1970  0.1099
  567TIP3    H1 1707   0.233   1.194   3.023 -1.1809  0.1241  0.8267
  567TIP3    H2 1708   0.184   1.052   3.007  1.3151 -0.7144  0.1054
  568TIP3   OH2 1709   2.177   1.016   4.599 -0.1984  0.2402  0.4310
  568TIP3    H1 1710   2.138   1.071   4.532  0.5655  0.6626  0.3186
  568TIP3    H2 1711   2.124   1.031   4.677  0.2482  1.4704  0.5123
  569TIP3   OH2 1712   2.726   2.095   5.049  0.6270 -0.4965  0.3220
  569TIP3    H1 1713   2.802   2.108   5.105  1.3869 -0.9060 -0.5912
  569TIP3    H2 1714   2.752   2.025   4.989 -0.5383 -0.7675  0.1126
  570TIP3   OH2 1715   5.961   3.665   1.829  0.1700  0.1078 -0.0957
  570TIP3    H1 1716   6.048   3.626   1.826  0.0881 -0.0360 -1.5704
  570TIP3    H2 1717   5.904   3.601   1.786 -0.5410  0.4846  0.2597
  571TIP3   OH2 1718   4.373   2.905   4.806  0.4166 -0.2127 -0.0653
  571TIP3    H1 1719   4.281   2.930   4.799  0.7610  0.8702 -1.0416
  571TIP3    H2 1720   4.419   2.963   4.745  1.4987 -2.0568 -1.1109
  572TIP3   OH2 1721   6.172   2.138   0.412 -0.1569 -0.0015  0.0163
  572TIP3    H1 1722   6.219   2.117   0.331  2.1837 -0.1537  1.3149
  572TIP3    H2 1723   6.080   2.124   0.391  0.2997  0.6689 -2.8158
  573TIP3   OH2 1724   1.057   5.053   4.033 -0.1947  0.2655 -0.3756
  573TIP3    H1 1725   1.097   4.969   4.056 -1.9676 -1.0522 -1.8008
  573TIP3    H2 1726   1.018   5.038   3.947 -0.4953  2.6077 -0.7125
  574TIP3   OH2 1727   4.768   1.089   1.496 -0.0178  0.2053 -0.5702
  574TIP3    H1 1728   4.823   1.157   1.457  0.2556  0.9627  1.0303
  574TIP3    H2 1729   4.715   1.136   1.560  0.6906 -1.1795  1.1075
  575TIP3   OH2 1730   1.222   1.464   4.666 -0.1489  0.1554 -0.2856
  575TIP3    H1 1731   1.220   1.468   4.571 -0.5950 -2.0689 -0.4204
  575TIP3    H2 1732   1.239   1.372   4.686  1.3508  0.8104  1.7930
  576TIP3   OH2 1733   5.256   5.729   2.116  0.2958  0.6502  0.2700
  576TIP3    H1 1734   5.161   5.741   2.126  0.0520 -0.8310  0.0325
  576TIP3    H2 1735   5.265   5.643   2.076  1.8101 -0.0783  2.0246
  577TIP3   OH2 1736   3.390   4.956   1.672 -0.3351  0.0012 -0.2186
  577TIP3    H1 1737   3.455   4.924   1.610 -0.4599  1.4725 -1.1650
  577TIP3    H2 1738   3.311   4.904   1.655  0.7055 -2.2575  1.3887
  578TIP3   OH2 1739   6.186   2.223   5.017  0.0319  0.7287  0.1084
  578TIP3    H1 1740   6.108   2.266   5.049  0.2806  1.5397 -0.3591
  578TIP3    H2 1741   6.187   2.138   5.062  0.0246  1.5580  1.7420
  579TIP3   OH2 1742   0.969   5.394   2.526  0.2512 -0.0160 -0.0172
  579TIP3    H1 1743   0.929   5.441   2.600 -1.1809 -0.5595 -0.4089
  579TIP3    H2 1744   1.003   5.314   2.565  1.0566  0.4959  0.3417
  580TIP3   OH2 1745   0.634   4.567   3.052  0.2171  0.1223  0.0352
  580TIP3    H1 1746   0.559   4.562   2.992  0.4810  1.1507 -0.3916
  580TIP3    H2 1747   0.699   4.508   3.013 -0.6826 -1.5422  0.9184
  581TIP3   OH2 1748   5.667   2.151   0.950 -0.0353 -0.4999 -0.0194
  581TIP3    H1 1749   5.654   2.058   0.931  1.4559 -1.5469  3.3336
  581TIP3    H2 1750   5.584   2.179   0.989  0.3986 -1.2468  1.5142
  582TIP3   OH2 1751   1.069   0.722   0.108 -0.1851  0.1107  0.1980
  582TIP3    H1 1752   1.143   0.734   0.167  1.8595 -1.1594 -1.9718
  582TIP3    H2 1753   1.080   0.790   0.041 -1.5055  0.4722  0.3213
  583TIP3   OH2 1754   5.947   0.805   0.200 -0.2158 -0.4875  0.1211
  583TIP3    H1 1755   6.009   0.812   0.273  1.6481 -0.7846 -1.3593
  583TIP3    H2 1756   6.001   0.809   0.121 -1.9099 -2.3956 -1.2550
  584TIP3   OH2 1757   5.698   1.870   0.148  0.4301  0.1299  0.0347
  584TIP3    H1 1758   5.793   1.881   0.153  0.3794  1.2246 -1.0038
  584TIP3    H2 1759   5.664   1.958   0.134 -0.7951 -0.1691  0.9684
  585TIP3   OH2 1760   4.852   2.638   4.858 -0.4627  0.0047  0.0526
  585TIP3    H1 1761   4.853   2.602   4.947  1.2263  1.5343  0.7018
  585TIP3    H2 1762   4.774   2.694   4.855  0.3550  1.2434  1.1530
  586TIP3   OH2 1763   1.186   3.347   0.926 -0.0266  0.6296  0.4851
  586TIP3    H1 1764   1.246   3.416   0.900 -0.4406 -0.7097 -5.1571
  586TIP3    H2 1765   1.238   3.267   0.925 -1.0504 -0.0559 -0.6037
  587TIP3   OH2 1766   3.824   1.737   4.224 -0.3539  0.5229 -0.8249
  587TIP3    H1 1767   3.756   1.677   4.194 -1.2592  0.6207  0.9029
  587TIP3    H2 1768   3.873   1.687   4.289  2.6435 -0.2764 -3.4709
  588TIP3   OH2 1769   0.653   3.453   1.462  0.4139 -0.2425  0.3626
  588TIP3    H1 1770   0.583   3.519   1.457  0.0796 -0.5224  1.1303
  588TIP3    H2 1771   0.661   3.420   1.373  0.8534  1.1066 -0.1158
  589TIP3   OH2 1772   5.817   5.240   2.581 -0.6299 -0.0861 -0.0718
  589TIP3    H1 1773   5.804   5.181   2.507  0.7282 -0.6316  0.0886
  589TIP3    H2 1774   5.904   5.217   2.615 -0.6338  1.1070  0.8180
  590TIP3   OH2 1775   3.589   1.041   3.661 -0.1332 -0.2369  0.0727
  590TIP3    H1 1776   3.528   1.017   3.591 -0.5485  2.4411 -0.5899
  590TIP3    H2 1777   3.545   1.112   3.708  0.4819 -1.4176  2.6248
  591TIP3   OH2 1778   3.106   1.782   0.987  0.0097  0.6949  0.1698
  591TIP3    H1 1779   3.160   1.852   0.951 -0.2082  1.0496  0.5284
  591TIP3    H2 1780   3.100   1.801   1.080 -0.0975  0.2275  0.2606
  592TIP3   OH2 1781   0.897   0.126   4.550  0.1016 -0.6798  0.3332
  592TIP3    H1 1782   0.930   0.066   4.485 -1.8748 -2.2598  0.6932
  592TIP3    H2 1783   0.975   0.169   4.585  1.4898 -2.2986 -0.6299
  593TIP3   OH2 1784   4.631   5.696   1.253  0.0599 -0.2302  0.3517
  593TIP3    H1 1785   4.549   5.732   1.288  0.9454  0.5865  1.6935
  593TIP3    H2 1786   4.629   5.604   1.277 -0.9528 -0.4840 -0.6211
  594TIP3   OH2 1787   4.280   0.750   4.911 -0.5174 -0.2693  0.3632
  594TIP3    H1 1788   4.232   0.723   4.832 -0.1015 -0.9121  0.3185
  594TIP3    H2 1789   4.364   0.704   4.905  0.1177  0.8265  0.4384
  595TIP3   OH2 1790   5.414   5.712   0.821  0.5754  0.0429 -0.8586
  595TIP3    H1 1791   5.495   5.761   0.834  0.7731 -0.7414  1.1564
  595TIP3    H2 1792   5.443   5.623   0.802  0.1956 -0.0704 -0.9136
  596TIP3   OH2 1793   5.982   2.296   1.880  0.4047  0.0892  0.6097
  596TIP3    H1 1794   6.025   2.295   1.966  0.8440 -0.1276  0.3847
  596TIP3    H2 1795   5.899   2.341   1.896  0.5688  0.2172  1.1109
  597TIP3   OH2 1796   5.213   3.449   2.494  0.0771  0.6473 -0.5402
  597TIP3    H1 1797   5.167   3.371   2.527  0.0896 -0.1666 -2.3053
  597TIP3    H2 1798   5.295   3.415   2.458 -0.2034  1.3405 -1.9211
  598TIP3   OH2 1799   1.157   1.754   1.771 -0.0996 -0.1793 -0.1527
  598TIP3    H1 1800   1.076   1.723   1.810  0.4307  0.3704  1.4492
  598TIP3    H2 1801   1.193   1.816   1.834  0.5731  1.1325 -1.7500
  599TIP3   OH2 1802   2.018   2.345   4.423 -0.2083  0.2330  0.5764
  599TIP3    H1 1803   2.044   2.380   4.338 -1.5091  1.7992  0.7613
  599TIP3    H2 1804   2.070   2.266   4.434 -1.0025 -0.8338 -2.3227
  600TIP3   OH2 1805   4.950   1.428   1.848 -0.2687 -0.2128 -0.1281
  600TIP3    H1 1806   4.859   1.422   1.818 -0.4447  0.6128  0.2243
  600TIP3    H2 1807   4.951   1.503   1.906  0.3348 -1.0829  1.0139
  601TIP3   OH2 1808   4.806   3.805   3.740 -0.2569 -0.1571  0.5398
  601TIP3    H1 1809   4.840   3.893   3.724 -0.5100 -0.2326 -0.4772
  601TIP3    H2 1810   4.882   3.755   3.771  0.0980  0.1801  0.2232
  602TIP3   OH2 1811   3.932   0.973   3.274 -0.0936 -0.0794  0.1285
  602TIP3    H1 1812   3.888   1.040   3.326  0.8017  1.1185 -0.6070
  602TIP3    H2 1813   4.024   0.976   3.302  0.1323 -0.3585 -0.5509
  603TIP3   OH2 1814   2.711   0.624   2.205 -0.0440 -1.1578 -0.1500
  603TIP3    H1 1815   2.770   0.626   2.129 -0.9604  1.4448 -0.9112
  603TIP3    H2 1816   2.759   0.670   2.273 -0.1064 -1.5098  0.1313
  604TIP3   OH2 1817   3.711   0.020   4.311  0.1949 -0.9426 -0.1529
  604TIP3    H1 1818   3.701   0.115   4.317  0.7010 -0.9148  0.2992
  604TIP3    H2 1819   3.640  -0.016   4.363  0.0978 -0.8100 -0.1938
  605TIP3   OH2 1820   4.626   3.385   1.665 -0.1173 -0.7887 -0.1883
  605TIP3    H1 1821   4.683   3.308   1.666  1.0016  0.0132  0.6646
  605TIP3    H2 1822   4.664   3.443   1.599  0.0623 -0.2495  0.3789
  606TIP3   OH2 1823   2.944   2.227   4.651  0.0664 -0.0574 -0.2431
  606TIP3    H1 1824   2.971   2.301   4.705  3.3364 -0.7609 -0.6996
  606TIP3    H2 1825   2.939   2.262   4.562  0.4811 -0.1289 -0.2964
  607TIP3   OH2 1826   2.158   1.068   2.129 -0.1216 -0.4701  0.2133
  607TIP3    H1 1827   2.073   1.104   2.158 -0.9294 -0.1967 -2.2533
  607TIP3    H2 1828   2.135   1.000   2.066  1.5150 -1.7946  0.9644
  608TIP3   OH2 1829   3.526   4.372   0.761  0.1351 -0.3845  0.5388
  608TIP3    H1 1830   3.451   4.423   0.730  0.8684  0.7764  0.5927
  608TIP3    H2 1831   3.599   4.434   0.759  1.4498 -1.8949 -0.9880
  609TIP3   OH2 1832   1.950   3.288   2.644 -0.0851 -0.2793 -0.1137
  609TIP3    H1 1833   2.038   3.274   2.679  0.0277  0.8286  0.0924
  609TIP3    H2 1834   1.964   3.333   2.560 -0.4578  0.6344  0.2930
  610TIP3   OH2 1835   6.159   0.817   2.860 -0.0211  0.5398 -0.4747
  610TIP3    H1 1836   6.209   0.885   2.814  0.6553 -0.2999 -1.0199
  610TIP3    H2 1837   6.142   0.751   2.794 -0.3917  0.0285  0.1215
  611TIP3   OH2 1838   0.522   0.907   3.840 -0.5669 -0.5463 -0.5354
  611TIP3    H1 1839   0.457   0.950   3.895 -0.7278 -1.8249  0.3028
  611TIP3    H2 1840   0.476   0.890   3.757 -1.1931 -1.1086 -0.0805
  612TIP3   OH2 1841   6.073   4.035   3.544 -0.0054 -0.3803  0.5795
  612TIP3    H1 1842   5.980   4.030   3.565  0.1785 -3.2718  1.2222
  612TIP3    H2 1843   6.113   4.070   3.624 -0.3002 -2.0084  1.4909
  613TIP3   OH2 1844   4.143   2.696   3.689  0.0900  0.5283 -0.5461
  613TIP3    H1 1845   4.064   2.747   3.674  0.0406  0.3249 -1.0081
  613TIP3    H2 1846   4.167   2.663   3.602 -1.1041 -2.0436  0.0024
  614TIP3   OH2 1847   4.797   5.662   3.886 -0.3215 -0.3472 -0.6270
  614TIP3    H1 1848   4.873   5.662   3.943  0.8476 -0.4264 -2.1193
  614TIP3    H2 1849   4.737   5.725   3.925 -0.0995 -1.2940  1.3283
  615TIP3   OH2 1850   1.726   4.462   1.687  0.3793  0.4419  0.1688
  615TIP3    H1 1851   1.715   4.532   1.751 -1.1591  0.1024  0.3261
  615TIP3    H2 1852   1.720   4.506   1.602  2.0030  0.8334  0.2306
  616TIP3   OH2 1853   1.183   5.597   3.702  0.1008  0.1088 -0.0170
  616TIP3    H1 1854   1.106   5.567   3.654 -0.8770  1.8051  0.4054
  616TIP3    H2 1855   1.200   5.685   3.667  1.6802 -0.1171  0.1046
  617TIP3   OH2 1856   1.394   2.496   3.674 -0.4451 -0.4644  0.5080
  617TIP3    H1 1857   1.372   2.544   3.754  0.7076  0.2615  0.4170
  617TIP3    H2 1858   1.443   2.419   3.704  0.9460  0.3753  0.4711
  618TIP3   OH2 1859   2.357   4.953   2.069  0.8075  0.5387  0.1772
  618TIP3    H1 1860   2.330   5.045   2.067 -1.2133  0.1775  3.3601
  618TIP3    H2 1861   2.443   4.954   2.111  0.8724  0.9988  0.0371
  619TIP3   OH2 1862   5.516   1.545   2.001  0.0164  0.2695  0.0641
  619TIP3    H1 1863   5.523   1.635   1.969 -2.8823  0.2000 -1.0758
  619TIP3    H2 1864   5.445   1.549   2.065 -1.6397 -1.5171 -1.5606
  620TIP3   OH2 1865   3.348   1.158   4.034 -0.2529  0.4978  0.3671
  620TIP3    H1 1866   3.300   1.161   3.951 -1.4869 -1.9393  0.9055
  620TIP3    H2 1867   3.314   1.233   4.084 -0.2248  1.3980 -0.8978
  621TIP3   OH2 1868   3.806   1.855   4.808  1.0648  0.3279  0.5442
  621TIP3    H1 1869   3.712   1.872   4.810  1.2689  1.5400  0.5540
  621TIP3    H2 1870   3.816   1.770   4.850 -0.1419 -0.4038 -0.6015
  622TIP3   OH2 1871   3.291   5.133   0.223  0.1186  0.3592  0.0220
  622TIP3    H1 1872   3.267   5.111   0.133 -0.8079  1.3760 -0.0071
  622TIP3    H2 1873   3.285   5.050   0.271 -1.2060  0.1389 -0.4910
  623TIP3   OH2 1874   1.858   4.165   4.781  0.1481 -0.0371  0.0802
  623TIP3    H1 1875   1.935   4.120   4.816 -0.3166 -2.5895 -1.8848
  623TIP3    H2 1876   1.805   4.186   4.858  3.1674  2.8114  1.6356
  624TIP3   OH2 1877   1.607   4.470   2.466 -0.0288  0.4189 -0.2989
  624TIP3    H1 1878   1.602   4.510   2.553  1.0911  1.1702 -0.5644
  624TIP3    H2 1879   1.534   4.407   2.465 -1.2113  1.7184  0.5010
  625TIP3   OH2 1880   6.251   1.950   1.397 -0.2997  0.1525  0.0260
  625TIP3    H1 1881   6.156   1.967   1.402  0.0521  2.3673  0.1459
  625TIP3    H2 1882   6.278   1.944   1.489 -0.5525 -2.3873  0.0141
  626TIP3   OH2 1883   3.138   1.005   2.618 -0.0296 -0.5202  0.2845
  626TIP3    H1 1884   3.200   1.043   2.680 -1.3888 -0.5802  1.7318
  626TIP3    H2 1885   3.142   0.911   2.634 -0.3220 -0.5450  0.2152
  627TIP3   OH2 1886   3.900   2.903   3.399  0.2230 -0.6952  0.2761
  627TIP3    H1 1887   3.873   2.963   3.469  0.7115  1.2965 -1.1769
  627TIP3    H2 1888   3.835   2.917   3.330 -0.1062 -2.4591  0.1758
  628TIP3   OH2 1889   5.662   0.242   4.993  0.8127 -0.0908  0.0080
  628TIP3    H1 1890   5.694   0.280   5.075 -0.4934  2.1200 -0.4195
  628TIP3    H2 1891   5.587   0.188   5.019  0.3726  0.6383  0.3021
  629TIP3   OH2 1892   2.891   1.513   3.934  0.2803 -0.0068 -0.1511
  629TIP3    H1 1893   2.966   1.544   3.985  0.1764  0.2076 -0.1255
  629TIP3    H2 1894   2.881   1.421   3.960 -0.8727  0.5654  1.5870
  630TIP3   OH2 1895   4.635   1.564   1.795 -0.1337  0.0955 -0.1919
  630TIP3    H1 1896   4.706   1.613   1.838  0.3359 -0.5970 -0.1655
  630TIP3    H2 1897   4.559   1.580   1.851 -0.2338  1.5668 -0.6944
  631TIP3   OH2 1898   5.193   4.896   4.807  0.2872  0.5142 -0.2160
  631TIP3    H1 1899   5.287   4.880   4.800  0.2164  0.4822 -1.2569
  631TIP3    H2 1900   5.155   4.838   4.741 -0.4919  0.2429  0.4676
  632TIP3   OH2 1901   5.129   2.673   4.260 -0.4043  0.4770 -0.3377
  632TIP3    H1 1902   5.219   2.646   4.275 -0.7608 -1.2330 -1.0405
  632TIP3    H2 1903   5.135   2.757   4.216  0.7516  3.0842  4.1294
  633TIP3   OH2 1904   2.652   4.330   2.925  0.3687  0.4437 -0.3751
  633TIP3    H1 1905   2.595   4.380   2.983  0.3734 -0.3332  0.3258
  633TIP3    H2 1906   2.701   4.272   2.984 -0.2055 -0.9320 -1.2107
  634TIP3   OH2 1907   2.658   4.413   0.578  0.7135 -0.2553  0.3220
  634TIP3    H1 1908   2.656   4.318   0.593 -1.7294 -0.5313 -1.1722
  634TIP3    H2 1909   2.654   4.422   0.483  0.0617  1.3303  0.4744
  635TIP3   OH2 1910   3.647   5.179   3.334  0.0502 -0.4909 -0.0404
  635TIP3    H1 1911   3.666   5.177   3.428 -1.9585  1.4649  0.5009
  635TIP3    H2 1912   3.578   5.245   3.325 -1.3043 -2.0806 -2.6201
  636TIP3   OH2 1913   4.297   0.501   0.058 -0.3513  0.4453 -0.2628
  636TIP3    H1 1914   4.354   0.536  -0.010  2.2864 -0.8594  1.1215
  636TIP3    H2 1915   4.293   0.407   0.039 -0.7449  0.2832  0.5832
  637TIP3   OH2 1916   0.350   0.557   2.425 -0.0035  0.6889 -0.0968
  637TIP3    H1 1917   0.401   0.517   2.496  0.0436  0.6809 -0.1350
  637TIP3    H2 1918   0.259   0.547   2.453  0.0288  0.9719  0.1122
  638TIP3   OH2 1919   2.587   3.168   2.642 -0.6167  0.0163  0.3205
  638TIP3    H1 1920   2.600   3.117   2.562 -1.6484  2.2938 -1.4162
  638TIP3    H2 1921   2.675   3.198   2.665 -0.5145  0.9905 -1.1863
  639TIP3   OH2 1922   1.475   1.106   1.648  0.1190  0.0744 -0.0745
  639TIP3    H1 1923   1.489   1.167   1.576  1.3577  0.0446  0.1098
  639TIP3    H2 1924   1.554   1.052   1.649  0.4619  0.5425  1.7367
  640TIP3   OH2 1925   6.275   5.496   2.535 -0.5219  0.1958 -0.2893
  640TIP3    H1 1926   6.288   5.524   2.626  0.8998  0.3801 -0.5344
  640TIP3    H2 1927   6.352   5.444   2.514 -1.7572 -1.5291 -0.7867
  641TIP3   OH2 1928   4.897   0.694   2.183  0.6495 -0.4496 -0.0607
  641TIP3    H1 1929   4.895   0.738   2.098 -0.1481 -2.1157 -0.9480
  641TIP3    H2 1930   4.988   0.663   2.191  0.9011  0.2973  0.0137
  642TIP3   OH2 1931   1.506   0.290   2.424  0.0210  0.9978 -0.1333
  642TIP3    H1 1932   1.442   0.223   2.449  0.3869  0.9355  0.6804
  642TIP3    H2 1933   1.591   0.250   2.443  0.3035  1.1335 -1.0704
  643TIP3   OH2 1934   3.931   4.343   1.287 -0.5731 -0.0107  0.2597
  643TIP3    H1 1935   3.902   4.252   1.280  1.8605 -0.7260 -2.2569
  643TIP3    H2 1936   3.858   4.394   1.253 -0.7493 -1.3329 -1.4718
  644TIP3   OH2 1937   3.915   5.553   1.015  0.3062  0.2120  0.0060
  644TIP3    H1 1938   4.008   5.552   0.991  0.1833 -2.8619 -0.7528
  644TIP3    H2 1939   3.913   5.518   1.105 -0.0810  0.6699  0.1782
  645TIP3   OH2 1940   2.107   5.254   1.567  0.0435 -0.3773  0.3810
  645TIP3    H1 1941   2.031   5.197   1.577 -0.3719  0.4561  2.7095
  645TIP3    H2 1942   2.172   5.218   1.627  0.4563  0.5175  0.4862
  646TIP3   OH2 1943   2.064   1.012   1.321 -0.3175 -0.3955 -0.1569
  646TIP3    H1 1944   2.091   1.077   1.256 -1.5479  1.2755  0.9100
  646TIP3    H2 1945   2.044   0.933   1.270  1.3860 -0.0269 -1.4777
  647TIP3   OH2 1946   0.962   4.433   2.124  0.1417  0.4389  0.3094
  647TIP3    H1 1947   0.917   4.400   2.201  0.2142 -2.0907 -0.6407
  647TIP3    H2 1948   0.893   4.476   2.072  0.3057  3.3038  2.2101
  648TIP3   OH2 1949   2.286   1.625   0.140 -0.5039  0.3077 -0.1154
  648TIP3    H1 1950   2.259   1.557   0.202  2.6507 -0.6610  0.3481
  648TIP3    H2 1951   2.340   1.685   0.191  1.7465 -0.2259 -1.7407
  649TIP3   OH2 1952   2.512   4.355   1.672 -0.1453 -0.3398 -0.4464
  649TIP3    H1 1953   2.555   4.275   1.642 -1.2054 -0.3892 -1.9421
  649TIP3    H2 1954   2.420   4.344   1.648 -0.9429  0.0056  2.1627
  650TIP3   OH2 1955   3.152   2.738   1.466 -0.3654  0.2223 -0.3441
  650TIP3    H1 1956   3.060   2.764   1.468 -1.2558 -2.6174  0.2024
  650TIP3    H2 1957   3.199   2.811   1.506 -2.8786  0.0887  3.2461
  651TIP3   OH2 1958   1.291   0.997   2.382 -0.2407  0.3068  0.5031
  651TIP3    H1 1959   1.201   0.999   2.348 -0.6373 -1.0224  1.3914
  651TIP3    H2 1960   1.346   1.010   2.305 -1.1765  0.4348 -0.1614
  652TIP3   OH2 1961   3.452   3.835   1.442  0.0023 -0.0527  0.1459
  652TIP3    H1 1962   3.440   3.904   1.508  0.4836 -0.6411  0.8746
  652TIP3    H2 1963   3.387   3.854   1.375 -1.8978 -0.5535  1.7454
  653TIP3   OH2 1964   2.981   1.561   2.922  0.2276  0.3697 -0.1302
  653TIP3    H1 1965   3.076   1.550   2.916  0.1839  0.4364 -1.1035
  653TIP3    H2 1966   2.946   1.511   2.848 -0.4747  0.6355  0.0096
  654TIP3   OH2 1967   2.124   1.347   2.567  0.0045 -0.3102  0.0068
  654TIP3    H1 1968   2.113   1.258   2.602 -3.4663 -0.6068 -1.5121
  654TIP3    H2 1969   2.209   1.375   2.603  0.6880 -3.7205  1.5494
  655TIP3   OH2 1970   0.521   1.838   1.984 -0.3054 -0.0488 -0.2467
  655TIP3    H1 1971   0.464   1.816   1.910  1.2136 -0.1644 -1.4197
  655TIP3    H2 1972   0.549   1.928   1.967 -1.2345  0.5217  1.0807
  656TIP3   OH2 1973   0.906   3.292   0.552 -0.4920  1.0341  0.3034
  656TIP3    H1 1974   0.828   3.246   0.521  0.0055  0.8940 -0.7683
  656TIP3    H2 1975   0.888   3.384   0.534 -1.6174  1.3662  2.7252
  657TIP3   OH2 1976   1.503   0.113   4.511  0.2552  0.3902  0.5384
  657TIP3    H1 1977   1.574   0.082   4.567  0.4566  1.3527  0.8291
  657TIP3    H2 1978   1.425   0.068   4.544  1.0467 -2.6890 -1.3835
  658TIP3   OH2 1979   2.539   5.778   4.595 -0.2523 -0.1729  0.0297
  658TIP3    H1 1980   2.494   5.752   4.515 -0.0374  0.1278 -0.1934
  658TIP3    H2 1981   2.601   5.707   4.611  0.9357  0.5739 -1.0578
  659TIP3   OH2 1982   0.170   1.721   4.941 -0.5256 -0.8143  0.1342
  659TIP3    H1 1983   0.145   1.645   4.992 -0.9906 -0.0239  1.1184
  659TIP3    H2 1984   0.179   1.792   5.005  0.7198 -0.2278 -0.6468
  660TIP3   OH2 1985   5.072   4.272   1.958  0.4527  0.4008 -0.1758
  660TIP3    H1 1986   5.125   4.192   1.950  1.5802  1.0547  0.5688
  660TIP3    H2 1987   5.121   4.337   1.908 -0.2136  0.7598 -0.3667
  661TIP3   OH2 1988   1.054   0.971   2.936 -0.5431  0.7896  0.5016
  661TIP3    H1 1989   1.085   1.054   2.900 -1.7506  1.0964  0.1115
  661TIP3    H2 1990   1.062   0.982   3.031  0.3868  0.9033  0.4203
  662TIP3   OH2 1991   1.452   1.743   3.814 -0.0674  0.2157 -0.2585
  662TIP3    H1 1992   1.393   1.818   3.828 -1.0530 -0.5120 -0.3786
  662TIP3    H2 1993   1.479   1.752   3.723  0.5001  0.8920 -0.0300
  663TIP3   OH2 1994   4.189   5.101   2.104  0.5090 -0.4143  0.1038
  663TIP3    H1 1995   4.264   5.045   2.119  0.3889 -0.3895  0.8172
  663TIP3    H2 1996   4.113   5.042   2.109  0.5097 -0.5981 -1.4499
  664TIP3   OH2 1997   1.740   3.669   0.910 -0.0275  0.5207 -0.0015
  664TIP3    H1 1998   1.794   3.747   0.897  0.3418  0.0817 -1.2240
  664TIP3    H2 1999   1.693   3.658   0.827 -0.1672 -0.4798  0.1998
  665TIP3   OH2 2000   2.008   3.350   1.947 -0.1702  0.1080 -0.0602
  665TIP3    H1 2001   1.999   3.391   1.861  1.1870  0.8070  0.1098
  665TIP3    H2 2002   1.930   3.378   1.996 -0.0330  1.2234 -0.4648
  666TIP3   OH2 2003   1.490   3.379   4.755 -0.3248 -0.9908  0.1546
  666TIP3    H1 2004   1.499   3.343   4.843 -1.3506 -2.9033 -0.4489
  666TIP3    H2 2005   1.568   3.350   4.709 -0.2247 -0.7800  0.1929
  667TIP3   OH2 2006   5.763   0.840   4.623 -0.6186  0.2448  0.4972
  667TIP3    H1 2007   5.842   0.835   4.569 -0.0765  0.2867  1.2771
  667TIP3    H2 2008   5.691   0.846   4.560 -0.0458 -0.3608 -0.2297
  668TIP3   OH2 2009   0.294   5.487   0.056 -0.1752  0.1261  0.5541
  668TIP3    H1 2010   0.219   5.463   0.002  0.1417  0.7428 -0.1711
  668TIP3    H2 2011   0.277   5.577   0.083 -0.1465 -0.0517  1.1648
  669TIP3   OH2 2012   4.085   1.460   0.651  0.1247  0.0593  0.4256
  669TIP3    H1 2013   4.134   1.379   0.637  0.7545  0.5176 -0.0833
  669TIP3    H2 2014   4.044   1.478   0.566 -0.2034  0.1437  0.6034
  670TIP3   OH2 2015   3.530   5.134   0.514  0.0738  0.0230  0.1345
  670TIP3    H1 2016   3.533   5.189   0.593 -1.6178  0.1160  0.1597
  670TIP3    H2 2017   3.550   5.194   0.442  3.0750 -0.3292  0.5352
  671TIP3   OH2 2018   6.069   3.835   3.839  0.0349 -0.4895 -0.1551
  671TIP3    H1 2019   6.116   3.916   3.820 -3.0070  1.6784  0.7041
  671TIP3    H2 2020   6.025   3.813   3.757 -1.5301  0.5712  0.3354
  672TIP3   OH2 2021   4.189   0.245   4.553 -0.4899 -0.0530  0.7315
  672TIP3    H1 2022   4.123   0.222   4.488 -0.2295 -0.4463  0.6052
  672TIP3    H2 2023   4.262   0.281   4.503 -0.0590 -0.8767  0.7433
  673TIP3   OH2 2024   6.271   4.382   4.962  0.1222  0.4865 -0.6330
  673TIP3    H1 2025   6.255   4.432   5.041  0.8158 -1.1764  0.6296
  673TIP3    H2 2026   6.228   4.297   4.977 -1.1856  0.6860 -2.7638
  674TIP3   OH2 2027   1.124   1.695   0.552  0.1535 -0.0092 -0.2987
  674TIP3    H1 2028   1.113   1.694   0.457 -0.9825  0.0365 -0.1850
  674TIP3    H2 2029   1.094   1.609   0.581  0.0183  0.1598  0.0668
  675TIP3   OH2 2030   1.494   4.023   0.279  0.2716  0.4276  0.1526
  675TIP3    H1 2031   1.561   4.051   0.216 -0.2817 -0.3267 -0.7938
  675TIP3    H2 2032   1.411   4.036   0.234 -0.1788  0.4365  0.9599
  676TIP3   OH2 2033   1.760   2.990   4.503 -0.0847  0.0197  0.8286
  676TIP3    H1 2034   1.847   3.022   4.527  1.3353 -2.8993  0.1013
  676TIP3    H2 2035   1.776   2.931   4.429 -2.9051  0.4665 -0.2485
  677TIP3   OH2 2036   1.479   0.742   0.360  0.3734 -0.1200 -0.1533
  677TIP3    H1 2037   1.472   0.684   0.437  0.0769  1.1995  0.8473
  677TIP3    H2 2038   1.542   0.809   0.386  0.2415  0.3651 -1.0619
  678TIP3   OH2 2039   5.444   5.377   0.214  0.5860 -0.0462  0.0908
  678TIP3    H1 2040   5.378   5.317   0.178  1.7251  0.3918 -3.0147
  678TIP3    H2 2041   5.489   5.326   0.281 -1.0426 -1.2910  0.3058
  679TIP3   OH2 2042   2.573   5.208   1.140  0.0785 -0.4072 -0.8117
  679TIP3    H1 2043   2.669   5.213   1.132  0.0520  1.0105 -0.4895
  679TIP3    H2 2044   2.556   5.119   1.171  1.4887  0.0533  1.5581
  680TIP3   OH2 2045   2.718   0.650   0.860  0.1542  0.0115  0.4038
  680TIP3    H1 2046   2.708   0.720   0.925  0.0818  1.6517 -1.2680
  680TIP3    H2 2047   2.629   0.637   0.825 -0.4657 -3.1137  2.6958
  681TIP3   OH2 2048   6.065   4.250   2.951  0.2289  0.6786  0.8877
  681TIP3    H1 2049   6.058   4.257   3.046  0.0323  1.2149  0.8405
  681TIP3    H2 2050   5.978   4.221   2.922 -0.0266  1.5051  0.7945
  682TIP3   OH2 2051   4.476   1.583   5.128 -0.4112 -0.3348 -0.3522
  682TIP3    H1 2052   4.478   1.663   5.180 -2.2593  0.4998 -1.4616
  682TIP3    H2 2053   4.568   1.564   5.109  0.2077  0.1892  1.8618
  683TIP3   OH2 2054   2.832   3.838   5.084 -0.4874  0.0622  0.5879
  683TIP3    H1 2055   2.924   3.827   5.107  0.1020  2.0878 -0.5254
  683TIP3    H2 2056   2.813   3.763   5.027  0.8666  0.2848 -0.2163
  684TIP3   OH2 2057   4.860   4.927   0.746 -0.2381  0.2462  0.4666
  684TIP3    H1 2058   4.810   4.975   0.812 -0.0215  1.1126  0.0068
  684TIP3    H2 2059   4.942   4.976   0.736 -1.2686  1.6409 -2.2468
  685TIP3   OH2 2060   5.501   3.260   1.256 -0.0869  0.0561 -0.1164
  685TIP3    H1 2061   5.453   3.214   1.187 -0.9353 -0.7268  0.9735
  685TIP3    H2 2062   5.520   3.193   1.321  2.2303  0.4026 -0.3372
  686TIP3   OH2 2063   6.235   3.018   4.810 -0.2403 -0.2874 -0.3732
  686TIP3    H1 2064   6.199   3.004   4.898  0.8689 -1.9959 -0.1338
  686TIP3    H2 2065   6.303   3.084   4.822  0.7762 -1.4292  0.3274
  687TIP3   OH2 2066   2.473   5.207   2.498 -0.2339  0.0775 -0.2981
  687TIP3    H1 2067   2.559   5.247   2.498 -0.1759  0.0028  1.4542
  687TIP3    H2 2068   2.414   5.276   2.528 -0.1836 -0.9550  2.3843
  688TIP3   OH2 2069   3.671   5.052   2.808  0.3967  0.4131 -0.4927
  688TIP3    H1 2070   3.671   4.993   2.884  1.5493  2.7510  1.4588
  688TIP3    H2 2071   3.579   5.072   2.793  0.0578 -1.1293 -0.6219
  689TIP3   OH2 2072   3.430   3.063   2.628  0.0205 -0.1464 -0.2191
  689TIP3    H1 2073   3.439   2.968   2.613 -0.6903 -0.4820  1.2680
  689TIP3    H2 2074   3.506   3.086   2.682  0.2199  0.1518 -0.6237
  690TIP3   OH2 2075   0.859   5.972   3.092 -0.0166 -0.3396  0.1953
  690TIP3    H1 2076   0.832   6.056   3.055 -2.7644 -0.7137  1.1136
  690TIP3    H2 2077   0.932   5.943   3.036 -0.9274  1.2712 -1.9637
  691TIP3   OH2 2078   5.464   0.599   2.480  0.6583 -0.2256  0.2258
  691TIP3    H1 2079   5.510   0.683   2.489  0.3886  0.0884 -1.1115
  691TIP3    H2 2080   5.390   0.618   2.423  0.5419 -1.3539 -0.0261
  692TIP3   OH2 2081   2.447   4.096   4.208 -0.1628  0.0041 -0.1140
  692TIP3    H1 2082   2.389   4.022   4.220  0.3766 -0.8046 -2.2296
  692TIP3    H2 2083   2.431   4.127   4.119  1.8007  0.4868 -0.3523
  693TIP3   OH2 2084   0.768   4.405   3.543  0.2691  0.6307 -0.3621
  693TIP3    H1 2085   0.769   4.499   3.559  1.2584  0.3362  1.7588
  693TIP3    H2 2086   0.848   4.373   3.586 -0.8875 -1.3512  0.4572
  694TIP3   OH2 2087   3.034   5.791   1.417  0.0108  0.0490  0.1560
  694TIP3    H1 2088   3.090   5.723   1.381  0.6355 -0.0516  1.2486
  694TIP3    H2 2089   3.087   5.871   1.410 -1.0073  0.6025 -1.8124
  695TIP3   OH2 2090   3.259   1.060   3.277 -0.1836 -0.1306  0.2811
  695TIP3    H1 2091   3.222   0.973   3.262 -0.6850  0.4265 -2.1485
  695TIP3    H2 2092   3.212   1.117   3.216  1.7229  1.4210  0.1700
  696TIP3   OH2 2093   0.909   5.434   2.989 -0.2639 -0.5441  0.3328
  696TIP3    H1 2094   0.963   5.401   2.918  0.8613  1.1391  0.3595
  696TIP3    H2 2095   0.821   5.401   2.970  0.2661 -1.1765 -1.1264
  697TIP3   OH2 2096   5.720   0.825   0.396 -0.0800 -0.5606 -0.1308
  697TIP3    H1 2097   5.789   0.828   0.329 -1.9682 -2.3069 -2.3079
  697TIP3    H2 2098   5.736   0.744   0.444  0.6793  0.1912  0.9371
  698TIP3   OH2 2099   2.075   0.352   1.325  0.0588  0.7564 -0.3544
  698TIP3    H1 2100   2.160   0.307   1.321  0.2339  0.6773  2.4488
  698TIP3    H2 2101   2.091   0.436   1.282  1.6321  0.8043  0.2383
  699TIP3   OH2 2102   3.041   2.079   0.680 -0.1556 -0.0480  0.1719
  699TIP3    H1 2103   3.027   1.989   0.710 -1.2852  0.2706  0.6384
  699TIP3    H2 2104   2.971   2.094   0.616  0.5964  0.1945 -0.6088
  700TIP3   OH2 2105   5.995   1.347   4.258 -0.1376 -0.0236  0.4704
  700TIP3    H1 2106   6.001   1.431   4.214 -0.1857  0.1444  0.7836
  700TIP3    H2 2107   6.084   1.311   4.252  0.0398  0.3412  0.9143
  701TIP3   OH2 2108   4.411   4.760   4.398  0.4653 -0.2450  0.4147
  701TIP3    H1 2109   4.396   4.685   4.340  1.3289 -0.7050  0.7518
  701TIP3    H2 2110   4.394   4.837   4.343  2.0222 -0.6456 -0.7250
  702TIP3   OH2 2111   5.549   2.600   2.910  0.2465 -0.0478  0.4908
  702TIP3    H1 2112   5.579   2.571   2.997 -1.0671  1.4855  1.5135
  702TIP3    H2 2113   5.621   2.653   2.876  0.7397 -0.5915  0.6888
  703TIP3   OH2 2114   4.505   2.147   2.730  0.2071  0.2870 -0.0963
  703TIP3    H1 2115   4.462   2.062   2.737 -2.7261  1.4797 -2.0679
  703TIP3    H2 2116   4.479   2.193   2.810 -0.0068  0.1078 -0.0617
  704TIP3   OH2 2117   5.161   2.034   3.454  0.2863  0.7428 -0.3051
  704TIP3    H1 2118   5.110   2.091   3.397 -0.2033  0.6604  0.0463
  704TIP3    H2 2119   5.101   2.011   3.525  0.8629  0.7955  0.2088
  705TIP3   OH2 2120   4.142   1.118   3.968  0.4018 -0.2912 -0.8853
  705TIP3    H1 2121   4.123   1.125   4.062 -0.5966 -2.4388 -0.8580
  705TIP3    H2 2122   4.063   1.150   3.925 -1.0087 -3.3487 -0.8496
  706TIP3   OH2 2123   0.450   3.539   2.172  0.0074 -0.6342 -0.2642
  706TIP3    H1 2124   0.385   3.560   2.105  0.1444 -0.4814 -0.3505
  706TIP3    H2 2125   0.489   3.623   2.195  1.9414 -0.9634 -2.0250
  707TIP3   OH2 2126   3.688   5.910   0.321  0.5363 -0.2197 -0.1488
  707TIP3    H1 2127   3.660   5.998   0.344  2.7436  1.0753 -1.9616
  707TIP3    H2 2128   3.664   5.856   0.396  1.8204  2.4772  2.3934
  708TIP3   OH2 2129   4.817   4.818   0.509  0.1904  0.7523 -0.0086
  708TIP3    H1 2130   4.838   4.876   0.582  2.8049 -0.3864  0.2799
  708TIP3    H2 2131   4.897   4.767   0.496 -1.3551 -1.4962 -1.4382
  709TIP3   OH2 2132   0.117   4.861   1.249  0.1964  0.0913 -0.1127
  709TIP3    H1 2133   0.066   4.917   1.307  1.4662  0.4008  0.7494
  709TIP3    H2 2134   0.161   4.921   1.190  0.5449 -0.0709 -0.0231
  710TIP3   OH2 2135   4.130   5.451   4.303 -0.2659 -0.1853 -0.1848
  710TIP3    H1 2136   4.083   5.444   4.387 -0.3682 -0.8741 -0.3000
  710TIP3    H2 2137   4.064   5.429   4.237  0.4923 -2.4003 -0.2855
  711TIP3   OH2 2138   6.127   4.384   3.870 -0.4300  0.0187 -0.4514
  711TIP3    H1 2139   6.060   4.452   3.865 -0.1486  0.4374  1.0461
  711TIP3    H2 2140   6.162   4.380   3.781 -1.5276  0.7104 -0.9512
  712TIP3   OH2 2141   6.005   3.697   0.466  0.3560 -0.7150 -0.2032
  712TIP3    H1 2142   5.924   3.658   0.501 -0.0125 -1.5296 -1.8629
  712TIP3    H2 2143   6.057   3.622   0.439  0.3947 -0.1195 -1.8507
  713TIP3   OH2 2144   0.164   0.546   0.489 -0.4804 -0.1052  0.1954
  713TIP3    H1 2145   0.214   0.563   0.569 -1.4930  0.9179  0.6395
  713TIP3    H2 2146   0.075   0.574   0.510 -1.0147 -0.9147 -0.9164
  714TIP3   OH2 2147   1.685   5.338   4.295  0.1297  0.2771  0.0962
  714TIP3    H1 2148   1.678   5.361   4.388  1.1526  0.7077  0.0889
  714TIP3    H2 2149   1.730   5.413   4.256 -0.2007  0.0497 -0.7272
  715TIP3   OH2 2150   5.520   2.133   0.579 -0.2028 -0.2546  0.2429
  715TIP3    H1 2151   5.476   2.126   0.663 -1.2603 -0.2589 -0.2982
  715TIP3    H2 2152   5.490   2.215   0.542  1.5622  0.5981  0.5724
  716TIP3   OH2 2153   3.234   5.794   3.697  0.2937  0.2972  0.2401
  716TIP3    H1 2154   3.203   5.865   3.641  1.6436  1.0456  0.4152
  716TIP3    H2 2155   3.273   5.731   3.636  0.2610  0.3155  0.1997
  717TIP3   OH2 2156   4.454   1.515   0.314 -0.0669 -0.0202  0.0655
  717TIP3    H1 2157   4.420   1.426   0.316 -0.0959 -0.0015  1.7025
  717TIP3    H2 2158   4.431   1.552   0.400 -0.8134  1.8568 -0.8921
  718TIP3   OH2 2159   4.766   2.225   2.072  0.1981  0.1963 -0.2898
  718TIP3    H1 2160   4.756   2.191   2.161 -0.6429 -0.1583 -0.5136
  718TIP3    H2 2161   4.686   2.198   2.026  1.3300 -1.0528 -1.6270
  719TIP3   OH2 2162   3.869   2.598   3.352  0.1794  0.7484 -0.4372
  719TIP3    H1 2163   3.861   2.692   3.365  2.8298  1.0676 -0.5405
  719TIP3    H2 2164   3.963   2.580   3.361 -0.3886 -2.1120  0.9494
  720TIP3   OH2 2165   1.995   1.253  -0.001  0.5328 -0.4041 -0.0696
  720TIP3    H1 2166   1.983   1.239   0.093  0.6335  2.6914  0.4949
  720TIP3    H2 2167   1.931   1.319  -0.024  1.6326  0.1179 -1.8238
  721TIP3   OH2 2168   1.603   4.529   3.420 -0.1277 -0.3259  0.2020
  721TIP3    H1 2169   1.516   4.567   3.429  0.8981  2.1627  0.3275
  721TIP3    H2 2170   1.625   4.539   3.328  0.8669  1.1440  0.5634
  722TIP3   OH2 2171   3.875   3.722   0.758  0.6040 -0.2326 -0.2390
  722TIP3    H1 2172   3.889   3.757   0.670 -1.9459 -0.7404 -0.9361
  722TIP3    H2 2173   3.902   3.794   0.816  0.2529  0.9712 -1.5001
  723TIP3   OH2 2174   5.430   5.770   4.397  0.2203  0.1003 -1.0016
  723TIP3    H1 2175   5.456   5.839   4.458 -0.5844  1.7857 -2.4872
  723TIP3    H2 2176   5.401   5.816   4.319 -2.0313 -1.8530 -1.4414
  724TIP3   OH2 2177   1.005   4.162   0.859  0.0265 -0.0981  0.1215
  724TIP3    H1 2178   0.952   4.148   0.781  1.0594 -0.0664 -0.5911
  724TIP3    H2 2179   0.952   4.220   0.913 -0.3086  0.6088 -0.9488
  725TIP3   OH2 2180   3.696   1.621   4.645 -0.3381 -0.3559 -0.0489
  725TIP3    H1 2181   3.718   1.607   4.737 -0.8810 -0.5802  0.0541
  725TIP3    H2 2182   3.602   1.602   4.640 -0.5443  0.7243 -0.4410
  726TIP3   OH2 2183   6.011   3.820   1.463  0.2566  0.1041  0.2469
  726TIP3    H1 2184   5.927   3.823   1.417 -0.1178  0.3446  0.9324
  726TIP3    H2 2185   6.030   3.727   1.472  0.3664  0.0543 -0.4453
  727TIP3   OH2 2186   0.670   2.930   2.676  0.2012  0.1940  0.2566
  727TIP3    H1 2187   0.722   2.884   2.741  1.4107  0.8467 -0.2083
  727TIP3    H2 2188   0.584   2.887   2.677  1.0758 -1.6097  0.3118
  728TIP3   OH2 2189   1.733   1.013   4.047 -0.4618 -0.4099  0.0006
  728TIP3    H1 2190   1.774   0.986   3.964  1.6236  1.5659  0.3007
  728TIP3    H2 2191   1.652   1.056   4.020  0.0302 -0.0714 -1.0086
  729TIP3   OH2 2192   4.708   2.479   3.369 -0.4390  0.0484 -0.1395
  729TIP3    H1 2193   4.672   2.542   3.307 -0.5987  0.0480 -0.0487
  729TIP3    H2 2194   4.721   2.399   3.318 -0.1270  0.1887 -0.2821
  730TIP3   OH2 2195   2.501   1.194   0.978  0.0284  0.0231  0.2426
  730TIP3    H1 2196   2.530   1.258   0.913  0.7329 -0.5101  0.0280
  730TIP3    H2 2197   2.526   1.233   1.062  1.3628 -0.4216  0.0612
  731TIP3   OH2 2198   3.325   0.360   2.450 -0.1643 -0.2775  0.1132
  731TIP3    H1 2199   3.390   0.399   2.392  0.4603 -1.5005 -0.0569
  731TIP3    H2 2200   3.377   0.319   2.519 -0.8246 -0.1581  0.6881
  732TIP3   OH2 2201   4.565   2.586   2.068  0.0024  0.2066 -0.1957
  732TIP3    H1 2202   4.515   2.653   2.115  1.1665  0.0691  1.3355
  732TIP3    H2 2203   4.610   2.537   2.137  0.2212 -1.3220 -1.3601
  733TIP3   OH2 2204   1.880   4.216   0.634  0.1503 -0.1253 -0.4414
  733TIP3    H1 2205   1.846   4.288   0.687  2.1783 -0.7423  1.8933
  733TIP3    H2 2206   1.804   4.183   0.585 -1.1484  2.5043 -0.3367
  734TIP3   OH2 2207   6.063   0.254   4.433 -0.5297  0.3939  0.4791
  734TIP3    H1 2208   6.068   0.222   4.523  0.6027 -0.7176  0.0682
  734TIP3    H2 2209   5.974   0.235   4.405 -0.5021 -0.4829  0.9541
  735TIP3   OH2 2210   2.279   2.909   2.100  0.0546  0.4619  0.6133
  735TIP3    H1 2211   2.354   2.967   2.088  0.1903 -0.0140 -1.1686
  735TIP3    H2 2212   2.247   2.929   2.188  0.6729  2.5430  0.4303
  736TIP3   OH2 2213   1.107   4.240   2.004 -0.3637  0.2635  0.3779
  736TIP3    H1 2214   1.107   4.281   1.918  0.3694  0.4484  0.4519
  736TIP3    H2 2215   1.067   4.305   2.062 -0.6598  0.2268  0.2116
  737TIP3   OH2 2216   0.882   5.252   0.107 -0.1297  0.0437  0.2245
  737TIP3    H1 2217   0.968   5.266   0.146 -0.5038  1.9800  0.4349
  737TIP3    H2 2218   0.858   5.337   0.071 -1.7564 -0.5888 -0.2635
  738TIP3   OH2 2219   5.466   1.065   4.341  0.6418 -0.1132 -0.0695
  738TIP3    H1 2220   5.444   0.973   4.325  2.8287 -0.5996 -0.5612
  738TIP3    H2 2221   5.444   1.110   4.258 -0.0705 -0.2349  0.0435
  739TIP3   OH2 2222   5.153   3.155   4.084  0.0842  0.1171 -0.4441
  739TIP3    H1 2223   5.092   3.169   4.011 -0.8932 -1.7391 -0.0432
  739TIP3    H2 2224   5.189   3.242   4.102  0.0297  0.7082 -2.8440
  740TIP3   OH2 2225   1.586   3.615   3.063 -0.6089  0.2357  0.4008
  740TIP3    H1 2226   1.575   3.709   3.053 -1.3052  0.0031 -1.2388
  740TIP3    H2 2227   1.577   3.580   2.975 -2.3057 -1.5569  1.2030
  741TIP3   OH2 2228   2.908   3.460   3.008 -0.1940  0.0452  0.5700
  741TIP3    H1 2229   2.974   3.397   2.980 -0.6952  0.3536 -1.4920
  741TIP3    H2 2230   2.957   3.523   3.061  0.8032 -0.7139  0.5857
  742TIP3   OH2 2231   1.357   4.880   3.140 -0.2514  0.3055 -0.6209
  742TIP3    H1 2232   1.299   4.875   3.217  0.3886  1.3072 -0.0531
  742TIP3    H2 2233   1.424   4.943   3.165  1.5950 -1.4252 -0.9381
  743TIP3   OH2 2234   1.685   4.926   0.706 -0.4244 -0.0070  0.2194
  743TIP3    H1 2235   1.671   4.955   0.616  0.4430 -1.3077 -0.3578
  743TIP3    H2 2236   1.761   4.976   0.735 -0.7422  0.4606  0.2741
  744TIP3   OH2 2237   0.612   3.216   0.501 -0.0756  0.0903  0.0901
  744TIP3    H1 2238   0.616   3.178   0.589  1.8385 -0.2496 -0.0911
  744TIP3    H2 2239   0.525   3.192   0.469 -0.3504 -0.8468  1.4227
  745TIP3   OH2 2240   3.974   5.946   4.769  0.5418  0.6286 -0.1242
  745TIP3    H1 2241   3.912   5.882   4.735  0.2951  1.4863 -1.3605
  745TIP3    H2 2242   3.953   5.953   4.862  0.2206 -0.6653 -0.0781
  746TIP3   OH2 2243   2.171   3.197   2.149 -0.0902 -0.3894  0.1535
  746TIP3    H1 2244   2.241   3.145   2.111 -0.7649 -1.0218 -0.2660
  746TIP3    H2 2245   2.121   3.228   2.073 -1.0110 -1.0236  0.4808
  747TIP3   OH2 2246   3.906   0.015   3.192  0.2555 -0.6875 -0.0625
  747TIP3    H1 2247   3.812   0.004   3.209  0.1352 -0.5375 -0.6172
  747TIP3    H2 2248   3.946   0.010   3.279 -0.0752 -2.5054  0.0369
  748TIP3   OH2 2249   3.825   5.331   4.284  0.8915  0.2917  0.4939
  748TIP3    H1 2250   3.838   5.388   4.209 -3.1492 -0.0129 -0.6529
  748TIP3    H2 2251   3.840   5.243   4.251  0.1404  0.2322  0.2950
  749TIP3   OH2 2252   2.039   4.212   0.886 -0.3628  0.9047  0.1019
  749TIP3    H1 2253   2.064   4.277   0.820  0.6957  1.4338  0.9954
  749TIP3    H2 2254   2.091   4.235   0.963  1.1457 -1.8518  0.0246
  750TIP3   OH2 2255   5.517   4.513   0.273 -0.0616  0.6582  0.1321
  750TIP3    H1 2256   5.531   4.579   0.341  0.0016  0.3590  0.4106
  750TIP3    H2 2257   5.446   4.458   0.307  2.2210 -1.6323  1.6011
  751TIP3   OH2 2258   3.904   5.813   1.189  0.1807 -0.3559 -0.1686
  751TIP3    H1 2259   3.886   5.780   1.101  1.5963 -0.8342 -0.3110
  751TIP3    H2 2260   3.888   5.739   1.247 -0.0935 -0.2395 -0.0941
  752TIP3   OH2 2261   0.164   3.687   3.506 -0.0325 -0.1404  0.3456
  752TIP3    H1 2262   0.131   3.622   3.443  1.4129  0.8203 -1.5023
  752TIP3    H2 2263   0.107   3.763   3.493  1.1462  0.5674 -0.9088
  753TIP3   OH2 2264   5.115   1.156   4.350 -0.2118 -0.5927 -0.4686
  753TIP3    H1 2265   5.193   1.203   4.318 -0.1239  0.0691  0.6798
  753TIP3    H2 2266   5.052   1.225   4.367 -0.1947 -0.9084  0.9523
  754TIP3   OH2 2267   3.160   5.508   0.567 -0.0408  0.5816  0.2154
  754TIP3    H1 2268   3.133   5.440   0.506  0.8742  0.2457  0.1788
  754TIP3    H2 2269   3.122   5.588   0.531 -0.6812  0.1751 -0.0257
  755TIP3   OH2 2270   3.989   4.641   5.040 -0.1872 -0.0447  0.3181
  755TIP3    H1 2271   3.965   4.642   4.947  1.7533 -0.3029 -0.2274
  755TIP3    H2 2272   4.084   4.632   5.040 -0.1422  0.0243  2.3481
  756TIP3   OH2 2273   2.779   0.977   3.633 -0.0794 -0.0857 -0.6931
  756TIP3    H1 2274   2.744   0.974   3.722  1.5584 -0.4077 -0.0164
  756TIP3    H2 2275   2.823   0.893   3.622  2.2542  1.0454 -0.6828
  757TIP3   OH2 2276   1.132   3.324   4.098 -0.0570  0.8391 -0.5262
  757TIP3    H1 2277   1.101   3.313   4.008  1.3510  2.1076 -1.2184
  757TIP3    H2 2278   1.099   3.248   4.145 -1.5353  0.5813 -1.9184
  758TIP3   OH2 2279   4.164   5.374   1.138  0.2682  0.4122 -0.0263
  758TIP3    H1 2280   4.143   5.281   1.150  0.7235  0.3580  0.3597
  758TIP3    H2 2281   4.236   5.391   1.199 -1.0516  1.4863  1.2995
  759TIP3   OH2 2282   1.692   0.475   1.783  0.7598 -0.0915 -0.4629
  759TIP3    H1 2283   1.686   0.451   1.691  2.0201 -0.3640 -0.4809
  759TIP3    H2 2284   1.785   0.472   1.804  0.4363 -0.8623  1.0430
  760TIP3   OH2 2285   3.164   1.809   2.248  0.1560  0.2167  0.0206
  760TIP3    H1 2286   3.111   1.750   2.195 -0.1868 -0.0068  0.5993
  760TIP3    H2 2287   3.244   1.760   2.265  0.1764  0.2049 -0.1117
  761TIP3   OH2 2288   2.843   2.428   2.117 -0.4101  0.0518  0.0309
  761TIP3    H1 2289   2.868   2.488   2.187  0.1185 -0.8115  0.5875
  761TIP3    H2 2290   2.899   2.352   2.129 -0.7841 -0.3857 -0.9266
  762TIP3   OH2 2291   0.960   2.349   2.486 -0.2652  0.3131 -0.1927
  762TIP3    H1 2292   1.043   2.302   2.491 -0.9321 -0.7428  2.3504
  762TIP3    H2 2293   0.899   2.286   2.444 -0.3539  0.1776  0.1387
  763TIP3   OH2 2294   1.146   1.233   0.824 -0.2249 -0.0332 -0.8116
  763TIP3    H1 2295   1.180   1.176   0.893  1.3135  1.8694  0.1143
  763TIP3    H2 2296   1.074   1.281   0.866  0.1798  0.5393 -0.7534
  764TIP3   OH2 2297   0.460   0.520   3.794  0.2075  0.1586 -0.1550
  764TIP3    H1 2298   0.537   0.574   3.812  0.6478 -0.7503  0.7547
  764TIP3    H2 2299   0.462   0.452   3.861 -1.6220  0.3634  0.1615
  765TIP3   OH2 2300   5.379   4.117   4.954  0.8993 -0.0530 -0.1346
  765TIP3    H1 2301   5.403   4.195   5.004  0.2299  0.4116 -0.5150
  765TIP3    H2 2302   5.323   4.067   5.014 -0.3226  0.7504 -0.5646
  766TIP3   OH2 2303  -0.003   2.801   1.327  0.0107  0.0561 -0.5475
  766TIP3    H1 2304  -0.028   2.893   1.341  2.0706  0.7349 -0.9831
  766TIP3    H2 2305   0.060   2.783   1.397 -2.0358 -1.8194  0.9544
  767TIP3   OH2 2306   4.190   0.187   0.196 -0.2559 -0.5733 -0.1087
  767TIP3    H1 2307   4.255   0.181   0.266  0.2117  1.0544 -0.3804
  767TIP3    H2 2308   4.193   0.101   0.154  0.6390 -1.0225  0.8245
  768TIP3   OH2 2309   6.162   3.824   3.393 -0.3463  0.2216 -0.5115
  768TIP3    H1 2310   6.123   3.901   3.433  0.5465 -0.2201  1.2884
  768TIP3    H2 2311   6.152   3.754   3.457  1.8388 -0.3180 -0.6505
  769TIP3   OH2 2312   3.866   4.149   4.335  0.1101 -0.2280 -0.5627
  769TIP3    H1 2313   3.929   4.077   4.341 -0.9130 -1.1214 -0.3673
  769TIP3    H2 2314   3.781   4.107   4.338 -0.7188  1.2002  4.0786
  770TIP3   OH2 2315   0.903   0.997   0.972  0.3693  0.4188 -0.3648
  770TIP3    H1 2316   0.895   0.950   1.055  0.6698  0.9033 -0.0543
  770TIP3    H2 2317   0.874   1.086   0.992  0.4032  0.5252 -0.7883
  771TIP3   OH2 2318   2.494   1.435   2.191  0.5280  0.0569 -0.6566
  771TIP3    H1 2319   2.414   1.389   2.164  0.3717 -0.2639  0.3114
  771TIP3    H2 2320   2.511   1.497   2.121  0.2924 -0.9336 -1.6065
  772TIP3   OH2 2321   3.738   5.770   2.392  0.2774 -0.5431  0.4477
  772TIP3    H1 2322   3.689   5.692   2.366  2.3634 -1.3483 -1.4229
  772TIP3    H2 2323   3.826   5.756   2.356  0.9088  2.4071  0.5707
  773TIP3   OH2 2324   4.132   0.775   2.555 -0.2129  0.0826  0.6009
  773TIP3    H1 2325   4.111   0.687   2.588 -0.9484  0.5978  1.5526
  773TIP3    H2 2326   4.202   0.806   2.613 -0.9205  0.6607  1.1605
  774TIP3   OH2 2327   1.521   1.685   5.180 -0.1886  0.3394  0.3131
  774TIP3    H1 2328   1.431   1.658   5.199 -0.1935 -1.1139 -1.5081
  774TIP3    H2 2329   1.520   1.780   5.187 -1.2439  0.2437  2.7267
  775TIP3   OH2 2330   0.447   1.187   1.285 -0.3762 -0.6215 -0.1866
  775TIP3    H1 2331   0.448   1.174   1.190 -0.0367  0.3631 -0.3289
  775TIP3    H2 2332   0.484   1.274   1.298  1.3659 -1.4932  0.9883
  776TIP3   OH2 2333   0.515   3.200   3.834 -0.4284  0.5220  0.0575
  776TIP3    H1 2334   0.436   3.190   3.888 -1.7708  0.4063 -1.8282
  776TIP3    H2 2335   0.557   3.279   3.868 -1.5353  0.7840  0.9033
  777TIP3   OH2 2336   0.997   1.707   0.999  0.0976  0.1640 -0.0043
  777TIP3    H1 2337   1.072   1.757   0.968  0.0111 -0.3762 -1.1422
  777TIP3    H2 2338   0.965   1.755   1.075  1.2474  0.7038  0.1508
  778TIP3   OH2 2339   5.969   0.382   0.310  0.2980 -0.5311 -0.1468
  778TIP3    H1 2340   6.060   0.390   0.338  0.4238 -0.0551 -0.6857
  778TIP3    H2 2341   5.954   0.288   0.305  0.9272 -0.6141 -0.5779
  779TIP3   OH2 2342   3.881   5.137   3.957 -0.3042 -0.0456  0.4767
  779TIP3    H1 2343   3.857   5.228   3.972  2.5751  1.1223 -1.2428
  779TIP3    H2 2344   3.860   5.093   4.040 -0.2076  2.5051  1.9576
  780TIP3   OH2 2345   2.296   2.417   2.825  0.1950 -0.2892  0.5239
  780TIP3    H1 2346   2.321   2.370   2.746  0.3950 -0.6363  0.7893
  780TIP3    H2 2347   2.254   2.497   2.793 -1.0210 -1.0787  0.0388
  781TIP3   OH2 2348   1.923   0.902   0.250  0.0394 -0.0784  0.7090
  781TIP3    H1 2349   1.865   0.954   0.195  0.2705  0.1901  0.7178
  781TIP3    H2 2350   2.007   0.948   0.247  0.9658 -1.7121 -1.2110
  782TIP3   OH2 2351   3.292   1.131   1.292  0.1670  0.0878  0.1534
  782TIP3    H1 2352   3.251   1.163   1.212 -0.5684 -1.6297 -0.2143
  782TIP3    H2 2353   3.223   1.132   1.358  0.8701  1.8662  0.9170
  783TIP3   OH2 2354   0.376   3.819   2.659  0.1695  0.2412  0.2900
  783TIP3    H1 2355   0.423   3.741   2.690  0.1200  0.5006  1.0254
  783TIP3    H2 2356   0.344   3.861   2.739  1.5675  1.8995  0.0520
  784TIP3   OH2 2357   2.994   0.110   2.727  0.3220  0.2098  0.1044
  784TIP3    H1 2358   2.961   0.139   2.813 -1.1675  0.7820 -0.6221
  784TIP3    H2 2359   3.025   0.190   2.685  0.6155  0.0021 -0.0790
  785TIP3   OH2 2360   2.883   2.813   1.464  0.4200 -0.0805  0.3059
  785TIP3    H1 2361   2.904   2.875   1.395  1.3253 -0.5862  0.1085
  785TIP3    H2 2362   2.788   2.807   1.464  0.2980  1.4499  0.4626
  786TIP3   OH2 2363   0.800   4.753   3.574  0.5149 -0.4802  0.5047
  786TIP3    H1 2364   0.794   4.839   3.615 -1.0578 -1.0644  1.5750
  786TIP3    H2 2365   0.789   4.771   3.480  0.2023  0.4838  0.7121
  787TIP3   OH2 2366   5.907   1.889   5.138  0.1042  0.6548  0.2549
  787TIP3    H1 2367   5.904   1.896   5.042  0.8968 -0.0391  0.1663
  787TIP3    H2 2368   5.816   1.898   5.165 -0.4327 -1.2060 -0.7433
  788TIP3   OH2 2369   2.143   0.744   0.486 -0.2762  0.2270 -0.5762
  788TIP3    H1 2370   2.200   0.819   0.500 -0.6548  0.2184  1.3055
  788TIP3    H2 2371   2.187   0.692   0.418  0.5448  1.5613 -1.1079
  789TIP3   OH2 2372   1.975   0.991   0.862 -0.7063 -0.6453 -0.0185
  789TIP3    H1 2373   2.070   1.000   0.854 -0.9848  2.5996 -1.4558
  789TIP3    H2 2374   1.947   0.952   0.779 -0.6405 -2.2777  0.6878
  790TIP3   OH2 2375   0.305   0.885   1.699 -0.1697 -0.0902  0.4908
  790TIP3    H1 2376   0.342   0.955   1.645  1.3327 -1.0114  0.2567
  790TIP3    H2 2377   0.313   0.918   1.789 -0.4054  0.4526  0.3161
  791TIP3   OH2 2378   2.566   4.121   1.516  0.2779 -0.1509 -0.3816
  791TIP3    H1 2379   2.653   4.118   1.556 -0.4061  3.2616  1.7157
  791TIP3    H2 2380   2.511   4.068   1.574  0.3566  0.2912  0.1000
  792TIP3   OH2 2381   4.005   0.671   1.246 -0.2536  0.2636 -0.9464
  792TIP3    H1 2382   3.987   0.715   1.163  0.3619 -0.6321 -1.5725
  792TIP3    H2 2383   4.078   0.719   1.284 -0.2384  0.3945 -1.1414
  793TIP3   OH2 2384   4.257   0.961   1.728 -0.4957 -0.2231 -0.1434
  793TIP3    H1 2385   4.167   0.952   1.760 -1.7097 -0.7665 -3.3716
  793TIP3    H2 2386   4.301   0.881   1.758 -1.4041 -0.4858  0.5146
  794TIP3   OH2 2387   1.684   3.099   5.116 -0.6684 -0.4333  0.3666
  794TIP3    H1 2388   1.591   3.075   5.108 -0.4425 -1.5552  0.9730
  794TIP3    H2 2389   1.724   3.025   5.161  0.6485 -0.2425 -0.4517
  795TIP3   OH2 2390   5.454   3.991   1.999 -0.0346  0.0927  0.2660
  795TIP3    H1 2391   5.437   3.924   1.933 -0.9185  0.6795 -0.1173
  795TIP3    H2 2392   5.413   3.958   2.079 -1.4388  0.6582 -0.1959
  796TIP3   OH2 2393   2.978   0.010   0.266  0.3810 -0.0828 -0.1114
  796TIP3    H1 2394   3.056  -0.012   0.215 -0.3059  0.1469 -1.3168
  796TIP3    H2 2395   3.010   0.027   0.354  1.4948 -1.4421 -0.2253
  797TIP3   OH2 2396   1.041   1.793   4.537  0.1553  0.0275  0.0526
  797TIP3    H1 2397   1.033   1.716   4.481 -1.0517 -0.1242  0.4126
  797TIP3    H2 2398   1.122   1.836   4.508  0.4628 -0.9812 -0.6268
  798TIP3   OH2 2399   1.142   3.555   1.972  0.4627 -0.3374  0.2186
  798TIP3    H1 2400   1.120   3.473   2.016 -0.9778 -1.4290 -2.3198
  798TIP3    H2 2401   1.057   3.594   1.950  1.0938  0.3160 -1.2111
  799TIP3   OH2 2402   5.383   2.560   4.267  0.1392 -0.0282  0.1762
  799TIP3    H1 2403   5.469   2.566   4.307 -0.1101  2.0281  0.5287
  799TIP3    H2 2404   5.401   2.548   4.173  0.7786 -0.7353  0.3847
  800TIP3   OH2 2405   0.025   5.533   1.810  0.0713 -0.4413 -0.2648
  800TIP3    H1 2406  -0.007   5.511   1.723 -0.6860  1.2331 -0.4411
  800TIP3    H2 2407   0.101   5.588   1.795 -0.4564  0.4049  0.1213
  801TIP3   OH2 2408   1.894   2.977   2.910  0.0184 -0.0513  0.4620
  801TIP3    H1 2409   1.932   3.060   2.936 -1.0596  0.1268  1.5382
  801TIP3    H2 2410   1.806   2.999   2.879  0.8125 -0.3939 -2.3652
  802TIP3   OH2 2411   3.905   4.996   1.090  0.1939 -0.3115  0.1930
  802TIP3    H1 2412   3.885   4.902   1.088  0.2375 -0.3077 -1.2545
  802TIP3    H2 2413   3.997   5.002   1.067 -0.1301  0.1560 -1.0424
  803TIP3   OH2 2414   0.156   3.099   2.366  0.5426  0.0710 -0.9968
  803TIP3    H1 2415   0.161   3.189   2.335  0.5391 -0.1523 -1.6481
  803TIP3    H2 2416   0.232   3.090   2.424 -0.2020  0.8898  0.1595
  804TIP3   OH2 2417   3.619   1.284   4.606  0.2695  0.0217 -0.1133
  804TIP3    H1 2418   3.581   1.199   4.626  0.7583  0.1998  1.6754
  804TIP3    H2 2419   3.543   1.342   4.594 -0.0751 -0.6998 -1.7185
  805TIP3   OH2 2420   4.548   1.358   0.983 -0.2360 -0.0082 -0.3471
  805TIP3    H1 2421   4.478   1.295   1.002 -0.1182 -0.3483 -1.0115
  805TIP3    H2 2422   4.567   1.346   0.890  0.4028  0.3919 -0.2768
  806TIP3   OH2 2423   4.976   5.877   3.273  0.2582 -0.2385  0.5927
  806TIP3    H1 2424   5.056   5.929   3.269  0.7650 -0.9285  1.3473
  806TIP3    H2 2425   4.911   5.936   3.310  0.1569  0.6195 -0.9038
  807TIP3   OH2 2426   0.796   2.190   1.686  0.3682 -0.0041 -0.6101
  807TIP3    H1 2427   0.892   2.192   1.684  0.4009 -1.2975 -1.3028
  807TIP3    H2 2428   0.771   2.273   1.725  1.7951  0.0673  0.1998
  808TIP3   OH2 2429   0.217   1.031   0.805  0.1690 -0.0380  0.0811
  808TIP3    H1 2430   0.306   1.065   0.796  0.5822 -1.4554 -1.6572
  808TIP3    H2 2431   0.164   1.088   0.749  0.5905 -1.1871 -1.5518
  809TIP3   OH2 2432   3.119   5.344   1.836 -0.2872 -0.0385 -0.3649
  809TIP3    H1 2433   3.131   5.349   1.742 -0.3751 -2.0753 -0.5152
  809TIP3    H2 2434   3.148   5.257   1.860  1.8337  1.1575  1.8534
  810TIP3   OH2 2435   4.190   4.793   2.385  0.1697  0.1374  0.0590
  810TIP3    H1 2436   4.179   4.699   2.401 -1.1281  0.1836 -0.4836
  810TIP3    H2 2437   4.229   4.797   2.298  0.6210  0.0941  0.2570
  811TIP3   OH2 2438   2.926   3.338   2.493  0.0685  0.0506  0.9137
  811TIP3    H1 2439   2.894   3.292   2.571  0.0991  0.7121  1.3183
  811TIP3    H2 2440   2.846   3.365   2.447  0.0280 -1.3645  0.0786
  812TIP3   OH2 2441   5.916   1.710   3.350  0.0842 -0.4338 -0.2504
  812TIP3    H1 2442   5.876   1.758   3.423  0.5964  1.7786 -1.3139
  812TIP3    H2 2443   5.842   1.689   3.292 -0.0359  0.0680 -0.2854
  813TIP3   OH2 2444   4.055   0.551   5.098 -0.5777 -0.0473 -0.0479
  813TIP3    H1 2445   4.025   0.584   5.013  1.7132  3.1422  0.2013
  813TIP3    H2 2446   4.037   0.623   5.159  0.5368 -1.0751  1.5463
  814TIP3   OH2 2447   4.362   2.369   5.092  0.0365 -0.3674  0.3279
  814TIP3    H1 2448   4.279   2.346   5.051 -0.7529 -0.4109  1.8624
  814TIP3    H2 2449   4.405   2.285   5.107  1.0547 -0.2742 -1.7609
  815TIP3   OH2 2450   5.693   2.887   1.824  0.3513 -0.0018  0.8086
  815TIP3    H1 2451   5.768   2.829   1.837  0.7415  0.4528  0.6263
  815TIP3    H2 2452   5.732   2.974   1.812  0.0062 -0.2139 -2.6676
  816TIP3   OH2 2453   2.777   0.826   0.480 -0.2149  0.4528  0.5261
  816TIP3    H1 2454   2.722   0.754   0.447  1.5120 -0.4790 -0.4410
  816TIP3    H2 2455   2.716   0.899   0.490 -1.8552 -0.8458  0.6061
  817TIP3   OH2 2456   5.626   4.537   2.904 -0.1131  0.3690 -0.2958
  817TIP3    H1 2457   5.621   4.484   2.824 -0.3868  0.0152 -0.0440
  817TIP3    H2 2458   5.601   4.477   2.974  1.8305  0.1687  0.2795
  818TIP3   OH2 2459   0.688   4.130   4.335 -0.7226  0.1354  0.7280
  818TIP3    H1 2460   0.620   4.117   4.268 -0.4360  0.5927  0.3494
  818TIP3    H2 2461   0.639   4.133   4.418 -0.9813 -1.5658  0.6739
  819TIP3   OH2 2462   5.489   0.299   0.941 -0.2403 -0.1336 -0.2159
  819TIP3    H1 2463   5.491   0.288   0.846 -2.2951 -0.2693 -0.2888
  819TIP3    H2 2464   5.479   0.393   0.955 -0.0253 -0.1221 -0.1284
  820TIP3   OH2 2465   2.387   2.908   3.986 -0.0678 -0.0640  0.6135
  820TIP3    H1 2466   2.342   2.941   3.909  0.6045 -0.9085 -0.1589
  820TIP3    H2 2467   2.458   2.854   3.952 -0.1432 -0.9775  1.8254
  821TIP3   OH2 2468   0.560   0.408   0.272  0.0386 -0.2850 -1.0430
  821TIP3    H1 2469   0.536   0.401   0.364 -0.3766  0.1934 -1.1071
  821TIP3    H2 2470   0.623   0.338   0.258 -1.5591 -1.8018 -0.9564
  822TIP3   OH2 2471   2.572   2.244   3.573 -0.4846 -0.3061  0.4322
  822TIP3    H1 2472   2.539   2.192   3.500  0.6919  1.2952 -1.3357
  822TIP3    H2 2473   2.666   2.223   3.576 -0.1370  1.0953  0.1474
  823TIP3   OH2 2474   3.833   0.010   0.252 -0.2433  0.6615 -0.2321
  823TIP3    H1 2475   3.761   0.046   0.305 -0.0687 -1.7416  1.8416
  823TIP3    H2 2476   3.789  -0.043   0.185 -0.4198  2.0703 -1.2734
  824TIP3   OH2 2477   5.836   0.438   1.717  0.1813  0.1247  0.4359
  824TIP3    H1 2478   5.786   0.501   1.769  0.0290 -0.6164  1.2106
  824TIP3    H2 2479   5.771   0.371   1.692  0.1964  0.6014 -0.9407
  825TIP3   OH2 2480   0.837   1.134   4.295  0.5009 -0.8215  0.6916
  825TIP3    H1 2481   0.837   1.146   4.200 -0.9873 -1.0273  0.6445
  825TIP3    H2 2482   0.864   1.219   4.329  0.7019 -0.6387  0.0967
  826TIP3   OH2 2483   5.058   0.927   3.054 -0.3089 -0.4073 -0.1402
  826TIP3    H1 2484   4.975   0.949   3.012 -0.8662 -1.0132  0.6323
  826TIP3    H2 2485   5.051   0.964   3.142 -0.6614 -2.3257  0.6766
  827TIP3   OH2 2486   5.146   5.295   3.382 -0.1520  0.4780  0.1913
  827TIP3    H1 2487   5.091   5.221   3.408  0.0870  0.7314  1.4424
  827TIP3    H2 2488   5.179   5.270   3.295 -1.2002 -0.2434 -0.0220
  828TIP3   OH2 2489   0.872   4.091   0.610 -0.1998 -0.4662 -0.2383
  828TIP3    H1 2490   0.821   4.124   0.536  0.8173 -0.3240 -0.8980
  828TIP3    H2 2491   0.950   4.053   0.571  0.1056 -0.8864  0.7346
  829TIP3   OH2 2492   1.658   5.587   3.343 -0.1257  0.5754  0.2527
  829TIP3    H1 2493   1.573   5.631   3.339 -0.0073  0.7665 -0.2941
  829TIP3    H2 2494   1.660   5.546   3.430 -0.3797  1.3613  0.6421
  830TIP3   OH2 2495   6.189   0.945   3.299 -0.4809 -0.0350  0.1776
  830TIP3    H1 2496   6.272   0.923   3.343  0.1492 -0.4498 -1.1637
  830TIP3    H2 2497   6.156   1.020   3.348  0.7857  0.2622  0.6312
  831TIP3   OH2 2498   5.142   2.931   0.334  0.1924 -0.0857  0.2676
  831TIP3    H1 2499   5.082   2.869   0.374  1.1765  0.0176  1.9770
  831TIP3    H2 2500   5.108   2.942   0.245 -0.7378 -2.0690  0.3148
  832TIP3   OH2 2501   0.261   0.593   1.888 -0.2128  0.3845 -0.1514
  832TIP3    H1 2502   0.301   0.582   1.801 -1.3505  0.7363 -0.7470
  832TIP3    H2 2503   0.335   0.601   1.948  0.6029  0.4723 -1.1365
  833TIP3   OH2 2504   3.030   5.721   4.851 -0.1273 -0.1909 -0.6199
  833TIP3    H1 2505   2.999   5.738   4.940  2.7253 -1.9967  0.8606
  833TIP3    H2 2506   2.991   5.790   4.798 -1.0957  1.5744  2.2058
  834TIP3   OH2 2507   0.742   2.215   1.191 -0.2431 -0.1932 -0.5461
  834TIP3    H1 2508   0.816   2.275   1.201 -0.3921 -0.0728 -0.1536
  834TIP3    H2 2509   0.670   2.270   1.162 -0.4520 -0.1305  0.0765
  835TIP3   OH2 2510   5.596   4.197   1.740  0.5184  0.3621  0.5519
  835TIP3    H1 2511   5.673   4.144   1.721  1.6694  1.4155  2.0443
  835TIP3    H2 2512   5.631   4.284   1.762 -1.3314  2.4016 -3.4334
  836TIP3   OH2 2513   1.241   1.268   3.068  0.0719 -0.1995  0.1902
  836TIP3    H1 2514   1.170   1.235   3.015 -0.4526  1.9116 -0.4937
  836TIP3    H2 2515   1.233   1.220   3.151 -1.7697 -0.3958 -0.0732
  837TIP3   OH2 2516   1.993   5.303   1.004  0.1099  0.1521 -0.2802
  837TIP3    H1 2517   2.015   5.355   1.082 -0.2688  0.2932 -0.2667
  837TIP3    H2 2518   2.077   5.270   0.973  0.0868 -2.0152  1.6515
  838TIP3   OH2 2519   0.554   1.250   2.698 -0.2761  0.3167  0.0127
  838TIP3    H1 2520   0.541   1.328   2.644  0.4873  0.1562 -0.4189
  838TIP3    H2 2521   0.619   1.277   2.763  0.8216 -0.2481 -0.8054
  839TIP3   OH2 2522   2.401   5.266   0.928 -0.5185 -0.7762  0.7123
  839TIP3    H1 2523   2.462   5.232   0.994 -1.1663 -0.7060  1.3658
  839TIP3    H2 2524   2.322   5.212   0.939 -0.7719 -0.5025  0.2598
  840TIP3   OH2 2525   0.027   1.098   1.972 -0.1192 -0.0721 -0.4930
  840TIP3    H1 2526  -0.029   1.025   1.945  0.3806 -0.0268 -1.6961
  840TIP3    H2 2527   0.033   1.154   1.895 -1.4025  1.8686  0.7157
  841TIP3   OH2 2528   3.819   2.347   2.558 -0.0456 -0.6822  0.1142
  841TIP3    H1 2529   3.789   2.420   2.504 -0.1718 -2.0855 -1.7879
  841TIP3    H2 2530   3.915   2.355   2.557 -0.0864 -0.0769  0.6056
  842TIP3   OH2 2531   2.709   4.043   4.307  0.1706 -0.6483  0.1719
  842TIP3    H1 2532   2.618   4.058   4.282  0.3953 -0.6791 -0.6887
  842TIP3    H2 2533   2.726   3.951   4.286  0.2042 -0.8365  0.9784
  843TIP3   OH2 2534   2.026   1.492   4.778 -0.2145  0.3939 -0.1138
  843TIP3    H1 2535   2.013   1.451   4.863  2.4435  0.3418  0.3636
  843TIP3    H2 2536   1.981   1.576   4.785 -0.6273  0.0923  1.1047
  844TIP3   OH2 2537   4.947   5.245   1.773  0.2793  0.2064 -0.3474
  844TIP3    H1 2538   4.929   5.339   1.770 -0.4688  0.0553 -0.9966
  844TIP3    H2 2539   4.989   5.231   1.858 -0.2255  1.0282  0.0515
  845TIP3   OH2 2540   4.233   1.713   1.034 -0.0235 -0.0915  0.1638
  845TIP3    H1 2541   4.302   1.671   0.983 -1.2222  0.0602 -1.6444
  845TIP3    H2 2542   4.280   1.769   1.096  1.4890  0.7736 -1.6826
  846TIP3   OH2 2543   1.242   1.683   2.777  0.1832 -0.5159 -0.2151
  846TIP3    H1 2544   1.209   1.603   2.736  2.1532 -1.5458  0.0972
  846TIP3    H2 2545   1.258   1.659   2.868  0.4968  0.3272 -0.0371
  847TIP3   OH2 2546   0.996   4.064   2.616  0.7961 -0.2838 -0.2285
  847TIP3    H1 2547   0.964   4.017   2.693  0.9227 -0.6416 -0.3904
  847TIP3    H2 2548   0.961   4.015   2.542 -1.0738  1.2445 -0.4326
  848TIP3   OH2 2549   5.381   1.132   4.906 -0.7861  0.0478  0.0072
  848TIP3    H1 2550   5.371   1.156   4.814 -1.1867  0.4792  0.1617
  848TIP3    H2 2551   5.475   1.134   4.921 -0.6271 -1.0224 -0.6543
  849TIP3   OH2 2552   3.282   0.665   2.371  0.1388 -0.3984  0.2596
  849TIP3    H1 2553   3.356   0.611   2.343  0.4094 -0.9068  1.8613
  849TIP3    H2 2554   3.243   0.696   2.289  2.2736  0.1218 -0.6422
  850TIP3   OH2 2555   1.718   1.834   4.386 -0.2032  1.0475  0.9353
  850TIP3    H1 2556   1.772   1.907   4.355  1.8327  0.0265  1.8414
  850TIP3    H2 2557   1.723   1.839   4.481  0.7344 -0.7284  1.0206
  851TIP3   OH2 2558   1.958   0.651   2.222 -0.1529 -0.0088 -0.1578
  851TIP3    H1 2559   1.910   0.733   2.221  1.0645  0.7570 -1.9779
  851TIP3    H2 2560   1.892   0.584   2.236 -1.3840  1.1655 -0.1638
  852TIP3   OH2 2561   0.039   2.958   0.818 -0.4725 -0.3797  0.2069
  852TIP3    H1 2562  -0.042   2.924   0.856 -2.1055  1.2067 -1.6640
  852TIP3    H2 2563   0.058   2.901   0.744  0.0154 -0.5882  0.4820
  853TIP3   OH2 2564   5.729   4.449   0.571  0.0889 -0.0087  0.2260
  853TIP3    H1 2565   5.749   4.529   0.620  0.1169  0.4261 -0.4898
  853TIP3    H2 2566   5.794   4.447   0.500 -0.6772 -0.0299 -0.4839
  854TIP3   OH2 2567   1.569   5.585   5.073 -0.2707  0.2186 -0.1090
  854TIP3    H1 2568   1.628   5.658   5.094 -1.2981  0.4540  2.2965
  854TIP3    H2 2569   1.605   5.511   5.122 -1.0276 -0.0631  0.0243
  855TIP3   OH2 2570   2.826   0.826   2.382  0.8277 -0.4962 -0.1979
  855TIP3    H1 2571   2.797   0.842   2.472  0.9174 -2.0508  0.1310
  855TIP3    H2 2572   2.918   0.802   2.391  1.1528  0.4571 -0.8381
  856TIP3   OH2 2573   0.308   3.213   2.700  0.2996 -0.2957 -0.7110
  856TIP3    H1 2574   0.326   3.263   2.780  0.5641 -1.4690 -0.0114
  856TIP3    H2 2575   0.372   3.245   2.636  0.1746  0.5549 -0.4239
  857TIP3   OH2 2576   1.400   4.221   3.519  0.0126  0.3394  0.1696
  857TIP3    H1 2577   1.344   4.270   3.580  0.9827 -0.4356  1.7695
  857TIP3    H2 2578   1.409   4.135   3.560  0.0807 -0.4812 -1.4917
  858TIP3   OH2 2579   3.922   1.642   3.174  0.2708 -0.2463 -0.2054
  858TIP3    H1 2580   4.003   1.670   3.216 -0.1625 -2.8444  2.7924
  858TIP3    H2 2581   3.934   1.548   3.158 -1.1017 -0.1089 -2.4742
  859TIP3   OH2 2582   2.631   2.994   4.920 -0.4685  0.4537 -0.1471
  859TIP3    H1 2583   2.612   3.084   4.893 -0.2704  0.3608 -0.5967
  859TIP3    H2 2584   2.626   2.943   4.839 -0.9240  0.0008  0.1571
  860TIP3   OH2 2585   3.880   2.632   0.538 -0.7362  0.0125 -0.3278
  860TIP3    H1 2586   3.928   2.600   0.461 -0.2413  1.1625 -0.5159
  860TIP3    H2 2587   3.841   2.553   0.576 -0.4456 -0.6622 -1.3816
  861TIP3   OH2 2588   3.355   0.715   3.510 -0.2039  0.3571 -0.1293
  861TIP3    H1 2589   3.360   0.699   3.604 -0.0844 -0.4149 -0.2598
  861TIP3    H2 2590   3.408   0.794   3.497 -0.1836  0.4474  0.4435
  862TIP3   OH2 2591   5.244   1.453   0.271 -0.1524 -0.0567  0.2775
  862TIP3    H1 2592   5.222   1.360   0.278 -0.1420 -0.2298 -1.4693
  862TIP3    H2 2593   5.165   1.494   0.236  0.1171  0.4569  0.2596
  863TIP3   OH2 2594   6.200   4.079   3.788  0.6000 -0.0332 -0.9228
  863TIP3    H1 2595   6.220   4.172   3.793 -1.1394  0.3468 -0.4613
  863TIP3    H2 2596   6.276   4.036   3.828  0.0141  1.3693  1.9696
  864TIP3   OH2 2597   3.379   1.336   0.957 -0.0019  0.3245 -0.5980
  864TIP3    H1 2598   3.384   1.261   0.898 -0.0647 -0.5116  0.4351
  864TIP3    H2 2599   3.464   1.380   0.948  2.4045 -3.0401  2.8442
  865TIP3   OH2 2600   0.759   5.422   2.086  0.3230 -0.2589  0.1636
  865TIP3    H1 2601   0.756   5.410   2.181  1.8064  0.6954  0.3734
  865TIP3    H2 2602   0.776   5.335   2.051 -0.1942 -0.6138  0.7813
  866TIP3   OH2 2603   5.513   0.577   0.990 -0.1587 -0.1574  0.1215
  866TIP3    H1 2604   5.448   0.645   0.975 -0.7738 -0.2208  2.2504
  866TIP3    H2 2605   5.512   0.562   1.084  1.1989 -1.9036 -0.0803
  867TIP3   OH2 2606   4.253   5.571   1.542 -0.0733  0.1656 -0.2885
  867TIP3    H1 2607   4.339   5.544   1.573 -0.4978 -1.4215 -0.3704
  867TIP3    H2 2608   4.196   5.496   1.561 -0.9199  0.1770 -2.4204
  868TIP3   OH2 2609   2.229   1.613   1.439  0.1940  0.3590 -0.6447
  868TIP3    H1 2610   2.324   1.615   1.436  0.3875 -2.1966  0.8869
  868TIP3    H2 2611   2.205   1.693   1.486  1.7384  0.1347  0.6174
  869TIP3   OH2 2612   4.868   4.506   0.684 -0.0156 -0.4963 -0.2411
  869TIP3    H1 2613   4.896   4.539   0.598  0.3835  2.1624  0.7959
  869TIP3    H2 2614   4.846   4.414   0.669 -2.0240  0.3618 -3.6572
  870TIP3   OH2 2615   1.742   2.419   5.101  0.6461 -0.0719 -0.0856
  870TIP3    H1 2616   1.810   2.394   5.038 -0.0411 -0.3788 -0.7268
  870TIP3    H2 2617   1.660   2.407   5.053  0.1251  0.0695  0.7508
  871TIP3   OH2 2618   3.141   4.813   1.651  0.0414 -0.3544 -0.0409
  871TIP3    H1 2619   3.127   4.878   1.583 -0.6435 -0.5111 -0.0594
  871TIP3    H2 2620   3.108   4.854   1.731 -3.2392 -1.7218 -0.5384
  872TIP3   OH2 2621   6.335   0.228   4.360  0.5723 -0.0390  0.1313
  872TIP3    H1 2622   6.325   0.179   4.441 -1.3899 -0.9168 -0.5911
  872TIP3    H2 2623   6.257   0.283   4.355  0.2209 -0.6323 -1.5681
  873TIP3   OH2 2624   0.745   1.706   4.161  0.0210  0.2681  0.0707
  873TIP3    H1 2625   0.757   1.733   4.252 -1.0563  1.7834 -0.1986
  873TIP3    H2 2626   0.832   1.680   4.132  0.4404  0.0810  1.4242
  874TIP3   OH2 2627   2.570   5.031   2.279 -0.2027  0.3690  0.1855
  874TIP3    H1 2628   2.514   5.052   2.354  0.5507 -0.0316  0.8806
  874TIP3    H2 2629   2.594   5.117   2.242 -1.4472  0.5354 -0.2716
  875TIP3   OH2 2630   5.842   1.868   4.577 -0.1258 -0.4926  0.1019
  875TIP3    H1 2631   5.807   1.779   4.568  1.9974 -1.3654 -0.1268
  875TIP3    H2 2632   5.935   1.856   4.598  0.7367  1.6397 -1.9449
  876TIP3   OH2 2633   4.471   3.877   0.948 -0.0766  0.2066 -0.4827
  876TIP3    H1 2634   4.378   3.871   0.927 -0.0483 -0.3568 -0.4437
  876TIP3    H2 2635   4.474   3.870   1.044  0.2452 -3.2221 -0.6286
  877TIP3   OH2 2636   4.192   3.296   2.376 -0.0904 -0.0414  0.6000
  877TIP3    H1 2637   4.279   3.268   2.349 -0.6728 -0.2080 -1.2923
  877TIP3    H2 2638   4.132   3.235   2.332 -1.1571 -0.7952  2.9633
  878TIP3   OH2 2639   5.818   0.614   1.476 -0.1581  0.0141 -0.6556
  878TIP3    H1 2640   5.727   0.633   1.498  0.4200  0.9568  1.2158
  878TIP3    H2 2641   5.843   0.544   1.536  0.2980 -0.3520 -1.2691
  879TIP3   OH2 2642   0.096   5.184   4.843 -0.2513  0.2062  0.0312
  879TIP3    H1 2643   0.142   5.262   4.812  0.4033  0.0761  0.6452
  879TIP3    H2 2644   0.048   5.214   4.921 -0.5848  0.1643 -0.1580
  880TIP3   OH2 2645   2.968   4.230   5.148  0.2998 -0.0769 -0.3517
  880TIP3    H1 2646   2.892   4.203   5.097  1.2054 -0.5431 -1.5007
  880TIP3    H2 2647   3.042   4.222   5.088  1.2560  0.4717  0.6982
  881TIP3   OH2 2648   6.269   5.469   4.114 -0.5888  0.3078  0.3119
  881TIP3    H1 2649   6.233   5.424   4.190 -0.0107 -1.9915 -0.6932
  881TIP3    H2 2650   6.363   5.472   4.130 -0.5689  0.7648  0.1415
  882TIP3   OH2 2651   3.561   2.709   1.388  0.0777 -0.1929  0.2215
  882TIP3    H1 2652   3.558   2.695   1.482  1.6061 -0.4594  0.2572
  882TIP3    H2 2653   3.479   2.672   1.355 -0.0592 -0.9156  1.3382
  883TIP3   OH2 2654   0.213   0.316   1.083 -0.2283 -0.3663 -0.7428
  883TIP3    H1 2655   0.152   0.270   1.026 -0.1126 -0.1517 -1.0433
  883TIP3    H2 2656   0.248   0.248   1.140  0.9670 -0.9241 -2.0653
  884TIP3   OH2 2657   4.363   3.317   3.439 -0.0404 -0.3493 -0.1161
  884TIP3    H1 2658   4.319   3.374   3.375  0.3667  0.2286  0.1098
  884TIP3    H2 2659   4.372   3.372   3.517  0.9284 -0.5201 -0.0995
  885TIP3   OH2 2660   4.379   5.470   3.726 -0.2169 -0.0862 -0.4773
  885TIP3    H1 2661   4.335   5.432   3.803 -0.0415 -1.4336 -1.0109
  885TIP3    H2 2662   4.375   5.401   3.660 -0.3131  1.0202 -1.6792
  886TIP3   OH2 2663   0.991   5.870   1.817  0.3703 -0.0826 -0.2908
  886TIP3    H1 2664   0.997   5.962   1.845 -1.4469 -0.5967  2.0386
  886TIP3    H2 2665   1.038   5.821   1.885  0.2257 -0.9925 -0.8326
  887TIP3   OH2 2666   5.273   4.190   0.152  0.0606 -0.9749  0.1978
  887TIP3    H1 2667   5.240   4.224   0.236  1.7575  0.4309  0.3636
  887TIP3    H2 2668   5.204   4.210   0.089 -0.7577 -1.0126  1.0603
  888TIP3   OH2 2669   5.111   3.206   3.079  0.1031  0.4802 -0.2447
  888TIP3    H1 2670   5.052   3.259   3.025 -0.5745  1.0782  1.0470
  888TIP3    H2 2671   5.159   3.152   3.015 -2.2639 -0.4962 -1.3420
  889TIP3   OH2 2672   0.013   0.725   3.059 -0.7385  0.9048  0.1839
  889TIP3    H1 2673  -0.058   0.740   2.995 -0.7014  0.7182  0.0956
  889TIP3    H2 2674   0.079   0.790   3.037  0.1038 -0.3521 -1.2012
  890TIP3   OH2 2675   3.183   4.569   3.007 -0.0755  0.2965 -0.3994
  890TIP3    H1 2676   3.246   4.497   3.010 -0.7105 -0.2728 -0.3943
  890TIP3    H2 2677   3.213   4.630   3.074  1.0597  0.5497 -1.1031
  891TIP3   OH2 2678   4.199   5.637   1.043  0.0273 -0.0297  0.1839
  891TIP3    H1 2679   4.214   5.547   1.015  1.9727  0.6841 -1.3590
  891TIP3    H2 2680   4.227   5.638   1.135 -2.4098 -1.4769  1.0430
  892TIP3   OH2 2681   1.668   1.055   4.358  0.8101  0.3840 -0.1344
  892TIP3    H1 2682   1.748   1.004   4.369  0.4377 -0.3369 -0.7071
  892TIP3    H2 2683   1.655   1.097   4.443  1.9815  0.7963 -0.1346
  893TIP3   OH2 2684   4.878   3.356   3.431  0.2769 -0.4587  0.2109
  893TIP3    H1 2685   4.820   3.429   3.454  1.3097  0.1726  0.8803
  893TIP3    H2 2686   4.837   3.279   3.471 -0.9119 -0.3065 -0.6355
  894TIP3   OH2 2687   0.971   1.528   1.810 -0.2965  0.3811 -0.5746
  894TIP3    H1 2688   1.019   1.534   1.728 -0.9818  0.3788 -0.9894
  894TIP3    H2 2689   1.026   1.476   1.868  0.1090  0.2330 -1.0931
  895TIP3   OH2 2690   2.469   3.903   2.978  0.6765 -0.3096  0.1546
  895TIP3    H1 2691   2.424   3.945   2.904 -0.0638 -2.4625 -0.6815
  895TIP3    H2 2692   2.543   3.857   2.937  0.9196 -0.6068  0.9229
  896TIP3   OH2 2693   3.268   3.581   3.765  0.1592 -0.0983 -0.2147
  896TIP3    H1 2694   3.175   3.560   3.776  0.1935  0.1860  0.7887
  896TIP3    H2 2695   3.287   3.564   3.673 -0.5593 -1.4905 -0.1314
  897TIP3   OH2 2696   0.676   1.417   3.475  0.2177 -0.2932 -0.2588
  897TIP3    H1 2697   0.587   1.387   3.459 -0.2949  0.9758  0.0794
  897TIP3    H2 2698   0.728   1.379   3.404 -0.6483 -0.7750 -0.6420
  898TIP3   OH2 2699   3.569   5.213   3.879 -0.1172  0.1254 -0.1080
  898TIP3    H1 2700   3.618   5.287   3.844 -1.4621  1.1092  0.0028
  898TIP3    H2 2701   3.569   5.225   3.974  0.5267 -0.5912 -0.0095
  899TIP3   OH2 2702   3.710   3.219   4.894 -0.0603  0.3925 -0.1941
  899TIP3    H1 2703   3.754   3.188   4.974  0.3698  0.7830 -0.2739
  899TIP3    H2 2704   3.781   3.228   4.831 -0.4418 -0.2030 -0.7133
  900TIP3   OH2 2705   4.414   1.208   1.398  0.0120 -0.1088  0.0691
  900TIP3    H1 2706   4.355   1.256   1.341  0.2808  0.1483  0.0058
  900TIP3    H2 2707   4.498   1.208   1.352  0.0885 -0.3847  0.2046
  901TIP3   OH2 2708   2.757   4.313   1.025  0.5355 -0.0113 -0.3354
  901TIP3    H1 2709   2.765   4.284   1.116 -0.4976 -1.8810 -0.7684
  901TIP3    H2 2710   2.717   4.238   0.980  0.3638  1.1279 -2.1887
  902TIP3   OH2 2711   1.015   2.092   5.142  0.0299  0.0635 -0.6966
  902TIP3    H1 2712   1.051   2.173   5.106  0.8111  0.9369  1.8231
  902TIP3    H2 2713   0.935   2.119   5.188  0.1321 -0.6164 -0.0956
  903TIP3   OH2 2714   4.097   5.147   4.146  0.2957  0.0061  0.1497
  903TIP3    H1 2715   4.189   5.157   4.123  0.1986 -1.2021 -0.9269
  903TIP3    H2 2716   4.050   5.170   4.066 -0.3066  0.0819  0.5224
  904TIP3   OH2 2717   3.498   2.010   2.397  0.5505 -0.2040 -0.1418
  904TIP3    H1 2718   3.481   2.059   2.317 -0.4251  1.9051  1.2716
  904TIP3    H2 2719   3.573   1.955   2.376  0.3031  0.2698 -2.4865
  905TIP3   OH2 2720   2.143   3.183   0.206 -0.1178  0.1452 -0.1192
  905TIP3    H1 2721   2.107   3.097   0.185 -1.9890  0.8412  0.0030
  905TIP3    H2 2722   2.213   3.166   0.269 -1.5785 -1.1889  1.2072
  906TIP3   OH2 2723   1.165   2.551   5.136 -0.2709 -0.2403 -0.3323
  906TIP3    H1 2724   1.239   2.610   5.124 -0.5320  0.0625 -0.4630
  906TIP3    H2 2725   1.141   2.561   5.228  0.0532 -0.5831 -0.2061
  907TIP3   OH2 2726   6.051   3.032   2.545 -0.4851 -0.5063 -0.1002
  907TIP3    H1 2727   6.005   3.107   2.581  0.8941 -0.5370  1.8614
  907TIP3    H2 2728   5.991   2.958   2.559 -1.1412 -0.0725 -0.5267
  908TIP3   OH2 2729   3.114   5.273   3.210  0.1749 -0.3370 -0.2440
  908TIP3    H1 2730   3.029   5.237   3.234  0.4576 -1.3868 -0.7780
  908TIP3    H2 2731   3.177   5.215   3.252  0.6665  1.2521  1.3417
  909TIP3   OH2 2732   3.634   1.406   4.859 -0.2048 -0.4134 -0.4433
  909TIP3    H1 2733   3.540   1.387   4.866 -0.1583 -0.8376 -0.8781
  909TIP3    H2 2734   3.655   1.391   4.766  0.4691 -1.1892 -0.1789
  910TIP3   OH2 2735   3.819   0.939   0.507  0.0054  0.6970 -0.1392
  910TIP3    H1 2736   3.874   1.009   0.472  0.7676  0.8097  1.2111
  910TIP3    H2 2737   3.794   0.888   0.431 -0.0436  2.0750 -1.0726
  911TIP3   OH2 2738   6.172   5.292   2.807  0.0803 -0.4405 -0.0317
  911TIP3    H1 2739   6.258   5.274   2.845 -0.4806  0.4380  1.7385
  911TIP3    H2 2740   6.176   5.384   2.781 -0.4556 -0.2866  0.4236
  912TIP3   OH2 2741   5.472   5.740   2.310  0.0049  0.3889  0.2788
  912TIP3    H1 2742   5.446   5.685   2.384  1.1911  0.3081  0.6623
  912TIP3    H2 2743   5.390   5.760   2.265 -0.4533 -2.0743 -0.1337
  913TIP3   OH2 2744   0.523   4.305   0.789  0.9875  0.5920 -0.1855
  913TIP3    H1 2745   0.566   4.390   0.803  0.2274  0.9005  0.3457
  913TIP3    H2 2746   0.463   4.296   0.863 -2.6175  1.9248 -2.6453
  914TIP3   OH2 2747   6.134   5.110   2.409  0.8340  0.1029  0.3502
  914TIP3    H1 2748   6.188   5.032   2.411  0.5549 -0.0849  1.7271
  914TIP3    H2 2749   6.094   5.113   2.496 -0.2742  0.9928 -0.1734
  915TIP3   OH2 2750   3.437   1.876   1.863  0.3032  0.4227  0.4873
  915TIP3    H1 2751   3.378   1.935   1.910  0.3929  0.0617  1.0753
  915TIP3    H2 2752   3.444   1.800   1.921  1.1281  0.3467  0.2938
  916TIP3   OH2 2753   3.238   2.002   0.919  0.0621  0.2088 -0.3843
  916TIP3    H1 2754   3.306   1.951   0.875 -0.9054 -0.7276 -0.8419
  916TIP3    H2 2755   3.255   2.092   0.894  2.5397  0.3419  1.3768
  917TIP3   OH2 2756   0.739   2.435   1.772 -0.1767 -0.3704  0.3719
  917TIP3    H1 2757   0.649   2.465   1.787  0.9235  2.4454  2.1244
  917TIP3    H2 2758   0.774   2.417   1.859  0.8761 -1.8906 -0.3125
  918TIP3   OH2 2759   2.676   2.940   1.650 -0.6122 -0.2991 -0.4425
  918TIP3    H1 2760   2.618   2.959   1.724  0.8475 -0.1469  0.7218
  918TIP3    H2 2761   2.699   2.848   1.660  0.2999 -0.0523 -0.1651
  919TIP3   OH2 2762   5.751   3.593   0.607  0.0061 -0.3471  0.4850
  919TIP3    H1 2763   5.734   3.502   0.581 -1.0315 -0.0378 -0.0057
  919TIP3    H2 2764   5.665   3.627   0.631  0.3516  0.5656  0.4719
  920TIP3   OH2 2765   6.217   1.356   1.321 -0.5238  0.1678  0.1173
  920TIP3    H1 2766   6.235   1.409   1.244 -1.4571  0.3083 -0.0189
  920TIP3    H2 2767   6.127   1.379   1.346 -1.1452 -1.6494 -0.2197
  921TIP3   OH2 2768   4.418   0.173   2.262  0.0827 -0.3536  0.1258
  921TIP3    H1 2769   4.451   0.096   2.308 -0.5193 -0.9287 -0.3686
  921TIP3    H2 2770   4.323   0.159   2.258 -0.0009  0.2788 -0.2105
  922TIP3   OH2 2771   4.221   4.826   4.791 -0.4708  0.0897 -0.0802
  922TIP3    H1 2772   4.217   4.746   4.738  0.2118  0.1998 -0.3127
  922TIP3    H2 2773   4.260   4.891   4.732 -1.8000  0.8292 -0.1769
  923TIP3   OH2 2774   0.829   0.124   2.263 -0.1943 -0.1409  0.2323
  923TIP3    H1 2775   0.883   0.203   2.262  0.7401 -0.7061  2.3024
  923TIP3    H2 2776   0.766   0.139   2.334 -0.5389 -0.9162  0.1007
  924TIP3   OH2 2777   3.326   5.511   1.948 -0.4282 -0.2238 -0.1494
  924TIP3    H1 2778   3.266   5.583   1.966  0.2102  0.5382 -0.9744
  924TIP3    H2 2779   3.272   5.446   1.903 -0.6255  0.5228 -1.0398
  925TIP3   OH2 2780   0.522   1.664   1.014  0.2611 -0.4564  0.3025
  925TIP3    H1 2781   0.434   1.637   1.043 -0.5743 -0.0643 -1.7328
  925TIP3    H2 2782   0.511   1.753   0.983  1.4849 -0.2680  0.3674
  926TIP3   OH2 2783   3.039   1.748   3.769  0.0463 -0.4836  0.1720
  926TIP3    H1 2784   3.085   1.827   3.799  1.6919 -0.9078 -1.0922
  926TIP3    H2 2785   2.993   1.775   3.690  0.0713 -0.6360  0.1046
  927TIP3   OH2 2786   6.108   0.448   1.727 -0.1052  0.2480  0.1256
  927TIP3    H1 2787   6.143   0.422   1.642 -0.7526  0.4979 -0.2252
  927TIP3    H2 2788   6.021   0.409   1.731 -0.0376  0.1416  0.7245
  928TIP3   OH2 2789   3.667   4.385   0.155  0.4646  0.0677 -0.2638
  928TIP3    H1 2790   3.702   4.474   0.164 -0.7426  0.5608 -0.2732
  928TIP3    H2 2791   3.744   4.329   0.156  1.0948  0.8174  3.0462
  929TIP3   OH2 2792   4.224   5.430   3.949 -0.2306  0.1408  0.0319
  929TIP3    H1 2793   4.268   5.484   4.015 -1.3752 -1.3623  2.1258
  929TIP3    H2 2794   4.131   5.436   3.971 -0.4595 -1.9953 -0.1723
  930TIP3   OH2 2795   0.383   3.904   2.399  0.6832  0.6657  0.3671
  930TIP3    H1 2796   0.390   3.915   2.493 -0.6070  1.6210  0.3752
  930TIP3    H2 2797   0.305   3.851   2.386  2.9369 -2.9054 -0.0475
  931TIP3   OH2 2798   0.695   5.667   1.939  0.1640  0.5180  0.0730
  931TIP3    H1 2799   0.608   5.703   1.952  1.4999  2.9919  3.5524
  931TIP3    H2 2800   0.702   5.596   2.002  0.4263 -0.2536 -0.7980
  932TIP3   OH2 2801   3.017   5.209   3.714 -0.1871  0.3592  0.1950
  932TIP3    H1 2802   2.977   5.163   3.640  0.4555  1.8684 -1.1473
  932TIP3    H2 2803   3.091   5.154   3.739 -1.4678 -1.0928  0.9563
  933TIP3   OH2 2804   5.368   4.622   0.970 -0.2377 -0.0436  0.8174
  933TIP3    H1 2805   5.315   4.608   1.049 -0.7282  0.4246  0.5804
  933TIP3    H2 2806   5.449   4.662   1.002 -0.4932  0.2765  1.0679
  934TIP3   OH2 2807   0.611   0.048   0.601  0.5237 -0.1932  0.4722
  934TIP3    H1 2808   0.532   0.063   0.653  0.8817  0.9678  0.7134
  934TIP3    H2 2809   0.652  -0.028   0.641 -0.5986 -0.9817  0.1727
  935TIP3   OH2 2810   2.431   5.251   1.506  0.1922  0.4651 -0.0044
  935TIP3    H1 2811   2.513   5.213   1.475 -1.2642 -1.9420 -1.2399
  935TIP3    H2 2812   2.417   5.327   1.449  0.9344  0.1451 -0.6381
  936TIP3   OH2 2813   2.049   5.669   4.201 -0.4656 -0.0989  0.0392
  936TIP3    H1 2814   2.054   5.744   4.260 -0.3447 -0.2830  0.2636
  936TIP3    H2 2815   1.969   5.683   4.151  0.3502  0.9925 -1.0185
  937TIP3   OH2 2816   5.675   1.485   5.099  0.0723 -0.3698  0.2193
  937TIP3    H1 2817   5.713   1.563   5.139  2.1632 -1.4382  0.4059
  937TIP3    H2 2818   5.650   1.430   5.173 -1.6269  0.1537  0.0938
  938TIP3   OH2 2819   2.883   2.812   2.778  0.5392 -0.2053  0.1315
  938TIP3    H1 2820   2.821   2.774   2.715 -1.8585  1.4092  1.3818
  938TIP3    H2 2821   2.902   2.899   2.743 -1.7515  1.1848  2.0929
  939TIP3   OH2 2822   3.661   0.995   2.953 -0.0440  0.1243 -0.3517
  939TIP3    H1 2823   3.625   0.927   2.897  0.3263  0.6964 -1.2922
  939TIP3    H2 2824   3.635   0.969   3.042 -0.1626 -1.0703 -0.7249
  940TIP3   OH2 2825   1.515   3.283   3.372  0.0672  0.3180  0.1901
  940TIP3    H1 2826   1.556   3.320   3.293  0.9577 -2.7932 -0.9436
  940TIP3    H2 2827   1.585   3.283   3.437 -0.3208  1.7351  0.6533
  941TIP3   OH2 2828   4.031   5.199   1.878  0.3733 -0.3544  0.0569
  941TIP3    H1 2829   3.938   5.179   1.890  0.1939  0.4715  0.1221
  941TIP3    H2 2830   4.070   5.185   1.964  0.7495 -2.8249 -0.4489
  942TIP3   OH2 2831   5.172   1.729   1.655  0.0669  0.2922  0.1461
  942TIP3    H1 2832   5.244   1.687   1.609  1.3061  0.0084  2.1960
  942TIP3    H2 2833   5.178   1.821   1.631 -0.4419 -0.1051 -1.6029
  943TIP3   OH2 2834   1.113   5.134   1.044 -0.5367  0.0427  0.2127
  943TIP3    H1 2835   1.085   5.043   1.048 -1.2894  0.2987  1.3931
  943TIP3    H2 2836   1.172   5.145   1.119 -0.8486  0.6396  0.3830
  944TIP3   OH2 2837   0.275   5.636   2.996 -0.0414 -0.4246  0.2033
  944TIP3    H1 2838   0.300   5.560   2.942  0.0322 -0.8341  0.8058
  944TIP3    H2 2839   0.356   5.684   3.010 -0.0861 -0.2349 -0.1714
  945TIP3   OH2 2840   0.618   2.448   4.451 -0.3500  0.2296  0.2772
  945TIP3    H1 2841   0.610   2.457   4.546 -0.6104  1.5700  0.1464
  945TIP3    H2 2842   0.528   2.442   4.419 -0.2910  0.4882  0.0573
  946TIP3   OH2 2843   1.539   5.237   0.706 -0.3756 -0.1444  0.0132
  946TIP3    H1 2844   1.534   5.234   0.802 -1.4406  0.1426 -0.0155
  946TIP3    H2 2845   1.541   5.145   0.679  0.6596 -0.2231  0.3315
  947TIP3   OH2 2846   0.830   5.833   2.096  0.1581 -0.2388 -0.1438
  947TIP3    H1 2847   0.845   5.781   2.176  1.0404  0.3351  0.0828
  947TIP3    H2 2848   0.788   5.772   2.036 -2.1957 -0.2024  1.3473
  948TIP3   OH2 2849   3.763   2.847   4.208  0.3050  0.2989  0.1662
  948TIP3    H1 2850   3.778   2.879   4.119  0.0680  0.4548  0.1825
  948TIP3    H2 2851   3.759   2.752   4.198  0.2441  0.3172  0.0029
  949TIP3   OH2 2852   1.640   1.962   3.902 -0.0814  0.1070  0.9638
  949TIP3    H1 2853   1.600   1.879   3.930  0.8352 -0.2482  1.2708
  949TIP3    H2 2854   1.648   2.013   3.982 -1.7525  1.0099  0.5972
  950TIP3   OH2 2855   5.242   4.968   0.508 -0.6398  0.0589 -0.0358
  950TIP3    H1 2856   5.195   5.031   0.563  0.1942  0.1073  0.6449
  950TIP3    H2 2857   5.330   5.006   0.498 -0.4941 -0.4137 -0.6146
  951TIP3   OH2 2858   5.553   3.915   3.740 -0.1220  0.0884  0.1849
  951TIP3    H1 2859   5.459   3.899   3.734  0.1131 -1.1923 -0.3853
  951TIP3    H2 2860   5.580   3.873   3.821  0.0949 -0.3207 -0.0933
  952TIP3   OH2 2861   1.704   5.628   4.397  0.1397  0.1026  0.8460
  952TIP3    H1 2862   1.704   5.688   4.322 -0.0623 -0.0370  0.7310
  952TIP3    H2 2863   1.662   5.678   4.467  0.7792  0.4107  1.0147
  953TIP3   OH2 2864   0.071   1.731   0.812  0.0433 -0.6566 -0.1233
  953TIP3    H1 2865  -0.002   1.670   0.803 -0.3657 -0.1955  0.0006
  953TIP3    H2 2866   0.091   1.730   0.906  1.6084 -2.3814 -0.4310
  954TIP3   OH2 2867   4.813   2.244   3.283 -0.1481  0.0583  0.3170
  954TIP3    H1 2868   4.763   2.191   3.221  0.9602 -0.1534 -0.4358
  954TIP3    H2 2869   4.797   2.205   3.368 -0.3461 -0.7195 -0.0694
  955TIP3   OH2 2870   4.155   0.976   3.421  0.5604 -0.1164 -0.0887
  955TIP3    H1 2871   4.185   1.066   3.433 -0.8254  0.4090 -0.3017
  955TIP3    H2 2872   4.143   0.943   3.510  0.3482  0.1791 -0.0048
  956TIP3   OH2 2873   2.408   4.503   0.160 -0.0277 -0.2292  0.1563
  956TIP3    H1 2874   2.388   4.458   0.242  1.3084 -1.0538  0.0676
  956TIP3    H2 2875   2.384   4.594   0.175 -0.4067 -0.4946  1.2248
  957TIP3   OH2 2876   1.221   4.665   2.631  0.1922 -0.2867  0.5362
  957TIP3    H1 2877   1.299   4.663   2.686 -0.2353 -0.8723  1.1421
  957TIP3    H2 2878   1.241   4.606   2.559 -0.7882 -2.9582  2.2834
  958TIP3   OH2 2879   4.982   4.367   1.034  0.3344 -0.6457  0.5898
  958TIP3    H1 2880   5.013   4.335   1.119  0.0062 -1.4082  0.4263
  958TIP3    H2 2881   4.963   4.288   0.984  2.6853 -0.3147 -1.0262
  959TIP3   OH2 2882   5.899   0.155   2.810  0.0905  0.4800 -0.3874
  959TIP3    H1 2883   5.929   0.224   2.751 -0.0918  1.2523  0.4105
  959TIP3    H2 2884   5.974   0.096   2.817  0.4139  0.8474 -0.7023
  960TIP3   OH2 2885   4.801   4.369   0.215  0.0309  0.3446 -0.1389
  960TIP3    H1 2886   4.729   4.405   0.267 -0.5559 -1.9262  0.7153
  960TIP3    H2 2887   4.770   4.371   0.125  0.0871  2.0317 -0.1618
  961TIP3   OH2 2888   0.413   0.882   1.262 -0.4815  0.1459  0.2528
  961TIP3    H1 2889   0.322   0.854   1.248 -0.4186  0.5835 -1.1547
  961TIP3    H2 2890   0.407   0.975   1.284 -0.4321 -0.0854  1.3211
  962TIP3   OH2 2891   3.215   2.638   4.682 -0.0871  0.3989 -0.0965
  962TIP3    H1 2892   3.268   2.654   4.760 -0.2528  1.9005 -0.2516
  962TIP3    H2 2893   3.280   2.626   4.612  0.0544  0.1487  0.0767
  963TIP3   OH2 2894   6.168   4.111   4.939  0.2127  0.2250 -0.1820
  963TIP3    H1 2895   6.152   4.096   5.032  0.2088 -0.6667 -0.3180
  963TIP3    H2 2896   6.233   4.045   4.915  0.4026  0.6142 -0.7538
  964TIP3   OH2 2897   1.601   0.586   0.093  0.3444  0.6297 -0.2234
  964TIP3    H1 2898   1.619   0.575   0.186  0.4328  5.2257  0.5200
  964TIP3    H2 2899   1.682   0.560   0.049  0.2448 -1.7287  0.8598
  965TIP3   OH2 2900   1.671   2.779   2.727  0.0821  0.6812 -0.0844
  965TIP3    H1 2901   1.689   2.730   2.647 -1.2234  0.6783 -0.4021
  965TIP3    H2 2902   1.717   2.862   2.715 -0.3860  0.8176 -0.9915
  966TIP3   OH2 2903   5.508   4.511   1.235  0.4341  0.8725 -0.1170
  966TIP3    H1 2904   5.486   4.604   1.227 -0.9093  0.5282 -0.6383
  966TIP3    H2 2905   5.587   4.510   1.290 -0.4644  2.2192  1.2990
  967TIP3   OH2 2906   4.205   1.958   3.217 -0.4291  0.8742 -0.0839
  967TIP3    H1 2907   4.292   1.994   3.230  0.5215 -1.7597  1.7381
  967TIP3    H2 2908   4.146   2.020   3.260  0.9223  1.1085  1.5490
  968TIP3   OH2 2909   3.379   2.362   2.445  0.2687 -0.0858 -0.2541
  968TIP3    H1 2910   3.426   2.429   2.494 -1.4662  0.8485  0.2423
  968TIP3    H2 2911   3.414   2.368   2.356  0.9870  0.6529  0.0688
  969TIP3   OH2 2912   2.115   3.405   0.059  0.2431  0.5718 -0.1201
  969TIP3    H1 2913   2.069   3.387  -0.023 -0.0365  1.1968 -0.1134
  969TIP3    H2 2914   2.114   3.322   0.107  0.3091  0.2346 -0.7009
  970TIP3   OH2 2915   0.032   2.234   4.841 -0.5089 -0.0683 -0.6155
  970TIP3    H1 2916  -0.048   2.212   4.888 -0.1644 -2.3114 -1.0054
  970TIP3    H2 2917   0.052   2.157   4.788  1.5459  0.6889 -1.0510
  971TIP3   OH2 2918   4.772   4.681   2.247 -0.3605 -0.4051  0.7692
  971TIP3    H1 2919   4.867   4.673   2.238 -0.3306 -0.2806  0.9581
  971TIP3    H2 2920   4.760   4.723   2.332 -0.6211 -1.1611  1.1122
  972TIP3   OH2 2921   3.697   4.661   0.300 -0.5507  0.0450 -0.0559
  972TIP3    H1 2922   3.732   4.740   0.340  1.3222  0.5973 -2.5235
  972TIP3    H2 2923   3.652   4.692   0.221  0.5645 -1.3215 -1.2869
  973TIP3   OH2 2924   4.030   4.872   5.219  0.5821 -0.0511 -0.5362
  973TIP3    H1 2925   4.003   4.951   5.172  1.4433  0.2827 -0.4845
  973TIP3    H2 2926   4.024   4.802   5.154  1.2143  0.3089 -0.9874
  974TIP3   OH2 2927   6.170   5.717   2.075  0.3389 -0.1116 -0.4538
  974TIP3    H1 2928   6.235   5.765   2.126 -0.5714  0.2161  0.4208
  974TIP3    H2 2929   6.220   5.677   2.004  1.4010  0.6132 -0.1328
  975TIP3   OH2 2930   5.893   1.092   3.961 -0.2223 -0.3109  0.0606
  975TIP3    H1 2931   5.960   1.085   4.029 -0.4630 -0.8045  0.2508
  975TIP3    H2 2932   5.933   1.052   3.884 -0.3268 -0.6815  0.1971
  976TIP3   OH2 2933   0.203   2.127   2.389 -0.3796  0.3207 -0.6033
  976TIP3    H1 2934   0.162   2.150   2.472 -2.7586 -1.5544 -1.1367
  976TIP3    H2 2935   0.286   2.087   2.413 -0.2448  1.3239  0.7293
  977TIP3   OH2 2936   1.393   1.046   4.789  0.5737 -0.8467  0.1766
  977TIP3    H1 2937   1.298   1.053   4.796  0.7064  0.6894  0.6526
  977TIP3    H2 2938   1.408   1.028   4.696 -0.1972 -1.7738  0.2148
  978TIP3   OH2 2939   4.151   4.211   2.099  0.2506 -0.6490 -0.1110
  978TIP3    H1 2940   4.133   4.206   2.005  0.2333 -0.5891 -0.1114
  978TIP3    H2 2941   4.245   4.196   2.106 -0.0591 -2.7063  0.0492
  979TIP3   OH2 2942   5.584   1.071   0.985 -0.3626 -0.0637  0.2654
  979TIP3    H1 2943   5.572   1.016   0.907 -0.4369  0.1914  0.0944
  979TIP3    H2 2944   5.575   1.011   1.058  0.2080 -0.3983  0.0661
  980TIP3   OH2 2945   3.998   2.610   0.229 -0.3804 -0.2666 -0.8426
  980TIP3    H1 2946   3.980   2.567   0.145  0.9993  0.5646 -1.5910
  980TIP3    H2 2947   4.043   2.691   0.206 -1.6666  0.9266  0.6166
  981TIP3   OH2 2948   2.499   0.459   2.141 -0.5110 -0.4646  0.2570
  981TIP3    H1 2949   2.425   0.490   2.193 -1.7975 -0.4199 -1.4662
  981TIP3    H2 2950   2.554   0.536   2.127 -0.8681 -0.1747  0.4347
  982TIP3   OH2 2951   3.307   2.296   0.490  0.2709  0.3591  0.1127
  982TIP3    H1 2952   3.390   2.338   0.471  0.6533  0.2614  1.4289
  982TIP3    H2 2953   3.266   2.282   0.405  2.3459 -1.1348 -0.6949
  983TIP3   OH2 2954   5.648   0.576   1.857  0.2323 -0.2681 -0.0933
  983TIP3    H1 2955   5.558   0.567   1.887  1.0839  1.1258  3.3760
  983TIP3    H2 2956   5.655   0.668   1.830  0.8355 -0.0732  0.6829
  984TIP3   OH2 2957   2.272   5.683   5.051 -0.4383  0.2764 -0.6318
  984TIP3    H1 2958   2.179   5.706   5.058 -1.0698 -1.3833 -2.7274
  984TIP3    H2 2959   2.281   5.648   4.963  1.5945 -2.1662  0.4447
  985TIP3   OH2 2960   4.754   4.540   3.332 -0.5584 -0.5087 -0.2573
  985TIP3    H1 2961   4.720   4.625   3.304  0.3808  0.2201  0.7345
  985TIP3    H2 2962   4.825   4.521   3.271  0.2386  0.1701  0.4365
  986TIP3   OH2 2963   3.892   3.167   0.395  0.1098 -0.0457 -0.0881
  986TIP3    H1 2964   3.909   3.184   0.302  0.1868 -2.4045 -0.5541
  986TIP3    H2 2965   3.879   3.073   0.400  0.4595 -0.0130  2.3695
  987TIP3   OH2 2966   3.088   5.743   2.701  0.0556 -0.2168  0.8012
  987TIP3    H1 2967   3.083   5.680   2.629  1.1461 -0.3891  0.8561
  987TIP3    H2 2968   3.046   5.822   2.668  0.3313 -0.3737  0.0637
  988TIP3   OH2 2969   0.965   3.832   0.869 -0.3857  0.0486  0.0542
  988TIP3    H1 2970   1.000   3.909   0.915 -1.2332  0.1162  0.6052
  988TIP3    H2 2971   1.043   3.783   0.842  0.1637  0.9598 -0.0788
  989TIP3   OH2 2972   2.493   0.036   3.755  0.1339  0.0541  0.2749
  989TIP3    H1 2973   2.496   0.114   3.699 -0.4209  0.1732  0.4013
  989TIP3    H2 2974   2.560  -0.022   3.719 -2.1981 -1.1723 -2.5036
  990TIP3   OH2 2975   5.770   2.295   1.581  0.2460  0.0758  0.1280
  990TIP3    H1 2976   5.712   2.233   1.625  0.8208 -0.1652  0.5542
  990TIP3    H2 2977   5.740   2.381   1.611  0.1776 -0.0524  0.4280
  991TIP3   OH2 2978   4.130   2.792   1.963  0.1912 -0.4799  0.0701
  991TIP3    H1 2979   4.132   2.816   1.870  0.6396  0.8580  0.3965
  991TIP3    H2 2980   4.084   2.709   1.966  0.6086 -0.7897 -1.4067
  992TIP3   OH2 2981   1.528   5.209   2.971 -0.2389 -0.2572  0.0136
  992TIP3    H1 2982   1.528   5.161   3.054 -0.0688  1.3997  0.9983
  992TIP3    H2 2983   1.468   5.158   2.915 -0.0368 -1.6270  0.9862
  993TIP3   OH2 2984   2.360   3.591   1.352  0.0661  0.7089  0.0909
  993TIP3    H1 2985   2.271   3.598   1.316 -0.2250  1.5339  0.9423
  993TIP3    H2 2986   2.415   3.638   1.290  0.1402 -0.8642 -1.1145
  994TIP3   OH2 2987   3.435   2.721   4.138  0.2071  0.1520 -0.0751
  994TIP3    H1 2988   3.520   2.686   4.165  0.5276 -0.5238 -1.8416
  994TIP3    H2 2989   3.375   2.647   4.145 -0.6491  0.9835  2.6167
  995TIP3   OH2 2990   5.475   3.458   2.352  0.7753  0.0661  0.3341
  995TIP3    H1 2991   5.451   3.550   2.340  1.7534  0.3574  0.5310
  995TIP3    H2 2992   5.559   3.461   2.397  2.0358 -0.8714 -1.7920
  996TIP3   OH2 2993   4.644   5.826   4.463  0.2753  0.5212 -0.1579
  996TIP3    H1 2994   4.705   5.862   4.400  0.8582  0.4972  0.3855
  996TIP3    H2 2995   4.696   5.812   4.543 -0.4145  0.4414  0.2914
  997TIP3   OH2 2996   3.357   2.472   3.566  1.0101 -0.2529 -0.3563
  997TIP3    H1 2997   3.329   2.437   3.482  0.2242  1.1330 -0.7006
  997TIP3    H2 2998   3.346   2.567   3.558  0.6175 -0.1035  1.4006
  998TIP3   OH2 2999   2.352   3.423   3.209 -0.1184  0.1058  0.5928
  998TIP3    H1 3000   2.259   3.401   3.211  0.0343 -0.5048  1.7811
  998TIP3    H2 3001   2.395   3.347   3.170 -0.1819  0.7228 -0.7352
  999TIP3   OH2 3002   3.623   3.125   2.817  0.2618 -0.2590 -0.5630
  999TIP3    H1 3003   3.628   3.219   2.833 -1.6729 -0.0600 -0.8322
  999TIP3    H2 3004   3.708   3.091   2.843  0.5846  1.3985  0.6800
 1000TIP3   OH2 3005   0.518   1.439   4.024 -0.1550 -0.0263  0.1678
 1000TIP3    H1 3006   0.468   1.486   3.957 -1.7987  0.6360  1.7858
 1000TIP3    H2 3007   0.454   1.419   4.092  1.1522 -1.9720  0.9155
 1001TIP3   OH2 3008   4.773   3.293   1.144 -0.6235 -0.3074 -0.1305
 1001TIP3    H1 3009   4.865   3.310   1.165 -0.5493 -1.5902  0.7502
 1001TIP3    H2 3010   4.752   3.355   1.074  0.6425  0.6284  0.2780
 1002TIP3   OH2 3011   0.586   5.420   3.626  0.0010  0.3193 -0.2479
 1002TIP3    H1 3012   0.524   5.371   3.573  1.7148 -0.3685 -1.7414
 1002TIP3    H2 3013   0.584   5.377   3.711 -3.0206  1.6215  0.4759
 1003TIP3   OH2 3014   2.583   2.501   3.734  0.1356  0.1327  0.3333
 1003TIP3    H1 3015   2.554   2.435   3.670 -1.0122  1.8565 -1.0039
 1003TIP3    H2 3016   2.511   2.507   3.796  1.3695 -1.7521  2.0835
 1004TIP3   OH2 3017   3.516   4.396   4.071 -0.1866 -0.3664  0.0984
 1004TIP3    H1 3018   3.606   4.387   4.042  0.1593  1.5919  0.4362
 1004TIP3    H2 3019   3.500   4.318   4.124  1.9342  0.1025  1.5615
 1005TIP3   OH2 3020   4.031   0.339   3.297  0.3102  0.9923  0.6219
 1005TIP3    H1 3021   4.005   0.247   3.306  1.9822  0.6482  2.8668
 1005TIP3    H2 3022   4.119   0.336   3.261  0.0449  1.8057 -0.1532
 1006TIP3   OH2 3023   0.291   5.787   0.506 -0.0030 -0.0276  0.1694
 1006TIP3    H1 3024   0.262   5.749   0.424  0.9183 -1.9972  0.6924
 1006TIP3    H2 3025   0.239   5.743   0.573  0.6467  0.1011  0.7708
 1007TIP3   OH2 3026   5.311   4.219   2.261 -0.1059  0.4095 -0.3170
 1007TIP3    H1 3027   5.220   4.247   2.251  0.2775  2.9212  2.0190
 1007TIP3    H2 3028   5.308   4.124   2.252 -2.3027  0.6487 -4.0639
 1008TIP3   OH2 3029   0.764   1.030   3.833 -0.0886  0.2184  0.2113
 1008TIP3    H1 3030   0.674   0.999   3.833 -0.0471  0.0915 -0.2387
 1008TIP3    H2 3031   0.817   0.951   3.849 -0.1616  0.6615  3.0854
 1009TIP3   OH2 3032   3.886   4.034   2.897 -0.1127  0.4233  0.2103
 1009TIP3    H1 3033   3.864   4.119   2.859  0.3638  0.1300 -0.7598
 1009TIP3    H2 3034   3.802   3.996   2.922 -0.5316  0.3283 -1.2405
 1010TIP3   OH2 3035   2.076   1.247   3.829 -0.0197  0.1498 -0.0945
 1010TIP3    H1 3036   2.159   1.268   3.873 -0.7150  0.4786  1.0965
 1010TIP3    H2 3037   2.009   1.266   3.894 -0.8913 -3.4628  0.2955
 1011TIP3   OH2 3038   2.426   2.259   0.474 -0.1071 -0.1219 -0.0713
 1011TIP3    H1 3039   2.479   2.262   0.554  0.2072 -1.4330 -0.1943
 1011TIP3    H2 3040   2.343   2.220   0.503 -0.2474  0.0422 -0.2538
 1012TIP3   OH2 3041   3.981   2.136   1.037 -0.0463 -0.4154  0.4140
 1012TIP3    H1 3042   3.934   2.084   1.103  1.2486  0.0231  1.7342
 1012TIP3    H2 3043   3.957   2.227   1.057 -1.3153 -0.3712 -1.1017
 1013TIP3   OH2 3044   4.102   3.705   2.991 -0.1674  0.6180 -0.3901
 1013TIP3    H1 3045   4.166   3.763   2.948 -1.1305  0.7767 -1.6823
 1013TIP3    H2 3046   4.073   3.754   3.068  1.2301  0.5545  0.1975
 1014TIP3   OH2 3047   3.964   3.025   0.613  0.1407  0.4862 -0.6457
 1014TIP3    H1 3048   3.893   2.968   0.583 -1.2923  1.7880  0.1871
 1014TIP3    H2 3049   3.961   3.100   0.554  0.4403  0.8325 -0.2264
 1015TIP3   OH2 3050   4.323   5.414   4.792  0.2090 -0.0461 -0.4063
 1015TIP3    H1 3051   4.249   5.353   4.790 -1.7588  2.1911 -1.3007
 1015TIP3    H2 3052   4.283   5.501   4.782  2.9751  1.3009 -0.8604
 1016TIP3   OH2 3053   4.435   0.986   4.750 -0.0602 -0.3014  0.6196
 1016TIP3    H1 3054   4.511   1.019   4.703 -1.5724  2.0774 -0.3644
 1016TIP3    H2 3055   4.392   0.927   4.689 -1.7135  2.3449 -0.9559
 1017TIP3   OH2 3056   0.671   2.598   2.486 -0.0053 -0.2251  0.1754
 1017TIP3    H1 3057   0.607   2.670   2.489  0.0039 -0.1389 -1.1471
 1017TIP3    H2 3058   0.729   2.620   2.414  0.5171 -1.1479  0.2942
 1018TIP3   OH2 3059   4.154   4.028   1.153 -0.6143  0.5036  0.2776
 1018TIP3    H1 3060   4.224   4.069   1.205  0.8932 -1.4721 -0.1162
 1018TIP3    H2 3061   4.124   3.955   1.207 -1.8405  0.8497  0.0853
 1019TIP3   OH2 3062   2.754   3.599   1.060  0.0082 -0.5428  0.2705
 1019TIP3    H1 3063   2.698   3.542   1.006  0.5340 -1.4801  0.6822
 1019TIP3    H2 3064   2.836   3.551   1.068  1.1237  1.0928 -0.8442
 1020TIP3   OH2 3065   5.175   0.195   1.013  0.2435 -0.2870  0.2904
 1020TIP3    H1 3066   5.202   0.279   1.049 -0.4253 -0.7050  1.8597
 1020TIP3    H2 3067   5.181   0.134   1.087 -1.7693 -1.0747 -0.1312
 1021TIP3   OH2 3068   0.415   1.234   2.417  0.2087  0.3878  0.4345
 1021TIP3    H1 3069   0.485   1.177   2.450  0.1426 -0.4884 -0.8507
 1021TIP3    H2 3070   0.337   1.205   2.463 -0.0234 -1.3187 -0.9400
 1022TIP3   OH2 3071   5.832   5.706   0.100 -0.5000  0.0720  0.1854
 1022TIP3    H1 3072   5.744   5.725   0.067 -0.2079  0.2136 -0.5042
 1022TIP3    H2 3073   5.884   5.782   0.077 -0.1490 -0.0842  0.4535
 1023TIP3   OH2 3074   4.050   3.951   4.255 -0.0342  0.1643 -0.3213
 1023TIP3    H1 3075   4.117   3.895   4.217  0.2114 -1.1931  1.9653
 1023TIP3    H2 3076   3.976   3.892   4.272 -0.7750  1.0783 -0.2682
 1024TIP3   OH2 3077   5.159   3.199   0.302  0.6177  0.1415 -0.2094
 1024TIP3    H1 3078   5.197   3.112   0.312  0.2499  0.0007 -0.0245
 1024TIP3    H2 3079   5.223   3.247   0.249  1.0685 -0.0802  0.1286
 1025TIP3   OH2 3080   4.505   2.645   3.163  0.2751 -0.2331  0.0471
 1025TIP3    H1 3081   4.508   2.683   3.075 -0.3503 -1.4345 -0.5182
 1025TIP3    H2 3082   4.520   2.719   3.222  1.1486  0.5204 -1.0807
 1026TIP3   OH2 3083   1.211   2.277   3.240  0.2819 -0.1317 -0.0172
 1026TIP3    H1 3084   1.259   2.345   3.192 -1.0222  0.9341  0.1440
 1026TIP3    H2 3085   1.245   2.283   3.329  0.4734  0.0277 -0.0997
 1027TIP3   OH2 3086   1.680   1.075   4.664 -0.0541 -0.3123  0.1359
 1027TIP3    H1 3087   1.755   1.131   4.682 -0.5483  0.6565 -0.7403
 1027TIP3    H2 3088   1.604   1.134   4.665 -0.7017 -1.1210  0.1485
 1028TIP3   OH2 3089   0.364   3.745   1.764 -0.1955  0.1365  0.5006
 1028TIP3    H1 3090   0.329   3.834   1.758  1.0891  0.6282 -0.2007
 1028TIP3    H2 3091   0.441   3.753   1.821  0.0858 -0.4552  0.2173
 1029TIP3   OH2 3092   2.663   5.272   2.232  0.0086  0.0711 -0.2951
 1029TIP3    H1 3093   2.670   5.358   2.190 -2.8712  0.8587  0.6394
 1029TIP3    H2 3094   2.687   5.287   2.323 -0.8268 -0.0154 -0.0515
 1030TIP3   OH2 3095   1.409   3.148   0.327 -1.1747 -0.2780  0.7263
 1030TIP3    H1 3096   1.474   3.105   0.271 -0.9262 -0.6244  1.2759
 1030TIP3    H2 3097   1.411   3.239   0.299 -0.2462 -0.2287  0.9294
 1031TIP3   OH2 3098   5.806   2.837   3.196 -0.0367  0.5314 -0.1018
 1031TIP3    H1 3099   5.863   2.913   3.205  0.8704 -0.3573  2.6329
 1031TIP3    H2 3100   5.854   2.777   3.140 -0.3686  1.5569 -1.5475
 1032TIP3   OH2 3101   1.889   1.843   1.741  0.1235 -0.1638 -0.1535
 1032TIP3    H1 3102   1.880   1.756   1.781 -0.3080  0.0949  0.3226
 1032TIP3    H2 3103   1.882   1.904   1.814  0.9496  0.2602 -0.4138
 1033TIP3   OH2 3104   2.092   4.917   5.144 -0.2711 -0.0411 -0.2687
 1033TIP3    H1 3105   2.026   4.875   5.199 -0.5666 -0.5709 -1.0210
 1033TIP3    H2 3106   2.115   4.851   5.078  0.4803  0.3900 -0.4593
 1034TIP3   OH2 3107   5.737   1.473   4.146  0.3103 -0.2572  0.1494
 1034TIP3    H1 3108   5.790   1.409   4.098 -1.2963 -0.7526 -1.0672
 1034TIP3    H2 3109   5.798   1.543   4.169  1.3899 -0.5320 -1.6783
 1035TIP3   OH2 3110   3.285   3.853   4.282  0.6301  0.4327  0.3260
 1035TIP3    H1 3111   3.362   3.802   4.257  0.9648  1.2955 -0.5300
 1035TIP3    H2 3112   3.211   3.797   4.260  0.9848  0.2924 -0.5793
 1036TIP3   OH2 3113   2.213   4.985   4.176 -1.1218  0.4730  0.1941
 1036TIP3    H1 3114   2.219   4.970   4.082 -1.6048  2.6398 -0.2481
 1036TIP3    H2 3115   2.144   5.051   4.185 -0.5953  0.8251  1.9843
 1037TIP3   OH2 3116   2.352   3.881   0.553 -0.1618  0.1329 -0.1997
 1037TIP3    H1 3117   2.278   3.894   0.612 -0.0615 -0.3342  0.0275
 1037TIP3    H2 3118   2.312   3.857   0.469 -0.2285 -1.6164  0.3079
 1038TIP3   OH2 3119   0.017   1.853   2.633 -0.0475  0.2556  0.0319
 1038TIP3    H1 3120   0.070   1.836   2.711 -0.9200 -0.0074  0.5791
 1038TIP3    H2 3121  -0.059   1.796   2.643 -0.2044  0.2684 -0.9830
 1039TIP3   OH2 3122   1.761   4.167   0.950  0.0905 -0.0881 -0.1711
 1039TIP3    H1 3123   1.718   4.186   0.867 -1.1854  2.0316  0.8873
 1039TIP3    H2 3124   1.854   4.180   0.932 -0.2208  0.9858 -1.1194
 1040TIP3   OH2 3125   3.218   2.520   0.867  0.5807  0.0137 -0.3772
 1040TIP3    H1 3126   3.249   2.471   0.943 -1.1920 -1.7176 -0.6965
 1040TIP3    H2 3127   3.218   2.455   0.796  0.9086  1.2499 -1.5456
 1041TIP3   OH2 3128   0.089   0.446   4.931 -0.0844  0.1877 -0.5166
 1041TIP3    H1 3129   0.065   0.513   4.866  0.5880  0.8077 -0.1428
 1041TIP3    H2 3130   0.006   0.405   4.954 -0.7129  1.7565  0.1786
 1042TIP3   OH2 3131   5.817   0.557   0.438  0.1584 -0.2254  0.6605
 1042TIP3    H1 3132   5.898   0.555   0.490  0.2527 -1.0787  0.4933
 1042TIP3    H2 3133   5.834   0.499   0.364 -0.4656 -0.0841  0.3968
 1043TIP3   OH2 3134   6.112   3.497   4.187  0.2323  0.2553 -0.0908
 1043TIP3    H1 3135   6.090   3.412   4.226 -1.1436  0.3875 -0.5260
 1043TIP3    H2 3136   6.094   3.561   4.256 -1.5391  0.4270 -0.6647
 1044TIP3   OH2 3137   0.410   5.077   2.467 -0.1817 -0.1866  0.5273
 1044TIP3    H1 3138   0.394   5.045   2.378 -1.4332 -1.6289  1.2407
 1044TIP3    H2 3139   0.495   5.040   2.491  1.5310  2.4139 -0.9830
 1045TIP3   OH2 3140   4.239   2.548   1.433  0.6735  0.2212  0.1844
 1045TIP3    H1 3141   4.282   2.480   1.382  0.8810 -0.2276  0.9438
 1045TIP3    H2 3142   4.217   2.616   1.369  1.9641  0.1969 -0.3179
 1046TIP3   OH2 3143   3.800   4.912   2.255 -0.2946  0.2231  0.2121
 1046TIP3    H1 3144   3.743   4.838   2.234 -0.2449  0.4742 -0.8565
 1046TIP3    H2 3145   3.740   4.985   2.270 -0.2802  0.3266 -0.2388
 1047TIP3   OH2 3146   5.366   0.001   1.513  0.6525 -0.0128  0.0976
 1047TIP3    H1 3147   5.461  -0.005   1.507  0.6696  1.1435 -1.5714
 1047TIP3    H2 3148   5.347   0.094   1.503 -0.6691 -0.2680  0.0415
 1048TIP3   OH2 3149   2.762   0.351   1.819  0.0081 -0.1624 -0.1056
 1048TIP3    H1 3150   2.837   0.295   1.838 -0.1314 -0.1053  0.6116
 1048TIP3    H2 3151   2.689   0.290   1.808 -0.2738 -0.1048  1.2833
 1049TIP3   OH2 3152   4.137   3.973   3.422  0.3095  0.2023  0.7628
 1049TIP3    H1 3153   4.077   3.934   3.359  2.3651 -0.2827 -1.0086
 1049TIP3    H2 3154   4.093   3.963   3.507 -2.6112  1.0116 -0.5287
 1050TIP3   OH2 3155   4.146   3.323   0.291 -0.5701 -0.6070 -0.2348
 1050TIP3    H1 3156   4.079   3.354   0.231 -0.3703 -0.6069 -0.4600
 1050TIP3    H2 3157   4.227   3.327   0.241  0.0557  1.8672  0.7913
 1051TIP3   OH2 3158   5.293   5.662   1.249 -0.4038 -0.1174 -0.1321
 1051TIP3    H1 3159   5.217   5.618   1.286  1.3741 -0.7853  3.1816
 1051TIP3    H2 3160   5.329   5.714   1.322  1.1774  1.7859 -2.1226
 1052TIP3   OH2 3161   2.135   5.931   2.466  0.3423  0.1113  0.5522
 1052TIP3    H1 3162   2.220   5.952   2.428  0.3810 -0.1452  0.4956
 1052TIP3    H2 3163   2.151   5.927   2.560  0.2668  0.6515  0.5915
 1053TIP3   OH2 3164   6.045   2.759   2.240  0.3732  0.2567  0.5369
 1053TIP3    H1 3165   6.017   2.850   2.247 -0.2784  0.1800 -0.7843
 1053TIP3    H2 3166   6.067   2.734   2.329  1.2670  1.9292  0.8339
 1054TIP3   OH2 3167   1.974   4.721   3.515  0.3087 -0.1408  0.2269
 1054TIP3    H1 3168   2.011   4.696   3.430  0.4968 -1.7266  0.7582
 1054TIP3    H2 3169   1.905   4.657   3.532 -0.3341  0.6952  0.8796
 1055TIP3   OH2 3170   1.402   3.632   4.298 -0.1830  0.0981 -0.0987
 1055TIP3    H1 3171   1.404   3.642   4.393 -1.8051 -0.0267 -0.0311
 1055TIP3    H2 3172   1.420   3.539   4.283 -3.0813 -0.6252  0.3186
 1056TIP3   OH2 3173   4.956   2.978   3.118  0.1971  0.7499 -0.1979
 1056TIP3    H1 3174   5.012   3.055   3.129  0.1229  1.1219 -2.0656
 1056TIP3    H2 3175   5.017   2.905   3.106  0.3473  1.1003 -1.8745
 1057TIP3   OH2 3176   4.468   0.644   4.094 -0.5908 -0.4472 -0.8454
 1057TIP3    H1 3177   4.398   0.708   4.081  1.1594  2.1854  1.4213
 1057TIP3    H2 3178   4.456   0.613   4.184  1.7753  1.0834  0.0880
 1058TIP3   OH2 3179   2.356   5.906   1.304  0.5191 -0.7032  0.0998
 1058TIP3    H1 3180   2.368   5.813   1.324  0.4174 -0.6147  0.5942
 1058TIP3    H2 3181   2.418   5.951   1.362  0.8444 -0.4847 -0.4184
 1059TIP3   OH2 3182   5.958   3.487   3.872  0.1828  0.0389 -0.4554
 1059TIP3    H1 3183   5.871   3.525   3.855 -0.1930 -0.9959 -0.9513
 1059TIP3    H2 3184   5.971   3.425   3.801 -0.1959 -2.3778  1.4552
 1060TIP3   OH2 3185   3.403   3.250   0.919  0.1436  0.1835 -0.5376
 1060TIP3    H1 3186   3.330   3.230   0.977  0.3731  1.7307  0.3404
 1060TIP3    H2 3187   3.472   3.189   0.945 -0.3110 -0.2320 -0.2998
 1061TIP3   OH2 3188   5.562   2.908   0.432 -0.0956  0.0685 -0.3584
 1061TIP3    H1 3189   5.621   2.876   0.500  0.2336 -0.1388 -0.7424
 1061TIP3    H2 3190   5.530   2.992   0.467  2.5868  1.6127 -1.3311
 1062TIP3   OH2 3191   1.358   0.294   4.339  0.3503 -0.0992 -0.6726
 1062TIP3    H1 3192   1.435   0.345   4.314  1.1197 -0.7339  0.3502
 1062TIP3    H2 3193   1.393   0.219   4.385 -0.9307  0.0929  0.6744
 1063TIP3   OH2 3194   4.379   3.447   1.594 -0.0072  0.0335  0.2967
 1063TIP3    H1 3195   4.337   3.375   1.548  1.7062 -0.4804 -0.5690
 1063TIP3    H2 3196   4.462   3.411   1.624  0.3504  1.3047  0.9175
 1064TIP3   OH2 3197   5.923   5.934   4.650  0.5952 -0.0082 -0.4929
 1064TIP3    H1 3198   5.876   5.854   4.674 -0.1354  0.8606  1.0876
 1064TIP3    H2 3199   6.009   5.923   4.690  0.6740 -0.2129 -0.7113
 1065TIP3   OH2 3200   3.971   0.791   4.268 -0.3171  0.2882  0.1351
 1065TIP3    H1 3201   3.986   0.819   4.358 -1.8913  0.1515  0.4730
 1065TIP3    H2 3202   3.972   0.695   4.272  0.7826  0.2720 -0.2273
 1066TIP3   OH2 3203   4.086   1.125   2.266  0.1336 -0.2304 -0.2244
 1066TIP3    H1 3204   4.060   1.176   2.342 -1.1723  0.1969 -0.9305
 1066TIP3    H2 3205   4.033   1.159   2.194  0.1464 -1.7254 -0.9823
 1067TIP3   OH2 3206   4.394   0.275   0.936 -0.3918 -0.1553  0.2712
 1067TIP3    H1 3207   4.399   0.180   0.946  0.2918  0.0355  2.2508
 1067TIP3    H2 3208   4.476   0.307   0.975 -0.1882  1.2260 -1.1538
 1068TIP3   OH2 3209   5.755   5.036   1.474 -0.5929 -0.4470 -0.0482
 1068TIP3    H1 3210   5.799   5.074   1.398 -0.9786 -0.8627 -0.4913
 1068TIP3    H2 3211   5.720   4.952   1.442 -0.6098 -0.7102  0.6343
 1069TIP3   OH2 3212   4.749   2.275   3.669  0.5582 -0.0262 -0.0579
 1069TIP3    H1 3213   4.831   2.303   3.628  0.4391  2.7614  1.3784
 1069TIP3    H2 3214   4.702   2.357   3.687 -1.2585 -1.3703  1.7643
 1070TIP3   OH2 3215   0.310   3.532   1.350 -0.1220  0.2690  0.1909
 1070TIP3    H1 3216   0.348   3.620   1.352  2.2435 -0.4298 -3.7001
 1070TIP3    H2 3217   0.220   3.546   1.318  0.9714  1.2895 -2.8235
 1071TIP3   OH2 3218   3.996   5.938   2.304  0.3836 -0.0352  0.1332
 1071TIP3    H1 3219   4.044   5.909   2.382  0.9875  0.5554 -0.0157
 1071TIP3    H2 3220   3.975   6.029   2.322  0.9705  0.2524 -0.6131
 1072TIP3   OH2 3221   4.273   1.445   2.468 -0.1576  0.3762 -0.0455
 1072TIP3    H1 3222   4.288   1.417   2.378 -0.5974 -0.4572  0.1286
 1072TIP3    H2 3223   4.181   1.423   2.485  0.0016  0.2523  0.6905
 1073TIP3   OH2 3224   5.705   1.042   2.242 -0.3804  0.1311 -0.3997
 1073TIP3    H1 3225   5.713   1.032   2.337 -2.2294  1.4669 -0.0443
 1073TIP3    H2 3226   5.633   1.104   2.230  0.0743  0.3231 -2.6817
 1074TIP3   OH2 3227   0.173   2.441   1.660 -0.9330  0.2030 -0.3607
 1074TIP3    H1 3228   0.188   2.424   1.753  0.1182 -1.5960 -0.8046
 1074TIP3    H2 3229   0.163   2.354   1.621 -0.7308  0.8882 -2.0294
 1075TIP3   OH2 3230   6.269   1.864   4.238  0.3412 -0.5217  0.0276
 1075TIP3    H1 3231   6.210   1.892   4.167  2.0912 -0.5495 -1.5156
 1075TIP3    H2 3232   6.210   1.838   4.309 -1.5010 -0.5232 -1.4134
 1076TIP3   OH2 3233   2.564   1.753   5.002 -0.2442 -0.1126 -0.5042
 1076TIP3    H1 3234   2.559   1.742   4.907  1.2954  2.1729 -0.9393
 1076TIP3    H2 3235   2.522   1.838   5.018  1.8436  0.8136  0.4681
 1077TIP3   OH2 3236   4.506   5.953   0.624  0.1350 -0.0126 -0.0320
 1077TIP3    H1 3237   4.536   5.889   0.559 -0.5055 -1.0895  0.6948
 1077TIP3    H2 3238   4.414   5.932   0.638 -0.2709  1.5300 -0.2736
 1078TIP3   OH2 3239   4.077   4.798   0.488 -0.2840 -0.0754 -0.0671
 1078TIP3    H1 3240   4.138   4.747   0.542 -0.0599  0.1952 -0.0598
 1078TIP3    H2 3241   3.991   4.779   0.525 -0.1273  0.1585  0.4248
 1079TIP3   OH2 3242   3.269   2.733   3.513  0.6220 -0.0004 -0.2673
 1079TIP3    H1 3243   3.230   2.751   3.427  0.1946 -0.0627 -0.0883
 1079TIP3    H2 3244   3.199   2.752   3.575  0.9173 -0.0008  0.0650
 1080TIP3   OH2 3245   0.714   0.068   0.998 -0.0743  0.1822 -0.6591
 1080TIP3    H1 3246   0.775   0.134   0.967  1.6946 -0.6242  0.9116
 1080TIP3    H2 3247   0.705   0.007   0.925  2.2211 -0.4839 -0.4508
 1081TIP3   OH2 3248   1.789   2.283   3.514 -0.2587  0.0253 -0.4376
 1081TIP3    H1 3249   1.820   2.202   3.473 -0.7631 -0.0759 -0.6316
 1081TIP3    H2 3250   1.754   2.335   3.442 -0.5418  0.1320 -0.2269
 1082TIP3   OH2 3251   6.082   1.319   3.778  0.0848 -0.0450 -0.2484
 1082TIP3    H1 3252   6.119   1.296   3.863 -1.8715 -1.2444  0.3347
 1082TIP3    H2 3253   6.044   1.237   3.746  1.1636  0.2677 -2.5127
 1083TIP3   OH2 3254   6.213   0.315   5.021  0.2517  0.1408  0.0778
 1083TIP3    H1 3255   6.200   0.221   5.009 -0.1351 -0.3360  3.2896
 1083TIP3    H2 3256   6.125   0.352   5.024  0.3700  0.4474 -0.1205
 1084TIP3   OH2 3257   4.742   3.402   4.612 -0.2233  0.5972 -0.8149
 1084TIP3    H1 3258   4.702   3.489   4.620 -1.2613  0.0383  0.5289
 1084TIP3    H2 3259   4.760   3.376   4.702 -0.2343 -0.7205 -1.1753
 1085TIP3   OH2 3260   6.029   5.050   0.703 -0.2632 -0.0616  0.2269
 1085TIP3    H1 3261   6.041   4.956   0.712 -1.8277 -0.2300  0.9287
 1085TIP3    H2 3262   6.032   5.083   0.793 -2.5487  0.1244  0.3120
 1086TIP3   OH2 3263   1.690   4.055   2.335  0.3727 -0.5580  0.0695
 1086TIP3    H1 3264   1.724   4.107   2.408  1.4027 -2.2004  0.8102
 1086TIP3    H2 3265   1.741   3.974   2.338 -0.6766 -1.3107 -1.5053
 1087TIP3   OH2 3266   4.516   1.584   2.502  0.3759  0.0031 -0.2465
 1087TIP3    H1 3267   4.451   1.564   2.435  0.3800  1.2397 -0.6524
 1087TIP3    H2 3268   4.525   1.503   2.552 -0.1232 -0.7369 -1.3198
 1088TIP3   OH2 3269   4.102   2.085   3.977  0.6651  0.3900 -0.0066
 1088TIP3    H1 3270   4.033   2.151   3.985 -0.3254 -0.6621  0.3157
 1088TIP3    H2 3271   4.056   2.001   3.980  1.9495 -0.3371  0.0726
 1089TIP3   OH2 3272   1.165   3.298   4.740  0.3911 -0.3223  0.1094
 1089TIP3    H1 3273   1.094   3.350   4.704  0.8705  0.2423 -0.0508
 1089TIP3    H2 3274   1.233   3.363   4.761  0.6326 -0.7843  0.7859
 1090TIP3   OH2 3275   3.722   1.969   3.720  0.1508  0.5930  0.2936
 1090TIP3    H1 3276   3.789   1.910   3.753 -1.6005 -0.9245  1.3730
 1090TIP3    H2 3277   3.701   1.935   3.632 -0.8459 -0.4799  0.9077
 1091TIP3   OH2 3278   5.903   2.024   4.334  0.2055 -0.3266  0.0388
 1091TIP3    H1 3279   5.924   1.971   4.411 -2.8225 -0.0529  1.1713
 1091TIP3    H2 3280   5.825   1.982   4.297 -0.5770  1.6671 -0.6764
 1092TIP3   OH2 3281   3.407   2.643   4.903  0.5831  0.2292  0.6244
 1092TIP3    H1 3282   3.476   2.709   4.891  1.3206 -0.2169  2.0963
 1092TIP3    H2 3283   3.452   2.559   4.894 -0.0083 -0.0719  0.4224
 1093TIP3   OH2 3284   0.974   1.373   4.178  0.0603 -0.2330  0.0688
 1093TIP3    H1 3285   0.909   1.350   4.112  1.4057  1.2128 -1.8811
 1093TIP3    H2 3286   1.048   1.313   4.161  0.5752  0.4175 -0.0314
 1094TIP3   OH2 3287   0.968   0.525   3.085  0.5293 -0.1696  0.2109
 1094TIP3    H1 3288   1.001   0.498   2.999  1.3085 -0.7744  0.6810
 1094TIP3    H2 3289   0.942   0.443   3.127 -1.0146  0.2400  0.1005
 1095TIP3   OH2 3290   2.747   0.677   3.669 -0.7251  0.3661  0.1914
 1095TIP3    H1 3291   2.658   0.694   3.700 -0.3224  0.9100  1.0827
 1095TIP3    H2 3292   2.796   0.655   3.748  0.0495  0.5720 -0.2197
 1096TIP3   OH2 3293   3.232   5.631   3.927 -0.0694 -0.2134 -0.3185
 1096TIP3    H1 3294   3.186   5.657   4.007  0.0138  0.7406 -0.5650
 1096TIP3    H2 3295   3.211   5.700   3.864 -0.6374 -1.2706 -1.3194
 1097TIP3   OH2 3296   4.823   0.766   4.599  0.8727 -0.4497 -0.6944
 1097TIP3    H1 3297   4.848   0.727   4.683 -0.5513 -0.4903 -0.2724
 1097TIP3    H2 3298   4.851   0.858   4.607  1.7761 -0.7203 -0.6376
 1098TIP3   OH2 3299   3.474   3.306   4.515 -0.0997  1.0086 -0.0254
 1098TIP3    H1 3300   3.539   3.236   4.522 -0.4139  0.8599  2.2116
 1098TIP3    H2 3301   3.390   3.261   4.506 -0.0902  1.1544 -0.8734
 1099TIP3   OH2 3302   5.167   0.533   4.347  0.4851  0.6020  0.0285
 1099TIP3    H1 3303   5.125   0.501   4.267 -0.7485 -0.6179  1.0950
 1099TIP3    H2 3304   5.198   0.453   4.391  0.9300  1.2204  0.8734
 1100TIP3   OH2 3305   1.659   3.833   2.080  0.5798 -0.1356  0.0149
 1100TIP3    H1 3306   1.656   3.922   2.116 -1.0506  0.0636 -0.5156
 1100TIP3    H2 3307   1.710   3.841   1.999 -1.7723  0.9322 -1.4651
 1101TIP3   OH2 3308   5.640   1.955   3.062 -0.0386 -0.3920  0.0061
 1101TIP3    H1 3309   5.726   1.997   3.061 -0.2226  0.0020  0.2779
 1101TIP3    H2 3310   5.644   1.891   3.133 -0.3077  0.3686  0.7257
 1102TIP3   OH2 3311   2.286   2.811   2.974  0.1776 -0.8084 -0.2363
 1102TIP3    H1 3312   2.331   2.768   3.047 -1.5645 -0.5575  1.0617
 1102TIP3    H2 3313   2.213   2.753   2.953 -0.3675 -0.0148 -0.5763
 1103TIP3   OH2 3314   4.878   2.028   0.781 -1.1492  0.2100  0.2831
 1103TIP3    H1 3315   4.796   2.074   0.762 -1.4638 -1.0083 -1.5362
 1103TIP3    H2 3316   4.943   2.075   0.729 -0.5135  1.5294  2.1574
 1104TIP3   OH2 3317   3.043   2.089   3.042  0.1311 -0.2448 -0.5794
 1104TIP3    H1 3318   3.104   2.084   2.968  2.2099  2.9798  0.6596
 1104TIP3    H2 3319   2.957   2.099   3.002  0.6706 -2.3523 -2.4433
 1105TIP3   OH2 3320   4.381   5.711   3.610  0.5611 -0.0866 -0.5150
 1105TIP3    H1 3321   4.374   5.634   3.668  0.5742 -0.8797 -1.5401
 1105TIP3    H2 3322   4.294   5.718   3.569  0.7249  0.1225 -0.8265
 1106TIP3   OH2 3323   4.996   0.451   2.018  0.4216 -0.0012  0.2144
 1106TIP3    H1 3324   5.003   0.491   1.930 -1.0070  0.5159  0.3111
 1106TIP3    H2 3325   5.044   0.512   2.075 -0.0575  0.5465  0.0439
 1107TIP3   OH2 3326   4.345   2.775   2.132 -0.1613  0.9155 -0.3629
 1107TIP3    H1 3327   4.311   2.791   2.220  1.0954  1.0022  0.1320
 1107TIP3    H2 3328   4.267   2.766   2.077 -1.0606 -1.1807  1.1026
 1108TIP3   OH2 3329   1.401   3.490   1.877 -0.4178 -0.1675  0.1022
 1108TIP3    H1 3330   1.318   3.535   1.892 -1.0481 -0.7981 -1.3244
 1108TIP3    H2 3331   1.433   3.524   1.794 -0.3285 -1.4788 -0.4186
 1109TIP3   OH2 3332   4.014   2.981   4.928 -0.5279  0.3969  1.0035
 1109TIP3    H1 3333   4.074   3.000   5.000  0.9939 -0.0252 -0.1191
 1109TIP3    H2 3334   4.040   3.041   4.858 -0.1552 -1.0583 -0.1528
 1110TIP3   OH2 3335   4.382   4.507   2.258 -0.0126 -0.7260  0.0887
 1110TIP3    H1 3336   4.325   4.537   2.329 -0.2633 -0.5656 -0.1767
 1110TIP3    H2 3337   4.404   4.417   2.282 -1.0812 -1.0914 -0.2237
 1111TIP3   OH2 3338   5.922   2.052   0.054  0.3223  0.3956 -0.0270
 1111TIP3    H1 3339   5.984   2.119   0.081  1.8490  0.4853 -3.2196
 1111TIP3    H2 3340   5.840   2.099   0.039  0.8414  1.2175 -0.3362
 1112TIP3   OH2 3341   2.373   0.548   0.649 -0.2698 -0.2650 -0.2244
 1112TIP3    H1 3342   2.303   0.572   0.589  0.0367  0.0630 -0.4540
 1112TIP3    H2 3343   2.329   0.531   0.732 -0.4153  2.1643  0.2668
 1113TIP3   OH2 3344   2.439   3.271   3.785  0.1944  0.2101  0.3777
 1113TIP3    H1 3345   2.530   3.262   3.757  0.6460 -2.8747  2.2701
 1113TIP3    H2 3346   2.440   3.341   3.850  0.8129  1.4252 -0.9061
 1114TIP3   OH2 3347   3.715   5.931   3.981  0.0152 -0.1067 -0.1975
 1114TIP3    H1 3348   3.773   5.891   4.047 -0.1132  0.1956  0.1003
 1114TIP3    H2 3349   3.773   5.986   3.928  0.0700 -0.1264 -0.1582
 1115TIP3   OH2 3350   0.853   4.581   0.565  0.1661  1.0369 -0.1842
 1115TIP3    H1 3351   0.948   4.584   0.556  0.2527 -0.3111  0.0030
 1115TIP3    H2 3352   0.824   4.517   0.500 -0.2880 -0.6638  1.5666
 1116TIP3   OH2 3353   5.556   2.802   2.600 -0.3608  0.1904  0.5315
 1116TIP3    H1 3354   5.640   2.799   2.646  0.4539 -0.7940 -0.9131
 1116TIP3    H2 3355   5.533   2.710   2.585 -3.6045  0.2130  4.0145
 1117TIP3   OH2 3356   3.122   4.331   2.707 -1.0997  0.5902 -0.4790
 1117TIP3    H1 3357   3.100   4.405   2.763  1.8735  0.5657  0.8886
 1117TIP3    H2 3358   3.122   4.255   2.766 -2.8178 -0.3402 -1.5940
 1118TIP3   OH2 3359   5.295   3.906   2.225  0.0142  0.1747  0.6802
 1118TIP3    H1 3360   5.203   3.913   2.202  0.3024 -0.0690 -0.6100
 1118TIP3    H2 3361   5.304   3.819   2.263 -0.4796  0.5999  1.8004
 1119TIP3   OH2 3362   3.620   3.670   3.429  0.1924 -0.5127 -0.0837
 1119TIP3    H1 3363   3.653   3.683   3.339  1.4783 -1.1139  0.2806
 1119TIP3    H2 3364   3.639   3.579   3.448  1.0426 -0.0917  1.2248
 1120TIP3   OH2 3365   0.097   2.162   3.189 -0.0644 -0.2882 -0.5745
 1120TIP3    H1 3366   0.066   2.116   3.267 -1.5738  0.8457 -0.4596
 1120TIP3    H2 3367   0.193   2.162   3.197 -0.1941  0.4692  1.7044
 1121TIP3   OH2 3368   1.570   1.962   5.114 -0.0006  0.0935  0.2054
 1121TIP3    H1 3369   1.575   2.049   5.155  2.0387  0.1715 -0.0836
 1121TIP3    H2 3370   1.507   1.972   5.043  0.7401  1.5865 -0.2885
 1122TIP3   OH2 3371   3.375   3.191   3.498  0.7334  0.2527 -0.0283
 1122TIP3    H1 3372   3.392   3.122   3.562 -1.2060  0.3065  0.6085
 1122TIP3    H2 3373   3.388   3.272   3.546 -0.9143  0.2937  0.4075
 1123TIP3   OH2 3374   2.528   0.247   1.667 -0.4157 -0.4627  0.1812
 1123TIP3    H1 3375   2.475   0.312   1.714 -0.1655  0.4810 -0.7919
 1123TIP3    H2 3376   2.522   0.274   1.575  2.0423 -0.0679  0.0602
 1124TIP3   OH2 3377   6.333   2.515   1.237 -0.2032 -0.8832 -0.0513
 1124TIP3    H1 3378   6.427   2.520   1.252 -0.6047 -0.4088  3.0895
 1124TIP3    H2 3379   6.296   2.582   1.294 -2.5499 -2.6261  0.6526
 1125TIP3   OH2 3380   5.624   0.107   0.753 -0.1576 -0.2645  0.0269
 1125TIP3    H1 3381   5.609   0.021   0.714  0.9003 -0.2277 -0.5091
 1125TIP3    H2 3382   5.547   0.158   0.728 -0.3396 -0.7735 -0.4926
 1126TIP3   OH2 3383   2.824   5.743   2.586  0.1274 -0.1810  0.0346
 1126TIP3    H1 3384   2.871   5.824   2.603  1.6091 -0.5646 -1.8569
 1126TIP3    H2 3385   2.838   5.690   2.664  0.2808  0.8530  0.7249
 1127TIP3   OH2 3386   2.725   5.133   2.826 -0.1693 -0.2392 -0.7935
 1127TIP3    H1 3387   2.763   5.116   2.740  0.1516  0.4531 -0.7980
 1127TIP3    H2 3388   2.644   5.181   2.808 -0.3808 -0.5661 -0.7272
 1128TIP3   OH2 3389   1.932   5.842   0.345 -0.3248 -0.6596 -0.3493
 1128TIP3    H1 3390   1.944   5.854   0.439 -1.8786 -0.3044 -0.1771
 1128TIP3    H2 3391   1.866   5.907   0.320  1.2474  0.4116 -2.0162
 1129TIP3   OH2 3392   5.445   0.514   1.258 -0.2357 -0.5480  0.4780
 1129TIP3    H1 3393   5.449   0.419   1.255 -1.2481 -0.7101  2.3768
 1129TIP3    H2 3394   5.486   0.536   1.342  1.2703  0.8219 -0.5508
 1130TIP3   OH2 3395   0.514   4.042   1.430 -0.2659 -0.1504 -0.3223
 1130TIP3    H1 3396   0.450   3.992   1.481 -0.3900 -0.0151 -0.3428
 1130TIP3    H2 3397   0.554   4.102   1.493 -1.0790  0.6633 -0.5601
 1131TIP3   OH2 3398   2.263   5.406   3.638 -0.3733  0.0926  0.5684
 1131TIP3    H1 3399   2.236   5.472   3.574 -0.3543 -2.4485 -2.2735
 1131TIP3    H2 3400   2.181   5.378   3.679 -0.5816  0.6424  0.5365
 1132TIP3   OH2 3401   2.530   0.513   3.176  0.0814  0.0062  0.3627
 1132TIP3    H1 3402   2.453   0.470   3.214 -1.9281  2.2879 -0.8628
 1132TIP3    H2 3403   2.527   0.602   3.211  0.8863  0.7692 -1.4067
 1133TIP3   OH2 3404   5.887   4.261   0.832  0.7822 -0.8308 -0.3481
 1133TIP3    H1 3405   5.968   4.297   0.797  0.9162 -0.0550  0.6902
 1133TIP3    H2 3406   5.916   4.190   0.889  0.9528  0.7423  1.6513
 1134TIP3   OH2 3407   2.713   2.849   4.685 -0.3014  0.1228 -0.2754
 1134TIP3    H1 3408   2.806   2.827   4.693  0.5731  1.5336 -4.1158
 1134TIP3    H2 3409   2.676   2.780   4.630 -1.1340  0.4489 -0.1400
 1135TIP3   OH2 3410   5.187   5.115   1.482  0.1751  0.3687  0.0637
 1135TIP3    H1 3411   5.190   5.188   1.545  0.7380  0.5928 -0.2119
 1135TIP3    H2 3412   5.096   5.112   1.453 -0.2579 -0.1577  1.3778
 1136TIP3   OH2 3413   5.903   2.583   0.182 -0.9467 -0.1424 -0.3927
 1136TIP3    H1 3414   5.916   2.532   0.262 -0.3212  0.7634  0.1104
 1136TIP3    H2 3415   5.851   2.658   0.210  1.2738  1.4529 -0.2595
 1137TIP3   OH2 3416   4.214   1.257   0.152 -0.5733  0.9266  0.2198
 1137TIP3    H1 3417   4.285   1.291   0.097  0.0509 -1.0605 -0.3132
 1137TIP3    H2 3418   4.258   1.226   0.231 -0.9468  0.4812  0.2614
 1138TIP3   OH2 3419   5.324   0.654   0.509 -0.3996 -0.0590 -0.1985
 1138TIP3    H1 3420   5.410   0.632   0.543 -1.1124  0.8766  2.4490
 1138TIP3    H2 3421   5.304   0.584   0.447  2.3156 -0.1538 -1.0959
 1139TIP3   OH2 3422   5.067   0.565   2.720 -0.7500  0.3145  0.0301
 1139TIP3    H1 3423   5.156   0.593   2.738 -0.7333 -0.7752  1.8922
 1139TIP3    H2 3424   5.030   0.636   2.666  0.8093  1.4040  0.3256
 1140TIP3   OH2 3425   4.069   0.376   2.363 -0.3477  0.6149  0.0337
 1140TIP3    H1 3426   4.130   0.412   2.427 -0.1066  0.1873  0.0471
 1140TIP3    H2 3427   4.118   0.372   2.282 -1.3707  3.5082 -0.8583
 1141TIP3   OH2 3428   5.703   5.888   2.338 -0.3078  0.1668  0.1196
 1141TIP3    H1 3429   5.635   5.830   2.303 -0.9163 -0.1858  1.7657
 1141TIP3    H2 3430   5.768   5.895   2.268 -0.2504 -2.4434 -0.1728
 1142TIP3   OH2 3431   2.548   1.070   1.865 -0.1589  0.1475  0.1665
 1142TIP3    H1 3432   2.574   1.000   1.925 -1.5040  0.3915  1.0887
 1142TIP3    H2 3433   2.630   1.106   1.832  0.6416  0.2332  2.1388
 1143TIP3   OH2 3434   3.813   0.896   3.620 -0.2939 -0.0576 -0.6068
 1143TIP3    H1 3435   3.805   0.945   3.538  1.5317  0.2444 -0.6583
 1143TIP3    H2 3436   3.740   0.926   3.673  0.1502  1.9661 -1.0434
 1144TIP3   OH2 3437   5.932   4.777   5.009  0.6849  0.4146 -0.6027
 1144TIP3    H1 3438   5.854   4.779   4.954  0.1905  0.0476  0.0701
 1144TIP3    H2 3439   5.928   4.693   5.054  1.2700  0.5557 -0.2718
 1145TIP3   OH2 3440   5.037   4.296   3.461  0.2324  0.3509 -0.2108
 1145TIP3    H1 3441   4.965   4.233   3.474  1.4676 -1.1397 -0.2774
 1145TIP3    H2 3442   5.096   4.279   3.535 -0.5705  3.2132  1.2255
 1146TIP3   OH2 3443   3.461   0.042   2.996  0.2811  0.5699  0.4897
 1146TIP3    H1 3444   3.440   0.135   3.001  0.0947  0.5069  0.9084
 1146TIP3    H2 3445   3.510   0.024   3.076  0.1484  0.2694  0.5042
 1147TIP3   OH2 3446   5.736   5.200   1.063 -0.0672  0.4035  0.3207
 1147TIP3    H1 3447   5.798   5.209   0.990  0.3307  2.9913  0.8612
 1147TIP3    H2 3448   5.673   5.135   1.033  0.8703  0.3781 -1.7762
 1148TIP3   OH2 3449   4.931   3.904   0.341 -0.8834  0.1990  0.1082
 1148TIP3    H1 3450   4.959   3.900   0.433 -0.0286  0.5718 -0.1332
 1148TIP3    H2 3451   4.866   3.834   0.334  0.2560 -0.9458  0.5954
 1149TIP3   OH2 3452   0.161   0.410   2.624 -0.3516  0.1533  0.9506
 1149TIP3    H1 3453   0.242   0.363   2.644 -0.8117 -0.4196  1.5010
 1149TIP3    H2 3454   0.175   0.498   2.659  0.5524  0.4739 -0.1660
 1150TIP3   OH2 3455   5.376   1.383   0.769  0.2246  0.1686 -0.2029
 1150TIP3    H1 3456   5.296   1.431   0.749  0.3991 -0.6158 -3.1780
 1150TIP3    H2 3457   5.369   1.301   0.720  1.3820 -1.4841  2.1591
 1151TIP3   OH2 3458   4.434   1.882   1.740  0.1965 -0.0661 -0.0413
 1151TIP3    H1 3459   4.348   1.895   1.780  0.9603 -0.0427  1.6705
 1151TIP3    H2 3460   4.427   1.799   1.693 -0.4326 -0.6361  1.0407
 1152TIP3   OH2 3461   1.335   1.912   4.132 -0.1985 -0.0787  0.0985
 1152TIP3    H1 3462   1.255   1.860   4.132 -0.1897 -0.0940 -0.1146
 1152TIP3    H2 3463   1.404   1.851   4.105 -0.2926  0.1915 -0.7898
 1153TIP3   OH2 3464   0.046   0.725   3.329  0.9171 -0.2365  0.1181
 1153TIP3    H1 3465  -0.014   0.656   3.356 -0.2242  1.1369  1.2094
 1153TIP3    H2 3466   0.035   0.731   3.234  0.0443 -0.6493  0.1907
 1154TIP3   OH2 3467   1.324   2.712   1.795  0.2238 -0.4121  0.2664
 1154TIP3    H1 3468   1.290   2.649   1.859  0.7233 -1.2207 -0.2427
 1154TIP3    H2 3469   1.306   2.797   1.834 -1.8540 -0.8135  0.2779
 1155TIP3   OH2 3470   1.297   3.428   2.908  0.2871 -0.2344 -0.7202
 1155TIP3    H1 3471   1.222   3.375   2.882 -0.8785  1.1710 -0.3669
 1155TIP3    H2 3472   1.315   3.401   2.998  0.3367 -0.7036 -0.8657
 1156TIP3   OH2 3473   5.602   0.423   3.559  0.0877  0.3407  0.3708
 1156TIP3    H1 3474   5.578   0.463   3.475 -1.4740  2.1909  1.6247
 1156TIP3    H2 3475   5.552   0.341   3.561  1.2073 -0.4201 -1.0575
 1157TIP3   OH2 3476   5.968   1.053   3.015 -0.6725 -0.0291 -0.1586
 1157TIP3    H1 3477   6.058   1.078   3.031  0.1863 -0.5191 -3.5032
 1157TIP3    H2 3478   5.973   0.962   2.986 -2.2599 -0.1343 -0.2092
 1158TIP3   OH2 3479   2.547   0.934   1.449  0.3122  0.5772  0.0871
 1158TIP3    H1 3480   2.485   0.987   1.500  0.2598 -0.1064  0.7618
 1158TIP3    H2 3481   2.506   0.923   1.364  0.5507  2.0311 -0.2402
 1159TIP3   OH2 3482   6.012   4.390   4.237 -0.3106  0.4165  0.2107
 1159TIP3    H1 3483   5.929   4.407   4.282 -0.1417  1.0805  0.2791
 1159TIP3    H2 3484   6.062   4.336   4.298 -1.4710 -1.7603 -0.6441
 1160TIP3   OH2 3485   0.225   2.674   2.103  0.5674 -0.7595  0.3551
 1160TIP3    H1 3486   0.206   2.589   2.063 -0.1738 -1.2531  1.6809
 1160TIP3    H2 3487   0.152   2.688   2.163  1.7922 -0.2337  1.7845
 1161TIP3   OH2 3488   4.012   2.053   4.841  0.0669 -0.1668  0.1715
 1161TIP3    H1 3489   4.092   2.007   4.868  0.3751  0.7305  0.8052
 1161TIP3    H2 3490   3.942   1.990   4.860  0.5514 -0.6967  0.2590
 1162TIP3   OH2 3491   3.991   1.848   4.034  0.0382  0.2438  0.4460
 1162TIP3    H1 3492   3.913   1.811   4.074 -0.3952  0.1871 -0.4172
 1162TIP3    H2 3493   4.061   1.832   4.097 -0.6478  0.3191  1.2446
 1163TIP3   OH2 3494   2.246   2.954   2.447 -0.0595  0.4598 -0.5638
 1163TIP3    H1 3495   2.165   2.954   2.498  0.1467  1.6140 -0.1949
 1163TIP3    H2 3496   2.275   3.046   2.448  2.5792 -0.2608  1.4835
 1164TIP3   OH2 3497   2.431   4.928   0.802  0.6628  0.3439 -0.4901
 1164TIP3    H1 3498   2.513   4.939   0.850  0.4475  0.8048 -0.2238
 1164TIP3    H2 3499   2.436   4.991   0.730  0.1789  0.9649  0.0171
 1165TIP3   OH2 3500   0.651   1.775   1.617  0.4647 -0.6333  0.5586
 1165TIP3    H1 3501   0.650   1.690   1.573 -0.6480  1.1336 -3.2709
 1165TIP3    H2 3502   0.575   1.774   1.675 -0.2902 -1.8282 -0.4100
 1166TIP3   OH2 3503   5.289   4.602   3.490  0.5770  1.3700 -0.0888
 1166TIP3    H1 3504   5.297   4.568   3.579  1.8072  0.5456 -0.4866
 1166TIP3    H2 3505   5.221   4.548   3.449  1.4721  0.3143 -0.2549
 1167TIP3   OH2 3506   2.084   5.868   1.342  0.0732 -0.2950  0.6306
 1167TIP3    H1 3507   2.174   5.891   1.362  0.0310  0.6032 -0.1672
 1167TIP3    H2 3508   2.043   5.950   1.316 -0.2611 -1.1021 -1.6029
 1168TIP3   OH2 3509   2.001   1.820   2.571 -0.4280 -0.1810 -0.6246
 1168TIP3    H1 3510   2.094   1.798   2.562 -0.5802 -2.0073  1.3341
 1168TIP3    H2 3511   1.956   1.760   2.512 -0.4445 -0.7083 -0.0935
 1169TIP3   OH2 3512   5.122   0.771   0.626 -0.5246 -0.2721  0.2501
 1169TIP3    H1 3513   5.101   0.850   0.576 -0.1003 -0.6067 -0.4782
 1169TIP3    H2 3514   5.192   0.729   0.576  0.3802 -0.2799  1.5034
 1170TIP3   OH2 3515   0.011   4.051   0.999  0.1134 -0.2638  0.0720
 1170TIP3    H1 3516  -0.021   3.965   0.974 -0.1272 -0.2323  0.2667
 1170TIP3    H2 3517   0.097   4.059   0.957 -0.6858  0.1866 -1.5478
 1171TIP3   OH2 3518   6.255   1.221   0.898  0.2170  0.6961  0.8570
 1171TIP3    H1 3519   6.343   1.255   0.913  1.8492 -2.9981  0.6974
 1171TIP3    H2 3520   6.252   1.139   0.948 -3.2685  0.8233  1.0514
 1172TIP3   OH2 3521   0.518   4.381   4.804 -0.0061 -0.3756  0.3592
 1172TIP3    H1 3522   0.469   4.352   4.881 -0.2206 -1.4983 -0.1705
 1172TIP3    H2 3523   0.610   4.374   4.829 -0.0293  2.6340  1.6840
 1173TIP3   OH2 3524   0.511   2.102   3.466  0.0405  0.3969  0.2111
 1173TIP3    H1 3525   0.451   2.149   3.523 -0.2392 -0.5272  0.7029
 1173TIP3    H2 3526   0.580   2.165   3.446  0.2277  0.6927  1.6932
 1174TIP3   OH2 3527   1.362   5.092   1.289  0.1480 -0.6431 -0.0231
 1174TIP3    H1 3528   1.283   5.097   1.344  0.8505  2.7686  0.9080
 1174TIP3    H2 3529   1.423   5.154   1.329  2.5068 -1.5075 -2.0144
 1175TIP3   OH2 3530   2.283   1.729   1.998  0.0200 -0.2491 -0.2852
 1175TIP3    H1 3531   2.377   1.714   1.995 -0.1700 -1.5010 -0.9086
 1175TIP3    H2 3532   2.245   1.643   1.979 -1.2480  0.2253 -0.0036
 1176TIP3   OH2 3533   0.909   0.936   2.031 -0.0251 -0.3664 -0.3205
 1176TIP3    H1 3534   0.907   0.874   1.959  0.1364 -2.4270  1.3674
 1176TIP3    H2 3535   0.844   0.904   2.093  0.3076  0.9567  0.7632
 1177TIP3   OH2 3536   2.894   1.914   0.407 -0.9414 -0.0213 -0.2200
 1177TIP3    H1 3537   2.883   1.966   0.327 -2.8633 -0.6902 -0.4438
 1177TIP3    H2 3538   2.871   1.974   0.478 -1.2840 -0.0169 -0.3332
 1178TIP3   OH2 3539   4.391   2.012   2.354  0.0384 -0.3213 -0.5207
 1178TIP3    H1 3540   4.442   1.941   2.393  1.4609 -1.7051 -4.3375
 1178TIP3    H2 3541   4.455   2.081   2.336 -0.7780  0.7455  0.5120
 1179TIP3   OH2 3542   0.882   3.307   2.344 -0.3419  0.3362  0.3661
 1179TIP3    H1 3543   0.888   3.215   2.316  1.3619  1.3141 -3.1120
 1179TIP3    H2 3544   0.959   3.320   2.399 -0.0666 -0.1289  0.1002
 1180TIP3   OH2 3545   0.580   4.640   1.387  0.1936  0.3652  0.2766
 1180TIP3    H1 3546   0.645   4.640   1.457  1.4189 -0.8423 -0.7986
 1180TIP3    H2 3547   0.504   4.683   1.425  0.9082 -0.0039  2.2518
 1181TIP3   OH2 3548   1.691   2.959   4.145 -0.1327 -0.4543 -0.0171
 1181TIP3    H1 3549   1.656   2.874   4.171 -1.2266 -0.3728 -1.1235
 1181TIP3    H2 3550   1.687   3.013   4.224 -0.0447 -1.2301  0.5255
 1182TIP3   OH2 3551   0.530   0.503   4.699 -0.2826  0.1455  0.0361
 1182TIP3    H1 3552   0.461   0.471   4.641 -0.0704  1.2885 -0.9078
 1182TIP3    H2 3553   0.600   0.438   4.691 -0.5545 -0.0973 -0.4056
 1183TIP3   OH2 3554   5.902   4.264   4.024 -0.3642 -0.1925 -0.1416
 1183TIP3    H1 3555   5.969   4.322   3.987 -1.2678  0.8774 -0.1545
 1183TIP3    H2 3556   5.896   4.290   4.116 -0.4318 -0.6217 -0.0221
 1184TIP3   OH2 3557   3.891   1.213   1.819 -0.0265  0.5271  0.2770
 1184TIP3    H1 3558   3.875   1.173   1.734  1.6660 -2.7216  1.3166
 1184TIP3    H2 3559   3.985   1.231   1.819 -0.0110  0.4874  1.4363
 1185TIP3   OH2 3560   5.050   5.396   2.573  0.1225  0.3790  0.8491
 1185TIP3    H1 3561   5.047   5.373   2.666 -0.7081  0.8524  0.9437
 1185TIP3    H2 3562   5.143   5.391   2.550  0.5454  1.8236  2.0947
 1186TIP3   OH2 3563   1.812   5.343   3.281 -0.3508  0.0735 -0.1936
 1186TIP3    H1 3564   1.880   5.410   3.288  1.0830 -1.4194  0.9173
 1186TIP3    H2 3565   1.734   5.391   3.255  0.5867  2.1995  0.6569
 1187TIP3   OH2 3566   6.246   2.042   1.669  0.0279 -0.3031 -0.3060
 1187TIP3    H1 3567   6.257   1.983   1.743  0.4522 -0.0322 -0.1499
 1187TIP3    H2 3568   6.158   2.078   1.679  0.1887 -0.0513  0.2245
 1188TIP3   OH2 3569   4.107   4.740   2.942 -0.4576 -0.0406 -0.1978
 1188TIP3    H1 3570   4.052   4.766   2.869 -0.9592  0.5801  0.3817
 1188TIP3    H2 3571   4.158   4.819   2.963 -0.4197 -0.1661  0.1969
 1189TIP3   OH2 3572   1.702   4.905   2.069 -1.0808  0.3051 -0.4993
 1189TIP3    H1 3573   1.666   4.965   2.134 -0.6993 -0.4729  0.4566
 1189TIP3    H2 3574   1.756   4.844   2.120 -0.3116  0.0275 -1.6180
 1190TIP3   OH2 3575   1.464   5.821   0.570  0.3151 -0.7335 -0.1901
 1190TIP3    H1 3576   1.528   5.893   0.573 -0.6535  0.1289  1.2939
 1190TIP3    H2 3577   1.414   5.831   0.651 -0.4205 -2.5880 -0.3733
 1191TIP3   OH2 3578   0.833   4.162   0.184  0.1455  0.8699  0.4197
 1191TIP3    H1 3579   0.764   4.154   0.250  0.6992  0.8133  1.0058
 1191TIP3    H2 3580   0.802   4.231   0.125 -0.1085  1.3114  1.0581
 1192TIP3   OH2 3581   0.807   5.186   1.910 -0.3485 -0.3724 -0.3067
 1192TIP3    H1 3582   0.752   5.109   1.893 -0.6590  0.0952 -1.5508
 1192TIP3    H2 3583   0.811   5.231   1.825  0.1063  0.7980  0.3204
 1193TIP3   OH2 3584   5.614   3.957   0.124 -0.7444  0.3340  0.3330
 1193TIP3    H1 3585   5.643   3.932   0.036  0.0846 -0.2325  0.7466
 1193TIP3    H2 3586   5.647   3.887   0.180 -3.5182 -0.6887  0.7949
 1194TIP3   OH2 3587   2.465   1.903   3.704 -0.4117 -0.0301 -0.0008
 1194TIP3    H1 3588   2.517   1.878   3.628  1.5449 -0.9467  1.5406
 1194TIP3    H2 3589   2.461   1.824   3.757 -0.6560  0.8962  1.4208
 1195TIP3   OH2 3590   1.446   2.578   4.140 -0.4428 -0.8084 -0.5724
 1195TIP3    H1 3591   1.469   2.488   4.161 -1.5854 -0.8945  0.4549
 1195TIP3    H2 3592   1.519   2.630   4.175  0.5553 -1.3489 -1.7829
 1196TIP3   OH2 3593   6.302   1.574   0.163  0.2318  0.0407 -0.2994
 1196TIP3    H1 3594   6.345   1.543   0.083  2.0347  2.4226 -0.3577
 1196TIP3    H2 3595   6.243   1.643   0.134 -0.4555 -0.2885  0.2703
 1197TIP3   OH2 3596   2.878   4.191   3.845  0.0403 -0.1033  0.0833
 1197TIP3    H1 3597   2.862   4.191   3.939 -0.3636  0.8596  0.0150
 1197TIP3    H2 3598   2.960   4.141   3.835 -0.7622 -1.6238  0.7725
 1198TIP3   OH2 3599   4.329   0.226   0.452  0.0673 -0.5854 -0.0359
 1198TIP3    H1 3600   4.267   0.278   0.504  1.2902  0.0469  0.8358
 1198TIP3    H2 3601   4.308   0.135   0.474 -1.2513 -0.4318 -0.5878
 1199TIP3   OH2 3602   4.560   1.589   2.050 -0.1268  0.9826  0.0369
 1199TIP3    H1 3603   4.628   1.582   2.117 -0.1611  0.8461  0.0569
 1199TIP3    H2 3604   4.531   1.680   2.055  0.4599  1.1939 -0.3694
 1200TIP3   OH2 3605   0.870   5.948   1.586  0.1392 -0.4721  0.0043
 1200TIP3    H1 3606   0.917   5.907   1.659  1.0490 -0.0715 -0.3422
 1200TIP3    H2 3607   0.778   5.938   1.609  0.3140 -2.6561 -0.0243
 1201TIP3   OH2 3608   3.738   1.036   2.030 -0.3338  0.3577 -0.2804
 1201TIP3    H1 3609   3.740   1.069   2.120 -1.2523 -0.4817  0.0715
 1201TIP3    H2 3610   3.780   1.105   1.978  2.2497 -0.0968  1.0634
 1202TIP3   OH2 3611   2.203   1.552   3.285 -0.2820  0.4178  0.1250
 1202TIP3    H1 3612   2.263   1.529   3.356  1.2768  2.0303 -0.5775
 1202TIP3    H2 3613   2.171   1.469   3.252 -1.1264 -0.3875  2.7224
 1203TIP3   OH2 3614   2.409   2.291   5.026 -0.3538 -0.0930 -0.1477
 1203TIP3    H1 3615   2.323   2.271   5.063 -0.8624  1.4535 -0.4282
 1203TIP3    H2 3616   2.471   2.259   5.092 -1.1816  0.0815  0.7386
 1204TIP3   OH2 3617   4.267   4.079   4.552 -0.3374 -0.3871  0.6077
 1204TIP3    H1 3618   4.187   4.114   4.514 -0.1536 -1.1460 -0.5368
 1204TIP3    H2 3619   4.252   4.083   4.647 -0.6407  1.9437  0.5256
 1205TIP3   OH2 3620   3.528   5.165   0.992  0.7532 -0.5813 -0.2091
 1205TIP3    H1 3621   3.529   5.145   1.086  0.0026 -0.7842 -0.2440
 1205TIP3    H2 3622   3.437   5.183   0.972  1.1313  1.1095 -0.5671
 1206TIP3   OH2 3623   2.034   5.206   4.138  0.0774  0.1764  0.2220
 1206TIP3    H1 3624   1.939   5.200   4.136  0.1535 -2.4261  0.1950
 1206TIP3    H2 3625   2.057   5.251   4.056 -1.1158  1.1631  0.4025
 1207TIP3   OH2 3626   2.975   4.217   4.719  0.1891  0.0317 -0.5927
 1207TIP3    H1 3627   3.025   4.206   4.800 -0.1378  0.5981 -0.3093
 1207TIP3    H2 3628   2.953   4.311   4.717 -0.2233 -0.0733 -1.0887
 1208TIP3   OH2 3629   5.825   2.540   3.614  0.2039  0.0586 -0.4919
 1208TIP3    H1 3630   5.890   2.469   3.610  0.3519  0.0493  1.2731
 1208TIP3    H2 3631   5.806   2.549   3.707 -0.9994  1.2919 -0.8342
 1209TIP3   OH2 3632   4.820   4.110   2.322 -0.4772 -0.2851 -0.4803
 1209TIP3    H1 3633   4.883   4.179   2.304 -0.6367 -0.3173 -1.2195
 1209TIP3    H2 3634   4.737   4.143   2.288 -0.7610 -0.4364  0.0527
 1210TIP3   OH2 3635   2.798   0.316   0.458  0.0788 -0.3515  0.7421
 1210TIP3    H1 3636   2.821   0.305   0.550 -1.3055 -1.0252  1.0404
 1210TIP3    H2 3637   2.881   0.330   0.413  0.7863 -0.1605  2.0708
 1211TIP3   OH2 3638   4.407   2.512   1.858 -0.6211 -0.0757 -0.6294
 1211TIP3    H1 3639   4.437   2.533   1.946 -4.6826 -0.1738  0.9934
 1211TIP3    H2 3640   4.441   2.424   1.841  0.1368 -0.0958  0.8834
 1212TIP3   OH2 3641   0.687   4.427   4.277  0.2452  0.4167 -0.0064
 1212TIP3    H1 3642   0.685   4.477   4.359  1.1395  0.6027 -0.0852
 1212TIP3    H2 3643   0.709   4.338   4.303 -0.1853  0.3146  0.0187
 1213TIP3   OH2 3644   4.426   0.265   4.400  0.0858 -0.5763  0.2915
 1213TIP3    H1 3645   4.516   0.288   4.377  0.3331 -2.1943 -0.5230
 1213TIP3    H2 3646   4.410   0.183   4.353 -1.8382 -0.2915  0.3876
 1214TIP3   OH2 3647   2.626   5.442   3.968 -0.4003 -0.0001 -0.5620
 1214TIP3    H1 3648   2.688   5.472   3.901 -0.7771  1.0869 -0.4428
 1214TIP3    H2 3649   2.592   5.523   4.007 -0.2189 -0.5981  0.9245
 1215TIP3   OH2 3650   4.817   4.860   1.907 -0.1388  0.3167  0.6477
 1215TIP3    H1 3651   4.837   4.892   1.819 -1.9569  0.1210  0.1267
 1215TIP3    H2 3652   4.774   4.934   1.950  0.2433  0.2264  1.1955
 1216TIP3   OH2 3653   4.294   0.451   0.752 -0.3610  0.5927 -0.6982
 1216TIP3    H1 3654   4.244   0.506   0.813 -1.1873 -0.0173 -0.7995
 1216TIP3    H2 3655   4.345   0.393   0.809  0.6347  1.5553 -0.5922
 1217TIP3   OH2 3656   5.808   3.384   3.270 -0.0752  0.1595  0.7955
 1217TIP3    H1 3657   5.776   3.403   3.182  0.7252  0.0869  0.4796
 1217TIP3    H2 3658   5.895   3.346   3.257  0.4851  1.0979  1.6703
 1218TIP3   OH2 3659   0.359   0.251   2.767 -0.4792 -0.5385 -0.7533
 1218TIP3    H1 3660   0.440   0.297   2.790  0.5909 -1.4678 -2.4476
 1218TIP3    H2 3661   0.300   0.268   2.841  2.1640 -2.1475  1.9381
 1219TIP3   OH2 3662   1.499   2.705   1.018 -0.4405  0.2881 -0.3476
 1219TIP3    H1 3663   1.518   2.780   1.073 -1.5791  0.2462  0.1152
 1219TIP3    H2 3664   1.585   2.677   0.985  0.4444 -0.4539  2.3669
 1220TIP3   OH2 3665   0.293   1.004   1.978  0.4771 -0.0820  0.2791
 1220TIP3    H1 3666   0.199   1.012   1.963  0.4525  2.1230  1.2727
 1220TIP3    H2 3667   0.300   0.965   2.065  0.5526 -1.7459 -0.4225
 1221TIP3   OH2 3668   5.717   3.998   2.252  0.1884 -0.1089 -0.6024
 1221TIP3    H1 3669   5.806   3.994   2.287 -0.4483  1.5050  1.4093
 1221TIP3    H2 3670   5.718   4.073   2.192 -0.4448  2.0494  1.8475
 1222TIP3   OH2 3671   1.977   5.245   4.628 -0.1063 -0.2112  0.6597
 1222TIP3    H1 3672   1.900   5.263   4.682  0.1981 -0.2268  1.1105
 1222TIP3    H2 3673   2.046   5.223   4.691  0.3906  0.2447  0.2961
 1223TIP3   OH2 3674   5.779   1.518   0.055 -0.1336  0.4008  0.0034
 1223TIP3    H1 3675   5.715   1.539   0.123  0.7581 -2.2161  1.8269
 1223TIP3    H2 3676   5.740   1.445   0.007 -0.2173  1.4326 -1.5789
 1224TIP3   OH2 3677   0.056   5.435   2.156  0.1449 -0.0195  0.2256
 1224TIP3    H1 3678   0.110   5.359   2.179 -0.1779 -0.0962  0.7581
 1224TIP3    H2 3679  -0.031   5.414   2.192 -0.6415 -0.5264 -1.8440
 1225TIP3   OH2 3680   5.109   5.383   1.989  0.5813  0.4154 -0.2436
 1225TIP3    H1 3681   5.065   5.467   1.973  2.0300  0.9665 -1.6445
 1225TIP3    H2 3682   5.174   5.403   2.056 -1.0204 -0.3412  1.6437
 1226TIP3   OH2 3683   5.384   5.552   3.488  0.0357  0.2396 -0.1530
 1226TIP3    H1 3684   5.353   5.604   3.413  1.2131  0.6961 -0.3453
 1226TIP3    H2 3685   5.429   5.477   3.449  0.2743  0.2514  0.0906
 1227TIP3   OH2 3686   4.523   4.428   0.285  0.1646 -0.1142  0.1463
 1227TIP3    H1 3687   4.443   4.466   0.248 -0.4893 -2.0771 -0.6009
 1227TIP3    H2 3688   4.570   4.502   0.322 -0.9766  1.4150 -1.3072
 1228TIP3   OH2 3689   4.754   5.648   1.007  0.6628 -0.3671 -0.3836
 1228TIP3    H1 3690   4.827   5.679   1.061  0.1759  1.5430 -0.7576
 1228TIP3    H2 3691   4.680   5.642   1.068 -0.1133  2.6320 -0.8826
 1229TIP3   OH2 3692   2.398   5.270   0.020  0.2047  0.4009 -0.0316
 1229TIP3    H1 3693   2.400   5.343   0.083 -0.6484 -0.7572  1.4116
 1229TIP3    H2 3694   2.347   5.304  -0.054 -1.6083  0.7991  1.3184
 1230TIP3   OH2 3695   0.511   0.957   2.638 -0.0395 -0.2897 -0.2656
 1230TIP3    H1 3696   0.524   0.901   2.714  0.3535 -1.3527 -1.0993
 1230TIP3    H2 3697   0.528   1.046   2.671  1.7862 -0.8794  0.5073
 1231TIP3   OH2 3698   4.863   3.872   0.805 -0.2502 -0.2315 -0.3923
 1231TIP3    H1 3699   4.783   3.920   0.825  0.1501  1.2043 -1.9789
 1231TIP3    H2 3700   4.837   3.808   0.739 -0.4253 -0.9660  0.3830
 1232TIP3   OH2 3701   0.757   2.541   0.363  1.0320  0.0812 -0.1006
 1232TIP3    H1 3702   0.821   2.477   0.329  0.9287  0.7530 -1.6274
 1232TIP3    H2 3703   0.687   2.541   0.298 -0.1132  0.0238  1.1036
 1233TIP3   OH2 3704   3.642   3.607   2.740 -0.0754 -0.1895 -0.4145
 1233TIP3    H1 3705   3.583   3.662   2.792 -0.4405 -1.8803  1.0490
 1233TIP3    H2 3706   3.727   3.652   2.746 -0.4864  0.5378  0.2554
 1234TIP3   OH2 3707   4.867   3.150   4.257  0.1188 -0.2629 -0.4857
 1234TIP3    H1 3708   4.858   3.055   4.259 -0.7041 -0.2055 -1.1683
 1234TIP3    H2 3709   4.807   3.179   4.188 -1.2805  0.9271  1.1475
 1235TIP3   OH2 3710   0.547   1.086   3.487 -0.0300 -0.0580 -0.8297
 1235TIP3    H1 3711   0.520   1.175   3.465 -0.0740 -0.3297 -1.9348
 1235TIP3    H2 3712   0.614   1.064   3.422 -0.6305 -1.1365 -1.1222
 1236TIP3   OH2 3713   4.676   1.106   4.642  0.2278 -0.1489  0.1317
 1236TIP3    H1 3714   4.769   1.083   4.647  0.5672  1.1324  0.2575
 1236TIP3    H2 3715   4.674   1.199   4.665 -1.1369 -0.2518  0.4915
 1237TIP3   OH2 3716   6.142   4.819   2.717  0.1820  0.3796 -0.2578
 1237TIP3    H1 3717   6.097   4.762   2.654 -0.3415  1.1288 -0.5781
 1237TIP3    H2 3718   6.154   4.764   2.794 -1.2164  0.1241 -0.2007
 1238TIP3   OH2 3719   1.833   4.389   0.243  0.3663 -0.1911 -0.0679
 1238TIP3    H1 3720   1.838   4.363   0.151 -0.4188 -0.9742  0.0939
 1238TIP3    H2 3721   1.885   4.469   0.249 -1.1037  0.9338 -1.5923
 1239TIP3   OH2 3722   1.143   5.922   0.386  0.5240 -0.2434  0.1360
 1239TIP3    H1 3723   1.155   5.829   0.367  0.5016 -0.3476  0.6169
 1239TIP3    H2 3724   1.199   5.966   0.322 -0.3127 -0.5315 -0.8321
 1240TIP3   OH2 3725   0.722   1.245   4.012 -0.0841 -0.4965 -0.3065
 1240TIP3    H1 3726   0.753   1.224   3.924 -1.0950 -1.4202 -0.4588
 1240TIP3    H2 3727   0.642   1.297   3.998 -0.1673 -0.5199  0.0638
 1241TIP3   OH2 3728   3.085   4.667   4.687 -0.1753 -0.1065 -0.6047
 1241TIP3    H1 3729   3.051   4.731   4.751 -0.8938 -0.2784 -0.7996
 1241TIP3    H2 3730   3.162   4.629   4.730  0.1791  0.7838 -0.4271
 1242TIP3   OH2 3731   3.166   1.439   0.414  0.6682  0.2895 -0.1961
 1242TIP3    H1 3732   3.088   1.469   0.368  0.5381 -1.1575 -0.9992
 1242TIP3    H2 3733   3.138   1.359   0.459  1.3035  0.5971  0.7820
 1243TIP3   OH2 3734   4.350   0.922   4.155  0.1129  0.0338 -0.2379
 1243TIP3    H1 3735   4.416   0.901   4.221  0.7854 -0.2811 -0.9978
 1243TIP3    H2 3736   4.381   1.003   4.114  0.5369 -0.6281 -1.2468
 1244TIP3   OH2 3737   3.003   0.765   1.179  0.3840  0.5619  0.0379
 1244TIP3    H1 3738   3.030   0.813   1.100  0.6469  1.8842  0.9090
 1244TIP3    H2 3739   3.059   0.688   1.179  3.0772  2.3706  0.8606
 1245TIP3   OH2 3740   1.930   3.520   3.044 -0.1626  0.1723  0.4306
 1245TIP3    H1 3741   1.893   3.609   3.043 -2.4260 -0.6956  0.1799
 1245TIP3    H2 3742   1.978   3.513   2.961 -1.5627  0.5773 -0.4526
 1246TIP3   OH2 3743   4.963   2.449   1.348 -0.2331 -0.0135  0.6405
 1246TIP3    H1 3744   5.002   2.535   1.332  1.0911 -0.0849  3.0194
 1246TIP3    H2 3745   5.029   2.387   1.320 -0.2891 -0.2051  0.9261
 1247TIP3   OH2 3746   0.637   0.367   2.170 -0.1894 -0.4288  0.1872
 1247TIP3    H1 3747   0.663   0.399   2.084 -0.5184 -1.4387 -0.3032
 1247TIP3    H2 3748   0.714   0.379   2.225  0.7684 -1.8131 -0.8089
 1248TIP3   OH2 3749   4.843   2.678   0.030 -0.2799 -0.1980 -0.4595
 1248TIP3    H1 3750   4.856   2.583   0.033  1.8361  0.0648  0.9368
 1248TIP3    H2 3751   4.900   2.707  -0.041  0.5522  0.1801  0.3407
 1249TIP3   OH2 3752   3.263   0.296   0.549  0.1448  0.4968  0.6053
 1249TIP3    H1 3753   3.207   0.236   0.598  1.0528 -1.1393 -0.2481
 1249TIP3    H2 3754   3.209   0.326   0.476  0.5114 -1.7459 -0.7142
 1250TIP3   OH2 3755   0.691   3.571   0.156  0.3194  0.4386 -0.4603
 1250TIP3    H1 3756   0.762   3.621   0.116  0.4833  0.5213 -0.0686
 1250TIP3    H2 3757   0.656   3.518   0.085  0.1271  1.1297 -0.8925
 1251TIP3   OH2 3758   6.235   5.495   0.230 -0.1513 -0.2515  0.1225
 1251TIP3    H1 3759   6.329   5.512   0.225 -0.3042  0.8588  0.7632
 1251TIP3    H2 3760   6.196   5.578   0.259 -1.3411 -0.6614 -0.2173
 1252TIP3   OH2 3761   0.752   1.663   2.947  0.2964  0.0271  0.2991
 1252TIP3    H1 3762   0.823   1.651   3.009  0.7144 -0.7088 -0.3018
 1252TIP3    H2 3763   0.676   1.684   3.001  0.1606 -2.5966  1.2542
 1253TIP3   OH2 3764   3.013   2.513   1.559 -0.0894  0.3268 -0.2914
 1253TIP3    H1 3765   3.049   2.597   1.533  0.1694  0.3113 -0.0010
 1253TIP3    H2 3766   3.087   2.466   1.598 -0.0369 -0.3508 -1.1820
 1254TIP3   OH2 3767   2.796   5.630   2.863  0.2557 -0.7029 -0.4541
 1254TIP3    H1 3768   2.833   5.582   2.937  1.9765  0.1028 -0.7521
 1254TIP3    H2 3769   2.814   5.722   2.882 -0.9598 -0.3231 -0.9920
 1255TIP3   OH2 3770   6.027   0.465   3.596 -0.3842  0.0791  0.4187
 1255TIP3    H1 3771   5.974   0.388   3.618 -0.9149  0.0015 -1.0178
 1255TIP3    H2 3772   5.970   0.539   3.616  0.1771  0.1321  1.9326
 1256TIP3   OH2 3773   1.516   3.249   1.718  0.5694  0.2087  0.2751
 1256TIP3    H1 3774   1.528   3.311   1.646  0.0957  0.8727  0.7440
 1256TIP3    H2 3775   1.468   3.299   1.785  1.0079 -0.3837  1.0569
 1257TIP3   OH2 3776   1.962   3.091   0.615  0.1054 -0.3378  0.1131
 1257TIP3    H1 3777   1.942   3.124   0.527 -0.2577 -1.5265 -0.2630
 1257TIP3    H2 3778   1.931   3.001   0.615 -2.8348  0.4858  2.4644
 1258TIP3   OH2 3779   1.453   5.519   3.755  0.0860 -0.6679  0.1564
 1258TIP3    H1 3780   1.458   5.570   3.836 -0.1187 -0.5075  0.0699
 1258TIP3    H2 3781   1.359   5.511   3.738  0.0604 -2.1296  0.8261
 1259TIP3   OH2 3782   6.188   3.412   1.236  0.5314  0.0046 -0.3263
 1259TIP3    H1 3783   6.165   3.329   1.194  0.0837 -0.7913  1.4060
 1259TIP3    H2 3784   6.182   3.476   1.166 -1.1016 -1.1082 -1.2819
 1260TIP3   OH2 3785   3.541   0.867   1.775 -0.5911  0.0976  0.1952
 1260TIP3    H1 3786   3.615   0.859   1.715 -0.2870  0.6617  0.4984
 1260TIP3    H2 3787   3.565   0.815   1.851 -1.0143 -0.6912 -0.1925
 1261TIP3   OH2 3788   1.772   2.441   4.676 -0.1686  0.0696  0.5117
 1261TIP3    H1 3789   1.749   2.369   4.617  0.0534  0.8978 -0.6060
 1261TIP3    H2 3790   1.804   2.510   4.619  0.6820  0.6619  1.6607
 1262TIP3   OH2 3791   4.727   2.329   1.265 -0.1949 -0.0927 -0.2191
 1262TIP3    H1 3792   4.759   2.285   1.186 -0.5450  3.7135 -2.7695
 1262TIP3    H2 3793   4.807   2.357   1.311  0.1734  1.3591 -1.6302
 1263TIP3   OH2 3794   2.827   1.239   3.987  0.0746  0.0310  0.5514
 1263TIP3    H1 3795   2.897   1.174   3.981  0.0044 -0.0014  0.0110
 1263TIP3    H2 3796   2.774   1.212   4.061  0.0766 -0.4998  0.3588
 1264TIP3   OH2 3797   5.694   2.712   0.593  0.3572 -0.3222  0.7057
 1264TIP3    H1 3798   5.690   2.668   0.508 -1.3407  0.7033  0.2053
 1264TIP3    H2 3799   5.721   2.643   0.654  1.4117 -1.1281 -0.5964
 1265TIP3   OH2 3800   1.302   2.025   1.548 -0.3605 -0.0096  0.1114
 1265TIP3    H1 3801   1.248   2.090   1.594  1.6548  0.7415  1.5323
 1265TIP3    H2 3802   1.328   2.069   1.467 -1.1608 -0.0566 -0.1779
 1266TIP3   OH2 3803   0.723   4.892   2.091 -0.4918  0.0819 -0.2886
 1266TIP3    H1 3804   0.726   4.814   2.148 -0.7154 -1.3846 -2.2035
 1266TIP3    H2 3805   0.636   4.890   2.052 -0.0582  0.5775 -1.3113
 1267TIP3   OH2 3806   3.205   4.214   1.841  0.6198 -0.1754 -0.2864
 1267TIP3    H1 3807   3.204   4.118   1.839  0.0133 -0.1930 -2.5183
 1267TIP3    H2 3808   3.137   4.237   1.904  0.4043 -1.2112 -0.1169
 1268TIP3   OH2 3809   1.120   3.339   2.500 -0.1141  0.7352  1.1378
 1268TIP3    H1 3810   1.177   3.395   2.450  0.2911  0.2790  1.0807
 1268TIP3    H2 3811   1.174   3.264   2.524 -0.3750  0.8155  2.0209
 1269TIP3   OH2 3812   1.906   5.240   3.529 -0.2689 -0.2968  0.1724
 1269TIP3    H1 3813   1.885   5.147   3.534  0.2847 -0.3586  2.2030
 1269TIP3    H2 3814   1.841   5.276   3.470 -0.2787 -2.0170 -0.9521
 1270TIP3   OH2 3815   1.194   4.044   1.024 -0.8516  0.4928 -0.0095
 1270TIP3    H1 3816   1.138   4.105   0.976 -0.4573  1.6454  0.9301
 1270TIP3    H2 3817   1.283   4.076   1.007 -0.7108  1.0056  1.5343
 1271TIP3   OH2 3818   3.694   4.248   2.967  0.0443  0.3463  1.0420
 1271TIP3    H1 3819   3.616   4.221   2.919 -0.1617 -1.6070  2.3399
 1271TIP3    H2 3820   3.660   4.307   3.035  0.3422  3.1513 -1.0515
 1272TIP3   OH2 3821   2.516   4.825   4.607 -0.1005  0.4531 -0.7466
 1272TIP3    H1 3822   2.448   4.779   4.658  0.2453 -0.3942 -1.0402
 1272TIP3    H2 3823   2.587   4.837   4.669  0.2924 -0.5159 -0.9904
 1273TIP3   OH2 3824   3.435   5.836   0.687  0.0887 -0.3029 -0.0782
 1273TIP3    H1 3825   3.410   5.818   0.597  0.7548 -1.6891 -0.0085
 1273TIP3    H2 3826   3.450   5.750   0.726  3.9417  0.2836  0.1666
 1274TIP3   OH2 3827   5.911   2.272   4.445  0.7220  0.0090 -0.1506
 1274TIP3    H1 3828   5.963   2.266   4.525  0.4604  1.9075  0.1909
 1274TIP3    H2 3829   5.904   2.181   4.415  3.2299 -0.4472  0.4144
 1275TIP3   OH2 3830   4.843   5.496   4.669 -0.3461 -0.5512 -0.3998
 1275TIP3    H1 3831   4.849   5.459   4.758  0.6215  0.0460 -0.2086
 1275TIP3    H2 3832   4.796   5.429   4.619 -0.8097 -0.9444  0.5364
 1276TIP3   OH2 3833   1.755   2.049   2.953 -0.4892 -0.0905 -0.3683
 1276TIP3    H1 3834   1.664   2.062   2.978 -0.1696  1.1443  0.2360
 1276TIP3    H2 3835   1.751   1.984   2.883 -1.8817  0.3007 -0.6909
 1277TIP3   OH2 3836   5.462   2.792   2.104 -0.5540 -1.2176  0.0631
 1277TIP3    H1 3837   5.478   2.726   2.037 -0.2019 -0.9598 -0.1120
 1277TIP3    H2 3838   5.372   2.821   2.090 -0.1335 -0.3528 -1.0205
 1278TIP3   OH2 3839   3.747   3.920   2.569 -0.4326  0.6554  0.0760
 1278TIP3    H1 3840   3.711   3.893   2.485 -0.3588  0.0012  0.2481
 1278TIP3    H2 3841   3.835   3.953   2.547 -0.3077  0.2341 -0.0734
 1279TIP3   OH2 3842   4.614   0.666   0.682  0.1020  0.0409 -0.0495
 1279TIP3    H1 3843   4.541   0.629   0.632  0.2603 -1.1673  0.5767
 1279TIP3    H2 3844   4.573   0.726   0.744 -0.4700 -1.2193  0.8353
 1280TIP3   OH2 3845   5.169   0.641   5.184  0.2881  0.5303  0.2729
 1280TIP3    H1 3846   5.244   0.599   5.225  0.0276  0.3127  0.5361
 1280TIP3    H2 3847   5.179   0.622   5.090  0.2616  0.0163  0.3697
 1281TIP3   OH2 3848   3.587   3.318   4.118 -0.0116  0.7269 -0.3443
 1281TIP3    H1 3849   3.587   3.226   4.143  0.5129  0.6857 -0.4933
 1281TIP3    H2 3850   3.597   3.365   4.200 -0.3749  0.6597 -0.2568
 1282TIP3   OH2 3851   2.439   1.730   4.118  0.0374  0.1568 -0.5163
 1282TIP3    H1 3852   2.423   1.748   4.210 -1.3311  0.3758 -0.7832
 1282TIP3    H2 3853   2.513   1.786   4.095 -0.4337  1.0526  0.1275
 1283TIP3   OH2 3854   1.373   4.849   2.026  0.3354  0.4211  0.4616
 1283TIP3    H1 3855   1.406   4.852   1.937  1.6372  2.9692  0.9549
 1283TIP3    H2 3856   1.438   4.799   2.075 -0.6122 -1.3921 -0.0167
 1284TIP3   OH2 3857   4.612   5.979   1.039  0.5452 -0.5523 -0.2436
 1284TIP3    H1 3858   4.537   5.987   0.979 -1.0830  0.1657  1.7612
 1284TIP3    H2 3859   4.628   5.885   1.044 -0.1484 -0.7134 -0.7955
 1285TIP3   OH2 3860   3.122   5.999   3.555  0.3556  0.0076  0.4103
 1285TIP3    H1 3861   3.140   5.916   3.512  1.1887  0.7071 -0.6521
 1285TIP3    H2 3862   3.049   6.037   3.505  0.2765  0.1221  0.6101
 1286TIP3   OH2 3863   1.023   1.742   2.142 -0.2024  0.8792  0.6669
 1286TIP3    H1 3864   1.075   1.662   2.133  0.4662  0.9337  3.2155
 1286TIP3    H2 3865   1.075   1.798   2.200 -2.0304  1.9148  1.3993
 1287TIP3   OH2 3866   2.076   0.635   2.495 -0.7017  0.7280 -0.0756
 1287TIP3    H1 3867   2.125   0.717   2.485  0.2019  0.0118 -1.9037
 1287TIP3    H2 3868   2.057   0.608   2.405 -1.0109 -1.0568  0.4968
 1288TIP3   OH2 3869   2.334   1.228   2.004 -0.4649 -0.2579 -0.1138
 1288TIP3    H1 3870   2.279   1.176   2.062  0.5419  0.1219  1.2289
 1288TIP3    H2 3871   2.415   1.179   1.996  0.4324  0.9801  1.0333
 1289TIP3   OH2 3872   0.149   4.282   3.947  1.1799  0.0431  0.0419
 1289TIP3    H1 3873   0.083   4.227   3.990  0.2524  0.8195 -0.3527
 1289TIP3    H2 3874   0.143   4.366   3.993 -0.1848  1.0554 -1.9011
 1290TIP3   OH2 3875   5.113   4.722   2.510  0.3306  0.2891 -0.1672
 1290TIP3    H1 3876   5.153   4.805   2.536  0.9735  0.3618 -1.2804
 1290TIP3    H2 3877   5.184   4.658   2.518  0.3910  0.2168 -1.1308
 1291TIP3   OH2 3878   3.934   3.021   0.097  0.5872 -0.2799  0.1046
 1291TIP3    H1 3879   3.859   3.065   0.056 -0.4580 -1.3444  0.8192
 1291TIP3    H2 3880   3.903   2.932   0.115  1.6777 -0.4261  1.3834
 1292TIP3   OH2 3881   1.478   1.264   4.566  0.1875 -0.4828 -0.1633
 1292TIP3    H1 3882   1.424   1.299   4.495  1.9107  2.0417 -0.3562
 1292TIP3    H2 3883   1.499   1.340   4.621  2.3885 -1.5623  0.6249
 1293TIP3   OH2 3884   2.356   2.858   0.815  0.2528 -0.4319  0.2822
 1293TIP3    H1 3885   2.414   2.897   0.750 -1.5933  0.1580 -1.1012
 1293TIP3    H2 3886   2.302   2.931   0.846 -0.1180 -1.0538  1.1313
 1294TIP3   OH2 3887   5.766   3.503   0.209 -0.4391 -0.5018  0.2277
 1294TIP3    H1 3888   5.771   3.595   0.233  0.2731 -0.4127 -0.2358
 1294TIP3    H2 3889   5.798   3.457   0.287 -1.0924 -0.3892  0.5764
 1295TIP3   OH2 3890   4.625   4.359   1.275 -0.1248  0.0646  0.2224
 1295TIP3    H1 3891   4.626   4.454   1.263  2.0524 -0.0522 -1.0928
 1295TIP3    H2 3892   4.535   4.339   1.300 -0.2306  2.6593  2.3775
 1296TIP3   OH2 3893   2.795   5.798   2.104  0.3570 -0.0528 -0.0138
 1296TIP3    H1 3894   2.874   5.796   2.051 -0.7920  2.4973 -2.0150
 1296TIP3    H2 3895   2.725   5.773   2.044 -0.7517  0.8783  0.8404
 1297TIP3   OH2 3896   5.893   2.841   1.035  0.1094 -0.4180  0.3162
 1297TIP3    H1 3897   5.962   2.779   1.012  0.2294 -0.5991  1.1405
 1297TIP3    H2 3898   5.859   2.872   0.950 -0.4076 -2.0955 -0.1276
 1298TIP3   OH2 3899   5.633   5.465   2.549 -0.1068 -0.1183  0.1286
 1298TIP3    H1 3900   5.680   5.385   2.573 -1.6267 -0.9135  0.5950
 1298TIP3    H2 3901   5.544   5.435   2.529 -0.1926  1.2044 -1.6494
 1299TIP3   OH2 3902   1.845   1.745   3.614  0.0729  0.2695  0.2137
 1299TIP3    H1 3903   1.845   1.658   3.653  0.8048 -0.0868 -0.5447
 1299TIP3    H2 3904   1.921   1.745   3.556  0.7318  1.7912  1.0406
 1300TIP3   OH2 3905   3.888   4.437   2.879 -0.1480 -0.3834 -0.0190
 1300TIP3    H1 3906   3.838   4.410   2.956  0.0898  0.1367  0.3247
 1300TIP3    H2 3907   3.889   4.533   2.884  0.1703 -0.3602 -0.4799
 1301TIP3   OH2 3908   4.421   0.067   3.212 -0.5614 -0.1260 -0.1867
 1301TIP3    H1 3909   4.374  -0.016   3.206  0.0624 -0.4747 -0.3641
 1301TIP3    H2 3910   4.433   0.080   3.306 -1.2554  0.1086 -0.1273
 1302TIP3   OH2 3911   4.530   4.771   2.842 -0.0448 -0.4573  0.0665
 1302TIP3    H1 3912   4.464   4.704   2.823 -0.7647  0.5988 -1.3210
 1302TIP3    H2 3913   4.522   4.786   2.936 -2.7841  0.5696 -0.2356
 1303TIP3   OH2 3914   5.494   0.752   4.939 -0.3351  0.3753  0.1283
 1303TIP3    H1 3915   5.414   0.799   4.962 -1.2503 -1.2965  0.5220
 1303TIP3    H2 3916   5.465   0.684   4.878  0.6687 -0.6122  0.6999
 1304TIP3   OH2 3917   1.049   4.719   3.188  0.4998 -0.5524 -0.1225
 1304TIP3    H1 3918   1.074   4.710   3.097 -0.1320 -0.0874 -0.3528
 1304TIP3    H2 3919   1.003   4.637   3.209  2.8856 -1.8023  0.5673
 1305TIP3   OH2 3920   4.242   5.149   4.905  0.0917  0.1816  0.3624
 1305TIP3    H1 3921   4.198   5.194   4.976 -1.7104 -1.0012  0.0623
 1305TIP3    H2 3922   4.322   5.114   4.944 -0.6133 -0.0019  1.6752
 1306TIP3   OH2 3923   6.262   0.818   1.211  0.3183  0.2206 -0.2766
 1306TIP3    H1 3924   6.180   0.773   1.233  0.9006 -0.5942  0.2977
 1306TIP3    H2 3925   6.236   0.909   1.195 -0.7969 -0.1741 -0.8341
 1307TIP3   OH2 3926   0.583   2.867   3.691 -0.5723 -0.1036  0.5768
 1307TIP3    H1 3927   0.586   2.772   3.682  2.0961 -0.1729  1.3518
 1307TIP3    H2 3928   0.534   2.882   3.772 -2.3788 -0.6848 -0.3551
 1308TIP3   OH2 3929   3.255   4.288   0.401  0.7638 -0.4095  0.0413
 1308TIP3    H1 3930   3.270   4.257   0.491 -1.6074 -1.3586  0.1737
 1308TIP3    H2 3931   3.299   4.373   0.398 -0.6138  0.5215  2.7245
 1309TIP3   OH2 3932   1.857   2.944   1.288 -0.5348 -0.4529  0.3784
 1309TIP3    H1 3933   1.799   3.018   1.308 -1.1326 -1.2238  1.5845
 1309TIP3    H2 3934   1.925   2.947   1.355 -0.4893 -0.9266  0.3562
 1310TIP3   OH2 3935   5.439   5.257   3.238  0.0650 -0.1137  0.0365
 1310TIP3    H1 3936   5.493   5.325   3.278 -1.9012 -0.1718  3.0815
 1310TIP3    H2 3937   5.489   5.176   3.253  0.8774  0.2296 -0.6830
 1311TIP3   OH2 3938   4.414   4.238   1.746 -0.2202 -0.3946  0.4638
 1311TIP3    H1 3939   4.384   4.322   1.781  0.1072 -0.4977  0.9926
 1311TIP3    H2 3940   4.486   4.212   1.803  0.9744 -0.0985 -0.8484
 1312TIP3   OH2 3941   1.295   2.018   1.072  0.2843  0.5373 -0.2741
 1312TIP3    H1 3942   1.235   2.088   1.048 -0.1413  0.4398  0.4880
 1312TIP3    H2 3943   1.265   1.942   1.021  0.2673  0.6960 -0.5042
 1313TIP3   OH2 3944   0.272   5.168   0.218 -0.3567 -0.3883 -0.4362
 1313TIP3    H1 3945   0.301   5.150   0.307 -1.4732 -1.3671 -0.2483
 1313TIP3    H2 3946   0.205   5.102   0.200 -0.8160  0.3647 -1.6656
 1314TIP3   OH2 3947   1.927   2.348   2.041 -0.0184 -0.1767  0.2239
 1314TIP3    H1 3948   1.916   2.257   2.015  0.0578 -0.0278 -0.3452
 1314TIP3    H2 3949   2.014   2.372   2.008  0.2331 -0.0817  0.9324
 1315TIP3   OH2 3950   5.305   4.314   3.904 -0.3272 -0.1771 -0.0222
 1315TIP3    H1 3951   5.250   4.349   3.973 -1.6906 -1.8401 -0.1947
 1315TIP3    H2 3952   5.369   4.258   3.949 -0.0571  0.1641  0.0215
 1316TIP3   OH2 3953   6.371   0.860   4.272  0.7582 -0.3709 -0.1607
 1316TIP3    H1 3954   6.279   0.880   4.293  1.3412 -0.0095  2.3701
 1316TIP3    H2 3955   6.382   0.769   4.300  1.5945  0.1520  1.3430
 1317TIP3   OH2 3956   2.313   5.013   3.640  0.0368 -0.3078 -0.2712
 1317TIP3    H1 3957   2.406   5.000   3.659 -0.2141  1.0054  2.2574
 1317TIP3    H2 3958   2.269   4.997   3.723 -2.0593 -1.0220 -1.4348
 1318TIP3   OH2 3959   3.850   5.010   5.082  0.5371 -0.5507  0.0667
 1318TIP3    H1 3960   3.867   5.042   4.994 -0.4400 -1.3260 -0.4348
 1318TIP3    H2 3961   3.755   5.010   5.089  0.5504 -1.9321  0.5491
 1319TIP3   OH2 3962   5.103   1.591   3.848 -0.3355 -0.1957  0.4761
 1319TIP3    H1 3963   5.154   1.520   3.888 -1.0949 -1.4760 -0.7364
 1319TIP3    H2 3964   5.169   1.653   3.817  0.4116 -0.8955  0.6169
 1320TIP3   OH2 3965   1.086   5.064   1.935  0.0180 -0.5518  0.4203
 1320TIP3    H1 3966   1.091   5.001   1.864  1.8381  1.2908 -1.2198
 1320TIP3    H2 3967   1.001   5.105   1.926  0.7052  0.5483 -1.5814
 1321TIP3   OH2 3968   1.002   3.354   3.147  0.0058  0.3247 -0.6342
 1321TIP3    H1 3969   0.958   3.438   3.160  0.7619  0.8433 -1.3040
 1321TIP3    H2 3970   0.984   3.305   3.227 -1.4010  0.6810 -0.7141
 1322TIP3   OH2 3971   6.190   0.390   1.183 -0.0098 -0.3313  0.5417
 1322TIP3    H1 3972   6.166   0.347   1.101  1.8906  1.2711 -0.9607
 1322TIP3    H2 3973   6.138   0.470   1.183  2.4242  1.3991 -0.9672
 1323TIP3   OH2 3974   1.186   4.276   2.658  0.3873 -0.2202 -0.5256
 1323TIP3    H1 3975   1.111   4.335   2.647  0.5131 -0.1310 -0.9050
 1323TIP3    H2 3976   1.151   4.189   2.637  0.6814 -0.0268 -1.9271
 1324TIP3   OH2 3977   3.435   2.742   2.090 -0.1549 -0.1965 -0.1616
 1324TIP3    H1 3978   3.361   2.713   2.145 -0.7174  1.2155 -0.1468
 1324TIP3    H2 3979   3.394   2.785   2.015  0.6396  1.3228  0.2435
 1325TIP3   OH2 3980   4.640   3.842   4.847 -0.3332  0.3014 -0.1336
 1325TIP3    H1 3981   4.641   3.890   4.765 -1.0465 -0.7274 -0.7634
 1325TIP3    H2 3982   4.709   3.777   4.839 -0.6179 -0.0127 -0.0468
 1326TIP3   OH2 3983   5.938   3.925   2.960  0.0989  0.5214  0.1538
 1326TIP3    H1 3984   5.856   3.965   2.986 -0.0173  0.1055  0.4348
 1326TIP3    H2 3985   5.931   3.914   2.865 -0.7327 -0.7410  0.3317
 1327TIP3   OH2 3986   5.392   0.779   4.253 -0.1783 -0.2277 -0.1480
 1327TIP3    H1 3987   5.302   0.795   4.283 -0.1221  1.4982 -0.7340
 1327TIP3    H2 3988   5.382   0.730   4.171 -0.8357  2.4302 -1.8021
 1328TIP3   OH2 3989   3.396   1.789   1.392 -0.5529  0.3478  0.1167
 1328TIP3    H1 3990   3.310   1.749   1.401 -0.7200  0.9426  1.4000
 1328TIP3    H2 3991   3.422   1.770   1.302 -1.0875 -1.6673  0.3401
 1329TIP3   OH2 3992   5.912   2.038   2.966  0.3707  0.4843  0.0068
 1329TIP3    H1 3993   5.963   1.962   2.994 -1.9853 -0.9282  0.7029
 1329TIP3    H2 3994   5.871   2.012   2.884 -0.1353  1.1540  0.0318
 1330TIP3   OH2 3995   0.106   0.890   3.519 -0.3233 -0.2502 -0.2774
 1330TIP3    H1 3996   0.082   0.862   3.607 -0.8903 -0.6664 -0.5572
 1330TIP3    H2 3997   0.063   0.827   3.461  1.2673 -0.9090 -0.8236
 1331TIP3   OH2 3998   4.366   4.485   3.974  0.1974  0.1005 -0.7385
 1331TIP3    H1 3999   4.427   4.416   3.947 -0.5319 -0.7506 -0.2615
 1331TIP3    H2 4000   4.310   4.499   3.898 -0.3746 -0.6556 -0.4729
 1332TIP3   OH2 4001   4.847   5.230   3.473 -0.7913  0.2938  0.6310
 1332TIP3    H1 4002   4.873   5.140   3.492 -0.2496  0.6237  1.5249
 1332TIP3    H2 4003   4.906   5.258   3.403 -0.0988  0.3528  1.2192
 1333TIP3   OH2 4004   4.787   0.543   5.086 -0.2497  0.0125  0.3245
 1333TIP3    H1 4005   4.730   0.472   5.117  1.3642 -2.0682 -1.1545
 1333TIP3    H2 4006   4.813   0.516   4.998  2.3983  1.2040  0.6419
 1334TIP3   OH2 4007   2.534   0.883   4.345  0.1889  0.1056 -0.0615
 1334TIP3    H1 4008   2.445   0.873   4.312 -0.8605  0.2517  2.4490
 1334TIP3    H2 4009   2.580   0.806   4.313 -0.9390 -0.1849 -1.0827
 1335TIP3   OH2 4010   5.224   5.777   5.104  0.7894  0.2720  0.3000
 1335TIP3    H1 4011   5.286   5.704   5.097  0.1904 -0.2340  0.2046
 1335TIP3    H2 4012   5.237   5.827   5.023 -0.7815 -1.3345 -1.0223
 1336TIP3   OH2 4013   0.060   1.141   1.697  0.0793  0.5234  0.3212
 1336TIP3    H1 4014   0.145   1.160   1.658 -0.3071 -0.3643 -1.0245
 1336TIP3    H2 4015   0.010   1.101   1.626 -0.8083 -0.7467  1.6102
 1337TIP3   OH2 4016   2.551   0.925   4.738  0.4748  0.0071  0.6177
 1337TIP3    H1 4017   2.511   0.842   4.712 -2.0647  1.1417  0.6080
 1337TIP3    H2 4018   2.562   0.917   4.833 -0.1699 -0.1994  0.6823
 1338TIP3   OH2 4019   1.603   4.795   3.831 -0.4169 -0.1478  0.0683
 1338TIP3    H1 4020   1.687   4.833   3.806 -0.4591  0.0162  0.1710
 1338TIP3    H2 4021   1.585   4.729   3.765  0.5805 -1.3255  0.9379
 1339TIP3   OH2 4022   4.345   1.579   0.604  0.1175  0.2905  0.1107
 1339TIP3    H1 4023   4.333   1.674   0.595 -1.1233 -0.0019 -1.8869
 1339TIP3    H2 4024   4.257   1.545   0.619  0.1706 -0.7241 -1.5945
 1340TIP3   OH2 4025   3.750   1.727   0.266 -0.0779  0.1013 -0.0284
 1340TIP3    H1 4026   3.690   1.704   0.195 -1.5218 -1.3406  1.5331
 1340TIP3    H2 4027   3.709   1.803   0.308 -0.9086 -0.8756  1.0295
 1341TIP3   OH2 4028   3.601   5.222   1.284  0.4867 -0.4749 -0.4207
 1341TIP3    H1 4029   3.591   5.303   1.234 -0.6250  0.1628  0.7684
 1341TIP3    H2 4030   3.567   5.243   1.370  3.0716 -1.3169  0.9014
 1342TIP3   OH2 4031   1.791   3.421   4.220  0.2012  0.0938  0.1680
 1342TIP3    H1 4032   1.800   3.489   4.153 -1.0940 -1.3851 -1.6045
 1342TIP3    H2 4033   1.814   3.340   4.175 -0.0648 -0.8732  1.7160
 1343TIP3   OH2 4034   1.880   1.305   0.919  0.2892  0.0072  0.6518
 1343TIP3    H1 4035   1.807   1.244   0.920 -0.4468  0.8178 -0.7371
 1343TIP3    H2 4036   1.917   1.299   0.831  0.1272  1.6074  0.4380
 1344TIP3   OH2 4037   2.060   3.729   1.780  0.5638 -0.4148  0.2342
 1344TIP3    H1 4038   2.025   3.642   1.762 -1.9162  0.8668 -1.6784
 1344TIP3    H2 4039   2.086   3.763   1.694  0.0843  1.2838  0.7177
 1345TIP3   OH2 4040   3.929   2.312   3.994 -0.2782  0.5123  0.3904
 1345TIP3    H1 4041   3.884   2.314   4.079  1.2390  1.0342  1.2256
 1345TIP3    H2 4042   3.860   2.294   3.931 -1.1037 -3.0610  2.0075
 1346TIP3   OH2 4043   2.456   3.167   2.061 -0.3245  0.8542 -0.7585
 1346TIP3    H1 4044   2.550   3.150   2.070 -0.3286  0.6224 -1.1454
 1346TIP3    H2 4045   2.449   3.262   2.059 -0.1647  0.8945 -0.0238
 1347TIP3   OH2 4046   4.488   5.842   2.543  0.1182  0.2752 -0.7105
 1347TIP3    H1 4047   4.557   5.782   2.516  1.3215  1.0744  0.4870
 1347TIP3    H2 4048   4.499   5.851   2.638 -0.8829  1.3453 -0.6634
 1348TIP3   OH2 4049   2.870   0.424   3.523 -0.4382 -0.4917 -0.8152
 1348TIP3    H1 4050   2.879   0.497   3.585  1.6306 -1.7839  0.5188
 1348TIP3    H2 4051   2.776   0.403   3.523 -0.7868  0.9548  0.1710
 1349TIP3   OH2 4052   2.375   0.458   2.461 -0.3588  0.4967  0.2200
 1349TIP3    H1 4053   2.433   0.521   2.504 -0.6472  2.2099 -1.7684
 1349TIP3    H2 4054   2.287   0.495   2.471 -0.5967  0.1486 -0.5077
 1350TIP3   OH2 4055   2.426   1.217   3.745 -0.1301 -0.5598 -0.2599
 1350TIP3    H1 4056   2.515   1.239   3.718  0.3350 -1.9515  0.0533
 1350TIP3    H2 4057   2.409   1.273   3.820 -0.0803  0.7544 -1.1967
 1351TIP3   OH2 4058   2.044   2.263   3.280  0.1885  0.6370 -0.0153
 1351TIP3    H1 4059   1.987   2.314   3.336 -0.2828 -1.1436  1.1948
 1351TIP3    H2 4060   1.989   2.191   3.247  1.2287 -0.0486 -0.3297
 1352TIP3   OH2 4061   2.531   1.509   1.302 -0.0770  0.1470  0.2338
 1352TIP3    H1 4062   2.459   1.569   1.280  0.1315 -0.2379 -1.7246
 1352TIP3    H2 4063   2.487   1.428   1.326 -0.3359  0.0016 -0.6759
 1353TIP3   OH2 4064   0.619   5.089   4.824 -0.2760  0.4007 -0.6589
 1353TIP3    H1 4065   0.567   5.061   4.900 -1.1952 -1.0738 -1.7825
 1353TIP3    H2 4066   0.649   5.007   4.784  2.9592  1.1794 -0.1037
 1354TIP3   OH2 4067   4.968   1.026   1.032  0.1793  0.6981 -0.0772
 1354TIP3    H1 4068   5.005   1.013   1.119 -1.0734 -0.4985  0.3062
 1354TIP3    H2 4069   4.894   1.085   1.046 -0.7368 -0.4219 -0.1320
 1355TIP3   OH2 4070   0.449   4.280   3.055 -0.6540 -0.5013 -0.0477
 1355TIP3    H1 4071   0.381   4.278   2.988 -0.3977 -0.8372 -0.2983
 1355TIP3    H2 4072   0.449   4.371   3.086 -1.9095 -0.7079  0.6789
 1356TIP3   OH2 4073   0.709   2.624   4.016  0.1932  0.1002  0.5741
 1356TIP3    H1 4074   0.793   2.600   4.055 -0.2829 -1.4579  0.7116
 1356TIP3    H2 4075   0.696   2.716   4.041  0.3088 -0.5802  3.3847
 1357TIP3   OH2 4076   3.431   1.894   0.712  0.0428  0.0232  0.1590
 1357TIP3    H1 4077   3.394   1.846   0.638 -0.0088 -0.1555  0.3023
 1357TIP3    H2 4078   3.516   1.924   0.680  0.0227 -0.0566  0.0278
 1358TIP3   OH2 4079   1.073   3.823   3.216 -0.4703  0.1298 -0.0334
 1358TIP3    H1 4080   0.997   3.877   3.194 -1.1582 -0.9134 -0.3046
 1358TIP3    H2 4081   1.038   3.735   3.225  0.9159 -0.6560 -1.6336
 1359TIP3   OH2 4082   3.253   2.059   2.042  0.0289  0.3561  0.1487
 1359TIP3    H1 4083   3.206   2.001   2.102  0.5475 -0.1966  0.0373
 1359TIP3    H2 4084   3.317   2.104   2.097 -0.1521  0.5733  0.1796
 1360TIP3   OH2 4085   2.815   5.844   4.948 -0.2414 -0.2029  0.5039
 1360TIP3    H1 4086   2.739   5.795   4.915 -0.0094  0.3776 -0.9745
 1360TIP3    H2 4087   2.777   5.922   4.989 -0.4631 -0.0130 -0.0538
 1361TIP3   OH2 4088   0.048   1.955   5.084 -0.0545 -0.2064  0.0889
 1361TIP3    H1 4089   0.044   1.970   5.179 -0.5889  1.6272 -0.1886
 1361TIP3    H2 4090  -0.043   1.943   5.058 -0.1463  1.5351 -0.4895
 1362TIP3   OH2 4091   6.262   3.835   4.574 -0.2026 -0.0080 -0.6889
 1362TIP3    H1 4092   6.199   3.799   4.512 -0.2323 -1.2651  0.0463
 1362TIP3    H2 4093   6.279   3.764   4.636 -1.6607  1.7963  1.9681
 1363TIP3   OH2 4094   5.841   4.291   3.620  0.2937  0.0806  0.0467
 1363TIP3    H1 4095   5.879   4.334   3.543  0.3382  1.6562  0.9079
 1363TIP3    H2 4096   5.905   4.308   3.690 -0.2540 -0.4167  0.6744
 1364TIP3   OH2 4097   5.015   2.392   0.680  0.3990  0.7489  0.4753
 1364TIP3    H1 4098   5.035   2.305   0.646 -2.2998 -0.0761  0.7942
 1364TIP3    H2 4099   5.079   2.450   0.638  1.2192 -1.1322 -0.9937
 1365TIP3   OH2 4100   2.730   3.946   2.744 -0.2716  0.6321 -0.4566
 1365TIP3    H1 4101   2.808   3.993   2.775  1.3161 -0.9968 -1.7230
 1365TIP3    H2 4102   2.736   3.860   2.785  0.9899 -0.9948 -3.6727
 1366TIP3   OH2 4103   6.306   2.351   2.392  0.0290 -0.0827 -0.1209
 1366TIP3    H1 4104   6.376   2.409   2.421 -1.8628  1.9467  0.7150
 1366TIP3    H2 4105   6.294   2.289   2.464 -0.2348  0.7424  0.5623
 1367TIP3   OH2 4106   3.026   3.597   2.612  0.1864 -0.4000  0.2888
 1367TIP3    H1 4107   3.091   3.601   2.681  0.5582  0.2426 -0.0840
 1367TIP3    H2 4108   3.029   3.507   2.581  0.7394 -0.4369  0.4366
 1368TIP3   OH2 4109   2.949   1.870   1.243  0.3886  0.1427  0.4629
 1368TIP3    H1 4110   2.877   1.835   1.294  0.3180 -1.5023 -0.6891
 1368TIP3    H2 4111   2.911   1.946   1.198  0.0687  0.7342  1.6899
 1369TIP3   OH2 4112   0.783   0.350   2.744  0.0733  0.4859  0.2715
 1369TIP3    H1 4113   0.750   0.294   2.814 -0.3956  1.6080  0.9804
 1369TIP3    H2 4114   0.879   0.343   2.751  0.0221  0.0895  0.6149
 1370TIP3   OH2 4115   0.523   4.994   1.512  0.2428 -0.7037 -0.5143
 1370TIP3    H1 4116   0.486   4.923   1.461 -0.9124 -0.4031 -0.1187
 1370TIP3    H2 4117   0.448   5.045   1.542  1.0312  0.7225 -0.8312
 1371TIP3   OH2 4118   2.264   3.244   2.462 -0.1748  0.4442 -1.1110
 1371TIP3    H1 4119   2.332   3.293   2.508 -0.3933 -1.8087  1.9479
 1371TIP3    H2 4120   2.189   3.303   2.460  0.4230  1.2681 -0.1858
 1372TIP3   OH2 4121   3.707   0.350   0.318 -0.4357  1.2063  0.1707
 1372TIP3    H1 4122   3.771   0.357   0.247  0.8022  0.7112  1.1922
 1372TIP3    H2 4123   3.703   0.438   0.355  0.4970  0.9925  0.7967
 1373TIP3   OH2 4124   4.669   5.407   1.909 -0.1891  0.1276  0.3819
 1373TIP3    H1 4125   4.701   5.497   1.919  0.4112 -0.1442  1.0649
 1373TIP3    H2 4126   4.710   5.360   1.982 -1.6632 -0.3853  0.9060
 1374TIP3   OH2 4127   5.064   5.188   0.503 -0.5537 -0.1517 -0.6060
 1374TIP3    H1 4128   5.055   5.117   0.440 -0.6112 -0.2146 -0.5281
 1374TIP3    H2 4129   5.087   5.265   0.451 -0.6863 -0.1841 -0.7123
 1375TIP3   OH2 4130   4.080   5.692   2.173  0.4308  0.1502  0.0535
 1375TIP3    H1 4131   4.063   5.785   2.183 -1.2973 -0.2288  1.0146
 1375TIP3    H2 4132   4.043   5.651   2.251 -1.7832 -1.6269 -1.7479
 1376TIP3   OH2 4133   0.468   2.979   3.451 -0.1513  0.4097 -0.5988
 1376TIP3    H1 4134   0.548   2.971   3.399 -0.1615  0.2698 -0.5944
 1376TIP3    H2 4135   0.494   2.953   3.539  0.0275  1.3129 -0.3809
 1377TIP3   OH2 4136   2.976   0.325   5.125  0.1999 -0.3200  0.7698
 1377TIP3    H1 4137   2.985   0.417   5.099  0.4899 -0.5610 -0.0085
 1377TIP3    H2 4138   3.041   0.313   5.195 -0.2376  0.2081  1.2801
 1378TIP3   OH2 4139   3.505   5.631   2.344  0.1008 -0.5738  0.0272
 1378TIP3    H1 4140   3.477   5.704   2.289 -1.2373  1.0996  2.7260
 1378TIP3    H2 4141   3.474   5.553   2.297 -3.0536  0.8658 -0.5838
 1379TIP3   OH2 4142   1.995   3.331   0.379  0.0955  0.7409 -0.0117
 1379TIP3    H1 4143   2.047   3.406   0.410 -0.2458  1.1889 -0.5123
 1379TIP3    H2 4144   2.037   3.305   0.297 -0.5100  1.1626 -0.4657
 1380TIP3   OH2 4145   2.540   2.512   2.474 -0.1158 -0.5176 -0.1123
 1380TIP3    H1 4146   2.495   2.586   2.433 -0.9266 -0.9739 -0.0734
 1380TIP3    H2 4147   2.528   2.440   2.413  0.5456 -0.6557 -0.0807
 1381TIP3   OH2 4148   5.254   1.111   3.884  0.3721 -0.3624  0.3756
 1381TIP3    H1 4149   5.285   1.023   3.906  0.5179 -0.0650  1.4481
 1381TIP3    H2 4150   5.324   1.149   3.831  1.6815  0.1010  2.3018
 1382TIP3   OH2 4151   3.860   1.093   1.568  0.4745  0.4570  0.2447
 1382TIP3    H1 4152   3.914   1.157   1.522  1.3722 -0.8556 -0.5947
 1382TIP3    H2 4153   3.784   1.079   1.511  0.5470  0.3583  0.1744
 1383TIP3   OH2 4154   2.970   4.588   3.179 -0.8410 -0.0495 -0.0292
 1383TIP3    H1 4155   2.955   4.653   3.248 -1.1995  0.7211 -0.8127
 1383TIP3    H2 4156   2.999   4.510   3.226 -0.0936  0.7627  0.9107
 1384TIP3   OH2 4157   1.871   4.848   3.770 -1.0375  0.2429  0.1373
 1384TIP3    H1 4158   1.945   4.800   3.809  1.1478  3.2797  0.1104
 1384TIP3    H2 4159   1.884   4.840   3.676 -0.9537  0.4695  0.1290
 1385TIP3   OH2 4160   4.392   4.332   1.457  0.0787 -1.2079 -0.1704
 1385TIP3    H1 4161   4.298   4.349   1.457  0.4532  1.2648 -0.2246
 1385TIP3    H2 4162   4.420   4.356   1.546  1.1430  1.7227 -1.1954
 1386TIP3   OH2 4163   4.728   5.849   2.682  0.4076 -0.1495 -0.2836
 1386TIP3    H1 4164   4.726   5.905   2.604  2.4655 -1.2203 -1.1831
 1386TIP3    H2 4165   4.801   5.789   2.666 -0.4916 -1.8175  1.5185
 1387TIP3   OH2 4166   5.499   0.043   2.366 -0.2259  0.2758 -0.0621
 1387TIP3    H1 4167   5.489   0.068   2.458 -0.8632 -1.7401  0.4618
 1387TIP3    H2 4168   5.594   0.035   2.353 -0.0888  1.3520  0.1639
 1388TIP3   OH2 4169   1.472   1.241   3.397  0.2632  0.1650  0.4992
 1388TIP3    H1 4170   1.390   1.193   3.398  0.4706 -0.2024  0.1037
 1388TIP3    H2 4171   1.462   1.308   3.464 -0.8272  0.8936 -0.3524
 1389TIP3   OH2 4172   1.099   3.846   1.175  0.3137 -0.4275 -0.4472
 1389TIP3    H1 4173   1.156   3.916   1.144  2.0113 -0.7775  1.6286
 1389TIP3    H2 4174   1.027   3.891   1.219  1.3508  0.0722  0.8053
 1390TIP3   OH2 4175   5.474   1.161   4.066  0.5570  0.5435  0.1914
 1390TIP3    H1 4176   5.539   1.208   4.014  0.2394 -0.2225 -0.9347
 1390TIP3    H2 4177   5.393   1.169   4.016  0.8734 -2.8064 -1.1395
 1391TIP3   OH2 4178   1.450   2.151   0.291  0.1566  0.1414 -0.2411
 1391TIP3    H1 4179   1.355   2.157   0.304  0.1769  0.7257 -0.3400
 1391TIP3    H2 4180   1.477   2.078   0.347 -0.2334  0.5019  0.4241
 1392TIP3   OH2 4181   0.073   5.884   2.238  0.0505 -0.0669 -0.5193
 1392TIP3    H1 4182   0.115   5.813   2.188  0.6652 -0.6959  0.8259
 1392TIP3    H2 4183   0.144   5.945   2.256 -0.0096 -0.2081  0.1942
 1393TIP3   OH2 4184   4.477   4.309   3.098 -0.4237 -0.3227 -0.5426
 1393TIP3    H1 4185   4.441   4.308   3.010  0.5646  0.4099 -0.9675
 1393TIP3    H2 4186   4.513   4.397   3.109 -2.5310  0.4165  1.4423
 1394TIP3   OH2 4187   2.838   5.309   0.352  0.0131  0.2410 -0.2505
 1394TIP3    H1 4188   2.768   5.268   0.404  1.7316 -1.1804  1.0350
 1394TIP3    H2 4189   2.816   5.402   0.353 -1.1777 -0.0108  1.2269
 1395TIP3   OH2 4190   0.997   0.154   0.035 -0.1254  0.4655 -0.2370
 1395TIP3    H1 4191   1.022   0.066   0.008  0.4131  0.5130  0.0863
 1395TIP3    H2 4192   1.026   0.210  -0.038 -0.9060  0.3346 -0.6646
 1396TIP3   OH2 4193   1.562   2.133   3.124 -0.0442  0.2530 -0.2474
 1396TIP3    H1 4194   1.561   2.192   3.200 -0.9023 -0.2594  0.1566
 1396TIP3    H2 4195   1.540   2.190   3.050  2.8008  1.1862 -0.4923
 1397TIP3   OH2 4196   3.447   0.574   0.755 -0.2002  0.1686 -0.4874
 1397TIP3    H1 4197   3.507   0.527   0.698 -0.8273 -0.2643 -0.8072
 1397TIP3    H2 4198   3.360   0.559   0.716 -0.5459  0.5387  0.1235
 1398TIP3   OH2 4199   5.293   1.576   2.183 -0.1791 -0.0993  0.3982
 1398TIP3    H1 4200   5.270   1.651   2.238 -1.5484  0.5658 -0.9969
 1398TIP3    H2 4201   5.237   1.585   2.106  1.1076 -1.4237 -0.7528
 1399TIP3   OH2 4202   2.634   5.361   3.262 -0.3827 -0.5184 -0.4707
 1399TIP3    H1 4203   2.715   5.386   3.307 -0.1920  0.9138 -1.5468
 1399TIP3    H2 4204   2.657   5.282   3.214  0.4577  0.0021 -0.9509
 1400TIP3   OH2 4205   0.721   0.319   4.695 -0.1356  0.0826 -0.0866
 1400TIP3    H1 4206   0.765   0.261   4.633 -2.3150 -0.9057 -0.8337
 1400TIP3    H2 4207   0.672   0.261   4.752  0.9438  1.0463  1.9054
 1401TIP3   OH2 4208   2.816   3.070   3.778 -0.3593 -0.1526  0.5531
 1401TIP3    H1 4209   2.900   3.025   3.768 -0.8193 -1.2929  1.5696
 1401TIP3    H2 4210   2.813   3.097   3.869  0.4698  3.2573 -0.2874
 1402TIP3   OH2 4211   2.717   1.840   0.679  0.0403 -0.0726 -0.4549
 1402TIP3    H1 4212   2.700   1.922   0.726  1.7401  0.1636 -0.2112
 1402TIP3    H2 4213   2.811   1.840   0.662 -0.2258 -1.0830 -2.1640
 1403TIP3   OH2 4214   0.621   3.148   2.910  0.5766  0.0725  0.0099
 1403TIP3    H1 4215   0.578   3.064   2.931 -0.2075  0.1812 -1.0619
 1403TIP3    H2 4216   0.581   3.174   2.827 -0.7926  2.5752  1.3421
 1404TIP3   OH2 4217   5.553   1.483   3.936  0.4183  0.3103 -0.3522
 1404TIP3    H1 4218   5.571   1.500   4.029  0.2217  1.5094 -0.5175
 1404TIP3    H2 4219   5.634   1.444   3.903 -0.3293 -2.4902  0.8544
 1405TIP3   OH2 4220   5.625   1.258   1.573  0.3506  0.2947  0.1272
 1405TIP3    H1 4221   5.562   1.295   1.635  0.2902  1.0106 -0.3540
 1405TIP3    H2 4222   5.626   1.319   1.500  1.5987  0.3018  0.1248
 1406TIP3   OH2 4223   5.901   3.118   0.674 -0.0511  0.3930  0.5240
 1406TIP3    H1 4224   5.913   3.193   0.733 -1.9605  2.0914 -1.0794
 1406TIP3    H2 4225   5.970   3.128   0.609  1.6952 -1.1536  2.0344
 1407TIP3   OH2 4226   2.026   5.383   0.105 -0.2151  0.0436 -0.2812
 1407TIP3    H1 4227   1.989   5.439   0.173  1.9766  0.2392  0.8584
 1407TIP3    H2 4228   2.054   5.304   0.151  1.5587  0.2935 -0.8326
 1408TIP3   OH2 4229   1.742   5.311   2.853 -0.5985 -0.1277 -0.1443
 1408TIP3    H1 4230   1.659   5.292   2.897  0.2193 -0.4435  1.3347
 1408TIP3    H2 4231   1.787   5.226   2.849 -1.1823 -0.3832 -2.8437
 1409TIP3   OH2 4232   5.980   0.316   2.147  0.3918 -0.6475  0.2232
 1409TIP3    H1 4233   5.950   0.228   2.123 -1.6741 -0.3148  1.3727
 1409TIP3    H2 4234   6.069   0.302   2.179  0.6516 -2.0856 -0.9686
 1410TIP3   OH2 4235   1.535   0.125   5.187  0.1115  0.2896  0.2237
 1410TIP3    H1 4236   1.543   0.130   5.092  0.0799 -0.3777  0.1845
 1410TIP3    H2 4237   1.444   0.151   5.205 -0.1190 -0.3555  0.0082
 1411TIP3   OH2 4238   4.068   0.053   0.657  0.2191 -0.1669 -0.1444
 1411TIP3    H1 4239   4.111  -0.032   0.653 -3.0126 -2.1512  2.1716
 1411TIP3    H2 4240   4.106   0.096   0.734  2.2959  0.9036 -1.6655
 1412TIP3   OH2 4241   4.349   0.356   1.561  0.1420  0.3417 -0.1165
 1412TIP3    H1 4242   4.314   0.430   1.512  0.3739 -0.3013 -1.2784
 1412TIP3    H2 4243   4.433   0.337   1.520  0.9758  0.6044  1.3704
 1413TIP3   OH2 4244   4.314   4.358   3.526 -0.0808 -0.3268 -0.3385
 1413TIP3    H1 4245   4.270   4.442   3.512  0.2523 -0.0197  0.4340
 1413TIP3    H2 4246   4.275   4.323   3.606  0.6015 -0.3654 -0.0168
 1414TIP3   OH2 4247   4.549   1.057   3.252 -0.3740 -0.2378  0.1357
 1414TIP3    H1 4248   4.525   1.008   3.173 -0.2623  0.0964 -0.1063
 1414TIP3    H2 4249   4.502   1.140   3.245  1.5599  0.8516 -0.8471
 1415TIP3   OH2 4250   2.895   5.037   1.992  0.0124 -0.0401  0.2568
 1415TIP3    H1 4251   2.817   5.082   1.960 -0.0399  0.7512  1.4485
 1415TIP3    H2 4252   2.865   4.948   2.011 -0.4591  0.0891  0.1250
 1416TIP3   OH2 4253   5.266   0.926   1.892 -0.6627  0.3710 -0.3241
 1416TIP3    H1 4254   5.337   0.968   1.844 -1.0951  1.0227 -0.3977
 1416TIP3    H2 4255   5.261   0.973   1.975 -2.1019  1.4586 -0.9865
 1417TIP3   OH2 4256   1.551   2.489   1.630 -0.2483  0.3919  0.0329
 1417TIP3    H1 4257   1.562   2.409   1.683  1.0423  1.0944  0.8893
 1417TIP3    H2 4258   1.463   2.519   1.651 -0.5674 -0.5263  0.0843
 1418TIP3   OH2 4259   3.279   3.364   4.135 -0.4388  0.0430  0.0645
 1418TIP3    H1 4260   3.360   3.411   4.156  0.4608 -1.0724 -0.7083
 1418TIP3    H2 4261   3.306   3.272   4.131 -2.4158 -0.7843  2.9406
 1419TIP3   OH2 4262   3.823   1.526   1.692 -0.2720  0.1728  0.0020
 1419TIP3    H1 4263   3.787   1.550   1.777  0.8724  1.4724  0.1619
 1419TIP3    H2 4264   3.771   1.452   1.663 -1.1781  0.2040  1.4875
 1420TIP3   OH2 4265   3.503   1.907   4.382 -0.0035 -0.0176  0.2021
 1420TIP3    H1 4266   3.577   1.903   4.443  0.2312 -0.1774 -0.0886
 1420TIP3    H2 4267   3.520   1.836   4.320 -0.1524  0.2538 -0.1489
 1421TIP3   OH2 4268   0.392   4.604   0.826  0.1592 -0.3664  0.2426
 1421TIP3    H1 4269   0.341   4.644   0.896 -0.2841  0.2267 -0.4105
 1421TIP3    H2 4270   0.365   4.650   0.747  0.6358 -1.0416 -0.3274
 1422TIP3   OH2 4271   5.899   1.980   4.889 -0.0869  0.3446  0.3407
 1422TIP3    H1 4272   5.940   1.983   4.803 -1.0257 -1.1006 -0.1938
 1422TIP3    H2 4273   5.805   1.981   4.871 -0.3448 -2.1971  1.1729
 1423TIP3   OH2 4274   3.362   4.371   3.049 -0.6700 -0.1842  0.2137
 1423TIP3    H1 4275   3.376   4.367   3.143 -0.9596  0.4781  0.2898
 1423TIP3    H2 4276   3.323   4.286   3.027  0.9114 -0.9951  0.4089
 1424TIP3   OH2 4277   5.119   5.392   4.839 -0.0443  0.1543 -0.3683
 1424TIP3    H1 4278   5.079   5.313   4.802 -0.8136 -0.7680  2.2159
 1424TIP3    H2 4279   5.047   5.437   4.882  0.5753  1.8300 -1.0185
 1425TIP3   OH2 4280   0.232   4.384   0.435  0.3565 -0.1917  0.5020
 1425TIP3    H1 4281   0.159   4.353   0.488 -0.7231 -0.3002 -0.9946
 1425TIP3    H2 4282   0.258   4.308   0.382 -0.7753  0.7116 -1.4855
 1426TIP3   OH2 4283   5.950   3.102   3.181  0.0296 -0.0325 -0.2394
 1426TIP3    H1 4284   5.985   3.109   3.092 -0.3951  1.3165 -0.3210
 1426TIP3    H2 4285   5.994   3.172   3.230 -0.3448 -0.2402  0.4036
 1427TIP3   OH2 4286   4.150   5.700   3.447 -0.0570  0.3210  0.2050
 1427TIP3    H1 4287   4.075   5.748   3.411  0.3211  0.1808 -0.7929
 1427TIP3    H2 4288   4.115   5.657   3.525 -1.5693 -1.3501 -1.3154
 1428TIP3   OH2 4289   5.021   1.380   2.559 -0.7375  0.1616  0.0115
 1428TIP3    H1 4290   4.994   1.290   2.539 -1.9112  0.5021 -0.0088
 1428TIP3    H2 4291   4.940   1.430   2.557 -0.5711  0.7225  2.9635
 1429TIP3   OH2 4292   5.341   3.291   0.114 -0.2445  0.6600  0.3311
 1429TIP3    H1 4293   5.401   3.226   0.078 -0.8926 -0.0591  0.5050
 1429TIP3    H2 4294   5.390   3.373   0.115  0.2105  0.4142 -0.9648
 1430TIP3   OH2 4295   4.182   4.150   2.882  0.5998  0.5620  0.0758
 1430TIP3    H1 4296   4.221   4.082   2.937 -2.2154 -0.6596  0.7920
 1430TIP3    H2 4297   4.094   4.117   2.862 -0.2229  3.1735 -1.1307
 1431TIP3   OH2 4298   4.886   0.158   5.085 -0.5011 -0.1616 -0.1135
 1431TIP3    H1 4299   4.975   0.140   5.115 -1.2780 -1.1103  1.8251
 1431TIP3    H2 4300   4.893   0.238   5.033  1.7976 -1.4033 -1.8843
 1432TIP3   OH2 4301   3.039   0.633   0.293  0.3057 -0.3546  0.4871
 1432TIP3    H1 4302   2.992   0.679   0.223 -0.8203  0.9483  2.0296
 1432TIP3    H2 4303   3.107   0.694   0.320  0.4651 -0.6720  0.8070
 1433TIP3   OH2 4304   5.041   4.006   1.671 -0.4380 -0.0157  0.0890
 1433TIP3    H1 4305   5.082   4.023   1.755 -0.6222 -1.6653  0.5439
 1433TIP3    H2 4306   5.075   3.921   1.644  1.2542  1.3459 -2.5545
 1434TIP3   OH2 4307   6.082   2.767   1.637 -0.4249  0.2303 -0.0083
 1434TIP3    H1 4308   6.122   2.851   1.661 -0.4610  0.3741 -0.4413
 1434TIP3    H2 4309   6.155   2.706   1.634 -0.6817 -0.3372  2.7295
 1435TIP3   OH2 4310   4.452   0.830   2.190  0.2393 -0.1845 -0.3486
 1435TIP3    H1 4311   4.371   0.843   2.240  0.9772 -0.2185  0.8999
 1435TIP3    H2 4312   4.440   0.881   2.110 -0.3159  1.2477  0.6104
 1436TIP3   OH2 4313   0.838   1.067   2.589 -0.1608  0.1444 -0.2751
 1436TIP3    H1 4314   0.775   1.096   2.522  0.9134  0.5490 -1.1408
 1436TIP3    H2 4315   0.921   1.059   2.542  0.3992 -0.6100  0.7954
 1437TIP3   OH2 4316   2.834   3.175   4.241  0.3616 -0.4203  0.0071
 1437TIP3    H1 4317   2.784   3.157   4.321  1.3225  0.1357  0.7558
 1437TIP3    H2 4318   2.771   3.214   4.181 -0.4221 -1.0322  0.4152
 1438TIP3   OH2 4319   3.821   0.384   2.540  0.2303  0.2729  0.4519
 1438TIP3    H1 4320   3.880   0.373   2.615  0.4757  0.0982  0.2345
 1438TIP3    H2 4321   3.875   0.363   2.464  0.1609  1.0687  0.1750
 1439TIP3   OH2 4322   0.881   4.060   2.912 -0.3349 -0.2873 -0.3780
 1439TIP3    H1 4323   0.861   3.984   2.857 -0.1170 -0.0094 -0.8546
 1439TIP3    H2 4324   0.827   4.130   2.875  0.7006  0.2103 -1.0203
 1440TIP3   OH2 4325   2.741   5.518   0.709 -0.4721 -0.2480  0.4155
 1440TIP3    H1 4326   2.659   5.520   0.660  0.2694  0.0110 -0.8551
 1440TIP3    H2 4327   2.755   5.425   0.729 -0.6258 -0.3972 -0.1570
 1441TIP3   OH2 4328   3.950   3.805   5.051  0.3370  0.2011  0.2539
 1441TIP3    H1 4329   3.860   3.824   5.075 -0.4131 -0.2402 -2.0091
 1441TIP3    H2 4330   3.989   3.891   5.033 -0.5209  0.2685 -1.5298
 1442TIP3   OH2 4331   5.065   3.126   1.229  0.3535 -0.4559 -0.6127
 1442TIP3    H1 4332   5.140   3.123   1.289 -0.0928  0.1582 -0.0026
 1442TIP3    H2 4333   5.068   3.214   1.192  0.0744 -0.5160 -0.7806
 1443TIP3   OH2 4334   2.671   2.923   4.173  0.2978 -0.0914  0.1700
 1443TIP3    H1 4335   2.684   3.013   4.142  0.6967  0.3873  1.6515
 1443TIP3    H2 4336   2.616   2.933   4.251  1.1070 -1.0399  0.8788
 1444TIP3   OH2 4337   4.953   5.912   1.820 -0.1676  0.4154 -0.1734
 1444TIP3    H1 4338   4.987   5.989   1.864 -0.6635 -0.0130  0.9999
 1444TIP3    H2 4339   4.997   5.911   1.735  0.1465  1.7502 -0.0431
 1445TIP3   OH2 4340   1.927   2.970   1.747  1.1113 -0.6109  0.4535
 1445TIP3    H1 4341   1.930   3.000   1.838  0.4573  0.8020  0.0314
 1445TIP3    H2 4342   1.903   2.878   1.753 -0.8290 -0.0733  1.6459
 1446TIP3   OH2 4343   0.814   0.481   0.735  0.1565  0.5124 -0.2237
 1446TIP3    H1 4344   0.726   0.444   0.733  0.6569 -0.7196  0.0781
 1446TIP3    H2 4345   0.817   0.533   0.815 -0.6076  1.3792 -0.7409
 1447TIP3   OH2 4346   1.807   0.172   0.185 -0.4351 -0.1292 -0.1191
 1447TIP3    H1 4347   1.805   0.119   0.265 -0.9615 -0.8617 -0.5968
 1447TIP3    H2 4348   1.895   0.209   0.182 -0.7908  0.9274  1.4381
 1448TIP3   OH2 4349   4.276   2.697   0.711 -0.7748 -0.5516 -0.0189
 1448TIP3    H1 4350   4.241   2.698   0.622 -2.8743  0.6692  0.7730
 1448TIP3    H2 4351   4.366   2.667   0.700 -0.8893 -0.1916 -2.5764
 1449TIP3   OH2 4352   1.047   3.355   2.140 -0.4803  0.1830  0.2213
 1449TIP3    H1 4353   0.979   3.352   2.207 -1.9680  0.3812 -1.1953
 1449TIP3    H2 4354   1.004   3.320   2.061  1.2039 -0.0954 -0.6245
 1450TIP3   OH2 4355   6.307   4.378   2.861 -0.1585 -0.3393  0.1643
 1450TIP3    H1 4356   6.239   4.313   2.878 -0.6666 -0.4697 -2.0996
 1450TIP3    H2 4357   6.314   4.382   2.765  1.6135  1.1367  0.2915
 1451TIP3   OH2 4358   5.277   2.126   0.132  0.0535  0.3279  0.3615
 1451TIP3    H1 4359   5.312   2.081   0.209 -0.9297  0.3494  0.8483
 1451TIP3    H2 4360   5.200   2.075   0.107 -0.8160  1.4456  0.6392
 1452TIP3   OH2 4361   1.261   1.647   2.393 -0.5108 -0.4548 -0.4827
 1452TIP3    H1 4362   1.264   1.601   2.310 -1.0413 -0.5947 -0.4290
 1452TIP3    H2 4363   1.334   1.612   2.444 -0.6701 -0.9422 -0.5932
 1453TIP3   OH2 4364   4.153   1.263   2.995  0.1423 -0.1483  0.3473
 1453TIP3    H1 4365   4.136   1.171   2.972 -1.6673 -0.2798  1.9564
 1453TIP3    H2 4366   4.190   1.259   3.084  2.1678  0.6083 -0.3985
 1454TIP3   OH2 4367   0.449   5.351   4.032 -0.3685 -0.6434  0.0543
 1454TIP3    H1 4368   0.402   5.283   4.080  0.4834 -2.3538 -1.4033
 1454TIP3    H2 4369   0.491   5.304   3.959  0.9473  1.3205 -0.5313
 1455TIP3   OH2 4370   4.284   1.613   2.725  0.0048  0.4514 -0.4293
 1455TIP3    H1 4371   4.222   1.541   2.736 -1.0786  1.3014 -0.8500
 1455TIP3    H2 4372   4.330   1.592   2.644  0.3137 -0.2028 -0.0958
 1456TIP3   OH2 4373   1.811   3.234   0.777  0.2409  0.0292  0.5215
 1456TIP3    H1 4374   1.804   3.309   0.718 -1.1280 -0.4422  0.0355
 1456TIP3    H2 4375   1.873   3.175   0.734  0.0578  0.1587  0.0725
 1457TIP3   OH2 4376   5.083   2.739   2.210  0.6901  0.0407  0.4166
 1457TIP3    H1 4377   5.163   2.711   2.254  0.4489  0.6166  1.2593
 1457TIP3    H2 4378   5.017   2.740   2.279 -0.2250 -1.0912 -0.4081
 1458TIP3   OH2 4379   1.914   3.249   1.567  0.3573 -0.1728  0.0299
 1458TIP3    H1 4380   1.950   3.161   1.583 -1.2119 -0.9469 -0.5193
 1458TIP3    H2 4381   1.872   3.273   1.650 -2.5742 -1.6470 -0.8964
 1459TIP3   OH2 4382   1.862   1.817   1.462  0.0152  0.0314  0.1739
 1459TIP3    H1 4383   1.891   1.790   1.549  2.6292 -0.3267 -0.7404
 1459TIP3    H2 4384   1.782   1.867   1.478 -1.1197 -2.3319  2.5118
 1460TIP3   OH2 4385   0.063   3.672   0.270  0.0514  0.1067  0.2636
 1460TIP3    H1 4386   0.053   3.766   0.255 -2.2109 -0.0297  0.6668
 1460TIP3    H2 4387   0.032   3.658   0.360 -0.0095 -1.0781  0.0758
 1461TIP3   OH2 4388   0.807   5.713   2.942 -0.6334  0.5845 -0.1715
 1461TIP3    H1 4389   0.857   5.672   3.012 -0.6149  0.6674 -0.1367
 1461TIP3    H2 4390   0.859   5.789   2.915 -0.4406  0.3231 -0.5516
 1462TIP3   OH2 4391   5.235   0.342   4.688 -0.1112  0.0331 -0.2578
 1462TIP3    H1 4392   5.277   0.310   4.768 -0.2246  0.2244 -0.1213
 1462TIP3    H2 4393   5.295   0.316   4.618  1.1820  1.9311  0.0770
 1463TIP3   OH2 4394   4.133   0.888   1.352 -0.5466 -0.1196  0.2342
 1463TIP3    H1 4395   4.222   0.871   1.384 -0.3258 -0.2355 -0.4400
 1463TIP3    H2 4396   4.122   0.983   1.362 -0.6624 -0.2092  1.1026
 1464TIP3   OH2 4397   5.280   1.787   3.772 -0.4746  0.1219 -0.4294
 1464TIP3    H1 4398   5.319   1.856   3.826 -0.5102 -0.6168  0.5475
 1464TIP3    H2 4399   5.325   1.795   3.688 -0.3975  1.2655 -0.3045
 1465TIP3   OH2 4400   0.044   1.508   4.194  0.1350  0.4158  0.5697
 1465TIP3    H1 4401  -0.024   1.442   4.209  1.6932 -1.1596  0.9451
 1465TIP3    H2 4402   0.043   1.562   4.273 -1.4315  1.1883  0.0859
 1466TIP3   OH2 4403   2.568   0.757   3.279  0.0006  0.1352  0.3248
 1466TIP3    H1 4404   2.525   0.786   3.359  2.1455 -0.6980  1.8614
 1466TIP3    H2 4405   2.657   0.790   3.286  0.2068  0.2304 -1.8599
 1467TIP3   OH2 4406   4.378   4.395   4.605  0.6964  0.0498  0.6586
 1467TIP3    H1 4407   4.378   4.313   4.555  1.3632  1.4620 -1.8000
 1467TIP3    H2 4408   4.468   4.404   4.636  1.4571  1.2416 -1.6596
 1468TIP3   OH2 4409   5.645   1.432   2.862  0.2531  0.4941  0.3652
 1468TIP3    H1 4410   5.731   1.426   2.904  0.1074  0.1367  0.6203
 1468TIP3    H2 4411   5.583   1.432   2.935  0.0855  2.3988  0.2818
 1469TIP3   OH2 4412   0.621   2.459   0.607 -0.1643 -0.0959 -0.0725
 1469TIP3    H1 4413   0.701   2.511   0.617 -0.4422  0.3152  0.0382
 1469TIP3    H2 4414   0.596   2.472   0.515 -0.2885  0.0445 -0.0185
 1470TIP3   OH2 4415   3.735   0.341   3.740 -0.4721 -0.3060 -0.0552
 1470TIP3    H1 4416   3.752   0.434   3.720  1.8446 -1.0862 -2.2447
 1470TIP3    H2 4417   3.821   0.302   3.749 -1.3900 -2.4080  0.2605
 1471TIP3   OH2 4418   6.188   5.243   3.225  0.6685  0.0137  0.5614
 1471TIP3    H1 4419   6.191   5.323   3.278 -0.2864  0.7311 -0.4356
 1471TIP3    H2 4420   6.098   5.239   3.193  0.8005 -1.2826  0.2994
 1472TIP3   OH2 4421   1.616  -0.006   3.275 -0.0293 -0.3202  0.4829
 1472TIP3    H1 4422   1.685  -0.066   3.246 -0.3081  0.2456 -1.5565
 1472TIP3    H2 4423   1.647   0.081   3.250 -1.3156 -0.0268 -0.1795
 1473TIP3   OH2 4424  -0.014   3.277   0.244 -1.2122 -0.2448  0.9434
 1473TIP3    H1 4425   0.056   3.230   0.198 -0.5857 -0.0975  1.7153
 1473TIP3    H2 4426   0.033   3.334   0.306 -2.0275 -0.4988  1.8119
 1474TIP3   OH2 4427   5.149   1.032   0.517  0.0381 -0.0235  0.1890
 1474TIP3    H1 4428   5.211   1.069   0.580  0.2463  1.6673 -0.9449
 1474TIP3    H2 4429   5.195   1.035   0.433 -0.1802 -2.3676 -0.0802
 1475TIP3   OH2 4430   2.042   4.197   3.910  0.1818  0.5759  0.5958
 1475TIP3    H1 4431   2.082   4.223   3.993  2.8369  2.4963 -1.0991
 1475TIP3    H2 4432   2.030   4.280   3.863 -0.3443 -0.5174 -1.2877
 1476TIP3   OH2 4433   0.168   5.527   3.222  0.6583  0.1498 -0.1803
 1476TIP3    H1 4434   0.243   5.498   3.275 -0.3858 -0.1658  1.1803
 1476TIP3    H2 4435   0.206   5.553   3.139  2.0962 -1.5564 -0.1022
 1477TIP3   OH2 4436   4.184   1.708   3.325 -0.7433  0.7817 -0.0113
 1477TIP3    H1 4437   4.141   1.712   3.411  0.3890  0.0986  0.6171
 1477TIP3    H2 4438   4.183   1.798   3.293 -0.5266  1.1785  1.0586
 1478TIP3   OH2 4439   4.486   1.547   1.267 -0.1959  0.0409 -0.0976
 1478TIP3    H1 4440   4.572   1.532   1.305 -0.4715 -0.4153  0.3632
 1478TIP3    H2 4441   4.502   1.601   1.190  0.6488 -1.0543 -0.7188
 1479TIP3   OH2 4442   1.483   5.817   1.108 -0.0295 -0.5333 -0.5951
 1479TIP3    H1 4443   1.528   5.755   1.049 -0.0470  0.9757 -2.2635
 1479TIP3    H2 4444   1.398   5.777   1.124  0.8077 -2.0679  0.3211
 1480TIP3   OH2 4445   5.531   2.509   2.219  0.4950 -0.0651  0.3657
 1480TIP3    H1 4446   5.469   2.563   2.268 -0.1176  0.6927 -1.1703
 1480TIP3    H2 4447   5.492   2.421   2.219  0.3817 -0.0155  1.0174
 1481TIP3   OH2 4448   5.822   1.223   2.448 -0.7215 -0.4306 -0.6969
 1481TIP3    H1 4449   5.739   1.266   2.466 -0.0274  0.5798  0.2513
 1481TIP3    H2 4450   5.799   1.142   2.402 -2.1363  0.4103 -1.5262
 1482TIP3   OH2 4451   1.786   1.850   2.759 -0.4462 -0.2244  0.0256
 1482TIP3    H1 4452   1.741   1.770   2.733  1.2094 -0.8136 -1.1773
 1482TIP3    H2 4453   1.879   1.830   2.752  0.0409  1.1489  1.8357
 1483TIP3   OH2 4454   1.711   4.583   1.426  0.1909  0.0661  0.2619
 1483TIP3    H1 4455   1.799   4.550   1.412 -0.3138 -1.0208 -0.5533
 1483TIP3    H2 4456   1.678   4.601   1.338 -0.6740 -0.3244  0.4925
 1484TIP3   OH2 4457   4.433   0.333   2.009 -0.0483  0.1441 -0.0702
 1484TIP3    H1 4458   4.440   0.276   2.086  0.6139 -1.6084 -1.3673
 1484TIP3    H2 4459   4.522   0.367   1.996 -0.2799  0.8885  0.2554
 1485TIP3   OH2 4460   3.360   1.641   1.699 -0.0803  0.1690 -0.1507
 1485TIP3    H1 4461   3.390   1.710   1.758  1.4679 -0.8996  0.3604
 1485TIP3    H2 4462   3.313   1.580   1.755  1.7716 -1.0768  0.1350
 1486TIP3   OH2 4463   0.661   1.210   4.527 -0.0855  0.3254  0.6669
 1486TIP3    H1 4464   0.591   1.272   4.548 -1.3744 -0.7716 -0.1779
 1486TIP3    H2 4465   0.656   1.200   4.432  0.2225 -0.8821  0.7538
 1487TIP3   OH2 4466   3.990   1.211   0.025  0.0489 -0.3580  0.1132
 1487TIP3    H1 4467   4.081   1.222   0.053 -0.1781  0.2696  0.6076
 1487TIP3    H2 4468   3.938   1.254   0.092 -0.5886 -0.2327 -0.4470
 1488TIP3   OH2 4469   0.511   4.067   1.836 -0.0541 -0.0426 -0.0340
 1488TIP3    H1 4470   0.541   4.115   1.913 -1.2335 -0.9177  1.0080
 1488TIP3    H2 4471   0.417   4.080   1.834  0.1392  1.5010 -2.4446
 1489TIP3   OH2 4472   0.963   2.500   4.026  0.0208 -0.0849 -0.1538
 1489TIP3    H1 4473   0.947   2.460   4.111  0.9935 -0.6531 -0.2202
 1489TIP3    H2 4474   1.027   2.442   3.984 -0.3597  0.2495 -1.2249
 1490TIP3   OH2 4475   3.652   5.940   3.567  0.6307 -0.1386 -0.1449
 1490TIP3    H1 4476   3.697   5.884   3.505  0.9154  1.1298 -1.1443
 1490TIP3    H2 4477   3.590   5.990   3.513 -0.5466 -0.4064  0.8986
 1491TIP3   OH2 4478   1.641   2.664   3.888  0.4585 -0.2554  0.0170
 1491TIP3    H1 4479   1.548   2.679   3.867  0.5904 -1.6086 -1.8250
 1491TIP3    H2 4480   1.643   2.576   3.926  1.1291 -0.9992 -1.6151
 1492TIP3   OH2 4481   5.048   2.421   0.966 -0.1323  0.0460 -0.1191
 1492TIP3    H1 4482   4.994   2.389   0.894 -0.7748  0.6100  0.0996
 1492TIP3    H2 4483   5.044   2.351   1.031  0.3659 -0.4205 -0.5888
 1493TIP3   OH2 4484   3.605   0.378   4.848  0.0843 -0.3208 -0.0919
 1493TIP3    H1 4485   3.512   0.364   4.867 -0.1759  1.6543  0.3477
 1493TIP3    H2 4486   3.651   0.318   4.907 -0.8849  0.3000  1.3385
 1494TIP3   OH2 4487   5.638   4.477   1.795  0.3855 -0.1371  0.1380
 1494TIP3    H1 4488   5.634   4.508   1.704 -0.3436 -0.9853 -0.1307
 1494TIP3    H2 4489   5.630   4.556   1.848  1.8117  0.4763 -0.5309
 1495TIP3   OH2 4490   5.049   1.647   2.776  0.1067  0.5873 -0.1263
 1495TIP3    H1 4491   5.126   1.591   2.767 -0.9564 -1.3216  1.6260
 1495TIP3    H2 4492   4.987   1.612   2.712 -0.6750 -0.5487  1.1889
 1496TIP3   OH2 4493   1.075   0.466   0.635 -0.4631 -0.3382  0.2261
 1496TIP3    H1 4494   1.117   0.480   0.719 -0.7164 -2.2909  0.7242
 1496TIP3    H2 4495   0.990   0.427   0.656 -1.0704  0.3058 -0.8972
 1497TIP3   OH2 4496   0.277   1.386   3.645  0.6460  0.1167  0.2468
 1497TIP3    H1 4497   0.296   1.337   3.565  0.5531 -0.5161  0.6068
 1497TIP3    H2 4498   0.354   1.443   3.657  0.4318  0.6028 -0.5684
 1498TIP3   OH2 4499   3.417   0.775   2.602  0.1145 -0.3047  0.9420
 1498TIP3    H1 4500   3.432   0.682   2.615  1.5925 -0.2860 -0.3249
 1498TIP3    H2 4501   3.342   0.780   2.544 -0.3671 -0.6637  1.5175
 1499TIP3   OH2 4502   0.242   4.383   4.671 -0.2752  0.4478  0.4177
 1499TIP3    H1 4503   0.323   4.430   4.690 -0.3381  0.0070  1.8334
 1499TIP3    H2 4504   0.261   4.335   4.590  0.9265  0.2546  0.7916
 1500TIP3   OH2 4505   3.699   1.213   0.646  0.5933  0.4638  0.2006
 1500TIP3    H1 4506   3.647   1.184   0.720  2.5983 -0.8546  1.1878
 1500TIP3    H2 4507   3.681   1.306   0.638 -1.9252  0.0595  0.4054
 1501TIP3   OH2 4508   2.958   4.593   4.074  0.1193 -0.1513 -0.6684
 1501TIP3    H1 4509   2.948   4.514   4.128 -0.2342 -0.3324 -0.9949
 1501TIP3    H2 4510   3.049   4.620   4.088  0.4199 -0.9493 -1.0106
 1502TIP3   OH2 4511   5.340   5.551   4.751  0.6866 -0.0515  0.0824
 1502TIP3    H1 4512   5.272   5.485   4.768  0.7096  0.1906  1.2330
 1502TIP3    H2 4513   5.305   5.604   4.680 -0.8244  0.7175  1.3453
 1503TIP3   OH2 4514   5.365   0.624   4.014 -0.5708 -0.0356 -0.1687
 1503TIP3    H1 4515   5.289   0.567   4.022  0.4781 -1.6367 -1.1081
 1503TIP3    H2 4516   5.411   0.594   3.936  0.7596  1.2215  0.0668
 1504TIP3   OH2 4517   1.119   2.731   1.211  0.3152 -0.1311 -0.3122
 1504TIP3    H1 4518   1.044   2.771   1.257 -0.0658 -0.7458 -0.3947
 1504TIP3    H2 4519   1.086   2.710   1.124  0.2088 -1.5329  0.0422
 1505TIP3   OH2 4520   4.368   4.037   3.080 -0.1935 -0.2356  0.1089
 1505TIP3    H1 4521   4.376   3.994   3.165 -2.3149 -1.3166 -0.1547
 1505TIP3    H2 4522   4.393   4.128   3.096  2.0735 -0.9809  1.2315
 1506TIP3   OH2 4523   3.441   0.886   0.696 -0.1556  0.7178 -0.3799
 1506TIP3    H1 4524   3.439   0.892   0.601 -2.3120  0.2984 -0.4108
 1506TIP3    H2 4525   3.349   0.876   0.722  0.4368  0.0646  1.6972
 1507TIP3   OH2 4526   5.845   3.096   1.757  0.2600 -0.3564  0.1959
 1507TIP3    H1 4527   5.906   3.070   1.826  0.8693  0.3915 -0.0422
 1507TIP3    H2 4528   5.898   3.150   1.698 -0.4852 -0.2104 -0.3511
 1508TIP3   OH2 4529   4.499   4.186   0.384  0.6100  0.1718 -0.0812
 1508TIP3    H1 4530   4.515   4.277   0.358 -0.3772  0.7761  1.3036
 1508TIP3    H2 4531   4.586   4.147   0.389  1.1034  1.2514 -0.0044
 1509TIP3   OH2 4532   1.627   0.768   3.889 -0.2240 -0.2024 -0.0950
 1509TIP3    H1 4533   1.552   0.782   3.947  1.2202 -1.5061  2.2376
 1509TIP3    H2 4534   1.644   0.673   3.894  2.3405  0.2219  0.5187
 1510TIP3   OH2 4535   3.262   5.540   5.104  0.0970 -0.2027  0.0342
 1510TIP3    H1 4536   3.320   5.519   5.177  0.9581 -0.5066 -0.7179
 1510TIP3    H2 4537   3.266   5.463   5.047  0.9578  0.7678 -1.2785
 1511TIP3   OH2 4538  -0.009   5.825   1.784 -0.1824 -0.5845  0.1403
 1511TIP3    H1 4539   0.030   5.909   1.805  0.8735 -1.0870  0.2455
 1511TIP3    H2 4540   0.052   5.785   1.722 -0.8070 -1.1599 -0.1113
 1512TIP3   OH2 4541   4.679   5.141   0.119 -0.1401 -0.3478  0.2237
 1512TIP3    H1 4542   4.636   5.220   0.150 -1.1157 -1.2793  1.3549
 1512TIP3    H2 4543   4.772   5.154   0.141 -0.2984  0.4377  0.4607
 1513TIP3   OH2 4544   4.394   3.665   2.665  0.1364  0.0724  0.3143
 1513TIP3    H1 4545   4.311   3.627   2.695  0.9980 -0.1783  2.6455
 1513TIP3    H2 4546   4.460   3.624   2.721  1.6988  1.1302 -0.6905
 1514TIP3   OH2 4547   5.341   1.136   0.677 -0.2812 -0.2029 -0.2002
 1514TIP3    H1 4548   5.393   1.077   0.732  0.2944  0.6920  0.2517
 1514TIP3    H2 4549   5.400   1.157   0.604 -0.1437  0.5064  0.1094
 1515TIP3   OH2 4550   0.136   2.405   2.829  0.3699 -0.3443  0.2163
 1515TIP3    H1 4551   0.097   2.320   2.851  2.7632 -1.1170  1.8274
 1515TIP3    H2 4552   0.060   2.461   2.809 -1.3657 -2.4573  0.4596
 1516TIP3   OH2 4553   0.163   4.416   2.005  0.1242  0.3458 -0.1117
 1516TIP3    H1 4554   0.131   4.488   1.951 -0.7436  0.8345  0.9890
 1516TIP3    H2 4555   0.083   4.374   2.038  0.5947  0.5451  1.3674
 1517TIP3   OH2 4556   2.614   4.399   1.959 -0.4378 -0.1723  0.3369
 1517TIP3    H1 4557   2.686   4.360   1.910 -0.6180 -0.6194  0.4215
 1517TIP3    H2 4558   2.538   4.390   1.901 -0.4564  0.1705  0.3051
 1518TIP3   OH2 4559   0.651   3.402   0.916 -0.9407  0.3197  0.2257
 1518TIP3    H1 4560   0.589   3.330   0.929  0.6197 -1.0217  0.5614
 1518TIP3    H2 4561   0.699   3.409   0.999 -0.5553  1.2533 -0.0551
 1519TIP3   OH2 4562   1.786   3.250   0.195  0.4626 -0.4789 -0.4589
 1519TIP3    H1 4563   1.844   3.241   0.271  0.9619 -1.0467 -0.8917
 1519TIP3    H2 4564   1.744   3.164   0.186 -1.3928  0.2670  0.5712
 1520TIP3   OH2 4565   4.143   5.345   5.106  0.0132 -0.2156  0.0875
 1520TIP3    H1 4566   4.084   5.399   5.054 -1.0912  0.3295  1.8463
 1520TIP3    H2 4567   4.087   5.278   5.144  1.0236 -1.3652 -0.3932
 1521TIP3   OH2 4568   3.998   1.944   2.493 -0.5737  0.7130 -0.1242
 1521TIP3    H1 4569   4.003   1.893   2.574  0.6322  3.2069  1.5145
 1521TIP3    H2 4570   3.912   1.986   2.497 -1.1621 -0.3433 -0.9882
 1522TIP3   OH2 4571   2.238   3.652   0.787  0.1062 -0.0022 -0.5104
 1522TIP3    H1 4572   2.172   3.614   0.729  1.0788 -1.7167 -0.5412
 1522TIP3    H2 4573   2.322   3.629   0.747  0.7598  0.9896  0.2333
 1523TIP3   OH2 4574   1.861   1.591   1.295 -0.1421 -1.2015  0.1879
 1523TIP3    H1 4575   1.894   1.627   1.213  0.7136 -0.8050  0.7024
 1523TIP3    H2 4576   1.875   1.660   1.360  0.2029 -1.9149  0.8957
 1524TIP3   OH2 4577   3.054   5.917   4.625  0.3248  0.5572 -0.2071
 1524TIP3    H1 4578   3.147   5.926   4.603  0.3387  1.7802  0.2911
 1524TIP3    H2 4579   3.035   5.993   4.679 -0.4844 -0.7005  1.3591
 1525TIP3   OH2 4580   1.992   3.208   2.989 -0.1437  0.6023  0.8283
 1525TIP3    H1 4581   2.048   3.237   2.917  0.3009  1.9485  1.6696
 1525TIP3    H2 4582   1.968   3.289   3.035 -0.9452 -0.1593  1.8086
 1526TIP3   OH2 4583   3.942   1.158   4.803  0.2746 -0.5673 -0.5951
 1526TIP3    H1 4584   3.971   1.243   4.836 -0.0505 -0.4297 -0.6551
 1526TIP3    H2 4585   4.016   1.126   4.751  0.2000 -0.0762 -1.0120
 1527TIP3   OH2 4586   5.933   1.183   2.708 -0.3619  0.2012  0.1223
 1527TIP3    H1 4587   5.867   1.142   2.764 -1.5269  1.6587 -0.1456
 1527TIP3    H2 4588   5.891   1.192   2.623  0.7142 -0.1690 -0.4815
 1528TIP3   OH2 4589   4.671   5.671   1.961 -0.0790 -0.4505 -0.2492
 1528TIP3    H1 4590   4.642   5.745   1.907  1.0478  0.4438  0.3441
 1528TIP3    H2 4591   4.670   5.705   2.050  2.7990 -0.3426 -0.1940
 1529TIP3   OH2 4592   2.785   1.219   1.808 -0.4545 -0.4039 -0.1071
 1529TIP3    H1 4593   2.711   1.271   1.774  0.1004  0.4352 -0.0511
 1529TIP3    H2 4594   2.845   1.284   1.845 -1.4035 -1.2680  3.3190
 1530TIP3   OH2 4595   2.138   0.540   1.667 -0.2427  0.2114  0.4115
 1530TIP3    H1 4596   2.076   0.608   1.642 -1.4417 -1.3515 -1.0393
 1530TIP3    H2 4597   2.222   0.570   1.632 -0.3530  1.7294  1.3057
 1531TIP3   OH2 4598   5.869   1.748   3.957  0.3922 -0.0250  0.3395
 1531TIP3    H1 4599   5.782   1.722   3.928  0.0006 -1.9272  2.7703
 1531TIP3    H2 4600   5.923   1.670   3.940  1.9155  1.4115 -1.9138
 1532TIP3   OH2 4601   3.791   5.707   3.061 -0.0542  0.4440 -0.6648
 1532TIP3    H1 4602   3.716   5.735   3.008 -0.4278 -0.3461 -0.5610
 1532TIP3    H2 4603   3.796   5.772   3.132 -1.3321 -0.1162 -0.0341
 1533TIP3   OH2 4604   1.018   2.811   0.024  0.1724 -0.4765  0.9938
 1533TIP3    H1 4605   1.088   2.754  -0.008  0.6596  0.6202  0.0452
 1533TIP3    H2 4606   0.939   2.756   0.019  0.4406 -0.7732 -0.9394
 1534TIP3   OH2 4607   4.510   4.010   2.373  0.2214  0.1202  0.5622
 1534TIP3    H1 4608   4.507   3.978   2.463  0.0599 -1.4191  0.0412
 1534TIP3    H2 4609   4.474   3.938   2.321  0.0222  1.0990 -0.7056
 1535TIP3   OH2 4610   4.267   1.840   4.578 -0.3966 -0.5489  0.2028
 1535TIP3    H1 4611   4.246   1.925   4.538 -0.2931  0.1954  1.6623
 1535TIP3    H2 4612   4.331   1.801   4.519 -0.9682  0.0606 -0.8671
 1536TIP3   OH2 4613   1.236   2.934   3.878 -0.2430 -0.4240 -0.0645
 1536TIP3    H1 4614   1.264   2.994   3.947 -0.2781  0.7894 -1.0554
 1536TIP3    H2 4615   1.274   2.971   3.798 -1.7123 -0.7433 -0.9506
 1537TIP3   OH2 4616   2.188   4.866   1.542 -0.3676  0.1244 -0.0722
 1537TIP3    H1 4617   2.101   4.825   1.538 -1.5013  2.2334  1.3656
 1537TIP3    H2 4618   2.214   4.874   1.450 -1.2678 -1.3712 -0.4922
 1538TIP3   OH2 4619   5.872   1.342   1.666  0.8152 -0.5597 -0.1401
 1538TIP3    H1 4620   5.786   1.306   1.642  0.3278  0.3234  0.2239
 1538TIP3    H2 4621   5.889   1.306   1.753 -0.4457  1.3062  0.9638
 1539TIP3   OH2 4622   4.782   3.305   5.142 -0.0909  0.1172  0.1440
 1539TIP3    H1 4623   4.696   3.277   5.173  0.5005 -0.9952  0.8510
 1539TIP3    H2 4624   4.844   3.250   5.190  1.1042  1.9600  0.8073
 1540TIP3   OH2 4625   3.189   4.891   4.901  0.1372  0.2868 -0.1487
 1540TIP3    H1 4626   3.237   4.936   4.832 -2.5710  3.5168 -0.2176
 1540TIP3    H2 4627   3.248   4.891   4.976  1.1470  1.8806 -0.8839
 1541TIP3   OH2 4628   3.545   3.906   4.090  0.0844 -0.6634  0.1549
 1541TIP3    H1 4629   3.604   3.871   4.024 -0.1944  1.7222 -1.5071
 1541TIP3    H2 4630   3.474   3.843   4.095  0.1742 -0.9687 -1.7935
 1542TIP3   OH2 4631   2.498   5.342   1.916  0.5097  0.3699  0.0759
 1542TIP3    H1 4632   2.548   5.399   1.975  0.4142  1.1340 -0.5719
 1542TIP3    H2 4633   2.410   5.380   1.914  0.7641  0.9278 -1.3045
 1543TIP3   OH2 4634   3.447   4.246   1.251  0.3272 -0.3891 -0.2925
 1543TIP3    H1 4635   3.503   4.202   1.315 -0.5869 -1.4059 -0.1676
 1543TIP3    H2 4636   3.499   4.248   1.171  0.8024 -0.7009  0.0054
 1544TIP3   OH2 4637   4.444   3.495   3.926 -0.1756 -0.0959 -0.2951
 1544TIP3    H1 4638   4.515   3.442   3.889  0.3244  1.0180 -0.9753
 1544TIP3    H2 4639   4.435   3.463   4.016 -0.4015 -1.8340 -0.8993
 1545TIP3   OH2 4640   6.310   5.750   0.394 -0.2395 -0.1858 -0.1448
 1545TIP3    H1 4641   6.312   5.823   0.456 -2.1108 -0.0022 -0.2541
 1545TIP3    H2 4642   6.347   5.677   0.444 -0.7302  0.2161  0.8468
 1546TIP3   OH2 4643   0.545   0.766   2.844  0.3128  0.4141  0.1158
 1546TIP3    H1 4644   0.627   0.813   2.856 -0.4677  2.1397 -0.9962
 1546TIP3    H2 4645   0.557   0.684   2.893  2.5017  0.8173  0.3402
 1547TIP3   OH2 4646   6.207   1.112   3.096 -0.1320 -0.1830  0.5637
 1547TIP3    H1 4647   6.208   1.039   3.158 -1.3263 -1.2518 -0.5918
 1547TIP3    H2 4648   6.295   1.148   3.099  0.3736 -1.4182  1.4740
 1548TIP3   OH2 4649   2.229   5.074   2.476  0.4589  0.0339 -0.1301
 1548TIP3    H1 4650   2.306   5.131   2.479 -0.7084  1.8917 -2.1901
 1548TIP3    H2 4651   2.208   5.057   2.568  1.7084  1.7808  0.5385
 1549TIP3   OH2 4652   0.355   5.502   3.844  0.4299 -0.3828  0.2738
 1549TIP3    H1 4653   0.386   5.449   3.918 -1.9479 -0.4559  1.2848
 1549TIP3    H2 4654   0.333   5.586   3.883  0.1530 -0.0661 -0.5673
 1550TIP3   OH2 4655   3.028   4.553   3.803 -0.0803  0.2734 -0.3975
 1550TIP3    H1 4656   2.982   4.564   3.886 -0.5364 -1.0863 -0.4493
 1550TIP3    H2 4657   3.112   4.596   3.817 -1.2124  2.6023 -0.2165
 1551TIP3   OH2 4658   5.394   3.445   1.917 -0.5445 -0.7752 -0.0940
 1551TIP3    H1 4659   5.438   3.384   1.976 -1.1919 -1.5903 -0.4418
 1551TIP3    H2 4660   5.301   3.423   1.924 -1.0876  1.6443  1.4689
 1552TIP3   OH2 4661   1.910   5.508   3.662 -0.1740  0.1064  0.2178
 1552TIP3    H1 4662   1.902   5.415   3.638  0.6643 -0.0036  0.3271
 1552TIP3    H2 4663   1.982   5.540   3.608 -1.3314  1.0485 -0.8061
 1553TIP3   OH2 4664   0.407   5.238   0.483 -0.0224  0.9286  0.1630
 1553TIP3    H1 4665   0.414   5.245   0.578 -1.0780 -1.0070  0.4344
 1553TIP3    H2 4666   0.468   5.168   0.460 -1.6850 -0.4821 -0.1957
 1554TIP3   OH2 4667   3.285   1.855   0.180 -0.6697 -0.1098 -0.5094
 1554TIP3    H1 4668   3.325   1.931   0.138  0.9163 -0.2649  0.6424
 1554TIP3    H2 4669   3.244   1.890   0.259 -0.0354 -0.3999 -0.0381
 1555TIP3   OH2 4670   0.382   4.129   3.924  0.8239  0.2510 -0.8374
 1555TIP3    H1 4671   0.319   4.200   3.912  0.1613 -0.3278 -0.8441
 1555TIP3    H2 4672   0.444   4.139   3.851 -0.2317 -0.1717 -1.8150
 1556TIP3   OH2 4673   1.892   4.605   2.875  0.4493  0.2315 -0.4964
 1556TIP3    H1 4674   1.950   4.657   2.820  2.3976  0.5683  1.7195
 1556TIP3    H2 4675   1.842   4.670   2.925  1.5965  0.0233  0.9811
 1557TIP3   OH2 4676   0.944   4.484   3.202  0.1082 -0.0691 -0.1393
 1557TIP3    H1 4677   0.857   4.444   3.207 -0.3742  0.7834 -1.3588
 1557TIP3    H2 4678   1.003   4.411   3.184 -0.3403 -0.6463  0.6582
 1558TIP3   OH2 4679   5.687   0.388   3.176 -0.7019  0.1217  0.4505
 1558TIP3    H1 4680   5.740   0.455   3.221 -0.6156 -1.6258  3.2116
 1558TIP3    H2 4681   5.701   0.405   3.083 -1.1710  4.2715  0.9491
 1559TIP3   OH2 4682   0.177   2.097   0.461  0.1342  0.1327  0.4107
 1559TIP3    H1 4683   0.250   2.044   0.494  1.6999  1.1990 -1.1587
 1559TIP3    H2 4684   0.099   2.058   0.501  1.4877 -1.4809  1.6158
 1560TIP3   OH2 4685   3.159   4.246   4.925  0.2998  0.1254  0.1668
 1560TIP3    H1 4686   3.222   4.174   4.932  0.1474 -0.0142  0.0877
 1560TIP3    H2 4687   3.213   4.323   4.907  0.2555 -0.4000 -2.5225
 1561TIP3   OH2 4688   3.310   4.922   1.264 -0.2688 -0.2591 -0.2061
 1561TIP3    H1 4689   3.321   4.863   1.338 -0.5710  1.6493  1.4199
 1561TIP3    H2 4690   3.240   4.882   1.212 -1.2649 -0.7664  1.4627
 1562TIP3   OH2 4691   4.110   3.956   2.210 -0.4408 -0.2489  0.0713
 1562TIP3    H1 4692   4.110   4.037   2.159 -0.5958 -1.8407 -2.6245
 1562TIP3    H2 4693   4.201   3.947   2.240 -0.6250  1.3594  1.3087
 1563TIP3   OH2 4694   2.927   1.049   3.086  0.0250  0.0596  0.1126
 1563TIP3    H1 4695   2.989   1.100   3.033 -1.4743  1.6932 -0.1841
 1563TIP3    H2 4696   2.887   1.114   3.144 -1.7677 -0.8352 -0.0601
 1564TIP3   OH2 4697   3.950   5.777   1.936 -0.2602  0.1709 -0.0139
 1564TIP3    H1 4698   3.993   5.778   1.851  1.1135  1.8296  0.6246
 1564TIP3    H2 4699   4.006   5.723   1.991 -0.7125 -0.2435  0.0471
 1565TIP3   OH2 4700   3.975   4.667   4.593 -0.3301  0.2912  0.0440
 1565TIP3    H1 4701   3.964   4.759   4.615 -0.5222  0.4791 -0.8182
 1565TIP3    H2 4702   4.070   4.653   4.595  0.0109  1.3463 -2.9779
 1566TIP3   OH2 4703   0.211   2.766   3.488  0.2444  0.1037 -0.2535
 1566TIP3    H1 4704   0.224   2.786   3.580 -0.2989 -0.7356  0.0210
 1566TIP3    H2 4705   0.279   2.703   3.466 -0.9776 -1.4437  0.2023
 1567TIP3   OH2 4706   4.938   2.461   4.658  0.1647 -0.0967 -0.0806
 1567TIP3    H1 4707   5.018   2.492   4.615  2.9895 -2.5520  2.8821
 1567TIP3    H2 4708   4.906   2.537   4.707  0.6576  0.9240 -1.2862
 1568TIP3   OH2 4709   3.585   5.623   4.349 -0.0598  0.0991 -0.0634
 1568TIP3    H1 4710   3.523   5.646   4.418 -1.6814 -1.3397 -0.9396
 1568TIP3    H2 4711   3.544   5.549   4.304  1.9775 -0.4327 -1.1796
 1569TIP3   OH2 4712   4.730   4.810   3.338 -0.1288 -0.3260 -0.2985
 1569TIP3    H1 4713   4.705   4.883   3.394 -1.8981  0.2260 -1.7260
 1569TIP3    H2 4714   4.709   4.839   3.249 -0.2173 -2.2898 -0.9740
 1570TIP3   OH2 4715   2.277   5.527   0.305 -0.1983 -0.2715  0.3035
 1570TIP3    H1 4716   2.310   5.585   0.237  1.4250 -3.3156 -1.7565
 1570TIP3    H2 4717   2.183   5.546   0.310 -0.2514  0.5228 -2.3225
 1571TIP3   OH2 4718   4.208   4.006   4.835 -0.2934 -0.3202 -0.1212
 1571TIP3    H1 4719   4.155   4.028   4.911  1.9344  0.5611  1.2782
 1571TIP3    H2 4720   4.297   3.995   4.870  0.4361 -2.0650 -2.2777
 1572TIP3   OH2 4721   4.463   3.024   4.537 -0.5541 -0.0605 -0.3507
 1572TIP3    H1 4722   4.556   3.026   4.513 -0.4484 -1.1404 -0.0934
 1572TIP3    H2 4723   4.436   3.116   4.537  1.1232  0.5229  1.9140
 1573TIP3   OH2 4724   1.929   2.763   2.193  0.2239  0.6307 -0.1687
 1573TIP3    H1 4725   1.965   2.851   2.202 -0.7628  1.0883 -0.5249
 1573TIP3    H2 4726   1.902   2.758   2.101 -1.4296  0.6624  0.2717
 1574TIP3   OH2 4727   5.113   2.480   5.132 -0.6681 -0.1741  0.0611
 1574TIP3    H1 4728   5.147   2.449   5.048 -0.1014  0.7318 -0.0579
 1574TIP3    H2 4729   5.171   2.552   5.156 -1.7570  0.5969  0.4712
 1575TIP3   OH2 4730   5.551   2.775   1.618  0.1195 -0.2706  0.5021
 1575TIP3    H1 4731   5.603   2.802   1.694  0.3144 -1.9016  0.9866
 1575TIP3    H2 4732   5.464   2.760   1.654 -0.2383  0.6225  0.0457
 1576TIP3   OH2 4733   5.674   4.164   0.645  0.2907  0.1462  0.4627
 1576TIP3    H1 4734   5.736   4.232   0.672  1.1153 -0.7165  0.7973
 1576TIP3    H2 4735   5.622   4.146   0.723 -0.8766  1.3702 -0.0130
 1577TIP3   OH2 4736   2.120   1.814   1.591 -0.4568 -0.3749 -0.7059
 1577TIP3    H1 4737   2.136   1.901   1.555  1.1915 -0.6232 -0.6676
 1577TIP3    H2 4738   2.039   1.823   1.642  0.2367  1.4206  0.1625
 1578TIP3   OH2 4739   2.733   1.307   3.744  0.2513  0.6560 -0.4448
 1578TIP3    H1 4740   2.789   1.384   3.760  0.8514  0.1750 -0.1578
 1578TIP3    H2 4741   2.751   1.249   3.818  0.0110  0.1201 -0.8012
 1579TIP3   OH2 4742   6.188   3.376   2.476 -0.0730 -0.4192  0.1464
 1579TIP3    H1 4743   6.182   3.307   2.409 -0.8645  1.6160 -2.0200
 1579TIP3    H2 4744   6.263   3.351   2.529  0.0874 -2.5759 -0.9751
 1580TIP3   OH2 4745   0.991   1.671   2.423 -1.2667  0.3233  0.1258
 1580TIP3    H1 4746   0.973   1.760   2.391 -0.7308  0.3609 -0.0814
 1580TIP3    H2 4747   1.085   1.661   2.413 -1.5147 -0.8651 -1.4153
 1581TIP3   OH2 4748   1.660   1.426   1.203 -0.6237  0.1245  0.0469
 1581TIP3    H1 4749   1.728   1.487   1.232 -2.9527  1.4048  3.5572
 1581TIP3    H2 4750   1.638   1.454   1.115  0.7056  2.2130  0.3095
 1582TIP3   OH2 4751   4.079   3.064   0.849 -0.4552 -0.3085  0.1786
 1582TIP3    H1 4752   4.039   3.052   0.763  2.1794  1.6321 -1.4912
 1582TIP3    H2 4753   4.169   3.033   0.839  0.1568  0.6888  1.9989
 1583TIP3   OH2 4754   4.733   2.524   2.288 -0.0572 -0.3164  0.3113
 1583TIP3    H1 4755   4.758   2.453   2.348  1.8202  1.0491  1.2286
 1583TIP3    H2 4756   4.736   2.603   2.342  1.1358  0.8879 -1.4372
 1584TIP3   OH2 4757   3.138   4.494   1.449 -0.2908  0.6063  0.0040
 1584TIP3    H1 4758   3.049   4.521   1.425 -0.4346 -0.1459 -0.3466
 1584TIP3    H2 4759   3.193   4.569   1.426 -0.5574  0.2860 -1.8324
 1585TIP3   OH2 4760   2.874   4.785   0.802 -0.5038  0.1767 -0.6136
 1585TIP3    H1 4761   2.946   4.848   0.804 -0.9369  0.7132 -1.3711
 1585TIP3    H2 4762   2.898   4.723   0.734 -0.0715 -0.4998  0.1430
 1586TIP3   OH2 4763   5.756   3.876   4.372 -0.4380 -0.5763  0.0749
 1586TIP3    H1 4764   5.674   3.876   4.421  0.1450 -2.0325  1.0834
 1586TIP3    H2 4765   5.822   3.909   4.433 -0.0463 -0.5311 -0.3590
 1587TIP3   OH2 4766   2.100   1.341   3.004  0.2629 -0.1995 -0.0177
 1587TIP3    H1 4767   2.063   1.316   3.089  1.3360 -0.4889  0.3743
 1587TIP3    H2 4768   2.184   1.296   3.000  0.6457  0.5565 -0.8280
 1588TIP3   OH2 4769   4.329   1.683   1.536 -0.3229  0.3750 -0.5400
 1588TIP3    H1 4770   4.384   1.619   1.492 -0.7101 -0.6743  0.4601
 1588TIP3    H2 4771   4.242   1.669   1.499 -0.9605 -1.4947  1.4789
 1589TIP3   OH2 4772   4.851   2.225   1.047 -0.4588 -0.2023  0.1254
 1589TIP3    H1 4773   4.813   2.275   0.975 -0.8859 -1.4737 -0.5715
 1589TIP3    H2 4774   4.898   2.154   1.004 -0.6547 -0.9389  1.0956
 1590TIP3   OH2 4775   1.093   0.527   2.825 -0.3520 -0.1463  0.3003
 1590TIP3    H1 4776   1.081   0.621   2.810 -1.6175 -0.4242 -0.6642
 1590TIP3    H2 4777   1.109   0.491   2.738 -0.6988 -0.9226  0.5466
 1591TIP3   OH2 4778   6.132   0.054   1.756 -0.1537 -0.6117 -0.4455
 1591TIP3    H1 4779   6.197   0.044   1.686 -0.1318  2.4862 -1.0077
 1591TIP3    H2 4780   6.055   0.007   1.724  0.5876 -1.1251 -1.5417
 1592TIP3   OH2 4781   5.747   4.478   0.939 -0.0965 -0.0990 -0.3511
 1592TIP3    H1 4782   5.801   4.415   0.892 -0.9330  0.2076 -1.7863
 1592TIP3    H2 4783   5.662   4.473   0.896 -1.0636 -0.1425  1.4644
 1593TIP3   OH2 4784   3.571   2.999   2.115  0.1037  0.4201 -0.7994
 1593TIP3    H1 4785   3.614   3.017   2.198 -1.4507 -0.6414  0.2912
 1593TIP3    H2 4786   3.535   2.911   2.125 -1.8071  1.0204 -1.8265
 1594TIP3   OH2 4787   4.893   1.299   4.201 -0.3506 -0.1001 -0.6033
 1594TIP3    H1 4788   4.878   1.364   4.131 -0.3758  0.1019 -0.4103
 1594TIP3    H2 4789   4.925   1.222   4.154 -1.5718 -0.3989 -0.9862
 1595TIP3   OH2 4790   2.417   5.704   3.461  0.0515  0.3097  0.0961
 1595TIP3    H1 4791   2.456   5.681   3.545 -1.1249 -1.0330  0.3138
 1595TIP3    H2 4792   2.407   5.799   3.464  0.3541  0.3106  1.3280
 1596TIP3   OH2 4793   5.037   3.517   2.050 -0.4037 -0.4202 -0.0693
 1596TIP3    H1 4794   5.069   3.430   2.026 -0.9715 -0.2828 -1.4093
 1596TIP3    H2 4795   5.117   3.566   2.073 -0.1498 -1.5011  1.5306
 1597TIP3   OH2 4796   4.843   2.619   0.731  0.4775 -0.3710  0.1096
 1597TIP3    H1 4797   4.923   2.566   0.732 -0.9919 -2.6997 -0.3846
 1597TIP3    H2 4798   4.850   2.673   0.809  2.0859 -1.2274  0.6069
 1598TIP3   OH2 4799   5.072   3.485   1.656 -0.3053  0.2095  0.1629
 1598TIP3    H1 4800   5.012   3.558   1.638  0.7872  1.5126  1.5045
 1598TIP3    H2 4801   5.135   3.487   1.584 -0.8601 -0.0717 -0.3398
 1599TIP3   OH2 4802   3.758   4.625   1.950 -0.6685 -0.1653  0.2971
 1599TIP3    H1 4803   3.814   4.695   1.914 -1.1417 -0.7381 -1.6863
 1599TIP3    H2 4804   3.671   4.644   1.917 -0.5312 -2.5558 -1.7644
 1600TIP3   OH2 4805   1.413   1.276   2.359  0.1415 -0.5282 -0.3206
 1600TIP3    H1 4806   1.403   1.347   2.295 -0.7572  1.8669  2.2718
 1600TIP3    H2 4807   1.482   1.306   2.418  1.1964 -2.8260 -0.2952
 1601TIP3   OH2 4808   5.484   2.386   5.065 -0.2729 -0.2668  0.4705
 1601TIP3    H1 4809   5.392   2.387   5.042  0.0975  3.2947 -1.6628
 1601TIP3    H2 4810   5.507   2.478   5.078  2.9231 -1.0251  1.2524
 1602TIP3   OH2 4811   0.914   0.231   0.858  0.7865  0.4673 -0.1348
 1602TIP3    H1 4812   0.873   0.305   0.812  3.1202  0.8493 -1.7965
 1602TIP3    H2 4813   0.935   0.169   0.788 -0.8546 -1.7487  1.1947
 1603TIP3   OH2 4814   4.170   3.007   2.297  0.0903  0.0470  0.1622
 1603TIP3    H1 4815   4.089   3.003   2.347  1.0618 -0.8449  1.7456
 1603TIP3    H2 4816   4.240   3.002   2.362  1.5091  2.9893 -0.9371
 1604TIP3   OH2 4817   5.041   4.747   1.529 -1.4266 -0.4711 -0.1827
 1604TIP3    H1 4818   5.118   4.689   1.533 -1.8736 -1.1768 -1.1209
 1604TIP3    H2 4819   5.051   4.793   1.445 -1.0176  0.9313  0.6108
 1605TIP3   OH2 4820   4.912   0.909   5.076 -0.3815 -0.3685  0.2179
 1605TIP3    H1 4821   5.002   0.904   5.108 -0.6236 -0.4175  0.9313
 1605TIP3    H2 4822   4.860   0.869   5.146 -1.0401  0.4242  0.1970
 1606TIP3   OH2 4823   5.052   2.249   2.370 -0.4034 -0.2451 -0.3139
 1606TIP3    H1 4824   5.134   2.288   2.340 -0.4132  0.0965  0.0898
 1606TIP3    H2 4825   4.986   2.285   2.310 -0.3240 -0.1268 -0.3307
 1607TIP3   OH2 4826   2.881   1.852   3.470 -0.3844  0.7841 -0.6831
 1607TIP3    H1 4827   2.904   1.809   3.388  0.4975 -0.6901  0.2870
 1607TIP3    H2 4828   2.786   1.863   3.465 -0.5382 -0.5895 -1.3131
 1608TIP3   OH2 4829   2.689   3.620   2.188  0.2971 -0.3176  0.3733
 1608TIP3    H1 4830   2.625   3.681   2.223  1.6028 -0.1331  2.6497
 1608TIP3    H2 4831   2.744   3.673   2.130 -0.4346 -0.0562 -0.0875
 1609TIP3   OH2 4832   1.463   4.768   0.799  0.0383 -0.0379  0.0672
 1609TIP3    H1 4833   1.397   4.834   0.780  1.6271  1.1815 -1.4928
 1609TIP3    H2 4834   1.546   4.813   0.787  1.2123 -2.5489 -2.0561
 1610TIP3   OH2 4835   5.126   5.551   3.280 -0.1372  0.0336 -0.4310
 1610TIP3    H1 4836   5.128   5.461   3.315 -0.1383  0.1602 -0.1009
 1610TIP3    H2 4837   5.038   5.561   3.244 -0.4743  0.2333  0.4221
 1611TIP3   OH2 4838   5.172   2.877   3.863 -0.5024 -0.3634 -0.0317
 1611TIP3    H1 4839   5.128   2.848   3.783 -2.2449  0.4620  0.5902
 1611TIP3    H2 4840   5.124   2.834   3.934 -0.9743  1.3493  0.7183
 1612TIP3   OH2 4841   3.127   1.986   3.558  0.0224 -0.0226 -0.0684
 1612TIP3    H1 4842   3.178   1.996   3.478  2.2815 -1.2005  1.1357
 1612TIP3    H2 4843   3.064   1.917   3.538  1.0085 -0.7882 -0.6488
 1613TIP3   OH2 4844   3.718   4.046   1.684 -0.5186  0.4711 -0.2525
 1613TIP3    H1 4845   3.767   4.053   1.766 -0.2553  1.3004 -0.4752
 1613TIP3    H2 4846   3.720   3.952   1.663 -3.9623 -0.5267  2.7574
 1614TIP3   OH2 4847   4.333   2.358   2.611 -0.4184  0.1876 -0.5720
 1614TIP3    H1 4848   4.389   2.304   2.666 -1.5105  0.3715  0.7932
 1614TIP3    H2 4849   4.267   2.296   2.577 -0.4226  0.2789 -0.7282
 1615TIP3   OH2 4850   3.529   3.737   4.410 -0.3272 -0.2889  0.2187
 1615TIP3    H1 4851   3.545   3.676   4.338  2.1384 -0.0866  0.5091
 1615TIP3    H2 4852   3.517   3.681   4.487 -2.1972 -0.4798 -0.1688
 1616TIP3   OH2 4853   1.862   3.776   3.023 -0.5103 -0.0153  0.0631
 1616TIP3    H1 4854   1.899   3.864   3.034  0.9920 -0.2128 -2.4983
 1616TIP3    H2 4855   1.783   3.789   2.971  0.0669 -0.1881 -0.8860
 1617TIP3   OH2 4856   2.085   1.093   4.828 -0.2770 -0.0648  0.0940
 1617TIP3    H1 4857   2.134   1.109   4.908  1.0002 -1.1826 -0.4223
 1617TIP3    H2 4858   1.997   1.070   4.858  0.5389 -1.8755  1.2978
 1618TIP3   OH2 4859   5.757   2.039   2.745 -0.2426 -0.1752  0.5981
 1618TIP3    H1 4860   5.739   2.122   2.788 -0.3075 -0.1030  0.4324
 1618TIP3    H2 4861   5.671   2.002   2.726 -0.2638 -1.4635  2.9008
 1619TIP3   OH2 4862   0.573   5.833   4.242 -0.2133 -0.2647  0.0232
 1619TIP3    H1 4863   0.588   5.744   4.209 -2.8920 -0.2079 -1.6366
 1619TIP3    H2 4864   0.502   5.824   4.306 -0.3574  0.6365  0.0057
 1620TIP3   OH2 4865   1.926   5.361   0.742 -0.5976  0.1512 -0.2433
 1620TIP3    H1 4866   1.873   5.356   0.822  0.5509  0.9142  0.6145
 1620TIP3    H2 4867   2.007   5.405   0.770  1.0514 -2.0759 -1.1712
 1621TIP3   OH2 4868   3.564   4.064   4.873  0.2453  0.1405  0.4683
 1621TIP3    H1 4869   3.565   4.021   4.958  3.2232  0.3490  0.6379
 1621TIP3    H2 4870   3.648   4.040   4.833 -0.5262  1.0744 -1.8830
 1622TIP3   OH2 4871   3.969   0.375   1.326 -0.1581  0.9220 -0.2504
 1622TIP3    H1 4872   4.006   0.405   1.242  0.6579 -1.5248 -0.8622
 1622TIP3    H2 4873   4.039   0.390   1.390  1.0707 -1.3448 -0.9346
 1623TIP3   OH2 4874   2.317   1.511   3.543  0.0022 -0.4223 -0.1152
 1623TIP3    H1 4875   2.282   1.501   3.631  1.0206 -0.5367  0.2864
 1623TIP3    H2 4876   2.411   1.528   3.556  0.8458 -3.6235 -1.2700
 1624TIP3   OH2 4877   2.165   5.254   0.302 -0.1073 -0.2103 -0.7272
 1624TIP3    H1 4878   2.203   5.334   0.265  1.1064 -0.0913  0.6665
 1624TIP3    H2 4879   2.186   5.259   0.395 -0.1169 -2.0871 -0.5865
 1625TIP3   OH2 4880   3.624   4.013   0.968 -0.1175  0.6567 -0.3235
 1625TIP3    H1 4881   3.690   4.015   0.900 -1.3047 -0.3675 -1.5562
 1625TIP3    H2 4882   3.674   4.015   1.050  1.3714  0.9999 -1.2083
 1626TIP3   OH2 4883   1.903   0.230   5.045 -0.6314  0.2012  0.1131
 1626TIP3    H1 4884   1.934   0.141   5.058  1.1338  0.7987  0.3879
 1626TIP3    H2 4885   1.882   0.235   4.951 -1.5948 -0.7143  0.2584
 1627TIP3   OH2 4886   3.370   4.846   2.965 -0.1133 -0.3539  0.1607
 1627TIP3    H1 4887   3.460   4.862   2.994 -0.6198 -1.0081  2.2707
 1627TIP3    H2 4888   3.330   4.797   3.036 -2.2124  0.0616 -0.6525
 1628TIP3   OH2 4889   4.170   6.003   4.594 -0.2385  0.8601  0.4202
 1628TIP3    H1 4890   4.236   6.007   4.663  2.0589 -1.7286 -1.4328
 1628TIP3    H2 4891   4.094   5.963   4.636  1.1991 -0.9219  1.4763
 1629TIP3   OH2 4892   0.166   1.713   1.072  0.6655 -0.1791 -0.1282
 1629TIP3    H1 4893   0.187   1.623   1.099 -3.4455 -1.2317  0.2588
 1629TIP3    H2 4894   0.141   1.757   1.153 -0.6419  0.2139 -0.7167
 1630TIP3   OH2 4895   2.044   4.737   2.713 -0.5775 -0.1462  0.3775
 1630TIP3    H1 4896   2.057   4.687   2.632 -1.8139  0.2499 -0.0851
 1630TIP3    H2 4897   2.111   4.805   2.711  0.0430 -0.7425  0.1987
 1631TIP3   OH2 4898   1.545   0.162   0.799 -0.2466 -0.1870 -0.3809
 1631TIP3    H1 4899   1.474   0.175   0.862  1.0691 -1.5462  1.5093
 1631TIP3    H2 4900   1.534   0.073   0.767  2.7328 -2.0531  3.0648
 1632TIP3   OH2 4901   6.200   3.603   3.922 -0.3042  0.6978  0.4146
 1632TIP3    H1 4902   6.131   3.539   3.906 -0.0867  0.4015  0.6687
 1632TIP3    H2 4903   6.157   3.688   3.906 -0.3946  0.4648 -0.6055
 1633TIP3   OH2 4904   3.788   2.325   0.520 -0.2258 -0.5475  0.0245
 1633TIP3    H1 4905   3.719   2.346   0.457 -0.2885 -1.3057 -0.1731
 1633TIP3    H2 4906   3.748   2.343   0.605 -0.5622 -0.6742 -0.1024
 1634TIP3   OH2 4907   0.876   1.980   3.405 -0.2289 -0.4358 -0.4352
 1634TIP3    H1 4908   0.957   2.025   3.428  0.4176 -1.5830 -0.3470
 1634TIP3    H2 4909   0.860   2.001   3.313 -1.0353  1.5407  0.1126
 1635TIP3   OH2 4910   2.822   5.642   4.385 -0.1189 -0.5148 -0.1025
 1635TIP3    H1 4911   2.874   5.716   4.354  0.0339 -0.1953  0.8654
 1635TIP3    H2 4912   2.878   5.599   4.450 -1.1431  0.0170  1.1844
 1636TIP3   OH2 4913   0.540   4.595   3.840  0.1866  0.0638  0.9570
 1636TIP3    H1 4914   0.527   4.690   3.834 -1.0973 -0.1043  0.8483
 1636TIP3    H2 4915   0.543   4.577   3.934 -2.4980 -0.1105  1.0927
 1637TIP3   OH2 4916   4.183   2.584   3.089 -0.0724 -0.0510 -0.1214
 1637TIP3    H1 4917   4.279   2.589   3.085 -0.0927  0.6463  0.0733
 1637TIP3    H2 4918   4.162   2.603   3.180 -0.4481  1.0330 -0.4099
 1638TIP3   OH2 4919   0.898   1.441   3.235 -0.5275 -0.2246  0.0980
 1638TIP3    H1 4920   0.948   1.369   3.274  0.5822  0.1152 -0.6486
 1638TIP3    H2 4921   0.822   1.398   3.196 -0.5183 -0.8330  0.7347
 1639TIP3   OH2 4922   4.417   5.333   1.255 -0.0406 -0.4619 -0.4314
 1639TIP3    H1 4923   4.504   5.359   1.283 -0.1343 -0.4257 -0.1666
 1639TIP3    H2 4924   4.399   5.253   1.305  0.4051 -1.2653 -1.5276
 1640TIP3   OH2 4925   2.719   3.360   5.145 -0.1821 -0.0566 -0.5367
 1640TIP3    H1 4926   2.726   3.439   5.092 -0.0563  0.0704 -0.3282
 1640TIP3    H2 4927   2.744   3.387   5.233 -1.9226  0.1039 -0.0602
 1641TIP3   OH2 4928   5.373   1.550   3.539  0.0841 -0.1863  0.0130
 1641TIP3    H1 4929   5.310   1.497   3.589  0.8166 -0.9632  0.1273
 1641TIP3    H2 4930   5.319   1.616   3.496 -0.6986 -0.2122  0.9170
 1642TIP3   OH2 4931   0.404   5.307   2.928 -0.0509 -0.0302 -0.0185
 1642TIP3    H1 4932   0.371   5.262   2.850 -0.4007 -1.2622  0.8098
 1642TIP3    H2 4933   0.337   5.293   2.994  0.4729  0.5746  0.6605
 1643TIP3   OH2 4934   5.195   2.985   2.853 -0.2804 -0.0250 -1.0410
 1643TIP3    H1 4935   5.109   2.964   2.817 -0.1404 -0.5648 -1.0659
 1643TIP3    H2 4936   5.244   2.903   2.849  0.2079  0.2549 -0.9424
 1644TIP3   OH2 4937   4.808   2.155   1.529  0.4169 -0.1066 -0.0621
 1644TIP3    H1 4938   4.735   2.120   1.579  0.7297  0.9607  1.1899
 1644TIP3    H2 4939   4.783   2.246   1.510  1.8456  0.6530  1.3752
 1645TIP3   OH2 4940   4.707   2.440   1.892  0.0667 -0.2987  0.1134
 1645TIP3    H1 4941   4.745   2.375   1.951 -1.0154 -1.4446 -0.4086
 1645TIP3    H2 4942   4.679   2.512   1.949  2.1717  0.2062  0.6010
 1646TIP3   OH2 4943   1.584   5.205   4.951  0.0330  0.0045 -0.0957
 1646TIP3    H1 4944   1.500   5.215   4.907  0.0858  0.2748 -0.1315
 1646TIP3    H2 4945   1.564   5.218   5.044 -0.2186 -1.2997  0.0646
 1647TIP3   OH2 4946   4.311   0.099   2.764 -0.1212  0.3730  0.5498
 1647TIP3    H1 4947   4.269   0.171   2.811  0.7011  1.7939 -0.7856
 1647TIP3    H2 4948   4.397   0.134   2.741 -0.0575 -0.7047 -0.9459
 1648TIP3   OH2 4949   0.466   3.668   0.340  0.4600  0.0765 -0.4735
 1648TIP3    H1 4950   0.506   3.667   0.253  1.8680 -0.0737  0.1601
 1648TIP3    H2 4951   0.492   3.751   0.378  0.1828 -0.0298 -0.0426
 1649TIP3   OH2 4952   1.495   3.956   1.336  0.0774  0.8353  0.1878
 1649TIP3    H1 4953   1.489   3.968   1.431  0.1510 -2.4373  0.7132
 1649TIP3    H2 4954   1.589   3.963   1.317  0.4422 -1.4852  0.9137
 1650TIP3   OH2 4955   1.124   5.268   0.545 -0.7378 -0.4858  0.1058
 1650TIP3    H1 4956   1.129   5.263   0.641 -2.5718  0.7046  0.3152
 1650TIP3    H2 4957   1.094   5.181   0.518 -1.0456 -0.5667  0.6845
 1651TIP3   OH2 4958   1.682   4.358   1.115  0.4878  0.1870 -0.0614
 1651TIP3    H1 4959   1.749   4.373   1.182  0.8518 -2.1279  0.1819
 1651TIP3    H2 4960   1.719   4.289   1.059 -0.9137  0.2149 -1.0802
 1652TIP3   OH2 4961   2.278   4.104   1.873 -0.6474  0.5389 -0.0192
 1652TIP3    H1 4962   2.213   4.082   1.940  0.5952  0.0779  1.1085
 1652TIP3    H2 4963   2.358   4.123   1.924  0.3794  0.0261 -1.3799
 1653TIP3   OH2 4964   0.934   0.190   4.973 -0.3576 -0.0390 -0.0353
 1653TIP3    H1 4965   0.852   0.175   5.019 -0.3736  1.4814  0.4723
 1653TIP3    H2 4966   0.990   0.236   5.036  0.6288 -0.4210 -0.6061
 1654TIP3   OH2 4967   4.964   5.641   1.925  0.0359 -0.0030  0.3387
 1654TIP3    H1 4968   4.895   5.639   1.992  0.5702  0.7697  0.9336
 1654TIP3    H2 4969   4.984   5.734   1.913  1.7851 -0.2449  1.0592
 1655TIP3   OH2 4970   5.282   3.377   4.170  0.2853 -0.6203 -0.6607
 1655TIP3    H1 4971   5.327   3.416   4.245 -1.8267  0.4481  0.1477
 1655TIP3    H2 4972   5.346   3.382   4.099  1.8425 -0.3156  0.6942
 1656TIP3   OH2 4973   6.042   1.123   1.595 -0.2447 -0.3400  0.4079
 1656TIP3    H1 4974   5.983   1.124   1.519 -0.7429  1.4119  0.7713
 1656TIP3    H2 4975   5.984   1.109   1.670 -0.2306  1.2361  0.7533
 1657TIP3   OH2 4976   1.976   2.722   5.028 -0.1390 -0.1810 -0.2910
 1657TIP3    H1 4977   2.062   2.750   4.997 -0.1683  1.2984  0.8305
 1657TIP3    H2 4978   1.924   2.711   4.949  0.7649  0.0105 -0.9259
 1658TIP3   OH2 4979   3.313   0.824   1.953 -0.2691 -0.1316  0.1045
 1658TIP3    H1 4980   3.295   0.847   1.862 -0.7465  1.1689  0.5115
 1658TIP3    H2 4981   3.362   0.742   1.947 -0.1915 -0.0119 -1.3226
 1659TIP3   OH2 4982   0.250   5.714   1.733 -0.3462  0.0933  0.2964
 1659TIP3    H1 4983   0.307   5.667   1.671  0.0374 -0.3541  0.9736
 1659TIP3    H2 4984   0.303   5.787   1.763 -0.6135  0.4376 -0.0660
 1660TIP3   OH2 4985   5.586   4.478   0.006 -0.0507 -0.3847  0.6988
 1660TIP3    H1 4986   5.602   4.569  -0.019  1.2097 -0.3021  1.6816
 1660TIP3    H2 4987   5.530   4.484   0.084  0.9267 -0.3742  1.4251
 1661TIP3   OH2 4988   5.809   3.742   2.473 -0.0557  0.0022 -0.3357
 1661TIP3    H1 4989   5.774   3.792   2.546 -2.7992 -3.1059  0.7124
 1661TIP3    H2 4990   5.870   3.680   2.512 -0.5061 -0.7841 -0.8417
 1662TIP3   OH2 4991   5.915   5.011   4.698  0.3508 -0.1621  0.1747
 1662TIP3    H1 4992   5.982   4.983   4.635 -0.6165  0.5222 -1.2221
 1662TIP3    H2 4993   5.892   5.100   4.669 -0.9924 -0.3056  0.7629
 1663TIP3   OH2 4994   5.477   4.037   4.359  0.6061  0.5630  0.7324
 1663TIP3    H1 4995   5.420   3.979   4.409 -1.0907  1.8118  0.3515
 1663TIP3    H2 4996   5.443   4.033   4.269 -0.8025  3.4630  1.0199
 1664TIP3   OH2 4997   4.582   4.076   3.590 -0.1672 -0.4308  0.0015
 1664TIP3    H1 4998   4.500   4.075   3.639 -0.7824  0.7017 -0.9415
 1664TIP3    H2 4999   4.556   4.087   3.499  1.0491  1.9247 -0.1447
 1665TIP3   OH2 5000   6.342   2.715   0.667 -0.0636  0.1805  0.0189
 1665TIP3    H1 5001   6.250   2.742   0.672 -0.2826 -0.2957 -1.1254
 1665TIP3    H2 5002   6.356   2.663   0.746 -1.4892 -1.7714 -0.9292
 1666TIP3   OH2 5003   0.974   3.212   0.829  0.2341 -0.1190  0.4060
 1666TIP3    H1 5004   1.041   3.275   0.855 -0.5903  1.1270 -0.3941
 1666TIP3    H2 5005   0.953   3.234   0.738  0.0530 -1.6815  0.0315
 1667TIP3   OH2 5006   4.161   5.307   0.327 -0.1864  0.0152 -0.2790
 1667TIP3    H1 5007   4.093   5.371   0.350  1.0029  1.0856  0.4238
 1667TIP3    H2 5008   4.215   5.352   0.262 -0.3317 -0.9530 -1.0968
 1668TIP3   OH2 5009   1.542   5.294   1.359  0.0641 -0.0166 -0.7225
 1668TIP3    H1 5010   1.531   5.384   1.328 -1.3987 -0.4850 -1.6967
 1668TIP3    H2 5011   1.634   5.274   1.343 -0.2989  0.2491 -3.5950
 1669TIP3   OH2 5012   3.851   4.340   2.594  0.3305 -0.5354 -0.4753
 1669TIP3    H1 5013   3.891   4.419   2.557  2.6445 -1.9003 -1.1313
 1669TIP3    H2 5014   3.870   4.346   2.688  0.6794 -0.3916 -0.5506
 1670TIP3   OH2 5015   5.364   3.479   1.024  0.0419 -0.3282 -0.3119
 1670TIP3    H1 5016   5.298   3.500   1.090  0.8548  0.4955  0.2599
 1670TIP3    H2 5017   5.361   3.383   1.017 -0.7804 -0.3454  0.1486
 1671TIP3   OH2 5018   3.993   0.588   3.929  0.3031  0.6521  0.0150
 1671TIP3    H1 5019   3.948   0.625   3.853  1.2147  0.4686 -0.6301
 1671TIP3    H2 5020   4.063   0.650   3.949  1.8403 -0.6583 -1.0682
 1672TIP3   OH2 5021   6.223   4.801   0.767  0.4174  0.3641  0.1656
 1672TIP3    H1 5022   6.302   4.762   0.805 -0.4783  1.1999  3.1181
 1672TIP3    H2 5023   6.151   4.754   0.808 -0.6476  1.6613 -0.1793
 1673TIP3   OH2 5024   0.857   0.918   0.649 -0.3258 -0.4484  0.5703
 1673TIP3    H1 5025   0.889   0.899   0.738 -1.0538 -0.9764  0.7340
 1673TIP3    H2 5026   0.859   0.833   0.605  0.5456 -0.0939 -0.1049
 1674TIP3   OH2 5027   1.724   3.239   4.675 -0.1930 -0.2086 -0.0568
 1674TIP3    H1 5028   1.810   3.234   4.631  0.0794 -1.1155  0.5478
 1674TIP3    H2 5029   1.716   3.155   4.720  0.3963  1.3382  3.2308
 1675TIP3   OH2 5030   2.642   4.086   3.689 -0.1935 -0.0365  0.0955
 1675TIP3    H1 5031   2.644   4.111   3.597  0.6691 -2.0460 -0.4828
 1675TIP3    H2 5032   2.701   4.148   3.732  2.1778 -1.1543 -1.3280
 1676TIP3   OH2 5033   3.466   0.949   3.413 -0.1075 -0.0922  0.1428
 1676TIP3    H1 5034   3.398   1.004   3.374 -0.1309  0.1162  0.4718
 1676TIP3    H2 5035   3.542   0.962   3.356 -0.5798 -0.9887 -0.7265
 1677TIP3   OH2 5036   1.972   1.851   4.894  0.1008 -0.0557  0.0752
 1677TIP3    H1 5037   1.905   1.840   4.961 -0.1480  0.7284 -0.0346
 1677TIP3    H2 5038   1.924   1.882   4.817  0.6783  1.2165  0.2120
 1678TIP3   OH2 5039   5.051   5.003   2.818  0.2167  0.1743  0.5492
 1678TIP3    H1 5040   5.029   5.096   2.824  0.2623  0.0924  3.6562
 1678TIP3    H2 5041   4.967   4.958   2.812  0.1755  0.3506 -0.4076
 1679TIP3   OH2 5042   0.639   1.434   0.954  0.1063 -0.1496 -0.3839
 1679TIP3    H1 5043   0.598   1.516   0.980 -2.6877 -1.2378 -1.0053
 1679TIP3    H2 5044   0.644   1.383   1.035  2.3214  0.7171  0.1082
 1680TIP3   OH2 5045   0.815   0.441   3.752 -0.2063 -0.0475  0.2335
 1680TIP3    H1 5046   0.730   0.458   3.712  0.8335  1.3614 -1.5412
 1680TIP3    H2 5047   0.873   0.423   3.677  0.9268 -1.7286  1.4333
 1681TIP3   OH2 5048   1.003   3.267   1.470  0.0238 -0.4247  0.2539
 1681TIP3    H1 5049   1.021   3.311   1.553 -0.4574 -2.3227  1.4297
 1681TIP3    H2 5050   1.090   3.243   1.436  0.3868  2.2335 -0.9703
 1682TIP3   OH2 5051   2.953   4.971   1.545  0.4161 -0.5302 -0.6013
 1682TIP3    H1 5052   2.859   4.958   1.557  0.2972  0.3858 -0.4991
 1682TIP3    H2 5053   2.966   5.065   1.553  1.4830 -0.7309  0.3627
 1683TIP3   OH2 5054   3.102   3.449   3.204 -0.0738  0.4195 -0.1303
 1683TIP3    H1 5055   3.190   3.414   3.199 -0.7310 -1.1681 -1.8877
 1683TIP3    H2 5056   3.052   3.383   3.252 -0.1247  1.8852  1.9990
 1684TIP3   OH2 5057   0.602   4.201   3.751 -0.1440  0.5938  0.8747
 1684TIP3    H1 5058   0.683   4.154   3.732 -1.0984 -0.6895 -0.1884
 1684TIP3    H2 5059   0.619   4.247   3.833  1.6868  0.4462  0.6106
 1685TIP3   OH2 5060   0.415   5.898   3.483  0.3267 -0.1941  0.4051
 1685TIP3    H1 5061   0.371   5.875   3.402 -0.5224  2.4221  0.0283
 1685TIP3    H2 5062   0.395   5.826   3.543 -1.2502 -0.9116 -0.9185
 1686TIP3   OH2 5063   4.220   5.009   2.989  0.2993  0.1174 -0.3633
 1686TIP3    H1 5064   4.313   5.027   2.982  0.1201  1.3175  0.0847
 1686TIP3    H2 5065   4.178   5.091   2.965 -0.6689 -0.5849 -1.1742
 1687TIP3   OH2 5066   6.231   5.965   5.088 -0.1056 -0.8432 -0.2348
 1687TIP3    H1 5067   6.205   5.876   5.066  0.2573 -1.1735  0.6410
 1687TIP3    H2 5068   6.178   5.987   5.165 -1.9840  0.6038 -1.8199
 1688TIP3   OH2 5069   1.945   5.637   3.303  0.1504 -0.5506 -0.0697
 1688TIP3    H1 5070   1.852   5.627   3.321  0.2708  0.0453  0.9416
 1688TIP3    H2 5071   1.949   5.701   3.232 -0.2228 -0.9275 -0.4331
 1689TIP3   OH2 5072   2.721   3.206   1.576 -0.0659  0.3383  0.0888
 1689TIP3    H1 5073   2.730   3.212   1.671  1.1732  1.8025 -0.0856
 1689TIP3    H2 5074   2.703   3.114   1.559 -0.3267  0.0545  1.7302
 1690TIP3   OH2 5075   2.223   1.974   1.154 -1.2008  0.3367  0.1074
 1690TIP3    H1 5076   2.167   1.946   1.081 -3.0217  3.3509  0.1935
 1690TIP3    H2 5077   2.167   1.965   1.231 -0.5702  0.6870  0.6142
 1691TIP3   OH2 5078   5.275   2.487   3.961 -0.1584  0.2526 -0.6111
 1691TIP3    H1 5079   5.271   2.402   4.003  0.8451 -0.1009 -1.1840
 1691TIP3    H2 5080   5.184   2.510   3.943 -0.6565  0.4335  1.7182
 1692TIP3   OH2 5081   4.263   0.403   3.669 -0.1936 -0.1031 -0.0618
 1692TIP3    H1 5082   4.313   0.476   3.705  0.8230  1.3942 -3.9685
 1692TIP3    H2 5083   4.328   0.333   3.658 -0.5615 -0.6576  1.0618
 1693TIP3   OH2 5084   5.392   1.959   1.450  0.4042  0.2299 -0.5912
 1693TIP3    H1 5085   5.310   1.997   1.417 -0.7491 -2.4937 -1.1379
 1693TIP3    H2 5086   5.424   2.023   1.513 -2.8504  0.8462  0.6224
 1694TIP3   OH2 5087   6.063   0.242   4.708 -0.1718  0.3000 -0.1260
 1694TIP3    H1 5088   6.059   0.157   4.751 -0.9070  0.0323 -0.7182
 1694TIP3    H2 5089   6.020   0.302   4.769 -1.5224 -0.1415 -0.6079
 1695TIP3   OH2 5090   0.494   2.020   3.891  0.0104  0.1159  0.8762
 1695TIP3    H1 5091   0.536   1.936   3.907  1.3790  0.2705 -1.4935
 1695TIP3    H2 5092   0.563   2.076   3.856 -1.7579  0.8031 -1.8944
 1696TIP3   OH2 5093   0.917   3.878   1.803  0.3056 -0.0156 -0.1885
 1696TIP3    H1 5094   0.922   3.783   1.812 -1.7848 -0.2207 -0.6244
 1696TIP3    H2 5095   0.825   3.899   1.821  0.6614  1.8957 -0.3775
 1697TIP3   OH2 5096   1.935   2.170   1.652  0.3168  0.2376 -0.3908
 1697TIP3    H1 5097   1.847   2.174   1.689  0.2589  2.8730 -0.5737
 1697TIP3    H2 5098   1.920   2.156   1.558  0.3440 -3.3499  0.0220
 1698TIP3   OH2 5099   2.735   1.571   1.491 -0.4000  0.1731  0.0319
 1698TIP3    H1 5100   2.654   1.536   1.453 -1.5296  1.4092  1.2399
 1698TIP3    H2 5101   2.803   1.543   1.429 -1.6296 -1.4415 -0.6854
 1699TIP3   OH2 5102   3.957   3.342   1.374  0.2215 -0.3480  0.3682
 1699TIP3    H1 5103   3.880   3.331   1.429  0.4429 -0.0331  0.7519
 1699TIP3    H2 5104   3.951   3.432   1.342  0.3796 -0.3508  0.3284
 1700TIP3   OH2 5105   4.577   3.596   4.995  0.2956 -0.1412  0.3188
 1700TIP3    H1 5106   4.485   3.620   5.006 -0.0799 -0.3936 -1.8889
 1700TIP3    H2 5107   4.620   3.678   4.971  0.1769 -0.4287 -0.9637
 1701TIP3   OH2 5108   4.889   5.843   4.315  0.1112 -0.2343  0.0993
 1701TIP3    H1 5109   4.897   5.926   4.363 -1.0859 -0.3900  0.6113
 1701TIP3    H2 5110   4.935   5.779   4.369 -0.4803 -0.2338  0.6189
 1702TIP3   OH2 5111   5.293   0.844   1.573 -0.4908  0.5435  0.3179
 1702TIP3    H1 5112   5.317   0.831   1.665 -1.0202  0.2687  0.4171
 1702TIP3    H2 5113   5.243   0.925   1.573  0.1211  0.9315  0.1598
 1703TIP3   OH2 5114   5.407   2.263   2.149  0.0836  0.3056  0.3370
 1703TIP3    H1 5115   5.316   2.234   2.150  0.3421 -0.5324  0.2212
 1703TIP3    H2 5116   5.416   2.311   2.066  0.4687 -2.0742 -1.1009
 1704TIP3   OH2 5117   1.154   4.419   4.283 -0.5372  0.6562  0.0605
 1704TIP3    H1 5118   1.163   4.473   4.361  1.2748  1.0120 -0.3548
 1704TIP3    H2 5119   1.135   4.482   4.213 -2.5034  0.3065  0.2216
 1705TIP3   OH2 5120   1.984   1.599   3.146 -0.0963  0.6679 -0.4184
 1705TIP3    H1 5121   2.037   1.607   3.225 -2.1066  3.6648  0.7778
 1705TIP3    H2 5122   2.031   1.652   3.081  0.6188 -0.3232 -0.7311
 1706TIP3   OH2 5123   6.317   2.267   1.349 -0.1988  0.5276  0.2681
 1706TIP3    H1 5124   6.317   2.349   1.300  2.6675  0.6114  0.2683
 1706TIP3    H2 5125   6.233   2.226   1.327 -1.1647  2.8549 -0.7031
 1707TIP3   OH2 5126   5.079   5.546   1.411 -0.0721 -0.4455 -0.4309
 1707TIP3    H1 5127   5.021   5.620   1.430 -0.3614 -1.1645  1.7477
 1707TIP3    H2 5128   5.023   5.469   1.417  0.6291 -0.9926 -0.7287
 1708TIP3   OH2 5129   5.807   5.952   1.774 -0.1283  0.2149  0.6236
 1708TIP3    H1 5130   5.795   5.954   1.868  2.3904  0.4013  1.0188
 1708TIP3    H2 5131   5.738   5.893   1.742  0.9170 -2.5284  2.9613
 1709TIP3   OH2 5132   5.764   5.055   3.062  0.0725 -0.1538  0.2803
 1709TIP3    H1 5133   5.857   5.045   3.041 -0.1648  0.9037 -1.4932
 1709TIP3    H2 5134   5.731   5.114   2.994 -1.7524  0.0376  1.2884
 1710TIP3   OH2 5135   5.861   0.054   3.150  0.7425 -0.0065  0.4192
 1710TIP3    H1 5136   5.800   0.035   3.078 -0.4103  0.0779  1.3472
 1710TIP3    H2 5137   5.912   0.129   3.119 -0.2544  0.5100 -0.0101
 1711TIP3   OH2 5138   0.709   0.421   3.482  0.3653  0.1144 -0.6242
 1711TIP3    H1 5139   0.723   0.327   3.491  1.8965  0.3994  0.2490
 1711TIP3    H2 5140   0.796   0.458   3.467 -0.0812  1.4755 -0.0725
 1712TIP3   OH2 5141   2.664   0.047   4.636  0.1528 -0.3419 -0.1184
 1712TIP3    H1 5142   2.668  -0.002   4.719  2.0530  0.9894  0.6430
 1712TIP3    H2 5143   2.755   0.054   4.608 -0.4161 -0.2814 -2.0702
 1713TIP3   OH2 5144   2.550   4.109   0.614  0.4979  0.1872  0.0932
 1713TIP3    H1 5145   2.479   4.073   0.667  0.3873 -0.2680 -0.3464
 1713TIP3    H2 5146   2.615   4.038   0.611  0.4036  0.1241 -0.5541
 1714TIP3   OH2 5147   0.226   0.918   0.362  0.1537 -0.2112  0.5630
 1714TIP3    H1 5148   0.291   0.987   0.371 -0.3894  0.2484  1.0185
 1714TIP3    H2 5149   0.209   0.889   0.452  1.8087 -2.3104  0.2803
 1715TIP3   OH2 5150   2.230   0.725   4.606 -0.2353  0.5423  0.8889
 1715TIP3    H1 5151   2.230   0.812   4.566  0.4735  0.4138  0.5923
 1715TIP3    H2 5152   2.244   0.740   4.699 -0.1125  0.7445  0.8377
 1716TIP3   OH2 5153   5.989   3.068   1.974  0.2675 -0.0173 -0.0059
 1716TIP3    H1 5154   5.959   3.045   2.062  0.2072 -1.5677 -0.3921
 1716TIP3    H2 5155   6.072   3.021   1.964  0.3464  0.2644 -0.7186
 1717TIP3   OH2 5156   3.951   0.767   1.583  0.1478 -0.0781  0.0640
 1717TIP3    H1 5157   3.945   0.786   1.676 -2.7370 -0.0294 -0.0466
 1717TIP3    H2 5158   3.958   0.853   1.541  1.3754 -0.0970  0.1883
 1718TIP3   OH2 5159   1.942   1.600   1.834 -0.3538 -0.2682  0.1819
 1718TIP3    H1 5160   2.025   1.558   1.810 -0.3139 -0.8042  1.2169
 1718TIP3    H2 5161   1.947   1.612   1.929 -1.2670  0.1324  0.1941
 1719TIP3   OH2 5162   0.196   5.740   0.106 -0.3341  0.3398  0.1397
 1719TIP3    H1 5163   0.164   5.728   0.016 -1.0019 -3.6784  0.7163
 1719TIP3    H2 5164   0.118   5.767   0.155 -0.1026  1.9338 -0.3097
 1720TIP3   OH2 5165   0.043   1.281   4.580 -0.1580 -0.0223  0.6531
 1720TIP3    H1 5166   0.090   1.211   4.534 -1.3035 -0.0716 -0.4922
 1720TIP3    H2 5167   0.100   1.357   4.572 -2.0640  1.3104 -4.9661
 1721TIP3   OH2 5168   5.741   2.295   5.013 -0.1543 -0.5647  0.1388
 1721TIP3    H1 5169   5.714   2.250   4.933 -0.3844 -1.3690  0.6601
 1721TIP3    H2 5170   5.660   2.327   5.052  0.0652  1.0589 -0.6393
 1722TIP3   OH2 5171   1.370   2.028   2.334 -0.1428 -0.2901 -0.3245
 1722TIP3    H1 5172   1.412   2.026   2.420 -0.6679  0.0103 -0.0550
 1722TIP3    H2 5173   1.443   2.036   2.272  0.3321 -1.8201 -0.0048
 1723TIP3   OH2 5174   1.435   1.699   4.491 -0.5112  0.3994 -0.0673
 1723TIP3    H1 5175   1.393   1.785   4.485 -2.2701 -0.2597  1.4088
 1723TIP3    H2 5176   1.424   1.674   4.583 -0.5087 -1.6151 -0.5626
 1724TIP3   OH2 5177   5.635   2.877   3.724  0.1251 -0.1157 -0.5774
 1724TIP3    H1 5178   5.650   2.838   3.811 -0.6427  1.7668  0.4524
 1724TIP3    H2 5179   5.602   2.805   3.671  0.3006 -1.2374  0.7733
 1725TIP3   OH2 5180   5.246   3.090   1.456  0.1635  0.1988 -0.2856
 1725TIP3    H1 5181   5.321   3.031   1.444 -0.1865 -0.0534 -1.2735
 1725TIP3    H2 5182   5.278   3.157   1.516  0.6408 -0.8746  0.7114
 1726TIP3   OH2 5183   4.033   2.247   1.637  0.1855  0.0418  0.2059
 1726TIP3    H1 5184   3.992   2.288   1.561  1.7120 -0.3464 -0.8515
 1726TIP3    H2 5185   4.080   2.318   1.680 -0.1767  0.1331  0.4597
 1727TIP3   OH2 5186   2.267   4.283   1.597 -0.1366  0.6192  0.3304
 1727TIP3    H1 5187   2.188   4.296   1.648  0.0314  2.0195  0.2887
 1727TIP3    H2 5188   2.244   4.216   1.533 -0.4245 -0.9962  2.0399
 1728TIP3   OH2 5189   1.076   2.306   1.212 -0.7049 -0.2329 -0.1080
 1728TIP3    H1 5190   1.072   2.381   1.271 -0.4170 -0.2352 -0.0833
 1728TIP3    H2 5191   1.051   2.231   1.267 -0.1611 -0.2757  0.0853
 1729TIP3   OH2 5192   5.165   5.788   4.620  0.4805 -0.0905 -0.1736
 1729TIP3    H1 5193   5.187   5.816   4.709  0.0925 -0.4436  0.0345
 1729TIP3    H2 5194   5.239   5.819   4.567  0.7864 -0.0052  0.2925
 1730TIP3   OH2 5195   4.168   0.970   2.965 -0.2355  0.0698  0.2985
 1730TIP3    H1 5196   4.258   0.992   2.990 -0.1450 -0.1276  0.1450
 1730TIP3    H2 5197   4.175   0.936   2.876 -0.3901 -0.4794  0.4916
 1731TIP3   OH2 5198   5.896   2.669   1.810  0.2360 -0.2318 -0.0927
 1731TIP3    H1 5199   5.943   2.649   1.892  1.5087 -0.0647 -0.7560
 1731TIP3    H2 5200   5.964   2.698   1.750 -0.5627 -1.0790 -1.4639
 1732TIP3   OH2 5201   2.400   5.092   0.230 -0.9089 -0.0014  0.3682
 1732TIP3    H1 5202   2.415   5.140   0.149  0.4649 -1.4414 -0.2843
 1732TIP3    H2 5203   2.316   5.124   0.262 -1.1047  1.1589 -1.2102
 1733TIP3   OH2 5204   0.196   3.855   4.613 -0.0542  0.2155 -0.5335
 1733TIP3    H1 5205   0.249   3.824   4.540  0.1705 -1.5865  0.3217
 1733TIP3    H2 5206   0.106   3.835   4.587  0.0734 -1.0206 -0.0822
 1734TIP3   OH2 5207   2.318   3.486   1.589 -0.9698  0.3971 -0.8718
 1734TIP3    H1 5208   2.341   3.524   1.504  0.2959 -0.2308 -0.8379
 1734TIP3    H2 5209   2.402   3.463   1.628 -1.6324 -1.6877 -0.5659
 1735TIP3   OH2 5210   4.399   0.874   1.103  0.0571 -0.3773 -0.5470
 1735TIP3    H1 5211   4.477   0.882   1.158  0.4410 -1.4546 -0.9196
 1735TIP3    H2 5212   4.354   0.797   1.136 -0.3411 -0.3240 -0.9630
 1736TIP3   OH2 5213   4.144   4.318   4.772  0.0100 -0.1980 -0.5568
 1736TIP3    H1 5214   4.226   4.362   4.750 -0.0842  0.5370  0.5392
 1736TIP3    H2 5215   4.103   4.300   4.687  0.3108  1.3304 -1.0498
 1737TIP3   OH2 5216   4.118   2.066   4.485 -0.2700 -0.4060  0.6196
 1737TIP3    H1 5217   4.090   2.144   4.437 -0.1588 -0.9586 -0.3714
 1737TIP3    H2 5218   4.063   2.064   4.563  0.6861  1.4445  1.4022
 1738TIP3   OH2 5219   4.355   3.841   4.530  0.3843  0.0359  0.7870
 1738TIP3    H1 5220   4.305   3.923   4.528  0.6553  0.2126  1.2890
 1738TIP3    H2 5221   4.294   3.776   4.495  0.7597  0.7494 -1.3529
 1739TIP3   OH2 5222   3.589   3.478   4.347  0.4089 -0.4098 -0.5385
 1739TIP3    H1 5223   3.535   3.431   4.410  2.5287 -0.0893  1.7068
 1739TIP3    H2 5224   3.676   3.480   4.387  1.6352  0.8497 -2.9940
 1740TIP3   OH2 5225   2.724   1.550   0.724  0.2721  0.5898 -0.5489
 1740TIP3    H1 5226   2.719   1.646   0.723  0.3322  0.6011  0.0525
 1740TIP3    H2 5227   2.806   1.530   0.769 -1.2025  0.2508  2.2123
 1741TIP3   OH2 5228   5.447   2.333   1.887 -0.1024  0.3896  0.0348
 1741TIP3    H1 5229   5.540   2.356   1.889  0.3153 -1.1721  1.3860
 1741TIP3    H2 5230   5.418   2.356   1.799  1.9405 -0.3865 -0.9071
 1742TIP3   OH2 5231   2.563   1.214   0.484 -0.2556  0.0755  0.0652
 1742TIP3    H1 5232   2.506   1.249   0.416 -1.0033  1.9807  1.5845
 1742TIP3    H2 5233   2.645   1.193   0.439 -1.4720 -0.9002 -1.8024
 1743TIP3   OH2 5234   2.702   3.820   4.537  0.2365  0.0205  0.1618
 1743TIP3    H1 5235   2.725   3.738   4.492 -1.0962 -2.1356  3.0886
 1743TIP3    H2 5236   2.786   3.860   4.559  0.9959 -1.7048  0.5484
 1744TIP3   OH2 5237   3.630   1.503   2.184  0.0691 -0.0021 -0.5921
 1744TIP3    H1 5238   3.702   1.561   2.206 -0.3165  0.2503  0.0531
 1744TIP3    H2 5239   3.641   1.428   2.242 -0.2363  0.0810 -0.4232
 1745TIP3   OH2 5240   2.504   2.752   3.468 -0.0596 -0.2115  0.4319
 1745TIP3    H1 5241   2.534   2.666   3.498  1.3473  0.5912  1.4003
 1745TIP3    H2 5242   2.525   2.812   3.540 -2.9427  0.6564  0.7007
 1746TIP3   OH2 5243   5.050   0.271   2.579 -0.0869  0.1957 -0.1523
 1746TIP3    H1 5244   5.079   0.279   2.489  0.5353 -1.4735 -0.1377
 1746TIP3    H2 5245   5.058   0.359   2.616  1.9573  0.4202 -1.0397
 1747TIP3   OH2 5246   2.402   4.505   3.324  0.1764  0.3819 -0.5496
 1747TIP3    H1 5247   2.378   4.508   3.417 -0.0897  1.0112 -0.6269
 1747TIP3    H2 5248   2.364   4.586   3.288 -0.0759 -0.0576 -1.2898
 1748TIP3   OH2 5249   1.869   4.715   0.724  0.0795  0.6838 -0.1999
 1748TIP3    H1 5250   1.881   4.678   0.812  0.3478  1.4010  0.0743
 1748TIP3    H2 5251   1.808   4.788   0.738  1.8292  2.2208 -0.2185
 1749TIP3   OH2 5252   1.232   2.612   4.311  0.6184 -0.1684  0.6337
 1749TIP3    H1 5253   1.312   2.585   4.266  1.1264 -0.0615  1.4464
 1749TIP3    H2 5254   1.201   2.532   4.354  0.3820 -0.1681  0.4665
 1750TIP3   OH2 5255   5.863   2.008   0.439 -0.3659 -0.4476  0.1828
 1750TIP3    H1 5256   5.875   2.089   0.488  2.5843  0.1367 -1.2408
 1750TIP3    H2 5257   5.784   1.969   0.475 -0.5309  1.8452  2.6053
 1751TIP3   OH2 5258   0.842   0.809   1.168  0.1543 -0.0674 -0.5576
 1751TIP3    H1 5259   0.917   0.789   1.224 -0.3138 -0.0796  0.0736
 1751TIP3    H2 5260   0.772   0.832   1.229 -0.8714 -1.7348 -1.0327
 1752TIP3   OH2 5261   1.737   3.842   3.845  0.3254 -0.2999 -0.1276
 1752TIP3    H1 5262   1.756   3.935   3.858 -1.4587  0.0392  0.3652
 1752TIP3    H2 5263   1.730   3.832   3.750  1.3673 -0.1303 -0.2316
 1753TIP3   OH2 5264   3.508   3.858   2.078  0.5798  0.1734  0.3287
 1753TIP3    H1 5265   3.492   3.881   1.986  2.0233  1.3142  0.3221
 1753TIP3    H2 5266   3.569   3.785   2.074 -2.1841 -2.3718  0.4005
 1754TIP3   OH2 5267   6.058   3.023   5.042 -0.7123 -0.1001  0.1736
 1754TIP3    H1 5268   6.014   2.974   4.973 -0.4331 -0.1601  0.0337
 1754TIP3    H2 5269   5.991   3.081   5.078 -0.3796  1.5127 -1.5866
 1755TIP3   OH2 5270   2.830   0.530   1.615 -0.8542  0.4387  0.2603
 1755TIP3    H1 5271   2.782   0.508   1.535  2.4477 -0.6635 -1.6547
 1755TIP3    H2 5272   2.821   0.453   1.671  0.9933 -1.1147 -1.4004
 1756TIP3   OH2 5273   3.405   5.568   1.686  0.6203 -0.0448 -0.4049
 1756TIP3    H1 5274   3.417   5.512   1.762 -0.3654  2.4702  1.7837
 1756TIP3    H2 5275   3.340   5.633   1.714  0.6134  1.3498 -3.2234
 1757TIP3   OH2 5276   4.796   0.058   1.245  0.2568  0.0656  0.2136
 1757TIP3    H1 5277   4.756   0.034   1.329  0.7533 -0.7684  0.2203
 1757TIP3    H2 5278   4.791   0.153   1.243 -0.7379  0.0408  0.7048
 1758TIP3   OH2 5279   1.844   5.667   1.207 -0.5826  0.0229 -0.0825
 1758TIP3    H1 5280   1.934   5.640   1.194 -1.0972 -2.1954  0.4726
 1758TIP3    H2 5281   1.846   5.763   1.200  2.2076  0.2718  2.3159
 1759TIP3   OH2 5282   5.611   3.945   0.516  0.0271  0.0694 -0.3201
 1759TIP3    H1 5283   5.645   3.897   0.592 -5.0053 -0.0388  2.2456
 1759TIP3    H2 5284   5.639   4.036   0.531 -1.7642  0.2752  2.4614
 1760TIP3   OH2 5285   1.974   2.488   3.637 -0.0503 -0.0411 -0.3161
 1760TIP3    H1 5286   2.054   2.490   3.584  0.6177 -0.5033  0.6495
 1760TIP3    H2 5287   1.930   2.407   3.611 -0.4954  0.4877 -1.2491
 1761TIP3   OH2 5288   0.231   4.750   5.010  0.2328 -0.0589  0.2775
 1761TIP3    H1 5289   0.170   4.704   4.952 -0.6551 -1.2300  2.0627
 1761TIP3    H2 5290   0.316   4.709   4.993 -0.0992 -0.7019  0.1292
 1762TIP3   OH2 5291   1.775   3.245   1.832 -0.0831  0.0423  0.3505
 1762TIP3    H1 5292   1.795   3.179   1.898 -0.4159 -1.6039 -1.1502
 1762TIP3    H2 5293   1.693   3.217   1.792  0.2958  0.7801 -1.0363
 1763TIP3   OH2 5294   5.157   2.095   1.403  0.4105 -0.0064 -0.1681
 1763TIP3    H1 5295   5.072   2.064   1.371  0.7616  0.4394 -1.6295
 1763TIP3    H2 5296   5.161   2.186   1.375  1.8714 -0.3631 -1.2948
 1764TIP3   OH2 5297   0.793   4.476   0.288 -0.2470 -0.4037 -0.5008
 1764TIP3    H1 5298   0.740   4.421   0.230  1.2210 -2.0939 -0.3015
 1764TIP3    H2 5299   0.835   4.539   0.230 -0.1947 -0.9329 -1.0471
 1765TIP3   OH2 5300   1.044   2.703   2.308  0.4751  0.0012 -0.2568
 1765TIP3    H1 5301   1.030   2.724   2.216 -1.3464  2.5011  0.4841
 1765TIP3    H2 5302   0.956   2.684   2.342  1.1564 -1.2640  0.9054
 1766TIP3   OH2 5303   4.173   4.192   2.539  0.5671 -0.4328 -0.3633
 1766TIP3    H1 5304   4.102   4.252   2.515  0.7573 -0.2859 -0.5589
 1766TIP3    H2 5305   4.173   4.194   2.635 -0.3941 -1.2584 -0.3308
 1767TIP3   OH2 5306   0.099   2.440   3.223 -0.0111 -0.1998  0.6256
 1767TIP3    H1 5307   0.004   2.437   3.216 -0.0461  0.6284  0.6344
 1767TIP3    H2 5308   0.126   2.349   3.218 -0.9336 -0.6323  2.4283
 1768TIP3   OH2 5309   4.055   1.405   4.798  0.2759 -0.4341  0.2024
 1768TIP3    H1 5310   4.130   1.419   4.856  0.0083 -0.3400  0.5268
 1768TIP3    H2 5311   4.066   1.471   4.729  1.3343 -1.4355 -0.6126
 1769TIP3   OH2 5312   0.635   4.542   0.914 -0.2488 -0.3384 -0.4874
 1769TIP3    H1 5313   0.628   4.583   1.000  3.5654  0.6011 -0.4383
 1769TIP3    H2 5314   0.565   4.583   0.863 -0.4292  1.7295  1.2501
 1770TIP3   OH2 5315   5.166   0.633   1.799  0.1287  0.4514 -0.1046
 1770TIP3    H1 5316   5.185   0.725   1.818 -0.2906  0.3523  0.8788
 1770TIP3    H2 5317   5.073   0.631   1.778  0.5062  0.4923 -1.8776
 1771TIP3   OH2 5318   3.454   2.191   2.196  0.0629  0.3821 -0.3080
 1771TIP3    H1 5319   3.438   2.285   2.196  0.1207  0.3951 -0.6243
 1771TIP3    H2 5320   3.521   2.179   2.129  1.3703  0.3318  0.9654
 1772TIP3   OH2 5321   2.054   2.494   4.195  0.0232  0.1780  0.0750
 1772TIP3    H1 5322   2.096   2.489   4.109 -0.3751 -0.4781 -0.0852
 1772TIP3    H2 5323   2.052   2.587   4.215 -1.7536  0.5484 -1.5523
 1773TIP3   OH2 5324   0.284   4.957   4.829 -0.8988 -0.0724 -0.3797
 1773TIP3    H1 5325   0.252   4.882   4.880 -1.4871 -0.3582 -1.1525
 1773TIP3    H2 5326   0.234   5.032   4.861  1.5208  0.5790  2.3019
 1774TIP3   OH2 5327   5.726   3.750   0.301 -0.1086 -0.6512 -0.1109
 1774TIP3    H1 5328   5.674   3.749   0.381  1.1411 -0.3084  0.7475
 1774TIP3    H2 5329   5.802   3.803   0.323 -0.1864  0.2330 -1.8420
 1775TIP3   OH2 5330   3.693   1.472   0.956 -0.0667  0.7735 -0.2320
 1775TIP3    H1 5331   3.784   1.470   0.925 -0.3925  2.0452 -1.3613
 1775TIP3    H2 5332   3.673   1.565   0.967 -1.6014  0.5989 -1.2148
 1776TIP3   OH2 5333   2.433   1.946   3.069  0.0682  0.4292  0.1416
 1776TIP3    H1 5334   2.343   1.974   3.088 -0.4813 -1.3982  0.3885
 1776TIP3    H2 5335   2.450   1.979   2.981 -1.9189 -1.5876 -1.0718
 1777TIP3   OH2 5336   4.949   2.660   2.881  0.4149 -0.2645  0.1231
 1777TIP3    H1 5337   4.915   2.587   2.931  1.1633  0.4418  1.7181
 1777TIP3    H2 5338   4.953   2.628   2.791 -0.7634 -1.6301  0.5371
 1778TIP3   OH2 5339   6.339   3.474   2.078 -0.0694  0.9119 -0.0729
 1778TIP3    H1 5340   6.315   3.386   2.107  1.0882  0.5057 -0.3043
 1778TIP3    H2 5341   6.289   3.532   2.135 -2.5188  0.1396 -1.2726
 1779TIP3   OH2 5342   4.115   2.251   2.956  0.1228  0.3807 -0.3700
 1779TIP3    H1 5343   4.046   2.236   3.020  0.8897 -0.0693  0.3630
 1779TIP3    H2 5344   4.103   2.342   2.928 -0.3932  0.4865  0.1965
 1780TIP3   OH2 5345   2.898   3.501   4.157 -0.7027  0.3932  0.0238
 1780TIP3    H1 5346   2.819   3.533   4.113 -0.6546 -0.9964 -1.1484
 1780TIP3    H2 5347   2.903   3.408   4.134 -0.0710 -0.1586  2.1365
 1781TIP3   OH2 5348   0.490   5.922   1.145  0.2129  0.1939 -0.1016
 1781TIP3    H1 5349   0.410   5.870   1.156  0.8522 -0.6554  0.7348
 1781TIP3    H2 5350   0.474   5.976   1.068 -1.8120  1.2764  0.9950
 1782TIP3   OH2 5351   5.462   3.566   3.908  0.3626 -0.1572 -0.5661
 1782TIP3    H1 5352   5.422   3.510   3.841 -0.0437 -4.2774  2.6986
 1782TIP3    H2 5353   5.553   3.539   3.911  0.4389  0.1698  0.3092
 1783TIP3   OH2 5354   4.745   3.252   4.032  0.1192  0.1534 -0.0310
 1783TIP3    H1 5355   4.662   3.243   3.985  2.1760 -0.3525 -3.9983
 1783TIP3    H2 5356   4.755   3.346   4.047  0.1560  0.5761 -2.3863
 1784TIP3   OH2 5357   3.816   4.461   2.156 -0.1505 -0.3176  0.0201
 1784TIP3    H1 5358   3.801   4.517   2.080  1.8152  0.2425 -0.0189
 1784TIP3    H2 5359   3.785   4.375   2.129  1.2356 -0.3198 -1.7713
 1785TIP3   OH2 5360   3.930   4.723   2.722  0.2938  0.9965 -0.3127
 1785TIP3    H1 5361   3.970   4.736   2.636 -0.4289  1.0979 -0.6412
 1785TIP3    H2 5362   3.837   4.739   2.708  0.0803  0.4135  0.3605
 1786TIP3   OH2 5363   1.675   4.162   1.733 -0.0860 -0.1187 -0.2039
 1786TIP3    H1 5364   1.669   4.238   1.676 -2.6808 -0.0066  0.1049
 1786TIP3    H2 5365   1.677   4.087   1.673  1.9565  0.1230 -0.4917
 1787TIP3   OH2 5366   3.245   0.474   2.923  0.4775 -0.0857 -0.4407
 1787TIP3    H1 5367   3.299   0.430   2.988  0.3447  0.5367  0.1080
 1787TIP3    H2 5368   3.155   0.449   2.945  0.4311  0.1354 -0.3739
 1788TIP3   OH2 5369   5.023   2.906   1.467 -0.1045  0.3618 -0.1559
 1788TIP3    H1 5370   5.043   2.821   1.429  0.0567  0.5580 -0.5164
 1788TIP3    H2 5371   5.086   2.966   1.427 -0.2662  0.6657  0.0348
 1789TIP3   OH2 5372   4.634   0.915   1.242 -0.0988 -0.0051 -0.6984
 1789TIP3    H1 5373   4.632   1.011   1.237  1.2350 -0.0282 -2.4279
 1789TIP3    H2 5374   4.667   0.896   1.330 -2.2156  1.0346  0.4161
 1790TIP3   OH2 5375   5.611   5.497   0.961  0.4602 -0.2654 -0.5774
 1790TIP3    H1 5376   5.695   5.518   1.002  0.9526 -0.6734 -1.3690
 1790TIP3    H2 5377   5.549   5.491   1.034  0.0160  4.7706 -0.1825
 1791TIP3   OH2 5378   5.606   3.378   5.117  0.0273  0.5796  0.0710
 1791TIP3    H1 5379   5.569   3.407   5.201 -0.0098  1.5184 -0.2602
 1791TIP3    H2 5380   5.634   3.459   5.074 -1.2829  0.2779 -1.4602
 1792TIP3   OH2 5381   1.960   0.291   0.527 -0.0130  0.5453 -0.4435
 1792TIP3    H1 5382   2.004   0.375   0.535 -2.1165  1.8928 -1.9812
 1792TIP3    H2 5383   1.899   0.289   0.602  1.3125 -0.5088  0.6594
 1793TIP3   OH2 5384   0.107   0.055   1.886 -0.5150 -0.5545 -0.2135
 1793TIP3    H1 5385   0.117  -0.022   1.830  0.0904  0.3031 -1.3024
 1793TIP3    H2 5386   0.148   0.126   1.837 -3.2467  1.0218 -0.3941
 1794TIP3   OH2 5387   3.017   2.334   4.412 -0.7251 -0.4764 -0.4168
 1794TIP3    H1 5388   3.112   2.327   4.422 -0.7972 -1.4706 -0.2848
 1794TIP3    H2 5389   3.005   2.375   4.326 -0.1721  0.0079 -0.2650
 1795TIP3   OH2 5390   2.445   1.473   4.834 -0.2601  0.4270 -0.2522
 1795TIP3    H1 5391   2.375   1.410   4.818  0.7814 -1.5496  2.2339
 1795TIP3    H2 5392   2.400   1.549   4.873 -1.1463 -0.2692  0.1183
 1796TIP3   OH2 5393   2.252   4.016   2.187 -0.0096 -0.1412  0.1016
 1796TIP3    H1 5394   2.266   4.004   2.281 -2.6314  2.4384  0.9788
 1796TIP3    H2 5395   2.197   3.942   2.162 -0.4207 -0.1342  0.9383
 1797TIP3   OH2 5396   5.121   1.465   0.728  0.7663 -0.2289  0.0063
 1797TIP3    H1 5397   5.132   1.422   0.643  0.5543 -0.6769  0.1994
 1797TIP3    H2 5398   5.105   1.393   0.790 -1.4343  0.1930  0.0407
 1798TIP3   OH2 5399   1.236   3.967   4.663  0.0046 -0.2488  0.0824
 1798TIP3    H1 5400   1.289   3.905   4.613 -1.8708 -0.9073 -1.1783
 1798TIP3    H2 5401   1.216   4.037   4.601 -0.7801 -0.1287  0.4549
 1799TIP3   OH2 5402   6.183   0.031   2.997  1.0011  0.1546  0.5852
 1799TIP3    H1 5403   6.126   0.094   3.041 -0.6909 -1.0504  0.2141
 1799TIP3    H2 5404   6.223  -0.019   3.068  1.4300  0.8459  0.8417
 1800TIP3   OH2 5405   5.056   3.675   0.688  0.1211 -0.4896 -0.1676
 1800TIP3    H1 5406   5.108   3.641   0.616 -2.3177  1.4440 -3.1299
 1800TIP3    H2 5407   4.967   3.646   0.668 -0.7004  0.4700  1.8729
 1801TIP3   OH2 5408   1.152   4.948   2.681  0.7405  0.5227  0.2035
 1801TIP3    H1 5409   1.171   4.855   2.669 -2.4073 -0.2974  0.5882
 1801TIP3    H2 5410   1.168   4.987   2.595  2.5879 -0.2150  0.1621
 1802TIP3   OH2 5411   5.583   5.980   2.931  0.3259  0.1679  0.5491
 1802TIP3    H1 5412   5.580   5.892   2.967  1.9915  0.5237  1.6519
 1802TIP3    H2 5413   5.659   5.979   2.872  0.8527  1.0828  1.2003
 1803TIP3   OH2 5414   5.693   0.532   4.244 -0.6219  0.5137  0.0797
 1803TIP3    H1 5415   5.733   0.619   4.250 -0.0373  0.3244 -0.7343
 1803TIP3    H2 5416   5.619   0.534   4.305 -1.6181  2.1234 -1.1113
 1804TIP3   OH2 5417   1.801   2.810   2.461  0.1166  0.2018 -0.1411
 1804TIP3    H1 5418   1.724   2.808   2.404 -0.9217 -0.0242  1.2075
 1804TIP3    H2 5419   1.869   2.765   2.411 -1.0570 -0.9542 -0.7767
 1805TIP3   OH2 5420   1.403   2.765   5.122  0.1692 -0.3664  0.0435
 1805TIP3    H1 5421   1.361   2.834   5.174 -0.0702  0.7275 -1.5366
 1805TIP3    H2 5422   1.490   2.754   5.163 -0.1899  0.0882  0.9666
 1806TIP3   OH2 5423   2.157   3.546   3.760  0.1031 -0.4695 -0.5696
 1806TIP3    H1 5424   2.200   3.600   3.827 -0.6980  2.5610 -2.3108
 1806TIP3    H2 5425   2.227   3.523   3.700  0.6610 -2.4665  0.7520
 1807TIP3   OH2 5426   4.079   1.866   0.838 -0.1378 -0.3048 -0.4011
 1807TIP3    H1 5427   4.125   1.905   0.764  0.5189  2.4758  1.3284
 1807TIP3    H2 5428   4.149   1.840   0.899 -0.7125 -0.1218  0.3513
 1808TIP3   OH2 5429   4.266   4.760   1.911  0.1941  0.3959 -0.2097
 1808TIP3    H1 5430   4.361   4.768   1.900  0.5068 -0.7301  1.3656
 1808TIP3    H2 5431   4.233   4.849   1.903  1.3757  0.8070 -0.7212
 1809TIP3   OH2 5432   3.311   2.355   4.343  0.8990  0.0812 -0.5588
 1809TIP3    H1 5433   3.382   2.305   4.303 -0.5562 -1.1617 -1.7235
 1809TIP3    H2 5434   3.272   2.404   4.270  1.0731  1.4471  0.2213
 1810TIP3   OH2 5435   0.345   0.777   3.368  0.5478 -0.0566 -0.7404
 1810TIP3    H1 5436   0.263   0.728   3.364  0.7556 -0.3942 -0.9867
 1810TIP3    H2 5437   0.376   0.765   3.458  0.2011  0.2845 -0.5746
 1811TIP3   OH2 5438   1.610   3.000   0.841  0.3856 -0.0888 -0.5277
 1811TIP3    H1 5439   1.643   2.917   0.807  0.9056  0.0305 -0.3150
 1811TIP3    H2 5440   1.681   3.035   0.894  0.4440  0.8472 -1.1985
 1812TIP3   OH2 5441   1.937   0.372   2.749 -0.3644 -0.2095 -0.0137
 1812TIP3    H1 5442   2.011   0.379   2.688 -0.9633 -0.1838 -0.7611
 1812TIP3    H2 5443   1.926   0.461   2.782  0.4121 -0.3645  0.6890
 1813TIP3   OH2 5444   0.579   4.682   4.608  0.1782  0.5526  0.0332
 1813TIP3    H1 5445   0.627   4.752   4.653 -1.0991  1.6579 -0.2736
 1813TIP3    H2 5446   0.487   4.697   4.632 -0.4584  0.6784 -2.2258
 1814TIP3   OH2 5447   4.611   4.898   4.156  0.1878  0.5677 -0.6041
 1814TIP3    H1 5448   4.643   4.819   4.112  0.1525  1.6880 -2.7807
 1814TIP3    H2 5449   4.517   4.901   4.137 -0.2098  0.1699  1.1098
 1815TIP3   OH2 5450   4.751   4.124   3.213 -0.2055 -0.0142 -0.2588
 1815TIP3    H1 5451   4.771   4.033   3.189 -0.1715  0.0382 -0.4312
 1815TIP3    H2 5452   4.656   4.130   3.204 -0.2440 -0.1243  0.0727
 1816TIP3   OH2 5453   5.295   3.683   3.549 -0.3408  0.0522 -0.0881
 1816TIP3    H1 5454   5.290   3.759   3.491  0.2245  0.7496  0.7504
 1816TIP3    H2 5455   5.387   3.657   3.547 -0.2599  0.2547  0.6991
 1817TIP3   OH2 5456   5.440   2.102   4.353 -0.0454 -0.5289  0.1412
 1817TIP3    H1 5457   5.441   2.142   4.440  0.7982  1.8472 -0.8891
 1817TIP3    H2 5458   5.367   2.145   4.308 -0.7830 -2.0822 -0.2321
 1818TIP3   OH2 5459   1.898   1.209   2.220 -0.1786  0.3362 -0.0134
 1818TIP3    H1 5460   1.853   1.235   2.140 -1.1580  0.8543  0.6963
 1818TIP3    H2 5461   1.923   1.291   2.262  0.5088  0.0657  0.1206
 1819TIP3   OH2 5462   4.607   1.200   1.713  0.2670 -0.4655  0.7414
 1819TIP3    H1 5463   4.534   1.196   1.651 -0.2117 -0.2615  1.2808
 1819TIP3    H2 5464   4.569   1.239   1.792  1.2407  0.8011  0.6191
 1820TIP3   OH2 5465   5.714   5.486   0.503  0.4010  0.0693  0.0414
 1820TIP3    H1 5466   5.680   5.431   0.433  0.2011 -0.9760  0.9301
 1820TIP3    H2 5467   5.718   5.574   0.465  1.7296 -0.7039 -1.7516
 1821TIP3   OH2 5468   0.117   4.906   1.923 -0.2917 -0.2684  0.3731
 1821TIP3    H1 5469   0.113   5.000   1.944 -0.4317 -0.0080 -0.7725
 1821TIP3    H2 5470   0.192   4.898   1.865 -1.2649 -0.5885 -0.8716
 1822TIP3   OH2 5471   5.809   5.146   3.332  0.4185  0.1800 -0.1949
 1822TIP3    H1 5472   5.848   5.061   3.309  0.7285  0.3693 -0.3603
 1822TIP3    H2 5473   5.714   5.131   3.323  0.3600 -0.6360  1.4104
 1823TIP3   OH2 5474   1.736   2.951   3.560  0.7495  0.0524 -0.3385
 1823TIP3    H1 5475   1.779   2.867   3.575 -1.2323 -1.3846 -1.9549
 1823TIP3    H2 5476   1.784   2.989   3.487  1.2775  0.0298 -0.0074
 1824TIP3   OH2 5477   6.318   2.606   2.791 -0.3685 -0.0930  0.2398
 1824TIP3    H1 5478   6.290   2.634   2.878 -2.7185 -0.8647 -0.1908
 1824TIP3    H2 5479   6.239   2.612   2.737  0.9308 -0.0044 -1.7670
 1825TIP3   OH2 5480   4.824   2.557   5.129  0.1864  0.1669 -0.2164
 1825TIP3    H1 5481   4.815   2.632   5.188 -1.5519 -0.2090  0.0746
 1825TIP3    H2 5482   4.918   2.538   5.127  0.4132  0.8884  1.5523
 1826TIP3   OH2 5483   5.781   1.359   3.868 -0.0675  0.4155  0.1113
 1826TIP3    H1 5484   5.788   1.406   3.785  2.0552  1.9585  1.0804
 1826TIP3    H2 5485   5.862   1.309   3.874 -0.4614 -0.1334  0.9962
 1827TIP3   OH2 5486   3.876   0.783   2.103  0.1042 -0.1456  0.0473
 1827TIP3    H1 5487   3.790   0.818   2.081 -1.5755 -3.1266  1.2842
 1827TIP3    H2 5488   3.880   0.789   2.199  0.4870 -1.6039  0.1442
 1828TIP3   OH2 5489   1.317   0.075   1.710 -0.1550  0.1294 -0.0562
 1828TIP3    H1 5490   1.251   0.089   1.642 -2.1422 -0.9584  1.5483
 1828TIP3    H2 5491   1.355  -0.010   1.689 -2.2746 -1.2396  1.2534
 1829TIP3   OH2 5492   1.398   1.710   0.426  0.0182 -0.0250  0.0641
 1829TIP3    H1 5493   1.407   1.619   0.452 -0.5339 -0.2775 -0.6081
 1829TIP3    H2 5494   1.329   1.710   0.360  0.4509  0.7958 -0.4042
 1830TIP3   OH2 5495   4.129   4.921   0.208  0.1508 -1.1172 -0.1394
 1830TIP3    H1 5496   4.100   4.935   0.299 -0.2071 -0.5244 -0.3447
 1830TIP3    H2 5497   4.079   4.845   0.179  0.6390 -1.6243  0.3227
 1831TIP3   OH2 5498   5.175   5.320   4.023 -0.3401 -0.1710  0.0332
 1831TIP3    H1 5499   5.188   5.226   4.038  0.8765  0.0043  0.1200
 1831TIP3    H2 5500   5.191   5.360   4.108  3.9907  0.5613 -0.8867
 1832TIP3   OH2 5501   4.602   5.722   3.405 -0.3330  0.9582 -0.7422
 1832TIP3    H1 5502   4.695   5.701   3.411 -0.4752  0.4346 -0.3585
 1832TIP3    H2 5503   4.584   5.775   3.482 -0.5256  0.3883 -0.3878
 1833TIP3   OH2 5504   4.899   3.210   0.244 -0.2613  0.5272 -0.1932
 1833TIP3    H1 5505   4.986   3.181   0.274 -1.0190  0.3583  2.0033
 1833TIP3    H2 5506   4.915   3.295   0.204  0.8823  0.6338  0.4475
 1834TIP3   OH2 5507   0.596   0.997   2.385 -0.1948 -0.5318 -0.2910
 1834TIP3    H1 5508   0.564   0.963   2.468 -0.1833 -1.1564 -0.5364
 1834TIP3    H2 5509   0.663   0.934   2.357  0.6044  0.2566 -0.2352
 1835TIP3   OH2 5510   2.797   3.257   1.139  0.0462  0.0205  0.1042
 1835TIP3    H1 5511   2.728   3.301   1.090 -0.7184  1.1790  2.1306
 1835TIP3    H2 5512   2.863   3.324   1.154  0.8619 -0.6472 -0.3544
 1836TIP3   OH2 5513   3.586   0.420   1.332  0.4513  0.3141 -0.5062
 1836TIP3    H1 5514   3.663   0.466   1.364  0.3121  0.6424 -0.6299
 1836TIP3    H2 5515   3.582   0.443   1.239 -0.1745  0.8654 -0.3573
 1837TIP3   OH2 5516   1.479   5.251   1.865  0.2754 -0.0178  0.2909
 1837TIP3    H1 5517   1.476   5.343   1.893  1.9580  0.2204 -0.2218
 1837TIP3    H2 5518   1.444   5.203   1.940 -2.9663  1.1433 -0.3003
 1838TIP3   OH2 5519   3.657   3.415   3.564  0.0679  0.1617  0.4089
 1838TIP3    H1 5520   3.639   3.404   3.657  1.8301 -0.5337  0.7214
 1838TIP3    H2 5521   3.734   3.360   3.549 -1.5124 -1.5836 -1.9810
 1839TIP3   OH2 5522   4.476   6.017   5.070 -0.2550 -0.1970  0.8364
 1839TIP3    H1 5523   4.391   5.974   5.080 -0.7767 -0.3186 -2.7235
 1839TIP3    H2 5524   4.535   5.948   5.040  0.3041  0.4966  0.3089
 1840TIP3   OH2 5525   1.921   1.318   4.061 -0.4760  0.2535  0.1937
 1840TIP3    H1 5526   1.975   1.289   4.134  1.1511  0.4208 -0.8697
 1840TIP3    H2 5527   1.832   1.320   4.095  0.1408 -0.3624  1.9377
 1841TIP3   OH2 5528   0.440   5.014   4.574  0.5140  0.0534 -0.0977
 1841TIP3    H1 5529   0.416   4.984   4.662  2.1822 -0.0571  0.3603
 1841TIP3    H2 5530   0.488   5.096   4.589  1.2240 -0.2099 -0.8470
 1842TIP3   OH2 5531   0.060   1.584   3.652 -0.2266  0.0600 -0.0155
 1842TIP3    H1 5532   0.108   1.506   3.677 -0.8066 -0.0892  0.6572
 1842TIP3    H2 5533   0.126   1.642   3.613  0.4122 -0.3072  0.5092
 1843TIP3   OH2 5534   2.217   4.552   4.381  0.2589  0.3227 -0.1948
 1843TIP3    H1 5535   2.273   4.480   4.352  0.8591  0.8538 -0.3799
 1843TIP3    H2 5536   2.180   4.522   4.464  1.1010  0.1056  0.1107
 1844TIP3   OH2 5537   5.777   0.929   3.239 -0.5015 -0.0505  0.0341
 1844TIP3    H1 5538   5.814   0.971   3.161 -1.2522  1.2346  0.3412
 1844TIP3    H2 5539   5.682   0.930   3.223 -0.6155 -0.4158  0.6611
 1845TIP3   OH2 5540   1.663   4.458   4.955 -0.0274  0.3621  0.5920
 1845TIP3    H1 5541   1.709   4.381   4.991  1.2740  0.7037 -0.2852
 1845TIP3    H2 5542   1.608   4.488   5.028 -1.4410 -2.0240  0.6414
 1846TIP3   OH2 5543   6.202   3.327   1.678  0.6384 -0.1008 -0.5728
 1846TIP3    H1 5544   6.194   3.413   1.720 -1.5059 -0.6902  0.3440
 1846TIP3    H2 5545   6.296   3.307   1.682  0.9102  1.3123  1.0254
 1847TIP3   OH2 5546   1.514   0.731   1.762  0.2435  0.0359 -0.4949
 1847TIP3    H1 5547   1.433   0.680   1.763  0.7633 -0.8521 -1.6119
 1847TIP3    H2 5548   1.578   0.673   1.722  0.8223  1.6358 -2.0255
 1848TIP3   OH2 5549   1.474   2.681   2.472  0.2438 -0.4568  0.2501
 1848TIP3    H1 5550   1.563   2.645   2.464 -0.0701 -0.9462 -1.3691
 1848TIP3    H2 5551   1.469   2.747   2.403 -1.0151 -1.2545 -0.4588
 1849TIP3   OH2 5552   2.176   0.456   0.250  0.4714 -0.6193  0.0176
 1849TIP3    H1 5553   2.216   0.442   0.335 -0.7162  0.8927  0.9004
 1849TIP3    H2 5554   2.111   0.386   0.241 -0.1745 -0.1564  0.9004
 1850TIP3   OH2 5555   0.097   5.995   3.989 -0.3722 -0.6393 -0.5942
 1850TIP3    H1 5556   0.100   5.925   3.923  0.5233 -2.1853  1.0003
 1850TIP3    H2 5557   0.187   6.002   4.020 -0.9929 -0.9831  1.4491
 1851TIP3   OH2 5558   6.252   4.299   3.177  0.6048 -0.3908 -0.3292
 1851TIP3    H1 5559   6.190   4.368   3.200  0.4196 -0.9282  0.8148
 1851TIP3    H2 5560   6.245   4.291   3.082 -0.4260  0.1633 -0.3040
 1852TIP3   OH2 5561   4.720   4.519   0.940  0.2895 -0.0057  0.1936
 1852TIP3    H1 5562   4.799   4.501   0.991  0.1808  0.6567  0.6011
 1852TIP3    H2 5563   4.750   4.518   0.849  0.7280  0.0282  0.3346
 1853TIP3   OH2 5564   3.677   5.644   1.911 -0.6505  0.8775  0.2985
 1853TIP3    H1 5565   3.762   5.680   1.935 -0.0268 -0.4994  0.2757
 1853TIP3    H2 5566   3.680   5.554   1.943 -2.1292  0.8183  0.3449
 1854TIP3   OH2 5567   1.432   3.261   2.208  0.2788 -0.2484 -0.1523
 1854TIP3    H1 5568   1.497   3.317   2.165  0.4049 -0.4105 -0.1751
 1854TIP3    H2 5569   1.368   3.322   2.245 -0.9649 -0.1517 -2.2972
 1855TIP3   OH2 5570   2.339   1.182   3.281 -0.7853  0.0074  0.3905
 1855TIP3    H1 5571   2.331   1.116   3.350  0.9252 -0.7687 -0.1068
 1855TIP3    H2 5572   2.409   1.240   3.312 -0.9517  0.4634 -0.0709
 1856TIP3   OH2 5573   2.736   3.908   3.933  0.0891  0.0516  0.2342
 1856TIP3    H1 5574   2.642   3.919   3.916 -0.1501 -0.6560  1.0688
 1856TIP3    H2 5575   2.749   3.948   4.019  1.0866  2.6179 -1.0109
 1857TIP3   OH2 5576   0.391   5.243   3.593 -0.5177 -0.0071  0.3670
 1857TIP3    H1 5577   0.345   5.160   3.580  0.5064 -0.4549 -0.5272
 1857TIP3    H2 5578   0.428   5.237   3.681  0.1475 -0.8009  0.0372
 1858TIP3   OH2 5579   2.200   5.892   0.318 -0.2839  0.4450  0.6024
 1858TIP3    H1 5580   2.110   5.869   0.340 -0.6718  0.2657 -1.0235
 1858TIP3    H2 5581   2.219   5.840   0.240  0.9201  1.1318  0.4152
 1859TIP3   OH2 5582   0.675   2.556   3.298  0.2546 -0.2327 -0.6331
 1859TIP3    H1 5583   0.689   2.470   3.258  0.7402  0.2434 -1.5154
 1859TIP3    H2 5584   0.711   2.618   3.235 -0.0946  0.6253 -0.0097
 1860TIP3   OH2 5585   1.588   1.904   1.508  0.3340  0.1055  0.5679
 1860TIP3    H1 5586   1.599   1.926   1.600 -0.6330  1.0536  0.4780
 1860TIP3    H2 5587   1.505   1.944   1.483  0.1549 -0.8598 -0.5031
 1861TIP3   OH2 5588   3.490   5.400   2.194 -0.3610  0.1257  0.4243
 1861TIP3    H1 5589   3.427   5.427   2.127 -0.0834  0.1815  0.1818
 1861TIP3    H2 5590   3.436   5.367   2.265 -0.7262  1.3014  0.7281
 1862TIP3   OH2 5591   3.252   3.623   5.040 -0.0281  0.3665  0.3361
 1862TIP3    H1 5592   3.253   3.717   5.059  0.5824  0.3043  0.6474
 1862TIP3    H2 5593   3.310   3.585   5.107 -0.2045 -0.2208  0.1607
 1863TIP3   OH2 5594   1.017   3.659   2.920 -0.3898 -0.2111  0.1601
 1863TIP3    H1 5595   0.985   3.569   2.918 -2.1055  0.3657 -1.4492
 1863TIP3    H2 5596   1.111   3.651   2.904 -0.4612 -1.7230  0.3445
 1864TIP3   OH2 5597   3.335   0.226   3.611  0.0441  0.3832  0.0360
 1864TIP3    H1 5598   3.241   0.211   3.610  0.2165 -1.8905  3.2266
 1864TIP3    H2 5599   3.369   0.166   3.544 -0.6344 -0.5519  0.5078
 1865TIP3   OH2 5600   0.359   1.771   1.498  0.1066 -0.0488  0.2225
 1865TIP3    H1 5601   0.432   1.738   1.446 -0.1286  1.9131 -1.5007
 1865TIP3    H2 5602   0.296   1.801   1.433 -0.9247  1.0292  1.6703
 1866TIP3   OH2 5603   1.997   4.665   3.227  0.0332  0.1113  0.7536
 1866TIP3    H1 5604   1.980   4.758   3.212  1.2222  0.4716  1.4314
 1866TIP3    H2 5605   2.038   4.634   3.146 -1.5141 -0.1571  0.0482
 1867TIP3   OH2 5606   3.565   1.727   0.885 -0.0340 -0.1237  0.7105
 1867TIP3    H1 5607   3.516   1.773   0.818 -0.6119 -1.0812  0.4561
 1867TIP3    H2 5608   3.655   1.758   0.875 -0.1513 -0.0969 -0.3633
 1868TIP3   OH2 5609   2.674   0.597   0.368  0.0955  0.3178  0.5155
 1868TIP3    H1 5610   2.672   0.516   0.419  1.5100  0.9133  1.5698
 1868TIP3    H2 5611   2.703   0.569   0.281 -2.7025 -0.7615 -0.1909
 1869TIP3   OH2 5612   5.799   4.341   1.166  0.1908 -0.3802  0.2849
 1869TIP3    H1 5613   5.825   4.412   1.226 -0.7106 -0.7827  1.1953
 1869TIP3    H2 5614   5.782   4.385   1.083  0.6065  0.3351  0.5665
 1870TIP3   OH2 5615   0.682   0.065   5.122 -0.4064  0.1597  0.2548
 1870TIP3    H1 5616   0.612   0.126   5.145 -2.3065 -1.3935 -1.0757
 1870TIP3    H2 5617   0.728   0.049   5.204 -1.8970  0.9005  1.2773
 1871TIP3   OH2 5618   4.183   3.257   2.845  0.4817 -0.0241  0.2066
 1871TIP3    H1 5619   4.155   3.348   2.837  1.3020  0.2134 -0.0998
 1871TIP3    H2 5620   4.273   3.257   2.811  0.8373 -0.7617  1.1301
 1872TIP3   OH2 5621   2.604   5.951   2.250  0.2743  0.3992 -0.4653
 1872TIP3    H1 5622   2.667   5.985   2.313 -0.7057 -0.4653  1.0503
 1872TIP3    H2 5623   2.653   5.886   2.199  0.4034 -1.0953  1.4407
 1873TIP3   OH2 5624   2.320   4.806   1.826  0.7044 -0.2940 -0.0663
 1873TIP3    H1 5625   2.261   4.758   1.769  0.3554 -1.6902  1.3785
 1873TIP3    H2 5626   2.327   4.893   1.787 -0.2184 -0.9129 -1.6912
 1874TIP3   OH2 5627   4.607   0.185   3.813 -0.1452 -0.0845  0.8302
 1874TIP3    H1 5628   4.572   0.102   3.847  1.3706 -0.2494  2.0696
 1874TIP3    H2 5629   4.687   0.200   3.863 -1.1551  2.9240  1.7757
 1875TIP3   OH2 5630   5.893   1.854   2.626 -0.4136  0.3043  0.0199
 1875TIP3    H1 5631   5.864   1.936   2.667 -2.6442  1.2066 -2.9680
 1875TIP3    H2 5632   5.811   1.807   2.607  0.7603 -2.1613  0.6230
 1876TIP3   OH2 5633   4.830   4.034   2.913  0.3203  0.1605 -0.6536
 1876TIP3    H1 5634   4.895   4.061   2.849  0.0744 -0.0674 -1.0030
 1876TIP3    H2 5635   4.752   4.084   2.892  0.5622  0.9098  0.1647
 1877TIP3   OH2 5636   0.777   1.022   3.365 -0.0885  0.1219  0.4033
 1877TIP3    H1 5637   0.759   0.979   3.281 -2.0399 -0.4866  1.0673
 1877TIP3    H2 5638   0.832   0.960   3.412  0.5343  0.2071 -0.1994
 1878TIP3   OH2 5639   3.170   3.901   3.419 -0.6348  0.3902  0.1019
 1878TIP3    H1 5640   3.266   3.896   3.418 -0.6571 -0.0327 -1.2789
 1878TIP3    H2 5641   3.151   3.995   3.425 -0.1826  0.4090  2.5608
 1879TIP3   OH2 5642   0.417   5.684   2.027 -0.3849  0.0225 -0.5865
 1879TIP3    H1 5643   0.440   5.665   2.118 -0.8352 -1.6580 -0.7953
 1879TIP3    H2 5644   0.363   5.763   2.032  2.8340  2.4121  0.1822
 1880TIP3   OH2 5645   1.251   4.460   0.135  0.3226 -0.0749  0.4251
 1880TIP3    H1 5646   1.282   4.390   0.193 -0.9445 -0.9014  0.1533
 1880TIP3    H2 5647   1.297   4.538   0.165  0.2346 -0.6217  2.0885
 1881TIP3   OH2 5648   0.833   0.586   0.092  0.9027 -0.3252  0.1859
 1881TIP3    H1 5649   0.842   0.496   0.124  0.8965 -0.3776  0.0394
 1881TIP3    H2 5650   0.921   0.622   0.099  1.1023 -0.6396 -0.6497
 1882TIP3   OH2 5651   4.074   2.754   4.521 -0.0998 -0.2336 -0.1959
 1882TIP3    H1 5652   4.078   2.659   4.525 -0.2430 -0.2160  0.5573
 1882TIP3    H2 5653   4.156   2.780   4.479 -0.5374 -0.7301 -1.4013
 1883TIP3   OH2 5654   2.487   0.617   5.054 -0.0882 -0.6245 -0.2200
 1883TIP3    H1 5655   2.474   0.634   5.147 -1.2251 -0.0237 -0.4676
 1883TIP3    H2 5656   2.442   0.534   5.039 -0.3381 -0.4676 -0.3344
 1884TIP3   OH2 5657   0.299   0.561   1.600 -0.1150 -0.2717 -0.1892
 1884TIP3    H1 5658   0.226   0.622   1.604 -1.0018 -1.3359  0.5710
 1884TIP3    H2 5659   0.297   0.526   1.510 -0.2365  0.0607 -0.3155
 1885TIP3   OH2 5660   5.317   2.748   2.813  0.4730 -0.0339 -0.7625
 1885TIP3    H1 5661   5.412   2.760   2.805  0.8814 -3.2066 -2.1186
 1885TIP3    H2 5662   5.307   2.678   2.878 -1.0307  0.6960 -0.1605
 1886TIP3   OH2 5663   3.611   1.890   0.031  0.3225 -0.3916 -0.4879
 1886TIP3    H1 5664   3.602   1.945  -0.047 -0.9397 -0.4965 -0.4357
 1886TIP3    H2 5665   3.551   1.817   0.017 -0.1800 -0.2465  0.7048
 1887TIP3   OH2 5666   6.047   5.617   4.217 -0.1454 -0.3373 -0.8328
 1887TIP3    H1 5667   5.971   5.575   4.257  0.0787 -1.7863 -1.8396
 1887TIP3    H2 5668   6.083   5.671   4.287 -2.1341  0.4694 -0.3571
 1888TIP3   OH2 5669   2.822   4.139   1.556 -0.5771  0.5505 -0.1946
 1888TIP3    H1 5670   2.903   4.186   1.536 -0.5765  0.7191  0.1911
 1888TIP3    H2 5671   2.846   4.047   1.550 -0.3142  0.5986  0.0676
 1889TIP3   OH2 5672   1.160   4.079   3.020  0.4278  0.3701  0.4257
 1889TIP3    H1 5673   1.073   4.095   2.983  0.2006  0.3427  0.9299
 1889TIP3    H2 5674   1.199   4.014   2.963  0.1773  0.4987  0.1017
 1890TIP3   OH2 5675   4.356   0.029   1.644 -0.2896 -0.1134 -0.1465
 1890TIP3    H1 5676   4.437  -0.014   1.670 -0.4251  0.2511  0.9516
 1890TIP3    H2 5677   4.384   0.105   1.593  0.0655  0.0703  0.3187
 1891TIP3   OH2 5678   3.864   5.662   4.362 -0.0906 -0.1504 -0.2472
 1891TIP3    H1 5679   3.776   5.635   4.336  0.0400 -0.8642  0.0298
 1891TIP3    H2 5680   3.905   5.582   4.393  0.6603  0.1802 -0.3738
 1892TIP3   OH2 5681   3.937   0.789   0.998  0.8575 -0.0929 -0.4186
 1892TIP3    H1 5682   3.844   0.778   0.975  0.0972  1.9802  1.3124
 1892TIP3    H2 5683   3.974   0.836   0.924  0.7974 -1.7737 -1.5590
 1893TIP3   OH2 5684   3.360   3.567   0.890  0.0822  0.2059  0.0165
 1893TIP3    H1 5685   3.367   3.524   0.975  0.9007  1.2160  0.4771
 1893TIP3    H2 5686   3.400   3.653   0.902  0.7944  0.1373 -1.5495
 1894TIP3   OH2 5687   2.753   1.319   2.173  0.1117 -1.4968  0.3847
 1894TIP3    H1 5688   2.664   1.351   2.189  0.6825 -0.6138  2.0339
 1894TIP3    H2 5689   2.746   1.224   2.182 -0.4822 -1.3576  1.6008
 1895TIP3   OH2 5690   2.283   0.892   2.916 -0.2260 -0.0480  0.1570
 1895TIP3    H1 5691   2.281   0.983   2.886  0.3844  0.5052  1.7407
 1895TIP3    H2 5692   2.197   0.879   2.956 -0.2823 -0.1596  0.0035
 1896TIP3   OH2 5693   5.074   2.010   3.966 -0.1269 -0.1673  0.1698
 1896TIP3    H1 5694   5.074   2.045   4.055 -0.5095 -0.2369  0.1993
 1896TIP3    H2 5695   5.038   1.922   3.975 -0.6506  0.0147 -0.1260
 1897TIP3   OH2 5696   2.111   5.451   2.987  0.4317 -0.0889  0.2990
 1897TIP3    H1 5697   2.181   5.514   2.970  0.6559  0.2510  2.2532
 1897TIP3    H2 5698   2.137   5.407   3.068 -0.9126 -0.9940  0.2696
 1898TIP3   OH2 5699   1.998   3.991   0.728 -0.0990 -0.0336 -0.3045
 1898TIP3    H1 5700   1.972   4.078   0.696 -1.0540 -0.3017 -0.2860
 1898TIP3    H2 5701   2.090   4.001   0.753 -0.4433  1.2189  0.5690
 1899TIP3   OH2 5702   4.123   3.504   4.232  0.0873 -0.3691 -0.0282
 1899TIP3    H1 5703   4.124   3.576   4.294  0.7980 -0.5826  0.2096
 1899TIP3    H2 5704   4.142   3.426   4.285 -1.7727 -0.9038 -0.0770
 1900TIP3   OH2 5705   1.372   5.269   3.426 -0.5918  0.2401 -0.7548
 1900TIP3    H1 5706   1.332   5.353   3.402 -1.5411  0.3295  1.0029
 1900TIP3    H2 5707   1.311   5.230   3.488  0.7620 -0.8886 -0.0699
 1901TIP3   OH2 5708   3.072   0.325   2.552 -0.0634  0.1585 -0.0376
 1901TIP3    H1 5709   3.032   0.297   2.469  0.5348 -1.4181  0.1708
 1901TIP3    H2 5710   3.159   0.355   2.528 -0.3032  0.8214 -0.1110
 1902TIP3   OH2 5711   5.771   2.485   2.692 -0.2520  0.1800  0.7765
 1902TIP3    H1 5712   5.814   2.419   2.745  1.5887  0.3688 -0.4084
 1902TIP3    H2 5713   5.806   2.568   2.725 -1.5023  0.5094  1.3348
 1903TIP3   OH2 5714   2.373   5.888   2.912  0.5362 -0.3173 -0.2574
 1903TIP3    H1 5715   2.423   5.952   2.861  0.2522  0.2115  0.1193
 1903TIP3    H2 5716   2.283   5.921   2.911  0.7779  0.5861  1.8981
 1904TIP3   OH2 5717   5.808   4.887   1.122  0.5107  0.2866 -0.8557
 1904TIP3    H1 5718   5.894   4.875   1.163 -0.0122 -2.0028 -0.2264
 1904TIP3    H2 5719   5.759   4.942   1.184  0.3428 -1.5773  0.7800
 1905TIP3   OH2 5720   5.262   4.006   1.235  0.0534 -0.0342 -0.0299
 1905TIP3    H1 5721   5.174   3.996   1.198  0.6397 -1.7065 -1.0776
 1905TIP3    H2 5722   5.300   4.079   1.186 -1.3400  2.0574  1.7637
 1906TIP3   OH2 5723   2.882   1.319   1.112 -0.7721 -0.3097  0.2952
 1906TIP3    H1 5724   2.789   1.339   1.103 -0.5935  0.0421 -0.9366
 1906TIP3    H2 5725   2.885   1.236   1.160 -1.6946 -0.1186  0.6986
 1907TIP3   OH2 5726   1.634   3.136   2.361 -0.0344 -0.2804  0.2632
 1907TIP3    H1 5727   1.700   3.191   2.320  0.4885 -0.2309  1.1453
 1907TIP3    H2 5728   1.552   3.156   2.315  0.6863 -0.8834 -1.3462
 1908TIP3   OH2 5729   5.920   3.358   5.020  0.6226  0.2783  0.3607
 1908TIP3    H1 5730   5.846   3.413   4.994  1.9562  0.5108 -3.5960
 1908TIP3    H2 5731   5.886   3.269   5.018  0.2028  0.4519 -0.4223
 1909TIP3   OH2 5732   3.125   1.624   4.037  0.2467  0.1870  0.3351
 1909TIP3    H1 5733   3.119   1.632   3.942 -0.5640  0.0826  0.3721
 1909TIP3    H2 5734   3.168   1.705   4.066 -0.8092  0.8956  0.0007
 1910TIP3   OH2 5735   0.571   0.791   0.113 -0.0120 -0.7841 -0.2022
 1910TIP3    H1 5736   0.632   0.722   0.140  0.8203  0.4479  1.1908
 1910TIP3    H2 5737   0.615   0.834   0.040  0.1568 -0.7774 -0.0975
 1911TIP3   OH2 5738   4.280   2.546   0.944 -0.3236 -0.5566  0.1893
 1911TIP3    H1 5739   4.263   2.576   0.855 -1.3611 -0.0532  0.5474
 1911TIP3    H2 5740   4.300   2.625   0.993 -2.5107 -0.4402  1.0108
 1912TIP3   OH2 5741   4.731   3.428   2.684  0.1350 -0.7558 -0.0391
 1912TIP3    H1 5742   4.743   3.382   2.601 -2.4101  1.9926 -2.1369
 1912TIP3    H2 5743   4.724   3.520   2.660 -0.1601  0.2560  3.3342
 1913TIP3   OH2 5744   2.908   2.579   5.136  0.7051 -0.1052 -0.3948
 1913TIP3    H1 5745   2.853   2.524   5.191  0.5225  1.5224  1.1457
 1913TIP3    H2 5746   2.847   2.642   5.097  1.2146  0.5242 -0.1884
 1914TIP3   OH2 5747   1.402   1.420   2.848 -0.0132 -0.0939 -0.2228
 1914TIP3    H1 5748   1.416   1.500   2.898  0.3580 -0.1125 -0.2965
 1914TIP3    H2 5749   1.344   1.367   2.903  0.4720 -0.1551  0.2380
 1915TIP3   OH2 5750   4.453   1.400   3.619 -0.0965  0.1856  0.2273
 1915TIP3    H1 5751   4.537   1.428   3.656 -0.6063 -0.6910  2.2274
 1915TIP3    H2 5752   4.401   1.374   3.696 -1.7036 -0.6023 -1.0639
 1916TIP3   OH2 5753   0.917   4.746   1.954  0.1423  0.1531  0.3551
 1916TIP3    H1 5754   0.852   4.811   1.979  0.5817  0.4805  0.6439
 1916TIP3    H2 5755   0.995   4.769   2.003  0.0925 -1.0313  1.0378
 1917TIP3   OH2 5756   4.559   5.163   2.221 -0.3813 -0.6923  0.1309
 1917TIP3    H1 5757   4.578   5.239   2.275 -0.9423  0.1382 -0.8172
 1917TIP3    H2 5758   4.480   5.186   2.174  0.1704 -1.3312 -1.1538
 1918TIP3   OH2 5759   0.963   3.618   2.289  0.2242 -0.0443  0.0343
 1918TIP3    H1 5760   0.935   3.707   2.268 -0.6624 -0.1681  0.6072
 1918TIP3    H2 5761   0.881   3.570   2.302  0.6698 -1.2123 -1.2909
 1919TIP3   OH2 5762   5.475   5.799   4.006  0.6438  0.1551  0.4930
 1919TIP3    H1 5763   5.456   5.716   3.964  0.6426 -0.7271  2.1584
 1919TIP3    H2 5764   5.399   5.817   4.061  0.9967  0.8440  0.7761
 1920TIP3   OH2 5765   2.722   1.037   2.203 -0.2114  0.3349 -0.0045
 1920TIP3    H1 5766   2.773   0.968   2.246  0.0518 -0.0642 -0.9231
 1920TIP3    H2 5767   2.641   0.994   2.176  0.1248  0.2663 -0.9430
 1921TIP3   OH2 5768   4.501   0.937   4.380 -0.6069  0.2993 -0.5172
 1921TIP3    H1 5769   4.553   1.015   4.358  0.1981 -0.6434 -2.1634
 1921TIP3    H2 5770   4.549   0.896   4.452 -0.0565  0.3977 -0.8236
 1922TIP3   OH2 5771   4.362   5.749   4.592  0.3014  0.0440  0.0157
 1922TIP3    H1 5772   4.361   5.833   4.637  1.3828  0.3753 -0.5365
 1922TIP3    H2 5773   4.304   5.693   4.643  0.0282  0.9561  0.7219
 1923TIP3   OH2 5774   4.115   0.781   0.518  0.0555 -0.0599  0.2505
 1923TIP3    H1 5775   4.067   0.709   0.557 -0.9934  0.6624  0.3346
 1923TIP3    H2 5776   4.128   0.755   0.427  0.1265 -0.5692  0.4064
 1924TIP3   OH2 5777   5.614   3.208   1.867 -0.3862 -0.6401  0.2911
 1924TIP3    H1 5778   5.702   3.171   1.856 -0.0411  0.6372 -2.2156
 1924TIP3    H2 5779   5.598   3.206   1.961  2.1947 -1.2181  0.7987
 1925TIP3   OH2 5780   0.609   2.004   2.269  0.3010 -0.7180  0.3755
 1925TIP3    H1 5781   0.550   2.040   2.203 -0.8662 -0.8672  1.3005
 1925TIP3    H2 5782   0.688   1.981   2.221 -0.6729 -1.2159 -1.0616
 1926TIP3   OH2 5783   3.336   3.107   4.124  0.2147  0.1144  0.4150
 1926TIP3    H1 5784   3.429   3.090   4.133  0.2028  0.5394  1.4957
 1926TIP3    H2 5785   3.294   3.042   4.180 -0.0161  1.2227  1.5766
 1927TIP3   OH2 5786   4.907   1.314   1.447 -0.3527 -0.2508 -0.4185
 1927TIP3    H1 5787   4.901   1.377   1.375 -1.6596  0.4362  0.2585
 1927TIP3    H2 5788   4.938   1.366   1.522 -1.9779 -0.2492  0.2892
 1928TIP3   OH2 5789   0.857   0.282   3.186 -0.1442  0.3246  0.5276
 1928TIP3    H1 5790   0.899   0.202   3.216 -1.4250 -0.8229 -0.5913
 1928TIP3    H2 5791   0.773   0.283   3.231 -1.7922 -1.0491 -2.2127
 1929TIP3   OH2 5792   4.023   4.628   2.164  0.2815  0.5517 -0.1596
 1929TIP3    H1 5793   4.070   4.577   2.098 -2.1401  0.9513 -2.3986
 1929TIP3    H2 5794   3.955   4.568   2.195 -1.9567  1.9091 -2.0808
 1930TIP3   OH2 5795   2.522   4.779   3.790 -0.3886  0.5891 -0.4585
 1930TIP3    H1 5796   2.501   4.715   3.858 -0.2391 -0.9654 -1.7922
 1930TIP3    H2 5797   2.604   4.746   3.751  0.1438  2.0658 -0.6484
 1931TIP3   OH2 5798   2.471   2.998   1.856 -0.4362  0.3370 -0.0773
 1931TIP3    H1 5799   2.381   2.976   1.833 -0.3150 -0.5330  0.2654
 1931TIP3    H2 5800   2.464   3.080   1.906 -1.2548 -0.7734  1.7227
 1932TIP3   OH2 5801   5.336   0.170   4.172 -0.4624  0.2498  0.1818
 1932TIP3    H1 5802   5.251   0.124   4.176  0.1730 -0.9509  0.4730
 1932TIP3    H2 5803   5.375   0.140   4.090  0.6790 -1.1107  1.1570
 1933TIP3   OH2 5804   5.250   4.994   4.361  0.3128  0.2451  0.1383
 1933TIP3    H1 5805   5.318   4.967   4.299  0.3560 -1.6265  0.9204
 1933TIP3    H2 5806   5.198   4.914   4.376 -0.0634  0.7847  2.0169
 1934TIP3   OH2 5807   3.899   2.156   0.763  0.0208  0.5280 -0.1170
 1934TIP3    H1 5808   3.954   2.123   0.833 -1.5619  0.5759  1.2085
 1934TIP3    H2 5809   3.960   2.191   0.698  1.6148 -1.7748  0.0601
 1935TIP3   OH2 5810   6.088   0.546   4.493 -0.5336 -0.1383 -0.6167
 1935TIP3    H1 5811   6.054   0.464   4.529  0.0703  0.0172  0.3300
 1935TIP3    H2 5812   6.110   0.525   4.402 -0.7003 -0.9298 -0.4803
 1936TIP3   OH2 5813   5.461   5.466   1.180 -0.5550  0.9137  0.6337
 1936TIP3    H1 5814   5.477   5.414   1.259 -2.9626  1.0122  1.2585
 1936TIP3    H2 5815   5.403   5.536   1.208  0.0071  2.0643 -0.8893
 1937TIP3   OH2 5816   5.288   0.484   0.282 -0.5592 -0.3171 -0.1919
 1937TIP3    H1 5817   5.201   0.455   0.254 -2.1876  1.0667  2.9424
 1937TIP3    H2 5818   5.302   0.567   0.235 -2.0951  0.6846  1.0183
 1938TIP3   OH2 5819   1.741   1.279   3.227 -0.3158  0.7283  0.1078
 1938TIP3    H1 5820   1.703   1.367   3.229 -1.5473  0.2857 -1.5492
 1938TIP3    H2 5821   1.834   1.293   3.211  0.4153  1.8366  4.1227
 1939TIP3   OH2 5822   4.828   4.585   4.520 -0.2518 -0.5349 -0.0156
 1939TIP3    H1 5823   4.772   4.519   4.480  1.1825 -1.3285 -0.7936
 1939TIP3    H2 5824   4.773   4.663   4.527 -1.3825 -1.2233 -0.9239
 1940TIP3   OH2 5825   2.852   5.393   1.009 -0.0231 -0.7512 -0.1006
 1940TIP3    H1 5826   2.878   5.435   0.927 -0.9542  0.7450  0.3193
 1940TIP3    H2 5827   2.776   5.444   1.038  0.5714 -0.9329  1.9259
 1941TIP3   OH2 5828   1.680   1.641   0.235  0.2929 -0.1165 -0.1524
 1941TIP3    H1 5829   1.693   1.735   0.242  0.7306 -0.2925  2.2475
 1941TIP3    H2 5830   1.703   1.607   0.322  0.4239 -2.4654 -1.0277
 1942TIP3   OH2 5831   3.694   1.975   3.442 -0.9793  0.8133 -0.4595
 1942TIP3    H1 5832   3.677   2.069   3.446 -0.8984  0.8185 -0.2303
 1942TIP3    H2 5833   3.712   1.958   3.349  0.2630  1.2492 -0.3146
 1943TIP3   OH2 5834   5.109   2.242   3.785  0.3420 -0.3851 -0.7022
 1943TIP3    H1 5835   5.084   2.152   3.806  1.7814 -0.9356 -1.1795
 1943TIP3    H2 5836   5.200   2.235   3.757 -0.1690  0.9017 -2.9400
 1944TIP3   OH2 5837   2.093   5.125   4.837  0.0409 -0.0173  0.3793
 1944TIP3    H1 5838   2.006   5.103   4.870 -0.4128  1.8926  0.5619
 1944TIP3    H2 5839   2.143   5.044   4.846 -1.6113 -1.0635  0.5814
 1945TIP3   OH2 5840   5.963   4.892   3.291  0.1446  0.2847 -0.1219
 1945TIP3    H1 5841   5.971   4.918   3.199 -2.6605 -0.1209 -0.6003
 1945TIP3    H2 5842   6.040   4.839   3.308  0.8449  0.5260 -2.2034
 1946TIP3   OH2 5843   0.497   5.585   2.280 -0.3377 -0.1249 -0.3059
 1946TIP3    H1 5844   0.416   5.617   2.322  0.4429 -2.1166  3.1434
 1946TIP3    H2 5845   0.515   5.503   2.325  2.4594 -0.8652 -2.5554
 1947TIP3   OH2 5846   3.310   0.878   4.026 -0.3204  0.1674  0.2365
 1947TIP3    H1 5847   3.280   0.968   4.043  0.2412  0.5073 -0.5186
 1947TIP3    H2 5848   3.239   0.823   4.059 -0.0602  0.8307  2.0328
 1948TIP3   OH2 5849   5.124   1.229   0.862  0.0406  0.4956 -0.1312
 1948TIP3    H1 5850   5.180   1.175   0.806  1.1522  2.4805 -1.0388
 1948TIP3    H2 5851   5.115   1.177   0.943  0.7126 -1.1928 -1.0806
 1949TIP3   OH2 5852   3.539  -0.003   3.788  0.3382  0.2739 -0.0149
 1949TIP3    H1 5853   3.570   0.080   3.825  2.1493 -1.0769  1.7638
 1949TIP3    H2 5854   3.521  -0.058   3.865 -3.3331 -0.2274 -1.0600
 1950TIP3   OH2 5855   0.974   0.512   3.511  0.4921  0.2722 -0.2717
 1950TIP3    H1 5856   1.031   0.437   3.494  0.3368  0.3543 -1.1735
 1950TIP3    H2 5857   1.018   0.560   3.582  0.1864 -1.0867  0.8894
 1951TIP3   OH2 5858   4.791   5.510   2.726 -0.2270  0.2133 -0.2045
 1951TIP3    H1 5859   4.883   5.532   2.736 -0.2383 -0.0635  0.6509
 1951TIP3    H2 5860   4.770   5.531   2.636  0.9060 -0.5771 -0.6740
 1952TIP3   OH2 5861   5.162   2.614   0.586 -0.0024  0.2459 -0.0012
 1952TIP3    H1 5862   5.230   2.654   0.531  0.3361  1.3840  1.2008
 1952TIP3    H2 5863   5.083   2.664   0.564  0.1349  0.7066  0.5279
 1953TIP3   OH2 5864   1.070   0.856   4.508 -0.4308 -0.1245  0.4834
 1953TIP3    H1 5865   0.986   0.845   4.464 -0.2378  1.1173 -0.2384
 1953TIP3    H2 5866   1.135   0.846   4.438 -0.0724  0.9265  0.6535
 1954TIP3   OH2 5867   0.636   0.083   3.794 -0.6230 -0.2870  0.3134
 1954TIP3    H1 5868   0.578   0.131   3.853  0.6885  1.5286  0.2144
 1954TIP3    H2 5869   0.681   0.019   3.850  0.1338  0.9785  1.1952
 1955TIP3   OH2 5870   4.749   3.409   0.527  0.0147 -0.2949 -0.2754
 1955TIP3    H1 5871   4.841   3.406   0.500 -0.3860 -0.5787 -1.7285
 1955TIP3    H2 5872   4.700   3.398   0.445 -1.3147 -0.3610  0.4996
 1956TIP3   OH2 5873   5.153   1.088   1.242 -0.0529  0.8105 -0.9688
 1956TIP3    H1 5874   5.218   1.035   1.287 -0.6789  1.0147  0.2117
 1956TIP3    H2 5875   5.149   1.169   1.291 -2.2436  0.2317 -0.0658
 1957TIP3   OH2 5876   2.245   2.691   4.197 -0.1658 -0.1572 -0.1737
 1957TIP3    H1 5877   2.297   2.611   4.198  0.8478  0.4782 -0.2721
 1957TIP3    H2 5878   2.269   2.735   4.115 -0.7877  0.1996 -0.1731
 1958TIP3   OH2 5879   2.141   2.473   0.288 -0.1813  0.3555 -0.6794
 1958TIP3    H1 5880   2.159   2.383   0.315  1.3203  0.2973 -1.7199
 1958TIP3    H2 5881   2.174   2.527   0.360  0.4642  0.1076 -0.7816
 1959TIP3   OH2 5882   0.340   1.447   0.547 -0.8151  0.6550 -0.5657
 1959TIP3    H1 5883   0.259   1.438   0.496 -0.4667 -1.2384 -0.8620
 1959TIP3    H2 5884   0.410   1.430   0.484 -0.2464  0.9184 -0.0122
 1960TIP3   OH2 5885   4.436   3.977   4.971 -0.1828  0.4596  0.4291
 1960TIP3    H1 5886   4.478   4.027   5.041  0.1809  1.4095 -0.4527
 1960TIP3    H2 5887   4.508   3.936   4.924 -0.3352  0.8682 -0.1681
 1961TIP3   OH2 5888   0.147   1.774   4.108 -1.0070  0.1312 -0.0412
 1961TIP3    H1 5889   0.101   1.840   4.161 -1.7686  0.8165 -1.4797
 1961TIP3    H2 5890   0.100   1.693   4.126  0.1801 -0.1688  2.0488
 1962TIP3   OH2 5891   2.923   4.291   3.239 -0.1953 -0.0046 -0.1762
 1962TIP3    H1 5892   2.855   4.239   3.196  0.2641  0.1549 -1.1387
 1962TIP3    H2 5893   2.876   4.348   3.299 -0.7877 -0.8601  0.1825
 1963TIP3   OH2 5894   6.172   1.225   2.435 -0.2175 -0.4755 -0.0869
 1963TIP3    H1 5895   6.078   1.243   2.429 -0.0716  0.4075  0.1448
 1963TIP3    H2 5896   6.208   1.259   2.353  0.1014  0.6030  0.4768
 1964TIP3   OH2 5897   1.815   3.436   0.581 -0.1159 -0.0972 -0.5414
 1964TIP3    H1 5898   1.729   3.436   0.539 -0.5897 -0.5473  0.3987
 1964TIP3    H2 5899   1.869   3.380   0.525 -1.0415 -1.5987  0.0057
 1965TIP3   OH2 5900   2.533   4.369   3.902  0.5275  0.0963  0.5573
 1965TIP3    H1 5901   2.602   4.370   3.968 -0.1279 -1.2084  1.3092
 1965TIP3    H2 5902   2.485   4.450   3.915  1.6420  0.8211  0.2992
 1966TIP3   OH2 5903   2.916   1.845   5.117 -0.2953  0.3799 -0.1673
 1966TIP3    H1 5904   2.848   1.790   5.157  0.0978  0.4823  0.6669
 1966TIP3    H2 5905   2.881   1.867   5.031 -0.6921 -0.7385 -0.3135
 1967TIP3   OH2 5906   6.300   5.484   5.155 -0.4272 -0.0188  0.5224
 1967TIP3    H1 5907   6.277   5.433   5.233 -0.9002  0.1107  0.4686
 1967TIP3    H2 5908   6.293   5.421   5.083  1.8190 -0.6508  0.7601
 1968TIP3   OH2 5909   3.352   2.998   2.912  0.2077  0.0735 -0.5013
 1968TIP3    H1 5910   3.392   3.064   2.856  0.5635  0.2147 -0.0844
 1968TIP3    H2 5911   3.407   2.996   2.991 -0.5444  0.1924  0.0349
 1969TIP3   OH2 5912   0.973   2.401   3.304  0.7523 -0.2099  0.2264
 1969TIP3    H1 5913   0.986   2.479   3.250 -1.6360 -0.5398 -0.9127
 1969TIP3    H2 5914   1.054   2.351   3.294  1.8065  1.4677 -0.0534
 1970TIP3   OH2 5915   3.756   2.448   1.739  0.3562 -0.3604  0.1137
 1970TIP3    H1 5916   3.801   2.471   1.657 -0.2323  0.0807 -0.0923
 1970TIP3    H2 5917   3.701   2.374   1.715  1.2082 -1.1286  0.4490
 1971TIP3   OH2 5918   4.524   2.682   0.635 -0.5184 -0.4425  0.3547
 1971TIP3    H1 5919   4.609   2.723   0.650  0.1574 -2.0297  1.1556
 1971TIP3    H2 5920   4.540   2.619   0.564 -1.1602 -0.3889  0.1507
 1972TIP3   OH2 5921   1.672   4.124   0.485  0.0856  0.7166  0.1362
 1972TIP3    H1 5922   1.654   4.213   0.455 -2.7386  0.3211  0.4157
 1972TIP3    H2 5923   1.618   4.068   0.429 -1.4884 -0.4435  2.6380
 1973TIP3   OH2 5924   2.793   0.927   1.016  0.1607 -0.1901 -0.3263
 1973TIP3    H1 5925   2.749   0.992   0.960 -1.0019 -0.5922  0.0818
 1973TIP3    H2 5926   2.877   0.912   0.974 -1.0452 -1.1897 -2.5440
 1974TIP3   OH2 5927   3.518   3.688   0.091 -0.0916  0.2822 -0.0631
 1974TIP3    H1 5928   3.559   3.603   0.104 -0.3633  0.1190 -0.2566
 1974TIP3    H2 5929   3.590   3.748   0.077  0.1052  0.0933  0.1364
 1975TIP3   OH2 5930   2.003   5.762   0.613 -0.0490 -0.0716 -0.0871
 1975TIP3    H1 5931   2.066   5.691   0.626  0.2308  0.0411 -0.7940
 1975TIP3    H2 5932   1.918   5.723   0.634  0.0682 -0.7031 -0.7519
 1976TIP3   OH2 5933   4.967   3.352   2.870 -0.0773 -0.3326  0.4300
 1976TIP3    H1 5934   5.010   3.429   2.907 -1.7428  0.9618 -0.1955
 1976TIP3    H2 5935   4.883   3.384   2.838 -0.6049 -2.3169 -0.3548
 1977TIP3   OH2 5936   1.146   0.682   5.098  0.0670  0.1034  0.0939
 1977TIP3    H1 5937   1.231   0.644   5.121  0.3273  1.0206  0.7194
 1977TIP3    H2 5938   1.088   0.607   5.088  0.9170 -0.5257 -0.2025
 1978TIP3   OH2 5939   5.778   2.222   2.427 -0.2588  0.1039 -0.1392
 1978TIP3    H1 5940   5.767   2.316   2.437 -0.5379  0.0319  0.2634
 1978TIP3    H2 5941   5.860   2.202   2.472 -1.2364 -0.1379  1.6081
 1979TIP3   OH2 5942   2.934   4.509   1.891 -0.7500  0.1399  0.1977
 1979TIP3    H1 5943   2.858   4.462   1.858  1.4225 -1.0654 -3.8365
 1979TIP3    H2 5944   2.984   4.442   1.939 -0.6461 -0.0326 -0.1415
 1980TIP3   OH2 5945   1.988   4.173   1.994  0.1228 -0.0816  0.6290
 1980TIP3    H1 5946   1.912   4.228   2.016 -0.8992 -1.2699  0.1812
 1980TIP3    H2 5947   1.953   4.085   1.988  1.2939 -0.4870 -0.9204
 1981TIP3   OH2 5948   3.081   0.705   1.809 -0.0715  0.1072 -0.2057
 1981TIP3    H1 5949   3.122   0.652   1.741  0.2680 -0.5360  0.4813
 1981TIP3    H2 5950   2.993   0.724   1.775 -0.2356 -0.9854 -0.4329
 1982TIP3   OH2 5951   6.008   0.076   2.028 -0.1709  0.0929 -0.2573
 1982TIP3    H1 5952   6.041  -0.013   2.044  0.2174  0.2521 -0.1544
 1982TIP3    H2 5953   6.037   0.096   1.939  0.8525  0.5927  0.1705
 1983TIP3   OH2 5954   4.738   2.247   2.620 -0.5148  0.4258 -0.2850
 1983TIP3    H1 5955   4.722   2.340   2.631 -1.7622  0.6021 -2.8154
 1983TIP3    H2 5956   4.657   2.205   2.649 -0.8522  0.3436 -1.2983
 1984TIP3   OH2 5957   2.725   3.681   2.888 -0.1662  0.4103 -0.5001
 1984TIP3    H1 5958   2.651   3.620   2.876 -0.2005 -0.2993  2.5342
 1984TIP3    H2 5959   2.802   3.630   2.866  0.0935 -2.0057  4.5090
 1985TIP3   OH2 5960   0.076   5.884   3.409  0.2181  0.5059 -0.2743
 1985TIP3    H1 5961   0.164   5.847   3.403 -0.2131 -0.4594 -0.9135
 1985TIP3    H2 5962   0.071   5.948   3.337  0.3842  0.5366 -0.2584
 1986TIP3   OH2 5963   5.931   4.506   2.356  0.0041  0.3823  0.1034
 1986TIP3    H1 5964   5.845   4.548   2.349  0.2694  1.0529  0.7437
 1986TIP3    H2 5965   5.978   4.534   2.277 -0.1785  0.4440  0.0167
 1987TIP3   OH2 5966   1.131   5.115   1.455 -0.1901 -0.3764 -0.3012
 1987TIP3    H1 5967   1.072   5.188   1.473  0.7647  1.0164 -2.3135
 1987TIP3    H2 5968   1.184   5.106   1.534  1.0562  2.5762 -0.6527
 1988TIP3   OH2 5969   2.472   0.087   4.050 -0.2818  0.0075 -0.3756
 1988TIP3    H1 5970   2.484   0.100   3.956  0.3530 -2.9424 -0.7928
 1988TIP3    H2 5971   2.549   0.039   4.078 -0.5079  0.7428  1.6820
 1989TIP3   OH2 5972   1.416   4.852   0.484 -0.0648  0.2889 -0.1297
 1989TIP3    H1 5973   1.331   4.863   0.526 -0.4380  2.1048 -1.2505
 1989TIP3    H2 5974   1.416   4.914   0.412  1.3994 -1.2137 -1.5098
 1990TIP3   OH2 5975   4.395   5.809   4.292 -0.0877  0.4320 -0.2907
 1990TIP3    H1 5976   4.419   5.861   4.215 -0.3610 -2.1266 -2.2804
 1990TIP3    H2 5977   4.300   5.819   4.299  0.0123  1.1582  0.1390
 1991TIP3   OH2 5978   1.870   4.979   3.490 -0.5774 -0.5045  0.1960
 1991TIP3    H1 5979   1.818   4.973   3.410  1.5221 -1.4815 -1.1923
 1991TIP3    H2 5980   1.920   4.898   3.492  1.8806  0.9320  0.6979
 1992TIP3   OH2 5981   4.715   1.115   4.344 -0.2825  0.2043  0.1957
 1992TIP3    H1 5982   4.776   1.168   4.294 -1.2343  0.3166 -0.8924
 1992TIP3    H2 5983   4.765   1.086   4.421  0.8893  0.8937 -0.2850
 1993TIP3   OH2 5984   5.389   5.948   2.525 -0.3182  0.2363 -0.1308
 1993TIP3    H1 5985   5.351   5.937   2.438  0.0164 -0.2287 -0.2232
 1993TIP3    H2 5986   5.396   5.860   2.560 -1.1802  0.4822  0.6927
 1994TIP3   OH2 5987   5.341   3.834   3.303 -0.3785  0.0359  0.2208
 1994TIP3    H1 5988   5.283   3.872   3.237 -1.1670 -1.5127 -0.0143
 1994TIP3    H2 5989   5.402   3.781   3.252 -0.5565 -0.6095  0.6774
 1995TIP3   OH2 5990   0.632   2.902   4.061 -0.2485  0.0725 -0.5968
 1995TIP3    H1 5991   0.555   2.912   4.005  0.4088  1.0608 -1.3617
 1995TIP3    H2 5992   0.609   2.948   4.142 -0.5599  0.1352 -0.7190
 1996TIP3   OH2 5993   2.007   5.751   1.682  0.4275  0.6197  0.5199
 1996TIP3    H1 5994   2.069   5.760   1.609 -0.2844 -0.5430 -0.2673
 1996TIP3    H2 5995   1.963   5.836   1.687  0.6695  0.7994 -0.2438
 1997TIP3   OH2 5996   4.396   2.314   4.693  0.6419 -0.0175  0.3856
 1997TIP3    H1 5997   4.329   2.250   4.671  0.1283  0.3226  0.9363
 1997TIP3    H2 5998   4.459   2.266   4.747  2.2124 -1.0185 -2.1287
 1998TIP3   OH2 5999   6.347   5.031   2.116  0.9476 -0.4280 -0.0586
 1998TIP3    H1 6000   6.301   5.037   2.033  1.5026  0.4273 -0.3212
 1998TIP3    H2 6001   6.364   4.938   2.128  0.0566 -0.6453 -0.4461
 1999TIP3   OH2 6002   5.428   1.088   1.722  0.1066  0.3331  0.1497
 1999TIP3    H1 6003   5.496   1.090   1.789 -0.5132  1.0642  0.7908
 1999TIP3    H2 6004   5.472   1.115   1.641  0.7360  0.0128  0.3764
 2000TIP3   OH2 6005   2.594   1.282   3.318 -0.7073  0.6489 -0.1970
 2000TIP3    H1 6006   2.617   1.267   3.226 -0.6291  0.7356 -0.1915
 2000TIP3    H2 6007   2.629   1.369   3.337  1.7812 -0.4404  0.7046
 2001TIP3   OH2 6008   6.268   3.396   3.051 -0.1666 -0.2214 -0.2741
 2001TIP3    H1 6009   6.254   3.482   3.010  0.1311  0.9631  1.9342
 2001TIP3    H2 6010   6.363   3.385   3.051 -0.1855 -0.3798 -0.2375
 2002TIP3   OH2 6011   0.463  -0.015   2.405  0.3629  0.5500  0.5035
 2002TIP3    H1 6012   0.379   0.029   2.416 -0.2502  0.0290 -1.6452
 2002TIP3    H2 6013   0.528   0.049   2.434 -0.6580  1.8336  0.0562
 2003TIP3   OH2 6014   1.121   5.393   2.797  1.0512  0.4273 -0.2505
 2003TIP3    H1 6015   1.181   5.318   2.786  0.7671  0.1723 -0.0671
 2003TIP3    H2 6016   1.176   5.469   2.779  1.1611  0.1380 -1.1693
 2004TIP3   OH2 6017   5.539   5.321   4.785 -0.8951 -0.8042 -0.5495
 2004TIP3    H1 6018   5.578   5.347   4.702 -0.0106 -1.5932 -0.3983
 2004TIP3    H2 6019   5.444   5.325   4.770 -0.7534 -0.1973 -1.3479
 2005TIP3   OH2 6020   3.968   5.450   4.556 -0.4113 -0.4442 -0.4002
 2005TIP3    H1 6021   3.987   5.462   4.649  1.3877 -0.4874 -0.7332
 2005TIP3    H2 6022   3.949   5.357   4.546 -3.5598 -0.0030  0.3580
 2006TIP3   OH2 6023   1.643   4.635   0.103  0.5224  0.2834  0.2264
 2006TIP3    H1 6024   1.679   4.701   0.044  1.3359 -1.0018 -0.7823
 2006TIP3    H2 6025   1.721   4.595   0.143  0.0336  0.1182  1.0211
 2007TIP3   OH2 6026   4.330   5.856   3.901 -0.1063 -0.3078 -0.9410
 2007TIP3    H1 6027   4.328   5.775   3.850  0.7720 -2.3464  1.9681
 2007TIP3    H2 6028   4.259   5.846   3.965  0.8153  0.5985  0.2813
 2008TIP3   OH2 6029   5.113   4.351   4.090 -0.1789  0.0631  0.2393
 2008TIP3    H1 6030   5.089   4.290   4.160 -1.6142 -0.1775 -0.4150
 2008TIP3    H2 6031   5.081   4.436   4.120  0.6583  0.2619  0.5807
 2009TIP3   OH2 6032   3.366   4.605   0.700  0.2906  0.3081  0.5326
 2009TIP3    H1 6033   3.381   4.680   0.758 -1.5066 -0.0264  1.5049
 2009TIP3    H2 6034   3.280   4.621   0.662 -0.3275 -1.4632  1.1075
 2010TIP3   OH2 6035   0.195   5.468   4.184 -0.1043  0.5149 -0.3225
 2010TIP3    H1 6036   0.214   5.479   4.277  0.8130  0.5794 -0.5088
 2010TIP3    H2 6037   0.198   5.557   4.148 -1.8364  0.6549 -0.1739
 2011TIP3   OH2 6038   2.324   3.040   3.318 -0.0947  0.8714  0.1766
 2011TIP3    H1 6039   2.271   3.029   3.239  1.0743 -0.8344 -0.4351
 2011TIP3    H2 6040   2.383   2.965   3.318  0.0227  0.8833  2.6338
 2012TIP3   OH2 6041   3.747   4.130   0.705  0.5784  0.0506 -0.4924
 2012TIP3    H1 6042   3.679   4.197   0.702  0.2859 -0.2306 -0.1986
 2012TIP3    H2 6043   3.714   4.061   0.647  1.2965  0.5404 -1.5168
 2013TIP3   OH2 6044   0.418   3.528   4.824  0.1427  0.0552 -0.1049
 2013TIP3    H1 6045   0.427   3.621   4.846 -1.4209  0.4064 -0.7891
 2013TIP3    H2 6046   0.450   3.523   4.733  1.1261 -0.2796  0.2466
 2014TIP3   OH2 6047   2.088   4.658   1.758  0.1610 -0.3465  1.0133
 2014TIP3    H1 6048   2.029   4.733   1.762 -1.7739 -1.7917  0.9371
 2014TIP3    H2 6049   2.052   4.603   1.689  1.7906 -1.1430  0.7626
 2015TIP3   OH2 6050   1.009   4.511   1.780  0.0810  0.2528  0.8241
 2015TIP3    H1 6051   1.042   4.561   1.706  0.1252 -0.5629  0.2716
 2015TIP3    H2 6052   1.085   4.498   1.837 -0.0550  1.2708  1.2495
 2016TIP3   OH2 6053   2.204   1.164   1.758  0.1567 -0.1333 -0.0554
 2016TIP3    H1 6054   2.122   1.207   1.733  0.2600  0.3535  0.4367
 2016TIP3    H2 6055   2.218   1.189   1.849  1.7746  1.3114 -0.6303
 2017TIP3   OH2 6056   4.547   4.674   2.108 -0.5438  0.2671  0.7798
 2017TIP3    H1 6057   4.498   4.608   2.156 -0.5195 -1.6410 -1.6100
 2017TIP3    H2 6058   4.630   4.683   2.155 -0.5274 -1.4727  1.1255
 2018TIP3   OH2 6059   2.290   5.917   4.621 -0.4270 -0.2913  0.6215
 2018TIP3    H1 6060   2.378   5.880   4.626 -0.5479 -0.4950  1.4627
 2018TIP3    H2 6061   2.301   5.998   4.571  0.1751 -0.4761  0.4393
 2019TIP3   OH2 6062   5.508   3.509   0.091  0.1380 -0.2745  0.1008
 2019TIP3    H1 6063   5.580   3.520   0.153 -1.2013 -1.0567  1.9157
 2019TIP3    H2 6064   5.514   3.584   0.033  3.1262 -0.9538 -0.6178
 2020TIP3   OH2 6065   2.349   2.356   3.656 -0.9450 -0.0783 -0.2138
 2020TIP3    H1 6066   2.287   2.296   3.614 -0.8027 -0.1377 -0.3412
 2020TIP3    H2 6067   2.435   2.323   3.630 -0.8445 -0.2899  0.3551
 2021TIP3   OH2 6068   5.024   4.902   2.129 -0.4905  0.1882 -0.8581
 2021TIP3    H1 6069   5.036   4.997   2.126 -2.4414  0.6798  2.0832
 2021TIP3    H2 6070   4.936   4.888   2.093 -2.1793  0.2256  2.7535
 2022TIP3   OH2 6071   0.971   1.164   3.721  0.5888  0.3401  0.3604
 2022TIP3    H1 6072   0.899   1.112   3.759  1.7588  0.0951  2.4011
 2022TIP3    H2 6073   1.008   1.107   3.654  0.3600 -0.4950  0.9276
 2023TIP3   OH2 6074   0.068   4.670   3.152 -0.1536 -0.0110  0.7246
 2023TIP3    H1 6075   0.084   4.630   3.238 -0.4290  1.2421  1.3872
 2023TIP3    H2 6076   0.155   4.682   3.114 -0.0868 -1.4889  0.3834
 2024TIP3   OH2 6077   5.162   2.149   2.131 -0.2493  0.2301 -0.2719
 2024TIP3    H1 6078   5.109   2.106   2.198  0.4668  2.5593  1.9938
 2024TIP3    H2 6079   5.099   2.183   2.068 -1.2340  0.3723  0.7563
 2025TIP3   OH2 6080   1.663   3.040   3.895 -0.1101 -0.1464 -0.0206
 2025TIP3    H1 6081   1.650   3.002   3.981  2.2090  2.6411  1.7380
 2025TIP3    H2 6082   1.750   3.012   3.868 -0.5689 -0.5024 -1.2169
 2026TIP3   OH2 6083   2.102   0.109   2.109  0.7026  0.2257  0.1363
 2026TIP3    H1 6084   2.141   0.028   2.141  0.0482 -0.8819 -1.7391
 2026TIP3    H2 6085   2.148   0.128   2.028  0.4555  1.4498  0.2539
 2027TIP3   OH2 6086   5.931   2.591   3.370 -0.6681 -0.0652  0.0637
 2027TIP3    H1 6087   5.900   2.588   3.460  0.1688  0.8084  0.3938
 2027TIP3    H2 6088   5.947   2.684   3.353 -1.0609 -0.1854 -1.0734
 2028TIP3   OH2 6089   0.736   4.543   2.000 -0.0557  0.0020  0.2647
 2028TIP3    H1 6090   0.805   4.605   1.976  1.6087 -1.8479 -0.0357
 2028TIP3    H2 6091   0.667   4.556   1.935  0.7588  0.7364 -0.4748
 2029TIP3   OH2 6092   6.307   0.906   0.931  0.2663 -0.1698  0.5895
 2029TIP3    H1 6093   6.288   0.841   0.999 -0.5526 -1.0824 -0.4582
 2029TIP3    H2 6094   6.394   0.939   0.952  0.0796 -0.4994  2.0048
 2030TIP3   OH2 6095   3.822   1.818   0.890  0.4008 -0.1749 -0.2915
 2030TIP3    H1 6096   3.915   1.826   0.868  0.6321  1.6809  1.1523
 2030TIP3    H2 6097   3.815   1.850   0.980 -1.5656 -0.8050 -0.1657
 2031TIP3   OH2 6098   2.990   3.749   2.186 -0.1078 -0.6613  0.2349
 2031TIP3    H1 6099   3.045   3.812   2.140 -0.9563  0.5524  0.8396
 2031TIP3    H2 6100   3.023   3.663   2.157  1.0746  0.0382 -0.5884
 2032TIP3   OH2 6101   2.740   3.829   3.635 -0.2923 -0.6004  0.1110
 2032TIP3    H1 6102   2.696   3.905   3.673 -0.0167 -0.5506  0.3251
 2032TIP3    H2 6103   2.717   3.832   3.542 -0.4559 -0.3773  0.1586
 2033TIP3   OH2 6104   3.267   1.337   4.419  0.1321 -0.2073 -0.6884
 2033TIP3    H1 6105   3.333   1.367   4.356 -1.1871  0.4135 -1.8099
 2033TIP3    H2 6106   3.314   1.273   4.473  2.6788  2.7212  0.9033
 2034TIP3   OH2 6107   1.174   1.126   4.567  0.2276 -0.1576  0.3149
 2034TIP3    H1 6108   1.103   1.156   4.623  0.3537  0.0482  0.3636
 2034TIP3    H2 6109   1.146   1.152   4.479 -0.1764 -0.8677  0.2261
 2035TIP3   OH2 6110   0.985   5.574   0.884  0.6889 -0.0840 -0.1574
 2035TIP3    H1 6111   0.904   5.562   0.933  1.8322 -1.4595  1.5058
 2035TIP3    H2 6112   0.960   5.560   0.792 -1.0609  0.2158  0.2301
 2036TIP3   OH2 6113   5.156   4.753   3.870 -0.4283  0.4408  0.0064
 2036TIP3    H1 6114   5.097   4.682   3.845  0.0423 -0.4975  1.3962
 2036TIP3    H2 6115   5.140   4.822   3.806 -2.3787 -0.1259 -0.1709
 2037TIP3   OH2 6116   4.678   4.043   0.936 -0.1978  0.1528 -0.4700
 2037TIP3    H1 6117   4.639   4.130   0.931  1.6899  0.9950 -2.6980
 2037TIP3    H2 6118   4.612   3.985   0.897 -0.7036  0.9110 -0.7594
 2038TIP3   OH2 6119   2.236   3.573   2.249 -0.0506  0.2960  0.2365
 2038TIP3    H1 6120   2.152   3.548   2.209  0.1793 -0.2443  0.0813
 2038TIP3    H2 6121   2.213   3.641   2.312 -0.5251  0.5909 -0.2445
 2039TIP3   OH2 6122   1.011   5.764   2.302  0.5950  0.1212 -0.1403
 2039TIP3    H1 6123   1.049   5.677   2.314 -1.1910 -0.5016  1.6777
 2039TIP3    H2 6124   1.007   5.801   2.391  0.3192  1.6307 -0.7471
 2040TIP3   OH2 6125   2.714   3.400   0.692  0.8975 -0.1821 -0.1422
 2040TIP3    H1 6126   2.790   3.432   0.643  1.0945  0.2214  0.4231
 2040TIP3    H2 6127   2.639   3.434   0.644  1.0919  2.1879  1.0954
 2041TIP3   OH2 6128   1.997   0.389   3.163 -0.1789 -0.3686  0.0318
 2041TIP3    H1 6129   2.092   0.382   3.165 -0.1495  0.0600  0.6551
 2041TIP3    H2 6130   1.980   0.482   3.178 -0.6630 -0.1107 -1.8608
 2042TIP3   OH2 6131   2.575   1.560   1.708  0.3359 -0.0700  0.0746
 2042TIP3    H1 6132   2.637   1.572   1.635  1.7290 -0.6679  1.1090
 2042TIP3    H2 6133   2.551   1.468   1.704 -0.1920  0.0750 -0.0884
 2043TIP3   OH2 6134   2.266   5.649   3.097  0.4874 -0.7012 -0.1554
 2043TIP3    H1 6135   2.224   5.712   3.155  0.9906  1.2490 -1.8219
 2043TIP3    H2 6136   2.292   5.577   3.155 -1.9590 -0.3821  1.4599
 2044TIP3   OH2 6137   3.897   3.581   1.553 -0.0961 -0.3927 -0.1444
 2044TIP3    H1 6138   3.888   3.552   1.644 -0.8149  0.1585 -0.0304
 2044TIP3    H2 6139   3.833   3.528   1.505  1.3072 -1.7469 -0.6026
 2045TIP3   OH2 6140   3.530   5.994   1.503 -0.2447 -0.3015 -0.0137
 2045TIP3    H1 6141   3.559   5.930   1.568  0.6134 -1.1686 -1.2119
 2045TIP3    H2 6142   3.595   5.988   1.432 -1.9057 -0.3801 -1.5966
 2046TIP3   OH2 6143   0.705   0.418   1.125 -0.1319 -0.1862  0.0702
 2046TIP3    H1 6144   0.742   0.460   1.047 -1.5610  1.5431  0.2509
 2046TIP3    H2 6145   0.631   0.367   1.092 -2.6426  2.9188  0.4684
 2047TIP3   OH2 6146   5.778   1.530   1.876  0.3766 -0.5006 -0.2919
 2047TIP3    H1 6147   5.684   1.547   1.866  0.3167  0.5683  1.5872
 2047TIP3    H2 6148   5.802   1.482   1.797 -2.1676 -2.6097  0.0892
 2048TIP3   OH2 6149   2.756   0.708   4.435 -0.1788 -0.1741  0.1598
 2048TIP3    H1 6150   2.676   0.666   4.467 -0.1841 -0.2916 -0.0041
 2048TIP3    H2 6151   2.798   0.743   4.514  0.2847 -1.2871  0.4287
 2049TIP3   OH2 6152   3.353   2.973   3.295  0.3373 -0.6887 -0.0607
 2049TIP3    H1 6153   3.387   3.026   3.367  2.7064 -0.1637 -1.4555
 2049TIP3    H2 6154   3.432   2.938   3.252 -1.0721 -3.6629 -0.4727
 2050TIP3   OH2 6155   1.500   1.103   3.924  0.6167 -0.1869 -0.3537
 2050TIP3    H1 6156   1.452   1.088   4.005  1.2843 -0.0812  0.0688
 2050TIP3    H2 6157   1.443   1.068   3.855 -0.1239  0.0739  0.1199
 2051TIP3   OH2 6158   3.388   0.286   3.190  0.1435 -0.5429  0.6509
 2051TIP3    H1 6159   3.342   0.346   3.248 -0.1376  0.5609 -0.6437
 2051TIP3    H2 6160   3.458   0.340   3.152  0.6677 -1.3927  0.3964
 2052TIP3   OH2 6161   1.160   4.126   0.208 -0.2868  0.1535  0.2674
 2052TIP3    H1 6162   1.085   4.142   0.264  0.4924  1.4908  0.9880
 2052TIP3    H2 6163   1.232   4.174   0.250  0.6564 -0.0214 -1.0837
 2053TIP3   OH2 6164   0.742   3.215   3.140  0.4580 -0.1384  0.3775
 2053TIP3    H1 6165   0.818   3.249   3.093  0.5215 -0.2700  0.3865
 2053TIP3    H2 6166   0.685   3.181   3.072  0.3897 -0.0080  0.3679
 2054TIP3   OH2 6167   3.266   1.919   3.270  0.6816 -0.4338 -0.2434
 2054TIP3    H1 6168   3.339   1.881   3.319 -0.4637 -0.8152  1.2308
 2054TIP3    H2 6169   3.307   1.988   3.217  2.2090 -1.1381 -0.0600
 2055TIP3   OH2 6170   4.675   2.994   2.847  0.3314 -0.0767  0.2898
 2055TIP3    H1 6171   4.637   2.913   2.881 -3.6117  1.3207 -0.2079
 2055TIP3    H2 6172   4.647   3.061   2.910 -0.5566  1.4731 -1.6465
 2056TIP3   OH2 6173   1.407   2.685   0.772 -0.0409 -0.0507  0.0395
 2056TIP3    H1 6174   1.350   2.759   0.750  2.7773  1.8158 -1.6426
 2056TIP3    H2 6175   1.425   2.696   0.865  0.2093  1.3379 -0.1469
 2057TIP3   OH2 6176   6.124   4.512   5.130  0.1039  0.3574 -0.2309
 2057TIP3    H1 6177   6.037   4.491   5.096  0.5673 -0.8310 -0.7413
 2057TIP3    H2 6178   6.108   4.571   5.204 -1.1470 -0.1108 -0.1085
 2058TIP3   OH2 6179   5.989   3.232   4.021 -0.1955 -0.2248 -0.0811
 2058TIP3    H1 6180   6.014   3.232   4.113 -0.1390  1.2913 -0.0710
 2058TIP3    H2 6181   5.970   3.324   4.001  1.4691 -0.2130 -2.0156
 2059TIP3   OH2 6182   4.021   1.653   5.155 -0.2132  0.8133  0.1618
 2059TIP3    H1 6183   3.948   1.714   5.163 -1.3892  0.0236 -2.9779
 2059TIP3    H2 6184   3.981   1.566   5.152  1.2284  0.0093  2.1098
 2060TIP3   OH2 6185   3.606   1.127   1.051  0.1950  0.3187 -0.4531
 2060TIP3    H1 6186   3.625   1.034   1.038  0.7886  0.7361 -3.0955
 2060TIP3    H2 6187   3.582   1.159   0.964 -0.0358  2.6561  0.4011
 2061TIP3   OH2 6188   0.962   2.136   4.548  0.4664 -1.0468 -0.4225
 2061TIP3    H1 6189   0.998   2.074   4.611 -2.0061 -0.7448  1.3898
 2061TIP3    H2 6190   0.974   2.222   4.589 -1.6099 -0.8867 -0.0721
 2062TIP3   OH2 6191   5.561   2.796   0.880 -0.3715 -0.0363  0.2238
 2062TIP3    H1 6192   5.635   2.845   0.845 -0.0742 -0.5891  0.0550
 2062TIP3    H2 6193   5.487   2.823   0.826 -0.2253  0.2687  0.1725
 2063TIP3   OH2 6194   3.809   0.597   1.437  0.1277  0.0608 -0.1767
 2063TIP3    H1 6195   3.852   0.657   1.499 -0.0405 -1.9467  2.0114
 2063TIP3    H2 6196   3.877   0.576   1.374  1.0055  0.4635  0.6041
 2064TIP3   OH2 6197   3.307   2.579   3.810  0.1032  0.0343  0.2621
 2064TIP3    H1 6198   3.224   2.571   3.764  0.7685  0.4221 -1.0400
 2064TIP3    H2 6199   3.367   2.521   3.763  0.4710 -0.5827  1.4511
 2065TIP3   OH2 6200   3.420   0.524   1.993 -0.4839 -0.7838  0.0486
 2065TIP3    H1 6201   3.335   0.490   2.022 -0.4306 -3.1867 -2.1551
 2065TIP3    H2 6202   3.453   0.457   1.933  2.1061  0.9815 -0.6900
 2066TIP3   OH2 6203   4.452   1.024   3.538 -0.3861 -0.1257  0.2513
 2066TIP3    H1 6204   4.382   1.089   3.535  2.2952  3.0888  0.2842
 2066TIP3    H2 6205   4.487   1.022   3.448 -1.4563 -2.9926 -0.2074
 2067TIP3   OH2 6206   4.578   4.914   2.586  0.6441 -0.2341 -0.2325
 2067TIP3    H1 6207   4.663   4.916   2.541  0.8530  1.9096  0.1444
 2067TIP3    H2 6208   4.600   4.904   2.678  0.5817  1.2923 -0.0289
 2068TIP3   OH2 6209   5.799   0.037   2.389 -0.0398  0.7074  0.0201
 2068TIP3    H1 6210   5.835   0.080   2.467  1.0157  0.2810 -0.2150
 2068TIP3    H2 6211   5.845  -0.047   2.384 -0.4057  0.5430 -0.8181
 2069TIP3   OH2 6212   0.339   1.746   4.434  0.1609  0.4464  0.0510
 2069TIP3    H1 6213   0.389   1.783   4.362  1.6496  0.9072  1.2656
 2069TIP3    H2 6214   0.405   1.708   4.492 -0.9934  0.0015  1.1275
 2070TIP3   OH2 6215   4.698   1.574   2.295  0.1713  0.7525  0.3886
 2070TIP3    H1 6216   4.651   1.608   2.371 -0.1798 -0.4136  0.7167
 2070TIP3    H2 6217   4.745   1.498   2.329  1.6207  1.3802 -0.1309
 2071TIP3   OH2 6218   4.573   5.784   0.431  0.1123  0.1925 -0.2977
 2071TIP3    H1 6219   4.658   5.785   0.385  1.0799 -0.6278  1.3850
 2071TIP3    H2 6220   4.523   5.716   0.387  0.2599  0.7575 -1.3866
 2072TIP3   OH2 6221   3.538   5.805   1.162 -0.5498  0.2004  0.4935
 2072TIP3    H1 6222   3.522   5.899   1.155  1.9793  0.8126  1.8375
 2072TIP3    H2 6223   3.580   5.782   1.079  0.3561  0.6276  0.8280
 2073TIP3   OH2 6224   5.647   4.584   3.971 -0.4958  0.0663  0.6035
 2073TIP3    H1 6225   5.711   4.516   3.948  0.0692  1.0429 -0.8379
 2073TIP3    H2 6226   5.594   4.593   3.892 -1.2726  0.5248  1.1791
 2074TIP3   OH2 6227   5.988   4.426   2.695  0.4652  0.6288 -0.5182
 2074TIP3    H1 6228   5.905   4.462   2.664  1.0481  2.3527 -0.1860
 2074TIP3    H2 6229   5.965   4.344   2.738 -1.2959  1.8464  0.9847
 2075TIP3   OH2 6230   0.589   3.338   1.919 -0.2085  0.3076  0.1667
 2075TIP3    H1 6231   0.494   3.338   1.906 -0.4182 -1.0703  1.4807
 2075TIP3    H2 6232   0.619   3.259   1.874  0.0527 -0.2795  1.3474
 2076TIP3   OH2 6233   0.762   1.026   4.716  0.3020 -0.7043  1.0251
 2076TIP3    H1 6234   0.851   1.051   4.740  0.8671 -1.6294 -0.0058
 2076TIP3    H2 6235   0.744   1.074   4.635 -0.7284  0.6438  2.0138
 2077TIP3   OH2 6236   0.802   2.097   0.545 -0.1944 -0.4816 -0.2842
 2077TIP3    H1 6237   0.821   2.189   0.566 -1.3573 -0.0323 -1.0823
 2077TIP3    H2 6238   0.863   2.047   0.598  0.8245  0.7728 -0.2295
 2078TIP3   OH2 6239   4.257   3.698   3.910 -1.0518  0.1464  0.2666
 2078TIP3    H1 6240   4.336   3.647   3.922 -0.6256  0.8218  0.4056
 2078TIP3    H2 6241   4.259   3.726   3.819 -0.6380  0.9474  0.5112
 2079TIP3   OH2 6242   5.500   1.290   3.473  0.0519  0.5790  0.2738
 2079TIP3    H1 6243   5.468   1.381   3.475  0.7046  0.9291 -2.1933
 2079TIP3    H2 6244   5.421   1.237   3.466 -0.2369  1.1322 -0.8619
 2080TIP3   OH2 6245   0.025   2.086   2.192 -0.1517  0.0178  0.0783
 2080TIP3    H1 6246   0.106   2.102   2.239 -1.0025 -0.3779  1.7521
 2080TIP3    H2 6247   0.053   2.061   2.104  1.5114  0.1846  0.5263
 2081TIP3   OH2 6248   1.696   2.499   2.476 -0.4881  0.6049  0.1633
 2081TIP3    H1 6249   1.765   2.482   2.413  0.4881  1.8376  0.8339
 2081TIP3    H2 6250   1.724   2.454   2.556 -1.8502 -1.1802 -0.3048
 2082TIP3   OH2 6251   5.506   2.456   3.786 -0.4006  0.2101  0.3294
 2082TIP3    H1 6252   5.531   2.518   3.718  1.4205 -0.9238 -0.0955
 2082TIP3    H2 6253   5.448   2.506   3.844 -0.4087  1.7667 -0.9605
 2083TIP3   OH2 6254   3.925   2.889   3.731 -0.2873  0.0726 -0.3769
 2083TIP3    H1 6255   4.000   2.941   3.761 -0.7825  0.6221 -0.0714
 2083TIP3    H2 6256   3.871   2.877   3.809 -0.1938 -0.9013 -0.4442
 2084TIP3   OH2 6257   4.364   5.849   0.115 -0.3915  0.6878  0.4568
 2084TIP3    H1 6258   4.450   5.890   0.122 -0.6265  1.2852 -0.0714
 2084TIP3    H2 6259   4.368   5.775   0.176  0.0670  1.4407  1.3731
 2085TIP3   OH2 6260   3.929   0.883   1.820  0.2573 -0.1926  0.8533
 2085TIP3    H1 6261   3.879   0.876   1.901 -0.1354  0.2909  0.6583
 2085TIP3    H2 6262   3.915   0.974   1.791 -0.6171 -0.7117 -0.4198
 2086TIP3   OH2 6263   4.902   4.010   0.094  0.2254 -0.6640  0.0818
 2086TIP3    H1 6264   4.807   4.020   0.095  0.4063  1.5940  0.1389
 2086TIP3    H2 6265   4.924   3.982   0.183 -0.3469 -0.5864  0.2520
 2087TIP3   OH2 6266   2.652   2.584   4.547 -0.3232 -0.0468  0.4669
 2087TIP3    H1 6267   2.563   2.571   4.578 -0.1220  0.3977  1.2428
 2087TIP3    H2 6268   2.642   2.625   4.461 -0.8645  0.2153  0.6521
 2088TIP3   OH2 6269   2.119   0.024   3.191 -0.0093  0.0417  0.0234
 2088TIP3    H1 6270   2.080   0.080   3.123 -1.7586 -0.4985  0.5324
 2088TIP3    H2 6271   2.190  -0.022   3.146 -0.2203  0.7325 -1.0712
 2089TIP3   OH2 6272   3.432   1.717   3.002 -0.0913  0.7666 -0.2421
 2089TIP3    H1 6273   3.506   1.704   3.061  1.0748  1.2350 -1.5275
 2089TIP3    H2 6274   3.406   1.808   3.016 -0.9956  0.3631  0.8089
 2090TIP3   OH2 6275   0.974   4.246   3.685  0.3416 -0.4115 -0.2017
 2090TIP3    H1 6276   1.058   4.234   3.640  0.7504 -0.1975  0.4945
 2090TIP3    H2 6277   0.921   4.172   3.656 -0.8341  1.6655 -4.1347
 2091TIP3   OH2 6278   0.866   0.793   1.793 -0.1861 -0.4866 -0.0319
 2091TIP3    H1 6279   0.928   0.836   1.734  0.5490  0.7314  1.5617
 2091TIP3    H2 6280   0.819   0.731   1.737  0.6606  0.4171 -1.8242
 2092TIP3   OH2 6281   3.498   5.768   2.092  0.2585  0.2123  0.3853
 2092TIP3    H1 6282   3.539   5.740   2.010 -1.9250  0.4378 -0.8376
 2092TIP3    H2 6283   3.545   5.848   2.116  2.1636 -0.8360  0.4256
 2093TIP3   OH2 6284   5.874   5.580   3.135  0.1736  0.2785 -0.1823
 2093TIP3    H1 6285   5.942   5.514   3.143 -0.2993 -0.2583 -0.5763
 2093TIP3    H2 6286   5.914   5.660   3.171  1.7998  0.5569 -2.4131
 2094TIP3   OH2 6287   6.198   4.370   0.151 -0.2937  0.1082  0.4506
 2094TIP3    H1 6288   6.144   4.310   0.202  0.7013 -2.5255 -1.3239
 2094TIP3    H2 6289   6.285   4.330   0.153  0.0089  0.4324 -2.3565
 2095TIP3   OH2 6290   1.727   3.926   1.594 -0.0761  0.0398  0.0176
 2095TIP3    H1 6291   1.816   3.954   1.571  0.2667 -0.5695  0.5411
 2095TIP3    H2 6292   1.708   3.854   1.533  0.0660 -0.2820  0.3460
 2096TIP3   OH2 6293   2.221   0.092   1.855  0.2802 -0.6666  0.1603
 2096TIP3    H1 6294   2.199   0.126   1.768  1.4520 -0.5426 -0.1092
 2096TIP3    H2 6295   2.316   0.101   1.860  0.1270  0.3009  1.8785
 2097TIP3   OH2 6296   5.639   3.232   2.565  0.0475 -0.3564 -0.7623
 2097TIP3    H1 6297   5.610   3.308   2.615 -1.5014 -0.6242 -1.2171
 2097TIP3    H2 6298   5.566   3.170   2.569  1.0526 -1.5886 -0.8894
 2098TIP3   OH2 6299   2.797   3.576   4.417  0.0140  0.4982  0.4990
 2098TIP3    H1 6300   2.852   3.545   4.345  1.1779  1.2888  1.0140
 2098TIP3    H2 6301   2.859   3.594   4.488 -0.9563  1.0700  1.2242
 2099TIP3   OH2 6302   0.787   5.586   3.962 -0.1575  0.1673 -0.0309
 2099TIP3    H1 6303   0.821   5.499   3.986 -0.8056  0.1293  0.7839
 2099TIP3    H2 6304   0.865   5.640   3.950  0.2341 -0.3725  0.0536
 2100TIP3   OH2 6305   4.959   4.987   3.118  0.0498 -0.0410  0.3390
 2100TIP3    H1 6306   4.912   4.960   3.039 -1.9859  3.4294  0.1542
 2100TIP3    H2 6307   5.036   5.033   3.085  0.4791 -0.6593  0.4707
 2101TIP3   OH2 6308   2.152   2.111   4.440 -0.3433  0.0669 -0.2506
 2101TIP3    H1 6309   2.138   2.052   4.366 -0.9345 -1.4613  1.0250
 2101TIP3    H2 6310   2.203   2.060   4.502 -0.0349  1.2439  0.4993
 2102TIP3   OH2 6311   1.237   1.034   1.396 -0.8296  0.3167 -0.2372
 2102TIP3    H1 6312   1.296   0.990   1.459  0.3793 -0.4349 -1.8145
 2102TIP3    H2 6313   1.231   1.124   1.429 -0.0715  0.0052  0.8474
 2103TIP3   OH2 6314   0.674   4.972   1.765  0.2203  0.0060 -0.1661
 2103TIP3    H1 6315   0.758   4.954   1.722  0.1565 -0.2730 -0.1721
 2103TIP3    H2 6316   0.611   4.980   1.693  0.4570  1.4387 -0.2491
 2104TIP3   OH2 6317   3.202   2.397   2.048  0.4064  0.6934 -0.2198
 2104TIP3    H1 6318   3.134   2.343   2.088  0.7806  0.2406 -0.1871
 2104TIP3    H2 6319   3.223   2.353   1.966 -0.7635  1.9238 -1.2238
 2105TIP3   OH2 6320   3.847   2.997   0.978 -0.4396  0.5191  0.1895
 2105TIP3    H1 6321   3.804   2.948   0.909 -0.4418 -2.0095  1.8466
 2105TIP3    H2 6322   3.927   3.031   0.937 -0.8678 -0.1536 -1.2580
 2106TIP3   OH2 6323   6.320   3.625   4.718 -0.4950 -0.3040 -0.1466
 2106TIP3    H1 6324   6.246   3.574   4.751  0.6069 -2.0853 -0.3046
 2106TIP3    H2 6325   6.384   3.560   4.692  1.2892  1.1921  0.2928
 2107TIP3   OH2 6326   5.654   0.877   3.500  0.1903  0.2833 -0.6129
 2107TIP3    H1 6327   5.669   0.964   3.539  0.2486 -0.0170  0.0493
 2107TIP3    H2 6328   5.682   0.886   3.410  1.0541  0.7017 -0.3119
 2108TIP3   OH2 6329   1.931   3.856   0.975  0.0245  0.0975  0.2189
 2108TIP3    H1 6330   1.973   3.915   1.038 -0.7338  0.2319  0.6151
 2108TIP3    H2 6331   1.938   3.902   0.891  0.0974  0.4070  0.3936
 2109TIP3   OH2 6332   2.534   5.527   0.533  0.6410 -0.9342  0.3991
 2109TIP3    H1 6333   2.476   5.462   0.493  0.8850 -0.9997  0.1455
 2109TIP3    H2 6334   2.502   5.611   0.500 -1.9202 -0.5452  3.4549
 2110TIP3   OH2 6335   2.412   4.443   0.744  0.2177  0.7985 -0.1845
 2110TIP3    H1 6336   2.432   4.402   0.828  0.8496 -0.2356 -0.8267
 2110TIP3    H2 6337   2.497   4.455   0.701 -0.2328 -0.6718 -1.5727
 2111TIP3   OH2 6338   3.815   2.327   4.430 -0.3932 -0.0599 -0.4164
 2111TIP3    H1 6339   3.843   2.318   4.521  0.4959  2.0073 -0.4274
 2111TIP3    H2 6340   3.864   2.261   4.383 -1.3957 -1.6451  0.6601
 2112TIP3   OH2 6341   2.365   3.379   0.898  0.3883 -0.2491  0.0571
 2112TIP3    H1 6342   2.336   3.367   0.989  0.3338 -0.4181  0.0177
 2112TIP3    H2 6343   2.285   3.372   0.846  0.1753  1.4220  0.1164
 2113TIP3   OH2 6344   2.553   4.100   3.288  0.6256  0.3483  0.3505
 2113TIP3    H1 6345   2.567   4.005   3.284  0.1047  0.2447  0.9649
 2113TIP3    H2 6346   2.613   4.135   3.222  0.3478 -0.4569 -0.3503
 2114TIP3   OH2 6347   3.713   2.759   2.494 -0.0326  0.0090  0.0041
 2114TIP3    H1 6348   3.622   2.772   2.523  0.2613  0.1231  0.9331
 2114TIP3    H2 6349   3.765   2.798   2.564  0.7722 -1.8890  0.5200
 2115TIP3   OH2 6350   6.168   1.954   3.603  0.7556  0.1698 -0.4507
 2115TIP3    H1 6351   6.106   2.021   3.575 -0.6492 -0.4472  1.0116
 2115TIP3    H2 6352   6.124   1.871   3.584  0.8752 -0.2726  1.0767
 2116TIP3   OH2 6353   4.578   3.110   1.293 -0.0877 -0.1211  0.6705
 2116TIP3    H1 6354   4.608   3.198   1.272  0.1320 -0.3918 -0.1661
 2116TIP3    H2 6355   4.628   3.085   1.371 -0.2365  0.5262  0.9807
 2117TIP3   OH2 6356   2.990   4.931   0.299 -0.3997  0.0431 -0.1356
 2117TIP3    H1 6357   3.067   4.875   0.291  0.2343  1.0727 -1.5242
 2117TIP3    H2 6358   2.916   4.872   0.282  0.1600 -0.6339 -0.2804
 2118TIP3   OH2 6359   1.538   0.117   3.513 -0.0802  0.2314  0.5545
 2118TIP3    H1 6360   1.450   0.123   3.476  0.5686  2.2352 -0.8563
 2118TIP3    H2 6361   1.591   0.081   3.442  0.6322  1.2595  0.5428
 2119TIP3   OH2 6362   0.529   3.792   4.001 -0.0890 -0.8249 -0.3661
 2119TIP3    H1 6363   0.506   3.804   4.093 -0.3801  0.7849 -0.6218
 2119TIP3    H2 6364   0.450   3.756   3.960 -0.6569  0.4024 -0.3687
 2120TIP3   OH2 6365   4.396   0.849   0.184 -0.2337  0.2299  0.4677
 2120TIP3    H1 6366   4.310   0.827   0.219 -0.0215 -0.0586  0.8077
 2120TIP3    H2 6367   4.458   0.796   0.234 -0.0044 -1.0124 -1.0527
 2121TIP3   OH2 6368   5.040   4.688   0.495  0.2640  0.0911 -0.6101
 2121TIP3    H1 6369   5.036   4.612   0.436  2.4064  1.7268 -3.0579
 2121TIP3    H2 6370   5.134   4.701   0.511 -0.1943  0.2570  2.5875
 2122TIP3   OH2 6371   5.118   0.363   2.920  0.6632  0.4508  0.2593
 2122TIP3    H1 6372   5.122   0.423   2.845  0.6338 -0.7516 -0.7343
 2122TIP3    H2 6373   5.047   0.398   2.974  0.1860  0.9338 -0.6391
 2123TIP3   OH2 6374   2.020   2.044   2.864  0.1575 -0.0017  0.2818
 2123TIP3    H1 6375   2.014   2.074   2.773  0.4875 -2.0264 -0.4808
 2123TIP3    H2 6376   1.930   2.043   2.895  0.1232  1.5361  0.3022
 2124TIP3   OH2 6377   6.335   2.597   3.581 -0.2182 -0.0045  0.5499
 2124TIP3    H1 6378   6.380   2.640   3.508 -0.3567  0.2357  0.6037
 2124TIP3    H2 6379   6.254   2.647   3.591 -0.1360  0.0477  0.9577
 2125TIP3   OH2 6380   4.236   3.013   2.953 -0.1668  0.1417 -0.1083
 2125TIP3    H1 6381   4.250   3.089   2.896 -0.0187  0.2853  0.1170
 2125TIP3    H2 6382   4.203   3.050   3.035  1.4547  0.1397  0.5930
 2126TIP3   OH2 6383   1.438   3.068   3.699 -0.4898 -0.6622 -0.1338
 2126TIP3    H1 6384   1.509   3.083   3.761 -0.6559  1.2723 -0.3711
 2126TIP3    H2 6385   1.459   3.123   3.623 -1.9654 -0.4439 -0.4244
 2127TIP3   OH2 6386   0.421   2.435   0.032 -0.1098 -0.1639 -0.3726
 2127TIP3    H1 6387   0.342   2.445   0.085 -0.6211 -0.6225 -1.0300
 2127TIP3    H2 6388   0.426   2.341   0.015  1.5161 -0.3925  1.0499
 2128TIP3   OH2 6389   5.358   1.994   2.702  0.5770  0.3408 -0.4964
 2128TIP3    H1 6390   5.345   2.062   2.636  1.4827  0.8014 -0.2178
 2128TIP3    H2 6391   5.447   1.962   2.686  0.7506  0.3527  0.4002
 2129TIP3   OH2 6392   1.591   5.095   2.230 -0.2634  0.4794 -0.5936
 2129TIP3    H1 6393   1.607   5.156   2.303 -0.7596  0.7780 -0.7256
 2129TIP3    H2 6394   1.521   5.137   2.180 -0.4789 -0.1155 -0.7931
 2130TIP3   OH2 6395   5.314   4.842   2.084  0.0764  0.1196 -0.3001
 2130TIP3    H1 6396   5.231   4.887   2.100  0.1961  0.8400 -1.5476
 2130TIP3    H2 6397   5.291   4.749   2.081 -0.4174  0.1885  0.8539
 2131TIP3   OH2 6398   5.929   3.144   0.958 -0.3005 -0.4465  0.7797
 2131TIP3    H1 6399   5.833   3.149   0.955 -0.2711 -0.2187 -0.4965
 2131TIP3    H2 6400   5.959   3.232   0.936  0.2034 -0.4017  1.6388
 2132TIP3   OH2 6401   2.569   5.055   4.396  0.2632 -0.2428 -0.2690
 2132TIP3    H1 6402   2.606   5.126   4.344 -1.5456  0.4787 -0.6228
 2132TIP3    H2 6403   2.587   5.080   4.487 -0.7573  0.9419 -0.3660
 2133TIP3   OH2 6404   3.203   0.427   4.159  0.1944  0.2475 -0.3785
 2133TIP3    H1 6405   3.142   0.415   4.086  0.8927 -0.2452 -0.8993
 2133TIP3    H2 6406   3.232   0.338   4.180  0.1391  0.4030  0.3931
 2134TIP3   OH2 6407   4.020   5.031   1.426  0.0818 -0.3803 -0.4982
 2134TIP3    H1 6408   4.013   5.102   1.491 -2.1625 -0.9976  0.0256
 2134TIP3    H2 6409   3.941   5.040   1.373 -0.2505 -2.4723 -0.4311
 2135TIP3   OH2 6410   3.169   2.173   4.080 -0.1011  0.3190  0.0330
 2135TIP3    H1 6411   3.194   2.123   4.158  0.0057 -0.6976 -0.6331
 2135TIP3    H2 6412   3.252   2.208   4.048 -0.2382  1.3439  0.7722
 2136TIP3   OH2 6413   0.626   4.841   2.498 -0.0716 -0.1905  0.0611
 2136TIP3    H1 6414   0.581   4.764   2.532  1.2427 -0.4334  1.4062
 2136TIP3    H2 6415   0.636   4.825   2.405 -3.2077  0.1568 -0.4498
 2137TIP3   OH2 6416   4.021   4.893   2.123  0.2455 -0.2911  0.0593
 2137TIP3    H1 6417   4.045   4.804   2.150  1.3983  0.6516  2.4075
 2137TIP3    H2 6418   3.938   4.910   2.167 -1.0171 -0.8235 -1.9647
 2138TIP3   OH2 6419   1.523   3.846   4.864  0.2177  0.4712 -0.5520
 2138TIP3    H1 6420   1.595   3.818   4.920  0.2929 -0.9707 -1.3275
 2138TIP3    H2 6421   1.470   3.768   4.852  0.4710  0.5757 -2.8652
 2139TIP3   OH2 6422   2.661   3.808   3.371 -0.3003  0.3789  0.2627
 2139TIP3    H1 6423   2.612   3.726   3.360 -1.3088  1.1916 -1.8546
 2139TIP3    H2 6424   2.713   3.816   3.291 -1.1219  2.3612 -0.1198
 2140TIP3   OH2 6425   2.420   3.426   0.297  0.3313 -0.0854 -0.3039
 2140TIP3    H1 6426   2.360   3.474   0.354  1.9812 -0.7095  2.1044
 2140TIP3    H2 6427   2.389   3.335   0.301  1.3995 -0.4251  1.0165
 2141TIP3   OH2 6428   2.539   2.095   3.324 -0.5439  0.2902  0.2578
 2141TIP3    H1 6429   2.485   2.164   3.286 -0.5820  0.1475  0.0549
 2141TIP3    H2 6430   2.601   2.071   3.254 -1.6556 -1.1052 -0.2869
 2142TIP3   OH2 6431   2.291   5.507   4.184  0.3029 -0.7997 -0.3255
 2142TIP3    H1 6432   2.308   5.488   4.092 -0.2145 -2.7574 -0.0435
 2142TIP3    H2 6433   2.207   5.552   4.184  1.6371  1.9205 -1.0137
 2143TIP3   OH2 6434   3.697   5.689   3.388 -0.0781  0.0564 -0.2370
 2143TIP3    H1 6435   3.631   5.669   3.321 -1.0873  1.2408  0.3501
 2143TIP3    H2 6436   3.709   5.607   3.435  0.3613 -0.6994 -1.5973
 2144TIP3   OH2 6437   3.796   1.116   3.469  0.2479 -0.1839  0.4331
 2144TIP3    H1 6438   3.718   1.167   3.446  2.0482  3.2771  1.2028
 2144TIP3    H2 6439   3.823   1.152   3.553  2.7648 -1.0892  0.0848
 2145TIP3   OH2 6440   1.295   0.904   0.217  0.4123 -0.0272  0.3214
 2145TIP3    H1 6441   1.254   0.933   0.298  1.3903  1.9253  0.1624
 2145TIP3    H2 6442   1.358   0.838   0.244 -0.2763 -0.4328  0.9685
 2146TIP3   OH2 6443   1.596   5.211   1.613 -0.7182 -0.1987 -0.0629
 2146TIP3    H1 6444   1.554   5.234   1.530  0.4395  1.1121 -0.3302
 2146TIP3    H2 6445   1.548   5.262   1.679 -0.0285  0.7723 -0.2825
 2147TIP3   OH2 6446   4.523   1.160   4.030  0.4741  0.0915  0.3129
 2147TIP3    H1 6447   4.536   1.075   3.987 -0.4324 -0.8345  1.7957
 2147TIP3    H2 6448   4.605   1.208   4.013  0.0523 -0.0496 -2.6884
 2148TIP3   OH2 6449   1.627   2.030   1.220 -0.0341 -0.5430  0.7025
 2148TIP3    H1 6450   1.552   2.084   1.245 -0.1661 -0.2483 -0.2671
 2148TIP3    H2 6451   1.595   1.940   1.227 -0.1912 -0.4491  1.1735
 2149TIP3   OH2 6452   1.979   3.041   4.784  0.0059  0.2769  0.5128
 2149TIP3    H1 6453   2.014   3.105   4.846  1.3047 -0.9569  1.1145
 2149TIP3    H2 6454   2.010   3.071   4.698  0.4527  0.5615  0.7713
 2150TIP3   OH2 6455   3.805   4.367   4.004 -0.5559  0.3196 -1.1235
 2150TIP3    H1 6456   3.867   4.387   4.074  0.5513  0.1503 -2.0209
 2150TIP3    H2 6457   3.821   4.435   3.938 -3.0980  1.8142 -0.3450
 2151TIP3   OH2 6458   6.107   5.889   1.351 -0.4530  0.1461  0.0364
 2151TIP3    H1 6459   6.087   5.805   1.395  0.8864  0.1610  0.7190
 2151TIP3    H2 6460   6.202   5.888   1.340 -0.6121  0.7597 -1.6902
 2152TIP3   OH2 6461   1.460   3.437   5.030  0.0855 -0.1816  0.0007
 2152TIP3    H1 6462   1.377   3.479   5.054 -0.1318 -0.8981  0.5088
 2152TIP3    H2 6463   1.447   3.345   5.050 -0.9284 -1.3643 -4.8408
 2153TIP3   OH2 6464   3.566   3.467   2.178  0.1419  0.1376 -0.6674
 2153TIP3    H1 6465   3.492   3.522   2.205  0.2567 -0.2356  0.4575
 2153TIP3    H2 6466   3.526   3.397   2.127 -0.3306 -0.1759  0.1009
 2154TIP3   OH2 6467   3.831   5.292   1.580 -0.1002 -0.0298  0.3438
 2154TIP3    H1 6468   3.771   5.361   1.554 -1.0303 -0.2066  1.8779
 2154TIP3    H2 6469   3.799   5.264   1.666  2.2926 -0.0055  1.3147
 2155TIP3   OH2 6470   4.540   1.971   0.271 -0.2637  0.6371  0.6583
 2155TIP3    H1 6471   4.529   1.966   0.176 -2.0027  0.7557  0.8100
 2155TIP3    H2 6472   4.595   1.897   0.294 -0.5229  0.1225 -0.3675
 2156TIP3   OH2 6473   2.244   3.178   1.820 -0.3947 -0.2182 -0.3116
 2156TIP3    H1 6474   2.155   3.211   1.830 -0.4264 -0.8612  2.6499
 2156TIP3    H2 6475   2.299   3.250   1.851  0.0533 -0.2663 -0.9765
 2157TIP3   OH2 6476   2.929   0.501   0.966  0.0071  0.1998  0.5823
 2157TIP3    H1 6477   2.854   0.547   0.928 -0.5618 -1.8144 -0.9190
 2157TIP3    H2 6478   2.939   0.540   1.053 -0.4226  3.0416 -0.5339
 2158TIP3   OH2 6479   1.181   4.577   0.391  0.3228  0.8363  0.4825
 2158TIP3    H1 6480   1.265   4.616   0.367  1.5423 -1.6426  0.4583
 2158TIP3    H2 6481   1.119   4.612   0.327  1.5775  1.7310 -0.2966
 2159TIP3   OH2 6482   0.106   0.886   4.677  0.0414 -0.1797 -0.3835
 2159TIP3    H1 6483   0.077   0.920   4.592  0.4111  1.3887  0.0921
 2159TIP3    H2 6484   0.127   0.964   4.728  1.3973 -1.1488  0.5966
 2160TIP3   OH2 6485   1.335   3.530   1.433  0.0559  0.3182 -0.3890
 2160TIP3    H1 6486   1.310   3.438   1.421  0.0480  0.4874 -1.8932
 2160TIP3    H2 6487   1.305   3.574   1.354  1.3540  1.3476 -0.3567
 2161TIP3   OH2 6488   1.653   3.237   3.604 -0.0927 -0.9508 -0.7431
 2161TIP3    H1 6489   1.736   3.276   3.633 -0.4132 -0.6061 -0.2750
 2161TIP3    H2 6490   1.676   3.147   3.581  0.2602 -1.1158  0.1938
 2162TIP3   OH2 6491   5.707   1.844   4.275  0.5626 -0.6647  0.2118
 2162TIP3    H1 6492   5.621   1.837   4.316  1.1557 -0.3151  1.5470
 2162TIP3    H2 6493   5.695   1.908   4.205 -0.3050 -0.7687  0.2568
 2163TIP3   OH2 6494   4.929   5.278   4.460  0.2206  0.2385  0.2621
 2163TIP3    H1 6495   4.917   5.210   4.395  1.2353  0.3923 -0.1119
 2163TIP3    H2 6496   4.964   5.233   4.537  0.7496  0.3105  0.0665
 2164TIP3   OH2 6497   0.087   3.566   4.353  0.5567 -0.0815  0.0472
 2164TIP3    H1 6498   0.068   3.479   4.318 -2.2216 -0.7769  2.8083
 2164TIP3    H2 6499   0.013   3.620   4.324  1.2512  0.8856  0.0021
 2165TIP3   OH2 6500   4.084   0.914   4.979 -0.3976 -0.0451 -0.2733
 2165TIP3    H1 6501   4.084   0.953   4.891 -0.7090 -2.6468 -1.5244
 2165TIP3    H2 6502   4.150   0.845   4.974 -1.6869 -1.4307  0.9484
 2166TIP3   OH2 6503   2.977   0.489   4.570 -1.1366 -0.0835  0.4582
 2166TIP3    H1 6504   2.991   0.462   4.661 -0.1924 -1.2346 -0.0056
 2166TIP3    H2 6505   2.904   0.435   4.540 -0.4949 -0.7614  0.1023
 2167TIP3   OH2 6506   1.029   5.896   2.561 -0.2642  0.4077  0.1081
 2167TIP3    H1 6507   0.970   5.949   2.615 -0.1639 -0.1990  0.8331
 2167TIP3    H2 6508   1.114   5.902   2.605  0.3551  1.6575 -1.1896
 2168TIP3   OH2 6509   0.842   5.170   4.967 -0.1363  0.3643  0.1111
 2168TIP3    H1 6510   0.867   5.178   4.875  1.0012 -0.0105  0.3713
 2168TIP3    H2 6511   0.754   5.134   4.965  0.4528 -1.1099 -0.8333
 2169TIP3   OH2 6512   5.169   0.347   0.792 -0.1394 -0.9943 -0.0219
 2169TIP3    H1 6513   5.138   0.424   0.840  0.2326 -0.8289 -0.0451
 2169TIP3    H2 6514   5.184   0.281   0.859 -1.2384 -1.3183 -0.0775
 2170TIP3   OH2 6515   5.364   1.973   3.024 -0.2949  0.5362 -0.1779
 2170TIP3    H1 6516   5.460   1.972   3.026 -0.2934 -0.6383  0.0328
 2170TIP3    H2 6517   5.342   1.944   2.936 -0.4605  0.2416 -0.0381
 2171TIP3   OH2 6518   5.443   0.726   3.579  0.5630  0.3631 -0.1159
 2171TIP3    H1 6519   5.508   0.786   3.543  0.8522 -0.0523 -0.2948
 2171TIP3    H2 6520   5.459   0.726   3.673 -0.2996  1.5760  0.0482
 2172TIP3   OH2 6521   3.624   1.783   1.599  0.2418 -0.0827  0.0986
 2172TIP3    H1 6522   3.548   1.757   1.547 -1.3663 -0.5064  2.5172
 2172TIP3    H2 6523   3.647   1.704   1.648  2.5577 -0.0882 -0.8622
 2173TIP3   OH2 6524   2.224   3.936   4.619  0.0998  0.3941  0.6116
 2173TIP3    H1 6525   2.301   3.895   4.580 -1.8902 -2.1227 -0.9918
 2173TIP3    H2 6526   2.192   3.997   4.552  0.6033  1.4176  1.2644
 2174TIP3   OH2 6527   3.331   4.054   3.962  0.3586 -0.6882  0.1564
 2174TIP3    H1 6528   3.289   4.120   4.018 -0.3873 -3.2041  2.7832
 2174TIP3    H2 6529   3.387   4.005   4.021 -0.4221 -3.5069 -1.2843
 2175TIP3   OH2 6530   1.043   2.920   1.820  0.3962  0.4978 -0.4836
 2175TIP3    H1 6531   1.002   2.874   1.746  2.1193 -1.4270 -0.3077
 2175TIP3    H2 6532   1.085   2.996   1.780 -0.3862  0.5832 -1.1759
 2176TIP3   OH2 6533   6.297   0.966   2.286 -0.2825  0.6919  0.1075
 2176TIP3    H1 6534   6.248   0.949   2.366 -0.1796  0.6114  0.1537
 2176TIP3    H2 6535   6.386   0.939   2.307 -0.5037 -0.5089 -0.4480
 2177TIP3   OH2 6536   3.409   5.064   4.090 -0.4571  0.2652  0.1950
 2177TIP3    H1 6537   3.346   5.080   4.160  1.1744  0.5896  1.6612
 2177TIP3    H2 6538   3.481   5.125   4.108  1.0323 -1.2160 -0.4056
 2178TIP3   OH2 6539   5.791   3.121   5.035 -0.2433 -0.0668 -0.3437
 2178TIP3    H1 6540   5.755   3.087   5.117 -0.0455  0.4081 -0.0571
 2178TIP3    H2 6541   5.743   3.073   4.967 -1.4601  0.5898  0.0209
 2179TIP3   OH2 6542   2.568   1.037   3.450  0.0506  0.0697  0.0677
 2179TIP3    H1 6543   2.639   1.010   3.509 -0.4363 -1.9619 -0.2064
 2179TIP3    H2 6544   2.598   1.120   3.413  2.1822 -0.5951  0.1687
 2180TIP3   OH2 6545   3.289   4.689   3.233 -0.4929  0.4833  0.0569
 2180TIP3    H1 6546   3.250   4.620   3.286 -0.1688 -1.1048 -1.6626
 2180TIP3    H2 6547   3.360   4.724   3.287  0.4482 -1.7182  0.3823
 2181TIP3   OH2 6548   2.634   2.508   5.186 -0.0802 -0.5635 -0.4457
 2181TIP3    H1 6549   2.674   2.473   5.106  1.5885 -0.9736  0.5214
 2181TIP3    H2 6550   2.660   2.446   5.254 -0.5789  0.3509  0.5919
 2182TIP3   OH2 6551   0.434   0.149   1.273  0.0199  0.3390  0.1085
 2182TIP3    H1 6552   0.433   0.063   1.232 -1.6783 -0.3990  1.5201
 2182TIP3    H2 6553   0.467   0.132   1.362 -3.1329  0.4548  1.4646
 2183TIP3   OH2 6554   4.411   1.297   4.239 -0.6070  0.3503  0.0116
 2183TIP3    H1 6555   4.438   1.245   4.163 -0.0695  0.4952  0.0974
 2183TIP3    H2 6556   4.491   1.304   4.292 -0.5599  1.6233 -0.2054
 2184TIP3   OH2 6557   4.660   3.636   3.586  0.2947 -0.5430  0.0482
 2184TIP3    H1 6558   4.717   3.665   3.515 -0.9551  1.6584 -0.1466
 2184TIP3    H2 6559   4.706   3.663   3.666 -0.0568  0.4645 -0.0783
 2185TIP3   OH2 6560   5.513   1.011   2.949 -0.8207 -0.0541 -0.0597
 2185TIP3    H1 6561   5.519   0.985   3.041 -0.0536  0.3074  0.0053
 2185TIP3    H2 6562   5.423   0.993   2.925 -1.3086  0.7410  1.0437
 2186TIP3   OH2 6563   0.264   1.305  -0.008 -0.1572 -0.4807  0.7205
 2186TIP3    H1 6564   0.195   1.239   0.003  0.4972 -1.4339 -0.6142
 2186TIP3    H2 6565   0.333   1.278   0.053  0.0505 -0.9471  0.2789
 2187TIP3   OH2 6566   0.375   3.754   3.150 -0.0896 -0.7854  0.0397
 2187TIP3    H1 6567   0.293   3.711   3.126 -0.5740 -0.0460  0.3545
 2187TIP3    H2 6568   0.381   3.829   3.092  0.5321 -1.0082 -0.1975
 2188TIP3   OH2 6569   2.801   2.102   0.159 -0.4556  0.3329 -0.0133
 2188TIP3    H1 6570   2.842   2.185   0.134 -0.6859  0.5233  0.2352
 2188TIP3    H2 6571   2.768   2.066   0.076  0.3166  0.1153 -0.2367
 2189TIP3   OH2 6572   2.822   2.158   2.898 -0.3173  0.7354  0.4089
 2189TIP3    H1 6573   2.738   2.204   2.899  0.3431  1.9654  0.5945
 2189TIP3    H2 6574   2.814   2.097   2.824 -1.3597  0.8438  0.4135
 2190TIP3   OH2 6575   1.678   0.604   4.960  0.2241 -0.4230 -0.8922
 2190TIP3    H1 6576   1.679   0.592   4.865 -0.8028 -1.7910 -0.7547
 2190TIP3    H2 6577   1.621   0.679   4.974 -0.4757 -0.8670 -1.3097
 2191TIP3   OH2 6578   0.135   3.588   0.006 -0.7163 -0.0904  0.1171
 2191TIP3    H1 6579   0.104   3.625   0.089 -1.6354  1.2579 -0.7865
 2191TIP3    H2 6580   0.058   3.591  -0.051  0.0805 -0.3561 -0.9956
 2192TIP3   OH2 6581   2.265   2.547   1.334 -0.6730 -0.3991  1.0555
 2192TIP3    H1 6582   2.313   2.629   1.347 -2.0687  0.7148 -0.5017
 2192TIP3    H2 6583   2.321   2.496   1.275 -0.4174 -0.0223  0.9674
 2193TIP3   OH2 6584   5.755   5.948   0.631  0.0549  0.4428 -0.2788
 2193TIP3    H1 6585   5.828   5.984   0.580 -0.0314 -1.8054 -2.1564
 2193TIP3    H2 6586   5.702   5.901   0.567 -1.1057 -0.9796  1.6136
 2194TIP3   OH2 6587   5.407   0.264   1.625  0.0553  0.7180 -0.0978
 2194TIP3    H1 6588   5.379   0.343   1.579  0.2507 -0.0019 -1.5131
 2194TIP3    H2 6589   5.502   0.266   1.620  0.0494  0.1854 -0.5261
 2195TIP3   OH2 6590   6.059   5.263   0.314 -0.3365  0.1033 -0.0359
 2195TIP3    H1 6591   6.004   5.327   0.268 -1.5327 -1.0007 -0.1857
 2195TIP3    H2 6592   6.118   5.229   0.246 -0.5812  0.0916 -0.2428
 2196TIP3   OH2 6593   1.337   0.452   4.628 -0.1087 -0.0572 -0.0602
 2196TIP3    H1 6594   1.405   0.399   4.585  0.5168 -0.0537  0.8942
 2196TIP3    H2 6595   1.385   0.524   4.669 -0.3173 -1.3616  2.7122
 2197TIP3   OH2 6596   4.732   5.404   2.977  0.8677  0.4344  0.1347
 2197TIP3    H1 6597   4.760   5.444   2.895 -2.3228 -0.4492 -1.5522
 2197TIP3    H2 6598   4.676   5.471   3.019  0.0847 -0.1796  0.0910
 2198TIP3   OH2 6599   6.186   0.031   1.208  0.2664 -0.3074 -0.7552
 2198TIP3    H1 6600   6.102   0.067   1.179  0.7943 -1.0337 -3.4676
 2198TIP3    H2 6601   6.172  -0.064   1.210 -0.0344 -0.3347  2.7077
 2199TIP3   OH2 6602   2.084   3.447   1.698  0.3529 -0.1417  0.1171
 2199TIP3    H1 6603   2.168   3.479   1.667  0.7533  0.5376  1.8002
 2199TIP3    H2 6604   2.062   3.375   1.639  3.3476 -2.0658  1.1194
 2200TIP3   OH2 6605   4.013   1.833   2.736  0.2131 -0.3575 -0.2855
 2200TIP3    H1 6606   4.049   1.892   2.802 -3.0022  0.4511  0.9339
 2200TIP3    H2 6607   3.971   1.764   2.787 -1.6514 -0.1581 -1.4862
 2201TIP3   OH2 6608   1.029   5.843   4.166  0.2095 -0.2218  0.3666
 2201TIP3    H1 6609   1.062   5.794   4.091  2.3034  3.1674 -1.1548
 2201TIP3    H2 6610   1.083   5.813   4.239 -0.5769 -2.2162  0.1882
 2202TIP3   OH2 6611   3.104   5.016   2.960  0.4051 -0.0350  0.0452
 2202TIP3    H1 6612   3.068   5.104   2.947 -1.3438 -0.8900 -1.2955
 2202TIP3    H2 6613   3.145   4.994   2.876 -1.7732 -1.5846 -0.6995
 2203TIP3   OH2 6614   2.272   3.991   1.193 -0.4057  0.2441  0.4334
 2203TIP3    H1 6615   2.319   3.928   1.138 -0.7184 -1.9635  2.5330
 2203TIP3    H2 6616   2.316   4.075   1.176  0.7398 -0.6973 -1.6532
 2204TIP3   OH2 6617   1.332   5.952   4.493  0.2569 -0.4437 -0.0162
 2204TIP3    H1 6618   1.329   5.934   4.587  0.2985 -1.1470 -0.1448
 2204TIP3    H2 6619   1.303   6.043   4.485  0.3983 -0.3348  0.6886
 2205TIP3   OH2 6620   1.881   1.453   2.840  0.3112  0.5213 -0.0315
 2205TIP3    H1 6621   1.935   1.455   2.919 -0.1715 -0.8182  0.3583
 2205TIP3    H2 6622   1.940   1.421   2.771  0.5455  1.0268 -0.0734
 2206TIP3   OH2 6623   3.455   3.892   3.452  0.5839 -0.3184  0.6152
 2206TIP3    H1 6624   3.509   3.815   3.436  0.8974  0.2552 -1.3734
 2206TIP3    H2 6625   3.473   3.915   3.543  1.5863 -1.7518  0.8130
 2207TIP3   OH2 6626   1.529   4.961   1.738 -0.0411 -0.6098  0.2033
 2207TIP3    H1 6627   1.598   5.008   1.784 -1.9340  0.3695  2.1968
 2207TIP3    H2 6628   1.506   5.018   1.664  3.5473 -2.5439 -2.7688
 2208TIP3   OH2 6629   0.220   4.061   4.286 -0.0522  0.0411  0.1125
 2208TIP3    H1 6630   0.205   4.089   4.196  0.3689 -1.4686 -0.4575
 2208TIP3    H2 6631   0.188   3.971   4.289 -0.3726  0.1707  1.5770
 2209TIP3   OH2 6632   4.481   4.100   0.629 -0.0360  0.2081 -0.5314
 2209TIP3    H1 6633   4.476   4.145   0.545  1.8788  0.6172 -0.4626
 2209TIP3    H2 6634   4.418   4.028   0.622  0.8885 -0.4474 -2.7201
 2210TIP3   OH2 6635   4.783   0.841   1.642 -0.2190 -0.1972 -0.1837
 2210TIP3    H1 6636   4.706   0.854   1.699 -1.4850  0.0094 -1.8655
 2210TIP3    H2 6637   4.787   0.920   1.589  1.1299 -0.2562 -0.1935
 2211TIP3   OH2 6638   4.885   5.495   1.689 -0.2956 -0.0185 -0.7839
 2211TIP3    H1 6639   4.914   5.532   1.773 -0.7762 -0.7051 -0.3002
 2211TIP3    H2 6640   4.853   5.570   1.639 -2.3881  0.1190  0.6382
 2212TIP3   OH2 6641   1.187   0.297   1.370 -0.5272  0.9061  0.2352
 2212TIP3    H1 6642   1.226   0.242   1.303 -1.4849 -1.0557  1.1904
 2212TIP3    H2 6643   1.260   0.347   1.406 -0.0075  2.0865 -2.2687
 2213TIP3   OH2 6644   4.243   5.852   5.089 -0.1972 -0.4709 -0.2830
 2213TIP3    H1 6645   4.186   5.875   5.162  1.2162  0.7540  0.5097
 2213TIP3    H2 6646   4.283   5.769   5.115 -0.0083 -0.2453  0.1566
 2214TIP3   OH2 6647   1.272   3.502   2.294 -0.5385 -0.2131 -0.1460
 2214TIP3    H1 6648   1.192   3.499   2.242 -0.7450 -1.0994  0.2039
 2214TIP3    H2 6649   1.321   3.576   2.259 -1.6991  0.6150 -0.0838
 2215TIP3   OH2 6650   4.812   1.561   0.840  0.0827 -0.3407 -0.3560
 2215TIP3    H1 6651   4.894   1.525   0.807  0.4978  0.3078 -0.0722
 2215TIP3    H2 6652   4.744   1.525   0.784  0.7361  0.5358 -1.7549
 2216TIP3   OH2 6653   0.136   4.933   2.870  0.1567 -0.3053  0.5326
 2216TIP3    H1 6654   0.152   4.886   2.788 -2.3987  0.6184 -0.5951
 2216TIP3    H2 6655   0.151   5.025   2.849 -1.6872  0.0680  0.7269
 2217TIP3   OH2 6656   4.663   1.398   0.202 -0.3881 -0.0536  0.0529
 2217TIP3    H1 6657   4.587   1.454   0.218 -0.5212  0.5438 -2.3171
 2217TIP3    H2 6658   4.691   1.421   0.114  0.3559 -2.8274 -0.5228
 2218TIP3   OH2 6659   2.136   5.151   2.967 -0.2945 -0.0691 -0.0450
 2218TIP3    H1 6660   2.052   5.146   3.013 -0.1353  0.2240  0.2848
 2218TIP3    H2 6661   2.197   5.183   3.034  0.4868 -2.1108  0.2971
 2219TIP3   OH2 6662   5.666   5.587   4.337  0.2387  0.7583 -0.7959
 2219TIP3    H1 6663   5.572   5.598   4.354  0.2504  1.0153 -0.8966
 2219TIP3    H2 6664   5.670   5.554   4.248  0.2594  1.0135 -0.8875
 2220TIP3   OH2 6665   4.566   2.238   0.028  0.2548 -0.0120 -0.4205
 2220TIP3    H1 6666   4.520   2.160  -0.003  0.5406 -0.7682  0.9529
 2220TIP3    H2 6667   4.536   2.249   0.118 -0.3183  1.9087 -0.7973
 2221TIP3   OH2 6668   4.115   3.761   0.121 -0.1921  0.4975  0.7118
 2221TIP3    H1 6669   4.167   3.768   0.201  0.5884 -1.4490  0.4353
 2221TIP3    H2 6670   4.049   3.694   0.140 -1.1428  1.2862  0.2923
 2222TIP3   OH2 6671   5.247   5.930   4.859 -0.2618 -0.0560 -0.0789
 2222TIP3    H1 6672   5.226   6.021   4.881 -0.7838  0.0565 -1.0043
 2222TIP3    H2 6673   5.328   5.935   4.809  0.5004 -0.2462  1.0800
 2223TIP3   OH2 6674   1.173   4.218   4.522 -0.0435 -0.1881 -0.0193
 2223TIP3    H1 6675   1.133   4.227   4.436  0.2825  0.8287 -0.0813
 2223TIP3    H2 6676   1.266   4.233   4.507 -0.4136  4.7498  1.0788
 2224TIP3   OH2 6677   1.704   5.375   4.562 -0.0067  0.0513 -0.7363
 2224TIP3    H1 6678   1.689   5.469   4.555  1.5950  0.2316 -2.5527
 2224TIP3    H2 6679   1.753   5.364   4.643 -1.4020  0.5744  0.2174
 2225TIP3   OH2 6680   6.178   4.138   0.259  0.4593  0.4013 -0.5089
 2225TIP3    H1 6681   6.147   4.101   0.176 -1.7172 -1.0685  0.8276
 2225TIP3    H2 6682   6.186   4.062   0.317  2.5036  1.3257  0.4938
 2226TIP3   OH2 6683   2.071   1.204   1.101 -0.3569 -0.5629  0.4036
 2226TIP3    H1 6684   2.019   1.244   1.031 -1.6231  0.7295  2.0039
 2226TIP3    H2 6685   2.124   1.138   1.057 -0.5836  0.6928 -1.8605
 2227TIP3   OH2 6686   0.508   4.930   4.138  0.0164  0.3761 -0.2995
 2227TIP3    H1 6687   0.543   4.875   4.208  0.3425  0.6285 -0.2641
 2227TIP3    H2 6688   0.513   5.019   4.173  0.0385  0.4876 -0.5871
 2228TIP3   OH2 6689   4.985   0.190   4.454  0.3990  0.0623  0.6296
 2228TIP3    H1 6690   5.039   0.168   4.530 -1.0975  0.4657  1.8660
 2228TIP3    H2 6691   4.895   0.169   4.481 -0.1573 -0.0802 -1.1564
 2229TIP3   OH2 6692   0.894   3.783   3.604 -0.1196  0.5731  0.0974
 2229TIP3    H1 6693   0.933   3.782   3.692 -0.9313  1.7129  0.4940
 2229TIP3    H2 6694   0.963   3.752   3.547  0.5033  0.0329  1.1101
 2230TIP3   OH2 6695   5.049   4.511   4.356  0.4648 -0.2211  0.4696
 2230TIP3    H1 6696   4.984   4.542   4.419  1.0375 -0.9719  1.4650
 2230TIP3    H2 6697   5.029   4.418   4.344 -2.0150  0.5840 -3.4412
 2231TIP3   OH2 6698   6.157   4.816   4.418  0.6950  0.4433  0.1735
 2231TIP3    H1 6699   6.166   4.889   4.479  0.9342  0.6903 -0.1527
 2231TIP3    H2 6700   6.134   4.857   4.334  1.1041  0.1660 -0.0770
 2232TIP3   OH2 6701   3.723   4.948   1.657  0.3487  0.7206  0.1918
 2232TIP3    H1 6702   3.784   4.884   1.694 -0.6213  0.5260  1.5755
 2232TIP3    H2 6703   3.749   4.957   1.566  1.2126 -0.8283  0.2466
 2233TIP3   OH2 6704   3.570   2.600   0.148  0.3407 -0.9053 -0.1337
 2233TIP3    H1 6705   3.621   2.554   0.082 -0.5489 -1.0690 -0.7180
 2233TIP3    H2 6706   3.617   2.682   0.163  0.6699 -0.9717 -0.7983
 2234TIP3   OH2 6707   6.118   2.743   3.594 -0.6167 -0.6946  0.0596
 2234TIP3    H1 6708   6.072   2.762   3.676  1.7468  2.2513  0.8998
 2234TIP3    H2 6709   6.078   2.803   3.531  0.2420 -0.0378  0.1264
 2235TIP3   OH2 6710   0.855   1.160   1.872 -0.6295 -0.0147  0.3620
 2235TIP3    H1 6711   0.843   1.072   1.909 -0.5809 -0.0278  0.3477
 2235TIP3    H2 6712   0.823   1.220   1.939 -2.4005 -0.1040 -0.3459
 2236TIP3   OH2 6713   6.164   4.396   1.809  0.0112  0.0249  0.1301
 2236TIP3    H1 6714   6.093   4.380   1.872  0.5813  1.9199  1.3324
 2236TIP3    H2 6715   6.130   4.363   1.726 -0.5484 -3.1754  1.4395
 2237TIP3   OH2 6716   3.261   0.275   0.984  0.2161 -0.1777 -0.0136
 2237TIP3    H1 6717   3.356   0.269   0.974  0.2442  0.4816 -0.2427
 2237TIP3    H2 6718   3.248   0.306   1.074  0.2627  0.5190 -0.2364
 2238TIP3   OH2 6719   2.038   4.975   1.138 -0.0100 -0.1045 -0.2301
 2238TIP3    H1 6720   1.952   4.934   1.147  0.5362 -1.1844  0.2110
 2238TIP3    H2 6721   2.034   5.052   1.194 -1.4731  1.1971 -1.9978
 2239TIP3   OH2 6722   3.119   3.331   2.243 -0.3030  0.5651 -0.1091
 2239TIP3    H1 6723   3.188   3.267   2.260 -1.6541 -1.2160 -0.9670
 2239TIP3    H2 6724   3.091   3.360   2.329  1.0907  0.8681  0.2647
 2240TIP3   OH2 6725   3.746   5.462   2.261  0.2333 -0.1377 -0.1460
 2240TIP3    H1 6726   3.794   5.484   2.181 -0.3016  1.0868 -0.1405
 2240TIP3    H2 6727   3.655   5.450   2.232 -0.2945  1.9697  0.4930
 2241TIP3   OH2 6728   1.492   4.915   3.438  0.7029  0.4920 -0.5062
 2241TIP3    H1 6729   1.514   4.961   3.519  1.8709  0.1843 -0.6333
 2241TIP3    H2 6730   1.418   4.859   3.461 -0.5409  2.1492 -0.2630
 2242TIP3   OH2 6731   5.153   1.006   4.755 -0.2032  0.2953 -0.2248
 2242TIP3    H1 6732   5.219   1.068   4.725  0.6124 -0.7219 -0.5937
 2242TIP3    H2 6733   5.190   0.967   4.834 -2.1371  2.6206  2.0475
 2243TIP3   OH2 6734   3.414   1.053   4.968  0.0709  0.8701 -0.6014
 2243TIP3    H1 6735   3.327   1.017   4.955  0.5991 -0.9381  0.5065
 2243TIP3    H2 6736   3.400   1.147   4.978 -2.0082  0.4164  1.6187
 2244TIP3   OH2 6737   4.592   1.369   4.436  0.0053  0.1100 -0.0461
 2244TIP3    H1 6738   4.560   1.403   4.520 -0.3834  0.4813 -0.3394
 2244TIP3    H2 6739   4.674   1.324   4.458  0.0052  0.3666  0.5038
 2245TIP3   OH2 6740   6.059   1.838   3.119  0.0536 -0.4883 -0.1404
 2245TIP3    H1 6741   6.019   1.794   3.194  0.8232 -0.2353  0.4385
 2245TIP3    H2 6742   6.130   1.779   3.093  0.7259  0.1158  0.2762
 2246TIP3   OH2 6743   3.263   3.348   0.422 -0.0756 -0.0744  0.4940
 2246TIP3    H1 6744   3.279   3.358   0.516  1.1434 -0.2307  0.3278
 2246TIP3    H2 6745   3.351   3.351   0.383 -0.4869 -0.9896 -0.5462
 2247TIP3   OH2 6746   2.807   0.857   2.889  0.0698  0.3900 -0.2688
 2247TIP3    H1 6747   2.875   0.890   2.948  0.6143 -2.0677  0.6105
 2247TIP3    H2 6748   2.726   0.864   2.940  0.4819 -1.3689  0.7370
 2248TIP3   OH2 6749   2.056   4.973   3.245 -0.1010 -0.4219  0.1318
 2248TIP3    H1 6750   1.995   5.026   3.193 -0.9026 -2.0200 -0.6201
 2248TIP3    H2 6751   2.082   5.031   3.317  0.9953  1.8904 -1.9497
 2249TIP3   OH2 6752   3.211   0.573   0.605 -0.4038  0.1400 -0.1476
 2249TIP3    H1 6753   3.122   0.588   0.636 -0.3125  0.1144  0.1273
 2249TIP3    H2 6754   3.203   0.496   0.548  0.0090 -2.0817  2.6184
 2250TIP3   OH2 6755   3.495   5.488   1.083  0.5891  0.2987 -0.0809
 2250TIP3    H1 6756   3.561   5.519   1.021 -0.8665 -0.0211 -1.8900
 2250TIP3    H2 6757   3.416   5.539   1.062  0.0799  0.3215  1.6707
 2251TIP3   OH2 6758   3.238   4.966   3.203  0.0181  0.5984 -0.3613
 2251TIP3    H1 6759   3.247   4.871   3.212  0.2911  0.5690 -0.9441
 2251TIP3    H2 6760   3.202   4.979   3.116 -1.4825  0.9505  0.2769
 2252TIP3   OH2 6761   3.491   0.500   2.274 -0.2855  0.2914  0.2264
 2252TIP3    H1 6762   3.582   0.481   2.296 -0.3357 -1.1388 -0.6287
 2252TIP3    H2 6763   3.491   0.510   2.179 -0.8933  1.1580  0.3065
 2253TIP3   OH2 6764   1.396   4.866  -0.010 -0.0695 -0.1658 -0.4219
 2253TIP3    H1 6765   1.302   4.851  -0.004 -0.7442  2.7992 -1.8093
 2253TIP3    H2 6766   1.419   4.906   0.075  0.0603 -1.2365  0.0643
 2254TIP3   OH2 6767   0.955   4.132   4.342  0.3655 -1.1769 -0.4399
 2254TIP3    H1 6768   0.861   4.149   4.346  0.8290  2.0154 -0.0879
 2254TIP3    H2 6769   0.978   4.146   4.250  0.9449  1.9289  0.0554
 2255TIP3   OH2 6770   3.469   2.537   2.674 -0.1570 -0.0033  0.1071
 2255TIP3    H1 6771   3.506   2.524   2.761  0.6524 -2.0839 -0.5038
 2255TIP3    H2 6772   3.382   2.497   2.678 -0.1062 -0.1297 -0.0478
 2256TIP3   OH2 6773   0.232   4.420   4.214 -0.4945 -0.4357  0.4931
 2256TIP3    H1 6774   0.141   4.423   4.243 -0.2836 -1.8226  1.3650
 2256TIP3    H2 6775   0.271   4.501   4.247 -0.4642 -1.5740  3.5179
 2257TIP3   OH2 6776   5.742   0.197   3.361 -0.6992 -0.0971  0.1000
 2257TIP3    H1 6777   5.802   0.141   3.312  0.5373 -0.2381  1.6835
 2257TIP3    H2 6778   5.707   0.258   3.296 -0.1901 -1.1479 -1.1934
 2258TIP3   OH2 6779   6.195   4.987   4.906 -0.3770  0.3637 -0.3251
 2258TIP3    H1 6780   6.103   4.981   4.880 -0.4030  0.0294 -0.1621
 2258TIP3    H2 6781   6.204   4.923   4.976 -0.4260  1.5506  0.8210
 2259TIP3   OH2 6782   4.398   2.272   2.947 -0.3722 -0.5670 -0.0421
 2259TIP3    H1 6783   4.424   2.325   3.022 -0.7206  0.6724 -0.7734
 2259TIP3    H2 6784   4.304   2.261   2.957 -0.5681  0.3439 -0.7310
 2260TIP3   OH2 6785   4.619   5.037   1.647 -0.3185  0.0569 -0.0108
 2260TIP3    H1 6786   4.671   4.966   1.685  0.3682  1.1509  1.1920
 2260TIP3    H2 6787   4.593   5.005   1.561 -0.1490 -1.6949  0.5596
 2261TIP3   OH2 6788   5.040   2.042   1.658  0.5001 -0.1141 -0.8161
 2261TIP3    H1 6789   4.965   2.093   1.629  0.6070  0.5260 -0.0179
 2261TIP3    H2 6790   5.007   1.953   1.670  0.0286  0.0254 -1.0759
 2262TIP3   OH2 6791   1.528   3.277   3.924  0.8711  0.7701 -0.0435
 2262TIP3    H1 6792   1.591   3.207   3.904  1.1192  1.5358 -2.2559
 2262TIP3    H2 6793   1.490   3.252   4.008  2.0975 -1.1820 -0.0026
 2263TIP3   OH2 6794   2.260   1.057   0.968  0.0310 -0.5101 -0.1109
 2263TIP3    H1 6795   2.344   1.095   0.991 -0.3528  0.7104 -0.6656
 2263TIP3    H2 6796   2.280   0.996   0.897  0.5781 -0.9743  0.4307
 2264TIP3   OH2 6797   5.040   3.383   1.107 -0.1063 -0.2619 -0.1690
 2264TIP3    H1 6798   4.985   3.440   1.054  0.2031 -0.8009 -1.1087
 2264TIP3    H2 6799   5.085   3.441   1.168  0.9913  0.6742 -1.7851
 2265TIP3   OH2 6800   0.740   4.701   5.015 -0.2117 -0.1799 -0.0590
 2265TIP3    H1 6801   0.732   4.619   5.064  0.8662  0.2866  0.9528
 2265TIP3    H2 6802   0.819   4.690   4.962 -0.7314 -0.2384 -0.8332
 2266TIP3   OH2 6803   2.067   4.078   4.430  0.7818 -0.0857 -0.3478
 2266TIP3    H1 6804   2.021   4.159   4.449  0.2382 -0.9349  2.5033
 2266TIP3    H2 6805   2.022   4.041   4.354  0.6614  1.9318 -1.3162
 2267TIP3   OH2 6806   5.823   3.117   2.736 -0.1025 -0.0514 -0.3718
 2267TIP3    H1 6807   5.772   3.133   2.657 -0.0804 -0.7947 -0.5456
 2267TIP3    H2 6808   5.825   3.021   2.744  2.1359 -0.1219 -0.9638
 2268TIP3   OH2 6809   5.948   3.612   2.827 -0.4353 -0.2503  0.4134
 2268TIP3    H1 6810   6.027   3.625   2.774 -1.2425  0.6146 -0.6375
 2268TIP3    H2 6811   5.917   3.525   2.803 -0.5399 -0.0463 -0.2065
 2269TIP3   OH2 6812   5.775   4.993   4.141 -0.4971 -0.1911 -0.9186
 2269TIP3    H1 6813   5.689   4.953   4.134 -1.9107  2.6369 -1.1687
 2269TIP3    H2 6814   5.786   5.011   4.235  0.4173 -1.6038 -0.7167
 2270TIP3   OH2 6815   1.507   1.390   0.182  0.3695 -0.2075 -0.0217
 2270TIP3    H1 6816   1.568   1.461   0.200  0.8910 -0.8337  0.7533
 2270TIP3    H2 6817   1.507   1.382   0.086 -0.9315  1.8638 -0.2497
 2271TIP3   OH2 6818   5.571   2.626   4.728 -0.2109 -0.0863  1.0642
 2271TIP3    H1 6819   5.628   2.647   4.654  1.7604 -1.5862  2.0668
 2271TIP3    H2 6820   5.501   2.573   4.690 -1.1404  1.9656 -0.2297
 2272TIP3   OH2 6821   1.657   0.489   3.864  0.1184 -0.4654  0.3445
 2272TIP3    H1 6822   1.729   0.426   3.866  0.6601  0.1540  0.8031
 2272TIP3    H2 6823   1.601   0.460   3.792  0.1188 -1.7141  0.8314
 2273TIP3   OH2 6824   1.156   3.916   4.157  0.1328 -0.1134  0.2345
 2273TIP3    H1 6825   1.243   3.889   4.128 -0.5068 -0.4834 -1.5010
 2273TIP3    H2 6826   1.162   4.011   4.165  0.2701  0.0709 -1.6148
 2274TIP3   OH2 6827   3.523   1.799   1.146  0.1287 -0.5530  0.0807
 2274TIP3    H1 6828   3.523   1.781   1.052  1.6902 -0.6517  0.0654
 2274TIP3    H2 6829   3.582   1.874   1.156  0.4497 -0.9123  1.0308
 2275TIP3   OH2 6830   2.756   1.679   2.089 -0.3641 -0.5383  0.0072
 2275TIP3    H1 6831   2.742   1.664   2.182 -3.1822  0.4417 -0.1386
 2275TIP3    H2 6832   2.760   1.774   2.080 -1.0637 -0.5780 -0.9488
 2276TIP3   OH2 6833   1.133   1.942   2.282  0.2792  0.7781  0.4173
 2276TIP3    H1 6834   1.214   1.974   2.323 -0.0101 -1.1181  2.6574
 2276TIP3    H2 6835   1.065   1.958   2.347 -0.7206  0.2025 -0.4638
 2277TIP3   OH2 6836   4.654   3.076   1.700 -0.0772  0.0507  0.1773
 2277TIP3    H1 6837   4.562   3.056   1.682 -0.1979  0.6117  0.1663
 2277TIP3    H2 6838   4.667   3.052   1.792 -1.2825  3.5733  1.4283
 2278TIP3   OH2 6839   4.862   0.086   0.751  0.5338 -0.1455 -0.1244
 2278TIP3    H1 6840   4.923   0.020   0.784 -1.5150 -2.5390 -0.7515
 2278TIP3    H2 6841   4.861   0.154   0.818  0.3847 -2.2962  2.1999
 2279TIP3   OH2 6842   3.093   4.014   3.817 -0.2738 -0.3310 -0.3225
 2279TIP3    H1 6843   3.052   3.929   3.828  0.9879 -0.9827 -0.4434
 2279TIP3    H2 6844   3.171   4.010   3.873  0.8992 -0.0222 -1.8766
 2280TIP3   OH2 6845   4.713   3.142   4.492  0.4838  0.3896  0.0831
 2280TIP3    H1 6846   4.768   3.168   4.417 -1.8256  0.7948 -1.5782
 2280TIP3    H2 6847   4.705   3.222   4.544  1.1015  0.4409  0.1078
 2281TIP3   OH2 6848   2.387   4.702   2.680 -0.5147  0.1311  0.5508
 2281TIP3    H1 6849   2.343   4.786   2.669 -1.1301 -0.2939 -0.3647
 2281TIP3    H2 6850   2.445   4.695   2.604 -1.2011 -0.6939  0.0827
 2282TIP3   OH2 6851   0.701   4.063   1.019  0.1678 -0.7248 -0.3548
 2282TIP3    H1 6852   0.615   4.021   1.025 -0.3627  0.0971 -1.7724
 2282TIP3    H2 6853   0.727   4.077   1.110 -2.5116  1.5737  0.2002
 2283TIP3   OH2 6854   1.774   0.413   1.509 -0.2119  0.2297  0.5633
 2283TIP3    H1 6855   1.830   0.340   1.483 -0.1454  0.6700 -0.5940
 2283TIP3    H2 6856   1.800   0.485   1.452 -0.7926  0.9433  1.1732
 2284TIP3   OH2 6857   0.453   1.251   2.130  0.0051 -0.5755  0.4680
 2284TIP3    H1 6858   0.460   1.229   2.223  1.2955 -0.7527  0.3412
 2284TIP3    H2 6859   0.380   1.198   2.098  0.1849 -1.2573  1.1690
 2285TIP3   OH2 6860   1.946   2.933   0.100  0.2696  0.4598  0.2216
 2285TIP3    H1 6861   1.969   2.912   0.191  0.7883  1.5821  0.3648
 2285TIP3    H2 6862   1.851   2.942   0.100  0.1553 -0.6036  0.4148
 2286TIP3   OH2 6863   4.886   5.752   1.383 -0.2857  0.6216  0.5128
 2286TIP3    H1 6864   4.930   5.819   1.331 -1.1058  1.1556  0.4740
 2286TIP3    H2 6865   4.807   5.731   1.332  1.0002 -1.9913 -0.5827
 2287TIP3   OH2 6866   3.647   1.627   3.188 -0.2711  0.0657 -0.6417
 2287TIP3    H1 6867   3.632   1.541   3.149 -1.0053  0.4717 -1.2851
 2287TIP3    H2 6868   3.737   1.650   3.164 -0.2046 -0.3592 -0.7950
 2288TIP3   OH2 6869  -0.024   5.879   0.965 -0.0863  0.8080 -0.3552
 2288TIP3    H1 6870  -0.019   5.788   0.993  1.4134  1.1659  0.6558
 2288TIP3    H2 6871   0.063   5.898   0.929 -0.4572  1.7831 -0.7713
 2289TIP3   OH2 6872   5.064   1.706   0.411 -0.8030 -0.2882  0.3338
 2289TIP3    H1 6873   5.078   1.735   0.320  0.6755 -1.9384 -0.0231
 2289TIP3    H2 6874   5.129   1.755   0.461  0.2907 -1.3785  0.0393
 2290TIP3   OH2 6875   3.113   3.122   4.819 -0.1407  0.1660  0.0056
 2290TIP3    H1 6876   3.141   3.166   4.739 -1.4308  0.7052 -0.1676
 2290TIP3    H2 6877   3.103   3.193   4.883  0.0420 -0.1619  0.4018
 2291TIP3   OH2 6878   2.786   5.069   4.715  0.3386 -0.4515  0.0706
 2291TIP3    H1 6879   2.770   4.979   4.744 -1.1896  0.5413  2.6763
 2291TIP3    H2 6880   2.876   5.067   4.680  0.6687 -2.7866  0.8442
 2292TIP3   OH2 6881   2.696   5.662   2.349 -0.2854  0.2038  0.2451
 2292TIP3    H1 6882   2.759   5.702   2.410 -0.1663  0.5254 -0.0842
 2292TIP3    H2 6883   2.745   5.654   2.267 -1.0824  1.7164 -0.4054
 2293TIP3   OH2 6884   5.986   0.110   3.818  0.1751 -0.1998  0.1517
 2293TIP3    H1 6885   6.034   0.071   3.745  0.5490  2.0644 -0.9096
 2293TIP3    H2 6886   5.911   0.153   3.777 -1.8776 -2.2047  1.6039
 2294TIP3   OH2 6887   0.910   5.011   2.792  0.2415  0.0680 -0.3149
 2294TIP3    H1 6888   0.911   4.940   2.855  0.1499  0.0206 -0.3674
 2294TIP3    H2 6889   0.998   5.010   2.753  0.5124  0.5005  0.2621
 2295TIP3   OH2 6890   6.068   2.252   4.659  0.2718  0.1926 -0.0535
 2295TIP3    H1 6891   6.089   2.160   4.674  2.1169  0.0318 -2.9132
 2295TIP3    H2 6892   6.033   2.282   4.743 -0.3975 -3.0663  0.9879
 2296TIP3   OH2 6893   4.873   4.394   1.563 -0.0906 -0.4203 -0.0339
 2296TIP3    H1 6894   4.916   4.479   1.567  1.5926 -1.2813  1.2446
 2296TIP3    H2 6895   4.779   4.414   1.563  0.2629  1.4548 -1.4702
 2297TIP3   OH2 6896   3.149   4.160   3.522 -0.1668  0.4268  0.4372
 2297TIP3    H1 6897   3.095   4.239   3.515  1.1583  1.4333  1.1109
 2297TIP3    H2 6898   3.122   4.121   3.605 -0.8115  0.1643  0.1135
 2298TIP3   OH2 6899   0.582   2.828   1.411  0.5643 -0.0890 -0.3933
 2298TIP3    H1 6900   0.589   2.775   1.331 -1.6510 -0.1126 -0.6147
 2298TIP3    H2 6901   0.504   2.794   1.455  0.0010  1.9365  0.2530
 2299TIP3   OH2 6902   5.578   5.869   5.081 -0.5883 -0.1439  0.2939
 2299TIP3    H1 6903   5.591   5.863   5.176  0.7155 -1.3567  0.0750
 2299TIP3    H2 6904   5.523   5.946   5.069  1.6162  1.8116  1.8203
 2300TIP3   OH2 6905   5.103   3.103   3.533 -0.6166  0.1383  0.2022
 2300TIP3    H1 6906   5.051   3.038   3.486 -0.1147  0.1601 -0.3953
 2300TIP3    H2 6907   5.187   3.103   3.489 -0.2243  0.3618  0.9382
 2301TIP3   OH2 6908   0.022   5.229   4.419  0.0806 -0.2676 -1.0036
 2301TIP3    H1 6909   0.053   5.317   4.439 -0.2389 -0.1915 -0.8476
 2301TIP3    H2 6910  -0.047   5.241   4.354  0.1655 -0.4171 -1.1228
 2302TIP3   OH2 6911   2.222   5.456   0.784 -0.1688  0.3644 -0.6062
 2302TIP3    H1 6912   2.287   5.526   0.777 -1.7101  1.9909  0.4478
 2302TIP3    H2 6913   2.262   5.393   0.844  0.9360  0.6685 -0.9834
 2303TIP3   OH2 6914   4.454   5.771   0.943  0.1060 -0.4214  0.2132
 2303TIP3    H1 6915   4.367   5.739   0.967 -0.2722  0.0059 -0.5563
 2303TIP3    H2 6916   4.510   5.694   0.953 -0.5369 -0.9703 -0.2228
 2304TIP3   OH2 6917   0.322   5.545   4.598 -0.2476  0.2403  0.2954
 2304TIP3    H1 6918   0.314   5.545   4.694 -0.7662 -1.3999  0.2861
 2304TIP3    H2 6919   0.414   5.524   4.582 -0.5569 -1.4512  0.4830
 2305TIP3   OH2 6920   3.989   4.357   4.213 -0.9535  0.0841 -0.1842
 2305TIP3    H1 6921   3.943   4.283   4.253  0.2885 -1.0120 -0.7076
 2305TIP3    H2 6922   3.972   4.431   4.272 -3.3736 -0.2369 -0.3655
 2306TIP3   OH2 6923   0.175   0.361   3.606  0.0333  0.3771  0.0194
 2306TIP3    H1 6924   0.230   0.440   3.606  1.8872 -0.8361  0.4672
 2306TIP3    H2 6925   0.235   0.291   3.631 -1.6646 -1.1184  0.0745
 2307TIP3   OH2 6926   2.258   2.837   4.428 -0.2475 -0.0675  0.0361
 2307TIP3    H1 6927   2.261   2.781   4.351 -0.3484 -0.6768  0.4654
 2307TIP3    H2 6928   2.311   2.791   4.493 -0.3136  0.3472  0.3923
 2308TIP3   OH2 6929   3.268   2.959   1.018 -0.4872 -0.1587 -0.3986
 2308TIP3    H1 6930   3.196   2.951   1.081 -0.2572 -1.1945 -0.2462
 2308TIP3    H2 6931   3.225   2.973   0.934 -0.7899  3.4426  0.1770
 2309TIP3   OH2 6932   0.178   5.788   4.764  0.2517  0.0562  0.1025
 2309TIP3    H1 6933   0.157   5.879   4.786 -0.2398  0.1522 -0.7191
 2309TIP3    H2 6934   0.237   5.760   4.834 -0.0199  0.8322  0.6617
 2310TIP3   OH2 6935   4.576   2.834   0.051  0.2788  0.1059  0.5816
 2310TIP3    H1 6936   4.661   2.856   0.089  0.0309  1.8055  0.2145
 2310TIP3    H2 6937   4.526   2.915   0.055 -1.1448 -0.7219  0.2773
 2311TIP3   OH2 6938   4.852   4.858   2.449 -0.3561  0.3685 -0.4232
 2311TIP3    H1 6939   4.898   4.942   2.437 -0.4972  1.0220  2.5870
 2311TIP3    H2 6940   4.921   4.796   2.473 -0.6277  0.6674  1.3019
 2312TIP3   OH2 6941   5.004   4.570   3.753 -0.1690  0.3399  0.0876
 2312TIP3    H1 6942   4.957   4.488   3.759  0.6736 -0.2562 -0.9926
 2312TIP3    H2 6943   4.962   4.617   3.681 -0.8810  1.0274  0.9354
 2313TIP3   OH2 6944   3.960   1.641   1.129 -0.0351  0.0922  0.2855
 2313TIP3    H1 6945   4.051   1.668   1.142  0.0346  0.1866 -0.3597
 2313TIP3    H2 6946   3.959   1.605   1.040 -1.2843  2.9657 -0.9998
 2314TIP3   OH2 6947   4.736   4.699   4.008  0.0443  0.1518  0.2832
 2314TIP3    H1 6948   4.774   4.612   4.019  2.7787  1.0721 -0.8967
 2314TIP3    H2 6949   4.804   4.759   4.038 -2.3111  1.9361  2.4661
 2315TIP3   OH2 6950   1.987   1.125   5.137 -0.4934  0.5210 -0.2428
 2315TIP3    H1 6951   1.928   1.073   5.192 -0.7206 -0.5143 -1.4038
 2315TIP3    H2 6952   2.060   1.148   5.194 -0.4026 -1.0887  0.3364
 2316TIP3   OH2 6953   1.614   3.071   3.159  0.0009  0.3078  0.0680
 2316TIP3    H1 6954   1.636   3.047   3.069  0.4459 -0.8398  0.4702
 2316TIP3    H2 6955   1.534   3.124   3.150 -1.8813 -2.4606 -0.7889
 2317TIP3   OH2 6956   4.882   0.820   2.763  0.3042  1.1568  0.1634
 2317TIP3    H1 6957   4.965   0.843   2.722  0.4557  1.2858  0.5287
 2317TIP3    H2 6958   4.815   0.839   2.697  0.6475 -0.0718 -0.5604
 2318TIP3   OH2 6959   1.556   5.736   2.699 -0.0200  1.0058 -0.0491
 2318TIP3    H1 6960   1.648   5.726   2.677  0.1169  1.8363  0.1031
 2318TIP3    H2 6961   1.512   5.755   2.616 -0.1089  0.2907 -0.1698
 2319TIP3   OH2 6962   2.904   4.133   2.846  0.2197 -0.5283  0.3669
 2319TIP3    H1 6963   2.925   4.212   2.797 -0.6166 -0.6868 -0.2496
 2319TIP3    H2 6964   2.981   4.076   2.834  0.0864 -0.5035 -0.6330
 2320TIP3   OH2 6965   5.906   2.759   4.204  0.4417 -0.5690  0.4129
 2320TIP3    H1 6966   5.971   2.817   4.243  2.1204 -2.4700  0.5853
 2320TIP3    H2 6967   5.901   2.685   4.263  0.1082 -1.6998 -0.9805
 2321TIP3   OH2 6968   1.228   1.689   3.438 -0.0457 -0.2690  0.3074
 2321TIP3    H1 6969   1.219   1.615   3.378 -2.6470 -0.3768  0.6845
 2321TIP3    H2 6970   1.291   1.659   3.503 -0.3877 -1.8409 -0.0362
 2322TIP3   OH2 6971   3.993   1.489   3.892 -0.8390  0.4346 -0.1941
 2322TIP3    H1 6972   3.917   1.435   3.870 -0.3044 -0.4842  0.1732
 2322TIP3    H2 6973   4.028   1.449   3.972  0.2041  0.6827 -0.5199
 2323TIP3   OH2 6974   4.610   0.845   1.849  0.2692 -0.2595 -0.3038
 2323TIP3    H1 6975   4.548   0.776   1.872 -0.0583  0.0084 -0.3726
 2323TIP3    H2 6976   4.564   0.926   1.870  1.2928 -0.0759  1.4120
 2324TIP3   OH2 6977   2.889   0.884   4.228 -0.1639 -0.3630  0.0899
 2324TIP3    H1 6978   2.863   0.975   4.238  1.3848  0.0461  0.6271
 2324TIP3    H2 6979   2.826   0.835   4.279 -1.4173  0.3250 -0.7427
 2325TIP3   OH2 6980   6.184   3.584   1.022 -0.0390 -0.3399  0.5066
 2325TIP3    H1 6981   6.152   3.674   1.025 -0.7171 -0.6101  1.9358
 2325TIP3    H2 6982   6.230   3.578   0.938  2.7495  2.2721  1.6376
 2326TIP3   OH2 6983   0.704   3.968   3.378 -0.6289  0.4289 -0.0643
 2326TIP3    H1 6984   0.725   3.910   3.451 -0.5369  0.1315 -0.3240
 2326TIP3    H2 6985   0.671   4.047   3.419  0.2439  0.5994  0.3231
 2327TIP3   OH2 6986   0.311   2.170   1.776  0.1325  0.5096 -0.0023
 2327TIP3    H1 6987   0.244   2.131   1.720 -1.0878  1.3299  0.8348
 2327TIP3    H2 6988   0.393   2.157   1.728 -0.9405  1.9367 -2.4363
 2328TIP3   OH2 6989   3.266   5.083   3.842 -0.8861 -0.0881  0.0330
 2328TIP3    H1 6990   3.288   5.007   3.787  0.7242  0.9120 -0.7746
 2328TIP3    H2 6991   3.339   5.091   3.903  0.2082  2.1611 -1.4364
 2329TIP3   OH2 6992   1.764   1.812   4.706  0.5354  0.1525  0.4111
 2329TIP3    H1 6993   1.684   1.856   4.732  1.0768  0.8809  0.8685
 2329TIP3    H2 6994   1.746   1.719   4.722 -0.2619  0.2911  0.3592
 2330TIP3   OH2 6995   0.945   1.705   3.225 -0.5810  0.0438 -0.1913
 2330TIP3    H1 6996   0.943   1.610   3.237  1.4515 -0.0920 -0.5368
 2330TIP3    H2 6997   1.026   1.721   3.177 -1.1331  1.9255 -0.5757
 2331TIP3   OH2 6998   4.792   5.095   2.048 -0.1190 -0.4629  0.1846
 2331TIP3    H1 6999   4.724   5.109   2.113 -0.0517 -0.8199  0.3350
 2331TIP3    H2 7000   4.860   5.158   2.069 -0.2745 -0.3049  0.2136
 2332TIP3   OH2 7001   0.123   2.611   0.899  0.3978 -0.4083  0.8165
 2332TIP3    H1 7002   0.218   2.620   0.893  0.4935 -0.6474  1.8765
 2332TIP3    H2 7003   0.109   2.522   0.932 -0.1935 -0.3188  0.8158
 2333TIP3   OH2 7004   2.152   1.794   3.018  0.4015  0.3067  0.7619
 2333TIP3    H1 7005   2.111   1.876   2.991  1.4867  0.3800 -0.8482
 2333TIP3    H2 7006   2.179   1.809   3.108 -0.3425  1.3375  0.8288
 2334TIP3   OH2 7007   4.450   2.957   0.356 -0.1239  0.9519  0.4083
 2334TIP3    H1 7008   4.523   2.997   0.308 -1.2542  1.9054 -0.5786
 2334TIP3    H2 7009   4.467   2.863   0.351  0.1261  1.0495 -1.3494
 2335TIP3   OH2 7010   4.578   3.855   3.869  0.2623 -0.2198 -0.4197
 2335TIP3    H1 7011   4.665   3.824   3.844  0.4229 -0.6982  0.6949
 2335TIP3    H2 7012   4.524   3.840   3.791  1.0158 -0.5779 -0.8821
 2336TIP3   OH2 7013   0.456   0.827   4.225  0.2383 -0.0191 -0.0060
 2336TIP3    H1 7014   0.551   0.820   4.238  0.3883  0.9188 -0.5140
 2336TIP3    H2 7015   0.419   0.772   4.294  1.1188  0.8023  1.1539
 2337TIP3   OH2 7016   2.132   3.772   1.520 -0.2109  0.5076  0.1883
 2337TIP3    H1 7017   2.175   3.714   1.456  1.8095 -1.3962  3.0336
 2337TIP3    H2 7018   2.053   3.802   1.476  0.6685 -1.2580 -2.9021
 2338TIP3   OH2 7019   3.588   5.036   2.354 -0.0804 -0.1375 -0.0915
 2338TIP3    H1 7020   3.545   5.093   2.417 -0.4048 -1.3269  0.8080
 2338TIP3    H2 7021   3.614   4.959   2.406  2.0504  0.0145 -0.8405
 2339TIP3   OH2 7022   4.730   0.990   3.503  0.0264  0.5599 -0.0885
 2339TIP3    H1 7023   4.740   1.069   3.449 -0.3846 -0.0935 -1.1471
 2339TIP3    H2 7024   4.654   1.009   3.558 -0.0956  0.8866 -0.3625
 2340TIP3   OH2 7025   3.235   0.044   0.636 -0.3083  0.2036 -0.0223
 2340TIP3    H1 7026   3.303  -0.002   0.685 -0.3706 -1.9261 -1.7758
 2340TIP3    H2 7027   3.234   0.001   0.550 -0.3207  3.6083 -1.9134
 2341TIP3   OH2 7028   5.865   0.924   1.968 -0.6728 -0.0663 -0.4295
 2341TIP3    H1 7029   5.812   0.885   2.037  1.0191  0.7654  1.4550
 2341TIP3    H2 7030   5.932   0.857   1.949 -1.3791 -0.4643 -1.6204
 2342TIP3   OH2 7031   2.248   2.755   5.016 -0.6122 -0.2419 -0.7852
 2342TIP3    H1 7032   2.243   2.660   5.009 -1.3038 -0.1477 -1.8547
 2342TIP3    H2 7033   2.230   2.774   5.108 -2.0038 -1.0597 -0.8728
 2343TIP3   OH2 7034   4.533   0.849   0.871  0.5174 -0.0864  0.4153
 2343TIP3    H1 7035   4.469   0.827   0.938  0.3483  0.6320  0.4892
 2343TIP3    H2 7036   4.558   0.939   0.889  1.3183 -0.2530  0.1939
 2344TIP3   OH2 7037   2.682   3.777   4.202  0.5815  0.3308  0.2804
 2344TIP3    H1 7038   2.659   3.739   4.117 -2.4170  1.6915  0.3634
 2344TIP3    H2 7039   2.668   3.706   4.264  0.3761  0.0211 -0.1110
 2345TIP3   OH2 7040   2.196   1.657   3.749  0.3418 -0.0464 -0.3386
 2345TIP3    H1 7041   2.163   1.731   3.799 -0.0078 -1.5899  1.8745
 2345TIP3    H2 7042   2.284   1.643   3.783  0.3388 -0.7691 -0.6146
 2346TIP3   OH2 7043   5.038   5.035   3.380 -0.0611  0.3706  0.1140
 2346TIP3    H1 7044   5.057   4.951   3.421  2.6994  0.5503 -0.5875
 2346TIP3    H2 7045   5.003   5.012   3.294 -0.2578 -0.0701  0.3110
 2347TIP3   OH2 7046   5.026   5.930   1.225 -0.5573  0.1475  0.0938
 2347TIP3    H1 7047   4.986   5.982   1.155 -0.0941  0.0540 -0.2466
 2347TIP3    H2 7048   5.093   5.877   1.181  0.0802  0.4495  0.6714
 2348TIP3   OH2 7049   3.809   3.333   2.317  0.4209  0.1399 -0.5793
 2348TIP3    H1 7050   3.759   3.410   2.291 -1.1407 -0.8898 -0.7524
 2348TIP3    H2 7051   3.818   3.341   2.412 -0.6445  0.0412 -0.4541
 2349TIP3   OH2 7052   2.114   1.857   3.903 -0.8825 -0.0142 -0.3899
 2349TIP3    H1 7053   2.131   1.950   3.889  1.8217 -0.6373 -1.9938
 2349TIP3    H2 7054   2.057   1.854   3.979 -0.9282  2.9356 -0.1954
 2350TIP3   OH2 7055   1.396   3.159   5.036  0.0437  0.8166 -0.3420
 2350TIP3    H1 7056   1.379   3.104   4.960 -0.7013  0.1621  0.2842
 2350TIP3    H2 7057   1.311   3.169   5.079  0.4049  1.3863  0.2661
 2351TIP3   OH2 7058   0.087   4.248   0.121  0.3813  0.0171  0.8599
 2351TIP3    H1 7059   0.151   4.319   0.125  1.2437 -0.6689 -0.0387
 2351TIP3    H2 7060   0.081   4.227   0.028 -1.3820  0.2430  0.8970
 2352TIP3   OH2 7061   1.569   2.881   2.311  0.0295 -0.1843  0.1190
 2352TIP3    H1 7062   1.565   2.899   2.217 -0.9116  2.7576  0.6159
 2352TIP3    H2 7063   1.597   2.963   2.351  0.6646 -1.4207  2.4378
 2353TIP3   OH2 7064   3.632   4.655   0.958  0.3569  0.3837 -0.5840
 2353TIP3    H1 7065   3.705   4.640   0.899  1.1953  1.6195  0.0916
 2353TIP3    H2 7066   3.582   4.726   0.917 -0.7976 -0.7958 -1.3054
 2354TIP3   OH2 7067   0.251   0.936   2.599 -0.5630  0.3364 -0.1930
 2354TIP3    H1 7068   0.222   1.019   2.635 -1.0792 -0.2509  0.7734
 2354TIP3    H2 7069   0.347   0.939   2.607 -0.5441  1.0255 -0.6050
 2355TIP3   OH2 7070   5.823   2.867   2.457  0.6914 -0.4396  0.6018
 2355TIP3    H1 7071   5.799   2.859   2.550  1.7054 -0.7273  0.8480
 2355TIP3    H2 7072   5.777   2.793   2.415 -0.5598  0.2584  0.6907
 2356TIP3   OH2 7073   4.743   5.721   1.604 -0.4358  0.5593 -0.6073
 2356TIP3    H1 7074   4.702   5.799   1.642 -2.3083  0.5311 -2.4389
 2356TIP3    H2 7075   4.809   5.756   1.544  0.1281  0.6487  0.0385
 2357TIP3   OH2 7076   3.866   1.684   2.906  0.1666  0.2015  0.5722
 2357TIP3    H1 7077   3.850   1.596   2.871  1.9642  0.8330 -2.1592
 2357TIP3    H2 7078   3.886   1.670   2.998  0.3121 -2.2404  0.2417
 2358TIP3   OH2 7079   5.514   2.215   1.317  0.0958  0.2302 -0.0356
 2358TIP3    H1 7080   5.459   2.258   1.382  0.6753 -1.9396  2.0511
 2358TIP3    H2 7081   5.462   2.215   1.237 -1.0212  2.2192  0.6194
 2359TIP3   OH2 7082   5.787   4.358   0.188 -0.2673  0.9011 -0.2062
 2359TIP3    H1 7083   5.714   4.318   0.236  0.5467  1.9526  2.0374
 2359TIP3    H2 7084   5.748   4.431   0.142 -0.9502  0.3337 -0.5480
 2360TIP3   OH2 7085   1.526   5.853   3.170  0.2221 -0.2290 -0.3349
 2360TIP3    H1 7086   1.455   5.828   3.229  1.4452 -0.5277  1.0868
 2360TIP3    H2 7087   1.532   5.781   3.107 -0.1256 -0.6594  0.1155
 2361TIP3   OH2 7088   6.210   1.772   1.761  0.3687  0.1479 -0.3012
 2361TIP3    H1 7089   6.178   1.691   1.721 -0.7950 -0.8641  2.4347
 2361TIP3    H2 7090   6.276   1.744   1.824 -0.8454  1.1268  1.5205
 2362TIP3   OH2 7091   3.670   0.935   2.650 -1.1862  0.5248 -0.6337
 2362TIP3    H1 7092   3.635   0.868   2.590 -0.0147  2.0448 -3.2220
 2362TIP3    H2 7093   3.638   1.018   2.614 -0.7184  1.5051  1.1156
 2363TIP3   OH2 7094   4.002   0.264   0.495  0.5231  0.5270  0.6094
 2363TIP3    H1 7095   4.013   0.178   0.536  0.9888  0.7040  0.8641
 2363TIP3    H2 7096   4.001   0.246   0.401 -2.2096 -0.0888  0.6720
 2364TIP3   OH2 7097   4.595   0.264   2.468  0.4010 -0.2505 -0.0374
 2364TIP3    H1 7098   4.643   0.336   2.428  0.1425  0.8791  1.6200
 2364TIP3    H2 7099   4.522   0.248   2.407  0.9462  0.2832 -0.8509
 2365TIP3   OH2 7100   1.058   4.310   0.405  0.5576  0.0601  0.1293
 2365TIP3    H1 7101   1.115   4.386   0.396  0.5722  0.0243 -0.0715
 2365TIP3    H2 7102   0.987   4.325   0.343 -0.1147  0.5217  0.9851
 2366TIP3   OH2 7103   2.741   4.657   3.670 -0.0478 -0.1115  0.3872
 2366TIP3    H1 7104   2.826   4.694   3.694  0.5830  0.6843 -2.6470
 2366TIP3    H2 7105   2.762   4.576   3.624 -1.0392 -0.6796  0.9093
 2367TIP3   OH2 7106   0.159   0.710   1.255 -0.3190 -0.0641  0.0403
 2367TIP3    H1 7107   0.072   0.747   1.236 -1.1790 -1.7093  0.5807
 2367TIP3    H2 7108   0.155   0.687   1.348  1.8297  2.6697  0.9607
 2368TIP3   OH2 7109   3.681   3.794   1.782 -0.4428 -0.0418  0.0888
 2368TIP3    H1 7110   3.688   3.732   1.855 -0.8419  1.3803  1.3759
 2368TIP3    H2 7111   3.587   3.800   1.765 -0.4654  0.7867  0.4886
 2369TIP3   OH2 7112   1.437   4.785   4.747  0.1181 -0.3365  0.4478
 2369TIP3    H1 7113   1.452   4.701   4.703 -0.3221 -0.1188 -0.1420
 2369TIP3    H2 7114   1.494   4.847   4.701 -0.1648 -0.1563  0.3326
 2370TIP3   OH2 7115   1.827   2.707   3.676 -0.2715 -0.3368  0.0427
 2370TIP3    H1 7116   1.871   2.623   3.681  0.7506  0.2200  0.9128
 2370TIP3    H2 7117   1.749   2.697   3.731 -0.3130 -0.8028 -0.0998
 2371TIP3   OH2 7118   1.773   0.832   2.199 -0.1995  0.2837  0.5077
 2371TIP3    H1 7119   1.714   0.841   2.124  0.2055  1.9090  0.3467
 2371TIP3    H2 7120   1.742   0.899   2.261  0.9208  0.5550  0.7895
 2372TIP3   OH2 7121   6.140   0.785   0.389  0.4249  0.2129 -0.2248
 2372TIP3    H1 7122   6.178   0.706   0.349 -0.2141  0.6320 -1.7267
 2372TIP3    H2 7123   6.182   0.791   0.475  0.4227 -1.8097 -0.0295
 2373TIP3   OH2 7124   1.451   5.574   4.632  0.2760 -0.7134 -0.0824
 2373TIP3    H1 7125   1.422   5.603   4.718 -2.8043  0.9591 -1.5009
 2373TIP3    H2 7126   1.503   5.647   4.598 -1.8357  0.4467 -1.0471
 2374TIP3   OH2 7127   0.753   1.754   0.109 -0.2535 -0.2736 -0.7523
 2374TIP3    H1 7128   0.790   1.676   0.068  1.1321  0.2602 -0.5934
 2374TIP3    H2 7129   0.813   1.775   0.180  0.4261  1.9073 -1.8512
 2375TIP3   OH2 7130   2.209   2.118   1.643 -0.1125 -0.0126 -0.1651
 2375TIP3    H1 7131   2.225   2.053   1.712  1.0250  0.8555  0.4203
 2375TIP3    H2 7132   2.114   2.128   1.641 -0.1288  1.2077  2.5246
 2376TIP3   OH2 7133   3.893   1.336   4.549  0.0987  1.1150 -0.3717
 2376TIP3    H1 7134   3.937   1.345   4.634  0.8056  0.8078 -0.7016
 2376TIP3    H2 7135   3.803   1.314   4.572  0.3682  0.6598  0.3010
 2377TIP3   OH2 7136   2.058   3.933   0.465  0.0690  0.1385 -0.9329
 2377TIP3    H1 7137   2.002   3.910   0.540  1.6484 -0.0334  0.2570
 2377TIP3    H2 7138   2.007   3.997   0.416 -1.7596 -1.0672 -0.7259
 2378TIP3   OH2 7139   1.630   3.878   2.631 -0.1841 -0.4128 -0.2817
 2378TIP3    H1 7140   1.552   3.837   2.596 -0.5043  0.2063 -0.3018
 2378TIP3    H2 7141   1.601   3.964   2.660  0.7707  0.3678 -1.5491
 2379TIP3   OH2 7142   4.353   3.534   1.228  0.1365 -0.2529  0.2614
 2379TIP3    H1 7143   4.372   3.587   1.306 -0.9576 -0.8313  0.9445
 2379TIP3    H2 7144   4.267   3.563   1.200  0.9469  0.6819 -1.3910
 2380TIP3   OH2 7145   0.381   3.563   0.654  0.6309  0.5810 -0.6851
 2380TIP3    H1 7146   0.287   3.578   0.642  0.3811 -1.0802 -1.0041
 2380TIP3    H2 7147   0.417   3.565   0.566  0.7201  0.1468 -0.6575
 2381TIP3   OH2 7148   1.694   3.602   1.177  0.2058 -0.3258  0.4746
 2381TIP3    H1 7149   1.638   3.531   1.147 -2.7028  1.3436  1.4786
 2381TIP3    H2 7150   1.733   3.639   1.098 -1.0049 -0.8883 -0.3999
 2382TIP3   OH2 7151   5.752   5.910   3.705  0.0015 -0.6077 -0.1912
 2382TIP3    H1 7152   5.660   5.931   3.722  0.3035  0.0883  0.6986
 2382TIP3    H2 7153   5.775   5.964   3.629 -0.2788 -0.6473 -0.3043
 2383TIP3   OH2 7154   6.279   3.179   3.938 -0.0817  0.6690 -0.1880
 2383TIP3    H1 7155   6.296   3.262   3.892 -0.9636  0.7821 -0.3311
 2383TIP3    H2 7156   6.183   3.174   3.943 -0.0400  0.8972  2.0528
 2384TIP3   OH2 7157   2.262   4.309   2.123  0.3331 -0.0048 -0.2359
 2384TIP3    H1 7158   2.258   4.216   2.147  1.4957  0.3130  1.3448
 2384TIP3    H2 7159   2.200   4.317   2.051 -1.1537 -1.6663  0.7556
 2385TIP3   OH2 7160   2.404   2.742   2.364 -0.5088 -0.0302 -0.4301
 2385TIP3    H1 7161   2.337   2.807   2.380 -1.8133 -1.5681  0.7460
 2385TIP3    H2 7162   2.448   2.771   2.284 -1.6840  1.7181 -0.4905
 2386TIP3   OH2 7163   2.494   4.066   2.630  0.5388 -0.4365  0.2786
 2386TIP3    H1 7164   2.419   4.015   2.659 -0.4021  0.4876 -0.4710
 2386TIP3    H2 7165   2.567   4.003   2.629 -0.5550 -1.7467 -0.4862
 2387TIP3   OH2 7166   2.323   5.750   2.037  0.3754 -0.0892 -0.2936
 2387TIP3    H1 7167   2.355   5.721   2.122 -0.8023  0.5836  0.3915
 2387TIP3    H2 7168   2.371   5.832   2.020  1.3853 -0.7680 -0.7802
 2388TIP3   OH2 7169   6.180   4.365   1.165 -0.2148  0.4818 -0.0785
 2388TIP3    H1 7170   6.154   4.276   1.138  0.7557 -0.4368  1.8734
 2388TIP3    H2 7171   6.275   4.367   1.152 -0.0703  0.8270  1.0033
 2389TIP3   OH2 7172   4.807   1.554   2.615 -0.4035  0.1868 -0.0527
 2389TIP3    H1 7173   4.724   1.571   2.660  0.1735  1.4535  0.5795
 2389TIP3    H2 7174   4.825   1.635   2.568  0.5297 -0.0438 -0.1053
 2390TIP3   OH2 7175   4.696   1.825   1.840 -0.0161 -0.2236 -0.6819
 2390TIP3    H1 7176   4.725   1.899   1.893  0.2249 -0.4467 -0.5014
 2390TIP3    H2 7177   4.607   1.848   1.814  0.0449  0.1157 -0.6030
 2391TIP3   OH2 7178   5.380   2.179   0.798  0.0734  0.5846 -0.0019
 2391TIP3    H1 7179   5.414   2.143   0.880  0.9191  1.1758 -0.0796
 2391TIP3    H2 7180   5.372   2.273   0.815 -0.4033  0.6163 -0.3806
 2392TIP3   OH2 7181   2.022   5.377   2.427  0.1555 -0.2928 -0.1256
 2392TIP3    H1 7182   1.954   5.401   2.364 -0.7361 -2.2776  0.0131
 2392TIP3    H2 7183   2.100   5.363   2.373  0.3671  1.4710 -0.3445
 2393TIP3   OH2 7184   0.137   4.611   1.451 -0.1584 -0.1188  0.2908
 2393TIP3    H1 7185   0.056   4.588   1.498 -0.9065 -0.3947 -1.0693
 2393TIP3    H2 7186   0.112   4.685   1.396  0.5194 -0.2364 -0.1802
 2394TIP3   OH2 7187   4.029   0.341   1.896  0.3296 -0.6434 -0.4118
 2394TIP3    H1 7188   4.015   0.396   1.819 -1.5971 -0.0425  0.3173
 2394TIP3    H2 7189   4.088   0.272   1.866  0.4392  0.1675 -2.1407
 2395TIP3   OH2 7190   0.182   5.234   2.755 -0.2442 -0.5244 -0.3164
 2395TIP3    H1 7191   0.109   5.210   2.813  0.7300 -0.1673  1.1065
 2395TIP3    H2 7192   0.141   5.251   2.670 -1.4937 -2.9684 -0.2856
 2396TIP3   OH2 7193   4.944   2.943   4.555 -0.0244 -0.5958  0.0823
 2396TIP3    H1 7194   4.870   3.002   4.564  0.0976 -0.3936 -0.2330
 2396TIP3    H2 7195   5.020   3.000   4.541  0.2772 -0.7769  0.9217
 2397TIP3   OH2 7196   4.531   1.011   3.795 -0.0563  0.0182  0.5768
 2397TIP3    H1 7197   4.442   0.977   3.811  0.0552 -0.3001  0.5400
 2397TIP3    H2 7198   4.538   1.016   3.700  0.4167 -1.2293  0.5149
 2398TIP3   OH2 7199   2.015   1.423   1.478  0.0188 -0.1997  0.1835
 2398TIP3    H1 7200   2.000   1.455   1.389  0.7762  1.8299  0.7378
 2398TIP3    H2 7201   2.095   1.466   1.506  0.5969 -1.9284  1.3707
 2399TIP3   OH2 7202   1.811   5.526   0.546 -0.0490 -0.1549 -0.5592
 2399TIP3    H1 7203   1.744   5.544   0.612  0.7014  0.9586 -0.0676
 2399TIP3    H2 7204   1.860   5.452   0.581  0.7836  0.8628  0.5161
 2400TIP3   OH2 7205   0.258   4.903   1.690  0.2890 -0.0584 -0.0636
 2400TIP3    H1 7206   0.169   4.889   1.658  0.9509 -0.4875 -1.8531
 2400TIP3    H2 7207   0.270   4.998   1.686 -0.5310  0.1273  1.5092
 2401TIP3   OH2 7208   2.319   3.075   4.604 -0.1194  0.0875  0.6792
 2401TIP3    H1 7209   2.324   3.043   4.694 -1.8196  0.9818  1.1216
 2401TIP3    H2 7210   2.286   3.001   4.554  2.1736 -0.8896  0.4645
 2402TIP3   OH2 7211   1.026   1.788   1.268 -0.3581 -0.4553 -0.3060
 2402TIP3    H1 7212   1.037   1.802   1.362 -0.3824 -1.4785 -0.1461
 2402TIP3    H2 7213   0.982   1.868   1.237  1.5511  0.8515  0.1669
 2403TIP3   OH2 7214   3.565   4.259   4.427  0.3310  0.0626 -0.1270
 2403TIP3    H1 7215   3.583   4.165   4.415  0.8726 -0.2281  2.3453
 2403TIP3    H2 7216   3.482   4.261   4.476  1.2761  0.7388  1.5196
 2404TIP3   OH2 7217   3.714   5.824   2.668  0.5047 -0.0270  0.6331
 2404TIP3    H1 7218   3.721   5.810   2.573  0.8902 -1.2728  0.8251
 2404TIP3    H2 7219   3.798   5.861   2.693  0.9601 -1.0794  0.6993
 2405TIP3   OH2 7220   2.834   4.544   2.889  1.0335  0.2573 -0.4282
 2405TIP3    H1 7221   2.818   4.549   2.795 -1.2023  0.8755 -0.0789
 2405TIP3    H2 7222   2.777   4.473   2.919  0.7797  0.8802  0.6085
 2406TIP3   OH2 7223   1.069   2.140   4.812  0.6381 -0.0042 -0.0436
 2406TIP3    H1 7224   1.100   2.200   4.881 -0.0209 -0.5100  0.7087
 2406TIP3    H2 7225   0.980   2.118   4.838  0.7356 -1.0048 -0.5351
 2407TIP3   OH2 7226   2.037   2.265   1.079  0.5840  0.7289 -0.5141
 2407TIP3    H1 7227   1.984   2.278   1.157  1.5182 -0.0630  0.2677
 2407TIP3    H2 7228   1.985   2.303   1.008 -0.6298  0.7438  0.3633
 2408TIP3   OH2 7229   3.672   2.552   4.365  0.6654  0.4221 -0.1461
 2408TIP3    H1 7230   3.693   2.463   4.393  0.7265  0.4081 -0.2359
 2408TIP3    H2 7231   3.723   2.564   4.285 -0.0803  0.2001 -0.6620
 2409TIP3   OH2 7232   1.406   1.046   4.209 -0.2092 -0.2055 -0.4524
 2409TIP3    H1 7233   1.489   1.074   4.248 -0.8604  0.7603  0.3130
 2409TIP3    H2 7234   1.422   0.957   4.180  1.2392  0.1244 -0.7623
 2410TIP3   OH2 7235   4.941   5.803   2.156  0.3450 -0.2435 -0.8366
 2410TIP3    H1 7236   4.850   5.804   2.184  0.9135  0.6159  1.1910
 2410TIP3    H2 7237   4.954   5.885   2.109 -0.1531 -0.8286 -2.0237
 2411TIP3   OH2 7238   4.953   2.231   0.211 -0.3973 -0.7614  0.1481
 2411TIP3    H1 7239   4.943   2.143   0.247 -0.0448 -0.2180  1.6184
 2411TIP3    H2 7240   4.969   2.287   0.287 -1.3677  0.6994 -0.6774
 2412TIP3   OH2 7241   5.083   5.913   0.362 -0.7242  0.1651  0.2756
 2412TIP3    H1 7242   5.078   5.955   0.276 -0.3932  0.6875  0.5102
 2412TIP3    H2 7243   5.078   5.985   0.425  2.7715  0.2442  0.6797
 2413TIP3   OH2 7244   1.556   0.833   0.864  0.2206  0.1225  0.3968
 2413TIP3    H1 7245   1.544   0.762   0.801  0.8502 -0.4088  0.8617
 2413TIP3    H2 7246   1.490   0.815   0.932  0.6687 -0.2755  0.7335
 2414TIP3   OH2 7247   0.603   2.119   5.014 -0.2073  0.2542  0.0633
 2414TIP3    H1 7248   0.639   2.113   5.102 -0.5601  1.7389  0.3276
 2414TIP3    H2 7249   0.549   2.040   5.004 -2.3390  1.3685  2.1669
 2415TIP3   OH2 7250   6.074   4.825   1.190 -0.1426  0.3434 -0.4022
 2415TIP3    H1 7251   6.115   4.862   1.112 -1.6652  0.4077 -1.2141
 2415TIP3    H2 7252   6.069   4.731   1.173  0.5260  0.2080  0.1172
 2416TIP3   OH2 7253   2.791   5.847   3.032 -0.6936  0.1348 -0.3524
 2416TIP3    H1 7254   2.786   5.941   3.050  1.2606 -0.1600  2.2459
 2416TIP3    H2 7255   2.705   5.814   3.059 -1.7734  1.2465 -2.2401
 2417TIP3   OH2 7256   3.826   4.624   4.805  0.2440  0.6995  0.0393
 2417TIP3    H1 7257   3.767   4.699   4.806 -1.0812 -0.2235 -2.3052
 2417TIP3    H2 7258   3.887   4.642   4.734  1.4261  0.5927  0.9853
 2418TIP3   OH2 7259   0.744   3.848   3.852 -0.1430 -0.0260  0.0480
 2418TIP3    H1 7260   0.678   3.810   3.910  0.8238 -0.9035  0.6059
 2418TIP3    H2 7261   0.770   3.776   3.795 -1.7750  1.0273 -2.2449
 2419TIP3   OH2 7262   1.127   4.920   0.413  0.9717 -0.3924 -0.2770
 2419TIP3    H1 7263   1.070   4.900   0.486 -0.4171  1.6102 -0.7304
 2419TIP3    H2 7264   1.069   4.926   0.337  2.3177 -2.0595 -1.5500
 2420TIP3   OH2 7265   4.517   4.716   0.148  0.1478 -0.5924  0.4421
 2420TIP3    H1 7266   4.600   4.690   0.106 -0.2658 -2.3517  0.6249
 2420TIP3    H2 7267   4.541   4.791   0.203  1.8163 -1.5556  1.1207
 2421TIP3   OH2 7268   0.760   0.507   5.004  0.6865  0.6239  0.5676
 2421TIP3    H1 7269   0.765   0.457   4.922 -0.6746  1.8471 -0.3229
 2421TIP3    H2 7270   0.784   0.444   5.072 -3.1554 -2.0318 -0.2042
 2422TIP3   OH2 7271   3.814   2.664   4.937  0.2569 -0.5228 -0.2165
 2422TIP3    H1 7272   3.792   2.751   4.904  1.1485 -0.9427 -1.9785
 2422TIP3    H2 7273   3.732   2.633   4.976 -0.1675  0.9385  0.1489
 2423TIP3   OH2 7274   4.519   2.270   2.305 -0.0947  0.6006  0.2072
 2423TIP3    H1 7275   4.523   2.350   2.253  0.9427 -0.0646 -0.7720
 2423TIP3    H2 7276   4.610   2.248   2.323 -0.3112 -0.8365 -0.3057
 2424TIP3   OH2 7277   3.765   0.707   4.444 -0.1421 -0.0579  0.1361
 2424TIP3    H1 7278   3.727   0.781   4.397  0.0332 -0.0156  0.0584
 2424TIP3    H2 7279   3.776   0.739   4.534 -0.5932 -0.1810  0.2352
 2425TIP3   OH2 7280   5.541   4.865   4.504  0.9980 -0.1750  0.0493
 2425TIP3    H1 7281   5.496   4.846   4.422  1.0514  0.7376 -0.2032
 2425TIP3    H2 7282   5.589   4.786   4.524 -0.7861 -1.2372  0.3772
 2426TIP3   OH2 7283   2.806   2.750   2.293  0.1869 -0.4321  0.0204
 2426TIP3    H1 7284   2.871   2.809   2.332 -1.0166  1.7792 -1.1269
 2426TIP3    H2 7285   2.834   2.663   2.320  3.5714  0.4030 -0.3231
 2427TIP3   OH2 7286   3.152   0.688   2.121  0.4813 -0.0635 -0.7238
 2427TIP3    H1 7287   3.207   0.745   2.067 -0.3689  0.8395 -0.6678
 2427TIP3    H2 7288   3.096   0.642   2.058  1.0937 -0.7728 -0.7612
 2428TIP3   OH2 7289   0.319   3.141   3.994  0.0740  0.3702 -0.1480
 2428TIP3    H1 7290   0.292   3.232   4.010  2.8393  1.2847 -0.0519
 2428TIP3    H2 7291   0.264   3.089   4.052 -1.4407  1.9954 -0.0391
 2429TIP3   OH2 7292   0.283   4.110   0.337 -0.5566  0.0574 -0.3029
 2429TIP3    H1 7293   0.252   4.030   0.379  0.3071  0.0907  0.4076
 2429TIP3    H2 7294   0.345   4.080   0.271 -2.7727 -0.0886 -2.4574
 2430TIP3   OH2 7295   1.319   0.720   3.959  0.0082 -0.1592 -0.9210
 2430TIP3    H1 7296   1.307   0.645   4.018  0.8071 -0.5257 -1.2104
 2430TIP3    H2 7297   1.268   0.698   3.881 -1.6989  0.6746 -0.1042
 2431TIP3   OH2 7298   2.110   4.659   4.132  0.4898 -0.4553  0.4760
 2431TIP3    H1 7299   2.111   4.748   4.168 -2.4036 -0.0398 -0.2456
 2431TIP3    H2 7300   2.143   4.605   4.204  0.4930  0.9868  1.6242
 2432TIP3   OH2 7301   0.477   4.091   4.190  0.4493  0.0255 -0.1538
 2432TIP3    H1 7302   0.445   4.115   4.103  0.8417 -3.2651 -1.3324
 2432TIP3    H2 7303   0.399   4.059   4.236  0.5601  0.1622  0.1371
 2433TIP3   OH2 7304   5.927   1.194   1.910  0.0693  0.3408 -0.1108
 2433TIP3    H1 7305   5.923   1.105   1.945  2.7629  0.4552  0.7342
 2433TIP3    H2 7306   5.898   1.250   1.983 -0.3122  0.2243 -0.1746
 2434TIP3   OH2 7307   1.955   0.818   0.640 -0.0604 -0.3591  0.6327
 2434TIP3    H1 7308   1.881   0.757   0.638 -0.4849  0.1500 -1.8469
 2434TIP3    H2 7309   2.013   0.788   0.571  1.0154  0.5163  1.1359
 2435TIP3   OH2 7310   5.633   0.054   2.933 -0.2726 -0.4716 -0.2257
 2435TIP3    H1 7311   5.565  -0.003   2.898 -0.3799 -0.4787 -0.0127
 2435TIP3    H2 7312   5.697   0.064   2.862 -0.5866 -0.3201 -0.4876
 2436TIP3   OH2 7313   5.507   2.954   1.387 -0.2538  0.0797  0.8029
 2436TIP3    H1 7314   5.546   2.898   1.454 -0.3930  0.2237  1.0058
 2436TIP3    H2 7315   5.572   2.956   1.316  0.3485  0.7349  1.3554
 2437TIP3   OH2 7316   4.442   1.491   4.674  0.0339 -0.1700  0.1407
 2437TIP3    H1 7317   4.529   1.518   4.706  0.0422  1.2052 -0.9484
 2437TIP3    H2 7318   4.392   1.474   4.754  1.2127 -0.6709  0.7923
 2438TIP3   OH2 7319   5.723   5.526   1.594 -0.0000  0.1109  0.7491
 2438TIP3    H1 7320   5.794   5.469   1.623  0.8389  1.0614  0.6243
 2438TIP3    H2 7321   5.650   5.506   1.653 -0.0191 -1.6718  0.1771
 2439TIP3   OH2 7322   2.177   0.601   1.248  0.4036 -0.0900  0.0708
 2439TIP3    H1 7323   2.208   0.560   1.167  0.3363 -1.5574  0.7438
 2439TIP3    H2 7324   2.169   0.694   1.227 -0.5198 -0.5599 -1.8888
 2440TIP3   OH2 7325   4.907   3.480   0.135 -0.2175  0.0829 -0.0152
 2440TIP3    H1 7326   4.972   3.527   0.082  2.2318 -2.8633  0.1247
 2440TIP3    H2 7327   4.851   3.436   0.070 -0.1650  0.1972 -0.1397
 2441TIP3   OH2 7328   4.854   1.385   3.587  0.6906 -0.4325  0.7622
 2441TIP3    H1 7329   4.886   1.340   3.665  0.4143  0.3335  1.3342
 2441TIP3    H2 7330   4.836   1.474   3.617  2.0632  0.3279 -0.5473
 2442TIP3   OH2 7331   2.913   5.669   3.776 -0.0146 -0.4290  0.0322
 2442TIP3    H1 7332   2.878   5.582   3.799 -0.8223  0.0156  0.5311
 2442TIP3    H2 7333   2.960   5.697   3.855  0.9454 -0.7405 -0.4072
 2443TIP3   OH2 7334   1.062   0.320   1.082 -0.5626  0.1483 -0.4943
 2443TIP3    H1 7335   0.993   0.272   1.036 -0.9411 -0.2872  0.5037
 2443TIP3    H2 7336   1.032   0.324   1.173 -0.1384  1.5542 -0.3936
 2444TIP3   OH2 7337   4.178   5.819   0.842  0.6313 -0.7768 -0.4678
 2444TIP3    H1 7338   4.182   5.732   0.882  0.6455 -0.3078  0.5871
 2444TIP3    H2 7339   4.119   5.869   0.899  0.2505 -0.2213 -1.3277
 2445TIP3   OH2 7340   2.324   5.993   1.010  0.1652 -0.3706  0.8554
 2445TIP3    H1 7341   2.352   5.969   1.098  1.1258  1.0772  0.9766
 2445TIP3    H2 7342   2.393   5.960   0.953  1.5731  2.0388  1.0359
 2446TIP3   OH2 7343   0.670   4.879   1.058 -0.5154  0.1112 -0.0048
 2446TIP3    H1 7344   0.622   4.912   0.983 -0.3409 -0.0217 -0.1765
 2446TIP3    H2 7345   0.729   4.951   1.082 -0.1358 -0.0735 -0.3777
 2447TIP3   OH2 7346   2.869   1.414   2.715 -0.4680  0.3684  0.1244
 2447TIP3    H1 7347   2.796   1.353   2.719 -1.0915  1.1224  0.4727
 2447TIP3    H2 7348   2.828   1.499   2.698  0.3722  0.7101 -0.2426
 2448TIP3   OH2 7349   4.782   3.308   0.777  0.1461 -0.2228 -0.0238
 2448TIP3    H1 7350   4.695   3.269   0.784  0.9117 -1.9269  0.3718
 2448TIP3    H2 7351   4.793   3.328   0.684 -0.6041 -0.0988 -0.0916
 2449TIP3   OH2 7352   0.008   1.752   3.272 -0.9044 -0.4273  0.6160
 2449TIP3    H1 7353   0.096   1.767   3.238 -1.4914  1.1321 -0.3088
 2449TIP3    H2 7354   0.014   1.778   3.364 -0.7415  1.2357  0.1809
 2450TIP3   OH2 7355   4.384   2.761   4.564 -0.0613  0.0450 -0.6378
 2450TIP3    H1 7356   4.419   2.822   4.499  0.5927 -0.3687 -0.6840
 2450TIP3    H2 7357   4.402   2.804   4.648 -2.9086  1.6473 -0.7417
 2451TIP3   OH2 7358   1.976   4.480   1.399 -0.1616 -0.0064  0.2795
 2451TIP3    H1 7359   1.930   4.399   1.381 -0.3220  0.1930 -0.2207
 2451TIP3    H2 7360   2.068   4.461   1.377 -0.4171  0.3662 -1.2561
 2452TIP3   OH2 7361   3.620   2.259   3.459 -0.3059  0.0416  0.2966
 2452TIP3    H1 7362   3.625   2.314   3.381  0.1329 -0.2797  0.1000
 2452TIP3    H2 7363   3.529   2.228   3.460 -0.0632 -0.7165 -0.6061
 2453TIP3   OH2 7364   5.301   3.473   1.491 -0.1135  0.0801  0.4709
 2453TIP3    H1 7365   5.341   3.405   1.544 -0.4935 -1.5829 -1.2682
 2453TIP3    H2 7366   5.366   3.544   1.490  1.9699 -1.7286 -0.6341
 2454TIP3   OH2 7367   3.551   2.239   1.670  0.1477 -0.0317  0.0590
 2454TIP3    H1 7368   3.619   2.198   1.616  1.3865  2.5056 -0.4647
 2454TIP3    H2 7369   3.485   2.170   1.681  1.9559 -2.0576 -0.8820
 2455TIP3   OH2 7370   4.657   4.793   5.128  0.5701 -0.6138 -0.3351
 2455TIP3    H1 7371   4.568   4.791   5.091  0.4020 -0.8510  0.0741
 2455TIP3    H2 7372   4.669   4.705   5.165  0.2953 -0.0361  1.1984
 2456TIP3   OH2 7373   1.500   0.707   4.644  0.2552 -0.7101 -0.1029
 2456TIP3    H1 7374   1.474   0.760   4.720  1.9057 -0.4531  0.3208
 2456TIP3    H2 7375   1.445   0.739   4.573 -1.3297 -0.9493  0.9579
 2457TIP3   OH2 7376   2.101   3.201   1.284 -0.2685  0.1573  0.4759
 2457TIP3    H1 7377   2.069   3.199   1.193  0.3631 -0.2567  0.2549
 2457TIP3    H2 7378   2.055   3.129   1.327 -1.0921  0.7830  0.6773
 2458TIP3   OH2 7379   5.143   0.112  -0.022 -0.0714  0.0471  0.2981
 2458TIP3    H1 7380   5.140   0.021   0.006  0.3120 -0.0713 -0.0317
 2458TIP3    H2 7381   5.069   0.153   0.021  0.8633  0.0271  2.0011
 2459TIP3   OH2 7382   0.624   4.847   4.375 -0.1375 -0.0473 -0.2443
 2459TIP3    H1 7383   0.607   4.763   4.416 -0.8763 -1.4635 -3.1618
 2459TIP3    H2 7384   0.567   4.909   4.421  0.1454 -1.1495  1.6959
 2460TIP3   OH2 7385   0.071   5.749   5.165  0.0056  0.1455  0.1866
 2460TIP3    H1 7386   0.041   5.659   5.157 -1.3660  0.4286  1.6495
 2460TIP3    H2 7387   0.166   5.742   5.176  0.0230 -1.0483 -0.6013
 2461TIP3   OH2 7388   3.058   2.418   4.864 -0.9437  0.0053 -0.1546
 2461TIP3    H1 7389   3.104   2.468   4.931  0.3464 -1.3721  0.0393
 2461TIP3    H2 7390   3.003   2.482   4.820  0.3646  1.5245  0.3277
 2462TIP3   OH2 7391   0.903   4.395   2.928 -0.3843 -0.5640  0.1477
 2462TIP3    H1 7392   0.987   4.352   2.944 -0.7365 -0.8748  1.2364
 2462TIP3    H2 7393   0.919   4.487   2.949  0.5387  0.0508 -2.7668
 2463TIP3   OH2 7394   4.152   4.908   0.782 -0.3949  0.3390 -0.6292
 2463TIP3    H1 7395   4.167   4.814   0.766 -0.2992  0.3960 -0.8724
 2463TIP3    H2 7396   4.235   4.939   0.817 -0.3008  0.4168 -0.9207
 2464TIP3   OH2 7397   5.832   5.122   0.497 -0.6245 -0.5193 -0.4664
 2464TIP3    H1 7398   5.857   5.031   0.512 -0.8691 -0.6499 -0.8270
 2464TIP3    H2 7399   5.911   5.172   0.517 -0.9122 -0.6762  1.1749
 2465TIP3   OH2 7400   5.754   3.385   1.125  0.0975 -0.2054  1.1730
 2465TIP3    H1 7401   5.812   3.427   1.189 -0.4359 -0.4552  1.8346
 2465TIP3    H2 7402   5.679   3.356   1.177 -0.0146 -1.0627  0.5495
 2466TIP3   OH2 7403   3.180   2.777   3.157  0.2023  0.0863  0.3358
 2466TIP3    H1 7404   3.100   2.830   3.159 -0.3271 -0.7040  0.8004
 2466TIP3    H2 7405   3.242   2.825   3.211 -0.1696  0.3851  0.5057
 2467TIP3   OH2 7406   5.236   4.225   4.610  1.1585  0.2334  0.3178
 2467TIP3    H1 7407   5.313   4.176   4.639  1.5490  0.1054 -0.8586
 2467TIP3    H2 7408   5.265   4.268   4.529  0.0002  0.1944 -0.1259
 2468TIP3   OH2 7409   1.560   1.243   1.439  0.2576 -0.6091  0.0599
 2468TIP3    H1 7410   1.543   1.335   1.457 -1.5173 -0.7446 -0.7303
 2468TIP3    H2 7411   1.626   1.245   1.369  0.4161  0.0549  0.2186
 2469TIP3   OH2 7412   4.404   4.751   1.191 -0.4289  0.2793  0.5462
 2469TIP3    H1 7413   4.449   4.711   1.265 -0.4197  1.9292  1.4667
 2469TIP3    H2 7414   4.342   4.812   1.230 -0.9126  0.6810 -0.7924
 2470TIP3   OH2 7415   4.097   2.611   4.207 -0.2780  0.7015  0.3775
 2470TIP3    H1 7416   4.140   2.610   4.293  0.7946  0.7565 -0.1450
 2470TIP3    H2 7417   4.152   2.555   4.152 -1.2445  0.2438 -0.1497
 2471TIP3   OH2 7418   3.236   3.978   4.823 -0.3425 -0.3077 -0.1191
 2471TIP3    H1 7419   3.243   3.964   4.917  0.0280  0.2179 -0.0586
 2471TIP3    H2 7420   3.218   3.892   4.786  0.0603 -0.6135  0.3835
 2472TIP3   OH2 7421   3.048   1.827   1.768  0.0068  0.2981  0.2842
 2472TIP3    H1 7422   3.096   1.753   1.731  0.1611  1.8494 -3.0333
 2472TIP3    H2 7423   3.113   1.876   1.818 -0.0260 -1.5327  2.2408
 2473TIP3   OH2 7424   1.396   0.577   0.593  0.0455 -0.2946 -0.0205
 2473TIP3    H1 7425   1.412   0.564   0.686 -1.2468 -0.4048  0.2069
 2473TIP3    H2 7426   1.310   0.619   0.589  0.4839  0.5673 -1.1229
 2474TIP3   OH2 7427   2.195   1.970   0.400  0.1125 -0.2324 -0.2230
 2474TIP3    H1 7428   2.159   1.888   0.433 -0.3217 -0.2343 -0.6755
 2474TIP3    H2 7429   2.197   1.958   0.305 -3.1044  1.4748 -0.6335
 2475TIP3   OH2 7430   2.062   0.885   1.924 -0.3445  0.2474 -0.5135
 2475TIP3    H1 7431   2.007   0.807   1.921 -2.2785  1.5662 -0.6515
 2475TIP3    H2 7432   2.084   0.902   1.832  1.2221 -0.8517 -0.3867
 2476TIP3   OH2 7433   3.975   2.136   1.909 -0.2032  0.5576 -0.2462
 2476TIP3    H1 7434   3.969   2.041   1.895 -0.2344  0.5693 -0.3119
 2476TIP3    H2 7435   3.965   2.173   1.821 -0.5991  0.6415 -0.1661
 2477TIP3   OH2 7436   3.036   0.707   2.479 -0.7698  0.4063  0.1093
 2477TIP3    H1 7437   3.026   0.639   2.545  1.4899 -0.3181 -0.1939
 2477TIP3    H2 7438   3.118   0.685   2.435 -0.0197  3.2167 -0.1030
 2478TIP3   OH2 7439   2.192   2.691   1.986 -0.2412  0.3392 -0.1889
 2478TIP3    H1 7440   2.104   2.720   1.963  0.6638  2.4629 -1.2828
 2478TIP3    H2 7441   2.230   2.765   2.034  0.7825 -0.7647  0.7852
 2479TIP3   OH2 7442   3.119   4.113   0.254  0.1025 -0.3492  0.3042
 2479TIP3    H1 7443   3.107   4.027   0.293  1.4451 -1.0695 -0.7796
 2479TIP3    H2 7444   3.153   4.167   0.325 -1.2899 -0.5209  1.1446
 2480TIP3   OH2 7445   2.382   0.352   0.425 -0.0316  0.0333  0.3674
 2480TIP3    H1 7446   2.437   0.273   0.424 -0.0411  0.0098  1.1854
 2480TIP3    H2 7447   2.393   0.388   0.513  0.2046  1.1159 -0.0901
 2481TIP3   OH2 7448   4.680   5.979   3.609  0.2121 -0.1409 -0.0024
 2481TIP3    H1 7449   4.752   5.972   3.672  0.2150 -1.6524 -0.1517
 2481TIP3    H2 7450   4.603   5.999   3.662  0.0143 -2.3865  0.6616
 2482TIP3   OH2 7451   6.266   4.670   2.359  0.0237 -0.4072 -0.7588
 2482TIP3    H1 7452   6.251   4.592   2.412 -0.8360  0.4047  0.2369
 2482TIP3    H2 7453   6.204   4.662   2.286  0.8944 -1.3072 -1.4188
 2483TIP3   OH2 7454   5.669   1.428   4.404 -0.3531  0.9660 -0.3077
 2483TIP3    H1 7455   5.695   1.432   4.312 -0.2258 -0.3957 -0.3473
 2483TIP3    H2 7456   5.729   1.364   4.443 -0.5109  1.4134  0.6870
 2484TIP3   OH2 7457   5.702   0.758   2.133  0.3055 -0.0112  0.0146
 2484TIP3    H1 7458   5.731   0.669   2.114 -0.5664 -0.1517 -0.7271
 2484TIP3    H2 7459   5.713   0.768   2.227  0.3734 -0.9081  0.1047
 2485TIP3   OH2 7460   4.494   4.561   0.654  0.4341 -0.0120  0.2029
 2485TIP3    H1 7461   4.566   4.499   0.663  1.0368  0.4556 -1.1693
 2485TIP3    H2 7462   4.530   4.645   0.684 -0.2381 -0.1978  1.6156
 2486TIP3   OH2 7463   0.983   1.807   3.638  0.3400 -0.2324  0.2526
 2486TIP3    H1 7464   1.007   1.829   3.547  0.6862  0.4164  0.4940
 2486TIP3    H2 7465   1.016   1.718   3.650  0.7314 -0.1446 -0.1087
 2487TIP3   OH2 7466   3.675   0.508   1.077  0.5511  0.8265  0.4825
 2487TIP3    H1 7467   3.707   0.520   0.988 -0.2899  1.0156  0.1984
 2487TIP3    H2 7468   3.665   0.597   1.112  1.5549  0.7387  1.0193
 2488TIP3   OH2 7469   5.550   3.694   0.976 -0.0623 -0.1204 -0.3125
 2488TIP3    H1 7470   5.506   3.611   0.991  2.0586 -1.2343  0.2546
 2488TIP3    H2 7471   5.536   3.744   1.057 -2.4664  0.7139 -1.1522
 2489TIP3   OH2 7472   2.200   5.691   0.058 -0.1725 -0.2212 -0.4555
 2489TIP3    H1 7473   2.187   5.610   0.009  1.1379 -0.2999 -0.7168
 2489TIP3    H2 7474   2.222   5.757  -0.008  0.7272 -0.1255 -0.0798
 2490TIP3   OH2 7475   5.018   1.382  -0.027  0.3819  0.4082  0.0211
 2490TIP3    H1 7476   5.091   1.319  -0.025  1.3730  1.4174 -1.5474
 2490TIP3    H2 7477   4.995   1.395   0.065 -0.2050 -2.5838  0.4033
 2491TIP3   OH2 7478   1.132   5.614   3.014  0.6709  0.1155 -0.4606
 2491TIP3    H1 7479   1.213   5.563   3.010  0.8119  0.3842 -2.1564
 2491TIP3    H2 7480   1.064   5.550   3.034  1.2415 -0.1943  0.5186
 2492TIP3   OH2 7481   0.066   2.865   2.237 -0.1548  0.3820 -0.3838
 2492TIP3    H1 7482   0.096   2.943   2.283 -1.3493  0.7965 -0.2693
 2492TIP3    H2 7483   0.050   2.801   2.306  1.2883 -0.1564 -0.5131
 2493TIP3   OH2 7484   1.595   4.382   0.378 -0.0713 -0.0415 -0.1527
 2493TIP3    H1 7485   1.587   4.472   0.411 -2.1350  0.3405 -1.4717
 2493TIP3    H2 7486   1.675   4.383   0.326 -1.0808  1.6940 -1.8212
 2494TIP3   OH2 7487   5.240   4.950   2.614  0.1688  0.5611 -0.2557
 2494TIP3    H1 7488   5.190   4.962   2.695 -0.2164  1.3135 -0.5996
 2494TIP3    H2 7489   5.331   4.969   2.638  0.4311 -1.3592  0.5116
 2495TIP3   OH2 7490   0.901   1.917   3.942 -0.3364  0.2192 -0.2633
 2495TIP3    H1 7491   0.882   1.888   3.853 -1.5016  0.0736  0.0263
 2495TIP3    H2 7492   0.892   2.012   3.938  0.2213  0.2711 -0.4336
 2496TIP3   OH2 7493   0.109   3.169   1.928 -0.2370 -0.2772  0.4787
 2496TIP3    H1 7494   0.034   3.189   1.984 -0.9867 -0.2862 -0.5044
 2496TIP3    H2 7495   0.100   3.076   1.908  0.0949 -0.3008  0.4294
 2497TIP3   OH2 7496   1.055   5.668   1.573  0.1182 -0.4550 -0.1869
 2497TIP3    H1 7497   1.121   5.721   1.529  0.9099 -1.3288 -0.0727
 2497TIP3    H2 7498   1.028   5.721   1.649 -0.9906  0.8927 -1.4636
 2498TIP3   OH2 7499   2.662   1.044   0.769 -0.2495  0.3189  0.1032
 2498TIP3    H1 7500   2.592   0.990   0.732 -0.3524  1.8257 -2.1279
 2498TIP3    H2 7501   2.625   1.133   0.769  1.5232  1.1019 -0.8344
 2499TIP3   OH2 7502   0.206   5.370   0.826  0.3111 -0.0558 -0.1465
 2499TIP3    H1 7503   0.162   5.350   0.743  1.5635  1.3294 -1.2188
 2499TIP3    H2 7504   0.298   5.353   0.808  0.8652  2.1195  0.2790
 2500TIP3   OH2 7505   3.765   4.897   4.791 -0.5669 -0.1498 -0.4282
 2500TIP3    H1 7506   3.857   4.915   4.810 -0.6363 -0.0614 -0.1616
 2500TIP3    H2 7507   3.738   4.969   4.734 -0.3920 -0.3413 -0.7595
 2501TIP3   OH2 7508   2.315   1.845   0.785 -0.1930  0.0484 -0.3572
 2501TIP3    H1 7509   2.318   1.754   0.815 -0.1640  0.0174 -0.4537
 2501TIP3    H2 7510   2.235   1.881   0.824  0.2734  0.2454  0.4422
 2502TIP3   OH2 7511   2.720   2.757   5.021 -0.3754 -0.1208  1.6004
 2502TIP3    H1 7512   2.656   2.697   4.982  2.5142 -0.8713 -2.7282
 2502TIP3    H2 7513   2.694   2.844   4.990  1.1961 -0.5725 -1.2797
 2503TIP3   OH2 7514   5.115   4.171   0.498  0.2921 -0.6056 -0.4592
 2503TIP3    H1 7515   5.208   4.149   0.507  0.2363 -0.1439  2.7939
 2503TIP3    H2 7516   5.069   4.088   0.510  0.2767 -0.5620 -0.2026
 2504TIP3   OH2 7517   1.725   1.499   5.119  0.3237  0.1643 -0.1763
 2504TIP3    H1 7518   1.646   1.542   5.151  0.2966 -1.0470  1.5031
 2504TIP3    H2 7519   1.775   1.569   5.078 -0.5380  1.4251  0.8393
 2505TIP3   OH2 7520   3.511   4.794   4.626  0.1627  0.2935 -0.2678
 2505TIP3    H1 7521   3.456   4.872   4.635  0.5143  0.4027  1.3292
 2505TIP3    H2 7522   3.479   4.735   4.693  1.2586 -0.0890 -0.0674
 2506TIP3   OH2 7523   4.540   2.906   3.275 -0.3202 -0.2085 -0.0847
 2506TIP3    H1 7524   4.576   2.977   3.223  0.1166  0.2868  0.8829
 2506TIP3    H2 7525   4.461   2.943   3.316  1.0170  0.4235  2.0730
 2507TIP3   OH2 7526   1.356   5.445   4.196  0.1534  0.1080  0.4084
 2507TIP3    H1 7527   1.403   5.362   4.202  1.2880  0.7902  1.3110
 2507TIP3    H2 7528   1.334   5.468   4.286 -0.2186  0.7611  0.1614
 2508TIP3   OH2 7529   3.946   0.305   0.146 -0.1410 -0.3875 -0.2337
 2508TIP3    H1 7530   4.039   0.282   0.150 -0.2209 -0.5831  0.7150
 2508TIP3    H2 7531   3.900   0.222   0.155 -0.4209 -0.3051 -0.8107
 2509TIP3   OH2 7532   2.354   1.958   2.193 -0.4455  0.2182  0.2779
 2509TIP3    H1 7533   2.330   1.866   2.181  1.4799 -0.3133  0.1459
 2509TIP3    H2 7534   2.365   1.992   2.104 -2.2797  0.9395  0.2888
 2510TIP3   OH2 7535  -0.005   5.664   3.563  0.1926 -0.1753 -0.3813
 2510TIP3    H1 7536   0.016   5.748   3.521  0.5983 -0.3548 -0.5392
 2510TIP3    H2 7537   0.077   5.616   3.563  0.3954  0.1263  1.3570
 2511TIP3   OH2 7538   5.322   1.468   1.266  0.2071 -0.3093  0.1897
 2511TIP3    H1 7539   5.252   1.487   1.203  0.2236  1.6665  0.7017
 2511TIP3    H2 7540   5.366   1.392   1.229 -0.1881  0.3800 -1.8689
 2512TIP3   OH2 7541   4.461   2.637   1.546 -0.3267  0.3172 -0.0338
 2512TIP3    H1 7542   4.422   2.687   1.618  1.8875 -0.6364  1.9461
 2512TIP3    H2 7543   4.386   2.601   1.499 -1.8826  2.1841  0.8693
 2513TIP3   OH2 7544   3.070   2.784   3.702  0.3854  0.4047  0.0139
 2513TIP3    H1 7545   2.988   2.736   3.717 -0.3287  1.6437  0.1500
 2513TIP3    H2 7546   3.106   2.796   3.790 -0.9654  2.7098  0.3375
 2514TIP3   OH2 7547   4.136   3.633   4.932 -0.2933  0.4029  0.0287
 2514TIP3    H1 7548   4.218   3.636   4.983 -0.4451 -0.7186  0.3566
 2514TIP3    H2 7549   4.071   3.673   4.990  0.2733  2.6762 -0.7956
 2515TIP3   OH2 7550   0.611   5.234   4.584  0.4986 -0.1850 -0.8577
 2515TIP3    H1 7551   0.676   5.210   4.649  0.9763 -0.2795 -1.3589
 2515TIP3    H2 7552   0.577   5.318   4.614  1.2443  0.1289 -0.8701
 2516TIP3   OH2 7553   5.640   1.013   2.503 -0.2370  0.0255 -0.5133
 2516TIP3    H1 7554   5.623   1.080   2.570 -1.1601  0.0128 -0.7348
 2516TIP3    H2 7555   5.661   0.935   2.554  1.3661  0.5771 -0.2452
 2517TIP3   OH2 7556   4.140   1.807   4.939  0.3741 -0.7373 -0.0150
 2517TIP3    H1 7557   4.156   1.878   5.001 -0.0004 -0.2898 -0.4271
 2517TIP3    H2 7558   4.108   1.735   4.993  1.4543 -0.8518  0.5076
 2518TIP3   OH2 7559   0.562   0.413   0.770 -0.5016  0.2389  0.0809
 2518TIP3    H1 7560   0.496   0.375   0.714 -1.8177 -0.7086  2.1601
 2518TIP3    H2 7561   0.520   0.421   0.856  1.8449  0.2276  1.3313
 2519TIP3   OH2 7562   6.178   2.221   2.771 -0.1380  0.3424  0.3058
 2519TIP3    H1 7563   6.111   2.266   2.821 -0.6729 -0.7615  0.6202
 2519TIP3    H2 7564   6.223   2.166   2.834  2.7557  2.8408  0.6156
 2520TIP3   OH2 7565   4.220   3.377   2.016 -0.0929  0.2891 -0.2346
 2520TIP3    H1 7566   4.160   3.331   2.075  1.5505 -0.3027  1.0325
 2520TIP3    H2 7567   4.200   3.469   2.029  0.3538  0.1827  1.4287
 2521TIP3   OH2 7568   2.089   0.054   0.462  0.5704 -0.3850 -0.0277
 2521TIP3    H1 7569   2.155   0.065   0.394  2.3843  0.2323  1.7044
 2521TIP3    H2 7570   2.052   0.141   0.476  1.8039 -0.0152  1.2163
 2522TIP3   OH2 7571   1.681   2.674   1.807  0.7226 -0.2901 -0.5505
 2522TIP3    H1 7572   1.665   2.631   1.891 -0.0173 -0.1061 -0.5871
 2522TIP3    H2 7573   1.664   2.606   1.742 -0.8195  0.1094 -0.6254
 2523TIP3   OH2 7574   5.734   5.018   2.088 -0.5642 -0.6113  0.0238
 2523TIP3    H1 7575   5.745   5.024   1.993 -0.0509  0.3994  0.1362
 2523TIP3    H2 7576   5.823   5.025   2.123 -0.7045 -1.4213  0.5659
 2524TIP3   OH2 7577   6.249   5.015   0.998  0.0660  0.8291 -0.3681
 2524TIP3    H1 7578   6.338   5.031   0.966  0.4253 -1.2855 -0.5788
 2524TIP3    H2 7579   6.215   4.947   0.940 -1.9056  1.9336 -0.5985
 2525TIP3   OH2 7580   1.568   0.367   3.293  0.2656 -0.2386 -0.3775
 2525TIP3    H1 7581   1.641   0.318   3.254  0.8553 -1.7710  2.3893
 2525TIP3    H2 7582   1.494   0.349   3.235  1.0998 -2.2687 -0.9140
 2526TIP3   OH2 7583   6.176   1.372   5.159  0.6221 -0.0085  0.1378
 2526TIP3    H1 7584   6.106   1.357   5.096  0.6786  0.3900 -0.0174
 2526TIP3    H2 7585   6.194   1.285   5.194  0.0944 -0.1272  0.1347
 2527TIP3   OH2 7586   3.100   1.506   1.757  0.1626 -0.6047  0.4567
 2527TIP3    H1 7587   3.150   1.431   1.726 -0.8248 -0.4747 -1.6238
 2527TIP3    H2 7588   3.034   1.468   1.815 -1.3161 -1.6500 -1.7558
 2528TIP3   OH2 7589   3.998   2.546   2.169  0.0781 -0.9083  0.2089
 2528TIP3    H1 7590   4.037   2.459   2.184 -0.6219 -1.3139 -0.2621
 2528TIP3    H2 7591   3.977   2.546   2.076 -2.0811 -1.1378  0.6549
 2529TIP3   OH2 7592   3.475   1.891   3.843  0.0767  0.5498 -0.6675
 2529TIP3    H1 7593   3.542   1.939   3.794  0.1850 -0.0978 -1.1695
 2529TIP3    H2 7594   3.466   1.808   3.796 -1.5886  0.9106 -1.0397
 2530TIP3   OH2 7595   2.038   3.705   4.804 -0.3875  0.2973 -0.1431
 2530TIP3    H1 7596   2.016   3.773   4.740 -1.0318 -1.5889 -2.0733
 2530TIP3    H2 7597   1.954   3.664   4.824 -0.0088  0.0570  1.0028
 2531TIP3   OH2 7598   4.809   0.907   2.499 -0.1011 -0.3821 -0.3893
 2531TIP3    H1 7599   4.793   0.836   2.437  0.1164 -0.4280 -0.3914
 2531TIP3    H2 7600   4.904   0.911   2.508 -0.1294 -0.3414 -0.0986
 2532TIP3   OH2 7601   4.154   0.119   2.281  0.7908  0.3373  0.6893
 2532TIP3    H1 7602   4.152   0.041   2.337  0.6076  0.4802  0.8841
 2532TIP3    H2 7603   4.099   0.182   2.326  0.0648  0.2191 -0.0031
 2533TIP3   OH2 7604   2.987   3.838   0.328 -0.2532 -0.5874 -0.0280
 2533TIP3    H1 7605   2.941   3.793   0.258 -1.0620 -2.7455  1.7534
 2533TIP3    H2 7606   3.067   3.786   0.342  1.2338  1.3225 -1.0206
 2534TIP3   OH2 7607   3.382   4.261   3.625 -0.0517 -0.2861 -0.2806
 2534TIP3    H1 7608   3.307   4.239   3.570 -0.2736  0.9145 -0.4795
 2534TIP3    H2 7609   3.436   4.182   3.624  0.3244 -0.0827 -2.8286
 2535TIP3   OH2 7610   4.981   2.399   2.161 -0.1663 -0.1880 -0.4914
 2535TIP3    H1 7611   4.899   2.362   2.127 -0.4445  0.2648 -0.3297
 2535TIP3    H2 7612   4.971   2.493   2.148 -1.0136  0.1977  2.3834
 2536TIP3   OH2 7613   5.770   4.005   1.744 -0.1547  0.0674  0.0591
 2536TIP3    H1 7614   5.864   4.018   1.733  0.5415 -2.2353  2.3831
 2536TIP3    H2 7615   5.752   3.921   1.702 -0.9428 -0.0559  0.6236
 2537TIP3   OH2 7616   1.574   0.553   2.038  0.6863  0.3843 -0.4089
 2537TIP3    H1 7617   1.595   0.579   1.949 -2.4335  1.9237 -0.8289
 2537TIP3    H2 7618   1.600   0.461   2.044  1.3270  0.3736 -2.7657
 2538TIP3   OH2 7619   4.752   3.850   1.996 -0.5395  0.4858 -0.1031
 2538TIP3    H1 7620   4.660   3.870   2.012 -0.1483  0.9500  1.7528
 2538TIP3    H2 7621   4.750   3.768   1.945 -1.9514  0.2305  0.3135
 2539TIP3   OH2 7622   4.347   1.467   4.928 -0.6777  0.2974 -0.2453
 2539TIP3    H1 7623   4.386   1.523   4.995 -0.6582 -0.1153  0.0932
 2539TIP3    H2 7624   4.355   1.378   4.963 -0.4231  0.0492 -0.9150
 2540TIP3   OH2 7625   2.472   0.284   4.277  0.0084 -0.2100  0.2743
 2540TIP3    H1 7626   2.443   0.359   4.225 -0.0282 -0.2365  0.2565
 2540TIP3    H2 7627   2.442   0.208   4.228 -0.2666 -0.2319  0.4778
 2541TIP3   OH2 7628   2.177   1.086   2.722 -0.2096  0.4998  0.1125
 2541TIP3    H1 7629   2.191   1.158   2.784  0.1021 -0.7248  1.5185
 2541TIP3    H2 7630   2.088   1.056   2.740  0.5416 -1.1174  1.3994
 2542TIP3   OH2 7631   5.404   3.394   2.910 -0.0403 -0.3878  0.2794
 2542TIP3    H1 7632   5.445   3.435   2.986 -0.1988  0.8536 -0.2836
 2542TIP3    H2 7633   5.348   3.462   2.873  0.3949 -0.8069 -1.2234
 2543TIP3   OH2 7634   5.514   4.921   4.148  0.1421  0.1089 -0.3390
 2543TIP3    H1 7635   5.446   4.981   4.118  1.6035  0.9325 -2.2206
 2543TIP3    H2 7636   5.499   4.840   4.099  1.1851  0.7061 -1.7243
 2544TIP3   OH2 7637   0.822   5.907   3.589  0.4299 -0.3021 -0.1942
 2544TIP3    H1 7638   0.869   5.920   3.671 -3.7195  0.8967  2.3495
 2544TIP3    H2 7639   0.803   5.813   3.587  0.8695 -0.3973  0.0521
 2545TIP3   OH2 7640   1.084   3.988   2.317 -0.3306 -0.1566 -0.4540
 2545TIP3    H1 7641   1.057   3.908   2.363  1.4645 -1.2339 -1.1571
 2545TIP3    H2 7642   1.110   3.957   2.230  1.1282  1.0740 -0.4832
 2546TIP3   OH2 7643   4.609   2.050   4.596  0.2468  0.2780 -0.1372
 2546TIP3    H1 7644   4.619   2.120   4.532 -1.6210  1.8726  1.2213
 2546TIP3    H2 7645   4.564   1.980   4.548  0.9203  0.5011 -1.1390
 2547TIP3   OH2 7646   2.671   2.606   1.992 -0.1039 -0.9546 -0.1918
 2547TIP3    H1 7647   2.675   2.529   2.049  1.9250 -1.2582 -0.6559
 2547TIP3    H2 7648   2.720   2.579   1.914 -2.0597 -0.2551 -1.7344
 2548TIP3   OH2 7649   5.173   2.252   0.440  0.2558  0.6039 -0.1499
 2548TIP3    H1 7650   5.185   2.162   0.410  0.4034 -0.5797  3.0935
 2548TIP3    H2 7651   5.187   2.306   0.362  2.0586 -2.0519 -1.7966
 2549TIP3   OH2 7652  -0.028   0.054   0.051  0.3382  0.3826  0.4910
 2549TIP3    H1 7653   0.032  -0.014   0.081  0.4914  0.0600 -0.5032
 2549TIP3    H2 7654   0.021   0.136   0.059  1.0594  0.0851 -0.6284
 2550TIP3   OH2 7655   2.226   1.492   1.846  0.0746  0.5030  0.6674
 2550TIP3    H1 7656   2.284   1.499   1.771 -1.2235  0.1478 -0.4199
 2550TIP3    H2 7657   2.253   1.411   1.890  1.1683  0.9792  0.8807
 2551TIP3   OH2 7658   4.331   3.748   5.109  0.3906 -0.0738 -0.1607
 2551TIP3    H1 7659   4.280   3.752   5.190  1.2823  1.1228  0.3735
 2551TIP3    H2 7660   4.342   3.839   5.083  1.4273 -0.3598 -0.7842
 2552TIP3   OH2 7661   1.742   1.040   1.695  0.2288  0.4566 -0.2983
 2552TIP3    H1 7662   1.765   1.081   1.612  0.9874 -1.4126 -1.0810
 2552TIP3    H2 7663   1.797   0.961   1.699 -0.7842 -0.2377  1.3293
 2553TIP3   OH2 7664   3.610   1.174   4.003 -0.1049 -0.1235 -0.1008
 2553TIP3    H1 7665   3.516   1.158   4.013 -0.0443 -0.4104  0.0434
 2553TIP3    H2 7666   3.651   1.104   4.054  0.1876 -0.0866 -0.2840
 2554TIP3   OH2 7667   2.627   1.874   1.205 -0.5459 -0.0857 -0.4017
 2554TIP3    H1 7668   2.596   1.891   1.294  0.7773  0.2918  0.0066
 2554TIP3    H2 7669   2.634   1.960   1.165 -2.1014 -0.3139 -1.2351
 2555TIP3   OH2 7670   1.046   0.201   3.688 -0.1935 -0.2921  0.3778
 2555TIP3    H1 7671   1.086   0.202   3.601  0.4355  0.6966  0.6563
 2555TIP3    H2 7672   0.952   0.196   3.672 -0.0090 -2.5862 -0.3053
 2556TIP3   OH2 7673   5.869   0.040   1.339 -0.2992  0.1783  0.3377
 2556TIP3    H1 7674   5.913   0.000   1.263 -1.3764 -0.9929  0.3051
 2556TIP3    H2 7675   5.885   0.134   1.329  1.8117 -0.1624  0.0963
 2557TIP3   OH2 7676   3.927   3.734   2.164  0.0735  0.4561  0.3615
 2557TIP3    H1 7677   3.988   3.667   2.132  0.5054  1.1578 -0.3173
 2557TIP3    H2 7678   3.984   3.801   2.202 -0.3864  0.1393  1.6689
 2558TIP3   OH2 7679   2.011   1.847   4.349  0.9035 -0.1189  0.2781
 2558TIP3    H1 7680   2.016   1.865   4.255 -1.8964 -0.7106 -0.0648
 2558TIP3    H2 7681   2.058   1.764   4.360  1.3199 -0.0061 -0.5782
 2559TIP3   OH2 7682   0.754   0.018   0.122 -0.2771  0.2217  0.0568
 2559TIP3    H1 7683   0.730   0.109   0.104  0.0650 -0.2258 -3.2681
 2559TIP3    H2 7684   0.794  -0.013   0.041  0.7070 -2.5820  1.4778
 2560TIP3   OH2 7685   1.420   5.009   3.902  0.2308 -0.7529  0.4464
 2560TIP3    H1 7686   1.336   4.966   3.887  0.0916 -0.4893  0.4619
 2560TIP3    H2 7687   1.485   4.941   3.884  0.1979  0.0356 -3.6014
 2561TIP3   OH2 7688   1.700   5.124   1.045 -0.1301  0.3513 -0.1916
 2561TIP3    H1 7689   1.744   5.090   0.967 -1.2529  0.8259 -1.0774
 2561TIP3    H2 7690   1.711   5.056   1.111  2.4287  0.7246 -0.1470
 2562TIP3   OH2 7691   3.733   2.375   5.094 -0.1552  0.1708  0.3919
 2562TIP3    H1 7692   3.648   2.387   5.136 -0.0814 -0.4122  0.7212
 2562TIP3    H2 7693   3.721   2.407   5.004 -0.0126  2.4788  1.1294
 2563TIP3   OH2 7694   2.685   4.825   4.820  0.6769  0.0219  0.2690
 2563TIP3    H1 7695   2.760   4.767   4.831  2.3249  1.9765 -0.1408
 2563TIP3    H2 7696   2.680   4.873   4.903 -1.3211 -1.3244  1.0135
 2564TIP3   OH2 7697   4.729   0.711   4.071 -0.6236 -0.2254 -0.1667
 2564TIP3    H1 7698   4.782   0.666   4.137  1.3056  1.1929 -0.6907
 2564TIP3    H2 7699   4.638   0.695   4.099  0.1003 -0.2984  2.4072
 2565TIP3   OH2 7700   1.978   4.321   1.729 -0.1409  0.0537 -0.5655
 2565TIP3    H1 7701   1.984   4.277   1.813  0.6673 -0.8834 -1.0825
 2565TIP3    H2 7702   1.887   4.350   1.722 -0.2680 -0.0613  0.5149
 2566TIP3   OH2 7703   2.961   1.509   1.308  0.1218 -0.0604  0.5293
 2566TIP3    H1 7704   2.901   1.474   1.242  0.9283 -1.8619  0.6910
 2566TIP3    H2 7705   3.048   1.498   1.270  0.8431 -3.4464  2.7049
 2567TIP3   OH2 7706   6.360   0.624   3.749 -0.0099 -0.3894  0.2265
 2567TIP3    H1 7707   6.369   0.532   3.774 -1.0155 -0.0820  1.8756
 2567TIP3    H2 7708   6.307   0.663   3.819 -1.0538  1.0753 -1.3003
 2568TIP3   OH2 7709   0.732   1.319   2.045  0.1709 -0.7915 -0.1497
 2568TIP3    H1 7710   0.652   1.269   2.060 -0.3973 -0.5848 -2.2338
 2568TIP3    H2 7711   0.702   1.410   2.036  0.5287 -0.7775 -1.4501
 2569TIP3   OH2 7712   4.800   5.216   4.940 -0.4338 -0.4617 -0.2166
 2569TIP3    H1 7713   4.721   5.257   4.905 -0.0620  1.4025  0.9900
 2569TIP3    H2 7714   4.828   5.274   5.011  2.4208 -0.6424 -1.0551
 2570TIP3   OH2 7715   1.953   2.406   4.880 -0.1389  0.0528  0.0033
 2570TIP3    H1 7716   1.908   2.460   4.815  0.4788 -0.0070 -0.4913
 2570TIP3    H2 7717   1.971   2.324   4.835 -1.0175 -0.5559  0.7335
 2571TIP3   OH2 7718   5.329   4.319   3.388 -0.4503 -0.5180  0.3434
 2571TIP3    H1 7719   5.388   4.318   3.464 -0.1332  0.1481  0.1174
 2571TIP3    H2 7720   5.348   4.237   3.343  1.4291  0.3440 -0.5419
 2572TIP3   OH2 7721   6.015   2.995   0.157 -0.2586 -0.0373 -0.0967
 2572TIP3    H1 7722   6.005   3.048   0.078  1.3951  1.5525  0.6948
 2572TIP3    H2 7723   6.093   3.030   0.200  0.4343 -2.5920  0.9078
 2573TIP3   OH2 7724   5.034   3.940   2.141  0.0373  0.1064 -0.2492
 2573TIP3    H1 7725   5.019   4.009   2.205 -1.2326 -1.6034  1.4121
 2573TIP3    H2 7726   4.947   3.916   2.110  0.4669 -0.6677 -0.8994
 2574TIP3   OH2 7727   3.323   1.492   1.468 -0.2105 -0.6937  0.8932
 2574TIP3    H1 7728   3.402   1.540   1.442 -0.1789 -0.9243  0.5575
 2574TIP3    H2 7729   3.300   1.528   1.554 -0.9813  0.9039  0.0641
 2575TIP3   OH2 7730   2.763   4.275   4.969 -0.4242  0.1463  0.0830
 2575TIP3    H1 7731   2.693   4.340   4.963  1.1907  2.2688  2.4771
 2575TIP3    H2 7732   2.838   4.316   4.924 -0.2023 -1.4514 -1.1183
 2576TIP3   OH2 7733   3.766   2.302   1.190  0.6198 -0.0617  0.1259
 2576TIP3    H1 7734   3.756   2.266   1.102  2.9459 -0.1031 -0.1976
 2576TIP3    H2 7735   3.717   2.384   1.188 -1.8279 -1.4513 -0.2275
 2577TIP3   OH2 7736   5.883   5.649   1.851 -0.2924 -0.1984  0.0470
 2577TIP3    H1 7737   5.805   5.644   1.906 -0.0947  3.4536  0.9387
 2577TIP3    H2 7738   5.956   5.644   1.913  0.1953 -2.1377 -0.6247
 2578TIP3   OH2 7739   0.639   5.205   1.271  0.1618  0.8762  0.2441
 2578TIP3    H1 7740   0.657   5.130   1.327  0.1210  1.9825  1.8174
 2578TIP3    H2 7741   0.715   5.210   1.213 -0.0930 -0.6728 -0.2661
 2579TIP3   OH2 7742   4.924   0.140   3.972 -0.0537  0.0945  0.0797
 2579TIP3    H1 7743   4.979   0.127   4.049 -1.1423 -1.7358  0.6125
 2579TIP3    H2 7744   4.927   0.055   3.926 -0.6591  0.6732 -1.0606
 2580TIP3   OH2 7745   4.331   4.481   0.999 -0.0903  0.4740  0.1076
 2580TIP3    H1 7746   4.252   4.434   1.026  1.2344 -1.4843  0.7713
 2580TIP3    H2 7747   4.338   4.554   1.061 -0.2637 -0.5657  1.3937
 2581TIP3   OH2 7748   0.092   2.997   3.377  0.1269  0.0575  0.2317
 2581TIP3    H1 7749   0.085   3.071   3.437 -1.3812  0.2251 -0.1316
 2581TIP3    H2 7750   0.116   2.923   3.433 -1.8213  0.0884  1.1609
 2582TIP3   OH2 7751   5.039   2.810   5.145  0.1341  0.2857  0.0633
 2582TIP3    H1 7752   5.125   2.797   5.185  0.2628 -0.5667 -0.4527
 2582TIP3    H2 7753   5.054   2.800   5.051 -0.4129  0.8246 -0.0944
 2583TIP3   OH2 7754   0.784   1.676   0.621  0.0538  0.3177 -0.0831
 2583TIP3    H1 7755   0.862   1.729   0.638 -0.2154  0.6278  0.1830
 2583TIP3    H2 7756   0.789   1.605   0.685  0.3071  0.1251 -0.3082
 2584TIP3   OH2 7757   4.181   2.905   3.376  0.1508  0.2374  0.1396
 2584TIP3    H1 7758   4.086   2.910   3.382  0.1699  0.7204  0.0364
 2584TIP3    H2 7759   4.200   2.811   3.370 -0.2721  0.1066  0.8448
 2585TIP3   OH2 7760   2.624   2.682   0.028 -0.5043  0.3025 -0.0247
 2585TIP3    H1 7761   2.560   2.676   0.099 -2.5963 -1.2127 -1.8892
 2585TIP3    H2 7762   2.579   2.733  -0.040 -0.0743 -1.4258 -1.6843
 2586TIP3   OH2 7763   1.300   3.878   2.553 -0.2799  0.5031 -0.2211
 2586TIP3    H1 7764   1.357   3.925   2.492  1.4408 -0.5790  0.4555
 2586TIP3    H2 7765   1.215   3.876   2.510  0.6710  0.4720 -2.2167
 2587TIP3   OH2 7766   1.025   5.417   4.902 -0.1201  0.0317 -0.4680
 2587TIP3    H1 7767   1.007   5.390   4.992  0.4452  1.7865  0.2106
 2587TIP3    H2 7768   1.033   5.512   4.906 -4.1282  0.7078 -3.0561
 2588TIP3   OH2 7769   4.098   0.467   2.634  0.1149 -0.0131 -0.0307
 2588TIP3    H1 7770   4.035   0.505   2.696  0.5548 -0.1987  0.5461
 2588TIP3    H2 7771   4.174   0.444   2.689 -0.8468 -3.5475  0.0940
 2589TIP3   OH2 7772   3.109   0.793   3.396 -0.0278  0.9144  0.3354
 2589TIP3    H1 7773   3.197   0.771   3.426  0.2781  0.4455 -0.8542
 2589TIP3    H2 7774   3.107   0.766   3.305 -1.4599  0.7919  0.3771
 2590TIP3   OH2 7775   0.485   1.171   1.018 -0.1896 -0.4697  0.0378
 2590TIP3    H1 7776   0.540   1.110   0.968 -0.5038 -0.1537 -0.7071
 2590TIP3    H2 7777   0.456   1.235   0.953  0.4252  0.6844  0.8693
 2591TIP3   OH2 7778   0.089   5.323   0.579 -0.1246 -0.4841  0.3483
 2591TIP3    H1 7779   0.027   5.256   0.607 -1.0645 -0.1477 -0.8896
 2591TIP3    H2 7780   0.072   5.336   0.486  1.1387  0.3235  0.1989
 2592TIP3   OH2 7781   4.536   4.262   3.366  0.2917 -0.4242 -0.2106
 2592TIP3    H1 7782   4.499   4.267   3.278  0.4650  1.7538 -0.2087
 2592TIP3    H2 7783   4.464   4.287   3.424  1.1483  1.8709 -0.0586
 2593TIP3   OH2 7784   1.473   3.809   1.774  0.5023 -0.3288  0.1422
 2593TIP3    H1 7785   1.409   3.824   1.843  0.3603 -0.8569  0.1312
 2593TIP3    H2 7786   1.468   3.887   1.719 -0.9856 -0.8653 -0.5280
 2594TIP3   OH2 7787   2.526   0.342   0.994 -0.1869 -0.8191  0.2210
 2594TIP3    H1 7788   2.460   0.402   0.961 -0.6558 -0.9216  0.9561
 2594TIP3    H2 7789   2.538   0.278   0.923 -0.9396 -0.8500  0.1162
 2595TIP3   OH2 7790   2.512   2.474   3.417 -0.7927 -0.0367  0.5711
 2595TIP3    H1 7791   2.531   2.401   3.477  0.1822  0.4669  0.8764
 2595TIP3    H2 7792   2.559   2.452   3.337 -0.7705  0.0994  0.5475
 2596TIP3   OH2 7793   4.768   4.581   2.991 -0.3100  0.2098 -0.6318
 2596TIP3    H1 7794   4.676   4.573   3.018  0.3522 -0.3171  1.6427
 2596TIP3    H2 7795   4.810   4.502   3.023  1.2263  1.0860 -0.3811
 2597TIP3   OH2 7796   1.910   4.294   4.406  0.4219 -0.2197 -0.0511
 2597TIP3    H1 7797   1.833   4.257   4.450  1.7419 -2.2110  0.7300
 2597TIP3    H2 7798   1.927   4.376   4.453 -0.1950 -0.6254  0.9229
 2598TIP3   OH2 7799   2.161   4.365   0.698 -0.1944 -0.1461  0.1716
 2598TIP3    H1 7800   2.255   4.380   0.711 -0.3786  2.2111 -0.7348
 2598TIP3    H2 7801   2.156   4.298   0.631  0.8256 -0.6974  0.6219
 2599TIP3   OH2 7802   4.406   2.178   3.571  0.3567  0.0389 -0.2923
 2599TIP3    H1 7803   4.350   2.197   3.646 -0.1819  1.3730 -0.9985
 2599TIP3    H2 7804   4.423   2.263   3.532  1.8083 -0.4861 -0.8640
 2600TIP3   OH2 7805   3.132   5.936   1.929 -0.4115 -0.0180 -0.2334
 2600TIP3    H1 7806   3.154   6.027   1.909 -2.9061  0.6026 -0.4684
 2600TIP3    H2 7807   3.199   5.909   1.992  2.4418  0.7936 -2.6740
 2601TIP3   OH2 7808   4.944   1.947   3.246 -0.8297  0.4741 -0.5191
 2601TIP3    H1 7809   4.851   1.962   3.228 -0.9774  1.6871  0.9363
 2601TIP3    H2 7810   4.987   2.028   3.217  0.1319 -0.8717 -3.1164
 2602TIP3   OH2 7811   1.118   2.159   3.021  0.3152 -0.4490 -0.1308
 2602TIP3    H1 7812   1.174   2.191   2.950  0.0466  1.5378  0.5051
 2602TIP3    H2 7813   1.155   2.198   3.100  0.8919 -2.9790  0.9689
 2603TIP3   OH2 7814   2.634   3.349   0.942  0.0096 -0.2183 -0.0874
 2603TIP3    H1 7815   2.674   3.352   0.855 -0.4049  0.7729 -0.2565
 2603TIP3    H2 7816   2.540   3.341   0.925 -0.2218  1.4670  0.2105
 2604TIP3   OH2 7817   2.847   1.783   3.007 -0.5739  0.0231  0.2589
 2604TIP3    H1 7818   2.848   1.819   2.919 -1.3926  0.7721  0.5463
 2604TIP3    H2 7819   2.882   1.694   2.997 -3.7074 -1.1651 -1.3750
 2605TIP3   OH2 7820   1.746   1.345   1.979 -0.6023 -0.0425  0.1092
 2605TIP3    H1 7821   1.796   1.421   2.012 -0.2037 -0.2751  0.0521
 2605TIP3    H2 7822   1.662   1.382   1.951 -0.9297  0.1706  1.3241
 2606TIP3   OH2 7823   0.781   2.379   4.247  0.8402 -0.3882  0.2499
 2606TIP3    H1 7824   0.776   2.285   4.227  0.1942 -0.1733 -0.6733
 2606TIP3    H2 7825   0.701   2.398   4.296  0.7170 -0.2219 -0.0122
 2607TIP3   OH2 7826   6.166   5.084   4.519 -0.2271  0.1081 -0.0224
 2607TIP3    H1 7827   6.246   5.118   4.478 -0.6257 -0.9601 -1.7984
 2607TIP3    H2 7828   6.112   5.161   4.534 -0.2457  0.5354 -1.9950
 2608TIP3   OH2 7829   0.776   4.818   0.301  0.5618  0.1522 -0.3125
 2608TIP3    H1 7830   0.729   4.749   0.346  0.4334 -0.3099 -1.1408
 2608TIP3    H2 7831   0.847   4.773   0.255  0.9576  0.6672 -0.2186
 2609TIP3   OH2 7832   5.005   0.830   1.463 -0.5837 -0.2867 -0.3845
 2609TIP3    H1 7833   4.945   0.805   1.534  0.4279 -1.0033  0.2539
 2609TIP3    H2 7834   5.038   0.916   1.488  0.6218 -1.0083  0.6332
 2610TIP3   OH2 7835   4.971   2.624   2.615  0.6928 -0.3994 -0.0281
 2610TIP3    H1 7836   5.053   2.663   2.585  0.9362  0.7875  1.9904
 2610TIP3    H2 7837   4.903   2.683   2.583  0.8482  0.1454  0.6330
 2611TIP3   OH2 7838   3.992   2.878   2.939  0.7382  0.1130  0.3736
 2611TIP3    H1 7839   4.085   2.900   2.927  0.5221 -0.4215 -3.9267
 2611TIP3    H2 7840   3.949   2.962   2.952  1.5662  0.6801 -0.3953
 2612TIP3   OH2 7841   2.355   3.069   1.277 -0.3094  0.0619  0.0599
 2612TIP3    H1 7842   2.362   3.007   1.350 -3.4181 -2.2059 -1.3455
 2612TIP3    H2 7843   2.270   3.111   1.288  0.1377  1.3705 -1.0770
 2613TIP3   OH2 7844   2.674   1.236   1.446  1.2084  0.4230  0.3465
 2613TIP3    H1 7845   2.603   1.218   1.384 -0.0099  1.6246  1.3316
 2613TIP3    H2 7846   2.729   1.158   1.442 -0.6154 -0.9214  0.1659
 2614TIP3   OH2 7847   0.876   2.361   2.029  0.1073  0.1115 -0.2533
 2614TIP3    H1 7848   0.901   2.283   2.079 -1.1205  0.3576  0.8152
 2614TIP3    H2 7849   0.944   2.425   2.049 -0.1844  0.1008  0.8918
 2615TIP3   OH2 7850   2.855   0.794   1.697  0.1568 -0.1929  0.4233
 2615TIP3    H1 7851   2.846   0.832   1.609  0.5656  0.8304  0.8030
 2615TIP3    H2 7852   2.810   0.710   1.692  0.2347 -0.1820 -0.7873
 2616TIP3   OH2 7853   2.449   2.070   4.518 -0.2693  0.0132 -0.0284
 2616TIP3    H1 7854   2.509   2.126   4.468 -1.1563  0.5616 -0.5210
 2616TIP3    H2 7855   2.450   1.987   4.471 -0.2845  0.1842 -0.3388
 2617TIP3   OH2 7856   1.666   0.381   4.465 -0.0953 -0.4381  0.7026
 2617TIP3    H1 7857   1.733   0.435   4.423 -2.0446  0.8094 -1.0238
 2617TIP3    H2 7858   1.653   0.307   4.405 -0.3631 -0.5865  0.9401
 2618TIP3   OH2 7859   3.659   1.198   2.527 -0.0715 -0.3258  0.0083
 2618TIP3    H1 7860   3.572   1.172   2.496 -0.3290 -1.9390  1.9002
 2618TIP3    H2 7861   3.648   1.288   2.558 -1.0501 -0.4943  0.1676
 2619TIP3   OH2 7862   5.983   2.477   0.666  0.7527  0.1008 -0.1172
 2619TIP3    H1 7863   5.898   2.492   0.707  1.5482  0.6977  1.4123
 2619TIP3    H2 7864   6.026   2.562   0.670  1.9692 -0.5204  0.4989
 2620TIP3   OH2 7865   0.144   2.725   4.552 -0.1651  0.1660 -0.1501
 2620TIP3    H1 7866   0.219   2.773   4.588 -0.7005  0.1123  1.1099
 2620TIP3    H2 7867   0.164   2.633   4.568 -0.0428  0.0827 -0.7537
 2621TIP3   OH2 7868   3.571   3.521   1.791 -0.0340 -0.0247 -0.0976
 2621TIP3    H1 7869   3.532   3.547   1.708 -0.7329 -1.7362 -0.3377
 2621TIP3    H2 7870   3.518   3.568   1.857 -0.8347 -0.2998 -0.5315
 2622TIP3   OH2 7871   3.126   1.196   2.993 -0.5476  0.0606 -0.1906
 2622TIP3    H1 7872   3.212   1.157   2.985 -1.0767 -0.9678 -1.1623
 2622TIP3    H2 7873   3.141   1.290   2.983  0.6672  0.0933  1.5420
 2623TIP3   OH2 7874   4.424   3.711   3.462  0.0953 -0.5595 -0.4648
 2623TIP3    H1 7875   4.381   3.649   3.403 -1.0672  0.3184 -0.5738
 2623TIP3    H2 7876   4.491   3.659   3.506 -1.7196 -2.2919  0.4432
 2624TIP3   OH2 7877   3.531   5.316   0.727 -0.5260  0.0158  0.2260
 2624TIP3    H1 7878   3.601   5.326   0.791 -0.2625  0.7012 -0.1597
 2624TIP3    H2 7879   3.452   5.301   0.779 -0.1477 -0.4392  0.6741
 2625TIP3   OH2 7880   4.742   5.405   5.161 -0.1273 -0.4174 -0.4642
 2625TIP3    H1 7881   4.668   5.364   5.207  0.3972 -0.4415  0.3726
 2625TIP3    H2 7882   4.736   5.497   5.184  0.2978 -0.4731 -0.1082
 2626TIP3   OH2 7883   4.440   2.639   4.074 -0.0402  0.4161  0.4708
 2626TIP3    H1 7884   4.517   2.591   4.042 -0.7652  1.4054 -3.3313
 2626TIP3    H2 7885   4.412   2.592   4.152  2.7462 -1.6440  0.3843
 2627TIP3   OH2 7886   2.725   5.357   1.720  0.5774  0.2747 -0.9571
 2627TIP3    H1 7887   2.648   5.358   1.777  0.1353  0.1495 -1.5328
 2627TIP3    H2 7888   2.706   5.423   1.654  0.7993 -0.0088 -1.3080
 2628TIP3   OH2 7889   3.017   5.827   4.360  0.2546  0.0741  0.1057
 2628TIP3    H1 7890   3.015   5.834   4.456  0.3804  0.9850  0.0481
 2628TIP3    H2 7891   3.105   5.856   4.336 -0.5481  2.2935 -0.4411
 2629TIP3   OH2 7892   2.360   4.449   4.728 -0.1713 -0.3714 -0.2781
 2629TIP3    H1 7893   2.390   4.370   4.684  0.7275 -0.2139  0.0310
 2629TIP3    H2 7894   2.432   4.474   4.785 -0.5803  0.4767 -0.1092
 2630TIP3   OH2 7895   1.274   1.362   4.387  1.0106  0.0228  0.0968
 2630TIP3    H1 7896   1.240   1.283   4.344  1.3013 -0.0838  0.0584
 2630TIP3    H2 7897   1.249   1.434   4.328 -2.7772  0.5195  1.9832
 2631TIP3   OH2 7898   2.418   3.398   2.643  0.1188 -0.0629  0.4155
 2631TIP3    H1 7899   2.470   3.473   2.613  0.6142 -0.9401 -1.0358
 2631TIP3    H2 7900   2.480   3.325   2.643 -1.1307 -1.1913 -1.5888
 2632TIP3   OH2 7901   1.920   2.658   0.384 -0.8600  0.5441  0.6762
 2632TIP3    H1 7902   1.840   2.649   0.333 -0.6338  1.1633  0.1908
 2632TIP3    H2 7903   1.990   2.635   0.323 -0.6991 -0.7250  1.3107
 2633TIP3   OH2 7904   2.485   1.285   1.683 -0.6785 -0.2273 -0.2818
 2633TIP3    H1 7905   2.502   1.273   1.590  2.5336 -2.0315  0.3815
 2633TIP3    H2 7906   2.424   1.215   1.706 -0.4614 -0.5943 -0.8144
 2634TIP3   OH2 7907   3.537   1.566   1.283  0.1555 -0.3744  0.4665
 2634TIP3    H1 7908   3.551   1.642   1.227 -1.7333 -1.5421 -1.7384
 2634TIP3    H2 7909   3.613   1.509   1.265  0.4401  0.0115  0.4383
 2635TIP3   OH2 7910   3.676   1.809   2.377 -0.3038 -0.5136  0.0027
 2635TIP3    H1 7911   3.752   1.829   2.323  0.3020 -0.7273  0.7462
 2635TIP3    H2 7912   3.713   1.796   2.465 -1.4156  1.1698  0.7566
 2636TIP3   OH2 7913   3.676   0.736   1.218  0.0173 -0.5544  0.9309
 2636TIP3    H1 7914   3.704   0.693   1.299 -0.3667 -1.7534  0.4480
 2636TIP3    H2 7915   3.735   0.810   1.209  0.6986 -0.9673  1.7996
 2637TIP3   OH2 7916   3.435   5.994   3.387 -0.1876 -0.0084  0.1171
 2637TIP3    H1 7917   3.383   5.920   3.355 -0.3261 -0.0536  0.4336
 2637TIP3    H2 7918   3.456   6.045   3.309 -0.4388 -0.1620 -0.0523
 2638TIP3   OH2 7919   5.387   2.524   1.247  0.1093  0.0166  0.2122
 2638TIP3    H1 7920   5.445   2.556   1.178 -0.5559  1.8606  0.4405
 2638TIP3    H2 7921   5.442   2.522   1.326 -0.0118  1.4387  0.3605
 2639TIP3   OH2 7922   2.422   1.664   3.139  0.0679  0.0361  0.4566
 2639TIP3    H1 7923   2.406   1.753   3.108  0.1593  0.3333  1.2442
 2639TIP3    H2 7924   2.339   1.637   3.178 -0.8631 -1.2720 -2.1906
 2640TIP3   OH2 7925   0.929   4.873   1.646 -0.4228  0.0981  0.0772
 2640TIP3    H1 7926   1.024   4.883   1.652 -0.2318 -1.2403 -0.3529
 2640TIP3    H2 7927   0.909   4.802   1.707 -0.6715 -1.9277 -2.1960
 2641TIP3   OH2 7928   5.177   2.551   1.578 -0.1108  0.5047  0.4115
 2641TIP3    H1 7929   5.192   2.561   1.484  1.2103 -3.1604  0.0745
 2641TIP3    H2 7930   5.084   2.530   1.585 -0.3546  1.3822  0.0521
 2642TIP3   OH2 7931   1.928   1.047   2.819  0.0331 -0.0602  0.1555
 2642TIP3    H1 7932   1.883   0.995   2.886 -1.1067  1.2765  0.4957
 2642TIP3    H2 7933   1.861   1.060   2.750 -0.7230  3.1440  1.2971
 2643TIP3   OH2 7934   4.220   1.007   2.040 -0.0578 -0.2052 -0.0036
 2643TIP3    H1 7935   4.172   0.937   1.996 -2.2938  2.2426 -1.8540
 2643TIP3    H2 7936   4.187   1.007   2.129 -1.0089 -0.7065 -0.3389
 2644TIP3   OH2 7937   1.031   4.167   4.082  0.4973 -0.1033  0.8176
 2644TIP3    H1 7938   0.961   4.228   4.059  0.6986 -0.4618 -0.9397
 2644TIP3    H2 7939   1.050   4.121   4.000  1.2254 -1.6289  1.7892
 2645TIP3   OH2 7940   0.480   4.936   0.830 -0.2687 -0.6277  0.5540
 2645TIP3    H1 7941   0.387   4.926   0.808  0.0179  1.3329 -1.9752
 2645TIP3    H2 7942   0.521   4.856   0.796 -0.9397 -1.4047  1.4961
 2646TIP3   OH2 7943   5.968   5.300   0.896 -0.9494  0.2981  0.0311
 2646TIP3    H1 7944   5.968   5.316   0.802 -1.3705 -0.0886 -0.0352
 2646TIP3    H2 7945   6.044   5.350   0.929 -0.5789  0.1284 -0.5552
 2647TIP3   OH2 7946   2.889   3.064   2.671  0.1165  0.3021 -0.3945
 2647TIP3    H1 7947   2.844   3.126   2.727  0.0842 -1.7624  2.0597
 2647TIP3    H2 7948   2.982   3.079   2.688  0.1343  0.2306 -0.4283
 2648TIP3   OH2 7949   1.766   3.341   5.015 -0.3430  0.2818 -0.1092
 2648TIP3    H1 7950   1.759   3.390   5.096  1.9157  0.4023  0.0626
 2648TIP3    H2 7951   1.753   3.249   5.040 -1.5471  0.4759  0.0436
 2649TIP3   OH2 7952   1.412   3.711   2.196  0.2327 -0.2873  0.2377
 2649TIP3    H1 7953   1.423   3.715   2.101 -0.3998  0.7865  0.1979
 2649TIP3    H2 7954   1.458   3.788   2.229  1.8149 -1.4771  0.9677
 2650TIP3   OH2 7955   4.653   0.001   1.484 -0.9735 -0.1951 -0.1773
 2650TIP3    H1 7956   4.660   0.094   1.504  1.9985 -0.2868 -0.3396
 2650TIP3    H2 7957   4.640  -0.041   1.569  0.6316  0.2015  0.2971
 2651TIP3   OH2 7958   0.932   0.417   4.325 -0.0486 -0.0111  0.4335
 2651TIP3    H1 7959   0.912   0.474   4.399 -2.0709 -0.9399  0.6707
 2651TIP3    H2 7960   0.869   0.443   4.257  0.3155 -0.6430 -0.1620
 2652TIP3   OH2 7961   5.548   0.516   2.781 -0.7332 -0.0254  0.1728
 2652TIP3    H1 7962   5.573   0.555   2.697 -2.6502  0.1955 -0.3339
 2652TIP3    H2 7963   5.630   0.512   2.831 -0.0693  2.7642 -0.5187
 2653TIP3   OH2 7964   3.250   0.832   0.368 -0.0027  0.1219  0.0085
 2653TIP3    H1 7965   3.171   0.884   0.381  0.7868  1.5032 -0.4642
 2653TIP3    H2 7966   3.302   0.883   0.306  1.4540 -0.5338  0.6481
 2654TIP3   OH2 7967   2.466   2.078   4.180  0.0053 -0.6253 -0.2970
 2654TIP3    H1 7968   2.477   2.060   4.087  1.2957 -0.2010 -0.2489
 2654TIP3    H2 7969   2.536   2.141   4.201  0.0843 -1.1180  1.0598
 2655TIP3   OH2 7970   4.393   1.755   3.941 -0.1239 -0.1816  0.0924
 2655TIP3    H1 7971   4.358   1.765   3.853  0.8160 -4.1856 -0.9527
 2655TIP3    H2 7972   4.339   1.687   3.981  0.8236  0.0027  1.8278
 2656TIP3   OH2 7973   5.111   5.260   3.104  0.4259  1.1399 -0.7594
 2656TIP3    H1 7974   5.172   5.333   3.093  0.2742  1.4369  0.3175
 2656TIP3    H2 7975   5.050   5.289   3.172  0.2701  0.0719 -0.4240
 2657TIP3   OH2 7976   4.272   0.289   3.198  0.0305  0.4972  0.7024
 2657TIP3    H1 7977   4.323   0.334   3.131 -0.2420 -1.0054 -0.5558
 2657TIP3    H2 7978   4.316   0.205   3.211 -0.0099  0.6909  2.3151
 2658TIP3   OH2 7979   0.595   4.359   0.156 -0.9327  0.1147  0.3054
 2658TIP3    H1 7980   0.565   4.435   0.205 -3.0605 -0.2645 -0.3257
 2658TIP3    H2 7981   0.519   4.331   0.105  0.5384 -0.8866 -1.4609
 2659TIP3   OH2 7982   2.311   0.123   0.291 -0.0528 -0.5388  0.0698
 2659TIP3    H1 7983   2.394   0.099   0.250  0.6460  0.4972  0.8063
 2659TIP3    H2 7984   2.321   0.216   0.311  0.0291 -1.1184  3.3289
 2660TIP3   OH2 7985   4.300   5.427   3.359 -0.4554  0.3278  0.5304
 2660TIP3    H1 7986   4.279   5.355   3.419 -0.8970  0.4424  0.5191
 2660TIP3    H2 7987   4.239   5.497   3.384  1.7325  1.7194  2.3722
 2661TIP3   OH2 7988   1.442   4.663   1.482  0.4047 -0.5032 -0.4909
 2661TIP3    H1 7989   1.445   4.718   1.404  1.4338 -1.1223 -0.9021
 2661TIP3    H2 7990   1.533   4.648   1.505  0.1375 -1.5306 -0.0371
 2662TIP3   OH2 7991   4.073   2.251   0.541 -0.2018 -0.2730  0.0979
 2662TIP3    H1 7992   4.128   2.329   0.537  1.0596 -1.1859 -2.3996
 2662TIP3    H2 7993   3.984   2.284   0.530  0.3053  0.8566 -0.9026
 2663TIP3   OH2 7994   4.117   3.621   1.147  0.5083  0.5171  0.0183
 2663TIP3    H1 7995   4.095   3.695   1.204 -0.4302  0.8316 -0.7223
 2663TIP3    H2 7996   4.038   3.607   1.095  0.7957 -0.7898 -0.1026
 2664TIP3   OH2 7997   0.949   2.726   5.013  0.2007  0.5546  0.1594
 2664TIP3    H1 7998   0.898   2.758   5.087  1.0910 -0.2094  1.1397
 2664TIP3    H2 7999   1.025   2.683   5.053  0.7212  0.1475 -1.2005
 2665TIP3   OH2 8000   0.788   3.837   2.304 -0.0340 -0.6209 -0.0455
 2665TIP3    H1 8001   0.775   3.799   2.391 -1.0919  2.2237  1.1700
 2665TIP3    H2 8002   0.772   3.931   2.317  1.2277  0.1056 -3.0342
 2666TIP3   OH2 8003   1.546   1.121   5.159 -0.3020 -0.2111  0.2546
 2666TIP3    H1 8004   1.527   1.208   5.194  1.3296 -0.1608  1.1480
 2666TIP3    H2 8005   1.608   1.136   5.088  1.6965 -0.7080  1.7937
 2667TIP3   OH2 8006   1.079   5.476   0.370  0.4221 -0.4315  0.4896
 2667TIP3    H1 8007   1.115   5.431   0.447  1.1348 -0.2329  0.2752
 2667TIP3    H2 8008   1.133   5.554   0.361 -2.0056  1.5710  2.0383
 2668TIP3   OH2 8009   5.929   1.312   5.027  0.3425  0.5181 -0.2357
 2668TIP3    H1 8010   5.887   1.243   4.976  0.3501 -1.6040  2.4145
 2668TIP3    H2 8011   5.860   1.345   5.084  1.0029  0.7260  0.4576
 2669TIP3   OH2 8012   1.290   2.430   4.807  0.2460  0.1832 -0.4684
 2669TIP3    H1 8013   1.327   2.446   4.721 -1.4341 -2.0347 -1.7172
 2669TIP3    H2 8014   1.198   2.457   4.800  0.2119  0.4985  0.8275
 2670TIP3   OH2 8015   6.299   1.636   3.897  0.4147  0.5838 -0.6991
 2670TIP3    H1 8016   6.335   1.614   3.811  0.0273 -2.0428 -0.2514
 2670TIP3    H2 8017   6.337   1.722   3.917  3.0691 -0.1523 -2.1018
 2671TIP3   OH2 8018   2.766   4.857   2.353  0.0988 -0.0769 -0.2146
 2671TIP3    H1 8019   2.748   4.794   2.284 -0.4370 -0.1717 -0.0009
 2671TIP3    H2 8020   2.698   4.924   2.342 -0.3728 -0.3975  0.5731
 2672TIP3   OH2 8021   1.037   1.428   0.606  0.3103  0.2749 -0.2602
 2672TIP3    H1 8022   0.988   1.351   0.577 -0.6687  1.0881 -0.8553
 2672TIP3    H2 8023   1.004   1.446   0.694 -0.2991  0.6676 -0.5605
 2673TIP3   OH2 8024   2.374   2.720   4.672 -0.4583 -0.0408 -0.0025
 2673TIP3    H1 8025   2.423   2.666   4.735 -0.3287  0.8344  0.6694
 2673TIP3    H2 8026   2.353   2.800   4.721 -0.6653  0.5060 -0.9705
 2674TIP3   OH2 8027   0.242   4.118   1.818 -0.1124  0.9624 -0.1132
 2674TIP3    H1 8028   0.203   4.136   1.733 -0.7271  1.3276  0.2354
 2674TIP3    H2 8029   0.201   4.182   1.877  0.6467  1.0257  0.3609
 2675TIP3   OH2 8030   4.859   0.432   2.398 -0.4831 -0.1839 -0.1927
 2675TIP3    H1 8031   4.940   0.396   2.361 -0.0449  0.5687  0.0136
 2675TIP3    H2 8032   4.845   0.514   2.351 -0.7837 -0.0001  0.2078
 2676TIP3   OH2 8033   0.283   1.542   3.181  0.0184  0.0507  0.0981
 2676TIP3    H1 8034   0.254   1.630   3.157 -0.5234  0.1946  1.2250
 2676TIP3    H2 8035   0.225   1.483   3.131 -0.6227  0.3404  0.4865
 2677TIP3   OH2 8036   1.254   0.075   2.222  0.6599 -0.0410  0.1804
 2677TIP3    H1 8037   1.211   0.146   2.270 -0.3270 -1.2108  1.0785
 2677TIP3    H2 8038   1.320   0.042   2.283  1.5655  0.4887 -0.4784
 2678TIP3   OH2 8039   4.067   5.588   2.742  0.0197  0.3536 -0.0340
 2678TIP3    H1 8040   4.088   5.681   2.737 -0.7055  0.6661  1.8821
 2678TIP3    H2 8041   4.151   5.543   2.732  0.4926  1.2357 -0.0862
 2679TIP3   OH2 8042   0.750   5.288   3.454  0.3533  0.1930  0.0213
 2679TIP3    H1 8043   0.720   5.198   3.450  1.0082  0.0016 -0.9044
 2679TIP3    H2 8044   0.695   5.329   3.520  0.0613 -0.8865  0.4624
 2680TIP3   OH2 8045   2.805   3.409   3.903 -0.0552  0.5356  0.0523
 2680TIP3    H1 8046   2.804   3.444   3.814 -2.1076  0.1468 -0.1229
 2680TIP3    H2 8047   2.896   3.380   3.917  0.0977 -0.2656 -2.2536
 2681TIP3   OH2 8048   6.369   4.909   4.692 -0.4363 -0.7347  0.3310
 2681TIP3    H1 8049   6.294   4.885   4.747 -1.7670  0.3475 -0.9230
 2681TIP3    H2 8050   6.378   5.003   4.705 -0.2830 -0.6002 -0.6961
 2682TIP3   OH2 8051   3.363   5.376   1.333 -0.0792 -1.1560 -0.7639
 2682TIP3    H1 8052   3.341   5.300   1.279  0.2605 -1.0481 -1.0560
 2682TIP3    H2 8053   3.412   5.433   1.275 -0.7139 -0.5058 -0.6780
 2683TIP3   OH2 8054   0.150   1.066   5.125 -0.1062 -0.0267  0.3330
 2683TIP3    H1 8055   0.154   0.974   5.152 -0.3507  0.3158  1.6246
 2683TIP3    H2 8056   0.191   1.114   5.197 -0.1424  0.8908 -0.2412
 2684TIP3   OH2 8057   1.517   2.863   1.679  0.1625 -0.1320  0.4117
 2684TIP3    H1 8058   1.450   2.806   1.718 -0.2047 -0.0576 -0.0994
 2684TIP3    H2 8059   1.600   2.824   1.705 -0.0881 -0.6635  0.4226
 2685TIP3   OH2 8060   4.181   0.417   2.119  0.1439  0.0964  0.4621
 2685TIP3    H1 8061   4.271   0.400   2.090 -0.1642 -0.0049 -0.4540
 2685TIP3    H2 8062   4.126   0.390   2.046 -0.6591 -0.1222  1.1270
 2686TIP3   OH2 8063   3.987   3.963   2.457  0.5987 -0.5427 -0.0208
 2686TIP3    H1 8064   4.056   4.015   2.497 -0.7951  1.6110 -0.2549
 2686TIP3    H2 8065   4.007   3.962   2.364  0.3926 -0.0141 -0.0738
 2687TIP3   OH2 8066   3.508   5.595   0.323  0.3993  0.0584  0.0289
 2687TIP3    H1 8067   3.590   5.556   0.293  0.3185 -0.2349  0.1832
 2687TIP3    H2 8068   3.500   5.566   0.414 -0.1168 -0.3113 -0.1312
 2688TIP3   OH2 8069   2.851   1.893   2.720  0.0475  0.4155  0.2020
 2688TIP3    H1 8070   2.757   1.882   2.704  0.0120  0.1365  0.5941
 2688TIP3    H2 8071   2.892   1.833   2.658 -0.0576  0.0782  0.4528
 2689TIP3   OH2 8072   1.080   2.871   4.522  0.0716  0.2082 -0.0394
 2689TIP3    H1 8073   1.013   2.919   4.473  0.1028  0.4554  0.1552
 2689TIP3    H2 8074   1.105   2.931   4.592 -0.2928 -0.3141  0.5443
 2690TIP3   OH2 8075   1.378   3.554   0.976 -0.4925  0.1265 -0.4277
 2690TIP3    H1 8076   1.370   3.574   1.069 -1.0244 -2.0954  0.0599
 2690TIP3    H2 8077   1.452   3.494   0.970 -1.0730 -0.5215 -1.2888
 2691TIP3   OH2 8078   0.021   5.615   1.046  0.0332  0.5298  0.3340
 2691TIP3    H1 8079  -0.067   5.584   1.024  0.3299  0.7458 -1.3330
 2691TIP3    H2 8080   0.059   5.544   1.098  0.1115 -1.2920 -2.0228
 2692TIP3   OH2 8081   2.102   3.622   1.262  0.0709  0.2764 -0.2060
 2692TIP3    H1 8082   2.049   3.566   1.318 -0.6081  1.1837  0.0812
 2692TIP3    H2 8083   2.080   3.595   1.173 -1.9626  1.5513 -0.1467
 2693TIP3   OH2 8084   1.017   5.692   3.383  0.0537 -1.2583 -0.2623
 2693TIP3    H1 8085   1.033   5.668   3.292 -1.1374 -1.1578 -0.5136
 2693TIP3    H2 8086   1.015   5.788   3.383  1.3141 -1.2157  0.1111
 2694TIP3   OH2 8087   0.960   0.988   0.101 -0.8493  0.1065 -0.2048
 2694TIP3    H1 8088   0.915   1.072   0.093 -1.5442 -0.3479 -1.2702
 2694TIP3    H2 8089   0.912   0.942   0.171 -1.0720  0.2158 -0.2875
 2695TIP3   OH2 8090   4.328   4.571   2.876  1.0091 -0.4468  0.3766
 2695TIP3    H1 8091   4.402   4.554   2.934  2.1618  1.5258 -0.3958
 2695TIP3    H2 8092   4.258   4.602   2.933  1.0222 -1.5623  1.0220
 2696TIP3   OH2 8093   0.366   5.483   2.589  0.2715  0.5780  0.1365
 2696TIP3    H1 8094   0.437   5.422   2.568  1.5684  1.9697  0.2281
 2696TIP3    H2 8095   0.332   5.511   2.504  0.0374  0.1230  0.0821
 2697TIP3   OH2 8096   0.809   4.326   0.970 -0.0081 -0.2110 -0.2250
 2697TIP3    H1 8097   0.752   4.396   0.939  0.6710  1.2406  1.6045
 2697TIP3    H2 8098   0.750   4.252   0.984 -0.7531 -0.0365 -2.1359
 2698TIP3   OH2 8099   4.491   1.882   3.437 -0.1401  0.3959 -0.5349
 2698TIP3    H1 8100   4.406   1.920   3.415 -1.1208 -1.4118 -0.0690
 2698TIP3    H2 8101   4.511   1.915   3.525 -1.9372 -1.6055  0.7126
 2699TIP3   OH2 8102   6.106   2.084   3.214  0.4590 -0.0581  0.2665
 2699TIP3    H1 8103   6.147   2.071   3.299  2.5718 -0.6575 -0.7605
 2699TIP3    H2 8104   6.085   1.996   3.183  0.6738  0.0612 -0.2407
 2700TIP3   OH2 8105   6.183   2.230   0.718 -0.4194 -0.0589  0.7098
 2700TIP3    H1 8106   6.244   2.223   0.644 -0.1631 -0.3108  0.9426
 2700TIP3    H2 8107   6.108   2.278   0.683 -0.3295 -0.2364  0.2648
 2701TIP3   OH2 8108   4.878   1.163   2.454  0.7056 -0.3155  0.1010
 2701TIP3    H1 8109   4.823   1.084   2.451 -0.6363  0.6049 -0.3192
 2701TIP3    H2 8110   4.842   1.220   2.387  2.9960 -0.1475 -1.0856
 2702TIP3   OH2 8111   1.404   0.070   1.146  0.3228  0.9376 -0.0048
 2702TIP3    H1 8112   1.465   0.006   1.110 -1.3198 -0.0837 -1.1355
 2702TIP3    H2 8113   1.330   0.070   1.085 -0.8652  2.0215  1.3489
 2703TIP3   OH2 8114   4.677   5.908   1.802  0.3397  0.1243 -0.7249
 2703TIP3    H1 8115   4.656   5.998   1.777  1.9175  0.4733 -0.8600
 2703TIP3    H2 8116   4.772   5.907   1.812  0.1014 -0.5632  3.0185
 2704TIP3   OH2 8117   2.394   5.938   2.412  0.3803  0.0650 -0.6032
 2704TIP3    H1 8118   2.452   5.922   2.338  0.8712  0.4326 -0.3072
 2704TIP3    H2 8119   2.433   5.888   2.484 -0.1993 -0.4488 -0.6265
 2705TIP3   OH2 8120   0.086   2.018   1.915  0.0057 -0.4645 -0.4165
 2705TIP3    H1 8121   0.176   2.025   1.947  0.1523  3.2433 -1.1923
 2705TIP3    H2 8122   0.081   1.931   1.876  3.2010 -0.8378 -0.2699
 2706TIP3   OH2 8123   5.481   0.098   5.119  0.2215  0.5204 -0.5664
 2706TIP3    H1 8124   5.470   0.108   5.214  1.4765  1.0514 -0.4574
 2706TIP3    H2 8125   5.520   0.011   5.109 -1.2715 -0.1515 -0.7261
 2707TIP3   OH2 8126   5.977   0.517   0.052 -0.3026  0.1872  0.5931
 2707TIP3    H1 8127   5.954   0.489   0.140  2.1800  0.7373  1.4932
 2707TIP3    H2 8128   6.061   0.563   0.062  0.4095 -0.3266 -2.1411
 2708TIP3   OH2 8129   3.662   3.075   4.499  0.2184  0.0685 -0.2086
 2708TIP3    H1 8130   3.630   2.985   4.494 -0.8893  0.4104  0.3103
 2708TIP3    H2 8131   3.755   3.067   4.518  0.2043 -0.9637 -0.5069
 2709TIP3   OH2 8132   1.360   3.412   0.249 -0.0651 -0.0155  0.1814
 2709TIP3    H1 8133   1.267   3.391   0.251  0.1765 -1.3799  3.4271
 2709TIP3    H2 8134   1.363   3.508   0.239 -1.6976 -0.0955 -1.5355
 2710TIP3   OH2 8135   5.858   4.534   5.136 -0.2906  0.4641  0.7471
 2710TIP3    H1 8136   5.795   4.498   5.074 -0.1439  0.7456  0.4277
 2710TIP3    H2 8137   5.813   4.532   5.220 -0.2392 -0.5677  0.7610
 2711TIP3   OH2 8138   6.084   4.503   3.216 -0.0325 -0.5395 -0.4488
 2711TIP3    H1 8139   6.126   4.586   3.238 -2.1270  0.6043 -0.4932
 2711TIP3    H2 8140   6.019   4.526   3.149 -0.4947 -2.2524 -0.6404
 2712TIP3   OH2 8141   5.121   0.490   3.901  0.4223  0.0417  0.1741
 2712TIP3    H1 8142   5.080   0.406   3.882  3.1934 -1.5350  0.5799
 2712TIP3    H2 8143   5.082   0.517   3.985 -0.9877 -0.4316 -0.2947
 2713TIP3   OH2 8144   4.335   5.688   1.330 -0.2853  0.0526  0.5839
 2713TIP3    H1 8145   4.281   5.647   1.398 -1.3062  1.3027  0.5645
 2713TIP3    H2 8146   4.379   5.760   1.375 -0.2362  0.3047  0.1398
 2714TIP3   OH2 8147   2.021   2.459   1.419 -0.4587 -0.4166  0.0990
 2714TIP3    H1 8148   2.027   2.475   1.514  1.4781  1.8527 -0.3044
 2714TIP3    H2 8149   2.104   2.493   1.384 -0.8622 -1.7548 -2.3712
 2715TIP3   OH2 8150   0.826   0.299   0.197 -0.4750 -0.2613  0.2829
 2715TIP3    H1 8151   0.871   0.302   0.281 -0.9638  0.2621  0.5322
 2715TIP3    H2 8152   0.880   0.242   0.143  1.1358  1.2571  0.2040
 2716TIP3   OH2 8153   1.457   4.474   1.180  0.0709  0.5949  0.8163
 2716TIP3    H1 8154   1.409   4.410   1.232  0.8381 -2.9929 -2.4006
 2716TIP3    H2 8155   1.536   4.428   1.152  0.9769  3.1530 -1.2839
 2717TIP3   OH2 8156   3.834   0.200   1.616  0.2906  0.3204 -0.0123
 2717TIP3    H1 8157   3.920   0.241   1.603 -0.2537  1.7182  0.5857
 2717TIP3    H2 8158   3.802   0.182   1.528  0.7133  0.8476 -0.2812
 2718TIP3   OH2 8159   0.909   3.287   1.146  0.2878  0.3684 -0.6952
 2718TIP3    H1 8160   0.970   3.214   1.152  0.5986  0.7221  0.8186
 2718TIP3    H2 8161   0.962   3.365   1.160 -0.4719  0.6760  0.7345
 2719TIP3   OH2 8162   6.200   5.617   3.079  0.0684  0.8133 -0.3173
 2719TIP3    H1 8163   6.246   5.570   3.148 -2.3165 -1.8208 -0.3436
 2719TIP3    H2 8164   6.198   5.708   3.109  3.3887  0.7122  0.5782
 2720TIP3   OH2 8165   6.143   0.682   1.528  0.0490  0.1166  0.2243
 2720TIP3    H1 8166   6.187   0.606   1.565 -0.9373 -0.3967  0.3671
 2720TIP3    H2 8167   6.106   0.650   1.445  1.9576  1.1591 -1.0996
 2721TIP3   OH2 8168   1.707   1.739   0.933  0.5069 -0.3332  0.2006
 2721TIP3    H1 8169   1.681   1.819   0.978  2.3947  0.1782  0.4717
 2721TIP3    H2 8170   1.641   1.728   0.864 -0.8535  0.3826  1.3283
 2722TIP3   OH2 8171   0.538   2.594   3.759  0.1894 -0.3075  0.0818
 2722TIP3    H1 8172   0.452   2.553   3.767  0.7703 -1.9769 -1.5639
 2722TIP3    H2 8173   0.562   2.616   3.849 -1.5478 -0.6479  0.6733
 2723TIP3   OH2 8174   5.155   0.881   4.377 -0.3052 -0.0664  0.7392
 2723TIP3    H1 8175   5.144   0.974   4.396  1.4324  0.7252 -1.6539
 2723TIP3    H2 8176   5.087   0.861   4.313  1.1501  0.4012 -1.0256
 2724TIP3   OH2 8177   1.790   1.076   0.108  0.4722 -0.0337  0.0637
 2724TIP3    H1 8178   1.763   1.164   0.134  0.7049 -0.8195  3.3623
 2724TIP3    H2 8179   1.712   1.038   0.067  0.0935  1.3521 -0.5721
 2725TIP3   OH2 8180   6.093   5.220   3.527  0.7992  0.6420 -0.4327
 2725TIP3    H1 8181   6.004   5.256   3.533  0.7776  0.8654 -1.7663
 2725TIP3    H2 8182   6.084   5.147   3.465  1.0689 -0.9760  1.3361
 2726TIP3   OH2 8183   2.134   3.799   2.021 -0.1197  0.3736  0.3211
 2726TIP3    H1 8184   2.112   3.797   1.928  1.7472  1.4607 -0.1759
 2726TIP3    H2 8185   2.226   3.775   2.025  0.5229  2.7380  1.6268
 2727TIP3   OH2 8186   4.070   2.422   1.275  0.1443 -0.0048 -0.1294
 2727TIP3    H1 8187   3.984   2.400   1.309  0.5661 -1.5916  0.0043
 2727TIP3    H2 8188   4.123   2.344   1.291  2.1725  1.5941  1.6221
 2728TIP3   OH2 8189   5.556   3.816   0.752  0.0662 -0.1321  0.2986
 2728TIP3    H1 8190   5.462   3.825   0.738  0.1250 -0.5713 -0.3900
 2728TIP3    H2 8191   5.564   3.786   0.843 -0.5096 -0.9924  0.0713
 2729TIP3   OH2 8192   3.794   3.089   3.171  0.4337 -0.1200 -0.3785
 2729TIP3    H1 8193   3.805   3.156   3.239  2.7153 -0.7684 -0.0427
 2729TIP3    H2 8194   3.839   3.126   3.095  0.1633 -0.5228 -0.7340
 2730TIP3   OH2 8195   0.420   5.294   1.136 -0.1085  0.3974  0.0025
 2730TIP3    H1 8196   0.467   5.353   1.078  0.5412  0.4531  0.5790
 2730TIP3    H2 8197   0.488   5.246   1.182 -0.5914  1.0047  1.3902
 2731TIP3   OH2 8198   1.842   0.619   2.829 -0.0888 -0.2790  0.5826
 2731TIP3    H1 8199   1.760   0.587   2.867  0.0832 -1.6131 -0.1234
 2731TIP3    H2 8200   1.829   0.611   2.735  0.4578  0.5598  0.4264
 2732TIP3   OH2 8201   1.548   5.018   4.657  0.2837  0.0710 -0.5066
 2732TIP3    H1 8202   1.562   5.030   4.563  2.8468  0.5960 -0.1590
 2732TIP3    H2 8203   1.521   5.104   4.689 -0.7901 -0.1600 -0.7849
 2733TIP3   OH2 8204   0.721   2.807   2.034  0.2277  0.3001  0.1212
 2733TIP3    H1 8205   0.633   2.819   1.998 -0.0968  3.3135  1.5711
 2733TIP3    H2 8206   0.760   2.895   2.032  3.0713 -0.8324 -0.0103
 2734TIP3   OH2 8207   3.786   4.564   0.535 -0.3337  0.1414 -0.3064
 2734TIP3    H1 8208   3.849   4.631   0.564 -1.6929  1.5183 -0.4110
 2734TIP3    H2 8209   3.745   4.602   0.457 -0.8972 -0.9774 -0.5740
 2735TIP3   OH2 8210   4.384   3.373   4.996 -0.0421  0.0490  0.0070
 2735TIP3    H1 8211   4.455   3.425   4.958  0.4745 -0.2148  0.5797
 2735TIP3    H2 8212   4.416   3.351   5.084 -0.8131 -0.1213  0.2495
 2736TIP3   OH2 8213   3.745   0.064   1.054 -0.6587  0.3130 -0.2189
 2736TIP3    H1 8214   3.681   0.120   1.010 -2.8734 -2.5010 -0.8760
 2736TIP3    H2 8215   3.701  -0.020   1.064  2.5743 -1.4936  0.3592
 2737TIP3   OH2 8216   3.336   1.451   0.682 -0.0004  0.3521  0.3178
 2737TIP3    H1 8217   3.298   1.434   0.768 -1.8217 -0.3003 -0.5695
 2737TIP3    H2 8218   3.295   1.531   0.652 -0.9616 -0.5215 -0.7861
 2738TIP3   OH2 8219   6.109   4.171   2.597 -0.1523 -0.5156  0.1975
 2738TIP3    H1 8220   6.189   4.144   2.551  0.0186 -0.4139  0.4351
 2738TIP3    H2 8221   6.048   4.194   2.527 -0.1377 -1.0515  0.0027
 2739TIP3   OH2 8222   1.415   1.242   0.687  0.2766  0.1201 -0.2223
 2739TIP3    H1 8223   1.324   1.268   0.700 -0.1671  0.3524 -3.1379
 2739TIP3    H2 8224   1.430   1.176   0.755 -1.9980  0.1789  0.4444
 2740TIP3   OH2 8225   1.815   4.266   1.332 -0.3674  0.3062 -0.1280
 2740TIP3    H1 8226   1.791   4.179   1.300 -0.6305  0.6109 -0.7907
 2740TIP3    H2 8227   1.742   4.291   1.389  0.6876 -0.7549  1.7815
 2741TIP3   OH2 8228   5.496   5.574   3.781  0.3942  0.2855 -0.8296
 2741TIP3    H1 8229   5.404   5.587   3.758  0.5500  0.6082 -1.2993
 2741TIP3    H2 8230   5.529   5.512   3.716  0.2775 -0.5745 -0.0836
 2742TIP3   OH2 8231   2.949   0.594   5.042 -0.5049  0.0724  0.0483
 2742TIP3    H1 8232   2.943   0.684   5.073 -0.6681  0.1167 -0.1135
 2742TIP3    H2 8233   2.979   0.601   4.952  0.0688 -0.0612  0.2212
 2743TIP3   OH2 8234   2.419   3.443   2.004  0.3426  0.3674 -0.1413
 2743TIP3    H1 8235   2.385   3.513   1.949  1.2897  0.4147 -0.6736
 2743TIP3    H2 8236   2.438   3.485   2.088 -0.1052  0.5105 -0.1063
 2744TIP3   OH2 8237   1.264   4.281   1.617 -0.3053  0.9949 -0.6050
 2744TIP3    H1 8238   1.217   4.339   1.677 -1.0760 -0.7835  0.5694
 2744TIP3    H2 8239   1.200   4.262   1.548 -0.7215  0.0280  0.0326
 2745TIP3   OH2 8240   2.027   5.687   2.387 -0.4848 -0.3149  0.0098
 2745TIP3    H1 8241   2.082   5.642   2.450 -0.8129 -0.0492  0.4987
 2745TIP3    H2 8242   2.057   5.778   2.390 -0.0062 -0.4386 -0.7702
 2746TIP3   OH2 8243   0.170   1.856   1.301  0.5028  0.9193 -0.0917
 2746TIP3    H1 8244   0.201   1.942   1.271 -1.2902  1.5176 -0.4069
 2746TIP3    H2 8245   0.089   1.875   1.348 -1.4489 -0.7557 -2.4778
 2747TIP3   OH2 8246   4.014   2.410   0.997 -0.3660  0.4891 -0.0441
 2747TIP3    H1 8247   4.106   2.430   0.981 -0.1839 -0.0404  0.3070
 2747TIP3    H2 8248   4.001   2.430   1.090  0.3608 -2.8486  0.9005
 2748TIP3   OH2 8249   4.207   2.434   3.764  0.0103 -0.2033  0.3547
 2748TIP3    H1 8250   4.197   2.526   3.739  3.4361  0.2893  0.3600
 2748TIP3    H2 8251   4.176   2.386   3.688  1.2092  1.0772 -1.0140
 2749TIP3   OH2 8252   1.021   3.773   2.505 -0.2323 -0.1866 -0.1750
 2749TIP3    H1 8253   0.990   3.753   2.594  0.9293 -0.4634  0.1810
 2749TIP3    H2 8254   1.001   3.695   2.454 -0.1834 -0.3305  0.0280
 2750TIP3   OH2 8255   0.262   3.945   1.515  0.3957 -0.1348  0.0594
 2750TIP3    H1 8256   0.249   4.035   1.485  0.4137  0.0564  0.6095
 2750TIP3    H2 8257   0.175   3.917   1.544  0.7554  0.4607  1.8881
 2751TIP3   OH2 8258   0.988   2.147   1.429  0.4874  0.5171 -0.1046
 2751TIP3    H1 8259   1.025   2.105   1.507  0.0357  0.9704  0.3702
 2751TIP3    H2 8260   0.895   2.158   1.450  0.4663  1.1217 -0.4851
 2752TIP3   OH2 8261   4.404   4.136   2.091 -0.8810 -0.3310 -0.1653
 2752TIP3    H1 8262   4.437   4.101   2.174 -2.3016  1.3050  1.1880
 2752TIP3    H2 8263   4.477   4.186   2.056 -0.2368 -1.0919  0.0542
 2753TIP3   OH2 8264   3.311   4.579   1.007 -0.0079  0.1363 -0.1403
 2753TIP3    H1 8265   3.291   4.515   0.940 -0.1092 -0.3136  0.3125
 2753TIP3    H2 8266   3.401   4.559   1.034 -1.1435 -2.1420  2.4780
 2754TIP3   OH2 8267   5.243   2.991   5.220 -0.0476 -0.4680  0.2934
 2754TIP3    H1 8268   5.149   2.992   5.199  0.4353  0.8598 -2.1345
 2754TIP3    H2 8269   5.286   3.023   5.141  2.6403 -2.8880  0.6145
 2755TIP3   OH2 8270   2.782   3.207   1.844 -0.7111 -0.5201 -0.0903
 2755TIP3    H1 8271   2.819   3.120   1.860 -2.3617 -0.9490  1.6770
 2755TIP3    H2 8272   2.746   3.234   1.928 -3.6150  0.2300 -1.4530
 2756TIP3   OH2 8273   0.457   3.619   0.923  0.2137  0.9781  0.1528
 2756TIP3    H1 8274   0.425   3.613   0.833 -0.4847  2.2803  0.2855
 2756TIP3    H2 8275   0.502   3.536   0.938 -3.0063 -0.9653 -0.0900
 2757TIP3   OH2 8276   0.656   5.994   1.907 -0.1823  0.7884 -0.0915
 2757TIP3    H1 8277   0.710   5.954   1.839 -1.5417 -0.2296 -0.6220
 2757TIP3    H2 8278   0.696   5.966   1.989  0.7347  0.9770 -0.4668
 2758TIP3   OH2 8279   6.290   1.564   2.886 -0.2639 -0.3892  0.3652
 2758TIP3    H1 8280   6.254   1.515   2.812  1.2391 -0.5255 -0.3009
 2758TIP3    H2 8281   6.264   1.655   2.869 -0.1898 -0.4646 -0.1605
 2759TIP3   OH2 8282   3.264   0.456   3.406  0.2685 -0.2204  0.5252
 2759TIP3    H1 8283   3.196   0.423   3.465 -2.1305  1.0512 -1.3764
 2759TIP3    H2 8284   3.278   0.547   3.434 -1.5603  0.6898 -1.3296
 2760TIP3   OH2 8285   0.333   4.086   2.180  0.2927  0.1663 -0.2883
 2760TIP3    H1 8286   0.410   4.057   2.131  0.5980 -0.8888  0.7631
 2760TIP3    H2 8287   0.361   4.082   2.272 -0.6471  0.9177  0.0452
 2761TIP3   OH2 8288   2.909   2.281   4.127 -0.7021 -0.0824  0.3998
 2761TIP3    H1 8289   2.857   2.343   4.075  0.7588  0.1348 -0.8941
 2761TIP3    H2 8290   2.982   2.256   4.069 -0.1041 -1.4069  1.6460
 2762TIP3   OH2 8291   0.888   3.089   4.491  0.3654 -0.2280  0.7851
 2762TIP3    H1 8292   0.886   3.184   4.498  1.6786 -0.1843  0.8298
 2762TIP3    H2 8293   0.835   3.058   4.564 -0.6206  0.4654  0.3870
 2763TIP3   OH2 8294   5.873   1.433   2.111  0.4297 -0.0743  0.0666
 2763TIP3    H1 8295   5.965   1.430   2.084  0.9516  0.6966  1.6446
 2763TIP3    H2 8296   5.827   1.461   2.032  2.1152  4.0936  0.3258
 2764TIP3   OH2 8297   3.225   4.285   2.432  0.4475  0.3218 -0.0799
 2764TIP3    H1 8298   3.199   4.318   2.519  0.8206 -1.1631  0.6228
 2764TIP3    H2 8299   3.309   4.327   2.415  1.6526 -1.3171  1.4831
 2765TIP3   OH2 8300   2.616   1.516   3.615 -0.1786 -0.2475  0.0814
 2765TIP3    H1 8301   2.638   1.434   3.658  0.3477  0.0139  0.3265
 2765TIP3    H2 8302   2.680   1.579   3.649  1.2842 -0.3531 -2.2261
 2766TIP3   OH2 8303   2.557   2.189   2.466 -0.1813  0.1016  0.4363
 2766TIP3    H1 8304   2.630   2.132   2.442  1.4372  1.7764  1.1995
 2766TIP3    H2 8305   2.526   2.224   2.383  1.0081  0.6959  0.2286
 2767TIP3   OH2 8306   0.835   5.507   0.639 -0.2931 -0.1022  0.0571
 2767TIP3    H1 8307   0.834   5.464   0.553 -0.1859  0.5130 -0.2599
 2767TIP3    H2 8308   0.809   5.597   0.621 -0.0557  0.0902  0.6407
 2768TIP3   OH2 8309   0.595   3.295   2.314 -0.2912 -0.2199 -0.5248
 2768TIP3    H1 8310   0.690   3.295   2.305 -0.0713  0.7526  1.3100
 2768TIP3    H2 8311   0.566   3.372   2.265 -0.4755 -1.9993 -3.4067
 2769TIP3   OH2 8312   1.836   3.489   4.767  0.0838 -0.4622 -0.2548
 2769TIP3    H1 8313   1.812   3.489   4.675 -1.1427  0.4951  0.0455
 2769TIP3    H2 8314   1.785   3.417   4.805  1.0108 -1.2222 -0.4005
 2770TIP3   OH2 8315   1.276   1.170   2.094  0.3121  0.3708 -0.3352
 2770TIP3    H1 8316   1.331   1.168   2.172 -0.9556 -1.3001  0.5942
 2770TIP3    H2 8317   1.287   1.083   2.055 -1.2045  0.1684 -0.3959
 2771TIP3   OH2 8318   2.795   3.603   1.679  0.0274  0.0237  0.4099
 2771TIP3    H1 8319   2.763   3.617   1.768  0.8475  0.6775  0.6128
 2771TIP3    H2 8320   2.860   3.534   1.687  0.5233  0.4803  0.4281
 2772TIP3   OH2 8321   4.350   3.744   0.292 -0.2082 -0.0163 -0.3899
 2772TIP3    H1 8322   4.382   3.704   0.373 -0.6718 -0.7252 -0.5455
 2772TIP3    H2 8323   4.377   3.835   0.297 -0.2360 -0.0566  0.5669
 2773TIP3   OH2 8324   1.581   4.937   2.772  0.2925 -0.0303 -0.1153
 2773TIP3    H1 8325   1.608   4.909   2.684  0.4907 -0.3934  0.0554
 2773TIP3    H2 8326   1.505   4.992   2.758 -0.0510 -0.5894 -0.4784
 2774TIP3   OH2 8327   4.896   0.197   0.998 -0.1860  0.0089  0.1901
 2774TIP3    H1 8328   4.878   0.132   1.067  1.3349  0.7718  1.3708
 2774TIP3    H2 8329   4.991   0.205   0.996 -0.3109  2.6753  0.5885
 2775TIP3   OH2 8330   1.847   0.852   2.970  1.2666  0.2394 -0.3963
 2775TIP3    H1 8331   1.848   0.763   2.935  0.6666 -0.1782  0.6168
 2775TIP3    H2 8332   1.755   0.878   2.966  1.2246  0.2846  0.6035
 2776TIP3   OH2 8333   3.581   4.480   3.750  0.0854 -0.2465 -0.0636
 2776TIP3    H1 8334   3.540   4.393   3.742  0.3745 -0.6803  2.4955
 2776TIP3    H2 8335   3.511   4.541   3.728 -1.2881 -1.0515  1.8305
 2777TIP3   OH2 8336   2.528   4.414   4.954 -0.0612 -0.2661  0.5240
 2777TIP3    H1 8337   2.576   4.487   4.994 -1.4308  1.0952 -0.1833
 2777TIP3    H2 8338   2.487   4.369   5.028 -0.6892  0.8128  0.8610
 2778TIP3   OH2 8339   2.695   1.016   0.244 -0.5085 -0.2079  0.3618
 2778TIP3    H1 8340   2.739   0.932   0.251  0.1906  0.2793  2.4028
 2778TIP3    H2 8341   2.669   1.022   0.152  2.1318 -1.2759 -0.5259
 2779TIP3   OH2 8342   3.305   5.119   1.868  0.1123 -0.3872  0.8119
 2779TIP3    H1 8343   3.386   5.146   1.912  0.5168  1.1083 -0.7550
 2779TIP3    H2 8344   3.333   5.063   1.796 -0.2460 -0.0635  0.4103
 2780TIP3   OH2 8345   3.480   1.138   0.801 -0.1226 -0.3962  0.2147
 2780TIP3    H1 8346   3.479   1.042   0.812 -1.6092 -0.2990  1.3362
 2780TIP3    H2 8347   3.433   1.153   0.719  0.2066 -0.6408 -0.0177
 2781TIP3   OH2 8348   6.006   5.462   2.058  0.2151  0.1142  0.0538
 2781TIP3    H1 8349   6.081   5.496   2.106 -0.0269  0.2716  0.3240
 2781TIP3    H2 8350   5.957   5.411   2.123  0.4255 -0.5216 -0.2747
 2782TIP3   OH2 8351   1.131   5.295   4.556  0.4142  0.9531 -0.1756
 2782TIP3    H1 8352   1.065   5.344   4.508 -0.5115 -0.6243 -0.5751
 2782TIP3    H2 8353   1.189   5.261   4.488  0.9479  1.3280  0.0850
 2783TIP3   OH2 8354   3.254   2.482   4.105 -0.2358  0.0938 -0.0448
 2783TIP3    H1 8355   3.323   2.422   4.075 -1.3348 -1.1661 -0.1869
 2783TIP3    H2 8356   3.190   2.481   4.033 -0.2638  1.4792 -0.0528
 2784TIP3   OH2 8357   1.680   4.238   3.462 -0.1467 -0.0451  0.0127
 2784TIP3    H1 8358   1.695   4.317   3.411 -0.6657 -0.8241 -1.4026
 2784TIP3    H2 8359   1.587   4.239   3.481 -0.3332 -0.7498 -0.8000
 2785TIP3   OH2 8360   1.420   5.403   0.520  0.0616 -0.3919  0.0655
 2785TIP3    H1 8361   1.481   5.364   0.583  0.0615 -2.1416 -0.9534
 2785TIP3    H2 8362   1.333   5.375   0.549 -0.0868  0.1735  0.1943
 2786TIP3   OH2 8363   4.873   1.251   0.289  0.0909 -0.0826  0.6324
 2786TIP3    H1 8364   4.831   1.171   0.320 -1.0480 -0.3447 -1.4100
 2786TIP3    H2 8365   4.803   1.299   0.244  1.6782  0.0229 -1.9099
 2787TIP3   OH2 8366   2.961   1.172   5.132  0.0314 -0.2519  0.0423
 2787TIP3    H1 8367   2.909   1.193   5.054  0.4209 -1.4644 -0.5675
 2787TIP3    H2 8368   2.906   1.112   5.182  0.2770 -0.4360  0.0911
 2788TIP3   OH2 8369   0.119   1.225   0.624 -0.1908 -0.0259  0.1425
 2788TIP3    H1 8370   0.042   1.174   0.598 -0.3854  0.0997  0.4577
 2788TIP3    H2 8371   0.132   1.288   0.554  0.7816 -1.2917 -0.8506
 2789TIP3   OH2 8372   1.565   0.818   3.612  0.3828 -0.5069  0.0935
 2789TIP3    H1 8373   1.478   0.780   3.620  0.9660 -1.7990  0.5631
 2789TIP3    H2 8374   1.602   0.813   3.701  0.5203  1.1267  0.1702
 2790TIP3   OH2 8375   4.782   3.692   0.307 -0.3275 -0.3859  0.7051
 2790TIP3    H1 8376   4.815   3.603   0.296  0.6438  0.1693 -1.6383
 2790TIP3    H2 8377   4.728   3.707   0.229 -0.1800  1.1553  0.8755
 2791TIP3   OH2 8378   6.229   3.122   2.358  0.3821  0.2400 -0.3495
 2791TIP3    H1 8379   6.184   3.104   2.440  1.1077  0.8002  0.1887
 2791TIP3    H2 8380   6.315   3.082   2.369  0.5497  0.4854 -0.7526
 2792TIP3   OH2 8381   2.626   4.946   0.304  0.9071  0.3063 -0.0749
 2792TIP3    H1 8382   2.653   4.930   0.214 -0.8292  1.5044 -0.8616
 2792TIP3    H2 8383   2.554   5.009   0.297 -1.0837 -1.5576  1.9461
 2793TIP3   OH2 8384   2.625   3.228   0.069  0.7926 -0.4943  0.3202
 2793TIP3    H1 8385   2.569   3.305   0.060  0.5099 -0.6195  0.9460
 2793TIP3    H2 8386   2.697   3.257   0.125 -0.2653 -1.1572  2.1053
 2794TIP3   OH2 8387   3.995   3.624   2.574  0.1828  0.5650 -0.1661
 2794TIP3    H1 8388   3.904   3.652   2.564  0.1872  0.1583 -1.5494
 2794TIP3    H2 8389   4.024   3.604   2.485  0.9348 -1.4225  0.4608
 2795TIP3   OH2 8390   0.793   5.608   1.451 -0.2873  1.0535 -0.5618
 2795TIP3    H1 8391   0.854   5.649   1.512  1.5503  0.2150 -1.7317
 2795TIP3    H2 8392   0.781   5.673   1.382 -1.4798  1.5635  0.0909
 2796TIP3   OH2 8393   1.966   2.585   4.554 -0.3815 -0.2471 -0.2838
 2796TIP3    H1 8394   1.992   2.510   4.608  1.1182 -0.4112 -1.1882
 2796TIP3    H2 8395   1.976   2.554   4.464 -0.4002  0.8266 -0.6621
 2797TIP3   OH2 8396   1.591   4.240   0.748  0.4109  0.0340 -0.2335
 2797TIP3    H1 8397   1.514   4.294   0.729  0.5197  0.1461 -0.3630
 2797TIP3    H2 8398   1.613   4.199   0.665  1.6936  1.5678 -0.7102
 2798TIP3   OH2 8399   3.056   3.262   2.917 -0.1398  0.0134  0.0645
 2798TIP3    H1 8400   3.112   3.241   2.842  1.5513  0.5390  1.1333
 2798TIP3    H2 8401   3.083   3.202   2.986 -0.0321  1.0965  0.9866
 2799TIP3   OH2 8402   2.580   1.875   2.621 -0.1284  0.2608  0.1570
 2799TIP3    H1 8403   2.513   1.818   2.659 -1.3775  0.0566 -2.1245
 2799TIP3    H2 8404   2.557   1.963   2.650 -2.0353  0.3148 -1.3260
 2800TIP3   OH2 8405   1.092   1.575   1.529  0.3449  0.0452  0.0952
 2800TIP3    H1 8406   1.084   1.654   1.477  0.7109 -0.7035 -1.1575
 2800TIP3    H2 8407   1.178   1.540   1.506 -0.1886 -1.1994 -0.1007
 2801TIP3   OH2 8408   2.973   0.034   0.533 -0.6738  0.2477 -0.3410
 2801TIP3    H1 8409   3.061   0.055   0.565 -0.0598 -1.1060 -1.0245
 2801TIP3    H2 8410   2.914   0.069   0.599  0.4610 -0.6291  1.2033
 2802TIP3   OH2 8411   4.337   3.042   1.305  0.4028 -0.2958 -0.6508
 2802TIP3    H1 8412   4.288   3.075   1.230 -0.4459 -1.7516 -0.7783
 2802TIP3    H2 8413   4.428   3.067   1.288 -0.1685  1.9214 -0.7026
 2803TIP3   OH2 8414   0.720   3.498   5.056  0.1626 -0.2646  0.1296
 2803TIP3    H1 8415   0.638   3.545   5.070 -0.4971 -1.0457 -0.9779
 2803TIP3    H2 8416   0.695   3.418   5.011  1.5165 -0.6148 -0.0509
 2804TIP3   OH2 8417   1.396   0.147   1.976  0.0345 -0.2121  0.0649
 2804TIP3    H1 8418   1.354   0.092   2.042 -0.4726 -0.2110 -0.2462
 2804TIP3    H2 8419   1.360   0.115   1.893  1.6315 -1.0745 -0.3228
 2805TIP3   OH2 8420   0.703   4.054   4.789  0.0887  0.1863 -0.4897
 2805TIP3    H1 8421   0.663   4.076   4.705 -2.1592  1.6004  0.8326
 2805TIP3    H2 8422   0.725   4.139   4.828 -3.2169  0.0363  2.2199
 2806TIP3   OH2 8423   4.375   1.264   3.196  0.2076 -0.1877 -0.2119
 2806TIP3    H1 8424   4.389   1.359   3.199  0.8243 -0.2450 -0.9081
 2806TIP3    H2 8425   4.352   1.240   3.286 -0.4371  0.6894 -0.1234
 2807TIP3   OH2 8426   3.683   4.484   1.182 -0.3883 -0.0230  0.1884
 2807TIP3    H1 8427   3.638   4.409   1.145 -1.9300  0.3927  1.1086
 2807TIP3    H2 8428   3.673   4.553   1.117  1.3592 -0.6796 -0.8261
 2808TIP3   OH2 8429   3.719   1.344   1.229 -0.5458  0.0232  0.4272
 2808TIP3    H1 8430   3.662   1.268   1.240 -1.1904  0.5062  0.4705
 2808TIP3    H2 8431   3.715   1.365   1.136  0.6856 -0.8016  0.1779
 2809TIP3   OH2 8432   2.031   0.696   1.443  0.8258 -0.2021 -0.2356
 2809TIP3    H1 8433   2.104   0.648   1.402 -0.1280 -1.4111 -0.5852
 2809TIP3    H2 8434   1.953   0.658   1.404 -0.0293  0.4673  0.7818
 2810TIP3   OH2 8435   0.410   0.439   1.357 -0.3696 -0.1826  0.2242
 2810TIP3    H1 8436   0.488   0.493   1.342 -1.0053  0.2932 -1.6484
 2810TIP3    H2 8437   0.438   0.350   1.337  0.5087 -0.5416  2.6945
 2811TIP3   OH2 8438   5.281   4.576   4.505 -0.5201 -0.0129  0.3141
 2811TIP3    H1 8439   5.187   4.570   4.491 -0.8287  1.8477  1.3356
 2811TIP3    H2 8440   5.319   4.525   4.433 -2.2960 -1.6395  0.4624
 2812TIP3   OH2 8441   1.465   5.286   4.691 -0.7201  0.1781 -0.2045
 2812TIP3    H1 8442   1.436   5.375   4.709 -0.8507  0.6254 -2.3130
 2812TIP3    H2 8443   1.556   5.296   4.663  0.8329 -0.9140  3.7651
 2813TIP3   OH2 8444   3.206   4.285   4.073 -0.1579  0.3306  0.2048
 2813TIP3    H1 8445   3.218   4.374   4.041 -0.4187  0.3840  0.2563
 2813TIP3    H2 8446   3.180   4.295   4.165  0.3627  0.1841  0.3718
 2814TIP3   OH2 8447   3.853   3.479   1.786  0.4249  0.1233  0.3163
 2814TIP3    H1 8448   3.762   3.471   1.814  0.9472  0.8692  2.4837
 2814TIP3    H2 8449   3.901   3.420   1.846  1.3404 -0.6123 -1.0850
 2815TIP3   OH2 8450   5.508   4.426   0.856  0.3318  0.1175  0.0491
 2815TIP3    H1 8451   5.436   4.482   0.884  1.3389  0.0508  3.1181
 2815TIP3    H2 8452   5.466   4.348   0.820 -1.0936  0.9693 -0.1820
 2816TIP3   OH2 8453   2.961   0.102   4.661  0.0435 -0.8042 -0.6893
 2816TIP3    H1 8454   2.976   0.177   4.719 -2.0951  0.1086 -1.2165
 2816TIP3    H2 8455   3.013   0.121   4.583 -0.6730  0.2843 -0.9195
 2817TIP3   OH2 8456   0.308   1.506   2.167 -0.3062 -0.2942  0.0031
 2817TIP3    H1 8457   0.314   1.535   2.258  2.0974 -0.1704 -0.1304
 2817TIP3    H2 8458   0.326   1.412   2.170 -1.2333 -0.4923 -0.2664
 2818TIP3   OH2 8459   3.509   5.676   4.927 -0.0672  0.4912  0.1316
 2818TIP3    H1 8460   3.536   5.745   4.988  0.3184 -0.3296  0.8996
 2818TIP3    H2 8461   3.438   5.716   4.876  1.6627  2.2480 -1.0429
 2819TIP3   OH2 8462   0.996   4.458   0.028 -0.0420  0.2177  0.4887
 2819TIP3    H1 8463   0.970   4.377  -0.015 -3.0211  1.1025  0.3652
 2819TIP3    H2 8464   1.089   4.447   0.047  0.4825 -1.8425 -2.5201
 2820TIP3   OH2 8465   3.071   3.949   1.921  0.1859  0.6331  0.0102
 2820TIP3    H1 8466   3.143   3.954   1.984  0.5602  2.1800 -0.4886
 2820TIP3    H2 8467   3.110   3.914   1.842  0.3793  1.3264 -0.2118
 2821TIP3   OH2 8468   4.443   3.600   0.528 -0.8710  0.3320  0.2517
 2821TIP3    H1 8469   4.468   3.612   0.620 -1.8180 -0.8789  0.6901
 2821TIP3    H2 8470   4.474   3.513   0.505 -1.5781  0.2036 -0.2496
 2822TIP3   OH2 8471   2.000   3.008   2.250 -0.0515  0.6140 -0.2416
 2822TIP3    H1 8472   2.035   3.088   2.210 -0.3789  1.3009  0.7698
 2822TIP3    H2 8473   2.025   3.016   2.343  0.1237 -0.5863 -0.1789
 2823TIP3   OH2 8474   0.284   2.195   3.708 -0.3885 -0.0087  0.9333
 2823TIP3    H1 8475   0.233   2.255   3.653 -0.4875  0.0476  1.0867
 2823TIP3    H2 8476   0.375   2.221   3.693 -0.4467  0.4029  1.2520
 2824TIP3   OH2 8477   4.193   0.582   1.473 -0.0116  0.6226 -0.1958
 2824TIP3    H1 8478   4.196   0.677   1.456 -0.2542  0.6994  0.1854
 2824TIP3    H2 8479   4.112   0.569   1.522 -0.1266  0.1731 -0.5010
 2825TIP3   OH2 8480   0.447   3.094   2.437  0.0317  0.6257 -0.4519
 2825TIP3    H1 8481   0.509   3.160   2.405  0.0990  1.7582  1.8137
 2825TIP3    H2 8482   0.491   3.054   2.512 -1.6997  1.0138  0.8139
 2826TIP3   OH2 8483   3.286   4.836   2.448 -0.3776  0.6172  0.3729
 2826TIP3    H1 8484   3.375   4.801   2.443 -0.5920  0.1880 -0.6453
 2826TIP3    H2 8485   3.238   4.771   2.500 -0.4973 -0.0519 -0.5460
 2827TIP3   OH2 8486   3.338   3.580   2.269  0.1589  0.3216  0.3430
 2827TIP3    H1 8487   3.304   3.492   2.286 -0.1750  0.2674 -0.5327
 2827TIP3    H2 8488   3.288   3.637   2.328 -1.3775  0.2221 -0.8057
 2828TIP3   OH2 8489   0.079   3.253   3.529  0.6134  0.0725  0.3945
 2828TIP3    H1 8490   0.152   3.315   3.520  0.5881  0.1540  0.7635
 2828TIP3    H2 8491   0.064   3.246   3.623  1.2084 -1.1885  0.4157
 2829TIP3   OH2 8492   2.981   1.813   4.212 -0.6672  0.7002  0.0188
 2829TIP3    H1 8493   2.893   1.849   4.203 -0.5672  0.6140 -1.5484
 2829TIP3    H2 8494   3.024   1.834   4.129  0.6772  0.4284  0.6208
 2830TIP3   OH2 8495   0.554   4.057   2.856 -0.4727  0.0938  0.0772
 2830TIP3    H1 8496   0.473   4.010   2.836  0.1006 -0.3651 -1.2895
 2830TIP3    H2 8497   0.573   4.034   2.947 -1.3683 -0.5726  0.1101
 2831TIP3   OH2 8498   5.553   4.355   3.115  0.3802 -0.2716 -0.3577
 2831TIP3    H1 8499   5.631   4.336   3.166  1.3882  1.0914 -1.2970
 2831TIP3    H2 8500   5.516   4.270   3.093 -0.2316 -0.9071  2.7532
 2832TIP3   OH2 8501   6.163   3.062   4.534 -0.4967  0.3353 -0.0996
 2832TIP3    H1 8502   6.184   3.030   4.622 -0.5570  0.8985  0.1263
 2832TIP3    H2 8503   6.237   3.118   4.511  1.4245 -2.7288 -1.9836
 2833TIP3   OH2 8504   3.156   3.081   3.106 -0.0351 -0.3142  0.1126
 2833TIP3    H1 8505   3.211   3.048   3.034  2.5031  2.6556  0.4897
 2833TIP3    H2 8506   3.203   3.056   3.185  0.0088  0.9235  0.4977
 2834TIP3   OH2 8507   2.284   4.704   4.700  0.2725 -0.0876 -0.6469
 2834TIP3    H1 8508   2.302   4.611   4.712  0.4401 -0.0978 -0.9621
 2834TIP3    H2 8509   2.191   4.709   4.678 -0.1435 -0.0409  0.9616
 2835TIP3   OH2 8510   5.492   3.554   4.270  0.5056  0.4204  0.1738
 2835TIP3    H1 8511   5.541   3.550   4.188  0.1806  2.7688 -0.2046
 2835TIP3    H2 8512   5.468   3.646   4.279  0.8674  0.3069  3.1222
 2836TIP3   OH2 8513   2.790   3.024   1.279  0.3289  0.0851  0.4548
 2836TIP3    H1 8514   2.801   3.104   1.226 -0.3542  0.0669  0.2809
 2836TIP3    H2 8515   2.762   2.958   1.217 -2.2409  0.4909  1.0893
 2837TIP3   OH2 8516   3.077   3.717   4.149 -0.3098  0.2962  0.4544
 2837TIP3    H1 8517   3.040   3.764   4.074 -0.4510 -0.8770 -0.2294
 2837TIP3    H2 8518   3.024   3.638   4.156  1.0328 -0.6336  0.4618
 2838TIP3   OH2 8519   0.645   1.267   0.703 -0.3647 -0.3559 -0.9833
 2838TIP3    H1 8520   0.665   1.295   0.792 -1.5841  1.4065 -1.2055
 2838TIP3    H2 8521   0.551   1.246   0.705  0.2807 -3.6833 -1.0755
 2839TIP3   OH2 8522   6.055   2.434   1.489  0.9743  0.2109 -0.1670
 2839TIP3    H1 8523   6.053   2.406   1.398  1.1274 -2.7826  0.6242
 2839TIP3    H2 8524   5.993   2.375   1.533  1.7314  0.8267  1.8167
 2840TIP3   OH2 8525   1.651   4.785   5.129  0.0842  1.0277  0.1986
 2840TIP3    H1 8526   1.661   4.874   5.161 -0.6807  0.9905  0.5416
 2840TIP3    H2 8527   1.558   4.767   5.134  0.0675  0.6485 -1.0705
 2841TIP3   OH2 8528   5.005   0.914   3.731 -1.2299  0.0605  0.2845
 2841TIP3    H1 8529   4.936   0.928   3.797  0.2565 -2.1058  2.4625
 2841TIP3    H2 8530   4.992   0.824   3.702 -0.0617  0.0340 -0.1964
 2842TIP3   OH2 8531   2.449   0.092   3.127  0.4412 -0.0234  0.1369
 2842TIP3    H1 8532   2.514   0.133   3.069 -0.2850  0.2769 -0.4841
 2842TIP3    H2 8533   2.491   0.011   3.156  1.9713  1.1872  1.5114
 2843TIP3   OH2 8534   4.862   5.883   2.914 -0.3663  0.2231 -0.0543
 2843TIP3    H1 8535   4.789   5.897   2.975 -0.4922 -0.6321  0.0085
 2843TIP3    H2 8536   4.822   5.890   2.827 -0.1746  1.5031 -0.0519
 2844TIP3   OH2 8537   3.147   1.547   4.578 -0.6471 -0.1997  0.2910
 2844TIP3    H1 8538   3.123   1.628   4.534 -3.4122 -1.5493 -0.9111
 2844TIP3    H2 8539   3.199   1.499   4.514  0.8340  0.4716  0.9373
 2845TIP3   OH2 8540   2.670   2.125   1.109 -0.1396  0.4752  0.3145
 2845TIP3    H1 8541   2.732   2.169   1.052  1.0698  1.6498  2.4037
 2845TIP3    H2 8542   2.680   2.169   1.194 -2.8657 -0.2149  1.0934
 2846TIP3   OH2 8543   6.144   5.215   1.132 -0.0736 -0.3707 -0.1465
 2846TIP3    H1 8544   6.181   5.264   1.059 -1.5281 -0.0579 -0.7158
 2846TIP3    H2 8545   6.140   5.124   1.101 -0.4183 -0.2866 -0.3553
 2847TIP3   OH2 8546   2.671   5.398   2.478  0.3561 -0.0378 -0.3773
 2847TIP3    H1 8547   2.722   5.429   2.553 -0.7483  1.4291 -0.1868
 2847TIP3    H2 8548   2.646   5.478   2.431  1.0209 -0.9251 -2.3305
 2848TIP3   OH2 8549   1.095   4.986   4.848  0.2095 -0.6401 -0.5781
 2848TIP3    H1 8550   1.158   5.054   4.826  0.3722 -0.7500 -0.4470
 2848TIP3    H2 8551   1.015   5.012   4.802  0.3639 -0.5278 -0.7836
 2849TIP3   OH2 8552   4.518   1.750   4.527 -0.0437 -0.4890 -0.2047
 2849TIP3    H1 8553   4.513   1.670   4.474  3.6508  0.3989 -2.2747
 2849TIP3    H2 8554   4.573   1.725   4.602 -0.0568 -0.2420 -0.1133
 2850TIP3   OH2 8555   4.388   3.840   2.206 -0.1710  0.0255 -0.2604
 2850TIP3    H1 8556   4.372   3.745   2.213  0.5800 -0.1075 -0.3201
 2850TIP3    H2 8557   4.429   3.851   2.121 -1.1802  0.5451 -0.6991
 2851TIP3   OH2 8558   3.877   4.767   0.687  0.0552  0.3218  0.5296
 2851TIP3    H1 8559   3.941   4.755   0.757  1.1002  1.2467 -0.2315
 2851TIP3    H2 8560   3.839   4.853   0.703  1.4601  1.2630 -0.8915
 2852TIP3   OH2 8561   5.830   0.779   4.318  0.1136 -0.0463  0.2212
 2852TIP3    H1 8562   5.785   0.860   4.340  1.4752  1.0359 -0.7379
 2852TIP3    H2 8563   5.922   0.805   4.311  0.3909 -1.3183 -1.6441
 2853TIP3   OH2 8564   0.246   1.592   2.432  0.1003  0.3849  0.1236
 2853TIP3    H1 8565   0.174   1.561   2.487 -1.0633  0.1488 -1.4827
 2853TIP3    H2 8566   0.234   1.687   2.428  0.7024  0.5146  0.9298
 2854TIP3   OH2 8567   4.854   1.469   1.224  0.2583  0.4125  0.2487
 2854TIP3    H1 8568   4.806   1.551   1.213  0.1610  0.1179 -2.0590
 2854TIP3    H2 8569   4.908   1.462   1.145 -1.2110 -2.6509 -0.6675
 2855TIP3   OH2 8570   3.362   0.465   3.894  0.0513 -0.1811  0.1650
 2855TIP3    H1 8571   3.394   0.525   3.827 -1.4557 -0.1279 -0.5438
 2855TIP3    H2 8572   3.270   0.488   3.904  0.3006  0.0423  2.5265
 2856TIP3   OH2 8573   2.479   3.582   3.610  0.4257 -0.0477 -0.2602
 2856TIP3    H1 8574   2.512   3.590   3.520  1.7481 -0.8123  0.1218
 2856TIP3    H2 8575   2.558   3.581   3.664 -0.3669  1.6741  1.0539
 2857TIP3   OH2 8576   5.646   0.002   4.809 -0.8294 -0.0320  0.0396
 2857TIP3    H1 8577   5.709  -0.013   4.879 -0.8303 -1.3682 -0.2268
 2857TIP3    H2 8578   5.697   0.043   4.739 -0.5307  0.0415  0.2979
 2858TIP3   OH2 8579   6.304   0.315   0.251  0.2306 -0.6152 -0.0813
 2858TIP3    H1 8580   6.333   0.324   0.160 -0.9366  1.7805 -0.2830
 2858TIP3    H2 8581   6.289   0.221   0.261  2.3980 -1.2312 -1.6765
 2859TIP3   OH2 8582   1.855   4.403   3.267  0.7097  0.8626 -0.4787
 2859TIP3    H1 8583   1.800   4.392   3.190 -1.4435  1.4029  0.8941
 2859TIP3    H2 8584   1.903   4.484   3.251  0.2728  0.9783 -1.2568
 2860TIP3   OH2 8585   4.862   1.130   1.776  0.3685  0.6212 -0.1995
 2860TIP3    H1 8586   4.774   1.146   1.741 -0.1800 -0.4419  0.6148
 2860TIP3    H2 8587   4.901   1.217   1.786 -0.4737  1.0853 -0.8704
 2861TIP3   OH2 8588   3.910   2.785   0.797 -0.2285 -0.4056  0.7169
 2861TIP3    H1 8589   3.903   2.738   0.713  0.0339  0.2386  0.3289
 2861TIP3    H2 8590   3.995   2.829   0.794  0.9698 -2.4255  2.4188
 2862TIP3   OH2 8591   1.272   0.237   4.042  0.1040  0.7939 -0.1897
 2862TIP3    H1 8592   1.308   0.163   4.090 -1.0931  0.2559 -0.0710
 2862TIP3    H2 8593   1.313   0.232   3.955 -0.3533 -0.3450 -0.3593
 2863TIP3   OH2 8594   2.531   0.849   2.360  0.0173 -0.3546 -0.3916
 2863TIP3    H1 8595   2.621   0.819   2.360  0.2658  0.3719 -0.6213
 2863TIP3    H2 8596   2.488   0.796   2.426  0.8735  0.0593  0.5163
 2864TIP3   OH2 8597   5.049   4.614   3.051  0.2683 -0.1415 -0.7050
 2864TIP3    H1 8598   5.099   4.654   2.980 -0.8212  2.0843 -0.3096
 2864TIP3    H2 8599   4.958   4.633   3.031 -0.0734  0.5348  1.2077
 2865TIP3   OH2 8600   1.603   0.980   2.911 -0.1463  0.2326  0.2834
 2865TIP3    H1 8601   1.536   0.918   2.881  0.8579  0.0692 -1.8063
 2865TIP3    H2 8602   1.584   1.061   2.863 -0.6588  1.1886  2.0139
 2866TIP3   OH2 8603   0.663   1.495   4.807 -0.2157  0.0060 -0.2719
 2866TIP3    H1 8604   0.645   1.410   4.847 -0.0768  0.6556  1.2309
 2866TIP3    H2 8605   0.749   1.519   4.841 -0.5945  1.0969 -0.0543
 2867TIP3   OH2 8606   5.748   0.782   2.586 -0.2494 -0.4569 -0.0035
 2867TIP3    H1 8607   5.840   0.758   2.574 -0.2212  0.0894 -1.0251
 2867TIP3    H2 8608   5.734   0.779   2.680  0.8356 -0.4559  0.1703
 2868TIP3   OH2 8609   5.061   4.638   4.998  0.0322 -0.4526 -0.4008
 2868TIP3    H1 8610   5.041   4.627   5.091 -2.7455  0.3730 -0.7956
 2868TIP3    H2 8611   5.084   4.731   4.989  0.1786 -0.5012 -0.5366
 2869TIP3   OH2 8612   0.368   2.939   2.741  0.0123 -0.0769  0.5910
 2869TIP3    H1 8613   0.312   3.014   2.722 -0.4028  0.1980  2.6494
 2869TIP3    H2 8614   0.317   2.864   2.711  0.0074  0.3782 -0.5824
 2870TIP3   OH2 8615   3.729   2.516   2.346 -0.4580  0.1458 -0.0297
 2870TIP3    H1 8616   3.808   2.521   2.293  1.8779 -0.5857  3.0917
 2870TIP3    H2 8617   3.718   2.604   2.381  1.4626 -0.5368  2.6235
 2871TIP3   OH2 8618   4.111   0.701   2.020  0.7628 -0.3193  0.0184
 2871TIP3    H1 8619   4.117   0.632   2.086  1.4576 -1.1531 -0.8881
 2871TIP3    H2 8620   4.029   0.746   2.039  1.0659 -0.3799  1.5915
 2872TIP3   OH2 8621   4.451   2.433   3.510 -0.0716 -0.3667 -0.3064
 2872TIP3    H1 8622   4.391   2.499   3.475 -0.1442  0.2631  0.9430
 2872TIP3    H2 8623   4.534   2.451   3.467  0.0021  0.8023  0.2829
 2873TIP3   OH2 8624   1.183   4.884   1.723 -0.4743 -0.5690  0.1882
 2873TIP3    H1 8625   1.235   4.807   1.746  1.1832  0.5074  0.1903
 2873TIP3    H2 8626   1.247   4.953   1.708 -1.9505  1.2209  1.6116
 2874TIP3   OH2 8627   4.170   5.886   2.555 -0.1530 -0.2500  0.2954
 2874TIP3    H1 8628   4.219   5.906   2.475 -1.6244  1.9269 -0.1456
 2874TIP3    H2 8629   4.237   5.888   2.625  0.7822  0.1816 -0.5837
 2875TIP3   OH2 8630   1.734   4.042   3.268  0.2905  0.4754  0.4972
 2875TIP3    H1 8631   1.743   4.121   3.322  0.3922  0.6918  0.1711
 2875TIP3    H2 8632   1.640   4.032   3.256  0.2987  1.0287 -0.1419
 2876TIP3   OH2 8633   5.528   5.074   0.091  0.6111  0.1876  0.3672
 2876TIP3    H1 8634   5.505   4.982   0.101  1.6673 -0.2715 -1.1427
 2876TIP3    H2 8635   5.465   5.120   0.146 -0.4098 -1.3721  0.5742
 2877TIP3   OH2 8636   4.239   1.316   2.105  0.4871  0.1660  0.4515
 2877TIP3    H1 8637   4.201   1.260   2.037 -0.3686  0.1740  0.9055
 2877TIP3    H2 8638   4.206   1.280   2.187 -0.0060  1.2590  0.7631
 2878TIP3   OH2 8639   3.170   4.991   2.673  0.3593  0.7988  0.1133
 2878TIP3    H1 8640   3.126   5.056   2.618 -1.2758  0.6524  1.1620
 2878TIP3    H2 8641   3.203   4.926   2.612 -0.9310  0.9202 -0.7523
 2879TIP3   OH2 8642   3.267   3.514   3.492  0.3562 -0.1462 -0.0786
 2879TIP3    H1 8643   3.183   3.514   3.447  1.0943 -0.0047 -1.5087
 2879TIP3    H2 8644   3.329   3.479   3.428  1.8490  2.1663 -0.0093
 2880TIP3   OH2 8645   6.255   3.795   1.297  0.2551  0.1665  0.0891
 2880TIP3    H1 8646   6.209   3.820   1.377 -0.6009 -1.3872  0.1106
 2880TIP3    H2 8647   6.347   3.790   1.323  0.0732  0.3763  0.8002
 2881TIP3   OH2 8648   2.432   0.555   4.539  0.3462 -0.2373  0.1164
 2881TIP3    H1 8649   2.345   0.594   4.531  0.7081  0.1348 -2.9349
 2881TIP3    H2 8650   2.415   0.461   4.552 -0.4738  0.0499  1.2625
 2882TIP3   OH2 8651   4.513   1.624   0.991  0.4705  0.3751  0.4833
 2882TIP3    H1 8652   4.553   1.540   0.970  1.0211  1.0964 -1.5488
 2882TIP3    H2 8653   4.561   1.688   0.939 -0.6055  1.8314  1.1989
 2883TIP3   OH2 8654   4.748   5.267   1.534  0.1829  0.3176  0.2745
 2883TIP3    H1 8655   4.718   5.192   1.585 -1.2549  1.1958  0.7799
 2883TIP3    H2 8656   4.795   5.321   1.598 -1.1646  1.1607  0.5883
 2884TIP3   OH2 8657   0.533   0.726   4.497 -0.4214 -0.2825 -0.1765
 2884TIP3    H1 8658   0.554   0.642   4.537  0.1121 -1.7818 -3.2627
 2884TIP3    H2 8659   0.439   0.735   4.509 -0.8331 -2.3197 -1.3316
 2885TIP3   OH2 8660   0.912   3.950   0.044 -0.0307  0.2754  0.1000
 2885TIP3    H1 8661   0.886   3.900   0.122  0.5041 -1.9441 -1.0638
 2885TIP3    H2 8662   0.905   4.042   0.071 -0.1294 -0.4066  2.6683
 2886TIP3   OH2 8663   4.054   2.819   1.647 -0.2212 -0.5006 -0.1486
 2886TIP3    H1 8664   4.113   2.892   1.631  0.7103 -1.3255 -0.6032
 2886TIP3    H2 8665   3.972   2.860   1.675 -0.1074  0.7566 -1.5277
 2887TIP3   OH2 8666   1.243   1.449   3.987  0.0867  0.1484  0.3812
 2887TIP3    H1 8667   1.153   1.438   3.959  0.0386  2.7217 -0.7464
 2887TIP3    H2 8668   1.238   1.462   4.082 -0.5897 -0.6415  0.4635
 2888TIP3   OH2 8669   1.135   4.939   2.987  1.0747  0.1453  0.0808
 2888TIP3    H1 8670   1.184   4.965   2.910  2.9588 -0.1836  1.1245
 2888TIP3    H2 8671   1.196   4.888   3.040 -0.1259  0.4098  1.8375
 2889TIP3   OH2 8672   2.049   2.976   1.474 -0.2047 -0.6250 -0.8416
 2889TIP3    H1 8673   2.126   2.919   1.467 -1.9988 -3.1198 -1.6515
 2889TIP3    H2 8674   2.029   2.979   1.568 -0.1023 -1.3733 -0.7931
 2890TIP3   OH2 8675   1.726   1.087   0.886  0.1358  0.2778 -0.0908
 2890TIP3    H1 8676   1.812   1.046   0.891  0.1052  0.1158 -0.7863
 2890TIP3    H2 8677   1.666   1.015   0.868  0.4754  0.8774 -4.9945
 2891TIP3   OH2 8678   1.169   0.120   0.428  0.4901 -0.2596 -0.8955
 2891TIP3    H1 8679   1.177   0.151   0.338  2.0972  0.2626 -0.6166
 2891TIP3    H2 8680   1.230   0.046   0.433 -0.4179 -0.9924 -0.5230
 2892TIP3   OH2 8681   3.646   0.874   0.967 -0.4613  0.2470 -0.1517
 2892TIP3    H1 8682   3.581   0.808   0.991  1.9660 -1.5894  1.8296
 2892TIP3    H2 8683   3.677   0.847   0.880 -0.4576 -0.4282  0.0548
 2893TIP3   OH2 8684   2.214   4.550   1.320  0.0102  0.4843 -0.1043
 2893TIP3    H1 8685   2.300   4.554   1.362 -1.0844  0.8858  2.2847
 2893TIP3    H2 8686   2.182   4.641   1.323 -1.8185 -0.1099  2.2231
 2894TIP3   OH2 8687   3.755   5.141   1.858  0.4575 -0.1351  0.4823
 2894TIP3    H1 8688   3.743   5.063   1.804  2.4841 -0.6889  0.7378
 2894TIP3    H2 8689   3.669   5.156   1.897 -0.5259 -0.9415 -1.2492
 2895TIP3   OH2 8690   5.827   2.184   2.155  0.0121 -0.1063  0.2774
 2895TIP3    H1 8691   5.796   2.198   2.244  0.5994 -0.4225  0.5391
 2895TIP3    H2 8692   5.923   2.192   2.161 -0.0519  2.2769 -0.7700
 2896TIP3   OH2 8693   2.392   0.253   1.251  0.3980  0.6245 -0.1891
 2896TIP3    H1 8694   2.396   0.338   1.296 -0.2113  0.5068  0.1000
 2896TIP3    H2 8695   2.462   0.257   1.186  1.1106  0.9145  0.5736
 2897TIP3   OH2 8696   3.285   4.109   4.388 -0.2678 -0.2124 -1.0114
 2897TIP3    H1 8697   3.307   4.084   4.478  0.1931  0.4189 -0.9400
 2897TIP3    H2 8698   3.269   4.026   4.343  0.9185 -0.6329 -0.7050
 2898TIP3   OH2 8699   5.538   0.612   1.507 -0.2798  0.0232 -0.2762
 2898TIP3    H1 8700   5.564   0.688   1.559  1.4829 -0.0600 -0.9592
 2898TIP3    H2 8701   5.451   0.590   1.538  0.2924  0.6114  1.9062
 2899TIP3   OH2 8702   5.339   2.686   1.766 -0.0472  0.3376  0.3133
 2899TIP3    H1 8703   5.277   2.712   1.834  0.7048 -2.2069  2.1335
 2899TIP3    H2 8704   5.289   2.626   1.711 -0.0770  0.7930 -0.1603
 2900TIP3   OH2 8705   3.911   1.008   0.211 -0.0077  0.0312 -0.3214
 2900TIP3    H1 8706   3.925   1.053   0.127 -1.5669  1.1905 -0.0114
 2900TIP3    H2 8707   3.923   1.076   0.277 -1.0508 -0.3129  0.2444
 2901TIP3   OH2 8708   5.957   3.220   4.588  0.0583 -0.0447  0.2918
 2901TIP3    H1 8709   5.904   3.178   4.656  1.8271  0.9369  2.4366
 2901TIP3    H2 8710   6.018   3.153   4.559 -1.1711 -0.6808 -0.9441
 2902TIP3   OH2 8711   0.501   5.755   1.386  0.1594  0.4920  0.1270
 2902TIP3    H1 8712   0.489   5.804   1.305  1.0995 -0.1874 -0.4393
 2902TIP3    H2 8713   0.500   5.663   1.359 -0.1336  0.2313  0.9793
 2903TIP3   OH2 8714   4.228   4.662   0.685 -0.0713 -0.1258  0.1113
 2903TIP3    H1 8715   4.317   4.634   0.662 -0.5965 -1.0650 -0.8766
 2903TIP3    H2 8716   4.206   4.608   0.761 -0.0180 -0.3224 -0.0121
 2904TIP3   OH2 8717   0.647   0.828   3.218 -0.1363 -0.1542  0.1993
 2904TIP3    H1 8718   0.635   0.744   3.174 -1.0505  0.2495 -0.3486
 2904TIP3    H2 8719   0.631   0.809   3.311  1.4595 -0.9346  0.3510
 2905TIP3   OH2 8720   3.301   5.962   4.001 -0.0607 -0.0713 -0.1191
 2905TIP3    H1 8721   3.376   5.968   3.942  0.2479 -0.0511  0.2717
 2905TIP3    H2 8722   3.316   5.882   4.051 -0.7223 -0.5086 -0.6068
 2906TIP3   OH2 8723   1.824   4.404   2.029 -0.8650  0.5959  0.0716
 2906TIP3    H1 8724   1.747   4.361   2.067  0.3527 -1.7022  0.1260
 2906TIP3    H2 8725   1.788   4.471   1.972 -2.9221 -0.3457  0.1523
 2907TIP3   OH2 8726   0.195   4.555   2.689 -0.2159 -0.2077 -0.1086
 2907TIP3    H1 8727   0.133   4.600   2.632  1.3006  1.3735 -0.6138
 2907TIP3    H2 8728   0.189   4.463   2.664 -0.6446  0.2491 -1.7944
 2908TIP3   OH2 8729   4.079   1.695   4.702  0.1148  0.0322  0.6740
 2908TIP3    H1 8730   4.142   1.746   4.652  2.1871 -2.2097  0.8131
 2908TIP3    H2 8731   4.096   1.718   4.793 -1.1677  1.3805  0.6231
 2909TIP3   OH2 8732   1.910   1.270   4.670 -0.0822 -0.7476  0.0572
 2909TIP3    H1 8733   1.950   1.357   4.679 -0.4919 -0.4831 -0.5824
 2909TIP3    H2 8734   1.984   1.211   4.659  0.3447 -0.7981  2.5449
 2910TIP3   OH2 8735   2.658   5.573   5.016 -0.7689 -0.0931 -0.5438
 2910TIP3    H1 8736   2.630   5.518   5.089 -0.8223  0.2287 -0.3247
 2910TIP3    H2 8737   2.611   5.655   5.027 -0.2650  0.1993 -0.5610
 2911TIP3   OH2 8738   5.558   5.713   4.806  0.0439  0.2930 -0.0786
 2911TIP3    H1 8739   5.519   5.794   4.772  0.3198  0.6106  0.3483
 2911TIP3    H2 8740   5.498   5.644   4.776  0.9255  0.3929 -2.2485
 2912TIP3   OH2 8741   0.465   5.334   2.342 -0.5377 -0.2972 -0.3714
 2912TIP3    H1 8742   0.420   5.249   2.346 -0.8973 -0.1200 -0.6622
 2912TIP3    H2 8743   0.555   5.314   2.370 -1.1118 -0.4152  1.5329
 2913TIP3   OH2 8744   5.387   3.270   1.661 -0.1819 -0.2752  0.1546
 2913TIP3    H1 8745   5.408   3.313   1.744  0.1847 -1.5804  0.7740
 2913TIP3    H2 8746   5.472   3.257   1.619 -0.4397  1.3030 -0.9415
 2914TIP3   OH2 8747   4.787   4.702   1.622 -0.3044  0.3699 -0.6040
 2914TIP3    H1 8748   4.788   4.628   1.682  0.1554 -0.6902 -1.8806
 2914TIP3    H2 8749   4.875   4.740   1.629 -0.0940 -0.0477 -0.9569
 2915TIP3   OH2 8750   0.264   1.222   0.382 -0.1177 -0.2919  0.3931
 2915TIP3    H1 8751   0.193   1.285   0.369  0.5696  0.3536 -0.3864
 2915TIP3    H2 8752   0.319   1.231   0.304  0.3484 -1.4092  0.5677
 2916TIP3   OH2 8753   3.537   5.174   2.003  0.5338 -0.1148 -0.0177
 2916TIP3    H1 8754   3.534   5.099   2.062 -0.8011  0.3247  0.5256
 2916TIP3    H2 8755   3.542   5.250   2.061 -2.5611  0.4430 -0.2674
 2917TIP3   OH2 8756   3.030   0.940   2.112  0.1558 -0.3719  0.2090
 2917TIP3    H1 8757   2.940   0.922   2.086 -0.4440  0.4043  1.6279
 2917TIP3    H2 8758   3.065   0.855   2.137 -0.6358 -0.4985  0.9380
 2918TIP3   OH2 8759   2.381   5.708   0.780 -0.3390 -0.2722  0.2994
 2918TIP3    H1 8760   2.440   5.774   0.815  1.4898 -1.0654 -1.1484
 2918TIP3    H2 8761   2.320   5.757   0.725  0.7970  0.2733 -0.5077
 2919TIP3   OH2 8762   5.187   5.214   1.214  0.2265 -0.0595 -0.2877
 2919TIP3    H1 8763   5.150   5.151   1.152 -3.2855 -0.1774  1.6840
 2919TIP3    H2 8764   5.218   5.160   1.287 -1.0314  0.3076  0.5540
 2920TIP3   OH2 8765   2.967   4.394   4.259  0.0078  0.1276 -0.0723
 2920TIP3    H1 8766   3.047   4.399   4.311 -0.4506 -0.0009  0.6568
 2920TIP3    H2 8767   2.903   4.355   4.318 -0.4003 -0.4618 -0.8876
 2921TIP3   OH2 8768   0.987   1.007   1.655  0.5110 -0.0995  0.7194
 2921TIP3    H1 8769   1.075   1.020   1.692 -0.7145  0.8383  3.5494
 2921TIP3    H2 8770   0.930   1.062   1.708 -1.9492 -1.3665 -0.4551
 2922TIP3   OH2 8771   1.860   5.934   0.948 -0.2582 -0.3481  0.1843
 2922TIP3    H1 8772   1.875   6.023   0.916 -0.8270 -0.4996 -0.5321
 2922TIP3    H2 8773   1.785   5.941   1.007  0.5292 -0.1393  1.1853
 2923TIP3   OH2 8774   4.071   2.722   2.709  0.0839  0.3054 -0.3603
 2923TIP3    H1 8775   4.023   2.777   2.771  0.9672  0.0178  0.6071
 2923TIP3    H2 8776   4.040   2.751   2.623 -0.7588  1.0999  0.1858
 2924TIP3   OH2 8777   3.956   3.678   3.895  0.2211 -0.4674  0.2963
 2924TIP3    H1 8778   4.045   3.698   3.925  0.6010  0.1466 -1.1866
 2924TIP3    H2 8779   3.911   3.763   3.894  0.3132 -0.4112 -1.1209
 2925TIP3   OH2 8780   3.705   3.474   0.163 -0.0636 -0.0518 -0.6508
 2925TIP3    H1 8781   3.671   3.428   0.239 -0.1414  1.1089  0.0344
 2925TIP3    H2 8782   3.783   3.425   0.138  0.3222 -0.0874  0.5710
 2926TIP3   OH2 8783   1.972   1.623   0.207  0.2851  0.4159  1.0118
 2926TIP3    H1 8784   1.920   1.698   0.236  0.8493  1.6256 -0.9284
 2926TIP3    H2 8785   1.923   1.588   0.133  1.0778  0.1576  0.6031
 2927TIP3   OH2 8786   1.993   2.723   2.940  0.1257  0.3536 -0.0860
 2927TIP3    H1 8787   1.978   2.814   2.966  0.8800  0.3562  0.3673
 2927TIP3    H2 8788   1.944   2.672   3.004 -0.8474  0.4456 -0.7359
 2928TIP3   OH2 8789   2.200   5.246   0.589 -0.4393  0.6678 -0.4770
 2928TIP3    H1 8790   2.264   5.176   0.602  0.3308  0.9125 -2.6020
 2928TIP3    H2 8791   2.215   5.306   0.662  0.9602  0.1186 -0.2812
 2929TIP3   OH2 8792   2.332   4.782   0.585  0.6334  0.2771  0.2603
 2929TIP3    H1 8793   2.323   4.717   0.516  1.3241  0.9060 -0.4496
 2929TIP3    H2 8794   2.328   4.732   0.666 -1.5395 -0.3086 -0.1687
 2930TIP3   OH2 8795   0.425   3.095   0.684  0.3350 -0.4583  0.0328
 2930TIP3    H1 8796   0.404   3.021   0.741  1.6217 -0.5490  0.4349
 2930TIP3    H2 8797   0.423   3.171   0.741  0.0238 -0.3283 -0.1538
 2931TIP3   OH2 8798   2.651   1.803   2.314  0.2745 -0.6186  0.0467
 2931TIP3    H1 8799   2.640   1.843   2.401 -0.4458 -2.0491  0.6629
 2931TIP3    H2 8800   2.655   1.876   2.254 -1.2022  0.3829  1.0956
 2932TIP3   OH2 8801   5.662   2.796   4.013 -0.0860 -0.5719 -0.7355
 2932TIP3    H1 8802   5.578   2.814   4.055 -0.3815 -1.5801 -0.8724
 2932TIP3    H2 8803   5.725   2.848   4.063 -0.8728  0.7815 -1.1009
 2933TIP3   OH2 8804   1.434   5.267   2.515 -0.1996 -0.6507 -0.2706
 2933TIP3    H1 8805   1.444   5.355   2.479 -0.9882 -0.3936  0.0949
 2933TIP3    H2 8806   1.522   5.231   2.516 -0.0700 -0.4576 -1.8838
 2934TIP3   OH2 8807   4.372   5.313   4.450 -0.0672 -0.8576 -0.3052
 2934TIP3    H1 8808   4.284   5.313   4.414 -0.1768  0.6517 -0.0932
 2934TIP3    H2 8809   4.377   5.231   4.499 -1.4650 -0.8318 -0.0627
 2935TIP3   OH2 8810   2.430   2.725   3.209 -0.1364  0.3440  0.0301
 2935TIP3    H1 8811   2.464   2.730   3.299 -0.5127 -0.7412  0.2555
 2935TIP3    H2 8812   2.413   2.631   3.196 -0.6205  0.5631 -0.9759
 2936TIP3   OH2 8813   5.677   4.107   2.506  0.2828 -0.0834  0.1285
 2936TIP3    H1 8814   5.750   4.168   2.500 -0.9433  1.3319 -1.5605
 2936TIP3    H2 8815   5.691   4.045   2.434  1.6957 -2.1292  2.0257
 2937TIP3   OH2 8816   4.371   1.937   1.170 -0.1335  0.1373 -0.3110
 2937TIP3    H1 8817   4.356   1.969   1.081 -0.9995  2.2610  0.5069
 2937TIP3    H2 8818   4.455   1.975   1.195  0.3347 -0.8411 -0.3572
 2938TIP3   OH2 8819   3.072   0.012   1.322 -0.3616 -0.4655  0.2184
 2938TIP3    H1 8820   2.978   0.014   1.302 -0.3733  2.1395  0.2776
 2938TIP3    H2 8821   3.076  -0.025   1.411 -1.4297  0.2721  0.5985
 2939TIP3   OH2 8822   0.372   4.736   1.513  0.5816 -0.4167 -0.2427
 2939TIP3    H1 8823   0.353   4.808   1.574  1.7535 -0.1426 -0.1679
 2939TIP3    H2 8824   0.289   4.689   1.505 -0.5298  1.5280 -1.0834
 2940TIP3   OH2 8825   6.229   0.375   1.497  0.2488  0.0144 -0.0189
 2940TIP3    H1 8826   6.272   0.416   1.422 -0.0553 -0.1478 -0.2820
 2940TIP3    H2 8827   6.225   0.282   1.474  3.1344 -0.6485  1.5754
 2941TIP3   OH2 8828   5.517   2.840   0.145  0.2291  0.3680 -0.1665
 2941TIP3    H1 8829   5.435   2.873   0.108 -0.5846  0.2495  1.4296
 2941TIP3    H2 8830   5.522   2.881   0.232  1.2514 -0.5565  0.2303
 2942TIP3   OH2 8831   1.707   0.927   0.416 -0.0978  0.2778 -0.7691
 2942TIP3    H1 8832   1.670   0.984   0.483  1.9030 -0.4770  1.1191
 2942TIP3    H2 8833   1.768   0.982   0.367  0.7063  0.1545  0.0660
 2943TIP3   OH2 8834   2.262   4.762   3.273  0.0466 -0.0595 -0.5129
 2943TIP3    H1 8835   2.221   4.692   3.222  0.8904 -1.5813  0.8057
 2943TIP3    H2 8836   2.189   4.812   3.309 -0.6521 -1.7764  0.5518
 2944TIP3   OH2 8837   3.394   5.596   3.594 -0.4375  1.3912 -0.0358
 2944TIP3    H1 8838   3.430   5.582   3.682  1.7993  1.1996 -0.9328
 2944TIP3    H2 8839   3.455   5.553   3.535 -1.9722  1.3928 -1.7212
 2945TIP3   OH2 8840   0.996   1.034   2.299 -0.5269 -0.0683 -0.4311
 2945TIP3    H1 8841   0.934   0.973   2.340 -0.6840 -0.4486 -1.2280
 2945TIP3    H2 8842   0.986   1.020   2.205  0.2681  0.3693 -0.5906
 2946TIP3   OH2 8843   3.513   1.219   2.246  0.8219  0.5092  0.0287
 2946TIP3    H1 8844   3.478   1.150   2.189  0.1064 -0.5990  1.6997
 2946TIP3    H2 8845   3.601   1.188   2.270  1.0225  0.8431 -0.2798
 2947TIP3   OH2 8846   1.449   2.562   0.387 -0.0817  0.2239  0.0929
 2947TIP3    H1 8847   1.451   2.657   0.382  0.3563  0.2064 -0.1199
 2947TIP3    H2 8848   1.493   2.542   0.470 -1.1938  0.2438  0.7120
 2948TIP3   OH2 8849   4.372   1.243   0.405 -0.1703 -0.3324 -0.0855
 2948TIP3    H1 8850   4.302   1.255   0.469 -0.6533 -0.4029 -0.5901
 2948TIP3    H2 8851   4.426   1.173   0.440  0.2342  0.4007  0.8034
 2949TIP3   OH2 8852   2.718   4.180   4.632  0.6550  0.0146 -0.1720
 2949TIP3    H1 8853   2.809   4.202   4.652  0.4184  0.8799  0.0269
 2949TIP3    H2 8854   2.696   4.110   4.694  1.2469 -0.3492 -0.3684
 2950TIP3   OH2 8855   3.964   2.588   1.559 -0.1932 -0.4662  0.1795
 2950TIP3    H1 8856   3.991   2.671   1.599 -2.8606  1.3674 -1.4681
 2950TIP3    H2 8857   4.040   2.558   1.510  1.0666  0.5606  1.4176
 2951TIP3   OH2 8858   0.437   2.446   2.530  0.1191 -0.0782  0.6243
 2951TIP3    H1 8859   0.521   2.487   2.507  0.5267 -0.4308  1.4288
 2951TIP3    H2 8860   0.456   2.398   2.611 -0.5260 -1.2820  0.0778
 2952TIP3   OH2 8861   2.179   2.161   2.329  0.0506  0.2630  0.3962
 2952TIP3    H1 8862   2.242   2.230   2.309 -0.3137  0.1860 -1.2145
 2952TIP3    H2 8863   2.224   2.080   2.307 -0.1093  0.1075  0.6402
 2953TIP3   OH2 8864   0.374   1.466   4.816 -0.5870  0.2300  0.5644
 2953TIP3    H1 8865   0.469   1.482   4.817 -0.2972 -1.3666  1.4263
 2953TIP3    H2 8866   0.346   1.484   4.906 -0.9450 -0.1618  0.5312
 2954TIP3   OH2 8867   3.069   5.287   2.649 -0.1009  0.2312 -0.8372
 2954TIP3    H1 8868   3.070   5.285   2.745  1.3507 -0.5646 -0.8412
 2954TIP3    H2 8869   3.074   5.380   2.628 -1.0636  0.4514 -0.1483
 2955TIP3   OH2 8870   5.040   5.055   2.414  0.0409  0.6700 -0.3337
 2955TIP3    H1 8871   5.102   5.052   2.487 -0.6260 -1.8781  0.2159
 2955TIP3    H2 8872   5.092   5.028   2.338 -0.5279 -2.9923  0.3771
 2956TIP3   OH2 8873   5.460   3.754   2.692  0.2896  0.3363  0.0539
 2956TIP3    H1 8874   5.545   3.795   2.706  0.6644 -0.1944 -0.6393
 2956TIP3    H2 8875   5.446   3.758   2.597 -1.6145  2.6861  0.3380
 2957TIP3   OH2 8876   2.807   1.095   1.244 -0.1195  0.3274 -0.4369
 2957TIP3    H1 8877   2.775   1.036   1.177 -2.4703  0.8222  0.1477
 2957TIP3    H2 8878   2.825   1.039   1.320  0.0819  0.0713 -0.6753
 2958TIP3   OH2 8879   2.952   5.256   1.567  0.0029 -0.3464 -0.4162
 2958TIP3    H1 8880   2.877   5.290   1.616  0.8186 -1.3672  1.6269
 2958TIP3    H2 8881   3.001   5.334   1.541 -0.2956  0.2297  0.6855
 2959TIP3   OH2 8882   1.064   1.482   2.679 -0.2995 -0.2867 -0.1718
 2959TIP3    H1 8883   1.114   1.420   2.625  1.4602  0.8347  0.0982
 2959TIP3    H2 8884   1.026   1.543   2.616 -0.8502 -0.8081 -0.3459
 2960TIP3   OH2 8885   2.833   2.299   2.564 -0.0970  0.0570 -0.0514
 2960TIP3    H1 8886   2.774   2.271   2.634  0.8375 -0.0827  0.6982
 2960TIP3    H2 8887   2.837   2.224   2.505  1.4799 -1.0060  1.3378
 2961TIP3   OH2 8888   2.139   0.267   4.120 -0.2118 -0.2191  0.1899
 2961TIP3    H1 8889   2.175   0.185   4.088 -0.8385 -1.2718  2.0350
 2961TIP3    H2 8890   2.055   0.276   4.076 -0.0131 -0.4146 -0.2285
 2962TIP3   OH2 8891   4.080   3.945   0.359 -0.1011  0.4186  0.2665
 2962TIP3    H1 8892   4.051   3.862   0.322 -0.7877  0.7280  0.0954
 2962TIP3    H2 8893   4.165   3.961   0.318  0.8951 -1.0613  1.6492
 2963TIP3   OH2 8894   3.982   1.646   0.166 -0.3835 -0.9049 -0.2910
 2963TIP3    H1 8895   3.912   1.684   0.220  0.1461  0.8921 -0.8285
 2963TIP3    H2 8896   4.060   1.653   0.220 -0.0274  0.0563 -0.9023
 2964TIP3   OH2 8897   0.177   3.317   3.201 -0.2314 -0.0138  0.1685
 2964TIP3    H1 8898   0.216   3.300   3.287 -1.6870 -0.8433  0.6968
 2964TIP3    H2 8899   0.179   3.233   3.156 -0.4314  0.1848 -0.2168
 2965TIP3   OH2 8900   2.693   0.498   1.381 -0.0220 -0.5240  0.0647
 2965TIP3    H1 8901   2.712   0.408   1.355  0.9835  0.2202 -1.9984
 2965TIP3    H2 8902   2.688   0.546   1.299 -0.1762  1.3795  1.1280
 2966TIP3   OH2 8903   4.126   0.185   0.896  0.0892 -0.3428 -0.1726
 2966TIP3    H1 8904   4.065   0.253   0.926  1.5387  0.0265  2.1017
 2966TIP3    H2 8905   4.212   0.217   0.920  0.9891 -2.1139 -0.8585
 2967TIP3   OH2 8906   3.368   3.553   3.035  0.1318  0.2034 -0.0735
 2967TIP3    H1 8907   3.433   3.484   3.031 -2.9085 -3.1167  2.0120
 2967TIP3    H2 8908   3.335   3.552   3.125 -1.5057  3.0029 -0.4922
 2968TIP3   OH2 8909   2.037   0.591   4.285  0.1917  0.0302  0.1017
 2968TIP3    H1 8910   1.988   0.597   4.366  0.1329  0.7937  0.0111
 2968TIP3    H2 8911   1.971   0.579   4.217  0.1215  1.0191 -0.0156
 2969TIP3   OH2 8912   5.926   0.287   4.042 -0.0976  0.9700  0.5643
 2969TIP3    H1 8913   5.971   0.204   4.025  0.4868  1.5620 -0.9508
 2969TIP3    H2 8914   5.994   0.354   4.029 -0.8055  1.7399  0.7624
 2970TIP3   OH2 8915   1.331   4.167   2.143  0.4888  0.0010  0.1015
 2970TIP3    H1 8916   1.241   4.189   2.121 -0.1346 -0.9248  1.5832
 2970TIP3    H2 8917   1.374   4.152   2.058 -0.5821  0.9838 -0.6445
 2971TIP3   OH2 8918   1.157   2.858   0.420  0.1340  0.3904 -0.3450
 2971TIP3    H1 8919   1.064   2.878   0.430  0.2632  0.4773  0.8936
 2971TIP3    H2 8920   1.196   2.881   0.505  0.9154 -1.6145 -0.1017
 2972TIP3   OH2 8921   5.632   2.386   4.452  0.3503 -0.1055  0.0908
 2972TIP3    H1 8922   5.723   2.357   4.464  0.8956  0.7069 -1.6579
 2972TIP3    H2 8923   5.627   2.409   4.359 -1.8040 -0.5831  0.0449
 2973TIP3   OH2 8924   4.475   1.321   1.946  0.2050  0.4259  0.4991
 2973TIP3    H1 8925   4.381   1.321   1.961  0.1239  1.3801  0.0994
 2973TIP3    H2 8926   4.507   1.396   1.996  0.9491 -0.6298  1.6640
 2974TIP3   OH2 8927   5.705   3.143   3.033  0.2717 -0.1108  0.3481
 2974TIP3    H1 8928   5.759   3.113   2.959 -0.1676  1.3380 -0.6045
 2974TIP3    H2 8929   5.758   3.124   3.110  1.7960  0.4828 -0.4963
 2975TIP3   OH2 8930   3.754   5.187   0.078 -0.5388  0.2273  0.5360
 2975TIP3    H1 8931   3.818   5.256   0.097  1.2880 -0.7569 -1.5977
 2975TIP3    H2 8932   3.680   5.234   0.041 -0.9044  1.3444  2.5223
 2976TIP3   OH2 8933   3.995   4.020   0.713 -0.2602  0.5164 -0.8102
 2976TIP3    H1 8934   3.978   3.987   0.801 -0.1283  0.2091 -0.8996
 2976TIP3    H2 8935   3.908   4.042   0.678 -0.3151  0.6020 -0.6187
 2977TIP3   OH2 8936   5.708   3.586   4.051 -0.0597  0.1913  0.4048
 2977TIP3    H1 8937   5.687   3.676   4.077  2.0551  1.6838 -2.3891
 2977TIP3    H2 8938   5.804   3.584   4.048 -0.0635 -0.9444 -3.0605
 2978TIP3   OH2 8939   2.397   0.410   0.069 -0.1582  0.2239 -0.0070
 2978TIP3    H1 8940   2.412   0.504   0.073  0.9343  0.1273 -1.2264
 2978TIP3    H2 8941   2.312   0.398   0.111 -1.1098  1.9658 -1.2760
 2979TIP3   OH2 8942   6.324   0.638   4.774  0.3754  0.0425 -0.5328
 2979TIP3    H1 8943   6.368   0.696   4.712 -0.0328 -1.0046 -1.8549
 2979TIP3    H2 8944   6.252   0.690   4.808  1.0581  0.8883 -0.3407
 2980TIP3   OH2 8945   5.166   1.877   2.541  0.0829  0.0514  0.0520
 2980TIP3    H1 8946   5.237   1.867   2.477 -0.5484 -1.2772 -0.4559
 2980TIP3    H2 8947   5.211   1.879   2.626  0.9409  1.9844 -0.3859
 2981TIP3   OH2 8948   3.639   4.189   1.461  0.3428 -0.1260 -0.0704
 2981TIP3    H1 8949   3.663   4.280   1.476 -3.2132  0.8903  0.1972
 2981TIP3    H2 8950   3.673   4.142   1.537  0.6046  1.3109  0.7273
 2982TIP3   OH2 8951   2.144   1.054   0.389  0.5271  0.1464 -0.9010
 2982TIP3    H1 8952   2.164   1.090   0.475 -0.6365 -0.8520 -0.1731
 2982TIP3    H2 8953   2.104   1.126   0.341  0.4258  0.4809 -0.3216
 2983TIP3   OH2 8954   1.000   1.358   1.354  0.0676 -0.2585 -0.2752
 2983TIP3    H1 8955   1.007   1.276   1.404  2.9803  0.1669  0.2118
 2983TIP3    H2 8956   1.017   1.426   1.419  1.5225  0.4453 -1.3410
 2984TIP3   OH2 8957   4.063   5.446   2.055 -0.1437 -0.6082  0.0440
 2984TIP3    H1 8958   4.136   5.430   1.996  0.1115  0.6890 -0.0221
 2984TIP3    H2 8959   4.102   5.490   2.131 -0.9213  0.7269 -0.2945
 2985TIP3   OH2 8960   1.296   2.130   4.601  0.1317 -0.3646 -0.1756
 2985TIP3    H1 8961   1.246   2.156   4.678  1.8622 -0.8615  1.1845
 2985TIP3    H2 8962   1.351   2.058   4.631  1.4773 -0.0298 -1.6663
 2986TIP3   OH2 8963   0.831   1.278   1.131  0.6838 -0.0780  0.1598
 2986TIP3    H1 8964   0.904   1.334   1.103  0.3276  0.8220  1.0061
 2986TIP3    H2 8965   0.840   1.271   1.226  0.3604 -0.9752  0.1416
 2987TIP3   OH2 8966   4.177   0.142   1.258  0.0911  0.8651 -0.1741
 2987TIP3    H1 8967   4.095   0.189   1.243 -0.1795  0.4640  0.0186
 2987TIP3    H2 8968   4.244   0.209   1.258 -0.5164  1.5701  2.3768
 2988TIP3   OH2 8969   4.610   4.779   0.755 -0.6323 -0.0141 -0.8374
 2988TIP3    H1 8970   4.669   4.832   0.703  1.8846 -1.6159  0.1747
 2988TIP3    H2 8971   4.607   4.822   0.841  1.4455 -1.3922 -0.0023
 2989TIP3   OH2 8972   1.324   3.894   2.827 -0.9226  0.1613  0.3363
 2989TIP3    H1 8973   1.390   3.942   2.777 -1.7528  1.3317  0.3333
 2989TIP3    H2 8974   1.275   3.846   2.761 -1.8650  1.5173  0.0091
 2990TIP3   OH2 8975   2.974   5.774   3.232  0.0107  0.2456  0.5802
 2990TIP3    H1 8976   2.904   5.807   3.175  1.9304 -1.9322 -3.4600
 2990TIP3    H2 8977   2.934   5.701   3.279 -0.7613 -0.3489 -0.9270
 2991TIP3   OH2 8978   0.802   1.940   1.177 -0.6767  0.0356 -0.2885
 2991TIP3    H1 8979   0.788   1.947   1.272  0.2252 -3.0507  0.1654
 2991TIP3    H2 8980   0.788   2.029   1.145  0.7447  1.6243  2.9671
 2992TIP3   OH2 8981   3.074   2.380   3.915 -0.0134  0.1412  0.6817
 2992TIP3    H1 8982   3.077   2.405   3.822 -1.4074 -0.0221  0.5723
 2992TIP3    H2 8983   3.113   2.293   3.918 -0.9411 -0.3042  0.0748
 2993TIP3   OH2 8984   5.927   3.988   0.934  0.5082  0.3124 -0.0078
 2993TIP3    H1 8985   5.970   3.923   0.990  0.7574  0.0896 -0.4557
 2993TIP3    H2 8986   5.839   3.997   0.971  0.6498  0.1164  0.3766
 2994TIP3   OH2 8987   3.178   1.365   4.167 -0.2131  0.1569  0.3446
 2994TIP3    H1 8988   3.166   1.458   4.148  0.6084  0.5035  1.4435
 2994TIP3    H2 8989   3.147   1.354   4.257 -0.6712 -0.7253  0.0992
 2995TIP3   OH2 8990   0.013   3.573   1.560  0.1455 -0.6674  0.0355
 2995TIP3    H1 8991   0.021   3.593   1.467  1.4392 -0.9386  0.0728
 2995TIP3    H2 8992   0.011   3.659   1.603 -0.5764 -0.5396 -0.2389
 2996TIP3   OH2 8993   5.326   2.587   2.398 -0.0909 -0.5218  0.2654
 2996TIP3    H1 8994   5.276   2.651   2.449 -0.2167 -0.4549  0.0623
 2996TIP3    H2 8995   5.387   2.549   2.460  0.8202  0.6593  0.1213
 2997TIP3   OH2 8996   0.209   0.582   0.779 -0.0258  0.3603  0.2287
 2997TIP3    H1 8997   0.129   0.549   0.821  0.2375 -0.0421  0.4203
 2997TIP3    H2 8998   0.277   0.572   0.846  0.3849 -0.2082 -0.2618
 2998TIP3   OH2 8999   1.113   0.695   1.008 -0.3178  0.3922  0.4179
 2998TIP3    H1 9000   1.035   0.647   1.037  0.3778 -0.3087  1.1881
 2998TIP3    H2 9001   1.079   0.763   0.950 -1.4087 -0.4840  0.0027
 2999TIP3   OH2 9002   0.683   2.057   4.558  0.5152 -0.1364  0.2080
 2999TIP3    H1 9003   0.778   2.055   4.568  0.5561  0.4048 -0.0339
 2999TIP3    H2 9004   0.655   2.133   4.609  0.2079 -0.3195  0.3135
 3000TIP3   OH2 9005   1.431   2.196   2.646 -0.4423  0.2853  0.3046
 3000TIP3    H1 9006   1.452   2.271   2.590  1.2895  1.2601  2.1021
 3000TIP3    H2 9007   1.510   2.142   2.643 -0.1938  0.5133  1.9857
 3001TIP3   OH2 9008   1.905   0.028   2.394  0.0334 -0.4792 -0.1566
 3001TIP3    H1 9009   1.952  -0.055   2.388 -2.1160 -1.7440 -0.7430
 3001TIP3    H2 9010   1.969   0.094   2.369  0.9800 -2.2653 -2.9894
 3002TIP3   OH2 9011   0.269   2.584   3.828  0.3573 -0.3006  0.4329
 3002TIP3    H1 9012   0.224   2.563   3.910 -0.0450  0.7657  0.4984
 3002TIP3    H2 9013   0.207   2.637   3.779  1.5954  1.3845  0.6122
 3003TIP3   OH2 9014   2.153   1.895   0.147  0.1349  0.3474 -0.3038
 3003TIP3    H1 9015   2.184   1.822   0.094 -1.2277  1.1753 -2.3901
 3003TIP3    H2 9016   2.060   1.902   0.126 -0.1555  1.5803  1.2128
 3004TIP3   OH2 9017   1.658   4.884   1.472 -0.6886  0.2700  0.2996
 3004TIP3    H1 9018   1.646   4.884   1.567  0.2650  0.1686  0.4315
 3004TIP3    H2 9019   1.582   4.837   1.438 -0.5825 -0.4892  1.0793
 3005TIP3   OH2 9020   4.652   1.377   0.471  0.3297  0.3103  0.6482
 3005TIP3    H1 9021   4.728   1.433   0.482  1.2167 -0.3732 -1.5134
 3005TIP3    H2 9022   4.634   1.378   0.377 -3.4425  1.8015  1.1912
 3006TIP3   OH2 9023   5.990   5.939   4.137  0.0274  0.2294 -0.1147
 3006TIP3    H1 9024   5.895   5.933   4.124  0.2733 -0.6524 -1.8558
 3006TIP3    H2 9025   6.000   5.954   4.231 -1.8133 -0.1856  0.2006
 3007TIP3   OH2 9026   5.212   0.686   4.570  0.0706 -0.0675 -0.4721
 3007TIP3    H1 9027   5.208   0.779   4.550  1.6172  0.2049  0.3964
 3007TIP3    H2 9028   5.171   0.644   4.494 -1.9438  1.3456 -0.2640
 3008TIP3   OH2 9029   3.060   0.744   4.074  0.1691 -0.3445  0.1352
 3008TIP3    H1 9030   2.988   0.782   4.125  0.8644  0.4864  0.5203
 3008TIP3    H2 9031   3.062   0.652   4.101 -1.7915 -0.8096 -1.0947
 3009TIP3   OH2 9032   0.467   2.797   1.757 -0.5086  0.3729  1.1086
 3009TIP3    H1 9033   0.474   2.832   1.846  0.0461  2.2700  0.3670
 3009TIP3    H2 9034   0.551   2.817   1.716 -1.5429  1.6773 -0.5460
 3010TIP3   OH2 9035   1.495   5.116   3.215 -0.0734  0.2336 -0.5832
 3010TIP3    H1 9036   1.558   5.103   3.286 -1.3108  0.6909  0.6249
 3010TIP3    H2 9037   1.425   5.168   3.253 -0.6039  0.8082 -2.2482
 3011TIP3   OH2 9038   0.902   1.148   5.039  0.5614  0.6776 -0.3739
 3011TIP3    H1 9039   0.988   1.139   5.080  0.3437  0.0799 -0.0280
 3011TIP3    H2 9040   0.873   1.236   5.063  0.7536  0.6053  0.1397
 3012TIP3   OH2 9041   3.151   1.064   4.910 -0.2785 -0.8387 -0.5382
 3012TIP3    H1 9042   3.074   1.114   4.883 -1.1563 -1.5387  0.5622
 3012TIP3    H2 9043   3.121   1.014   4.987  1.5741 -0.2634  0.6222
 3013TIP3   OH2 9044   0.395   5.951   0.178  0.2494 -0.5282 -0.6676
 3013TIP3    H1 9045   0.332   5.900   0.126  0.2596 -2.4607  1.0784
 3013TIP3    H2 9046   0.465   5.889   0.197  0.6226  0.3424  0.9542
 3014TIP3   OH2 9047   1.790   0.439   4.222 -0.1870  0.4557  0.4589
 3014TIP3    H1 9048   1.828   0.371   4.166 -1.5266  0.3959 -0.4034
 3014TIP3    H2 9049   1.696   0.421   4.222 -0.2178  0.2331  3.0345
 3015TIP3   OH2 9050   2.907   2.580   3.487  0.5335  0.1053 -0.1333
 3015TIP3    H1 9051   2.937   2.576   3.396 -1.1832 -2.1530 -0.6834
 3015TIP3    H2 9052   2.857   2.662   3.492  0.2518  0.0361 -1.3841
 3016TIP3   OH2 9053   3.577   4.289   1.017 -0.4609  0.0316  0.8643
 3016TIP3    H1 9054   3.646   4.224   1.005 -1.9899 -1.9599  2.2065
 3016TIP3    H2 9055   3.570   4.332   0.932  0.4669 -1.7080 -0.1543
 3017TIP3   OH2 9056   5.429   4.731   3.846  0.2705 -0.6510  0.0992
 3017TIP3    H1 9057   5.337   4.748   3.866 -0.1218 -0.6901 -1.5597
 3017TIP3    H2 9058   5.453   4.799   3.783  1.1791 -1.0830 -0.0328
 3018TIP3   OH2 9059   5.398   2.192   3.448  0.3732 -0.4189  0.1113
 3018TIP3    H1 9060   5.450   2.223   3.374  1.6192 -0.0082  1.1213
 3018TIP3    H2 9061   5.349   2.118   3.413  0.5712  0.0476 -1.2376
 3019TIP3   OH2 9062   1.754   3.816   3.552  0.7346  0.2198 -0.1405
 3019TIP3    H1 9063   1.774   3.793   3.461  0.1482  0.2179 -0.2771
 3019TIP3    H2 9064   1.810   3.892   3.570 -0.9966  1.8976 -1.3854
 3020TIP3   OH2 9065   3.269   3.759   4.609 -0.8327 -0.0555 -0.2780
 3020TIP3    H1 9066   3.314   3.679   4.638 -2.2285 -0.7307  0.1074
 3020TIP3    H2 9067   3.315   3.785   4.529  0.7903 -0.2078  0.5740
 3021TIP3   OH2 9068   1.881   5.105   1.603  0.5765  0.2585  0.1265
 3021TIP3    H1 9069   1.809   5.091   1.542  1.1956 -0.2209 -0.5192
 3021TIP3    H2 9070   1.840   5.116   1.688 -0.1927 -1.1459 -0.0434
 3022TIP3   OH2 9071   5.392   0.236   4.453  0.2287 -0.0213 -0.1130
 3022TIP3    H1 9072   5.417   0.150   4.488  0.3619  0.1410  0.1991
 3022TIP3    H2 9073   5.368   0.219   4.362  0.5329 -0.3447 -0.1367
 3023TIP3   OH2 9074   2.660   0.717   1.137  0.0894 -0.5107  0.2024
 3023TIP3    H1 9075   2.693   0.804   1.119  1.1602 -1.2527 -1.7558
 3023TIP3    H2 9076   2.566   0.721   1.117  0.4420 -0.1886 -1.4638
 3024TIP3   OH2 9077   6.018   5.820   2.963 -0.0292 -0.1773 -0.4247
 3024TIP3    H1 9078   6.081   5.802   2.894  0.0441  0.6456 -0.5778
 3024TIP3    H2 9079   5.940   5.850   2.918  0.1560  0.7703 -0.1495
 3025TIP3   OH2 9080   3.581   5.754   2.907 -0.0520 -0.0322  0.2885
 3025TIP3    H1 9081   3.636   5.739   2.831  1.5304 -0.7695  1.5129
 3025TIP3    H2 9082   3.496   5.781   2.871  0.6312 -0.3880 -1.6979
 3026TIP3   OH2 9083   6.089   2.687   2.660 -0.2391 -0.6113  0.1976
 3026TIP3    H1 9084   6.063   2.643   2.579 -0.5642  2.3154 -1.4111
 3026TIP3    H2 9085   6.008   2.721   2.696  0.1641  0.0630  0.4983
 3027TIP3   OH2 9086   5.834   4.566   3.329 -0.0675  0.6028  0.3197
 3027TIP3    H1 9087   5.821   4.556   3.423 -0.9165 -1.3835  0.0458
 3027TIP3    H2 9088   5.790   4.648   3.307  1.5216  1.9428  1.8522
 3028TIP3   OH2 9089   4.397   2.712   5.023  0.4853  0.0175 -0.4308
 3028TIP3    H1 9090   4.360   2.773   4.959 -0.2702 -0.0320 -0.0534
 3028TIP3    H2 9091   4.402   2.629   4.977  0.7539  0.1726 -0.6899
 3029TIP3   OH2 9092   1.381   5.441   3.054  0.0908  0.2393  0.4923
 3029TIP3    H1 9093   1.436   5.365   3.036  0.9151  1.2933 -1.7907
 3029TIP3    H2 9094   1.443   5.513   3.070 -0.6542  0.7936  0.9574
 3030TIP3   OH2 9095   5.074   5.042   5.038  0.1742  0.2869 -0.3106
 3030TIP3    H1 9096   5.080   5.015   4.947 -1.1655 -1.4220  0.0383
 3030TIP3    H2 9097   4.980   5.040   5.057  0.5019 -0.7917  1.4604
 3031TIP3   OH2 9098   1.097   3.928   0.486  0.3988 -0.0189 -1.0269
 3031TIP3    H1 9099   1.085   3.891   0.573 -2.0693 -0.8050 -1.6309
 3031TIP3    H2 9100   1.187   3.904   0.462  0.7248 -0.7875  0.8072
 3032TIP3   OH2 9101   6.352   5.263   3.569 -0.0088 -0.1790 -1.2045
 3032TIP3    H1 9102   6.348   5.288   3.662  0.4064 -0.2046 -1.1758
 3032TIP3    H2 9103   6.263   5.235   3.548 -0.3698  0.8533 -1.1077
 3033TIP3   OH2 9104   1.694   4.168   4.997 -0.5273 -0.4635  0.0623
 3033TIP3    H1 9105   1.599   4.154   5.003 -0.6770 -0.4172 -1.6066
 3033TIP3    H2 9106   1.733   4.085   5.022 -0.9593 -0.2152  1.6460
 3034TIP3   OH2 9107   1.098   0.389   5.102 -0.0721  0.1550 -0.5696
 3034TIP3    H1 9108   1.180   0.407   5.056 -0.3145 -0.5188 -1.2834
 3034TIP3    H2 9109   1.122   0.392   5.195  1.2188 -2.0571 -0.7747
 3035TIP3   OH2 9110   4.188   0.388   4.935 -0.2384  0.4139 -0.8397
 3035TIP3    H1 9111   4.151   0.419   5.017 -0.7366  0.4720 -1.0864
 3035TIP3    H2 9112   4.115   0.387   4.874 -0.2117 -1.1168 -0.8849
 3036TIP3   OH2 9113   2.646   0.600   1.879 -0.0256  0.4134  0.2039
 3036TIP3    H1 9114   2.553   0.585   1.897  0.1231 -1.2280 -0.1934
 3036TIP3    H2 9115   2.679   0.514   1.853  0.9292  1.5154 -2.6010
 3037TIP3   OH2 9116   5.055   2.926   0.081  0.4890 -0.9612  0.2175
 3037TIP3    H1 9117   5.136   2.930   0.030  0.1633  2.7446 -0.3253
 3037TIP3    H2 9118   4.985   2.929   0.015 -0.0238 -0.9336  0.7525
 3038TIP3   OH2 9119   0.060   4.566   5.150  0.0730 -0.0154 -0.4185
 3038TIP3    H1 9120  -0.030   4.575   5.118  0.3714  0.9000 -1.0503
 3038TIP3    H2 9121   0.107   4.639   5.109  0.6290  0.8031  1.5779
 3039TIP3   OH2 9122   1.564   1.786   4.140 -0.0952 -0.8590 -0.2454
 3039TIP3    H1 9123   1.622   1.815   4.210 -2.5217  0.3094  1.4387
 3039TIP3    H2 9124   1.577   1.691   4.135 -0.0301 -1.0249  2.0229
 3040TIP3   OH2 9125   6.133   1.414   2.051  0.3783 -0.4758 -0.4314
 3040TIP3    H1 9126   6.136   1.328   2.091 -0.4829 -0.8404 -1.0932
 3040TIP3    H2 9127   6.206   1.462   2.089 -0.7352 -0.5731  2.0356
 3041TIP3   OH2 9128   1.188   0.742   2.454  0.4517  0.2049  0.0840
 3041TIP3    H1 9129   1.232   0.827   2.455 -1.1405  1.0591  0.7645
 3041TIP3    H2 9130   1.156   0.732   2.365 -1.9142  1.7537  0.6715
 3042TIP3   OH2 9131   3.185   2.082   4.541  0.3957 -0.5086  0.5508
 3042TIP3    H1 9132   3.101   2.124   4.525  1.4729  1.8910  0.6421
 3042TIP3    H2 9133   3.238   2.150   4.584  2.2766 -2.0186  0.7860
 3043TIP3   OH2 9134   3.493   5.802   4.143  0.5669  0.0088  0.6364
 3043TIP3    H1 9135   3.563   5.833   4.086  0.6464 -1.1965  0.0567
 3043TIP3    H2 9136   3.538   5.747   4.208  0.4931  1.4057  1.9467
 3044TIP3   OH2 9137   2.808   5.134   1.303 -0.6679  0.0156 -0.0632
 3044TIP3    H1 9138   2.725   5.088   1.292 -0.3176 -0.8451  0.7554
 3044TIP3    H2 9139   2.826   5.128   1.397 -0.0992  0.9297 -0.1107
 3045TIP3   OH2 9140   1.365   0.624   3.470 -0.5835  0.1731  0.0912
 3045TIP3    H1 9141   1.289   0.655   3.519 -0.3004 -0.1865  0.7670
 3045TIP3    H2 9142   1.405   0.558   3.526  0.9319  1.2056  0.3145
 3046TIP3   OH2 9143   3.612   0.702   3.910  0.9583  0.4981  0.1155
 3046TIP3    H1 9144   3.675   0.760   3.954 -1.0914  1.3240  2.1313
 3046TIP3    H2 9145   3.563   0.661   3.981 -1.5560  0.7681 -1.3373
 3047TIP3   OH2 9146   3.337   4.810   0.167 -0.1259 -0.5886  0.0061
 3047TIP3    H1 9147   3.368   4.858   0.244 -2.2020  0.3565  0.3219
 3047TIP3    H2 9148   3.256   4.768   0.195 -0.7598 -0.4992 -1.5710
 3048TIP3   OH2 9149   0.316   1.016   3.662  0.0017 -0.4586  0.6341
 3048TIP3    H1 9150   0.398   1.045   3.622  0.0397  0.6626  1.4852
 3048TIP3    H2 9151   0.268   0.976   3.589  0.7453  0.0678 -0.1765
 3049TIP3   OH2 9152   6.266   5.503   3.324  0.7081 -0.3329 -0.1692
 3049TIP3    H1 9153   6.355   5.519   3.294  0.4755  1.1471 -0.1376
 3049TIP3    H2 9154   6.274   5.490   3.418  0.8675 -0.1025 -0.1530
 3050TIP3   OH2 9155   5.051   4.548   3.340  0.2326  1.0357  0.1342
 3050TIP3    H1 9156   4.995   4.609   3.388 -0.4110  0.5315  0.0364
 3050TIP3    H2 9157   5.024   4.461   3.370  2.0684  0.8167  1.2784
 3051TIP3   OH2 9158   2.189   4.074   1.431  0.2006  0.0377 -0.2108
 3051TIP3    H1 9159   2.203   4.020   1.353  0.5180  0.7353 -0.6513
 3051TIP3    H2 9160   2.262   4.051   1.489  0.2917 -0.0595 -0.3624
 3052TIP3   OH2 9161   4.127   5.143   2.683 -0.3868 -0.3379  0.1438
 3052TIP3    H1 9162   4.184   5.066   2.679  1.0232  0.5411  1.8893
 3052TIP3    H2 9163   4.126   5.167   2.775 -1.3133  1.3729 -0.2744
 3053TIP3   OH2 9164   0.439   3.151   4.554  0.1305  0.7171  0.0586
 3053TIP3    H1 9165   0.361   3.110   4.591 -1.6022  3.6785  0.0345
 3053TIP3    H2 9166   0.506   3.141   4.621 -0.6955 -0.6124  0.7186
 3054TIP3   OH2 9167   0.856   5.117   2.200 -0.1876  0.1415 -0.3975
 3054TIP3    H1 9168   0.817   5.033   2.175  1.3082 -0.8675  0.5285
 3054TIP3    H2 9169   0.803   5.148   2.273 -0.9716  0.2095 -0.9811
 3055TIP3   OH2 9170   0.209   5.189   2.192 -0.2849 -0.2655 -0.0041
 3055TIP3    H1 9171   0.257   5.109   2.214  0.0285  0.1660  0.9473
 3055TIP3    H2 9172   0.120   5.159   2.171 -0.1578 -0.8682  0.2976
 3056TIP3   OH2 9173   3.980   4.285   3.665  0.2996  0.1198 -0.1467
 3056TIP3    H1 9174   3.962   4.300   3.572  0.0952 -0.2345 -0.1669
 3056TIP3    H2 9175   3.950   4.365   3.708 -1.9077 -0.6576 -0.1149
 3057TIP3   OH2 9176   5.144   0.943   0.848  0.6628 -0.8068 -0.4726
 3057TIP3    H1 9177   5.070   0.961   0.907  0.9871 -0.9802 -0.0048
 3057TIP3    H2 9178   5.106   0.890   0.778  0.3313 -0.8607 -0.2574
 3058TIP3   OH2 9179   0.726   1.406   2.851 -0.2481 -0.4430  0.2045
 3058TIP3    H1 9180   0.704   1.496   2.875 -1.6942 -1.0234  1.2030
 3058TIP3    H2 9181   0.778   1.415   2.771  0.1109  1.2934  0.5860
 3059TIP3   OH2 9182   1.023   1.460   0.280 -0.0210 -0.0413 -0.5522
 3059TIP3    H1 9183   1.092   1.413   0.234 -1.1080 -1.5617 -0.7051
 3059TIP3    H2 9184   1.043   1.447   0.373  0.6852  0.7728 -0.5737
 3060TIP3   OH2 9185   5.977   3.238   1.537 -0.4292 -0.0458 -0.1812
 3060TIP3    H1 9186   5.970   3.179   1.462 -0.6697 -1.0127  0.5879
 3060TIP3    H2 9187   6.065   3.274   1.532 -0.5928  0.2421 -1.1731
 3061TIP3   OH2 9188   6.026   0.801   4.589  0.1815 -0.4279 -0.2762
 3061TIP3    H1 9189   6.044   0.715   4.550 -1.7830 -1.9695  1.8940
 3061TIP3    H2 9190   6.038   0.788   4.683 -5.0868  0.0152  0.7773
 3062TIP3   OH2 9191   5.758   5.718   0.364 -0.0836 -0.0196 -0.7688
 3062TIP3    H1 9192   5.826   5.764   0.413 -0.0059  0.4827 -1.3456
 3062TIP3    H2 9193   5.795   5.705   0.277  0.0246 -1.4541 -0.5424
 3063TIP3   OH2 9194   5.530   2.167   2.573  0.3041  0.3836 -0.1932
 3063TIP3    H1 9195   5.523   2.235   2.640  0.6069 -0.7070  0.9993
 3063TIP3    H2 9196   5.615   2.183   2.532  1.1633 -0.2640  1.2558
 3064TIP3   OH2 9197   4.407   4.310   2.784  0.3973 -0.4415  0.7303
 3064TIP3    H1 9198   4.322   4.275   2.810 -0.0064  0.2609  0.3861
 3064TIP3    H2 9199   4.390   4.402   2.765  1.3106 -0.2011  1.0253
 3065TIP3   OH2 9200   4.136   2.323   2.254  0.1236 -0.4217 -0.2606
 3065TIP3    H1 9201   4.201   2.391   2.270 -1.4874  1.1973 -0.2262
 3065TIP3    H2 9202   4.137   2.269   2.333  0.8984  0.0158  0.0408
 3066TIP3   OH2 9203   1.753   3.493   1.920  0.3000 -0.2117 -0.4212
 3066TIP3    H1 9204   1.730   3.568   1.865 -0.0425 -0.6001 -0.8158
 3066TIP3    H2 9205   1.757   3.420   1.859  0.1871 -0.5976  0.0343
 3067TIP3   OH2 9206   0.842   0.740   5.119  0.2050 -0.1934  0.5668
 3067TIP3    H1 9207   0.809   0.657   5.083  0.7401 -0.5328  0.8524
 3067TIP3    H2 9208   0.935   0.741   5.097  0.4245 -0.1444  1.4419
 3068TIP3   OH2 9209   3.918   2.215   3.148 -0.9249 -0.5055  0.3485
 3068TIP3    H1 9210   3.860   2.284   3.181 -1.7117 -0.9829 -0.0111
 3068TIP3    H2 9211   3.926   2.154   3.222 -0.9809 -0.4990  0.3605
 3069TIP3   OH2 9212   1.547   2.310   3.314 -0.4281 -0.2642  0.4798
 3069TIP3    H1 9213   1.519   2.277   3.399 -0.0422  0.8500  1.0629
 3069TIP3    H2 9214   1.527   2.404   3.318 -0.0091 -0.1247 -0.4955
 3070TIP3   OH2 9215   5.655   3.175   0.974  0.3081 -0.4139 -0.6168
 3070TIP3    H1 9216   5.570   3.176   0.930 -0.9391 -2.5081  1.5209
 3070TIP3    H2 9217   5.661   3.262   1.016 -0.7064 -0.1933 -0.9064
 3071TIP3   OH2 9218   5.434   1.794   0.190 -0.3660  0.4159 -0.5268
 3071TIP3    H1 9219   5.419   1.701   0.205 -1.2681  0.4536 -1.1624
 3071TIP3    H2 9220   5.526   1.799   0.164  0.0568 -0.1320  0.7346
 3072TIP3   OH2 9221   2.099   5.196   5.150 -0.1186  0.3042 -0.2154
 3072TIP3    H1 9222   2.086   5.101   5.144 -2.6952  0.4896  0.8734
 3072TIP3    H2 9223   2.128   5.211   5.240 -1.4719  0.6434  0.1889
 3073TIP3   OH2 9224   5.466   0.851   2.676  0.1338 -0.0155 -0.1800
 3073TIP3    H1 9225   5.406   0.776   2.676 -0.9816  0.8440  0.5388
 3073TIP3    H2 9226   5.521   0.839   2.753  0.3440 -0.3820 -0.3848
 3074TIP3   OH2 9227   1.446   3.627   2.533 -0.5573  0.1426 -0.0528
 3074TIP3    H1 9228   1.400   3.711   2.536 -1.0182 -0.0576 -0.8975
 3074TIP3    H2 9229   1.434   3.598   2.442 -0.7548 -1.0224  0.3360
 3075TIP3   OH2 9230   1.484   2.705   2.990 -0.4452 -0.0056 -0.0860
 3075TIP3    H1 9231   1.468   2.789   2.947  0.4041 -0.4287 -1.2833
 3075TIP3    H2 9232   1.528   2.729   3.072 -0.3990  0.7267 -0.3152
 3076TIP3   OH2 9233   4.806   1.236   3.351  0.0686 -0.6060 -0.1168
 3076TIP3    H1 9234   4.785   1.284   3.271  1.1334 -1.0381 -0.6788
 3076TIP3    H2 9235   4.811   1.303   3.419 -0.5416 -0.1935 -0.4713
 3077TIP3   OH2 9236   0.392   4.569   2.903  0.1402  0.1569 -0.1628
 3077TIP3    H1 9237   0.384   4.644   2.962  1.5386  0.5366 -0.4319
 3077TIP3    H2 9238   0.304   4.558   2.866 -0.6411  0.2171  1.5879
 3078TIP3   OH2 9239   0.012   5.745   1.307  0.3842  0.1348 -0.0412
 3078TIP3    H1 9240   0.095   5.770   1.346 -0.7253  3.8367  0.3353
 3078TIP3    H2 9241   0.034   5.722   1.216  1.7447  2.2473 -0.3192
 3079TIP3   OH2 9242   2.840   2.438   0.577  0.0597 -0.6206  0.1558
 3079TIP3    H1 9243   2.815   2.434   0.485 -0.2719  0.6383  0.1704
 3079TIP3    H2 9244   2.932   2.463   0.576 -0.4210  1.2878  0.1572
 3080TIP3   OH2 9245   3.318   3.116   2.334 -0.0876 -0.5310  0.2859
 3080TIP3    H1 9246   3.349   3.158   2.414  2.4092  0.1493 -0.9435
 3080TIP3    H2 9247   3.297   3.027   2.360  1.1668 -0.4765  1.6020
 3081TIP3   OH2 9248   1.282   0.565   2.229  0.6269 -0.3486  0.2412
 3081TIP3    H1 9249   1.268   0.486   2.176  1.5833 -1.2579  1.2963
 3081TIP3    H2 9250   1.377   0.565   2.246  0.9269  1.9088 -1.0625
 3082TIP3   OH2 9251   4.592   4.120   2.763 -0.3408 -0.3232  0.0307
 3082TIP3    H1 9252   4.534   4.060   2.716 -1.8258  1.3348 -0.3881
 3082TIP3    H2 9253   4.535   4.193   2.788  1.4194  1.0328  0.2984
 3083TIP3   OH2 9254   5.123   2.068   4.885 -0.1940 -0.2664  0.0505
 3083TIP3    H1 9255   5.163   2.106   4.806 -0.6391 -0.3600 -0.2263
 3083TIP3    H2 9256   5.072   1.994   4.852 -0.5260 -0.2003  0.4075
 3084TIP3   OH2 9257   1.513   1.603   0.686  0.3668 -0.0588  0.4521
 3084TIP3    H1 9258   1.538   1.687   0.647 -0.9608 -0.2992 -1.0003
 3084TIP3    H2 9259   1.487   1.548   0.611  0.3622 -1.4703  1.4506
 3085TIP3   OH2 9260   5.082   4.779   4.340 -0.8599 -0.1466  0.5945
 3085TIP3    H1 9261   5.044   4.777   4.253 -1.0293 -0.8266  0.6753
 3085TIP3    H2 9262   5.142   4.704   4.341 -0.2594  0.3257  0.7984
 3086TIP3   OH2 9263   0.907   4.629   0.855  0.6762 -0.1920  0.2316
 3086TIP3    H1 9264   0.833   4.576   0.825  0.4241  0.2702  0.0209
 3086TIP3    H2 9265   0.982   4.595   0.807  0.9147 -1.7359  1.6323
 3087TIP3   OH2 9266   1.707   4.454   3.814  0.4484 -0.5340  0.0933
 3087TIP3    H1 9267   1.765   4.477   3.886 -0.9213 -0.5065  1.2308
 3087TIP3    H2 9268   1.665   4.372   3.842  0.6722 -1.1096 -1.1565
 3088TIP3   OH2 9269   1.789   4.007   1.906 -0.0117  0.9870 -0.4595
 3088TIP3    H1 9270   1.743   4.068   1.849  0.7319  2.2196  0.2072
 3088TIP3    H2 9271   1.830   3.944   1.847 -2.0716  0.1669 -1.0803
 3089TIP3   OH2 9272   5.963   5.574   1.181 -0.2248  0.5233 -0.5137
 3089TIP3    H1 9273   5.877   5.539   1.203 -0.1165  0.5567 -0.0130
 3089TIP3    H2 9274   6.024   5.526   1.237 -0.0730  1.4774  0.1799
 3090TIP3   OH2 9275   2.649   2.593   2.967  0.0538 -0.1817  0.4419
 3090TIP3    H1 9276   2.582   2.563   3.028  0.6612 -0.5068  0.9634
 3090TIP3    H2 9277   2.603   2.652   2.908 -0.9797 -1.3855 -0.0112
 3091TIP3   OH2 9278   1.425   4.832   1.277 -0.3026 -0.3382  0.1581
 3091TIP3    H1 9279   1.422   4.928   1.275 -1.3139 -0.3609 -1.7807
 3091TIP3    H2 9280   1.338   4.805   1.248  0.4146 -1.8321 -0.6964
 3092TIP3   OH2 9281   6.222   4.450   0.466 -0.3939 -0.3104 -0.6150
 3092TIP3    H1 9282   6.275   4.519   0.427 -0.2746  0.4997  0.8996
 3092TIP3    H2 9283   6.277   4.371   0.460  0.5195  0.2734 -0.1129
 3093TIP3   OH2 9284   5.664   5.395   3.311  0.4283 -0.9554 -0.6372
 3093TIP3    H1 9285   5.702   5.352   3.387  0.6071 -1.6279 -1.0935
 3093TIP3    H2 9286   5.733   5.454   3.279  0.8114 -1.5755 -0.9865
 3094TIP3   OH2 9287   2.863   5.853   0.886  0.0823  0.0067 -0.5376
 3094TIP3    H1 9288   2.908   5.819   0.964  2.3500  0.5886 -1.5147
 3094TIP3    H2 9289   2.913   5.818   0.812 -2.1622 -0.7271 -1.7969
 3095TIP3   OH2 9290   3.060   2.860   3.421  0.4683  0.5185  0.3700
 3095TIP3    H1 9291   3.068   2.856   3.517 -0.3158 -0.6984  0.4105
 3095TIP3    H2 9292   2.967   2.874   3.405  0.5336  0.3083 -0.2198
 3096TIP3   OH2 9293   0.674   3.266   4.092  0.1033  0.0630 -0.6066
 3096TIP3    H1 9294   0.614   3.193   4.110  0.4207 -0.3783 -1.2709
 3096TIP3    H2 9295   0.697   3.300   4.179 -0.4205 -0.3246 -0.3075
 3097TIP3   OH2 9296   5.643   0.901   1.187 -0.0684 -0.4304  0.1442
 3097TIP3    H1 9297   5.632   0.846   1.264  1.4208 -1.8394 -0.5827
 3097TIP3    H2 9298   5.732   0.935   1.194  0.1270 -0.6592 -0.9631
 3098TIP3   OH2 9299   4.053   4.935   4.522 -0.1552  0.5539  0.2487
 3098TIP3    H1 9300   4.100   4.920   4.440  1.8376 -0.2501  1.4448
 3098TIP3    H2 9301   3.990   5.004   4.502 -0.3309 -0.2272 -2.1471
 3099TIP3   OH2 9302   3.467   2.482   2.224 -0.1541  0.1679  0.4961
 3099TIP3    H1 9303   3.554   2.506   2.255  0.2060 -2.4155  1.7520
 3099TIP3    H2 9304   3.459   2.525   2.139  2.4597  0.3003  0.2417
 3100TIP3   OH2 9305   4.767   4.951   1.188  0.6980 -0.9415  0.2299
 3100TIP3    H1 9306   4.710   4.890   1.143  1.0951 -0.6266 -0.7199
 3100TIP3    H2 9307   4.806   5.004   1.118  1.1472 -0.2922  0.9561
 3101TIP3   OH2 9308   3.759   5.028   0.856 -0.9071  0.5053 -0.6551
 3101TIP3    H1 9309   3.693   5.096   0.872  0.8938  2.5244 -1.3986
 3101TIP3    H2 9310   3.809   5.024   0.938 -1.2240 -0.2260 -0.4866
 3102TIP3   OH2 9311   3.792   4.945   0.228  0.1058 -0.7630  0.7495
 3102TIP3    H1 9312   3.842   4.999   0.289 -0.7720 -0.4882  1.2586
 3102TIP3    H2 9313   3.764   5.006   0.160 -1.2281 -0.4352  1.5342
 3103TIP3   OH2 9314   2.785   0.574   2.899  0.1640  0.5114  0.2625
 3103TIP3    H1 9315   2.748   0.557   2.986 -1.2006 -1.8317 -0.6666
 3103TIP3    H2 9316   2.759   0.664   2.879 -0.1476  0.8328  1.9479
 3104TIP3   OH2 9317   5.128   4.467   0.089 -0.0553  0.0921 -0.2125
 3104TIP3    H1 9318   5.103   4.418   0.011 -0.9522  1.2467 -0.6822
 3104TIP3    H2 9319   5.067   4.439   0.156 -0.6780  0.6666 -0.5268
 3105TIP3   OH2 9320   5.779   3.083   3.801  0.0358 -0.4351 -0.2130
 3105TIP3    H1 9321   5.747   2.998   3.771 -1.5410  0.7345 -2.0724
 3105TIP3    H2 9322   5.713   3.146   3.773  2.0049  1.6429 -0.5388
 3106TIP3   OH2 9323   1.962   5.083   2.140  0.1620  0.5815 -0.2612
 3106TIP3    H1 9324   1.926   5.170   2.155  0.1247  0.5575 -0.2141
 3106TIP3    H2 9325   1.932   5.031   2.214 -1.6353 -0.0383 -1.3680
 3107TIP3   OH2 9326   0.650   5.777   4.523 -0.0150  0.3002 -0.0413
 3107TIP3    H1 9327   0.727   5.780   4.581  0.7978  1.2582 -1.1236
 3107TIP3    H2 9328   0.673   5.834   4.450 -0.2752 -2.1766 -2.1986
 3108TIP3   OH2 9329   5.389   2.559   3.244 -0.1976  0.0943 -0.4801
 3108TIP3    H1 9330   5.442   2.639   3.246 -0.6944  0.4332 -0.8209
 3108TIP3    H2 9331   5.343   2.559   3.328  3.0791 -2.1020  1.5476
 3109TIP3   OH2 9332   3.746   4.227   2.050  0.4344  0.0980 -0.2627
 3109TIP3    H1 9333   3.677   4.211   1.985  0.4508 -0.8396 -0.0591
 3109TIP3    H2 9334   3.815   4.164   2.028  0.4679 -0.1915  0.6163
 3110TIP3   OH2 9335   4.910   2.945   3.391 -0.5651 -0.0996 -0.5006
 3110TIP3    H1 9336   4.909   2.958   3.296  0.7299 -0.1508 -0.5274
 3110TIP3    H2 9337   4.925   2.851   3.402  1.5662  0.2314 -0.2584
 3111TIP3   OH2 9338   5.521   3.551   1.271 -0.0353  0.4167  0.2473
 3111TIP3    H1 9339   5.440   3.501   1.258 -0.4256  0.6288  1.7280
 3111TIP3    H2 9340   5.503   3.637   1.233 -0.6708  0.6000  0.9344
 3112TIP3   OH2 9341   3.657   1.228   2.849  0.7373 -0.4245  0.4405
 3112TIP3    H1 9342   3.684   1.140   2.878  0.1714 -1.4553 -1.9081
 3112TIP3    H2 9343   3.574   1.213   2.804 -0.9153  1.8014  2.4883
 3113TIP3   OH2 9344   2.146   3.301   0.721 -0.7406 -0.1110  0.3573
 3113TIP3    H1 9345   2.160   3.374   0.661  0.5660  0.4289  1.2513
 3113TIP3    H2 9346   2.088   3.241   0.674 -2.9558  2.0733  0.0591
 3114TIP3   OH2 9347   1.264   5.508   4.432  0.5562  0.1060  0.4233
 3114TIP3    H1 9348   1.218   5.437   4.478  0.9690  0.2289  1.0320
 3114TIP3    H2 9349   1.331   5.537   4.494 -0.2801  1.7458  0.6126
 3115TIP3   OH2 9350   2.387   2.479   3.091 -0.2919  0.9005 -0.2751
 3115TIP3    H1 9351   2.370   2.441   3.005  0.2682  0.0936 -0.0348
 3115TIP3    H2 9352   2.394   2.404   3.150 -0.8226  1.4473  0.5148
 3116TIP3   OH2 9353   6.292   4.600   4.508  0.0972  0.3376 -0.2098
 3116TIP3    H1 9354   6.382   4.633   4.513  0.3726 -0.1217 -1.5409
 3116TIP3    H2 9355   6.242   4.671   4.469  0.4432 -0.2975 -1.9198
 3117TIP3   OH2 9356   2.295   3.336   4.947 -0.2317 -0.1755 -0.6314
 3117TIP3    H1 9357   2.208   3.326   4.908 -0.2178 -0.8441 -0.4954
 3117TIP3    H2 9358   2.314   3.430   4.939 -0.6798 -0.1325 -1.2676
 3118TIP3   OH2 9359   2.546   5.698   3.965 -0.1963 -0.4185 -0.3587
 3118TIP3    H1 9360   2.524   5.651   3.884  1.6377  0.3503 -1.3598
 3118TIP3    H2 9361   2.504   5.783   3.956 -1.6388 -1.0218  0.4295
 3119TIP3   OH2 9362   6.130   1.877   4.982 -0.0160 -0.2698 -0.6229
 3119TIP3    H1 9363   6.141   1.816   5.055  3.2570  1.7392  0.7734
 3119TIP3    H2 9364   6.046   1.919   4.998 -0.4962 -1.6083  0.5858
 3120TIP3   OH2 9365   4.982   5.576   2.296 -0.2715 -0.4529  0.0122
 3120TIP3    H1 9366   5.031   5.574   2.378 -0.4713 -0.1811  0.1417
 3120TIP3    H2 9367   4.996   5.665   2.262  1.4631 -1.1538 -1.2780
 3121TIP3   OH2 9368   2.513   3.041   4.403  0.5533 -0.2554 -0.4071
 3121TIP3    H1 9369   2.596   3.080   4.431 -0.2214  0.8011  0.5175
 3121TIP3    H2 9370   2.447   3.081   4.461 -0.7022 -0.4754 -1.6360
 3122TIP3   OH2 9371   6.178   4.853   5.130 -0.0374 -0.4491  0.4975
 3122TIP3    H1 9372   6.180   4.879   5.223  0.5553 -1.0655  0.6627
 3122TIP3    H2 9373   6.097   4.803   5.121 -0.4455  0.1917  0.5164
 3123TIP3   OH2 9374   2.018   1.437   2.326  0.1286  0.3007 -0.0318
 3123TIP3    H1 9375   1.956   1.495   2.371 -0.1828  0.1725 -0.2904
 3123TIP3    H2 9376   2.067   1.395   2.396 -1.0933 -0.7238  0.2373
 3124TIP3   OH2 9377   3.622   4.703   4.113  0.1790  0.2071  0.4103
 3124TIP3    H1 9378   3.612   4.609   4.128 -1.5674  0.1098 -0.9802
 3124TIP3    H2 9379   3.581   4.744   4.190  1.2989 -0.1317  1.2122
 3125TIP3   OH2 9380   1.982   4.640   0.243  0.4369 -0.0428 -0.7108
 3125TIP3    H1 9381   2.049   4.611   0.305  0.2262 -0.3680 -0.6334
 3125TIP3    H2 9382   1.919   4.689   0.296  0.6806  0.3753 -0.8055
 3126TIP3   OH2 9383   4.293   1.581   2.189  0.4667  0.1735  0.4679
 3126TIP3    H1 9384   4.359   1.618   2.132 -1.7021  2.9616 -0.4339
 3126TIP3    H2 9385   4.269   1.498   2.148  1.3965  0.4825 -0.7333
 3127TIP3   OH2 9386   5.132   5.890   3.589 -0.0071  0.3215 -0.3082
 3127TIP3    H1 9387   5.094   5.804   3.569 -0.0406  0.2883 -0.1013
 3127TIP3    H2 9388   5.168   5.920   3.506  1.5367 -0.6585 -0.0159
 3128TIP3   OH2 9389   0.465   2.419   0.364 -0.3748 -0.4163 -0.3557
 3128TIP3    H1 9390   0.446   2.479   0.291 -1.9311 -0.9086 -0.3761
 3128TIP3    H2 9391   0.397   2.437   0.428 -2.8108 -4.1808 -1.6071
 3129TIP3   OH2 9392   0.341   5.689   3.642 -0.7946 -0.4427 -0.0855
 3129TIP3    H1 9393   0.341   5.644   3.727 -1.1792  0.7661  0.5847
 3129TIP3    H2 9394   0.303   5.626   3.582  1.9624 -2.3806  0.0137
 3130TIP3   OH2 9395   2.801   5.191   3.103 -0.0928  0.2550  0.2062
 3130TIP3    H1 9396   2.757   5.170   3.021  1.9362  0.4397 -0.9702
 3130TIP3    H2 9397   2.798   5.109   3.153 -0.5403 -0.1048 -0.3992
 3131TIP3   OH2 9398   5.250   4.341   0.959  0.6412  0.0277  0.2747
 3131TIP3    H1 9399   5.159   4.358   0.984  0.3067  2.3733 -2.1338
 3131TIP3    H2 9400   5.247   4.333   0.863  3.0025  0.3680  0.1260
 3132TIP3   OH2 9401   1.700   1.591   3.179  0.7450  0.1282 -0.4684
 3132TIP3    H1 9402   1.651   1.655   3.231  1.6559  0.8256 -0.4241
 3132TIP3    H2 9403   1.792   1.616   3.192  1.1407 -1.3088 -0.3027
 3133TIP3   OH2 9404   1.791   0.415   2.247  0.3363  0.0868  0.0045
 3133TIP3    H1 9405   1.856   0.358   2.289  1.5770  0.8826 -0.7504
 3133TIP3    H2 9406   1.746   0.359   2.185  1.1862 -0.2057 -0.3623
 3134TIP3   OH2 9407   2.084   0.413   5.103  0.0026  0.4623 -0.2120
 3134TIP3    H1 9408   2.040   0.336   5.066  0.3941  1.5093 -3.1596
 3134TIP3    H2 9409   2.013   0.474   5.122 -0.1120  1.1280 -2.4450
 3135TIP3   OH2 9410   3.893   5.507   0.657  0.7748 -0.3881  0.7047
 3135TIP3    H1 9411   3.840   5.459   0.721  2.2285 -1.4056  1.1961
 3135TIP3    H2 9412   3.983   5.484   0.679  1.3872  0.5994 -0.6601
 3136TIP3   OH2 9413   0.110   4.629   0.438  0.5552 -1.0599 -0.3286
 3136TIP3    H1 9414   0.079   4.659   0.352 -0.2584  0.1346  0.3607
 3136TIP3    H2 9415   0.177   4.564   0.417  1.0363 -0.1286 -1.8752
 3137TIP3   OH2 9416   5.692   5.653   2.044  0.3433  0.0338 -0.1871
 3137TIP3    H1 9417   5.617   5.713   2.048  0.5632  0.2553  1.1534
 3137TIP3    H2 9418   5.685   5.601   2.125  3.0308  1.7739  1.2950
 3138TIP3   OH2 9419   3.826   0.134   4.851  0.6019  0.6869  0.6027
 3138TIP3    H1 9420   3.836   0.228   4.832  1.7965  1.2774  3.5172
 3138TIP3    H2 9421   3.914   0.099   4.844  0.2740 -0.0700  0.2117
 3139TIP3   OH2 9422   5.292   0.382   5.147  0.2040  0.1734 -0.0286
 3139TIP3    H1 9423   5.374   0.428   5.128  0.6016  0.6065  2.3311
 3139TIP3    H2 9424   5.274   0.403   5.239 -3.4044  1.3458 -0.8427
 3140TIP3   OH2 9425   1.428   5.505   2.036 -0.2181  0.1944  0.3230
 3140TIP3    H1 9426   1.503   5.559   2.012 -0.3433  0.0302 -0.4591
 3140TIP3    H2 9427   1.355   5.540   1.984  0.0251 -1.6579 -1.3612
 3141TIP3   OH2 9428   3.552   2.183   4.398  0.5146 -0.2137  0.3626
 3141TIP3    H1 9429   3.638   2.222   4.380  2.4268 -2.6751  3.2411
 3141TIP3    H2 9430   3.556   2.097   4.357 -0.7643 -0.2328  0.2331
 3142TIP3   OH2 9431   1.907   4.596   0.975 -0.7030 -0.5340 -0.0299
 3142TIP3    H1 9432   1.913   4.501   0.980 -1.5019 -0.6583 -1.1920
 3142TIP3    H2 9433   1.998   4.626   0.982 -0.4234 -1.3820  0.1140
 3143TIP3   OH2 9434   0.103   2.333   4.149  0.3589 -0.1339  0.5081
 3143TIP3    H1 9435   0.044   2.306   4.079 -0.4812  0.3082  1.0227
 3143TIP3    H2 9436   0.096   2.428   4.152 -0.8208 -0.2146  2.1595
 3144TIP3   OH2 9437   6.046   2.262   2.530 -0.1948 -0.3516  0.1200
 3144TIP3    H1 9438   6.086   2.210   2.461 -0.9189 -0.5903 -0.1190
 3144TIP3    H2 9439   6.094   2.236   2.609  0.6865 -0.0224 -0.2871
 3145TIP3   OH2 9440   4.587   0.333   0.437 -0.1821  0.6867 -0.0127
 3145TIP3    H1 9441   4.519   0.265   0.440  1.5757 -1.1502  0.7293
 3145TIP3    H2 9442   4.550   0.405   0.488 -1.4897 -0.3381  0.5776
 3146TIP3   OH2 9443   4.463   5.294   0.810  0.2080  0.0045  0.0243
 3146TIP3    H1 9444   4.408   5.267   0.737 -0.3445  0.2537  0.3436
 3146TIP3    H2 9445   4.546   5.320   0.770  0.2383 -0.7446 -0.4266
 3147TIP3   OH2 9446   4.313   2.284   1.108  0.0190 -0.7703 -0.7436
 3147TIP3    H1 9447   4.321   2.364   1.056 -2.7453  0.6505  0.7936
 3147TIP3    H2 9448   4.351   2.306   1.192 -1.0230 -0.9309 -0.2136
 3148TIP3   OH2 9449   4.588   0.662   2.585  0.5997  0.0254 -0.2647
 3148TIP3    H1 9450   4.619   0.682   2.497  1.2320 -0.7677 -0.2311
 3148TIP3    H2 9451   4.636   0.583   2.610  0.9063  0.6025  1.0435
 3149TIP3   OH2 9452   4.646   2.719   4.401  1.1079  0.0216  0.3343
 3149TIP3    H1 9453   4.628   2.775   4.325 -2.8368  2.1534  2.4802
 3149TIP3    H2 9454   4.643   2.630   4.367  0.5079  0.9143 -2.1656
 3150TIP3   OH2 9455   4.182   1.108   4.667  0.0819  0.5592  0.2901
 3150TIP3    H1 9456   4.197   1.194   4.628  0.4341  0.5046  0.3023
 3150TIP3    H2 9457   4.268   1.081   4.699  0.3337 -0.4924 -1.1497
 3151TIP3   OH2 9458   4.423   4.534   1.890  0.9314 -0.5708  0.0801
 3151TIP3    H1 9459   4.517   4.524   1.876  1.1850  1.1493  0.4230
 3151TIP3    H2 9460   4.415   4.594   1.965 -0.4132  0.9215 -1.1781
 3152TIP3   OH2 9461   5.028   1.621   4.194 -0.1259  0.0438  0.1460
 3152TIP3    H1 9462   4.999   1.670   4.117  0.5529  0.5271  0.1952
 3152TIP3    H2 9463   5.091   1.558   4.159  2.9654  2.5899  0.6868
 3153TIP3   OH2 9464   3.442  -0.003   0.824  0.4988  0.1544  0.2340
 3153TIP3    H1 9465   3.374  -0.049   0.874 -1.2295  0.7897 -1.3758
 3153TIP3    H2 9466   3.484   0.055   0.887 -1.2170  0.5318  1.0866
 3154TIP3   OH2 9467   5.005   1.050   4.125  0.1155  0.2910  0.1151
 3154TIP3    H1 9468   5.055   1.091   4.196 -0.0387 -1.1257  1.0917
 3154TIP3    H2 9469   5.067   0.989   4.084 -0.0084  0.5747 -0.5008
 3155TIP3   OH2 9470   2.801   3.698   0.571  0.0594  0.5606 -0.6728
 3155TIP3    H1 9471   2.871   3.705   0.635 -0.0091 -0.0956 -0.5150
 3155TIP3    H2 9472   2.724   3.734   0.614  0.0878  0.4180 -0.5037
 3156TIP3   OH2 9473   1.061   5.062   3.356  0.6092  0.3997 -0.0334
 3156TIP3    H1 9474   0.980   5.057   3.306  0.2778  0.3238  0.5004
 3156TIP3    H2 9475   1.111   5.131   3.314 -0.5053  1.7284  0.7407
 3157TIP3   OH2 9476   0.512   3.499   3.988 -0.2166  0.2876 -0.0981
 3157TIP3    H1 9477   0.511   3.557   3.912  0.5593 -0.1696 -0.4717
 3157TIP3    H2 9478   0.600   3.462   3.989 -0.1103  0.5286  1.2172
 3158TIP3   OH2 9479   5.701   4.021   3.017 -0.1009  0.9309  0.3440
 3158TIP3    H1 9480   5.711   3.994   3.109 -0.1535 -2.8473 -0.5842
 3158TIP3    H2 9481   5.610   4.051   3.011 -1.2249 -1.9995  0.9754
 3159TIP3   OH2 9482   5.417   3.473   4.809  0.7804  0.3519 -0.3183
 3159TIP3    H1 9483   5.357   3.515   4.871  1.5838 -0.8696  1.3753
 3159TIP3    H2 9484   5.375   3.484   4.724 -2.9577 -2.1441  0.9311
 3160TIP3   OH2 9485   1.850   4.782   2.272 -0.4052  0.5122  0.4107
 3160TIP3    H1 9486   1.859   4.699   2.317 -1.3614  0.7363  1.0543
 3160TIP3    H2 9487   1.904   4.843   2.322  0.3064  0.2830 -0.0691
 3161TIP3   OH2 9488   3.120   2.544   0.579 -0.0151  0.0241 -0.2926
 3161TIP3    H1 9489   3.170   2.462   0.574 -0.2709 -0.1712  0.2995
 3161TIP3    H2 9490   3.133   2.585   0.494 -1.5992 -1.6379 -1.4219
 3162TIP3   OH2 9491   5.413   2.848   4.751  0.4349  0.1609  0.0253
 3162TIP3    H1 9492   5.382   2.827   4.663 -0.9956  0.7506  0.3517
 3162TIP3    H2 9493   5.471   2.776   4.774 -0.3074 -0.7506 -0.8531
 3163TIP3   OH2 9494   0.151   4.201   1.563  0.6142 -0.0773 -0.5555
 3163TIP3    H1 9495   0.079   4.240   1.513 -0.7501 -0.6889  0.8475
 3163TIP3    H2 9496   0.204   4.276   1.590 -2.2725  1.0772  2.5963
 3164TIP3   OH2 9497   0.673   3.359   1.215  0.0633  0.0152  0.1327
 3164TIP3    H1 9498   0.763   3.336   1.191  0.1924  0.2952  0.3565
 3164TIP3    H2 9499   0.629   3.274   1.224  0.0207 -0.1091 -1.0519
 3165TIP3   OH2 9500   4.487   5.601   5.006 -0.2932  0.0489  0.1734
 3165TIP3    H1 9501   4.442   5.547   4.941 -2.2096 -0.5135  1.8340
 3165TIP3    H2 9502   4.449   5.573   5.090  0.9682  1.7832  1.3909
 3166TIP3   OH2 9503   0.912   1.247   3.419  0.4515  0.1467 -0.8520
 3166TIP3    H1 9504   0.890   1.175   3.360  0.4958  0.0350 -0.7334
 3166TIP3    H2 9505   0.859   1.230   3.497 -0.1452  0.6801 -1.1313
 3167TIP3   OH2 9506   2.953   4.719   3.410  0.8533 -0.6645 -0.2428
 3167TIP3    H1 9507   2.860   4.700   3.409  0.8751 -0.7741 -1.0162
 3167TIP3    H2 9508   2.963   4.788   3.476  0.4692 -1.7870  1.0345
 3168TIP3   OH2 9509   5.811   1.525   0.809 -0.5460  0.0051 -0.1681
 3168TIP3    H1 9510   5.844   1.609   0.842 -2.1493  0.5103  0.2322
 3168TIP3    H2 9511   5.811   1.536   0.714  1.3168 -0.3803 -0.2501
 3169TIP3   OH2 9512   1.558   3.339   0.052  0.3747  0.3987 -0.6136
 3169TIP3    H1 9513   1.637   3.312   0.097  0.6478  0.9064 -0.7747
 3169TIP3    H2 9514   1.499   3.369   0.122  0.7959  1.1856 -0.5790
 3170TIP3   OH2 9515   2.125   2.219   0.328  0.1314  1.0596  0.1272
 3170TIP3    H1 9516   2.151   2.140   0.376  1.1906  0.6416 -1.0955
 3170TIP3    H2 9517   2.036   2.201   0.300  0.9872 -0.5696 -1.7867
 3171TIP3   OH2 9518   5.293   2.250   4.114 -0.6894  0.0531  0.1875
 3171TIP3    H1 9519   5.222   2.190   4.140  1.1267 -2.0422  0.5915
 3171TIP3    H2 9520   5.330   2.209   4.036  3.3071 -1.8736  2.7723
 3172TIP3   OH2 9521   4.077   0.114   3.941  0.2345  0.4639 -0.8542
 3172TIP3    H1 9522   4.032   0.194   3.967  0.9097  0.6199 -0.1293
 3172TIP3    H2 9523   4.013   0.044   3.953  1.1002  0.1275  3.6397
 3173TIP3   OH2 9524   3.723   3.182   1.499  0.2944 -0.0125  0.4082
 3173TIP3    H1 9525   3.697   3.090   1.505 -1.0079  0.1968 -1.2823
 3173TIP3    H2 9526   3.661   3.227   1.556  1.5142 -0.2283  1.9786
 3174TIP3   OH2 9527   5.544   2.784   3.250 -0.4805  0.2172 -0.0241
 3174TIP3    H1 9528   5.515   2.853   3.190  0.5018  0.2771 -0.4352
 3174TIP3    H2 9529   5.639   2.793   3.254 -0.4034 -0.6818  0.4492
 3175TIP3   OH2 9530   0.261   3.462   3.687  0.0188  0.2230 -0.2903
 3175TIP3    H1 9531   0.334   3.496   3.739  0.5503 -1.9817  0.5096
 3175TIP3    H2 9532   0.243   3.531   3.623  0.6027  2.2249  1.5808
 3176TIP3   OH2 9533   5.887   3.148   3.469 -0.3694 -0.1671 -0.9468
 3176TIP3    H1 9534   5.847   3.229   3.437  0.5621  0.4492 -0.5778
 3176TIP3    H2 9535   5.951   3.177   3.534 -0.7262 -1.2601 -0.0767
 3177TIP3   OH2 9536   3.365   4.568   0.026  0.5322  0.1286 -0.6110
 3177TIP3    H1 9537   3.326   4.650   0.056  0.2277  0.1364 -1.0152
 3177TIP3    H2 9538   3.340   4.562  -0.066  1.7017  0.2523 -0.9471
 3178TIP3   OH2 9539   4.307   3.489   3.670  0.1068  0.3071 -0.1022
 3178TIP3    H1 9540   4.264   3.573   3.684  0.6869  0.3778  1.5451
 3178TIP3    H2 9541   4.375   3.485   3.738  2.1422 -0.1793 -2.0422
 3179TIP3   OH2 9542   2.019   1.298   3.281  0.3281 -0.1107 -0.4063
 3179TIP3    H1 9543   1.983   1.352   3.352 -3.8115 -1.7945 -0.9273
 3179TIP3    H2 9544   2.064   1.226   3.326  0.4094  0.4501  0.4234
 3180TIP3   OH2 9545   2.315   3.789   3.663 -0.2551 -0.5289 -0.0374
 3180TIP3    H1 9546   2.379   3.726   3.630  1.0321  0.6455  0.1379
 3180TIP3    H2 9547   2.316   3.776   3.758 -0.4025 -0.6300 -0.0502
 3181TIP3   OH2 9548   3.411   0.593   0.410 -0.6172  0.0231  0.3716
 3181TIP3    H1 9549   3.487   0.648   0.433 -1.7909  2.2323 -0.7500
 3181TIP3    H2 9550   3.340   0.628   0.464 -1.3386 -0.5428 -0.2013
 3182TIP3   OH2 9551   3.414   1.667   3.647  0.0892 -0.3007 -0.0493
 3182TIP3    H1 9552   3.368   1.593   3.609 -2.1203  1.1702 -0.4408
 3182TIP3    H2 9553   3.443   1.719   3.571  1.9347 -0.8762  0.2082
 3183TIP3   OH2 9554   6.148   5.004   4.203 -0.2432 -0.1535 -0.0325
 3183TIP3    H1 9555   6.062   5.008   4.161  0.7381  0.2597 -2.0864
 3183TIP3    H2 9556   6.161   5.092   4.239 -0.0765  0.2121 -0.9819
 3184TIP3   OH2 9557   3.741   1.058   2.306 -0.4494  0.3014 -0.1325
 3184TIP3    H1 9558   3.758   1.119   2.378 -0.2141 -1.0462  0.9883
 3184TIP3    H2 9559   3.796   0.982   2.326  0.1652  0.1786 -2.1335
 3185TIP3   OH2 9560   6.140   4.042   1.927  0.0026 -0.6350 -0.2228
 3185TIP3    H1 9561   6.231   4.015   1.928 -0.7983 -3.7011  1.5855
 3185TIP3    H2 9562   6.103   4.001   1.849  0.2747  1.3713 -1.4832
 3186TIP3   OH2 9563   0.367   1.312   0.798 -0.3813 -0.2456  0.2600
 3186TIP3    H1 9564   0.338   1.259   0.723  0.7070 -0.5559  0.0329
 3186TIP3    H2 9565   0.373   1.401   0.763  0.7327 -0.4912 -0.2190
 3187TIP3   OH2 9566   2.692   2.386   4.959  0.6048  0.1621 -0.4868
 3187TIP3    H1 9567   2.745   2.422   4.888 -1.1505 -0.4862 -2.2185
 3187TIP3    H2 9568   2.689   2.292   4.941 -1.3090  0.2036 -0.6368
 3188TIP3   OH2 9569   0.238   4.709   1.070 -0.8012  0.1871 -0.4963
 3188TIP3    H1 9570   0.327   4.738   1.087 -0.9753  0.7783 -0.5665
 3188TIP3    H2 9571   0.190   4.733   1.149 -0.7199 -0.9280 -0.0925
 3189TIP3   OH2 9572   2.559   3.547   3.363  0.1751  0.0069 -0.2928
 3189TIP3    H1 9573   2.629   3.483   3.350 -0.3142 -0.1656 -2.4131
 3189TIP3    H2 9574   2.484   3.510   3.317 -1.0218  0.7164  0.9954
 3190TIP3   OH2 9575   4.312   1.179   5.007  0.6800 -0.3434 -0.3510
 3190TIP3    H1 9576   4.371   1.104   5.001  0.3942 -0.4572 -2.4290
 3190TIP3    H2 9577   4.225   1.142   4.997  0.1451 -0.1653  2.6552
 3191TIP3   OH2 9578   1.024   3.369   2.881 -0.1071 -0.2744 -0.0406
 3191TIP3    H1 9579   1.035   3.369   2.976  1.5491 -0.0142 -0.2170
 3191TIP3    H2 9580   1.050   3.280   2.855  0.8351  0.0924 -0.3832
 3192TIP3   OH2 9581   3.751   3.314   1.154  0.6368  0.1835  0.1312
 3192TIP3    H1 9582   3.815   3.350   1.215  1.8654 -1.8046  0.0860
 3192TIP3    H2 9583   3.666   3.331   1.196  1.1214  2.9356  0.1488
 3193TIP3   OH2 9584   3.682   4.867   3.889 -0.3743 -0.3945 -0.4611
 3193TIP3    H1 9585   3.679   4.940   3.951 -1.0328  0.3933 -1.3937
 3193TIP3    H2 9586   3.723   4.796   3.938 -0.4987  0.3360  0.7417
 3194TIP3   OH2 9587   3.590   4.236   0.441 -0.2953 -0.3242 -0.2867
 3194TIP3    H1 9588   3.681   4.263   0.442  0.0573 -1.4937  0.4605
 3194TIP3    H2 9589   3.542   4.315   0.415  0.7522  0.8085  1.0437
 3195TIP3   OH2 9590   4.304   5.978   3.554  0.2225 -0.7089 -0.4279
 3195TIP3    H1 9591   4.307   6.011   3.644  0.7505 -0.2944 -0.5982
 3195TIP3    H2 9592   4.365   5.905   3.553  4.1808  2.2730 -1.6449
 3196TIP3   OH2 9593   0.819   5.456   4.721 -0.2252 -0.8612  0.1554
 3196TIP3    H1 9594   0.755   5.412   4.777  0.4598 -2.9392 -0.5834
 3196TIP3    H2 9595   0.901   5.450   4.771 -0.3574  0.7861  0.6076
 3197TIP3   OH2 9596   3.844   2.905   2.698  0.8987  0.3693  0.2020
 3197TIP3    H1 9597   3.815   2.895   2.789 -1.3714  1.3803 -0.3359
 3197TIP3    H2 9598   3.923   2.959   2.704  1.6824 -0.8477  1.6294
 3198TIP3   OH2 9599   0.099   0.266   3.215  0.0064  0.0479  0.1141
 3198TIP3    H1 9600   0.027   0.300   3.268  0.0611 -0.3807  0.4733
 3198TIP3    H2 9601   0.066   0.183   3.180  0.4265 -0.3004  0.5265
 3199TIP3   OH2 9602   1.884   4.943   4.043 -0.0145 -0.1945  0.7525
 3199TIP3    H1 9603   1.897   4.931   3.949 -0.6121 -0.2863  0.6748
 3199TIP3    H2 9604   1.842   5.028   4.051  0.7204  0.1501  1.0019
 3200TIP3   OH2 9605   0.034   5.307   1.047 -0.0888 -0.6468  0.0789
 3200TIP3    H1 9606   0.080   5.229   1.077  0.0281 -1.3252 -1.7440
 3200TIP3    H2 9607   0.090   5.343   0.978 -0.0115  1.2245  1.0455
 3201TIP3   OH2 9608   0.371   5.952   1.773  0.5177  0.6522 -0.1377
 3201TIP3    H1 9609   0.373   5.959   1.869 -0.0642  1.6000 -0.1879
 3201TIP3    H2 9610   0.417   6.030   1.742  2.0585 -0.4143 -0.6287
 3202TIP3   OH2 9611   5.450   5.015   1.390  0.6691  0.2392 -0.6842
 3202TIP3    H1 9612   5.515   5.030   1.459 -0.4150 -0.5039  0.5525
 3202TIP3    H2 9613   5.366   5.032   1.433  0.0010  0.3999 -2.0214
 3203TIP3   OH2 9614   3.595   0.111   0.385 -0.1722 -0.4239 -0.6017
 3203TIP3    H1 9615   3.504   0.109   0.414  0.5646 -2.6122  1.9971
 3203TIP3    H2 9616   3.615   0.204   0.372 -2.3768  0.1974  0.1004
 3204TIP3   OH2 9617   5.568   4.797   0.122  0.2504  0.2680 -0.8677
 3204TIP3    H1 9618   5.611   4.785   0.037  0.4602  0.8514 -0.8512
 3204TIP3    H2 9619   5.501   4.729   0.125 -0.2171  0.6705 -1.7956
 3205TIP3   OH2 9620   5.950   4.614   4.649 -0.3051 -0.1345  0.1494
 3205TIP3    H1 9621   5.989   4.537   4.690 -0.8507 -0.8422 -0.6341
 3205TIP3    H2 9622   6.020   4.650   4.594  0.7521  1.3566  2.2719
 3206TIP3   OH2 9623   0.903   1.654   5.024 -0.2430  0.4512 -0.5329
 3206TIP3    H1 9624   0.871   1.744   5.032 -0.6433  0.3039 -0.4534
 3206TIP3    H2 9625   0.998   1.663   5.016 -0.1340  0.8191  0.8644
 3207TIP3   OH2 9626   1.256   3.267   1.381  0.2757 -0.1627  0.0601
 3207TIP3    H1 9627   1.302   3.206   1.438  3.1553  1.6720 -0.0775
 3207TIP3    H2 9628   1.268   3.232   1.293  0.7242 -0.1256  0.1042
 3208TIP3   OH2 9629   0.621   1.682   5.082 -0.0014  0.2231 -0.0506
 3208TIP3    H1 9630   0.682   1.682   5.008 -0.9305  0.7315 -0.8311
 3208TIP3    H2 9631   0.621   1.591   5.112  1.9583  0.4180  0.6757
 3209TIP3   OH2 9632   5.973   4.898   0.904 -0.1247 -0.5522 -0.1246
 3209TIP3    H1 9633   5.949   4.818   0.858  0.0573 -1.2890  1.0236
 3209TIP3    H2 9634   5.913   4.903   0.978  1.4799 -1.0334  1.2935
 3210TIP3   OH2 9635   5.363   0.791   2.161  0.1297 -0.3260 -0.2653
 3210TIP3    H1 9636   5.332   0.777   2.072  0.6123  0.8980 -0.6438
 3210TIP3    H2 9637   5.458   0.801   2.153  0.3650 -1.6242  0.5765
 3211TIP3   OH2 9638   6.110   5.545   0.959  0.5510  0.0296  0.2485
 3211TIP3    H1 9639   6.084   5.615   0.899  0.0307 -0.1274  0.2809
 3211TIP3    H2 9640   6.051   5.555   1.034 -1.3740 -1.9977 -0.8436
 3212TIP3   OH2 9641   3.257   0.250   1.299  0.3199  0.2791 -0.1524
 3212TIP3    H1 9642   3.187   0.186   1.310 -0.7419  1.7771  2.8550
 3212TIP3    H2 9643   3.337   0.197   1.290 -0.6527 -1.4721  0.9967
 3213TIP3   OH2 9644   5.057   2.124   4.202  0.0152  0.7488  0.3521
 3213TIP3    H1 9645   4.977   2.177   4.204 -0.7620 -0.3968  0.3893
 3213TIP3    H2 9646   5.042   2.055   4.266  0.6113 -0.0743 -0.3663
 3214TIP3   OH2 9647   3.682   4.901   4.434  0.2973  0.1562  0.5865
 3214TIP3    H1 9648   3.621   4.976   4.435  0.0577 -0.0266  0.2060
 3214TIP3    H2 9649   3.664   4.855   4.515  0.5814  0.6183  0.9164
 3215TIP3   OH2 9650   3.304   5.322   4.886  0.4980  0.2020 -0.4164
 3215TIP3    H1 9651   3.220   5.283   4.864  0.3328 -0.0187  0.5623
 3215TIP3    H2 9652   3.368   5.272   4.835  0.1629 -0.5151 -0.1430
 3216TIP3   OH2 9653   5.368   1.561   1.552 -0.0504  0.2871  0.0482
 3216TIP3    H1 9654   5.428   1.497   1.589 -1.4509 -0.5525  0.9920
 3216TIP3    H2 9655   5.344   1.525   1.466 -2.1849 -1.4530  1.2862
 3217TIP3   OH2 9656   6.366   2.142   2.600 -0.2030 -0.0225 -0.3337
 3217TIP3    H1 9657   6.374   2.047   2.596 -0.3878 -0.0242 -0.6112
 3217TIP3    H2 9658   6.308   2.157   2.675 -1.3143 -0.1851 -1.1354
 3218TIP3   OH2 9659   3.324   3.365   0.683  0.4154  0.0485 -0.3663
 3218TIP3    H1 9660   3.349   3.456   0.700  1.4127 -0.1024 -0.9348
 3218TIP3    H2 9661   3.354   3.317   0.760 -1.5033  0.3888  0.6699
 3219TIP3   OH2 9662   1.721   4.889   3.278  0.2481  0.1893  0.7412
 3219TIP3    H1 9663   1.689   4.823   3.217 -1.3980  1.1332  0.5039
 3219TIP3    H2 9664   1.647   4.904   3.337  0.9647  1.0413  1.4412
 3220TIP3   OH2 9665   3.451  -0.001   1.771  0.1944  0.5181  0.2841
 3220TIP3    H1 9666   3.535   0.045   1.779  0.1212  0.5089  1.2215
 3220TIP3    H2 9667   3.395   0.042   1.836  0.1075 -0.8407  1.1429
 3221TIP3   OH2 9668   5.250   2.525   2.996  0.1380  0.4216  0.2145
 3221TIP3    H1 9669   5.166   2.512   3.040 -0.0989  1.2749  0.0265
 3221TIP3    H2 9670   5.315   2.519   3.066  0.4805 -5.0562 -0.1466
 3222TIP3   OH2 9671   5.044   3.535   4.426 -1.0026  0.2164 -0.1092
 3222TIP3    H1 9672   4.965   3.480   4.425 -1.9712  1.5314 -2.2579
 3222TIP3    H2 9673   5.045   3.577   4.340  2.6498 -0.5343 -0.5645
 3223TIP3   OH2 9674   1.207   2.549   2.489  0.4319  0.0846 -0.1259
 3223TIP3    H1 9675   1.174   2.631   2.452  0.2275  0.9062  1.7716
 3223TIP3    H2 9676   1.157   2.537   2.570  1.5544 -1.1101  0.4310
 3224TIP3   OH2 9677   4.910   1.687   4.424 -0.3855 -0.2065  0.2019
 3224TIP3    H1 9678   4.947   1.642   4.348 -0.0077 -0.7441  0.7020
 3224TIP3    H2 9679   4.904   1.620   4.492 -1.4192  0.0832  0.4291
 3225TIP3   OH2 9680   2.698   2.429   3.998 -0.1117  0.0694 -0.5296
 3225TIP3    H1 9681   2.629   2.390   3.944 -0.4208  1.0080 -0.8319
 3225TIP3    H2 9682   2.749   2.482   3.937 -0.6006  1.3243  0.1276
 3226TIP3   OH2 9683   2.160   1.592   4.523  0.4295  0.0541  0.1523
 3226TIP3    H1 9684   2.076   1.549   4.538  0.7980 -0.8799 -0.3399
 3226TIP3    H2 9685   2.190   1.619   4.610 -0.3220  0.3010  0.3408
 3227TIP3   OH2 9686   4.958   5.262   2.813  0.0997  0.5705 -0.1865
 3227TIP3    H1 9687   4.872   5.281   2.848 -0.0309  1.2041 -0.8177
 3227TIP3    H2 9688   5.014   5.332   2.847  0.4291  0.0202  0.4278
 3228TIP3   OH2 9689   1.427   1.623   4.763 -0.2788 -0.6303  0.0741
 3228TIP3    H1 9690   1.355   1.562   4.744 -0.2433 -0.8830  0.7236
 3228TIP3    H2 9691   1.503   1.566   4.777 -0.1770 -0.4183  0.3819
 3229TIP3   OH2 9692   1.098   0.774   2.731  0.2623 -0.4643 -0.1100
 3229TIP3    H1 9693   1.099   0.863   2.765  1.2274 -0.1469 -0.9001
 3229TIP3    H2 9694   1.120   0.784   2.638  2.4698 -1.6460  0.2102
 3230TIP3   OH2 9695   4.905   0.604   1.735 -0.5233 -0.2486  0.3534
 3230TIP3    H1 9696   4.859   0.677   1.694 -0.8834  0.2713  1.6338
 3230TIP3    H2 9697   4.854   0.527   1.711 -0.4489 -0.0186 -0.5604
 3231TIP3   OH2 9698   5.840   5.136   0.125  0.1476 -0.2543  0.1310
 3231TIP3    H1 9699   5.832   5.151   0.220  2.7013  0.3372  0.3118
 3231TIP3    H2 9700   5.753   5.157   0.091  0.0227  2.8203  1.9496
 3232TIP3   OH2 9701   4.317   4.874   4.086 -0.5991 -0.0855  0.1136
 3232TIP3    H1 9702   4.252   4.804   4.090 -0.7373  0.0439  0.1614
 3232TIP3    H2 9703   4.306   4.911   3.998 -1.5660  0.8551  0.6035
 3233TIP3   OH2 9704   3.209   5.029   4.291 -0.6789 -0.2592  0.0218
 3233TIP3    H1 9705   3.226   5.063   4.378 -2.4048  0.8813 -0.0307
 3233TIP3    H2 9706   3.135   4.968   4.303 -1.5597  0.6164 -0.7412
 3234TIP3   OH2 9707   2.166   0.302   3.517  0.0404 -0.2179 -0.0655
 3234TIP3    H1 9708   2.217   0.281   3.596 -0.5880  0.6192  0.5896
 3234TIP3    H2 9709   2.075   0.286   3.543 -0.2596  1.0604 -0.2805
 3235TIP3   OH2 9710   2.743   3.971   2.466 -0.6276  0.4493 -0.1018
 3235TIP3    H1 9711   2.757   3.997   2.557 -2.6296 -0.2384  0.4566
 3235TIP3    H2 9712   2.759   3.876   2.466 -3.1388 -0.0328  0.1723
 3236TIP3   OH2 9713   4.645   3.065   0.208 -0.3707 -0.1995 -0.9399
 3236TIP3    H1 9714   4.668   3.049   0.117  0.0174 -2.0345 -0.5579
 3236TIP3    H2 9715   4.714   3.123   0.241 -1.7006  2.3653 -2.3258
 3237TIP3   OH2 9716   4.399   2.778   3.775 -0.2659  0.3015 -0.5365
 3237TIP3    H1 9717   4.309   2.758   3.750 -0.3603 -0.7759  0.5752
 3237TIP3    H2 9718   4.396   2.789   3.870  1.0332 -1.3451 -0.2629
 3238TIP3   OH2 9719   2.610   2.729   3.978 -0.0268  0.1776  0.1890
 3238TIP3    H1 9720   2.554   2.663   4.017  1.4572 -2.1948 -1.4420
 3238TIP3    H2 9721   2.645   2.778   4.053 -1.5097 -0.5799  1.4239
 3239TIP3   OH2 9722   5.588   5.202   1.884 -0.4828 -0.5371 -0.1782
 3239TIP3    H1 9723   5.670   5.162   1.913 -1.1808 -1.7037  0.2498
 3239TIP3    H2 9724   5.559   5.254   1.959 -0.2000 -0.2106 -0.2918
 3240TIP3   OH2 9725   0.870   2.435   4.996 -0.2636 -0.9064 -0.5123
 3240TIP3    H1 9726   0.935   2.419   4.928 -0.2245 -2.2258 -0.2070
 3240TIP3    H2 9727   0.813   2.503   4.960  1.4524  0.5298 -0.6448
 3241TIP3   OH2 9728   1.257   1.885   2.587 -0.4481  0.2745  0.0311
 3241TIP3    H1 9729   1.248   1.818   2.654 -1.0188  2.4088  2.2667
 3241TIP3    H2 9730   1.249   1.838   2.504 -2.6528 -2.1635  1.4562
 3242TIP3   OH2 9731   3.451   4.494   0.425  0.0448 -0.2773  0.7742
 3242TIP3    H1 9732   3.511   4.550   0.375 -0.1303 -0.4481  0.3695
 3242TIP3    H2 9733   3.428   4.546   0.502  1.4506 -0.5600  1.4223
 3243TIP3   OH2 9734   3.865   1.649   0.492 -0.8483  0.4290 -0.4318
 3243TIP3    H1 9735   3.817   1.672   0.413  1.3462 -1.4867 -2.4914
 3243TIP3    H2 9736   3.928   1.721   0.503 -3.3322  2.4564  1.7232
 3244TIP3   OH2 9737   2.814   3.729   0.154 -0.0408  0.7101 -0.5640
 3244TIP3    H1 9738   2.845   3.747   0.065 -1.0415  1.9809 -0.6839
 3244TIP3    H2 9739   2.751   3.658   0.143  0.2872  0.4457 -0.7738
 3245TIP3   OH2 9740   5.278   4.055   2.729 -0.1097 -0.1465  0.2489
 3245TIP3    H1 9741   5.195   4.072   2.685  0.4045 -1.5662 -1.3795
 3245TIP3    H2 9742   5.262   3.979   2.785  0.0606 -0.3909 -0.0282
 3246TIP3   OH2 9743   0.667   5.062   0.158  0.1702  0.1434  0.0573
 3246TIP3    H1 9744   0.692   4.970   0.150  2.3613  0.7189 -0.3982
 3246TIP3    H2 9745   0.747   5.110   0.137 -0.8076  2.1552  0.7286
 3247TIP3   OH2 9746   4.585   1.006   2.602 -0.2035  0.0536  0.4604
 3247TIP3    H1 9747   4.666   0.975   2.563 -0.3972  0.3434 -0.1817
 3247TIP3    H2 9748   4.610   1.084   2.652 -0.2424  0.7394 -0.5636
 3248TIP3   OH2 9749   5.076   2.392   2.689  0.0363  0.1223 -0.3262
 3248TIP3    H1 9750   5.046   2.470   2.641  0.5586 -0.2499 -1.2787
 3248TIP3    H2 9751   5.047   2.318   2.635 -2.4118 -0.5049  1.6412
 3249TIP3   OH2 9752   6.314   2.975   0.121 -0.2586 -0.4211  0.6441
 3249TIP3    H1 9753   6.382   3.039   0.140 -1.8197  1.7959 -0.6936
 3249TIP3    H2 9754   6.309   2.920   0.200  1.3867  0.8657  1.7085
 3250TIP3   OH2 9755   3.059   4.278   1.018  0.3988  0.4829 -0.0319
 3250TIP3    H1 9756   3.014   4.201   0.984  1.0301 -0.1008  0.4188
 3250TIP3    H2 9757   3.095   4.249   1.102  0.8037  1.2118  0.0542
 3251TIP3   OH2 9758   0.117   1.456   1.396 -0.1558  0.3425  0.3987
 3251TIP3    H1 9759   0.150   1.471   1.485  1.1661  0.1038 -0.0357
 3251TIP3    H2 9760   0.025   1.432   1.409  0.1091 -0.0623  1.7379
 3252TIP3   OH2 9761   5.220   3.550   1.248 -0.2121  0.2275  0.1071
 3252TIP3    H1 9762   5.237   3.506   1.331  0.2025  1.3670  0.6358
 3252TIP3    H2 9763   5.179   3.633   1.272  0.6989  0.9553 -0.7647
 3253TIP3   OH2 9764   0.883   3.634   1.924  0.4731 -0.1789  0.1144
 3253TIP3    H1 9765   0.831   3.585   1.860 -1.2809  0.8827  0.6756
 3253TIP3    H2 9766   0.848   3.607   2.009  0.8963  0.5147  0.5178
 3254TIP3   OH2 9767   0.332   3.102   1.563  0.3296  0.0209 -0.3315
 3254TIP3    H1 9768   0.339   3.045   1.487 -0.0818 -2.2613  1.2597
 3254TIP3    H2 9769   0.246   3.081   1.601  0.7817  0.6727  1.1075
 3255TIP3   OH2 9770   3.891   5.350   3.328  0.6141 -0.4000  0.2803
 3255TIP3    H1 9771   3.960   5.301   3.374  0.3530 -0.7861  0.2714
 3255TIP3    H2 9772   3.819   5.352   3.391  0.9411  0.7912  0.6409
 3256TIP3   OH2 9773   3.782   5.388   1.979  0.5860  0.1617  0.8107
 3256TIP3    H1 9774   3.876   5.402   1.984  0.4323  0.7649  3.2030
 3256TIP3    H2 9775   3.773   5.299   1.945  2.1002 -0.7819  2.7148
 3257TIP3   OH2 9776   2.857   4.088   2.238 -0.3036  0.3278  0.3925
 3257TIP3    H1 9777   2.842   4.070   2.330  0.2581 -1.9624  0.0962
 3257TIP3    H2 9778   2.782   4.141   2.211 -1.8582 -1.1320  1.5973
 3258TIP3   OH2 9779   3.680   2.862   0.188  0.0986 -0.0399 -0.1101
 3258TIP3    H1 9780   3.674   2.848   0.283  2.2468  1.2793  0.2929
 3258TIP3    H2 9781   3.642   2.950   0.175 -2.0371 -0.9963 -0.8279
 3259TIP3   OH2 9782   4.445   5.905   1.495  0.1429 -0.0839 -0.1588
 3259TIP3    H1 9783   4.419   5.902   1.587 -0.0204 -1.7690 -0.2132
 3259TIP3    H2 9784   4.523   5.960   1.493  0.5027 -0.5181  1.1022
 3260TIP3   OH2 9785   4.164   1.722   0.344 -0.0233  0.4368  0.1605
 3260TIP3    H1 9786   4.228   1.770   0.397  0.0875  0.4021  0.0567
 3260TIP3    H2 9787   4.184   1.630   0.360  0.3296  0.4264 -0.3336
 3261TIP3   OH2 9788   5.210   1.357   1.707  0.0442  0.2400  0.3080
 3261TIP3    H1 9789   5.128   1.374   1.754  0.6321  1.9126  0.8027
 3261TIP3    H2 9790   5.238   1.443   1.676  2.0589 -0.1425  0.9323
 3262TIP3   OH2 9791   4.685   1.202   5.159 -0.2489 -0.0709 -0.1686
 3262TIP3    H1 9792   4.636   1.152   5.094 -0.4994 -1.7723  1.2357
 3262TIP3    H2 9793   4.730   1.270   5.109  0.0526 -1.6581 -2.1790
 3263TIP3   OH2 9794   1.783   4.400   3.011  0.3229  0.0465  0.0347
 3263TIP3    H1 9795   1.839   4.324   2.993  0.7545 -0.1841  2.0977
 3263TIP3    H2 9796   1.829   4.474   2.972  1.3878 -0.3335  0.5457
 3264TIP3   OH2 9797   4.302   5.081   4.608  0.3451 -0.0968 -0.1180
 3264TIP3    H1 9798   4.215   5.056   4.575  1.2736 -0.9814 -2.0503
 3264TIP3    H2 9799   4.284   5.128   4.690 -1.8217 -2.5414  0.9532
 3265TIP3   OH2 9800   5.343   1.810   0.583 -0.0302  0.4892 -0.3051
 3265TIP3    H1 9801   5.370   1.720   0.564  1.8342  0.7540  0.8699
 3265TIP3    H2 9802   5.285   1.802   0.659  0.3014  0.2855 -0.0692
 3266TIP3   OH2 9803   4.736   1.632   5.036  0.0950  0.2774 -0.4867
 3266TIP3    H1 9804   4.806   1.685   5.074  1.1439 -1.5214  0.2079
 3266TIP3    H2 9805   4.779   1.552   5.007 -1.9205 -2.0706  2.3260
 3267TIP3   OH2 9806   1.340   3.987   3.256 -0.4345  0.0262  0.0512
 3267TIP3    H1 9807   1.384   3.922   3.309  0.5345  0.1486 -0.5793
 3267TIP3    H2 9808   1.247   3.966   3.263 -0.1941 -0.8581  0.5810
 3268TIP3   OH2 9809   5.815   3.493   4.370  0.0608  0.1174 -0.1252
 3268TIP3    H1 9810   5.762   3.425   4.328  1.1944 -0.7550 -0.1965
 3268TIP3    H2 9811   5.755   3.565   4.385 -0.7922 -0.2551 -1.5960
 3269TIP3   OH2 9812   6.103   1.767   4.436 -0.3067  0.0404 -0.2256
 3269TIP3    H1 9813   6.119   1.688   4.488  0.3102 -0.7178 -1.5086
 3269TIP3    H2 9814   6.031   1.743   4.377 -0.4071  0.5888 -0.3338
 3270TIP3   OH2 9815   6.279   5.218   5.037 -0.7245 -0.1328 -0.5719
 3270TIP3    H1 9816   6.263   5.126   5.015  0.3193 -0.4807  0.0294
 3270TIP3    H2 9817   6.291   5.218   5.132 -0.7869  0.6395 -0.5547
 3271TIP3   OH2 9818   0.377   5.552   1.566 -0.0522  0.3410  0.3114
 3271TIP3    H1 9819   0.347   5.467   1.532 -1.2709  0.3595  1.2850
 3271TIP3    H2 9820   0.467   5.535   1.596  0.3436 -0.1586 -1.0638
 3272TIP3   OH2 9821   0.692   5.045   3.369  0.7656 -0.1680  0.3263
 3272TIP3    H1 9822   0.609   5.000   3.386  1.0853 -1.1043 -0.4694
 3272TIP3    H2 9823   0.746   4.979   3.326  1.7571  0.5798  0.3881
 3273TIP3   OH2 9824   3.777   0.174   1.337 -0.2518  0.3529 -0.3919
 3273TIP3    H1 9825   3.776   0.171   1.242  3.3257 -1.2097 -0.5700
 3273TIP3    H2 9826   3.862   0.213   1.359 -0.6731  0.0511  2.1468
 3274TIP3   OH2 9827   3.050   3.387   0.769  0.6887  0.3057 -0.2431
 3274TIP3    H1 9828   3.129   3.356   0.726  0.5387  1.1740 -1.1716
 3274TIP3    H2 9829   2.987   3.315   0.757  1.5622 -0.7761  1.2896
 3275TIP3   OH2 9830   4.774   1.001   0.397  0.1704  0.2471 -0.7517
 3275TIP3    H1 9831   4.807   0.960   0.477 -0.3411 -0.8817 -1.0951
 3275TIP3    H2 9832   4.797   0.940   0.327  2.3684  2.1130 -1.7992
 3276TIP3   OH2 9833   4.069   3.081   2.677  0.3590  0.2150  0.4715
 3276TIP3    H1 9834   4.124   3.143   2.724 -1.1102  2.1824 -0.2833
 3276TIP3    H2 9835   4.012   3.135   2.623 -0.4551 -1.8369 -0.8584
 3277TIP3   OH2 9836   2.867   4.463   4.771 -0.7142  0.2312 -0.3116
 3277TIP3    H1 9837   2.938   4.525   4.752 -0.7910  0.5235  0.3363
 3277TIP3    H2 9838   2.787   4.510   4.746 -0.7838  0.4585  0.3241
 3278TIP3   OH2 9839   4.958   1.941   4.682  0.2082  0.4528  0.0559
 3278TIP3    H1 9840   4.962   1.975   4.592  0.9211  3.0044  0.9469
 3278TIP3    H2 9841   4.865   1.943   4.705  0.2371  2.3741  0.1950
 3279TIP3   OH2 9842   1.349   0.847   3.158  0.1212 -0.7181 -0.0223
 3279TIP3    H1 9843   1.339   0.839   3.063 -0.6448 -0.8526  0.0669
 3279TIP3    H2 9844   1.423   0.790   3.179 -0.3608 -1.5054 -0.4117
 3280TIP3   OH2 9845   3.912   1.309   2.085  0.0697  0.6306 -0.0895
 3280TIP3    H1 9846   3.940   1.303   1.993  1.5010  0.5176  0.3283
 3280TIP3    H2 9847   3.838   1.369   2.084  0.4633  1.1175 -1.2383
 3281TIP3   OH2 9848   0.202   2.741   2.613 -0.2347 -0.3676 -0.1833
 3281TIP3    H1 9849   0.193   2.662   2.560  1.3153 -2.1470  1.9790
 3281TIP3    H2 9850   0.210   2.708   2.703  0.5352  2.2564  0.7934
 3282TIP3   OH2 9851   4.262   4.640   4.591  0.3456  0.3954 -0.1677
 3282TIP3    H1 9852   4.304   4.679   4.514 -0.4475  0.8949 -0.3494
 3282TIP3    H2 9853   4.271   4.545   4.577 -1.0053  0.4433 -1.5782
 3283TIP3   OH2 9854   2.327   5.974   0.568  0.2603  0.1022 -0.0704
 3283TIP3    H1 9855   2.306   5.949   0.478  0.1797 -0.3480  0.0691
 3283TIP3    H2 9856   2.421   5.993   0.567  0.0895  0.9659 -0.4404
 3284TIP3   OH2 9857   1.974   4.125   0.291 -0.0886  0.3034 -0.1711
 3284TIP3    H1 9858   1.986   4.123   0.196 -0.6910  2.1927 -0.3303
 3284TIP3    H2 9859   1.880   4.139   0.303 -0.5495 -2.8878  0.8148
 3285TIP3   OH2 9860   4.980   5.739   2.657 -0.3132 -0.3889 -0.7442
 3285TIP3    H1 9861   5.013   5.780   2.737 -1.4330  1.5507 -1.2076
 3285TIP3    H2 9862   5.054   5.689   2.623  0.7064  0.1607  0.5932
 3286TIP3   OH2 9863   3.722   4.749   1.450 -0.2456  0.2965  0.7842
 3286TIP3    H1 9864   3.815   4.737   1.432 -0.3785  1.2684 -0.6492
 3286TIP3    H2 9865   3.694   4.818   1.390 -2.2652 -1.1220 -0.0019
 3287TIP3   OH2 9866   0.637   3.069   2.136 -0.0380  0.2423  0.5504
 3287TIP3    H1 9867   0.639   3.162   2.116  1.7671 -0.0348 -0.7999
 3287TIP3    H2 9868   0.544   3.047   2.140 -0.4951  2.1586  1.3410
 3288TIP3   OH2 9869   1.650   5.989   0.656 -0.1730 -0.4980 -0.4486
 3288TIP3    H1 9870   1.706   6.065   0.674 -1.3515  0.5824 -1.1671
 3288TIP3    H2 9871   1.694   5.916   0.699  0.9406  0.6087  0.3628
 3289TIP3   OH2 9872   3.965   3.541   3.325  0.7328  0.3324  0.2689
 3289TIP3    H1 9873   3.924   3.609   3.272 -1.1301 -0.5404  0.5240
 3289TIP3    H2 9874   3.974   3.580   3.412 -0.0696  0.3807  0.3417
 3290TIP3   OH2 9875   0.361   0.182   1.707 -0.4633  0.5683  0.5016
 3290TIP3    H1 9876   0.316   0.203   1.625 -0.1750  0.6556  0.3665
 3290TIP3    H2 9877   0.379   0.267   1.747 -0.7570  0.5209  0.7394
 3291TIP3   OH2 9878   0.637   4.317   4.001 -0.4020  0.8288  0.2831
 3291TIP3    H1 9879   0.592   4.259   4.062  0.8530 -0.3909  0.1024
 3291TIP3    H2 9880   0.669   4.389   4.055 -0.7748  0.6408  0.7593
 3292TIP3   OH2 9881   3.898   5.166   4.486 -0.2406 -0.1962  0.1493
 3292TIP3    H1 9882   3.815   5.128   4.514 -0.2673 -0.3105 -0.0788
 3292TIP3    H2 9883   3.873   5.244   4.436 -0.2490 -0.6693 -0.6006
 3293TIP3   OH2 9884   3.933   5.112   0.368  0.0992 -0.3704  0.4753
 3293TIP3    H1 9885   3.888   5.080   0.446  0.3378 -0.8245  0.4257
 3293TIP3    H2 9886   4.003   5.167   0.402  0.4425 -0.8788  0.5914
 3294TIP3   OH2 9887   2.716   2.976   0.434  0.1207 -0.2038  0.2002
 3294TIP3    H1 9888   2.749   3.001   0.348  1.3976  3.6649  1.6027
 3294TIP3    H2 9889   2.791   2.934   0.477  0.1230 -0.3208  0.0810
 3295TIP3   OH2 9890   5.632   0.340   2.489 -0.0721  0.2877  0.2518
 3295TIP3    H1 9891   5.555   0.398   2.498 -0.5763 -0.4737  0.9702
 3295TIP3    H2 9892   5.622   0.276   2.559  1.8256  0.8386  1.0788
 3296TIP3   OH2 9893   3.730   0.112   5.107  0.5073 -0.2920 -0.3664
 3296TIP3    H1 9894   3.761   0.101   5.017  1.8359  0.7438 -0.0654
 3296TIP3    H2 9895   3.772   0.193   5.136 -0.0917 -0.4994  1.1108
 3297TIP3   OH2 9896   6.024   3.589   5.164  0.2273 -0.3047  0.4180
 3297TIP3    H1 9897   5.977   3.510   5.137 -0.4964  0.3154 -0.1704
 3297TIP3    H2 9898   6.075   3.615   5.088  0.1270  0.0292  0.4595
 3298TIP3   OH2 9899   0.671   5.994   1.352 -0.0952  1.0417  0.1619
 3298TIP3    H1 9900   0.595   6.009   1.295 -0.8465  0.5869  1.0262
 3298TIP3    H2 9901   0.635   5.951   1.429  1.3566 -1.3622 -0.3873
 3299TIP3   OH2 9902   1.591   2.272   3.751  0.0725  0.7547 -0.5184
 3299TIP3    H1 9903   1.640   2.256   3.670  0.2489 -0.9626 -0.1213
 3299TIP3    H2 9904   1.543   2.190   3.766 -0.3263  1.2184  0.8601
 3300TIP3   OH2 9905   2.674   3.949   0.044  0.2027 -0.4306 -0.4515
 3300TIP3    H1 9906   2.589   3.916   0.072 -0.5239  1.4429 -0.2661
 3300TIP3    H2 9907   2.737   3.903   0.099 -1.0066  1.3090  2.6890
 3301TIP3   OH2 9908   1.947   1.582   0.996 -0.0621  0.4044 -0.1142
 3301TIP3    H1 9909   1.860   1.622   1.001 -0.1350  0.1572  0.6666
 3301TIP3    H2 9910   1.931   1.493   0.964  0.0575  0.8248 -1.4102
 3302TIP3   OH2 9911   0.961   2.747   3.888  0.4256 -0.2725 -0.1875
 3302TIP3    H1 9912   0.943   2.696   3.809  0.2796 -1.7957  0.7846
 3302TIP3    H2 9913   0.984   2.681   3.954  1.1712  1.0017  0.8806
 3303TIP3   OH2 9914   3.387   0.850   4.453 -0.0107  1.0145  0.0248
 3303TIP3    H1 9915   3.298   0.869   4.423 -0.0297  1.3145  0.2656
 3303TIP3    H2 9916   3.381   0.763   4.492  0.0698  0.5051 -1.0570
 3304TIP3   OH2 9917   2.008   3.515   5.038 -0.4790  0.0239 -0.4508
 3304TIP3    H1 9918   2.052   3.584   4.988  0.4733  0.3854  0.8596
 3304TIP3    H2 9919   1.916   3.539   5.035 -0.5207 -0.2037 -2.3968
 3305TIP3   OH2 9920   5.217   5.816   0.668  0.5347  0.0538  0.0641
 3305TIP3    H1 9921   5.273   5.763   0.725 -0.0932 -1.0788 -0.3483
 3305TIP3    H2 9922   5.131   5.775   0.674  0.1086  0.8355 -0.5265
 3306TIP3   OH2 9923   1.479   5.903   0.046  0.7780 -0.0090 -1.0172
 3306TIP3    H1 9924   1.488   5.835  -0.021 -1.1438 -0.5189 -0.8272
 3306TIP3    H2 9925   1.479   5.854   0.129  2.8820  0.5912 -0.6013
 3307TIP3   OH2 9926   3.465   2.642   0.581 -0.3588 -0.1995  0.1718
 3307TIP3    H1 9927   3.448   2.717   0.524  0.6766 -0.4265 -0.4508
 3307TIP3    H2 9928   3.436   2.671   0.667 -1.4956  0.3216 -0.3695
 3308TIP3   OH2 9929   2.943   4.857   3.668  0.2598  0.4152 -0.4684
 3308TIP3    H1 9930   3.032   4.881   3.694  0.3966  0.9831 -1.4353
 3308TIP3    H2 9931   2.887   4.899   3.733  0.4326  4.0860 -2.4494
 3309TIP3   OH2 9932   2.987   2.783   4.670 -0.4224  0.1926 -0.2134
 3309TIP3    H1 9933   3.057   2.719   4.678 -1.8295 -1.8327 -2.6587
 3309TIP3    H2 9934   3.032   2.865   4.647  1.2433 -0.4994  0.4246
 3310TIP3   OH2 9935   5.966   2.896   0.456 -0.4312  0.1557  0.2029
 3310TIP3    H1 9936   5.884   2.863   0.419  0.3346 -0.3183 -1.1142
 3310TIP3    H2 9937   6.006   2.946   0.386  0.3579  0.5052  0.8854
 3311TIP3   OH2 9938   6.208   2.411   1.709 -0.0347 -0.1392  0.0598
 3311TIP3    H1 9939   6.283   2.452   1.665  1.2574 -2.2955  0.0946
 3311TIP3    H2 9940   6.138   2.415   1.644  0.8132 -0.1547 -0.8873
 3312TIP3   OH2 9941   2.818   1.386   4.525  0.2608 -0.0705  0.5372
 3312TIP3    H1 9942   2.778   1.464   4.564  0.0503 -0.6458  1.4996
 3312TIP3    H2 9943   2.778   1.312   4.572 -1.1731 -0.8903 -1.8232
 3313TIP3   OH2 9944   5.339   2.736   0.423  0.2696  0.0677  0.1810
 3313TIP3    H1 9945   5.424   2.774   0.447  0.8862  0.6312 -2.5612
 3313TIP3    H2 9946   5.284   2.812   0.403 -0.0425 -0.3527 -0.5876
 3314TIP3   OH2 9947   0.442   2.151  -0.013  0.1991 -0.3051 -0.2588
 3314TIP3    H1 9948   0.504   2.142   0.060  0.8276  0.2624 -0.7109
 3314TIP3    H2 9949   0.374   2.087   0.006  0.5590 -0.4467  0.6222
 3315TIP3   OH2 9950   1.775   1.932   0.620 -0.1088  0.2986 -0.4472
 3315TIP3    H1 9951   1.704   1.907   0.679 -0.0656  0.3716 -0.3640
 3315TIP3    H2 9952   1.847   1.872   0.641 -0.2605 -0.0002 -0.7668
 3316TIP3   OH2 9953   0.174   4.308   5.174  0.1220  0.2376  0.2570
 3316TIP3    H1 9954   0.140   4.397   5.172 -1.0077 -0.1029  2.0550
 3316TIP3    H2 9955   0.177   4.281   5.082 -1.6614  1.3532 -0.1753
 3317TIP3   OH2 9956   0.615   5.474   3.097  0.0349 -0.1412 -0.1976
 3317TIP3    H1 9957   0.594   5.449   3.007  0.4427 -0.3260 -0.2442
 3317TIP3    H2 9958   0.640   5.393   3.140 -0.4985 -0.1082  0.1835
 3318TIP3   OH2 9959   3.634   3.497   4.989  0.1338  0.8584  0.1993
 3318TIP3    H1 9960   3.597   3.473   5.074 -0.2756 -1.4596 -0.5500
 3318TIP3    H2 9961   3.641   3.414   4.942  1.5245  1.9100 -1.5861
 3319TIP3   OH2 9962   0.224   5.526   1.213  0.4609  0.4457 -0.3806
 3319TIP3    H1 9963   0.293   5.478   1.169 -0.5219 -0.1863 -1.2814
 3319TIP3    H2 9964   0.232   5.500   1.305  1.6492  0.6889 -0.4042
 3320TIP3   OH2 9965   0.931   4.668   4.821  0.0858  0.1175  0.0844
 3320TIP3    H1 9966   1.019   4.705   4.813  0.4836 -1.0597 -1.6625
 3320TIP3    H2 9967   0.944   4.574   4.813 -1.3872 -0.0306 -0.9793
 3321TIP3   OH2 9968   3.713   2.605   4.633  0.3565 -0.6202  0.0688
 3321TIP3    H1 9969   3.700   2.597   4.539  0.8840 -2.3376  0.1113
 3321TIP3    H2 9970   3.741   2.696   4.646  2.5141 -0.9417 -1.7278
 3322TIP3   OH2 9971   4.578   3.384   0.311  0.0820 -1.0148 -0.6170
 3322TIP3    H1 9972   4.483   3.377   0.321  0.1887 -1.2108  0.3242
 3322TIP3    H2 9973   4.598   3.326   0.237 -0.6972  0.2298 -1.8525
 3323TIP3   OH2 9974   0.667   5.873   0.763 -0.5498  0.3746  0.6602
 3323TIP3    H1 9975   0.621   5.943   0.717 -0.3435  0.1394  0.0990
 3323TIP3    H2 9976   0.616   5.794   0.746 -0.3905  0.2604  0.7084
 3324TIP3   OH2 9977   6.048   3.904   1.714 -0.0464  0.4469  0.5287
 3324TIP3    H1 9978   6.022   3.902   1.621 -1.0403  0.9365  0.7789
 3324TIP3    H2 9979   6.034   3.814   1.745  1.1840  0.0496 -0.0126
 3325TIP3   OH2 9980   1.306   5.501   0.861  0.0174 -0.1414  0.7296
 3325TIP3    H1 9981   1.218   5.531   0.838  0.2667 -0.5801 -0.9836
 3325TIP3    H2 9982   1.303   5.485   0.955 -0.9693  2.3147  1.1813
 3326TIP3   OH2 9983   1.367   2.771   1.355 -0.5456  0.5184 -0.4073
 3326TIP3    H1 9984   1.310   2.740   1.285 -0.7871  0.9982 -0.4290
 3326TIP3    H2 9985   1.307   2.806   1.421 -0.5336 -2.3556  1.3343
 3327TIP3   OH2 9986   5.667   4.602   2.309 -0.2381 -0.3788  0.2424
 3327TIP3    H1 9987   5.633   4.529   2.258  1.2780 -0.9734  0.0347
 3327TIP3    H2 9988   5.642   4.680   2.259  0.5025 -0.9131 -0.9976
 3328TIP3   OH2 9989   2.545   4.070   2.019  0.9677 -0.6004  0.6526
 3328TIP3    H1 9990   2.640   4.061   2.014  1.0652 -0.8245  2.2612
 3328TIP3    H2 9991   2.528   4.096   2.110 -0.5638 -1.5787  0.6960
 3329TIP3   OH2 9992   4.666   1.768   3.818 -0.6639 -0.4122 -0.0450
 3329TIP3    H1 9993   4.640   1.806   3.734 -0.0550  0.9976  0.3746
 3329TIP3    H2 9994   4.586   1.766   3.869 -0.8870 -0.5813 -0.3957
 3330TIP3   OH2 9995   5.060   3.369   3.665  0.2021 -0.5051  0.1093
 3330TIP3    H1 9996   5.082   3.299   3.604 -2.3555  0.0714 -1.6286
 3330TIP3    H2 9997   5.003   3.327   3.730 -1.8106 -0.0500 -1.2585
 3331TIP3   OH2 9998   1.233   5.081   2.424  0.1432 -0.0491 -0.2847
 3331TIP3    H1 9999   1.328   5.088   2.436  0.5483 -3.3821 -0.4419
 3331TIP3    H210000   1.214   5.135   2.347  1.6742  1.5907  0.4183
 3332TIP3   OH210001   6.188   4.750   3.311 -0.6153 -0.1157  0.2892
 3332TIP3    H110002   6.231   4.759   3.396  0.1130  0.8598 -0.1642
 3332TIP3    H210003   6.249   4.789   3.248 -0.8244 -1.4624 -0.7866
 3333TIP3   OH210004   2.923   3.952   4.718  0.0836 -0.2998  0.2896
 3333TIP3    H110005   2.950   4.044   4.710  0.0120 -0.4274 -2.4154
 3333TIP3    H210006   2.859   3.952   4.788 -0.1755  1.8058  0.1367
 3334TIP3   OH210007   1.728   4.029   0.169  0.5396  0.2476 -0.0163
 3334TIP3    H110008   1.742   3.937   0.191 -1.4131 -0.1640 -0.3346
 3334TIP3    H210009   1.754   4.036   0.077  4.5703  1.0166  0.9553
 3335TIP3   OH210010   1.649   2.037   2.621  0.6251 -0.3842  0.0487
 3335TIP3    H110011   1.667   2.071   2.533 -1.4138  0.6269 -0.0202
 3335TIP3    H210012   1.720   1.974   2.637  1.0575 -0.5755 -2.2923
 3336TIP3   OH210013   3.056   0.590   3.701  0.0125 -0.3937  0.3702
 3336TIP3    H110014   3.034   0.580   3.793  1.5680 -0.3751  0.7785
 3336TIP3    H210015   3.125   0.657   3.700  0.0628 -0.4300 -0.7955
 3337TIP3   OH210016   5.846   0.997   1.358  0.4642 -0.6798  0.1158
 3337TIP3    H110017   5.861   1.063   1.291 -1.3162 -0.0055  0.3490
 3337TIP3    H210018   5.783   1.036   1.418  0.5338 -2.0177  1.1184
 3338TIP3   OH210019   0.951   3.030   3.986 -0.7548 -0.2217 -0.1130
 3338TIP3    H110020   0.892   3.066   3.920 -0.8851 -1.5337 -0.7579
 3338TIP3    H210021   0.896   3.019   4.064 -1.0478 -0.2516 -0.3228
 3339TIP3   OH210022   3.734   3.524   0.484 -0.2270 -0.5996  0.0656
 3339TIP3    H110023   3.816   3.476   0.497  0.1651 -0.3787 -1.4099
 3339TIP3    H210024   3.667   3.456   0.481 -0.2812 -0.7229  2.2536
 3340TIP3   OH210025   0.222   5.084   1.110  0.4944  0.1373  0.0294
 3340TIP3    H110026   0.300   5.139   1.111  0.3881  0.2895  0.0004
 3340TIP3    H210027   0.235   5.027   1.034  0.5116  0.2591 -0.0604
 3341TIP3   OH210028   5.952   1.416   3.301  0.1883 -0.2046  0.0310
 3341TIP3    H110029   6.046   1.405   3.288  0.0070 -0.0491 -1.7441
 3341TIP3    H210030   5.941   1.511   3.313  0.2524 -0.2059  0.0984
 3342TIP3   OH210031   0.655   5.405   5.186 -0.3886 -0.5229  0.3114
 3342TIP3    H110032   0.647   5.355   5.104 -0.1201 -0.7336  0.4138
 3342TIP3    H210033   0.690   5.342   5.249 -0.0811 -0.2108  0.4516
 3343TIP3   OH210034   0.336   2.894   0.857 -0.1741 -0.3300  0.0502
 3343TIP3    H110035   0.250   2.893   0.898 -0.2223 -0.3834 -0.0520
 3343TIP3    H210036   0.363   2.802   0.855  0.3130 -0.2234  0.9762
 3344TIP3   OH210037   3.214   0.467   4.443 -0.9781  0.5478 -0.3901
 3344TIP3    H110038   3.135   0.501   4.483 -1.6355  0.0061 -1.1848
 3344TIP3    H210039   3.194   0.465   4.349 -0.7853 -1.4610 -0.4366
 3345TIP3   OH210040   5.229   1.332   3.684 -0.0581 -0.9476  0.0648
 3345TIP3    H110041   5.151   1.304   3.731  0.2784 -0.9351  0.6420
 3345TIP3    H210042   5.244   1.264   3.618  0.0098 -1.4580  0.5996
 3346TIP3   OH210043   2.263   4.576   3.562  0.1826 -0.3365 -0.0862
 3346TIP3    H110044   2.228   4.665   3.552 -1.1533 -0.8658 -0.4051
 3346TIP3    H210045   2.188   4.525   3.596  1.4382 -0.9494  1.9506
 3347TIP3   OH210046   2.497   3.219   3.077  0.6295  0.4674 -0.2396
 3347TIP3    H110047   2.544   3.153   3.026 -1.2496  1.4117 -3.4948
 3347TIP3    H210048   2.430   3.170   3.124 -0.0533 -0.1149 -1.7655
 3348TIP3   OH210049   0.089   0.440   1.331  0.6283  0.5193  0.0232
 3348TIP3    H110050   0.063   0.376   1.265  1.1523  1.0134 -0.6772
 3348TIP3    H210051   0.128   0.512   1.281 -3.3291  3.2098  0.3626
 3349TIP3   OH210052   5.233   5.434   2.218 -0.0979 -0.3450 -0.1974
 3349TIP3    H110053   5.284   5.424   2.299 -1.5684 -0.1626  0.7935
 3349TIP3    H210054   5.155   5.484   2.245 -1.1305 -1.1898 -1.5021
 3350TIP3   OH210055   5.397   5.128   4.018  0.0954  0.3545  0.3767
 3350TIP3    H110056   5.438   5.215   4.018 -1.8543  1.4622 -2.5843
 3350TIP3    H210057   5.394   5.104   3.925 -2.4909 -1.2973  0.7916
 3351TIP3   OH210058   2.288   2.198   1.010  0.1748 -0.8760 -0.0112
 3351TIP3    H110059   2.200   2.229   1.032  1.0496  1.7651  0.1214
 3351TIP3    H210060   2.295   2.113   1.054 -1.7765 -0.4685  1.2261
 3352TIP3   OH210061   6.231   0.349   2.307  0.1105 -0.1141  0.4624
 3352TIP3    H110062   6.322   0.325   2.295  0.4699  1.6254 -0.7162
 3352TIP3    H210063   6.234   0.436   2.348 -1.0135 -0.0164  0.3844
 3353TIP3   OH210064   2.078   1.959   0.916 -0.2873  0.1024 -0.2350
 3353TIP3    H110065   2.084   2.053   0.898  2.2255  0.1825  0.5503
 3353TIP3    H210066   2.000   1.930   0.869 -1.1536  2.5727 -0.4658
 3354TIP3   OH210067   1.893   2.449   2.297  0.5942 -0.2291  0.0385
 3354TIP3    H110068   1.982   2.481   2.283 -0.2983  2.8908  0.7705
 3354TIP3    H210069   1.869   2.408   2.214  1.9491  0.8648 -0.9470
 3355TIP3   OH210070   5.309   3.527   0.528  0.1397 -0.3467  0.2142
 3355TIP3    H110071   5.343   3.613   0.502 -1.9737  0.4692 -0.0203
 3355TIP3    H210072   5.371   3.497   0.596  2.3915  0.1289 -1.4987
 3356TIP3   OH210073   3.808   4.159   3.822  0.6599 -0.0029  0.2437
 3356TIP3    H110074   3.793   4.218   3.896 -1.7282  0.5314 -0.5556
 3356TIP3    H210075   3.871   4.204   3.766 -0.0760  1.1809  0.3421
 3357TIP3   OH210076   1.011   2.466   4.748 -0.2255 -0.3311 -0.2112
 3357TIP3    H110077   0.984   2.446   4.658 -0.7616  0.4468 -0.2348
 3357TIP3    H210078   1.015   2.562   4.750 -1.2797 -0.2945  0.8994
 3358TIP3   OH210079   0.619   0.701   1.328  0.2985 -0.2783 -0.2249
 3358TIP3    H110080   0.656   0.697   1.239 -2.2663 -2.3383 -1.3181
 3358TIP3    H210081   0.550   0.767   1.323  0.1047 -0.4398  0.2264
 3359TIP3   OH210082   5.488   0.891   0.791  0.1056  0.4830 -0.2453
 3359TIP3    H110083   5.571   0.856   0.759 -1.1041 -0.7010 -2.2206
 3359TIP3    H210084   5.428   0.817   0.790 -1.2167  1.4979  0.4042
 3360TIP3   OH210085   5.151   5.872   2.404  0.2627 -0.1937  0.1412
 3360TIP3    H110086   5.121   5.938   2.341  0.8991  0.1895  0.2373
 3360TIP3    H210087   5.116   5.901   2.488 -1.8587 -1.4855 -0.2065
 3361TIP3   OH210088   2.168   3.079   4.301  0.2545  0.7280 -0.5716
 3361TIP3    H110089   2.190   3.118   4.216  0.8887  0.4029 -0.5611
 3361TIP3    H210090   2.242   3.022   4.322  0.7286  1.8069  0.8268
 3362TIP3   OH210091   0.822   0.653   0.955  0.0682  0.0545 -0.0476
 3362TIP3    H110092   0.743   0.682   0.910 -1.0392 -2.1303  0.3616
 3362TIP3    H210093   0.830   0.710   1.031 -0.7017  0.7426 -0.4725
 3363TIP3   OH210094   0.454   4.415   3.359 -0.0693  0.7122 -0.0542
 3363TIP3    H110095   0.523   4.350   3.374  0.8912  2.0583  1.7660
 3363TIP3    H210096   0.416   4.430   3.445  0.2179  3.0323 -0.2491
 3364TIP3   OH210097   6.312   2.320   0.201 -0.0351  0.1843  0.0419
 3364TIP3    H110098   6.343   2.293   0.287 -1.9813  0.3105  0.8557
 3364TIP3    H210099   6.379   2.380   0.169  0.6621  0.2596  1.5396
 3365TIP3   OH210100   2.799   4.568   2.635 -0.6254 -0.1840  0.2852
 3365TIP3    H110101   2.722   4.561   2.578 -0.1384  1.3107 -0.6062
 3365TIP3    H210102   2.873   4.557   2.576 -0.0500  3.1542  0.2188
 3366TIP3   OH210103   5.916   1.225   1.214 -0.0471 -0.2186 -0.0993
 3366TIP3    H110104   5.859   1.266   1.149 -0.8319 -1.8224 -0.4545
 3366TIP3    H210105   5.930   1.294   1.280 -1.4174  0.5837 -0.6058
 3367TIP3   OH210106   1.467   1.889   2.820 -0.1336 -0.3153 -0.1649
 3367TIP3    H110107   1.406   1.866   2.750 -0.8161  1.5605 -0.2588
 3367TIP3    H210108   1.521   1.958   2.782 -0.9945  1.2688  1.3139
 3368TIP3   OH210109   4.638   0.207   3.080 -0.9059 -0.2834  0.5433
 3368TIP3    H110110   4.565   0.145   3.083 -1.3669  0.2755  1.7185
 3368TIP3    H210111   4.687   0.191   3.160 -1.7746  1.6756  1.5591
 3369TIP3   OH210112   3.082   3.146   3.570  0.1849 -0.1702 -0.1904
 3369TIP3    H110113   3.143   3.103   3.510  0.6337  0.2509 -0.0413
 3369TIP3    H210114   3.114   3.123   3.657  0.3984  0.4042 -0.1078
 3370TIP3   OH210115   5.947   0.132   1.095 -0.9132  0.9010 -0.5543
 3370TIP3    H110116   5.884   0.201   1.077 -0.3070  0.9190 -2.9344
 3370TIP3    H210117   5.955   0.083   1.013 -0.1633 -1.0577  0.5930
 3371TIP3   OH210118   5.333   1.157   4.614 -0.1616  0.8125 -0.2776
 3371TIP3    H110119   5.330   1.154   4.519 -1.9976 -1.7406 -0.2451
 3371TIP3    H210120   5.413   1.108   4.637 -1.1804 -1.0912 -0.5550
 3372TIP3   OH210121   2.883   2.134   1.741  0.2101  0.0836  0.1112
 3372TIP3    H110122   2.813   2.121   1.677  0.6401 -0.2844 -0.2904
 3372TIP3    H210123   2.964   2.123   1.691  0.5572  0.3722  0.5974
 3373TIP3   OH210124   0.663   0.991   4.987  0.6278 -0.3885 -0.2153
 3373TIP3    H110125   0.753   1.009   5.015  0.5511 -0.7186  0.2607
 3373TIP3    H210126   0.615   0.975   5.068  0.2191 -0.5835 -0.4889
 3374TIP3   OH210127   4.864   1.801   4.015  0.0488 -0.0505 -0.4606
 3374TIP3    H110128   4.806   1.826   3.943  0.6998  0.9978 -0.6436
 3374TIP3    H210129   4.805   1.778   4.087 -0.6097 -0.8423 -1.2181
 3375TIP3   OH210130   6.200   2.652   3.029  0.0093 -0.2348  0.1497
 3375TIP3    H110131   6.233   2.742   3.033 -0.9785  0.1154  0.6884
 3375TIP3    H210132   6.206   2.620   3.118  0.0402 -0.5973  0.0191
 3376TIP3   OH210133   3.318   5.291   0.861  0.0548 -0.3411  0.4924
 3376TIP3    H110134   3.232   5.251   0.848 -0.2768  0.5424 -0.1472
 3376TIP3    H210135   3.307   5.345   0.940 -0.4757  1.0408 -0.4931
 3377TIP3   OH210136   2.290   0.519   3.628 -0.1311  0.2729 -0.1613
 3377TIP3    H110137   2.250   0.538   3.543 -1.8083 -0.7106  0.3599
 3377TIP3    H210138   2.229   0.555   3.692  0.7022  0.2722  0.6554
 3378TIP3   OH210139   6.258   0.634   2.383 -0.1375  0.3829  0.0938
 3378TIP3    H110140   6.280   0.692   2.310  2.5850 -0.4281  0.1743
 3378TIP3    H210141   6.341   0.620   2.428 -0.9227 -2.6258  0.7885
 3379TIP3   OH210142   1.562   1.036   3.189  0.1954 -0.3087  0.7039
 3379TIP3    H110143   1.521   0.954   3.216 -0.5609 -0.8962 -1.9538
 3379TIP3    H210144   1.570   1.029   3.094  1.1518  2.2405  0.5180
 3380TIP3   OH210145   1.802   3.933   4.272  0.1957  0.3690 -0.2991
 3380TIP3    H110146   1.790   4.005   4.211 -0.5518 -0.5247 -1.2462
 3380TIP3    H210147   1.723   3.935   4.327  0.0183  0.0729 -0.5421
 3381TIP3   OH210148   1.872   4.999   4.390  0.0033 -0.2359  0.0711
 3381TIP3    H110149   1.956   4.988   4.434 -0.7993  0.0976  1.7643
 3381TIP3    H210150   1.889   4.974   4.299  2.4619  1.8984 -0.1678
 3382TIP3   OH210151   2.708   2.016   2.123  0.1204 -0.0503 -1.1534
 3382TIP3    H110152   2.633   2.027   2.064 -0.5445  1.4556 -0.0920
 3382TIP3    H210153   2.783   2.042   2.070 -0.3248  0.1538 -1.7003
 3383TIP3   OH210154   5.254   4.687   0.179 -0.0487  0.7674 -0.6260
 3383TIP3    H110155   5.205   4.610   0.151  0.1244  0.9525 -1.4667
 3383TIP3    H210156   5.261   4.678   0.274 -0.7719  0.1927 -0.6205
 3384TIP3   OH210157   0.943   1.381   4.839 -0.2208  0.4449 -0.0134
 3384TIP3    H110158   1.023   1.428   4.816  0.8809 -1.1911  0.2733
 3384TIP3    H210159   0.916   1.418   4.922  1.7012 -0.6398  1.1804
 3385TIP3   OH210160   6.106   2.280   2.126  0.9617  0.2909  0.2631
 3385TIP3    H110161   6.186   2.278   2.074  1.3535 -2.7654  0.7800
 3385TIP3    H210162   6.133   2.247   2.212 -0.4316  1.4878  1.2032
 3386TIP3   OH210163   1.644   4.273   2.167 -0.0569 -0.2680  0.3305
 3386TIP3    H110164   1.572   4.253   2.106 -0.8888  0.6211  0.9884
 3386TIP3    H210165   1.658   4.191   2.213 -1.5938 -0.1307  1.1232
 3387TIP3   OH210166   1.311   4.581   3.470  0.4001  0.0877  0.2837
 3387TIP3    H110167   1.362   4.583   3.550 -0.5029 -0.2453  0.8852
 3387TIP3    H210168   1.266   4.665   3.467 -0.5263 -0.3774  0.7816
 3388TIP3   OH210169   1.363   3.860   5.110 -0.1432 -0.1797 -0.5383
 3388TIP3    H110170   1.400   3.892   5.027  1.8374  1.2685  0.8101
 3388TIP3    H210171   1.429   3.799   5.144 -0.8027 -0.5427  0.1236
 3389TIP3   OH210172   0.790   1.528   2.306  0.3920  0.1491 -0.4071
 3389TIP3    H110173   0.842   1.591   2.357 -1.7925  0.3498  1.7315
 3389TIP3    H210174   0.738   1.583   2.247 -0.7705  0.3435  0.7526
 3390TIP3   OH210175   5.841   3.629   1.003 -0.3393  0.3592 -0.1187
 3390TIP3    H110176   5.784   3.705   1.015 -2.3937 -0.6605 -2.5254
 3390TIP3    H210177   5.784   3.554   1.022  1.6073 -0.7037  2.1481
 3391TIP3   OH210178   2.080   1.177   4.385  0.0480  0.2697 -0.5535
 3391TIP3    H110179   2.019   1.150   4.316  1.0706  0.5397 -1.5877
 3391TIP3    H210180   2.137   1.241   4.343  1.4098 -0.3875  0.2375
 3392TIP3   OH210181   2.826   1.711   0.953  0.1146  0.1863  0.3636
 3392TIP3    H110182   2.915   1.718   0.990 -0.0215  0.9914  0.5570
 3392TIP3    H210183   2.782   1.790   0.983 -0.4025  0.2153 -0.4654
 3393TIP3   OH210184   1.087   5.682   4.893 -0.1274  0.0207  0.2751
 3393TIP3    H110185   1.064   5.758   4.946  0.7429  0.9101 -0.5911
 3393TIP3    H210186   1.182   5.682   4.891 -0.1326  0.0227 -1.2921
 3394TIP3   OH210187   0.364   1.310   5.129 -0.1005  0.3573 -0.5273
 3394TIP3    H110188   0.382   1.397   5.166 -0.7922  0.5465 -0.6274
 3394TIP3    H210189   0.337   1.257   5.203  1.3114 -0.0781 -0.2828
 3395TIP3   OH210190   2.854   0.213   2.950  0.1167 -0.7340  0.0241
 3395TIP3    H110191   2.766   0.232   2.916  0.9690  0.7275 -1.5723
 3395TIP3    H210192   2.885   0.297   2.983  2.2592 -0.1816 -2.9068
 3396TIP3   OH210193   2.416   2.343   2.275  0.3338  0.0792 -0.3399
 3396TIP3    H110194   2.402   2.433   2.245 -1.3315 -0.4397 -1.2143
 3396TIP3    H210195   2.419   2.291   2.195 -0.1428 -0.8199  0.2029
 3397TIP3   OH210196   1.810   2.155   1.389  0.3934 -0.0399  0.1117
 3397TIP3    H110197   1.785   2.240   1.351  0.2991  0.3503  1.0306
 3397TIP3    H210198   1.759   2.091   1.339 -0.7685  0.5677  0.4690
 3398TIP3   OH210199   1.370   0.081   2.515 -0.2441 -0.2993 -0.2953
 3398TIP3    H110200   1.401   0.012   2.456 -0.9411  0.4572 -1.5964
 3398TIP3    H210201   1.278   0.060   2.530 -0.1062 -0.4037  0.4092
 3399TIP3   OH210202   2.500   1.815   4.603  0.4884 -0.4323 -0.2529
 3399TIP3    H110203   2.458   1.767   4.533 -0.2886 -2.8296  1.7283
 3399TIP3    H210204   2.429   1.839   4.662  1.3813 -0.7861  1.0119
 3400TIP3   OH210205   3.102   1.014   4.628  0.7808 -0.0106  0.1321
 3400TIP3    H110206   3.119   0.950   4.697  0.5052 -0.9720 -0.6717
 3400TIP3    H210207   3.041   1.076   4.667  0.8740 -0.3646  0.8558
 3401TIP3   OH210208   0.229   1.999   4.396 -0.1854 -0.6187 -0.9500
 3401TIP3    H110209   0.298   2.017   4.332 -0.0332 -2.0458 -1.2335
 3401TIP3    H210210   0.250   1.911   4.429  0.3360  0.4547  1.8542
 3402TIP3   OH210211   3.979   3.412   0.522  0.4846  0.2160 -1.0549
 3402TIP3    H110212   3.991   3.326   0.482  0.4503 -0.1997 -0.2072
 3402TIP3    H210213   4.043   3.415   0.593  3.0175  2.3267 -3.1918
 3403TIP3   OH210214   3.391   3.552   4.716  0.0400 -0.1535  0.3530
 3403TIP3    H110215   3.344   3.535   4.797 -0.5161 -0.6063 -0.0573
 3403TIP3    H210216   3.398   3.466   4.674  0.5579  0.0317  0.0452
 3404TIP3   OH210217   0.788   0.819   2.322 -0.4670 -0.3142  0.0248
 3404TIP3    H110218   0.715   0.757   2.319  1.0067 -2.2518  1.3613
 3404TIP3    H210219   0.862   0.770   2.286  0.2887  1.5039 -1.0425
 3405TIP3   OH210220   3.781   3.886   3.868  0.3853 -0.1692 -0.2748
 3405TIP3    H110221   3.782   3.839   3.785  1.2200  1.6373 -1.3587
 3405TIP3    H210222   3.783   3.979   3.843 -0.8146  0.4782  1.7511
 3406TIP3   OH210223   6.295   0.127   3.930 -0.1868 -0.4228  0.5442
 3406TIP3    H110224   6.222   0.108   3.989  0.7035  0.7311  2.0805
 3406TIP3    H210225   6.278   0.072   3.853 -1.4267 -1.9405  1.8222
 3407TIP3   OH210226   4.153   1.232   1.821  0.9480 -0.2242 -0.5643
 3407TIP3    H110227   4.205   1.153   1.811  0.0053 -0.9030 -0.2171
 3407TIP3    H210228   4.154   1.273   1.734 -0.3010 -1.7265 -1.3178
 3408TIP3   OH210229   3.278   2.105   2.532  0.0932  0.2080 -0.3650
 3408TIP3    H110230   3.359   2.054   2.521  0.5595  0.8040  0.1708
 3408TIP3    H210231   3.302   2.193   2.504 -0.1703  0.5443  0.4435
 3409TIP3   OH210232   3.247   0.299   1.774  0.2400  1.0310 -0.0905
 3409TIP3    H110233   3.308   0.274   1.843  0.6793  0.4784 -0.6640
 3409TIP3    H210234   3.296   0.361   1.720 -0.1458  1.5619  0.1613
 3410TIP3   OH210235   0.044   5.964   4.303  0.2779 -0.1150  0.0565
 3410TIP3    H110236  -0.001   6.026   4.360 -0.8943  0.3401 -1.2901
 3410TIP3    H210237  -0.016   5.952   4.230  1.1446 -1.7113 -0.4274
 3411TIP3   OH210238   5.006   1.016   2.237  0.0001  0.1247  0.2234
 3411TIP3    H110239   4.946   1.017   2.162 -0.1615  0.3464  0.3560
 3411TIP3    H210240   4.957   1.060   2.307  0.2331  0.1067  0.3955
 3412TIP3   OH210241   4.681   4.511   1.784 -0.1403  0.2627  0.7361
 3412TIP3    H110242   4.634   4.428   1.791  0.3572  0.0431  1.6951
 3412TIP3    H210243   4.743   4.509   1.857  0.0857  1.3494  0.5870
 3413TIP3   OH210244   0.143   1.075   4.405  0.2003 -0.1610 -0.2325
 3413TIP3    H110245   0.116   1.000   4.352  0.0546  0.2548 -0.7509
 3413TIP3    H210246   0.228   1.049   4.441  0.3149 -0.4377 -0.6949
 3414TIP3   OH210247   6.335   2.247   3.894  0.1759  0.3998 -0.3386
 3414TIP3    H110248   6.334   2.274   3.802 -0.1820 -0.9345 -0.7540
 3414TIP3    H210249   6.279   2.169   3.896 -1.0535  1.2952  1.3000
 3415TIP3   OH210250   5.171   4.017   1.925 -0.0826  0.2413  0.3881
 3415TIP3    H110251   5.227   3.942   1.907 -1.4447 -0.5339 -0.8826
 3415TIP3    H210252   5.131   3.998   2.010  0.4764  0.0993  0.6195
 3416TIP3   OH210253   4.373   4.615   1.618 -0.1571  0.3893 -0.3422
 3416TIP3    H110254   4.299   4.676   1.617 -2.0265 -1.6121  1.9233
 3416TIP3    H210255   4.373   4.580   1.707  2.5521 -0.9038 -0.7703
 3417TIP3   OH210256   3.377   5.711   1.363 -0.1801 -0.4372  0.1209
 3417TIP3    H110257   3.346   5.791   1.405 -0.5055 -0.3444 -0.2867
 3417TIP3    H210258   3.434   5.741   1.292 -3.0742 -0.3433 -2.3814
 3418TIP3   OH210259   4.916   1.684   1.972  0.3877  0.1142  0.2672
 3418TIP3    H110260   4.845   1.744   1.949  0.4018  1.1193  2.5892
 3418TIP3    H210261   4.996   1.733   1.953  0.4173  0.1359  0.4463
 3419TIP3   OH210262   4.178   2.791   0.467  0.7185 -0.0975  0.1790
 3419TIP3    H110263   4.239   2.799   0.394  0.0986 -1.3130 -0.5158
 3419TIP3    H210264   4.115   2.862   0.454  0.4748 -0.4531 -0.6204
 3420TIP3   OH210265   0.018   0.232   0.622 -0.3066 -0.3361  0.0532
 3420TIP3    H110266   0.012   0.138   0.603  0.3594  0.1969 -3.5345
 3420TIP3    H210267   0.111   0.251   0.616 -0.3591  0.4932  1.4823
 3421TIP3   OH210268   6.180   1.513   0.830 -0.1615  0.1480  0.1924
 3421TIP3    H110269   6.107   1.518   0.891 -0.3964 -0.3565 -0.0443
 3421TIP3    H210270   6.205   1.421   0.831  0.7566  0.3866  0.6008
 3422TIP3   OH210271   4.728   3.146   3.536 -0.0930 -0.2945 -0.0704
 3422TIP3    H110272   4.689   3.097   3.608 -1.0059 -0.3299 -0.5777
 3422TIP3    H210273   4.790   3.085   3.495 -0.9525 -0.9104 -0.4706
 3423TIP3   OH210274   5.022   4.406   0.368  0.2717  0.2218 -0.3208
 3423TIP3    H110275   5.027   4.329   0.425 -0.8246  0.9202  0.7813
 3423TIP3    H210276   4.935   4.402   0.329  0.0539  1.0767  0.0415
 3424TIP3   OH210277   1.134   2.210   1.681 -0.1177  0.4116  0.5768
 3424TIP3    H110278   1.137   2.195   1.776  0.0614  0.4416  0.5765
 3424TIP3    H210279   1.144   2.305   1.671  3.0048  0.1604  0.4067
 3425TIP3   OH210280   0.334   1.199   3.924  0.2027  0.0728  0.6478
 3425TIP3    H110281   0.269   1.262   3.954  0.7517  0.4803  0.9948
 3425TIP3    H210282   0.345   1.218   3.831 -1.0503 -0.7905  0.2946
 3426TIP3   OH210283   1.335   0.337   0.243  0.6029  0.1517  0.1663
 3426TIP3    H110284   1.365   0.339   0.333  0.0703 -0.3000  0.3551
 3426TIP3    H210285   1.367   0.254   0.208  0.8861  0.3642 -0.0954
 3427TIP3   OH210286   5.616   3.038   2.111 -0.4430 -0.3973 -0.0592
 3427TIP3    H110287   5.577   2.950   2.110 -0.7940 -0.2796  1.1599
 3427TIP3    H210288   5.706   3.024   2.140  0.0807 -0.5367 -1.6797
 3428TIP3   OH210289   1.593   0.277   2.079  0.6848 -0.1478 -0.4012
 3428TIP3    H110290   1.522   0.225   2.040 -0.8112  0.6140  1.1953
 3428TIP3    H210291   1.673   0.235   2.047 -0.4381 -0.8269 -2.5508
 3429TIP3   OH210292   5.899   4.665   1.727 -1.0705 -0.0251  0.2172
 3429TIP3    H110293   5.820   4.715   1.706 -0.9107 -1.1555 -3.8669
 3429TIP3    H210294   5.967   4.732   1.739 -1.6036  0.8949 -1.5366
 3430TIP3   OH210295   2.991   3.655   0.758  0.1021  0.1677  0.1602
 3430TIP3    H110296   3.002   3.561   0.773 -1.1053  0.1439  1.0694
 3430TIP3    H210297   3.078   3.685   0.731  0.6100 -1.1362  0.2468
 3431TIP3   OH210298   2.965   3.047   2.117  0.1063  0.3256 -1.1603
 3431TIP3    H110299   3.055   3.052   2.083 -0.2851  0.2292 -2.2437
 3431TIP3    H210300   2.936   2.959   2.093  0.2553 -0.2392  0.6011
 3432TIP3   OH210301   6.078   1.928   4.044  0.2288 -0.0327 -0.7162
 3432TIP3    H110302   5.992   1.885   4.037 -0.9414  2.0279 -0.0272
 3432TIP3    H210303   6.057   2.020   4.061  2.5977  0.3262  0.7292
 3433TIP3   OH210304   0.045   2.929   0.410 -0.2557 -0.0451 -0.9775
 3433TIP3    H110305   0.095   3.006   0.438 -0.1474 -0.4790  0.1047
 3433TIP3    H210306   0.111   2.861   0.398 -0.5529 -0.7269  0.8191
 3434TIP3   OH210307   1.370   1.049   0.891 -0.4496  0.4663  0.5600
 3434TIP3    H110308   1.396   1.098   0.969 -0.0698  3.3740 -1.2404
 3434TIP3    H210309   1.419   0.967   0.897  1.0566  1.4039  2.4210
 3435TIP3   OH210310   3.782   1.606   4.951  0.2560 -0.1948  0.1031
 3435TIP3    H110311   3.862   1.558   4.974 -0.3187 -1.2969 -0.1166
 3435TIP3    H210312   3.718   1.537   4.933 -0.7508  0.6753  0.2930
 3436TIP3   OH210313   6.260   3.027   3.645  0.4452  0.0045  0.8005
 3436TIP3    H110314   6.240   3.008   3.553  0.9178  1.2431  0.4240
 3436TIP3    H210315   6.220   2.955   3.693 -1.8826  0.5765 -0.1719
 3437TIP3   OH210316   3.488   5.206   2.537  0.0931  0.1058  0.0448
 3437TIP3    H110317   3.456   5.194   2.626  0.0895  2.9451  0.5200
 3437TIP3    H210318   3.548   5.280   2.542  1.4934 -0.7758 -2.0383
 3438TIP3   OH210319   1.964   3.438   1.389  0.1716  0.5198 -0.6673
 3438TIP3    H110320   1.920   3.390   1.460  0.6474  0.1640 -0.6018
 3438TIP3    H210321   2.012   3.370   1.341  2.4475  1.1340  0.5888
 3439TIP3   OH210322   4.285   4.601   5.072  0.3132  0.0513 -0.5825
 3439TIP3    H110323   4.345   4.676   5.072 -0.5899  0.8199  0.8055
 3439TIP3    H210324   4.310   4.551   5.150 -0.8790  0.4162  0.0476
 3440TIP3   OH210325   2.776   4.733   1.283  0.0912 -0.5903  0.4022
 3440TIP3    H110326   2.770   4.654   1.230  1.2045 -1.3030  1.2787
 3440TIP3    H210327   2.809   4.703   1.368  3.6763  1.1241 -0.1963
 3441TIP3   OH210328   2.085   0.194   0.164 -0.6256  0.0589 -0.0688
 3441TIP3    H110329   2.067   0.115   0.113  0.2305 -0.4428  0.3821
 3441TIP3    H210330   2.160   0.171   0.219 -0.0694  1.3257 -0.2535
 3442TIP3   OH210331   4.706   2.796   4.669  0.1103 -0.4617  0.4559
 3442TIP3    H110332   4.801   2.801   4.658  0.1063 -0.6572  0.3140
 3442TIP3    H210333   4.673   2.781   4.580 -0.0709 -0.1599  0.4717
 3443TIP3   OH210334   2.821   0.736   3.409 -0.1415  0.4416  0.3053
 3443TIP3    H110335   2.916   0.726   3.405 -0.2283  0.0243 -1.0989
 3443TIP3    H210336   2.797   0.702   3.495  0.8925 -0.1708  0.3716
 3444TIP3   OH210337   0.520   0.063   1.505 -0.4118 -0.4272 -0.0189
 3444TIP3    H110338   0.487   0.103   1.585  0.6780 -1.3752  0.9271
 3444TIP3    H210339   0.615   0.064   1.514 -0.2982 -1.4110 -0.8657
 3445TIP3   OH210340   6.053   1.653   3.574  0.3487  0.4769 -0.9205
 3445TIP3    H110341   6.040   1.644   3.479  0.2151  0.6559 -0.9208
 3445TIP3    H210342   6.118   1.587   3.596 -1.1995 -1.0828 -0.7896
 3446TIP3   OH210343   2.508   0.627   4.009  0.0231  0.0827  0.1307
 3446TIP3    H110344   2.474   0.687   3.943 -0.6672 -1.4216 -0.9614
 3446TIP3    H210345   2.431   0.600   4.058  0.0259 -1.1453 -0.4850
 3447TIP3   OH210346   3.993   5.024   2.416 -0.0163 -0.1707  0.1852
 3447TIP3    H110347   4.052   4.950   2.430 -0.1503 -0.3438 -0.1592
 3447TIP3    H210348   3.919   4.987   2.369 -0.3735  0.0570  0.5561
 3448TIP3   OH210349   2.263   2.005   2.715 -0.3602 -0.2990  0.3173
 3448TIP3    H110350   2.244   1.925   2.666 -0.2888 -0.3145  0.3147
 3448TIP3    H210351   2.183   2.022   2.765 -0.2112 -0.6326  0.6757
 3449TIP3   OH210352   0.891   2.333   0.264 -0.0169  0.0443  0.0304
 3449TIP3    H110353   0.813   2.286   0.294 -0.6302  0.4261 -0.9322
 3449TIP3    H210354   0.876   2.349   0.171  2.1329 -1.7056 -0.7112
 3450TIP3   OH210355   2.573   0.329   2.982  0.6035  0.5284 -0.0765
 3450TIP3    H110356   2.485   0.295   3.001  0.8416  0.5044  1.0604
 3450TIP3    H210357   2.590   0.392   3.052  1.6225  0.2857 -0.0873
 3451TIP3   OH210358   5.191   1.706   1.925  0.1682  0.3953 -0.2546
 3451TIP3    H110359   5.226   1.795   1.919  0.8948  0.1200 -0.2334
 3451TIP3    H210360   5.232   1.660   1.852  1.4247 -0.4519  0.9386
 3452TIP3   OH210361   4.418   2.678   0.310  0.0799 -0.5475 -0.1535
 3452TIP3    H110362   4.379   2.717   0.231  0.4030  0.6241  0.2416
 3452TIP3    H210363   4.506   2.653   0.284 -0.1649 -1.1217 -0.4399
 3453TIP3   OH210364   1.727   4.266   2.712 -0.3268 -0.6740  1.1387
 3453TIP3    H110365   1.801   4.254   2.773 -0.5596 -1.1475  1.3257
 3453TIP3    H210366   1.760   4.235   2.628  0.1116  0.2928  0.9312
 3454TIP3   OH210367   5.533   0.334   0.269  0.4514  0.5136  0.4432
 3454TIP3    H110368   5.509   0.342   0.177  1.4069  0.3207  0.1683
 3454TIP3    H210369   5.481   0.401   0.313 -0.1924  0.4495 -0.1907
 3455TIP3   OH210370   3.138   1.691   5.075 -0.2280  0.1632  0.2831
 3455TIP3    H110371   3.056   1.741   5.065 -1.1172 -1.4316 -1.1195
 3455TIP3    H210372   3.145   1.674   5.169  0.0893  2.7830  0.8092
 3456TIP3   OH210373   3.101   1.475   4.862 -0.1431 -0.4590  0.4591
 3456TIP3    H110374   3.100   1.495   4.768  2.1727 -1.9322  0.0317
 3456TIP3    H210375   3.139   1.553   4.903  2.8169 -1.3192 -0.4164
 3457TIP3   OH210376   0.302   2.209   4.619  0.1648  0.1198  0.0881
 3457TIP3    H110377   0.329   2.241   4.533  0.6482  0.6140  0.4201
 3457TIP3    H210378   0.337   2.120   4.625  3.2146  1.2910  1.1630
 3458TIP3   OH210379   2.203   0.513   3.337  0.2243  0.2256 -0.5195
 3458TIP3    H110380   2.191   0.436   3.393  0.8595  1.5485  1.5011
 3458TIP3    H210381   2.243   0.478   3.257 -1.2525 -1.7950 -0.4683
 3459TIP3   OH210382   1.394   4.737   5.077 -0.3110 -0.0864 -0.3774
 3459TIP3    H110383   1.361   4.826   5.090  1.1913  0.2951  1.3318
 3459TIP3    H210384   1.444   4.742   4.996  1.1747  1.1321  0.5532
 3460TIP3   OH210385   2.009   0.067   2.940 -0.7111  0.0097 -0.3064
 3460TIP3    H110386   2.050   0.132   2.882 -1.6476 -0.7760 -1.9244
 3460TIP3    H210387   1.915   0.080   2.928 -0.9187 -0.3472  0.8661
 3461TIP3   OH210388   5.386   4.401   2.763 -0.1860  0.1896  0.6795
 3461TIP3    H110389   5.393   4.333   2.696  0.6979  0.4367  0.5011
 3461TIP3    H210390   5.295   4.398   2.792 -0.8090  0.5967 -1.0839
 3462TIP3   OH210391   2.547   0.840   3.007  0.3540 -0.4458  0.2243
 3462TIP3    H110392   2.463   0.886   2.995 -0.3043 -1.4349  0.8650
 3462TIP3    H210393   2.547   0.816   3.100  2.9317  2.5296  1.1958
 3463TIP3   OH210394   5.531   3.307   2.150 -0.1228  0.6709 -0.0811
 3463TIP3    H110395   5.500   3.217   2.159 -0.4297  0.7102 -0.6669
 3463TIP3    H210396   5.498   3.352   2.227 -0.7593  0.4971 -0.2475
 3464TIP3   OH210397   1.378   5.457   1.144 -0.3653  0.2849  0.2984
 3464TIP3    H110398   1.430   5.518   1.197  0.2666  0.0157 -0.0016
 3464TIP3    H210399   1.302   5.437   1.198 -0.3754  1.0224  0.5704
 3465TIP3   OH210400   3.511   5.842   5.152  0.1177 -0.1391 -0.3697
 3465TIP3    H110401   3.594   5.879   5.181 -0.2880 -0.2102  0.9850
 3465TIP3    H210402   3.498   5.766   5.209 -1.6577  0.8296  0.6164
 3466TIP3   OH210403   4.362   3.207   1.862  0.0257 -0.4610 -0.4392
 3466TIP3    H110404   4.314   3.253   1.931 -0.1304  0.1889 -0.9682
 3466TIP3    H210405   4.435   3.165   1.907 -1.7224 -2.5798  0.6284
 3467TIP3   OH210406   4.275   1.393   4.498  0.6068  0.1711 -0.7491
 3467TIP3    H110407   4.334   1.460   4.533 -0.8093  1.1308 -0.1057
 3467TIP3    H210408   4.313   1.369   4.414  3.6388 -1.5649  0.9547
 3468TIP3   OH210409   5.237   4.012   3.086  0.5380 -0.3059  0.3949
 3468TIP3    H110410   5.308   4.064   3.048  0.1990 -0.8229 -1.0282
 3468TIP3    H210411   5.209   3.954   3.015 -1.5759  0.1599  0.7546
 3469TIP3   OH210412   0.698   1.958   3.613 -0.1149  0.2453  0.2906
 3469TIP3    H110413   0.629   1.992   3.555  0.0321  0.0246 -0.0121
 3469TIP3    H210414   0.779   1.969   3.564 -0.2608 -2.4599 -0.7108
 3470TIP3   OH210415   1.415   3.076   1.531  0.4344 -0.2514 -0.3220
 3470TIP3    H110416   1.439   2.994   1.574  2.4993  0.1426 -0.6037
 3470TIP3    H210417   1.457   3.144   1.584  1.1423  0.3995 -1.6579
 3471TIP3   OH210418   2.993   1.188   3.559 -0.4803 -0.2931 -0.2751
 3471TIP3    H110419   2.899   1.176   3.567 -0.3372 -1.1102  0.4534
 3471TIP3    H210420   3.004   1.251   3.488 -1.5512 -0.5543 -0.6902
 3472TIP3   OH210421   4.168   3.075   4.441  0.1886  0.1751  0.6214
 3472TIP3    H110422   4.218   3.009   4.394  2.3425  1.3493  1.1516
 3472TIP3    H210423   4.085   3.031   4.463  0.2475 -1.2824 -1.7614
 3473TIP3   OH210424   1.892   5.077   0.801 -0.1253  0.2665 -0.3627
 3473TIP3    H110425   1.937   5.158   0.777  0.8950 -0.1416  0.1090
 3473TIP3    H210426   1.957   5.009   0.787 -0.4306 -0.2928  0.8367
 3474TIP3   OH210427   1.250   4.367   3.683  0.5319  0.2403  0.0178
 3474TIP3    H110428   1.241   4.461   3.691 -0.8417  0.1546 -0.3757
 3474TIP3    H210429   1.252   4.335   3.773 -0.3340  0.5269  0.1403
 3475TIP3   OH210430   4.582   5.388   3.356 -0.5352  0.0873  0.1119
 3475TIP3    H110431   4.491   5.417   3.360 -0.1570  1.3520 -0.0659
 3475TIP3    H210432   4.630   5.465   3.326  0.7825 -0.1500  1.5318
 3476TIP3   OH210433   2.296   1.046   1.514 -0.0167 -0.3008  0.3228
 3476TIP3    H110434   2.259   1.091   1.590  0.4196 -0.6566  0.7498
 3476TIP3    H210435   2.222   1.035   1.455 -0.0049  1.5856 -0.1070
 3477TIP3   OH210436   5.176   5.886   3.877 -0.0048 -0.0669 -0.8265
 3477TIP3    H110437   5.199   5.977   3.896  0.8678 -0.3014 -0.7151
 3477TIP3    H210438   5.165   5.882   3.782 -1.1936  0.3979 -0.7286
 3478TIP3   OH210439   0.968   3.579   5.154 -0.6894  0.0592  0.1888
 3478TIP3    H110440   0.910   3.581   5.230  0.0994 -3.1381  1.0285
 3478TIP3    H210441   0.924   3.520   5.092  0.5997 -0.7051 -0.0348
 3479TIP3   OH210442   4.956   5.236   0.760  0.2272 -0.4034  0.0686
 3479TIP3    H110443   5.003   5.222   0.678  0.7315  0.2897  0.2339
 3479TIP3    H210444   5.007   5.301   0.807 -0.9093  0.4055  0.2382
 3480TIP3   OH210445   1.690   1.601   2.722 -0.3602 -0.1790 -0.0043
 3480TIP3    H110446   1.772   1.562   2.750 -0.1699  0.2187  0.0097
 3480TIP3    H210447   1.637   1.606   2.801  0.4338  1.5789  0.4750
 3481TIP3   OH210448   2.423   1.349   0.310 -0.1301  0.0047  0.0373
 3481TIP3    H110449   2.352   1.356   0.247 -0.2871 -1.4109  0.0365
 3481TIP3    H210450   2.478   1.425   0.292 -2.4016  2.0204  1.0418
 3482TIP3   OH210451   6.175   0.519   3.140  0.1640  0.3668  0.1330
 3482TIP3    H110452   6.192   0.512   3.233 -1.1399  2.1259  0.5644
 3482TIP3    H210453   6.257   0.552   3.103  0.2015  1.1998  0.9223
 3483TIP3   OH210454   0.198   0.079   3.770 -0.5819 -0.6131 -0.3178
 3483TIP3    H110455   0.179   0.017   3.841 -1.4301 -0.8470 -0.7376
 3483TIP3    H210456   0.191   0.165   3.812 -0.4002 -0.7668  0.0371
 3484TIP3   OH210457   4.755   4.242   4.683 -0.1559 -0.1593 -0.7206
 3484TIP3    H110458   4.713   4.325   4.665  0.4475  0.7514  1.7099
 3484TIP3    H210459   4.848   4.264   4.693  0.2045 -1.3450 -1.2496
 3485TIP3   OH210460   0.803   3.561   0.438 -0.7782 -0.1412 -0.2773
 3485TIP3    H110461   0.717   3.591   0.407  0.3034  1.6845 -1.7233
 3485TIP3    H210462   0.865   3.624   0.400  1.2476 -1.6584  0.3706
 3486TIP3   OH210463   5.076   5.160   2.118 -0.2552 -0.0826 -0.1539
 3486TIP3    H110464   5.068   5.244   2.074 -1.2394  0.4777  1.0275
 3486TIP3    H210465   5.163   5.163   2.159 -0.8968  1.0897  1.2371
 3487TIP3   OH210466   4.795   3.682   0.611  0.0417  0.4071 -0.1534
 3487TIP3    H110467   4.777   3.670   0.518  1.0825 -0.0265 -0.3139
 3487TIP3    H210468   4.733   3.623   0.654 -0.6378  0.8158 -0.5461
 3488TIP3   OH210469   2.383   0.672   1.561  0.0343 -0.1110  0.1274
 3488TIP3    H110470   2.346   0.725   1.631 -0.0985 -1.1694  0.8900
 3488TIP3    H210471   2.438   0.732   1.512 -1.5147  1.1480 -0.1399
 3489TIP3   OH210472   1.744   5.084   1.880 -0.1542  0.6157 -0.0767
 3489TIP3    H110473   1.735   5.170   1.921  0.4354  0.1834  1.0114
 3489TIP3    H210474   1.718   5.022   1.949  2.1197 -0.1990  0.1469
 3490TIP3   OH210475   0.205   3.051   4.652 -0.4498 -0.0659  0.2088
 3490TIP3    H110476   0.180   3.060   4.744 -0.3691 -1.2247  0.3652
 3490TIP3    H210477   0.124   3.067   4.604 -0.4318  0.8214  0.4643
 3491TIP3   OH210478   1.475   4.996   0.215  0.4027  0.4461 -0.3314
 3491TIP3    H110479   1.550   5.011   0.271 -0.5031  1.9213  0.5562
 3491TIP3    H210480   1.420   5.073   0.227 -0.7440 -0.0906 -1.7822
 3492TIP3   OH210481   1.701   3.434   3.227  0.0819 -0.3866 -0.1844
 3492TIP3    H110482   1.786   3.442   3.182  0.2787 -0.8022  0.1043
 3492TIP3    H210483   1.643   3.493   3.179  0.9121  1.0507  0.5442
 3493TIP3   OH210484   4.740   3.950   4.609 -0.0751 -0.6414  0.8481
 3493TIP3    H110485   4.748   4.044   4.629 -2.7450  0.4289 -2.1447
 3493TIP3    H210486   4.822   3.928   4.565  0.5108  0.3501  1.4034
 3494TIP3   OH210487   5.593   0.672   3.074 -0.0506 -0.1801 -0.1692
 3494TIP3    H110488   5.501   0.696   3.085 -0.1669 -0.9835  0.8095
 3494TIP3    H210489   5.611   0.614   3.148  1.0971 -0.4593 -0.6490
 3495TIP3   OH210490   3.288   5.905   4.278  0.4564 -0.1696  0.4230
 3495TIP3    H110491   3.295   5.994   4.244 -2.5846  0.5251  1.2693
 3495TIP3    H210492   3.372   5.864   4.259  1.5984  2.5791 -0.8414
 3496TIP3   OH210493   4.702   3.648   1.237 -0.1691  0.4049  0.5124
 3496TIP3    H110494   4.657   3.587   1.179  2.5628 -0.4901 -0.8642
 3496TIP3    H210495   4.686   3.734   1.199  3.9899 -0.2896 -3.8447
 3497TIP3   OH210496   1.527   2.974   0.549  0.1902 -0.3849 -0.0292
 3497TIP3    H110497   1.580   2.907   0.591 -0.7999 -0.4518  1.1681
 3497TIP3    H210498   1.488   2.931   0.473 -0.2699 -1.1157  0.6115
 3498TIP3   OH210499   3.189   3.245   4.568 -0.5405  0.3940  0.4289
 3498TIP3    H110500   3.155   3.254   4.479 -1.9663 -1.1531  0.7734
 3498TIP3    H210501   3.185   3.333   4.605 -2.6203  0.5713 -0.1323
 3499TIP3   OH210502   5.533   5.312   1.391 -0.3075 -0.1873 -0.0975
 3499TIP3    H110503   5.524   5.224   1.353 -1.1079 -1.1560  2.1284
 3499TIP3    H210504   5.528   5.297   1.486  0.4136  2.1923  0.3738
 3500TIP3   OH210505   1.161   0.941   4.971  0.3205 -0.2438 -0.2116
 3500TIP3    H110506   1.172   0.998   5.047  2.1555 -0.9749  0.1143
 3500TIP3    H210507   1.150   0.854   5.009 -0.9732 -0.3286 -0.7448
 3501TIP3   OH210508   1.001   1.360   2.269  0.2779 -0.1731 -0.1809
 3501TIP3    H110509   0.994   1.267   2.248 -0.2040 -0.0414 -0.6089
 3501TIP3    H210510   0.912   1.393   2.264  0.5307  0.4530 -0.6698
 3502TIP3   OH210511   3.414   0.084   0.187 -0.3670 -0.0816 -0.4103
 3502TIP3    H110512   3.503   0.093   0.219 -0.0812 -3.5115  0.2179
 3502TIP3    H210513   3.423   0.039   0.102 -1.4072 -3.1412  0.9294
 3503TIP3   OH210514   1.513   2.107   3.517 -0.2857 -0.0574 -0.3489
 3503TIP3    H110515   1.440   2.051   3.493  0.0587 -0.5322 -0.2924
 3503TIP3    H210516   1.588   2.071   3.471 -0.1506  0.6529 -0.7074
 3504TIP3   OH210517   5.048   4.650   1.076 -0.5822  0.2818 -0.2557
 3504TIP3    H110518   5.016   4.560   1.067  1.7860 -0.6323 -0.3550
 3504TIP3    H210519   5.051   4.684   0.986 -0.6809  0.1477 -0.3092
 3505TIP3   OH210520   1.254   0.372   2.031 -0.1548  0.0021  0.7695
 3505TIP3    H110521   1.188   0.366   1.962  1.4407  2.5563 -1.1792
 3505TIP3    H210522   1.314   0.299   2.013 -0.4936 -0.1648  0.2852
 3506TIP3   OH210523   5.555   5.221   0.426  0.6411  0.6276 -0.4459
 3506TIP3    H110524   5.511   5.219   0.511  0.8073  0.9914 -0.3484
 3506TIP3    H210525   5.629   5.161   0.435  0.9941  1.0987 -0.1425
 3507TIP3   OH210526   5.179   1.774   0.791  0.1537 -0.1294 -0.4069
 3507TIP3    H110527   5.149   1.684   0.776 -0.7491  0.1712 -0.4955
 3507TIP3    H210528   5.111   1.813   0.847  1.4633 -0.0408  1.2167
 3508TIP3   OH210529   5.196   4.913   1.707  0.2022  0.0919  0.0743
 3508TIP3    H110530   5.119   4.857   1.700  1.0360 -1.1799  0.7340
 3508TIP3    H210531   5.180   4.983   1.644 -1.7666  0.2124  0.6354
 3509TIP3   OH210532   4.985   0.684   3.030  0.3470  0.2873  0.1282
 3509TIP3    H110533   4.951   0.695   2.941  0.6195 -1.7169 -0.2819
 3509TIP3    H210534   5.013   0.771   3.056  0.2894  0.9197 -1.7736
 3510TIP3   OH210535   4.576   2.847   0.881  0.5223  0.0123  0.2749
 3510TIP3    H110536   4.609   2.913   0.821  0.7900  0.6848  1.1457
 3510TIP3    H210537   4.603   2.764   0.842 -0.9441  0.3204 -1.5069
 3511TIP3   OH210538   0.925   4.896   4.548 -0.0024 -0.0337  0.1829
 3511TIP3    H110539   0.908   4.951   4.472 -1.7412 -1.0379 -0.2032
 3511TIP3    H210540   1.005   4.849   4.527 -0.6870 -0.6187 -1.2558
 3512TIP3   OH210541   5.885   1.784   1.948  0.7658 -0.1614 -0.1323
 3512TIP3    H110542   5.906   1.769   2.041 -0.4210 -0.8464  0.0472
 3512TIP3    H210543   5.875   1.696   1.912 -0.8953  0.0984 -0.3855
 3513TIP3   OH210544   5.673   4.834   1.731  0.7754 -0.1046 -0.1073
 3513TIP3    H110545   5.693   4.925   1.709 -2.0273  0.5965 -0.2024
 3513TIP3    H210546   5.598   4.840   1.790 -0.4178 -2.3808 -1.2701
 3514TIP3   OH210547   0.193   1.963   3.920 -0.0084  0.3323 -0.1812
 3514TIP3    H110548   0.198   1.887   3.978  0.3752  0.3769 -0.1499
 3514TIP3    H210549   0.102   1.966   3.891 -0.1666  0.2223  0.3014
 3515TIP3   OH210550   5.934   1.677   2.880  0.4360 -0.1145 -0.1694
 3515TIP3    H110551   5.971   1.755   2.838  1.4499 -0.7637 -0.5043
 3515TIP3    H210552   5.870   1.645   2.817 -1.1269  1.2906  0.6219
 3516TIP3   OH210553   0.719   2.791   2.300  0.1829  0.4612  0.0933
 3516TIP3    H110554   0.625   2.792   2.314  0.2267 -0.3402  0.4525
 3516TIP3    H210555   0.729   2.799   2.205 -0.2783 -0.6729 -0.0589
 3517TIP3   OH210556   0.127   5.589   0.585  0.3804 -0.0277  0.1257
 3517TIP3    H110557   0.165   5.501   0.583  0.0684 -0.1795  0.6490
 3517TIP3    H210558   0.041   5.577   0.625 -0.6827  0.1600 -1.9495
 3518TIP3   OH210559   5.975   3.538   2.538  0.3194  1.1109  0.6593
 3518TIP3    H110560   5.919   3.481   2.592 -0.3884  0.0852 -1.0906
 3518TIP3    H210561   6.041   3.480   2.501  0.1266  1.5624 -0.4436
 3519TIP3   OH210562   0.751   3.862   1.271 -0.0581 -0.0544  0.4404
 3519TIP3    H110563   0.764   3.949   1.307 -1.1750 -1.1044  3.6825
 3519TIP3    H210564   0.723   3.808   1.345  0.5663 -3.2009 -1.3991
 3520TIP3   OH210565   0.817   0.765   4.456  0.0155 -0.1307 -0.0287
 3520TIP3    H110566   0.813   0.678   4.494 -2.6789 -0.6834 -1.3283
 3520TIP3    H210567   0.743   0.812   4.494  1.6385  1.8123  0.9580
 3521TIP3   OH210568   2.517   5.734   0.020  0.1322  0.4539  0.0314
 3521TIP3    H110569   2.535   5.646  -0.012  0.8177  0.5737  0.0717
 3521TIP3    H210570   2.512   5.725   0.115  0.9028  0.5775  0.0842
 3522TIP3   OH210571   3.879   3.990   1.952 -0.1027 -0.0413 -0.0713
 3522TIP3    H110572   3.870   3.917   2.013  1.2901  0.2598  0.5304
 3522TIP3    H210573   3.910   3.949   1.871  0.6877 -0.1515  0.2695
 3523TIP3   OH210574   6.167   0.035   5.020 -0.6437 -0.5279 -0.7056
 3523TIP3    H110575   6.153   0.048   5.114  0.1526  0.8925 -0.7572
 3523TIP3    H210576   6.250  -0.012   5.014  1.3991  2.7600 -0.7232
 3524TIP3   OH210577   2.351   2.132   0.088 -0.5458  0.1255 -0.2914
 3524TIP3    H110578   2.423   2.129   0.151 -0.6886  0.7426 -0.0942
 3524TIP3    H210579   2.292   2.061   0.115 -0.5106  0.2636  0.1489
 3525TIP3   OH210580   4.028   0.306   4.306  0.4142  0.2330  0.0036
 3525TIP3    H110581   3.963   0.253   4.260 -1.7302  1.7150  1.1862
 3525TIP3    H210582   4.056   0.372   4.242 -2.1107  1.9141  0.4936
 3526TIP3   OH210583   1.780   0.826   4.570  0.9991  0.2842 -0.6026
 3526TIP3    H110584   1.705   0.766   4.570  0.3948  1.0155 -1.9411
 3526TIP3    H210585   1.745   0.908   4.605  0.9182  0.9100 -2.1099
 3527TIP3   OH210586   0.724   0.475   4.150  0.2662 -0.4308  0.2551
 3527TIP3    H110587   0.708   0.537   4.079  0.3005 -0.9755 -0.2396
 3527TIP3    H210588   0.683   0.515   4.227 -1.5845 -0.7607 -0.5022
 3528TIP3   OH210589   0.840   5.842   4.751  0.4805 -0.2846  0.4989
 3528TIP3    H110590   0.840   5.933   4.721  1.6711  0.1073  1.6126
 3528TIP3    H210591   0.933   5.820   4.760  0.1906 -1.2123  1.4172
 3529TIP3   OH210592   3.616   1.350   3.092  0.1645  0.8623 -0.0181
 3529TIP3    H110593   3.701   1.309   3.106  0.3104  0.6362 -1.4061
 3529TIP3    H210594   3.596   1.333   3.000 -0.9927  1.6518  0.0622
 3530TIP3   OH210595   0.547   0.823   3.566  0.0576 -0.5649 -0.0858
 3530TIP3    H110596   0.636   0.803   3.536 -0.6353 -1.1831 -1.8974
 3530TIP3    H210597   0.532   0.914   3.538  0.6652  0.1438  1.7256
 3531TIP3   OH210598   2.227   2.450   0.566 -0.0425 -0.3185 -0.3596
 3531TIP3    H110599   2.188   2.496   0.641 -2.9901 -1.7369 -0.8874
 3531TIP3    H210600   2.255   2.366   0.603  1.1409  0.0835 -0.3128
 3532TIP3   OH210601   2.802   5.032   4.114 -0.0717  0.1421  0.1782
 3532TIP3    H110602   2.883   5.083   4.114 -1.3402  2.2681  0.1318
 3532TIP3    H210603   2.734   5.093   4.144 -1.7316 -1.4580 -0.0976
 3533TIP3   OH210604   2.087   0.518   0.616 -0.0767  0.5352 -0.0719
 3533TIP3    H110605   2.119   0.513   0.706 -1.1994  0.7340  0.3570
 3533TIP3    H210606   2.116   0.605   0.585 -0.0001  0.6148  0.2225
 3534TIP3   OH210607   6.195   5.196   0.540  0.5283  0.3943  0.1636
 3534TIP3    H110608   6.131   5.147   0.592 -0.0472 -0.2609 -1.1261
 3534TIP3    H210609   6.145   5.228   0.465  1.4737  0.7940 -0.3039
 3535TIP3   OH210610   6.235   0.383   2.610  0.1376  0.1139 -0.1775
 3535TIP3    H110611   6.328   0.388   2.592  0.1181 -0.5583 -0.4888
 3535TIP3    H210612   6.228   0.317   2.680 -0.1948 -0.6209 -0.8940
 3536TIP3   OH210613   6.072   1.812   2.401  0.2475 -0.7775 -0.0531
 3536TIP3    H110614   6.013   1.804   2.326 -0.7764  0.3696  0.6032
 3536TIP3    H210615   6.022   1.861   2.466  1.6924 -0.3497  0.7743
 3537TIP3   OH210616   0.504   5.298   0.117  0.5733  0.2760 -0.3378
 3537TIP3    H110617   0.577   5.237   0.123 -0.4662 -0.8930  1.1944
 3537TIP3    H210618   0.433   5.257   0.167 -1.6360  0.7188 -2.8782
 3538TIP3   OH210619   1.171   4.752   4.709  0.0225  0.4671 -0.2942
 3538TIP3    H110620   1.128   4.837   4.718 -0.6489  0.1177 -0.0859
 3538TIP3    H210621   1.262   4.768   4.734  0.2626  1.4274 -1.6696
 3539TIP3   OH210622   2.164   3.008   3.116  0.1192 -0.0278 -0.8737
 3539TIP3    H110623   2.198   2.951   3.046 -3.1018 -2.6585 -0.5821
 3539TIP3    H210624   2.107   3.070   3.070 -0.5644 -0.5912 -0.8239
 3540TIP3   OH210625   2.183   5.090   0.949  0.3200 -0.0551  0.1705
 3540TIP3    H110626   2.142   5.055   1.028 -0.8534  0.1342 -0.3319
 3540TIP3    H210627   2.168   5.023   0.882  2.3562 -0.7636  0.3649
 3541TIP3   OH210628   2.675   4.313   2.205 -0.0976  0.2059  0.4794
 3541TIP3    H110629   2.637   4.340   2.121 -1.3087  1.1215  1.2706
 3541TIP3    H210630   2.602   4.272   2.252  0.7897 -1.1111  0.7522
 3542TIP3   OH210631   2.445   5.175   4.921  0.3752  0.1573  0.1928
 3542TIP3    H110632   2.385   5.101   4.914  0.1125  0.2887  1.0222
 3542TIP3    H210633   2.483   5.167   5.008 -0.4871  1.6177  0.7386
 3543TIP3   OH210634   1.795   2.122   4.393  0.6785  0.3649 -0.2230
 3543TIP3    H110635   1.755   2.188   4.450  1.6869 -0.0578  1.0245
 3543TIP3    H210636   1.884   2.154   4.378  0.4154  0.4869 -1.6202
 3544TIP3   OH210637   3.343   2.455   1.116  0.2718 -0.1579  0.0727
 3544TIP3    H110638   3.429   2.497   1.110  0.0663  0.2299 -0.1702
 3544TIP3    H210639   3.285   2.523   1.150 -0.2464  0.0314 -1.1316
 3545TIP3   OH210640   3.643   0.531   5.138 -0.2449  0.2161 -0.4030
 3545TIP3    H110641   3.639   0.624   5.116  0.1040  0.2377 -0.3879
 3545TIP3    H210642   3.649   0.529   5.233  0.3288  0.2053 -0.4330
 3546TIP3   OH210643   1.752   5.647   4.763 -0.1324 -0.6575  0.3198
 3546TIP3    H110644   1.762   5.554   4.783 -1.9818 -1.1659 -0.8165
 3546TIP3    H210645   1.716   5.685   4.844  0.6760 -0.8890  0.8040
 3547TIP3   OH210646   1.548   5.106   3.667  0.1147 -0.0225 -0.1907
 3547TIP3    H110647   1.505   5.102   3.752  0.3787 -0.5927 -0.0806
 3547TIP3    H210648   1.630   5.153   3.684  1.2402 -2.0659  0.3521
 3548TIP3   OH210649   2.960   2.748   3.992 -0.0242 -1.1658 -0.0685
 3548TIP3    H110650   2.980   2.696   4.070 -0.6258 -1.0341  0.1815
 3548TIP3    H210651   2.927   2.685   3.929 -2.3156 -0.9065  0.7925
 3549TIP3   OH210652   3.256   4.601   4.205  0.1230  0.3778 -0.7249
 3549TIP3    H110653   3.299   4.526   4.246  0.3372  0.7273 -0.3141
 3549TIP3    H210654   3.276   4.675   4.262 -0.5931  0.6402 -0.8033
 3550TIP3   OH210655   6.174   3.023   1.632 -0.1106  0.3954 -0.2153
 3550TIP3    H110656   6.177   3.105   1.680 -0.5400  0.9800 -1.1617
 3550TIP3    H210657   6.185   3.047   1.540  0.6533 -0.6952 -0.4367
 3551TIP3   OH210658   4.627   2.068   4.279 -0.0825 -0.6442  0.6582
 3551TIP3    H110659   4.556   2.131   4.270  0.3988 -0.2627 -0.7894
 3551TIP3    H210660   4.596   1.989   4.234  0.1465 -0.6916  0.5768
 3552TIP3   OH210661   0.575   3.093   1.257  0.2046 -0.2783  0.1580
 3552TIP3    H110662   0.517   3.021   1.283  1.1799 -0.8801  0.7449
 3552TIP3    H210663   0.615   3.122   1.339  0.3608  0.4645 -0.1733
 3553TIP3   OH210664   5.819   4.005   3.664 -0.3465 -0.1330 -0.5966
 3553TIP3    H110665   5.799   4.097   3.649  0.8063 -0.1290 -2.3569
 3553TIP3    H210666   5.733   3.965   3.680 -0.8561  1.2149  0.2634
 3554TIP3   OH210667   1.955   5.369   3.916 -0.1035 -0.2646  0.4949
 3554TIP3    H110668   1.993   5.295   3.868  0.2543  1.1708 -1.5775
 3554TIP3    H210669   1.934   5.433   3.848 -0.2932  1.5990  2.2254
 3555TIP3   OH210670   6.217   4.581   4.109 -0.6292  0.0764  0.6110
 3555TIP3    H110671   6.125   4.555   4.098 -0.6530 -0.3103  1.5788
 3555TIP3    H210672   6.245   4.534   4.188  0.7464 -0.6980 -0.3175
 3556TIP3   OH210673   4.007   0.903   0.756 -0.0860  0.7423 -0.2392
 3556TIP3    H110674   3.947   0.890   0.681 -0.4415  1.0295 -0.0065
 3556TIP3    H210675   4.093   0.915   0.715 -0.0820 -0.2379 -0.5581
 3557TIP3   OH210676   1.160   3.079   2.224  0.1246  0.1174  0.0808
 3557TIP3    H110677   1.066   3.064   2.227  0.1648  0.0520  2.0339
 3557TIP3    H210678   1.169   3.172   2.205 -0.3350  0.1365 -0.0399
 3558TIP3   OH210679   4.311   5.906   2.317 -0.4318  0.0084 -0.5084
 3558TIP3    H110680   4.267   5.954   2.246  1.0951  2.3199  0.0292
 3558TIP3    H210681   4.404   5.910   2.295 -0.1557 -2.1565 -0.0234
 3559TIP3   OH210682   6.201   0.443   0.476  0.3061  0.5548  0.2107
 3559TIP3    H110683   6.242   0.411   0.395 -1.3986 -2.0044  0.2427
 3559TIP3    H210684   6.255   0.406   0.546  0.1950  0.4493  0.2410
 3560TIP3   OH210685   3.457   1.032   2.069  0.0646 -0.1531  0.4746
 3560TIP3    H110686   3.525   1.000   2.009  0.8605 -0.4874  1.5415
 3560TIP3    H210687   3.387   0.967   2.062  0.6316 -0.8025  0.7606
 3561TIP3   OH210688   4.451   0.377   4.665 -0.2298  0.3646  0.1422
 3561TIP3    H110689   4.461   0.326   4.585  2.1891 -0.1859  0.7264
 3561TIP3    H210690   4.386   0.328   4.716  0.6876 -1.1736 -0.0863
 3562TIP3   OH210691   3.657   1.327   1.603  0.2533 -0.1193  0.2718
 3562TIP3    H110692   3.629   1.293   1.688 -0.8487  0.8472  0.3246
 3562TIP3    H210693   3.584   1.306   1.544  0.0173  1.1563  0.0735
 3563TIP3   OH210694   2.041   0.894   1.630 -0.1351  0.2454  0.7431
 3563TIP3    H110695   2.037   0.824   1.564  1.7370  0.4121  0.3940
 3563TIP3    H210696   2.023   0.974   1.580  2.2525  0.4897  0.1403
 3564TIP3   OH210697   4.754   4.375   2.161  0.1342  0.0235  0.8279
 3564TIP3    H110698   4.767   4.418   2.245 -0.5359  1.2686  0.3242
 3564TIP3    H210699   4.796   4.434   2.097 -0.2936 -0.3600  0.1829
 3565TIP3   OH210700   3.371   4.524   1.257  0.2159 -0.0763 -0.0143
 3565TIP3    H110701   3.375   4.428   1.255 -0.0867 -0.0843 -0.2056
 3565TIP3    H210702   3.324   4.548   1.177 -0.0769  0.2110  0.2401
 3566TIP3   OH210703   1.801   5.352   4.836  0.0784 -0.8545  0.3240
 3566TIP3    H110704   1.877   5.370   4.891 -1.5814  1.9707  1.9488
 3566TIP3    H210705   1.751   5.286   4.885  0.7977 -1.7227 -0.0923
 3567TIP3   OH210706   2.547   5.788   2.602 -0.2137  0.0869  0.8101
 3567TIP3    H110707   2.557   5.740   2.685  0.2729 -0.8362  0.2326
 3567TIP3    H210708   2.634   5.784   2.562 -1.2867 -2.9292 -1.5607
 3568TIP3   OH210709   4.124   5.827   4.393  0.2950 -0.5311  0.2437
 3568TIP3    H110710   4.156   5.881   4.465 -1.0589  3.7174 -2.0153
 3568TIP3    H210711   4.044   5.787   4.427 -2.0641  3.8315  0.4952
 3569TIP3   OH210712   4.682   1.829   0.823  0.1169  0.1052 -0.0814
 3569TIP3    H110713   4.710   1.748   0.782 -0.8152  0.3933 -1.3480
 3569TIP3    H210714   4.761   1.882   0.829  0.7721 -0.9357  0.9353
 3570TIP3   OH210715   5.609   2.584   0.123  0.6739  0.2772 -0.5954
 3570TIP3    H110716   5.562   2.664   0.146  1.3395  0.1104  1.4932
 3570TIP3    H210717   5.663   2.609   0.048  0.3142  1.5875 -0.4446
 3571TIP3   OH210718   0.461   5.260   1.812  0.5997  0.4942  0.0760
 3571TIP3    H110719   0.556   5.268   1.802  0.6455  2.4390  1.4726
 3571TIP3    H210720   0.441   5.308   1.892 -1.3740 -1.4951  0.8636
 3572TIP3   OH210721   5.586   5.461   2.999  0.1417  0.3847  0.4322
 3572TIP3    H110722   5.621   5.433   3.084  0.0294  1.5163  0.8702
 3572TIP3    H210723   5.657   5.445   2.937 -0.0719 -1.2520  0.5735
 3573TIP3   OH210724   5.836   1.053   4.769  0.0504  0.2438 -0.2939
 3573TIP3    H110725   5.925   1.034   4.799 -0.6424 -1.0990  1.1050
 3573TIP3    H210726   5.817   0.984   4.705 -0.2567 -0.0026  0.0527
 3574TIP3   OH210727   2.720   1.884   4.782  0.3241  0.1063 -0.6017
 3574TIP3    H110728   2.652   1.899   4.717  1.5068 -1.3791 -2.2567
 3574TIP3    H210729   2.802   1.908   4.738  1.0630  0.0728  0.6999
 3575TIP3   OH210730   2.079   4.694   3.848 -0.6886  0.1902  0.0773
 3575TIP3    H110731   2.087   4.604   3.817  1.5129 -0.4444  2.1552
 3575TIP3    H210732   2.066   4.685   3.943  1.0260  2.0071  0.5508
 3576TIP3   OH210733   2.039   2.450   1.732  0.1471 -0.5452 -0.3142
 3576TIP3    H110734   2.115   2.429   1.786  1.7923 -0.5916 -2.5378
 3576TIP3    H210735   1.991   2.367   1.727 -0.6487 -0.2966  1.8585
 3577TIP3   OH210736   2.070   4.856   2.016  0.3768  0.1856  0.2863
 3577TIP3    H110737   2.055   4.936   2.065 -2.0795 -1.3096  2.1488
 3577TIP3    H210738   2.011   4.862   1.941 -1.7130 -0.8992  1.7701
 3578TIP3   OH210739   4.813   2.908   4.163 -0.0971  0.1148 -0.1477
 3578TIP3    H110740   4.726   2.930   4.131  0.4551  0.9672 -1.1229
 3578TIP3    H210741   4.818   2.812   4.157 -0.3347  0.1874 -1.7814
 3579TIP3   OH210742   4.134   3.338   4.446 -0.0738  0.2543  0.1374
 3579TIP3    H110743   4.094   3.383   4.520  0.8935  0.3074  0.6494
 3579TIP3    H210744   4.130   3.245   4.469 -0.6168  0.1976 -0.1780
 3580TIP3   OH210745   0.704   4.818   3.008 -0.0777 -0.0349  0.0223
 3580TIP3    H110746   0.775   4.807   2.945  1.0261 -0.8678  1.3380
 3580TIP3    H210747   0.672   4.729   3.024 -1.8269  0.3865 -0.9682
 3581TIP3   OH210748   5.932   1.382   4.518  0.2619 -0.5574  0.2447
 3581TIP3    H110749   5.988   1.335   4.581  1.0188  1.1378  0.8906
 3581TIP3    H210750   5.971   1.363   4.433  2.4586  1.3031  0.7434
 3582TIP3   OH210751   3.373   1.120   4.566 -0.5891 -0.2835 -0.1011
 3582TIP3    H110752   3.279   1.107   4.560 -0.7556  0.4229  0.7869
 3582TIP3    H210753   3.407   1.039   4.606 -1.1065  0.3157  1.6371
 3583TIP3   OH210754   3.057   5.271   0.708 -0.2889 -0.3362 -0.1912
 3583TIP3    H110755   3.015   5.203   0.657  1.1041 -1.2974 -0.1201
 3583TIP3    H210756   3.097   5.329   0.643 -0.7965 -0.0272 -0.2333
 3584TIP3   OH210757   0.392   1.832   4.191 -0.1692 -0.0120 -0.0443
 3584TIP3    H110758   0.444   1.799   4.117  1.8206  0.4061  1.0819
 3584TIP3    H210759   0.301   1.818   4.165  0.5041 -1.9985 -1.5865
 3585TIP3   OH210760   4.767   3.951   1.696  0.7184 -0.7639 -0.1190
 3585TIP3    H110761   4.762   3.906   1.781 -0.0034  1.0009  0.8151
 3585TIP3    H210762   4.848   4.002   1.701 -0.5764  1.3342  0.5890
 3586TIP3   OH210763   4.632   2.003   1.296  0.2159 -0.2463  0.0362
 3586TIP3    H110764   4.581   2.080   1.321  1.6809  0.4125  1.0991
 3586TIP3    H210765   4.603   1.935   1.356 -0.6142 -0.3732 -0.4852
 3587TIP3   OH210766   5.558   1.868   2.582  0.2688 -0.0712  0.1289
 3587TIP3    H110767   5.527   1.867   2.491 -1.3217  0.1849  0.6297
 3587TIP3    H210768   5.529   1.784   2.617  0.3797  0.0719  0.5598
 3588TIP3   OH210769   4.625   3.293   3.327  0.2895  0.0467  0.5404
 3588TIP3    H110770   4.672   3.242   3.394  1.0018 -0.1274 -0.0709
 3588TIP3    H210771   4.533   3.284   3.350  0.3818 -1.6063  0.4112
 3589TIP3   OH210772   0.372   1.752   1.762  0.3803  0.1205 -0.4832
 3589TIP3    H110773   0.289   1.740   1.809  0.6236  2.2984  0.6674
 3589TIP3    H210774   0.349   1.746   1.670 -0.8594 -0.3403 -0.1635
 3590TIP3   OH210775   5.463   1.900   3.571 -0.3911  0.4436 -0.1339
 3590TIP3    H110776   5.448   1.994   3.559 -0.9720  0.2736 -0.7794
 3590TIP3    H210777   5.446   1.862   3.485 -0.8719 -0.3421  0.2988
 3591TIP3   OH210778   3.178   2.584   2.933 -0.5058 -0.0123  0.3471
 3591TIP3    H110779   3.124   2.625   3.001 -2.3285 -4.0216  1.5960
 3591TIP3    H210780   3.118   2.568   2.861  0.0048 -0.8400  0.0882
 3592TIP3   OH210781   1.584   3.516   3.542 -0.3945 -0.2248 -0.5267
 3592TIP3    H110782   1.607   3.432   3.581  0.7172  0.9504  1.4781
 3592TIP3    H210783   1.667   3.563   3.532 -1.2221  1.8286  1.3828
 3593TIP3   OH210784   5.972   3.730   4.068  0.1750 -0.2468  0.5530
 3593TIP3    H110785   6.015   3.797   4.015 -0.2635  0.9745  1.6920
 3593TIP3    H210786   6.038   3.660   4.075  0.9634  0.4226  0.0647
 3594TIP3   OH210787   1.897   5.862   2.996  0.1858  0.2806  0.5795
 3594TIP3    H110788   1.860   5.777   2.973  1.4009 -0.3296  0.8352
 3594TIP3    H210789   1.829   5.903   3.050 -0.2034 -0.7293  0.8917
 3595TIP3   OH210790   0.578   2.891   0.281 -0.6213  0.2010  0.6300
 3595TIP3    H110791   0.655   2.944   0.260 -0.5649 -0.3869 -0.7412
 3595TIP3    H210792   0.584   2.877   0.376  0.0590  1.5366  0.8096
 3596TIP3   OH210793   4.745   0.039   4.554  0.3307  0.2617 -0.3527
 3596TIP3    H110794   4.705  -0.045   4.577 -0.8744  0.8718 -0.1484
 3596TIP3    H210795   4.738   0.092   4.634  0.2602  0.8553 -0.7451
 3597TIP3   OH210796   3.162   1.896   0.459 -0.2752 -0.2689  0.0830
 3597TIP3    H110797   3.153   1.967   0.522 -1.2412  0.5771 -0.9601
 3597TIP3    H210798   3.073   1.882   0.426  0.3080 -0.0717 -1.7014
 3598TIP3   OH210799   0.151   3.139   4.922  0.8735 -0.4942  0.6205
 3598TIP3    H110800   0.091   3.213   4.918  0.3178 -0.9843 -0.6191
 3598TIP3    H210801   0.238   3.178   4.923  0.6051  0.1867 -0.5639
 3599TIP3   OH210802   1.148   1.118   4.267  0.4061  0.0955  0.3618
 3599TIP3    H110803   1.231   1.072   4.257  0.6408  0.0387  2.1798
 3599TIP3    H210804   1.084   1.061   4.225  1.1551 -0.2772 -0.3018
 3600TIP3   OH210805   0.092   0.632   0.243 -0.4877 -0.2514  0.0497
 3600TIP3    H110806   0.171   0.598   0.200 -0.4321  0.4290 -0.4152
 3600TIP3    H210807   0.108   0.619   0.336  0.2769  0.0744 -0.0257
 3601TIP3   OH210808   0.826   5.232   1.057  0.2728  0.2462  0.5273
 3601TIP3    H110809   0.833   5.328   1.062  0.3546  0.2576  0.2214
 3601TIP3    H210810   0.916   5.202   1.054  0.2554  0.2537 -0.9285
 3602TIP3   OH210811   2.680   2.667   1.661  0.1399 -0.1445  0.3510
 3602TIP3    H110812   2.720   2.593   1.615 -0.5282 -0.4716  0.2843
 3602TIP3    H210813   2.586   2.650   1.655 -0.0870  1.2733 -0.6479
 3603TIP3   OH210814   5.837   2.339   0.005  0.2666  0.0596 -0.3909
 3603TIP3    H110815   5.913   2.327   0.062 -0.3911  0.3394  0.5680
 3603TIP3    H210816   5.765   2.360   0.065 -0.9131 -1.6706 -1.1297
 3604TIP3   OH210817   1.737   5.807   4.178  0.3691  0.2721 -0.1660
 3604TIP3    H110818   1.690   5.881   4.216 -0.0316  0.7259 -1.4972
 3604TIP3    H210819   1.741   5.827   4.084  0.9459 -1.0167 -0.4316
 3605TIP3   OH210820   2.329   2.822   1.506  0.5513  0.5800  0.4234
 3605TIP3    H110821   2.346   2.746   1.561  1.1503  1.4225  1.4497
 3605TIP3    H210822   2.324   2.895   1.568 -1.1475  1.2258 -0.4055
 3606TIP3   OH210823   3.828   2.037   0.179 -0.1859 -0.3695  0.2386
 3606TIP3    H110824   3.789   1.994   0.103 -1.0000  0.2095  0.3168
 3606TIP3    H210825   3.762   2.030   0.248  0.4072 -0.5797  0.7953
 3607TIP3   OH210826   4.432   1.853   2.109  0.4220 -0.8289  0.1628
 3607TIP3    H110827   4.382   1.885   2.035  1.6930 -0.3773 -0.5293
 3607TIP3    H210828   4.408   1.910   2.182 -0.4350 -0.9482 -0.0195
 3608TIP3   OH210829   4.128   1.961   0.201  0.0178  0.4734 -0.0467
 3608TIP3    H110830   4.157   1.886   0.253  0.0563  0.2577 -0.3717
 3608TIP3    H210831   4.033   1.966   0.215  0.1817  1.0952  0.9105
 3609TIP3   OH210832   1.533   1.964   0.448 -0.1981 -0.2011 -0.1682
 3609TIP3    H110833   1.499   1.875   0.445 -2.5251  0.3991  2.9792
 3609TIP3    H210834   1.612   1.959   0.501 -0.3311 -0.3954  0.0091
 3610TIP3   OH210835   6.274   3.786   3.153 -0.0546 -0.2161 -0.3985
 3610TIP3    H110836   6.199   3.730   3.129 -0.4684 -0.4100  1.2412
 3610TIP3    H210837   6.256   3.812   3.243  0.3768  2.2173 -0.9587
 3611TIP3   OH210838   5.873   3.432   1.725  0.1002 -0.1798  0.3860
 3611TIP3    H110839   5.914   3.420   1.639 -0.7280 -1.6337  0.1518
 3611TIP3    H210840   5.780   3.415   1.710 -0.2959  1.0681  1.2878
 3612TIP3   OH210841   1.844   3.824   2.294  0.2415  0.1223  0.6987
 3612TIP3    H110842   1.933   3.823   2.261  0.3236 -0.4530  0.9102
 3612TIP3    H210843   1.793   3.778   2.227  0.3096 -0.5468  1.0950
 3613TIP3   OH210844   2.167   4.450   1.058  0.1134 -0.3011 -0.1063
 3613TIP3    H110845   2.204   4.453   1.146  0.2725 -0.0205 -0.1797
 3613TIP3    H210846   2.235   4.488   1.003 -0.8944  1.7710 -0.0282
 3614TIP3   OH210847   5.756   0.455   2.215  0.4688 -0.1189 -0.5561
 3614TIP3    H110848   5.739   0.454   2.310  1.6614 -0.3983 -0.3313
 3614TIP3    H210849   5.839   0.409   2.205  1.8083  2.3317 -1.4424
 3615TIP3   OH210850   1.413   5.974   4.083  0.5332  0.7612 -0.0536
 3615TIP3    H110851   1.373   6.058   4.102  3.3633  1.9913  1.0282
 3615TIP3    H210852   1.404   5.924   4.164 -1.1547 -0.0689 -0.6981
 3616TIP3   OH210853   4.599  -0.010   3.437  0.9663  0.4944 -0.4050
 3616TIP3    H110854   4.652   0.009   3.359  2.3106 -0.5797  0.2069
 3616TIP3    H210855   4.633   0.049   3.504  0.4652  0.7357 -0.3592
 3617TIP3   OH210856   2.606   5.608   1.640  0.2733 -0.0549 -0.1790
 3617TIP3    H110857   2.546   5.652   1.579 -0.4039  0.4139  0.7912
 3617TIP3    H210858   2.692   5.644   1.619 -0.1079  0.8978 -0.1535
 3618TIP3   OH210859   4.094   4.305   3.948  0.5608 -0.1661 -0.2718
 3618TIP3    H110860   4.066   4.214   3.932  0.7280 -0.2257 -0.2206
 3618TIP3    H210861   4.074   4.320   4.040  1.1626 -0.3717 -0.1070
 3619TIP3   OH210862   4.686   1.214   2.781  0.0467  0.5975  0.4122
 3619TIP3    H110863   4.751   1.226   2.850  0.9882  0.3176 -0.4095
 3619TIP3    H210864   4.602   1.220   2.826  0.6046  2.3411  1.2792
 3620TIP3   OH210865   6.169   0.973   2.533  0.4223 -0.2824 -0.3203
 3620TIP3    H110866   6.227   0.976   2.609  0.8317 -1.0865 -0.5877
 3620TIP3    H210867   6.179   1.058   2.492 -0.9346  0.7448  1.3315
 3621TIP3   OH210868   5.839   5.546   2.870  0.1649  0.0155  0.2062
 3621TIP3    H110869   5.849   5.604   2.794  1.2958 -0.4435 -0.0091
 3621TIP3    H210870   5.868   5.599   2.944  1.4919 -0.3497 -0.0306
 3622TIP3   OH210871   6.248   0.888   1.873  0.4216 -0.0687  0.1902
 3622TIP3    H110872   6.275   0.893   1.781  0.7137 -1.2227  0.1878
 3622TIP3    H210873   6.158   0.856   1.869  1.3067 -2.9197  0.2999
 3623TIP3   OH210874   4.676   3.172   2.059 -0.3710  0.4560 -0.6353
 3623TIP3    H110875   4.651   3.264   2.063  0.6892  0.7990 -1.4628
 3623TIP3    H210876   4.598   3.125   2.088 -1.3095  1.5667 -1.2566
 3624TIP3   OH210877   3.844   3.516   4.821 -0.2310  0.0524 -0.4666
 3624TIP3    H110878   3.784   3.504   4.894 -0.0796  0.7578 -0.2135
 3624TIP3    H210879   3.918   3.564   4.858  0.6151 -1.0266 -0.7216
 3625TIP3   OH210880   2.069   2.512   3.900 -0.3569 -0.1562  0.0963
 3625TIP3    H110881   2.013   2.587   3.919 -2.2413 -1.5217  0.2297
 3625TIP3    H210882   2.045   2.486   3.811  0.4224 -0.4946 -0.0242
 3626TIP3   OH210883   5.935   4.231   2.394 -0.0191  0.0078 -0.1408
 3626TIP3    H110884   5.972   4.213   2.308 -0.9675  2.2532 -1.1271
 3626TIP3    H210885   5.923   4.326   2.395 -0.8311 -0.0485  2.1563
 3627TIP3   OH210886   5.719   3.579   1.446 -0.4080 -0.4343 -0.4368
 3627TIP3    H110887   5.805   3.573   1.405 -0.1031 -1.6372  0.3380
 3627TIP3    H210888   5.657   3.558   1.377  0.0373 -1.3542 -0.5702
 3628TIP3   OH210889   3.063   2.361   2.725  0.0167  0.4011 -1.0836
 3628TIP3    H110890   3.093   2.272   2.741  3.1235  1.3299 -1.0955
 3628TIP3    H210891   2.988   2.351   2.666 -0.1153 -2.1730 -0.6065
 3629TIP3   OH210892   1.752   0.603   0.747  0.4818 -0.5131 -0.5225
 3629TIP3    H110893   1.734   0.635   0.658  4.0392 -1.2976 -1.6587
 3629TIP3    H210894   1.743   0.507   0.740 -0.9173 -0.4941  0.4886
 3630TIP3   OH210895   2.366   0.973   3.634 -0.1368 -0.7526  0.1128
 3630TIP3    H110896   2.391   1.047   3.690 -1.5564  1.2781 -1.7229
 3630TIP3    H210897   2.438   0.965   3.571 -0.9185  0.6413 -1.0434
 3631TIP3   OH210898   0.976   2.023   4.297 -0.0211 -0.0250  0.2992
 3631TIP3    H110899   0.969   2.075   4.377 -0.8298 -1.2400  1.0486
 3631TIP3    H210900   0.917   2.066   4.235  1.6875  1.7826 -0.1915
 3632TIP3   OH210901   0.182   3.982   4.023 -0.1868 -0.3018 -0.2359
 3632TIP3    H110902   0.258   4.018   3.978 -0.6820 -0.4831 -1.2367
 3632TIP3    H210903   0.166   3.898   3.979 -0.4914 -0.6390  0.4955
 3633TIP3   OH210904   0.578   1.781   3.968  0.2449  0.6368  0.0946
 3633TIP3    H110905   0.626   1.731   3.903 -1.3967 -1.3546  0.3206
 3633TIP3    H210906   0.627   1.769   4.049 -1.0650 -2.3218  0.5807
 3634TIP3   OH210907   4.640   4.916   4.819  0.3072 -0.0114  0.2949
 3634TIP3    H110908   4.598   4.975   4.881 -0.8286  0.2390 -0.6956
 3634TIP3    H210909   4.683   4.851   4.875 -2.0374 -0.7440  1.3822
 3635TIP3   OH210910   4.324   0.618   2.926 -0.1609 -0.1790  0.2163
 3635TIP3    H110911   4.396   0.565   2.959  0.3949  1.1601  1.2434
 3635TIP3    H210912   4.312   0.588   2.836  1.3885 -0.7232  0.1624
 3636TIP3   OH210913   0.957   5.112   3.096 -0.1131 -0.0950  0.1630
 3636TIP3    H110914   0.973   5.155   3.012 -0.4890 -1.0357 -0.4070
 3636TIP3    H210915   1.004   5.029   3.089  0.7648  0.2735  1.3145
 3637TIP3   OH210916   5.759   1.326   1.004  0.0979  0.5926 -0.4194
 3637TIP3    H110917   5.822   1.378   0.954 -0.6261  1.5733 -0.3328
 3637TIP3    H210918   5.729   1.259   0.942  0.2857  0.8961 -0.8396
 3638TIP3   OH210919   5.192   3.007   2.444  0.5488 -0.3407  0.1778
 3638TIP3    H110920   5.201   3.032   2.352  0.0617 -3.8090 -0.9538
 3638TIP3    H210921   5.276   3.031   2.484  0.6392  1.5470 -1.0481
 3639TIP3   OH210922   2.742   3.183   2.095  0.4043 -0.3774 -0.3145
 3639TIP3    H110923   2.728   3.238   2.173  0.0480 -0.3678 -0.3801
 3639TIP3    H210924   2.826   3.140   2.110  0.0559 -0.8558  0.3727
 3640TIP3   OH210925   6.328   2.272   1.935 -0.1534 -0.2201  0.4731
 3640TIP3    H110926   6.298   2.317   1.856  3.1121 -0.1389 -0.8602
 3640TIP3    H210927   6.340   2.181   1.907 -1.3040 -0.7742  1.6334
 3641TIP3   OH210928   3.260   3.524   2.790  0.2473 -0.0707 -0.7546
 3641TIP3    H110929   3.260   3.520   2.886 -0.6179 -2.2173 -0.7759
 3641TIP3    H210930   3.326   3.589   2.769 -0.2843  1.2398  1.3081
 3642TIP3   OH210931   3.616   3.389   3.845 -0.3275  0.4065  0.5346
 3642TIP3    H110932   3.640   3.481   3.859 -2.0284  0.9446  0.1967
 3642TIP3    H210933   3.609   3.352   3.933 -2.6590  1.4870  0.8860
 3643TIP3   OH210934   1.060   2.417   3.627  0.0068  0.2212 -0.7621
 3643TIP3    H110935   1.090   2.487   3.570 -0.2143  1.4678  0.5996
 3643TIP3    H210936   0.972   2.443   3.655  0.2871 -0.1031  0.5045
 3644TIP3   OH210937   2.520   5.793   5.101 -0.1486  0.3753 -0.1962
 3644TIP3    H110938   2.508   5.881   5.138 -0.4081  0.6520 -0.9185
 3644TIP3    H210939   2.431   5.762   5.085 -0.0446  0.2787 -0.6100
 3645TIP3   OH210940   5.349   0.107   0.468 -0.3203  0.3096 -0.0748
 3645TIP3    H110941   5.392   0.047   0.407 -0.6635  0.8269 -0.8473
 3645TIP3    H210942   5.259   0.114   0.435 -0.4156  0.8666  0.2887
 3646TIP3   OH210943   3.423   3.809   0.977  0.3056 -0.2241 -0.0024
 3646TIP3    H110944   3.376   3.820   1.059 -0.2896 -0.1385 -0.3510
 3646TIP3    H210945   3.506   3.855   0.991 -0.2672  0.7926  0.1616
 3647TIP3   OH210946   4.224   3.269   1.443 -0.0200  0.2862  0.3413
 3647TIP3    H110947   4.270   3.191   1.411 -1.4616 -1.0802  1.4400
 3647TIP3    H210948   4.157   3.286   1.378  0.5109  0.8564 -0.0736
 3648TIP3   OH210949   3.577   5.293   4.143 -0.0226 -0.2001  0.0091
 3648TIP3    H110950   3.520   5.368   4.161 -0.8263  0.0118 -2.9119
 3648TIP3    H210951   3.643   5.295   4.212 -1.4437  1.7242  1.4033
 3649TIP3   OH210952   3.437   2.204   1.096  0.2019  0.2856  0.0939
 3649TIP3    H110953   3.388   2.284   1.115 -0.8323 -0.3957  0.3758
 3649TIP3    H210954   3.490   2.226   1.019  0.3546  1.4049  0.5035
 3650TIP3   OH210955   1.208   0.579   4.410 -0.2322 -0.4108  0.4059
 3650TIP3    H110956   1.123   0.534   4.408 -0.7313  0.5265 -0.9844
 3650TIP3    H210957   1.262   0.526   4.469 -0.9576 -2.5291 -0.7157
 3651TIP3   OH210958   5.723   5.512   4.964  0.3164  0.6274 -0.2278
 3651TIP3    H110959   5.679   5.570   4.901  0.6191 -0.4420 -1.4873
 3651TIP3    H210960   5.684   5.426   4.948 -0.5274  0.5290  1.9877
 3652TIP3   OH210961   3.621   4.339   2.462  0.6432 -0.1464 -0.1425
 3652TIP3    H110962   3.566   4.319   2.538 -0.5787  0.4439 -0.8406
 3652TIP3    H210963   3.709   4.346   2.497 -0.2093  3.0088  1.7918
 3653TIP3   OH210964   3.003   3.097   1.475  0.1445 -0.4245 -0.4644
 3653TIP3    H110965   3.027   3.189   1.476 -0.3091 -0.2978 -0.9653
 3653TIP3    H210966   2.912   3.096   1.445 -0.1321 -0.9742  0.3410
 3654TIP3   OH210967   1.309   0.513   0.023 -0.0916 -0.7337  0.5550
 3654TIP3    H110968   1.385   0.542   0.075 -0.5664  0.5919  0.5475
 3654TIP3    H210969   1.274   0.439   0.073  1.4407 -1.6499  0.3356
 3655TIP3   OH210970   1.478   2.774   3.562  0.1940 -0.3095  0.2892
 3655TIP3    H110971   1.469   2.722   3.642  0.0565 -0.1544  0.3757
 3655TIP3    H210972   1.554   2.831   3.579  0.6177 -0.7855  0.0234
 3656TIP3   OH210973   5.406   3.450   3.266  0.2499  0.3861 -0.3540
 3656TIP3    H110974   5.328   3.409   3.302 -0.1879  1.4180 -0.0748
 3656TIP3    H210975   5.451   3.380   3.219 -1.5352  0.0747 -1.6817
 3657TIP3   OH210976   0.071   1.211   3.676  0.0420 -0.0807 -0.0755
 3657TIP3    H110977   0.133   1.284   3.676 -0.2744  0.2060 -1.0957
 3657TIP3    H210978   0.125   1.133   3.693  0.1881  0.4907  2.5918
 3658TIP3   OH210979   5.308   3.200   1.032 -0.2556 -0.0591  0.3354
 3658TIP3    H110980   5.338   3.198   0.941  1.6158  2.0876  0.8370
 3658TIP3    H210981   5.277   3.110   1.048 -0.8903 -0.4402 -2.4419
 3659TIP3   OH210982   1.202   2.196   1.928  0.2448 -0.0586 -0.1663
 3659TIP3    H110983   1.195   2.106   1.962 -2.3992  0.3839  0.6864
 3659TIP3    H210984   1.240   2.246   2.000  1.1078 -0.3341 -0.4108
 3660TIP3   OH210985   3.148   1.203   1.050 -0.1907  0.3683  0.4333
 3660TIP3    H110986   3.076   1.264   1.033 -1.6865 -1.3936  0.1113
 3660TIP3    H210987   3.225   1.258   1.054 -1.6310  2.4373  1.5116
 3661TIP3   OH210988   6.284   5.844   0.130  0.6230  0.5196 -0.7667
 3661TIP3    H110989   6.262   5.765   0.080 -2.8281  1.1133 -0.4617
 3661TIP3    H210990   6.264   5.821   0.221 -1.6047  1.9686 -0.8022
 3662TIP3   OH210991   2.672   5.186   0.505  0.1384  0.3678  0.4775
 3662TIP3    H110992   2.677   5.204   0.599  0.6565  0.1451  0.4936
 3662TIP3    H210993   2.708   5.098   0.495  2.6233  1.4054 -0.2578
 3663TIP3   OH210994   4.530   1.552   3.132 -0.1697  0.0799  0.1739
 3663TIP3    H110995   4.438   1.578   3.144 -0.0486  1.2449 -1.1201
 3663TIP3    H210996   4.579   1.608   3.192 -0.1348  1.1805 -0.8252
 3664TIP3   OH210997   3.063   5.074   4.633  0.0764  0.7208 -0.3621
 3664TIP3    H110998   3.155   5.050   4.644  0.2316  1.8362  0.8440
 3664TIP3    H210999   3.060   5.168   4.647 -1.3283  0.6264  0.1425
 3665TIP3   OH211000   1.588   2.353   4.266 -0.2929  0.1915 -0.2803
 3665TIP3    H111001   1.544   2.273   4.239 -0.3175  0.3610 -0.7504
 3665TIP3    H211002   1.569   2.361   4.360 -2.3239  0.9145 -0.6974
 3666TIP3   OH211003   3.353   0.982   0.161 -0.8262  0.3645 -0.4894
 3666TIP3    H111004   3.439   1.025   0.167 -0.8575  0.4678 -0.7800
 3666TIP3    H211005   3.297   1.047   0.118 -1.5771  1.1050  1.4821
 3667TIP3   OH211006   1.589   1.341   4.852  0.3458 -0.1020 -0.3220
 3667TIP3    H111007   1.510   1.309   4.896  0.7142 -0.7832 -0.1419
 3667TIP3    H211008   1.660   1.289   4.889  0.7675 -0.1264 -1.1294
 3668TIP3   OH211009   0.374   5.071   2.003 -0.4379  0.0551  0.0516
 3668TIP3    H111010   0.309   5.134   2.035  0.9423  1.4741  0.2229
 3668TIP3    H211011   0.418   5.116   1.931  1.1181 -0.3719  0.6800
 3669TIP3   OH211012   6.185   2.546   3.290  0.2788 -0.0076  0.1674
 3669TIP3    H111013   6.091   2.537   3.303  0.1604  1.0967  0.1861
 3669TIP3    H211014   6.221   2.555   3.379  0.2814  0.5665  0.1111
 3670TIP3   OH211015   1.142   2.312   5.028 -0.4557  0.0377  0.0155
 3670TIP3    H111016   1.236   2.320   5.013 -0.6736 -0.0022 -1.5898
 3670TIP3    H211017   1.112   2.401   5.046  0.0095 -0.0791  1.4707
 3671TIP3   OH211018   4.755   4.024   2.573 -0.1782 -0.1386 -0.6941
 3671TIP3    H111019   4.713   4.094   2.622  0.6924  0.0770 -0.2524
 3671TIP3    H211020   4.776   4.064   2.488  0.2745  0.1166 -0.4603
 3672TIP3   OH211021   0.761   2.117   4.142 -0.1567  0.5330  0.1829
 3672TIP3    H111022   0.772   2.156   4.056 -0.9718 -0.2927 -0.3134
 3672TIP3    H211023   0.681   2.065   4.135  0.1543 -0.1235  1.2181
 3673TIP3   OH211024   4.708   3.825   4.113  0.1126  0.1952 -0.1012
 3673TIP3    H111025   4.689   3.855   4.024 -1.9583  0.0078  0.2092
 3673TIP3    H211026   4.658   3.884   4.169  0.9563 -0.0313  0.9145
 3674TIP3   OH211027   0.135   0.812   2.380  0.6598 -0.5673 -0.1409
 3674TIP3    H111028   0.212   0.788   2.329  0.7883 -0.1253 -0.1578
 3674TIP3    H211029   0.168   0.825   2.469  1.0019  1.5875 -0.5130
 3675TIP3   OH211030   6.252   2.880   3.222 -0.1413 -0.1260  0.4067
 3675TIP3    H111031   6.316   2.940   3.260 -0.9374  1.0595 -0.0661
 3675TIP3    H211032   6.253   2.900   3.128 -1.9417  0.6850  0.5140
 3676TIP3   OH211033   0.939   4.701   2.562 -0.3869 -0.0156  0.2668
 3676TIP3    H111034   0.923   4.758   2.487  1.0880  1.9266  1.3443
 3676TIP3    H211035   1.034   4.706   2.576 -0.3406 -2.0072  1.0146
 3677TIP3   OH211036   6.230   3.903   0.383  0.0479  0.8524 -0.7275
 3677TIP3    H111037   6.187   3.825   0.419 -0.3026  1.4324  0.1386
 3677TIP3    H211038   6.254   3.955   0.459  0.2634  1.6115 -1.2966
 3678TIP3   OH211039   1.791   4.717   4.199  0.1595 -0.1456  0.2109
 3678TIP3    H111040   1.696   4.723   4.197  0.1196  0.0545  1.8649
 3678TIP3    H211041   1.821   4.791   4.145 -0.6079  1.1134  1.4659
 3679TIP3   OH211042   0.604   4.203   3.452 -0.4324  0.2332 -0.1557
 3679TIP3    H111043   0.690   4.245   3.456  0.9242 -2.2312 -1.2970
 3679TIP3    H211044   0.579   4.193   3.544  1.0618 -0.0453  0.2525
 3680TIP3   OH211045   2.405   2.456   4.313  0.2995 -0.1326 -0.5978
 3680TIP3    H111046   2.495   2.482   4.333  0.2316  1.0648 -1.6786
 3680TIP3    H211047   2.364   2.442   4.398  1.4591 -0.5664 -0.0860
 3681TIP3   OH211048   5.821   5.269   2.886  0.4351  0.1151  0.0184
 3681TIP3    H111049   5.769   5.260   2.806  1.4091  1.6232 -0.8198
 3681TIP3    H211050   5.866   5.353   2.877  1.3667 -0.1554  1.6948
 3682TIP3   OH211051   5.907   0.374   2.565  0.1004  0.1953 -0.3694
 3682TIP3    H111052   5.932   0.426   2.489  0.4088  1.7998  0.7841
 3682TIP3    H211053   5.811   0.377   2.566  0.0715 -0.3539 -1.0271
 3683TIP3   OH211054   5.518   3.843   1.193 -0.2324  0.3356 -0.6164
 3683TIP3    H111055   5.556   3.867   1.278 -2.1638  0.1813  0.3443
 3683TIP3    H211056   5.433   3.887   1.192 -1.2059 -1.4586 -1.5092
 3684TIP3   OH211057   2.168   3.327   5.196  0.2269  0.2805 -0.1594
 3684TIP3    H111058   2.246   3.326   5.141  1.6099  2.4084  1.5702
 3684TIP3    H211059   2.123   3.408   5.173  0.8038  1.1871  1.6556
 3685TIP3   OH211060   4.667   2.002   3.254 -0.6130 -1.0141  0.3199
 3685TIP3    H111061   4.623   1.974   3.174 -2.0834 -0.8153  1.0238
 3685TIP3    H211062   4.636   1.942   3.321 -1.5072  0.4246  1.2598
 3686TIP3   OH211063   1.640   2.408   3.974  0.4059 -0.2443  0.1624
 3686TIP3    H111064   1.612   2.348   4.043  1.5340  0.4453  1.2429
 3686TIP3    H211065   1.620   2.361   3.892 -1.0753 -1.0116  0.9254
 3687TIP3   OH211066   4.430   2.815   1.783 -0.1104 -0.0558  0.1681
 3687TIP3    H111067   4.457   2.724   1.793  2.2144  0.3930 -1.2794
 3687TIP3    H211068   4.475   2.862   1.854 -0.6162  0.0942  0.3940
 3688TIP3   OH211069   0.172   3.738   2.293 -0.3072 -0.4142 -0.3650
 3688TIP3    H111070   0.083   3.706   2.307 -1.5257  2.2005 -1.4785
 3688TIP3    H211071   0.207   3.682   2.224 -1.6247 -0.6190 -0.9043
 3689TIP3   OH211072   3.981   4.739   1.416  0.4550  0.4049  0.5560
 3689TIP3    H111073   4.046   4.671   1.433  0.4467 -0.3580 -1.9999
 3689TIP3    H211074   4.019   4.819   1.453  2.1503 -0.3113  0.4659
 3690TIP3   OH211075   5.002   1.281   0.524  0.1234 -0.0217 -0.0213
 3690TIP3    H111076   5.049   1.198   0.530 -0.4984 -0.3391  0.5902
 3690TIP3    H211077   4.951   1.274   0.442 -2.1190 -1.4484  1.3733
 3691TIP3   OH211078   2.870   2.515   2.378 -0.2779  0.3318 -0.1830
 3691TIP3    H111079   2.958   2.498   2.411 -0.3665 -1.7740 -0.8963
 3691TIP3    H211080   2.813   2.458   2.430 -0.9871  0.3349 -0.9374
 3692TIP3   OH211081   5.967   2.395   4.870 -0.1875 -0.1099 -0.4210
 3692TIP3    H111082   6.004   2.463   4.927  0.2096 -0.3966 -0.3379
 3692TIP3    H211083   5.896   2.357   4.922 -1.1909  1.0260 -0.9099
 3693TIP3   OH211084   1.952   4.195   2.901 -0.3232  0.4143  0.1084
 3693TIP3    H111085   2.039   4.231   2.884 -0.0102  0.3003  1.4085
 3693TIP3    H211086   1.967   4.123   2.962 -1.2869  0.1004 -0.0062
 3694TIP3   OH211087   0.199   2.464   4.653 -0.3670 -0.8914  0.1200
 3694TIP3    H111088   0.103   2.469   4.654 -0.3510  0.0420 -1.2197
 3694TIP3    H211089   0.218   2.370   4.647 -1.2314 -1.0209 -0.8281
 3695TIP3   OH211090   4.083   1.287   1.033  0.5389 -0.0486 -0.5903
 3695TIP3    H111091   4.008   1.347   1.025 -0.0792 -0.4237  1.7085
 3695TIP3    H211092   4.047   1.201   1.009  0.2533 -0.1947  0.3195
 3696TIP3   OH211093   2.974   5.572   1.876 -0.5667 -0.1013 -0.0177
 3696TIP3    H111094   3.018   5.497   1.836  0.2443 -0.2323  1.0782
 3696TIP3    H211095   3.020   5.585   1.959 -1.1338  1.1989  0.1077
 3697TIP3   OH211096   1.753   3.627   4.010  0.1237  0.6211 -0.0638
 3697TIP3    H111097   1.680   3.577   3.973  0.2411  0.5485 -0.1955
 3697TIP3    H211098   1.753   3.709   3.961 -0.3655  0.9473  0.4709
 3698TIP3   OH211099   1.609   5.524   0.361  0.5368 -0.2173  0.1927
 3698TIP3    H111100   1.530   5.489   0.403 -0.3011  0.6444 -0.6119
 3698TIP3    H211101   1.677   5.516   0.427 -0.8560  1.6350  1.9686
 3699TIP3   OH211102   0.752   1.843   0.404 -0.2635  0.0548  0.4790
 3699TIP3    H111103   0.754   1.774   0.469  0.2814  0.8545  1.3345
 3699TIP3    H211104   0.763   1.924   0.454 -1.3713  0.8129 -0.4332
 3700TIP3   OH211105   2.484   3.872   5.025 -0.5218  0.0726 -0.3628
 3700TIP3    H111106   2.409   3.883   4.967 -0.4136  0.7593 -0.3810
 3700TIP3    H211107   2.447   3.873   5.113 -0.7115 -1.1790 -0.4062
 3701TIP3   OH211108   2.342   0.731   2.178  0.5520 -0.2412  0.8892
 3701TIP3    H111109   2.418   0.776   2.214  0.5442  1.3995 -0.9685
 3701TIP3    H211110   2.267   0.779   2.212  0.4424 -0.3363  0.7818
 3702TIP3   OH211111   0.185   1.712   0.534 -0.1056 -0.2836 -0.2905
 3702TIP3    H111112   0.209   1.800   0.564 -1.7323 -0.2270  0.9953
 3702TIP3    H211113   0.115   1.685   0.594 -0.7567 -1.8038 -1.6679
 3703TIP3   OH211114   1.030   2.693   0.936 -0.4425  0.3106  0.0194
 3703TIP3    H111115   1.048   2.779   0.899 -0.6710  0.6276  0.6354
 3703TIP3    H211116   1.025   2.635   0.860  0.2401  0.7419 -0.3607
 3704TIP3   OH211117   3.863   3.318   4.301 -0.0415 -0.1640  0.1258
 3704TIP3    H111118   3.828   3.263   4.371 -0.3608  1.7399  1.5242
 3704TIP3    H211119   3.901   3.393   4.346 -0.1932  1.0972 -1.7439
 3705TIP3   OH211120   4.242   5.028   1.828  0.0874  0.3037 -0.0161
 3705TIP3    H111121   4.310   5.085   1.865 -0.0804 -1.0548  2.6047
 3705TIP3    H211122   4.160   5.074   1.847  0.0842  0.3630 -0.1703
 3706TIP3   OH211123   1.088   1.847   1.523  0.0361  0.1884 -0.4863
 3706TIP3    H111124   1.117   1.798   1.600 -1.1654  1.2152  0.6607
 3706TIP3    H211125   1.164   1.899   1.498  1.0515 -1.5420 -1.1979
 3707TIP3   OH211126   4.670   3.099   3.095  0.1333  0.0178 -0.1167
 3707TIP3    H111127   4.649   3.186   3.130 -0.9689  0.0312 -0.7712
 3707TIP3    H211128   4.765   3.091   3.106 -0.0185  0.4159  1.9380
 3708TIP3   OH211129   3.896   0.347   4.028  0.1354  0.1129 -0.3515
 3708TIP3    H111130   3.826   0.393   4.073  0.8566  0.3657  0.5548
 3708TIP3    H211131   3.943   0.415   3.980  0.8252  0.2564  0.4887
 3709TIP3   OH211132   2.531   4.490   3.094  0.2314 -0.2703 -0.5163
 3709TIP3    H111133   2.494   4.465   3.178  1.3807  0.4846  0.2423
 3709TIP3    H211134   2.579   4.571   3.112  2.3745 -1.2649 -1.3841
 3710TIP3   OH211135   5.421   4.268   1.159  0.3984  0.3026 -0.4803
 3710TIP3    H111136   5.460   4.347   1.195 -1.1322  0.0139  2.1507
 3710TIP3    H211137   5.373   4.297   1.082  1.2254  1.6058 -0.5333
 3711TIP3   OH211138   3.679   0.166   1.845 -0.3178  0.3986 -0.6752
 3711TIP3    H111139   3.730   0.201   1.772  0.5183 -1.3983 -1.0055
 3711TIP3    H211140   3.722   0.083   1.867 -2.0928 -0.3544  0.1697
 3712TIP3   OH211141   0.411   1.580   0.113 -0.4155 -0.3426  0.3729
 3712TIP3    H111142   0.426   1.622   0.197  2.3653 -1.9317  0.7753
 3712TIP3    H211143   0.338   1.520   0.128  0.1714 -0.7356  1.6923
 3713TIP3   OH211144   4.081   5.784   1.653  0.3708 -0.0696 -0.2545
 3713TIP3    H111145   3.993   5.808   1.624  0.4992 -1.8246 -2.3457
 3713TIP3    H211146   4.115   5.727   1.583  2.2179 -1.4888  1.6653
 3714TIP3   OH211147   6.181   5.830   4.705  0.5285 -0.1611  0.2810
 3714TIP3    H111148   6.236   5.871   4.772  0.5836 -1.4461  1.0623
 3714TIP3    H211149   6.242   5.793   4.642  0.6247 -1.7716  1.2589
 3715TIP3   OH211150   1.677   5.677   1.530 -0.6070  0.0088  0.7879
 3715TIP3    H111151   1.766   5.645   1.542 -0.4100 -0.5923 -1.7161
 3715TIP3    H211152   1.627   5.634   1.600  0.9021 -0.1724  1.8169
 3716TIP3   OH211153   6.060   5.868   3.723 -0.4837 -0.4048  0.1817
 3716TIP3    H111154   6.050   5.958   3.693 -2.7462 -0.3138  0.9801
 3716TIP3    H211155   6.154   5.855   3.731 -0.1032  1.7993 -0.2135
 3717TIP3   OH211156   2.966   1.637   0.375  0.1370 -0.2436  0.0038
 3717TIP3    H111157   2.928   1.725   0.373  1.6608  0.4631  0.5585
 3717TIP3    H211158   2.899   1.583   0.418 -0.0831  1.0386  1.3521
 3718TIP3   OH211159   0.092   1.669   4.401  0.4899 -0.2637 -0.2909
 3718TIP3    H111160   0.182   1.693   4.421  1.0564  0.5081 -3.3807
 3718TIP3    H211161   0.042   1.750   4.411 -0.3602 -1.0486  3.2540
 3719TIP3   OH211162   1.966   1.518   3.841  0.3497 -0.1307  0.4790
 3719TIP3    H111163   2.051   1.561   3.828  1.5178 -2.4416 -0.0075
 3719TIP3    H211164   1.970   1.484   3.930 -0.3555  0.2987  0.6820
 3720TIP3   OH211165   0.694   1.338   3.114 -0.3867  1.0850  0.2559
 3720TIP3    H111166   0.666   1.253   3.080  0.6430  0.3178  1.2505
 3720TIP3    H211167   0.711   1.391   3.036  1.5964 -0.5001 -0.4870
 3721TIP3   OH211168   3.807   0.004   3.967 -0.7401 -0.8525 -0.1475
 3721TIP3    H111169   3.747   0.062   4.013 -2.7631 -0.0872 -3.4092
 3721TIP3    H211170   3.790   0.020   3.874  5.2493  0.1483 -1.5171
 3722TIP3   OH211171   2.368   5.480   3.273  0.1469  0.1392  0.0009
 3722TIP3    H111172   2.462   5.477   3.254 -0.2462  0.7340 -2.4871
 3722TIP3    H211173   2.360   5.542   3.345  1.6796 -0.2981  0.5913
 3723TIP3   OH211174   6.340   0.374   3.824 -0.0176  0.1993  0.3037
 3723TIP3    H111175   6.381   0.343   3.743  0.2738  0.6006  0.2971
 3723TIP3    H211176   6.342   0.298   3.882  0.4356  0.1223  0.1909
 3724TIP3   OH211177   6.271   2.854   3.900 -0.2469 -0.4280 -0.0349
 3724TIP3    H111178   6.246   2.780   3.957  0.9733 -0.9041 -0.0996
 3724TIP3    H211179   6.189   2.902   3.888 -0.2706  0.7464  3.6024
 3725TIP3   OH211180   3.384   4.973   2.143 -0.2027  0.4838  0.1070
 3725TIP3    H111181   3.368   4.976   2.238 -0.3591  1.3229  0.0641
 3725TIP3    H211182   3.298   4.953   2.105 -0.0844 -0.1216  0.1554
 3726TIP3   OH211183   3.642   2.437   4.844 -0.4019  0.0075 -0.2774
 3726TIP3    H111184   3.674   2.501   4.781 -0.7773  0.1787 -0.2952
 3726TIP3    H211185   3.616   2.362   4.791  1.6856 -0.8876 -0.1402
 3727TIP3   OH211186   1.078   5.509   2.303 -0.4930 -0.3687 -0.0799
 3727TIP3    H111187   1.087   5.435   2.244 -1.0850 -1.5232  1.2077
 3727TIP3    H211188   1.041   5.471   2.383  0.9049  0.9948  1.2788
 3728TIP3   OH211189   5.928   3.388   0.770 -0.2375  0.7515 -0.0304
 3728TIP3    H111190   5.880   3.470   0.784 -0.9720  0.7073 -1.9735
 3728TIP3    H211191   6.001   3.414   0.714 -0.9251 -0.0362 -1.3171
 3729TIP3   OH211192   1.063   3.421   1.694 -0.4377 -0.1077  0.2048
 3729TIP3    H111193   0.984   3.412   1.748 -0.8320 -0.0913 -0.3660
 3729TIP3    H211194   1.100   3.505   1.722 -1.3896  0.5721 -0.5074
 3730TIP3   OH211195   1.209   0.778   4.743 -0.0846 -0.4777  0.2340
 3730TIP3    H111196   1.156   0.847   4.783  2.5092  2.5200 -1.1648
 3730TIP3    H211197   1.176   0.771   4.654  0.3889 -0.2679  0.0432
 3731TIP3   OH211198   2.772   1.505   4.894  0.0569 -0.0786 -0.0928
 3731TIP3    H111199   2.837   1.559   4.850  0.4743  0.7425  1.4559
 3731TIP3    H211200   2.691   1.521   4.846  0.9409 -1.0973 -2.0372
 3732TIP3   OH211201   6.249   2.677   1.883 -0.0288 -0.3796  0.1624
 3732TIP3    H111202   6.257   2.605   1.946 -0.3960 -0.9055 -0.3824
 3732TIP3    H211203   6.205   2.746   1.931  0.6049 -0.3991  0.7900
 3733TIP3   OH211204   0.788   5.279   1.656  0.0686 -0.4268 -0.0896
 3733TIP3    H111205   0.837   5.268   1.574 -0.1870  0.1393 -0.3252
 3733TIP3    H211206   0.727   5.349   1.637 -0.6106 -0.9018  0.3104
 3734TIP3   OH211207   4.976   4.226   1.380 -0.4540  0.3740  0.1983
 3734TIP3    H111208   4.933   4.286   1.441 -0.9875  0.1975  0.0029
 3734TIP3    H211209   4.904   4.180   1.337 -0.0694  0.2082 -0.2741
 3735TIP3   OH211210   3.118   2.120   1.624  0.0482 -1.0234 -0.3654
 3735TIP3    H111211   3.101   2.151   1.535  0.3079  1.0344  0.2584
 3735TIP3    H211212   3.197   2.066   1.615  1.2451  0.7496 -1.1418
 3736TIP3   OH211213   0.235   4.147   0.869  0.3495  0.1761  0.5467
 3736TIP3    H111214   0.306   4.089   0.838  1.8356  2.5001 -0.6748
 3736TIP3    H211215   0.274   4.196   0.942 -0.4517  0.5755  0.7189
 3737TIP3   OH211216   4.929   2.277   4.863  0.3507  0.5381  0.2894
 3737TIP3    H111217   4.965   2.319   4.785 -0.3399 -0.6114 -0.6629
 3737TIP3    H211218   5.000   2.222   4.896 -0.3227 -1.3873 -1.3364
 3738TIP3   OH211219   4.620   4.072   0.056 -0.2764 -0.8241 -0.4767
 3738TIP3    H111220   4.567   4.004   0.015 -0.8388  0.2257 -1.5498
 3738TIP3    H211221   4.578   4.154   0.031  0.4515 -0.0620  0.6833
 3739TIP3   OH211222   0.038   3.117   3.059 -0.6674 -0.2694  0.3143
 3739TIP3    H111223  -0.036   3.168   3.028 -0.7524  0.9764  2.4300
 3739TIP3    H211224   0.040   3.040   3.002 -3.6689 -0.4212  0.2940
 3740TIP3   OH211225   2.701   2.205   4.377  0.2489 -0.2099 -0.0894
 3740TIP3    H111226   2.688   2.294   4.346  0.5257 -0.7649 -1.9225
 3740TIP3    H211227   2.786   2.207   4.421  0.8883  0.1658 -1.2985
 3741TIP3   OH211228   5.669   4.231   3.868 -0.2084  0.3523  0.3104
 3741TIP3    H111229   5.758   4.248   3.899 -0.2871  0.4120  0.5093
 3741TIP3    H211230   5.670   4.256   3.776  0.2845 -0.6957  0.0123
 3742TIP3   OH211231   2.996   5.541   0.834 -0.2961  1.0777  0.1166
 3742TIP3    H111232   2.951   5.591   0.766  0.3269  0.6822 -0.5997
 3742TIP3    H211233   3.087   5.537   0.804 -0.4252 -0.9152 -0.0849
 3743TIP3   OH211234   1.503   3.972   4.532  0.6676 -0.5962 -0.0009
 3743TIP3    H111235   1.486   3.886   4.570  1.7550 -0.0591  1.8781
 3743TIP3    H211236   1.498   3.959   4.438 -2.8446 -1.9048  0.2043
 3744TIP3   OH211237   5.199   3.836   2.887  0.0660  0.0146 -0.3343
 3744TIP3    H111238   5.233   3.747   2.892 -0.4046 -0.1811 -0.5369
 3744TIP3    H211239   5.139   3.834   2.812  1.7709  1.0947 -1.7885
 3745TIP3   OH211240   4.752   3.797   2.310 -0.0234 -1.0452  0.0297
 3745TIP3    H111241   4.757   3.889   2.335  2.8966 -1.0040 -0.3047
 3745TIP3    H211242   4.765   3.797   2.215 -1.2416 -1.7523 -0.1532
 3746TIP3   OH211243   5.738   0.773   2.862  0.1953 -0.3112  0.1005
 3746TIP3    H111244   5.822   0.773   2.906 -0.0369 -1.8919  0.5940
 3746TIP3    H211245   5.678   0.730   2.923 -0.9725  0.7347 -0.2576
 3747TIP3   OH211246   2.704   4.604   2.237 -0.0707  0.4241 -0.6633
 3747TIP3    H111247   2.779   4.572   2.288  0.3690  1.6059 -0.5381
 3747TIP3    H211248   2.654   4.525   2.217  0.8331 -0.3082 -0.1471
 3748TIP3   OH211249   5.122   3.369   3.294 -0.4800  0.3719 -0.6824
 3748TIP3    H111250   5.041   3.351   3.341  0.7639 -1.5035  0.9238
 3748TIP3    H211251   5.125   3.303   3.224  0.8321 -1.4581  0.9540
 3749TIP3   OH211252   4.995   5.644   4.490 -0.3418 -0.1416  0.4189
 3749TIP3    H111253   4.970   5.565   4.538  0.1972 -0.4287  0.2253
 3749TIP3    H211254   5.043   5.697   4.553  0.2578 -0.4640  0.2425
 3750TIP3   OH211255   1.179   3.166   0.490 -0.3395  0.2513 -0.1359
 3750TIP3    H111256   1.119   3.223   0.442 -1.1823 -0.3669  0.1652
 3750TIP3    H211257   1.250   3.149   0.428 -0.0641  1.6148 -0.2337
 3751TIP3   OH211258   0.764   5.757   5.010  0.7003 -0.4794 -0.1868
 3751TIP3    H111259   0.829   5.711   5.065  1.0891  1.1484  0.7900
 3751TIP3    H211260   0.803   5.757   4.923  1.2742 -0.9170  0.0566
 3752TIP3   OH211261   1.346   2.974   3.366 -0.0201  0.7450  0.1361
 3752TIP3    H111262   1.372   3.065   3.383  0.0172  0.9265 -0.8348
 3752TIP3    H211263   1.406   2.922   3.421  1.0727  1.2471 -0.5377
 3753TIP3   OH211264   3.139   5.075   5.143 -0.3704 -0.1936 -0.5038
 3753TIP3    H111265   3.054   5.074   5.188 -0.4216 -0.1729 -0.6007
 3753TIP3    H211266   3.123   5.125   5.063 -0.1004  0.4192 -0.1817
 3754TIP3   OH211267   2.684   4.930   0.932 -0.4328 -0.1142  0.7371
 3754TIP3    H111268   2.764   4.885   0.903 -0.8622 -0.4045 -0.0351
 3754TIP3    H211269   2.648   4.873   1.000  0.1387  0.1392  1.2612
 3755TIP3   OH211270   3.465   2.872   4.421  0.3846 -0.1693 -0.1862
 3755TIP3    H111271   3.485   2.857   4.328  0.7079 -0.0546 -0.1342
 3755TIP3    H211272   3.435   2.786   4.452  1.7143 -0.6003 -0.0283
 3756TIP3   OH211273   2.287   0.810   4.230 -0.1372  0.4438  0.4801
 3756TIP3    H111274   2.231   0.787   4.305 -0.5676 -1.8017 -0.4702
 3756TIP3    H211275   2.225   0.833   4.161 -0.1106 -3.3274 -0.9983
 3757TIP3   OH211276   2.729   1.673   3.800 -0.2060 -0.3301 -0.1253
 3757TIP3    H111277   2.715   1.763   3.831  0.7721 -0.2494  0.1238
 3757TIP3    H211278   2.811   1.646   3.842 -1.1513 -1.8269  0.8573
 3758TIP3   OH211279   5.295   1.973   1.937 -0.2337  0.3392  0.1055
 3758TIP3    H111280   5.305   2.016   1.852 -0.5633  0.7630  0.2777
 3758TIP3    H211281   5.252   2.038   1.992 -2.5896 -0.8530 -0.1857
 3759TIP3   OH211282   2.744   2.410   1.025 -0.2998 -0.8088 -0.4563
 3759TIP3    H111283   2.768   2.491   1.071  0.2693 -0.6761 -0.9762
 3759TIP3    H211284   2.820   2.353   1.037 -0.4827 -1.0713 -0.5429
 3760TIP3   OH211285   1.219   2.378   0.642  0.0495  0.5549 -0.9965
 3760TIP3    H111286   1.266   2.428   0.575  2.0727 -0.4709 -0.4253
 3760TIP3    H211287   1.287   2.327   0.687 -1.7481 -1.8962 -0.8296
 3761TIP3   OH211288   2.614   4.054   1.058  0.1163 -0.2750  0.3645
 3761TIP3    H111289   2.633   4.030   1.149  0.3644 -0.1102  0.3576
 3761TIP3    H211290   2.628   3.974   1.008  1.1749 -0.0622  0.3078
 3762TIP3   OH211291   0.498   3.610   3.742  0.1180  0.2211  0.0194
 3762TIP3    H111292   0.497   3.680   3.676 -0.1299 -0.5368 -0.8047
 3762TIP3    H211293   0.539   3.536   3.697  2.4317  0.4630  1.5654
 3763TIP3   OH211294   0.587   1.363   0.430 -0.0413 -0.0506  0.3408
 3763TIP3    H111295   0.633   1.349   0.513  0.0111 -1.0353  0.1580
 3763TIP3    H211296   0.641   1.317   0.365 -1.6007 -1.8412  0.2205
 3764TIP3   OH211297   5.404   5.191   2.729 -0.2504 -0.1949  0.0537
 3764TIP3    H111298   5.378   5.233   2.647  0.7903 -0.4975 -0.4586
 3764TIP3    H211299   5.479   5.136   2.705  0.9114  0.6961  1.4478
 3765TIP3   OH211300   0.645   3.531   4.616 -0.3218 -0.4008  0.2601
 3765TIP3    H111301   0.658   3.597   4.684 -0.9333  1.0944 -1.0015
 3765TIP3    H211302   0.681   3.571   4.537 -3.0883 -0.3756 -1.1265
 3766TIP3   OH211303   4.845   1.843   1.614  0.2911  0.0301 -0.3367
 3766TIP3    H111304   4.836   1.808   1.703  0.3717  0.7155 -0.0469
 3766TIP3    H211305   4.760   1.829   1.573  0.7201 -1.6902 -0.6800
 3767TIP3   OH211306   5.020   3.990   1.134  0.6022 -0.0908  0.0246
 3767TIP3    H111307   4.991   3.907   1.096  0.3308  0.3732 -0.8187
 3767TIP3    H211308   4.940   4.040   1.148  0.8932  1.3501 -2.6798
 3768TIP3   OH211309   3.561   4.026   2.744 -0.0989  0.0828  0.4022
 3768TIP3    H111310   3.576   3.956   2.807  2.7234  0.2337  0.0332
 3768TIP3    H211311   3.619   4.006   2.670 -0.9855  1.5496 -0.7735
 3769TIP3   OH211312   3.960  -0.022   1.753 -0.5118 -0.0317  0.5813
 3769TIP3    H111313   4.034   0.035   1.772 -0.9460  0.9231 -0.4701
 3769TIP3    H211314   3.923   0.012   1.672 -0.9083 -1.7149  0.0100
 3770TIP3   OH211315   1.798   1.575   4.100 -0.3860 -0.0770 -0.0402
 3770TIP3    H111316   1.707   1.558   4.077 -0.6107  0.1053  0.7143
 3770TIP3    H211317   1.827   1.497   4.147 -0.5974  0.4721  1.0155
 3771TIP3   OH211318   2.377   2.796   0.462  0.5137  0.0405 -0.4642
 3771TIP3    H111319   2.467   2.825   0.469  0.3040  0.3334  1.7862
 3771TIP3    H211320   2.382   2.700   0.464  0.8165 -0.0077 -1.9036
 3772TIP3   OH211321   5.897   4.854   0.490  0.6764  0.3233 -0.2967
 3772TIP3    H111322   5.981   4.808   0.484  0.5425  0.0963 -0.4302
 3772TIP3    H211323   5.858   4.845   0.403  0.0910 -0.3719  0.0296
 3773TIP3   OH211324   3.169   2.342   0.245  0.0517  0.2120  0.3161
 3773TIP3    H111325   3.217   2.405   0.192 -1.0147  2.1074  1.5126
 3773TIP3    H211326   3.078   2.349   0.216  0.1892 -2.4662 -1.0824
 3774TIP3   OH211327   2.283   1.520   0.965 -0.0411  0.1115  0.1578
 3774TIP3    H111328   2.193   1.542   0.989  0.1713  3.5545 -1.6646
 3774TIP3    H211329   2.337   1.561   1.032  0.2301 -0.3997  0.2563
 3775TIP3   OH211330   1.474   1.516   2.566  0.6764 -0.4659 -0.3102
 3775TIP3    H111331   1.439   1.448   2.624 -0.1329 -0.9944 -1.3761
 3775TIP3    H211332   1.533   1.567   2.621  0.1153 -1.0949  0.9085
 3776TIP3   OH211333   4.176   0.132   1.798  0.3697 -0.2356  0.5788
 3776TIP3    H111334   4.234   0.084   1.738 -0.1502  0.7790 -0.7828
 3776TIP3    H211335   4.215   0.118   1.885  0.7770 -2.2756  0.1120
 3777TIP3   OH211336   0.103   1.707   1.854 -0.2816 -0.3390  0.3217
 3777TIP3    H111337   0.087   1.656   1.933  1.4721 -0.9747  0.3270
 3777TIP3    H211338   0.089   1.645   1.782  1.1118 -0.6595  0.2969
 3778TIP3   OH211339   5.110   5.009   1.057  0.2228  0.2693  0.1860
 3778TIP3    H111340   5.175   4.963   1.003  0.2803 -0.3728  0.8004
 3778TIP3    H211341   5.048   5.044   0.994  2.2953  2.7811 -0.6454
 3779TIP3   OH211342   1.997   3.870   2.718 -0.4057 -0.8900 -0.3335
 3779TIP3    H111343   2.044   3.852   2.799 -1.0468 -2.1207 -0.2162
 3779TIP3    H211344   1.919   3.815   2.722 -1.1668  0.0865 -1.1517
 3780TIP3   OH211345   5.884   4.807   3.916 -0.4895  0.2735  0.8247
 3780TIP3    H111346   5.868   4.891   3.959 -2.0006  0.5247 -0.1449
 3780TIP3    H211347   5.804   4.756   3.930  0.5363 -1.1654  1.6911
 3781TIP3   OH211348   6.136   3.487   3.535  0.0409  0.2460 -0.5739
 3781TIP3    H111349   6.084   3.547   3.588  3.0691  1.8992  0.8115
 3781TIP3    H211350   6.128   3.403   3.579  0.1595  0.9430  0.8352
 3782TIP3   OH211351   0.109   5.517   4.795 -0.2389  0.4316 -0.3965
 3782TIP3    H111352   0.124   5.603   4.757 -0.5080 -0.0830 -1.7305
 3782TIP3    H211353   0.014   5.508   4.797 -0.2135 -0.2249 -1.2506
 3783TIP3   OH211354   4.033   3.833   4.703  0.1824  0.2335 -0.7549
 3783TIP3    H111355   4.048   3.757   4.760 -0.3705  1.0225  0.4907
 3783TIP3    H211356   4.099   3.896   4.731 -1.8240  1.6921  1.0220
 3784TIP3   OH211357   4.798   5.635   3.608 -0.0189 -0.2201 -0.0886
 3784TIP3    H111358   4.784   5.666   3.697  0.2482 -0.8185  0.1688
 3784TIP3    H211359   4.887   5.598   3.609  0.0514 -0.0791 -0.6421
 3785TIP3   OH211360   3.927   3.081   1.664  0.0486  0.2102  0.6553
 3785TIP3    H111361   3.898   3.140   1.594  1.6375 -0.6281 -0.8014
 3785TIP3    H211362   4.009   3.119   1.694 -0.6629  0.6045  2.1893
 3786TIP3   OH211363   3.058   2.041   2.364 -0.1351 -0.3277  0.0706
 3786TIP3    H111364   3.103   2.049   2.448  0.1228  0.9886 -0.1800
 3786TIP3    H211365   3.085   1.955   2.331  2.5819  0.5813 -0.2700
 3787TIP3   OH211366   3.927   2.512   4.725 -0.7546 -0.1331 -0.7921
 3787TIP3    H111367   3.849   2.534   4.675 -1.2137 -0.4227 -0.2046
 3787TIP3    H211368   3.912   2.549   4.812 -0.7532 -1.1993 -0.3286
 3788TIP3   OH211369   4.339   3.046   2.504  0.2132  0.3244  0.1032
 3788TIP3    H111370   4.419   3.082   2.543 -0.0861  1.4284 -0.2505
 3788TIP3    H211371   4.280   3.036   2.579  0.0371  1.3498  0.1269
 3789TIP3   OH211372   3.664   0.542   4.250  0.2494 -0.0446 -0.3300
 3789TIP3    H111373   3.591   0.587   4.207  0.5891  1.0530  0.1931
 3789TIP3    H211374   3.665   0.577   4.339  1.8527  0.5420 -0.5363
 3790TIP3   OH211375   4.156   1.450   0.342  0.0597 -0.0921 -0.0284
 3790TIP3    H111376   4.232   1.396   0.321  0.1593 -1.4125  3.1267
 3790TIP3    H211377   4.093   1.433   0.272  1.2497 -1.9332 -0.7088
 3791TIP3   OH211378   1.827   4.659   4.947 -0.2317 -0.8960  0.1705
 3791TIP3    H111379   1.771   4.584   4.927 -1.9258 -0.1484  1.8257
 3791TIP3    H211380   1.767   4.727   4.976  1.4032  0.6047  0.2041
 3792TIP3   OH211381   5.049   4.268   2.230 -0.6380 -0.2020  0.3831
 3792TIP3    H111382   5.019   4.347   2.275  1.2879  1.1161 -0.5288
 3792TIP3    H211383   5.052   4.293   2.138  1.6038 -0.7370  0.2532
 3793TIP3   OH211384   6.207   2.646   4.054  0.4050 -0.1244  0.0171
 3793TIP3    H111385   6.153   2.568   4.061 -1.5806  1.2803  1.8021
 3793TIP3    H211386   6.211   2.681   4.143 -1.4556  3.4096 -1.0736
 3794TIP3   OH211387   3.582   5.814   1.687  0.4665  0.1460  0.2077
 3794TIP3    H111388   3.493   5.782   1.705  0.8350 -0.4026  1.0736
 3794TIP3    H211389   3.638   5.764   1.745  1.5673 -0.7515 -1.5304
 3795TIP3   OH211390   0.389   4.300   1.115 -0.6863  0.4256 -0.0917
 3795TIP3    H111391   0.467   4.342   1.151 -0.2236  0.1158 -0.6953
 3795TIP3    H211392   0.411   4.207   1.112 -0.8588  0.3988 -0.7899
 3796TIP3   OH211393   4.425   0.628   3.749  0.1107 -0.2574 -0.1819
 3796TIP3    H111394   4.373   0.694   3.795  1.4664  0.7071  0.0498
 3796TIP3    H211395   4.399   0.636   3.657  0.3252  0.6773 -0.1711
 3797TIP3   OH211396   0.925   4.735   2.843 -0.8425 -0.5089  0.1672
 3797TIP3    H111397   0.901   4.730   2.750  0.0537 -0.4137 -0.0748
 3797TIP3    H211398   0.999   4.675   2.852 -2.2999 -2.2585  1.3002
 3798TIP3   OH211399   5.913   2.616   2.985 -0.1769  0.8037 -0.0373
 3798TIP3    H111400   5.900   2.688   2.923 -1.3981  0.0448 -0.6998
 3798TIP3    H211401   6.005   2.621   3.009  0.1093  1.6532 -1.2452
 3799TIP3   OH211402   1.253   5.865   1.520  0.3395 -0.5969  0.5627
 3799TIP3    H111403   1.324   5.876   1.457  0.3917 -0.5499  0.6288
 3799TIP3    H211404   1.283   5.911   1.599  0.1493 -0.4054  0.5248
 3800TIP3   OH211405   4.523   3.212   3.878  0.3554  0.0633  0.1216
 3800TIP3    H111406   4.528   3.269   3.802  0.4243  1.4629  1.1312
 3800TIP3    H211407   4.532   3.123   3.843 -2.1560  0.4559 -1.7998
 3801TIP3   OH211408   4.762   0.457   2.662  0.1126 -0.6538 -0.4720
 3801TIP3    H111409   4.817   0.441   2.739 -0.9423 -1.0558  0.2189
 3801TIP3    H211410   4.815   0.426   2.588  1.9638  1.5069 -0.1888
 3802TIP3   OH211411   2.202   1.662   0.559  0.2069 -0.3434  0.0467
 3802TIP3    H111412   2.253   1.742   0.547 -0.7276  0.3303  0.4561
 3802TIP3    H211413   2.267   1.593   0.565  0.9874  0.2125 -1.5237
 3803TIP3   OH211414   0.545   2.626   1.223 -0.3448  0.1100  0.0766
 3803TIP3    H111415   0.596   2.629   1.142 -0.1993 -1.8947  0.0606
 3803TIP3    H211416   0.454   2.626   1.194 -0.4220  2.7793  0.0782
 3804TIP3   OH211417   2.752   1.959   1.529  0.2081 -0.3274  0.5221
 3804TIP3    H111418   2.740   1.897   1.601  0.1954 -1.2146 -0.2232
 3804TIP3    H211419   2.675   1.948   1.474  0.3947  0.0696  0.1731
 3805TIP3   OH211420   3.535   3.249   1.676 -0.1007  0.1119 -0.7284
 3805TIP3    H111421   3.523   3.343   1.687 -1.1798 -0.1230  0.1730
 3805TIP3    H211422   3.551   3.216   1.764 -2.2864 -0.8870 -0.6476
 3806TIP3   OH211423   2.874   4.177   0.174 -0.1406 -0.4555 -0.7174
 3806TIP3    H111424   2.957   4.138   0.202 -0.4058 -0.8556 -0.4709
 3806TIP3    H211425   2.834   4.110   0.119  0.5252  0.4555 -2.3712
 3807TIP3   OH211426   1.678   1.090   2.346 -0.0316  0.3476 -0.1265
 3807TIP3    H111427   1.756   1.115   2.296  0.4476 -1.3536 -0.2945
 3807TIP3    H211428   1.688   1.134   2.430  2.0535 -1.1986  0.5241
 3808TIP3   OH211429   3.386   4.175   0.605 -0.3988  0.2073 -0.6025
 3808TIP3    H111430   3.417   4.226   0.680 -0.3317 -1.2577  0.4254
 3808TIP3    H211431   3.455   4.185   0.539 -1.2293  2.8583 -1.1625
 3809TIP3   OH211432   5.486   1.383   1.770  0.4992 -0.2192  0.2278
 3809TIP3    H111433   5.487   1.423   1.857 -0.8713 -1.8350  1.0376
 3809TIP3    H211434   5.404   1.335   1.767  1.9808 -2.8503 -0.7099
 3810TIP3   OH211435   2.950   3.018   4.046  0.5190 -0.1107  0.1600
 3810TIP3    H111436   2.904   3.056   4.121 -1.0343 -0.6862 -0.4492
 3810TIP3    H211437   2.934   2.923   4.055 -0.1350 -0.1512 -1.1404
 3811TIP3   OH211438   2.574   5.470   3.007  0.4886 -0.5673 -0.3168
 3811TIP3    H111439   2.650   5.527   2.998 -0.5889  1.3480  1.7192
 3811TIP3    H211440   2.593   5.415   3.084  0.2495 -0.8083 -0.4266
 3812TIP3   OH211441   2.726   2.513   0.247  0.0199 -0.8200 -0.1504
 3812TIP3    H111442   2.667   2.453   0.201  0.1348 -1.4107  0.4507
 3812TIP3    H211443   2.811   2.501   0.204 -0.0649 -0.7441 -0.3368
 3813TIP3   OH211444   2.585   2.757   1.372  0.0642  0.1260  0.3247
 3813TIP3    H111445   2.595   2.808   1.292 -0.8064 -0.6192 -0.2814
 3813TIP3    H211446   2.514   2.801   1.419 -0.7219 -0.5332 -0.2223
 3814TIP3   OH211447   3.684   4.394   4.863 -0.0520  0.9680 -0.3361
 3814TIP3    H111448   3.742   4.469   4.853  0.3651  0.5987 -0.7297
 3814TIP3    H211449   3.742   4.319   4.877 -0.5018  0.8659  1.0938
 3815TIP3   OH211450   2.810   3.708   2.468 -0.1624  0.0809  0.0769
 3815TIP3    H111451   2.867   3.653   2.523  1.0692  1.8367  0.6373
 3815TIP3    H211452   2.856   3.715   2.385 -0.4272  0.0844 -0.0710
 3816TIP3   OH211453   0.559   2.302   3.675 -0.3353 -0.0691  0.1583
 3816TIP3    H111454   0.641   2.315   3.626  0.2379  1.1370  1.3784
 3816TIP3    H211455   0.549   2.382   3.726 -1.3234 -0.9635  1.4159
 3817TIP3   OH211456   4.769   4.302   5.019  0.0054  0.4472  0.0808
 3817TIP3    H111457   4.861   4.288   4.997  0.4896  2.6989  0.4590
 3817TIP3    H211458   4.724   4.295   4.934  0.2329 -2.1382  0.0778
 3818TIP3   OH211459   5.896   5.059   5.019 -0.4311  0.4039 -0.5542
 3818TIP3    H111460   5.869   5.070   4.927  1.3690  0.5029 -1.1172
 3818TIP3    H211461   5.929   4.969   5.022  0.5343  0.7564 -0.3035
 3819TIP3   OH211462   0.563   4.370   1.299  0.2131  0.2261 -0.3005
 3819TIP3    H111463   0.578   4.462   1.320  2.2170 -0.1988  0.2591
 3819TIP3    H211464   0.508   4.338   1.370 -2.6124  1.5129 -1.7362
 3820TIP3   OH211465   5.039   0.640   1.265 -0.1145 -0.1656 -0.2868
 3820TIP3    H111466   5.042   0.683   1.351 -0.3274 -0.8103  0.0447
 3820TIP3    H211467   4.947   0.649   1.237  0.2246  1.2542 -1.0842
 3821TIP3   OH211468   2.735   4.555   5.103 -0.1269  0.2172 -0.2528
 3821TIP3    H111469   2.820   4.533   5.141 -1.0533 -1.5859  0.8770
 3821TIP3    H211470   2.677   4.567   5.178 -1.2257 -0.0866 -1.0215
 3822TIP3   OH211471   3.585   1.507   0.165  0.5420 -0.4828 -0.4718
 3822TIP3    H111472   3.517   1.559   0.122 -2.2117 -4.3424 -1.3104
 3822TIP3    H211473   3.562   1.509   0.258 -0.9087 -1.8129 -0.7563
 3823TIP3   OH211474   2.145   4.295   2.575  0.2809 -0.0992 -0.3184
 3823TIP3    H111475   2.145   4.298   2.671 -1.5479 -1.2819 -0.2379
 3823TIP3    H211476   2.138   4.386   2.548  1.3325  0.2913  0.6461
 3824TIP3   OH211477   3.113   2.398   2.454  0.8977  0.0550  0.2015
 3824TIP3    H111478   3.205   2.395   2.426  0.4795  0.8518 -1.3608
 3824TIP3    H211479   3.118   2.406   2.550  2.4781  0.6358  0.1123
 3825TIP3   OH211480   2.029   3.156   4.546  0.1561  0.3691 -0.0725
 3825TIP3    H111481   2.048   3.246   4.569 -1.3531  0.5196  0.7298
 3825TIP3    H211482   2.080   3.140   4.467  1.0566  1.6570  0.2124
 3826TIP3   OH211483   4.772   0.471   4.833 -0.2054 -0.4230 -0.0187
 3826TIP3    H111484   4.842   0.425   4.788  0.4252 -0.3563  0.8524
 3826TIP3    H211485   4.789   0.564   4.815  1.1939 -0.2453  1.8447
 3827TIP3   OH211486   3.950   0.358   4.749 -0.4019  0.0696 -0.2462
 3827TIP3    H111487   3.928   0.432   4.806  1.2125  0.1737  0.2906
 3827TIP3    H211488   3.988   0.398   4.671 -2.3312 -0.0897 -1.3364
 3828TIP3   OH211489   0.367   5.718   4.995 -0.2668 -0.2274  0.0717
 3828TIP3    H111490   0.364   5.749   5.085  1.2114 -0.2058  0.1304
 3828TIP3    H211491   0.408   5.632   5.000  3.3025  1.2325 -0.8797
 3829TIP3   OH211492   4.150   1.993   3.611  0.0091  0.6017 -0.0675
 3829TIP3    H111493   4.198   1.911   3.626 -3.5332 -1.4144  1.2614
 3829TIP3    H211494   4.178   2.051   3.681 -0.0610 -0.8087  1.1631
 3830TIP3   OH211495   5.084   4.669   0.809  0.0924  0.1577 -0.4999
 3830TIP3    H111496   5.011   4.626   0.765  0.1399 -1.0389  0.5494
 3830TIP3    H211497   5.151   4.601   0.819  0.3328  0.5487  0.8161
 3831TIP3   OH211498   6.161   1.086   0.662  0.1387  0.5539  0.0737
 3831TIP3    H111499   6.075   1.050   0.685  0.7760 -0.7157  0.5375
 3831TIP3    H211500   6.201   1.108   0.747  0.6137  0.3200 -0.0880
 3832TIP3   OH211501   5.725   2.448   3.125 -0.1560  0.1939 -0.5601
 3832TIP3    H111502   5.787   2.500   3.075  0.1957  1.2450  0.8991
 3832TIP3    H211503   5.780   2.386   3.173 -0.4228 -0.2970 -0.8848
 3833TIP3   OH211504   2.916   4.065   0.915  0.1225  0.1438 -0.0802
 3833TIP3    H111505   2.851   3.996   0.915  0.2861 -0.0428  1.4175
 3833TIP3    H211506   3.000   4.020   0.911  0.1957  0.3463 -1.0603
 3834TIP3   OH211507   3.854   3.699   1.078 -0.0952 -0.5843  0.4181
 3834TIP3    H111508   3.799   3.669   1.005 -0.0916 -0.0034  0.1679
 3834TIP3    H211509   3.793   3.718   1.148 -0.3010  0.7449 -0.0959
 3835TIP3   OH211510   3.006   1.428   3.424  0.1222  0.0405  0.3499
 3835TIP3    H111511   3.019   1.414   3.330  0.7582 -0.7319  0.5371
 3835TIP3    H211512   3.052   1.510   3.442  0.2343  0.0497  0.0376
 3836TIP3   OH211513   5.887   0.593   3.262 -0.0091  0.2154 -0.3996
 3836TIP3    H111514   5.916   0.617   3.350  0.4541  1.6249 -0.9031
 3836TIP3    H211515   5.826   0.663   3.237 -1.1833 -0.8772 -0.6950
 3837TIP3   OH211516   2.270   3.937   4.879 -0.0678  0.0015  0.0271
 3837TIP3    H111517   2.255   4.032   4.881 -1.1366 -0.1567  0.3284
 3837TIP3    H211518   2.276   3.915   4.786  0.4593  0.4034 -0.0362
 3838TIP3   OH211519   5.874   1.851   1.653  0.5902 -0.3400  0.1055
 3838TIP3    H111520   5.926   1.930   1.667 -0.4218  0.1317  1.3488
 3838TIP3    H211521   5.885   1.800   1.732 -0.7543 -0.2642  0.3625
 3839TIP3   OH211522   2.396   4.214   0.972 -0.4570  0.1386 -0.4703
 3839TIP3    H111523   2.459   4.146   0.993 -0.6148  0.0821 -0.1806
 3839TIP3    H211524   2.408   4.281   1.039 -0.8768  0.0133 -0.2676
 3840TIP3   OH211525   1.985   1.159   1.535  0.4452 -0.3529  0.7818
 3840TIP3    H111526   1.996   1.253   1.524  3.1051 -0.7082 -0.1897
 3840TIP3    H211527   2.002   1.122   1.449 -2.0378 -1.7070  0.7630
 3841TIP3   OH211528   1.093   4.862   1.141 -0.1436  0.1936 -0.2670
 3841TIP3    H111529   1.018   4.820   1.183 -0.1811  1.9117  1.5506
 3841TIP3    H211530   1.162   4.795   1.145 -0.7679 -0.4273  0.6939
 3842TIP3   OH211531   0.336   3.403   2.943  0.1992 -0.0737  0.3448
 3842TIP3    H111532   0.327   3.379   3.035 -0.5312  0.5458  0.4487
 3842TIP3    H211533   0.424   3.439   2.936  0.0530  0.4267  0.9420
 3843TIP3   OH211534   2.772   3.680   1.407 -0.3456 -0.2025  0.1639
 3843TIP3    H111535   2.734   3.599   1.375  0.1929 -0.6155  0.5558
 3843TIP3    H211536   2.771   3.672   1.502 -0.2333  0.2256  0.2070
 3844TIP3   OH211537   3.664   5.680   0.939 -0.5390 -0.6828 -0.1448
 3844TIP3    H111538   3.667   5.699   0.845 -0.9251 -2.6955 -0.6025
 3844TIP3    H211539   3.748   5.640   0.958 -0.1448  0.4461  0.5666
 3845TIP3   OH211540   0.354   4.796   3.048 -0.0785 -0.1453 -0.3494
 3845TIP3    H111541   0.296   4.825   2.978 -1.0024 -0.7864  0.1285
 3845TIP3    H211542   0.421   4.864   3.054 -1.1555  0.9545 -0.4741
 3846TIP3   OH211543   0.529   1.685   3.097  0.0771  0.1487  0.1563
 3846TIP3    H111544   0.447   1.653   3.136 -0.2599  0.9178  0.0997
 3846TIP3    H211545   0.582   1.711   3.172  0.0064  0.2660  0.1662
 3847TIP3   OH211546   4.334   2.945   0.794  0.3186 -0.1614  0.2848
 3847TIP3    H111547   4.307   2.867   0.746  1.3036  0.9233 -2.1528
 3847TIP3    H211548   4.389   2.911   0.865  0.8532 -1.6824 -0.8152
 3848TIP3   OH211549   6.075   1.511   3.045 -0.0595 -0.2152  0.9860
 3848TIP3    H111550   6.009   1.560   2.996 -0.0102 -0.1949  0.9396
 3848TIP3    H211551   6.153   1.516   2.990 -0.6017 -2.0845 -0.0519
 3849TIP3   OH211552   4.796   5.778   4.702  0.1816  0.4227 -0.3550
 3849TIP3    H111553   4.797   5.684   4.720 -1.6396  0.4385  0.0902
 3849TIP3    H211554   4.872   5.812   4.748  0.5485 -0.7579 -0.0457
 3850TIP3   OH211555   4.232   5.787   3.043 -0.2389  0.5576 -0.1033
 3850TIP3    H111556   4.170   5.721   3.073  0.4926  0.5289  1.5061
 3850TIP3    H211557   4.295   5.794   3.115 -0.7000  3.5515  0.1202
 3851TIP3   OH211558   1.608   0.098   0.404 -0.9217  0.6426  0.0062
 3851TIP3    H111559   1.595   0.078   0.312  1.5402  2.6165 -0.9003
 3851TIP3    H211560   1.574   0.187   0.414  3.1025  2.4776 -0.3996
 3852TIP3   OH211561   2.690   2.499   1.378  0.4764  0.1957 -0.4305
 3852TIP3    H111562   2.778   2.533   1.395  0.6730 -0.0054 -1.0345
 3852TIP3    H211563   2.638   2.576   1.356  0.6336  0.2512 -0.6096
 3853TIP3   OH211564   0.077   3.958   0.192 -0.0280 -0.2839 -0.1384
 3853TIP3    H111565   0.012   3.967   0.261  2.3713  0.2337  2.2245
 3853TIP3    H211566   0.102   4.048   0.170  0.5400 -0.4831 -0.3288
 3854TIP3   OH211567   1.139   3.627   0.424 -0.1923 -0.7895 -0.8763
 3854TIP3    H111568   1.228   3.661   0.436 -0.5488 -0.4479  1.4134
 3854TIP3    H211569   1.121   3.580   0.506 -2.0662 -0.9717 -1.3482
 3855TIP3   OH211570   5.789   0.331   1.012  0.2228 -0.0329  0.3228
 3855TIP3    H111571   5.697   0.303   1.011  0.5136 -1.2062 -2.3850
 3855TIP3    H211572   5.789   0.412   0.961  0.7257 -0.1619  0.1203
 3856TIP3   OH211573   5.476   4.724   2.766 -0.3593  0.1927 -0.4454
 3856TIP3    H111574   5.467   4.698   2.675 -1.3705 -0.0319 -0.2884
 3856TIP3    H211575   5.527   4.654   2.806 -2.0214 -0.9965 -0.2993
 3857TIP3   OH211576   0.173   0.010   4.701  0.1352  0.8844 -0.1632
 3857TIP3    H111577   0.255   0.000   4.749 -0.3373 -2.6104  0.1938
 3857TIP3    H211578   0.189   0.082   4.640  2.9950  1.1560  0.7684
 3858TIP3   OH211579   1.107   4.842   2.092 -0.3280  0.4550 -0.2817
 3858TIP3    H111580   1.098   4.937   2.082 -0.3330  0.4486 -0.3421
 3858TIP3    H211581   1.201   4.826   2.081 -0.5634  0.2261 -2.2805
 3859TIP3   OH211582   0.876   3.475   2.669  0.9260  0.1875 -0.1363
 3859TIP3    H111583   0.921   3.412   2.614  1.1414 -0.1718  0.4408
 3859TIP3    H211584   0.900   3.450   2.759  0.4901  0.6859  0.1244
 3860TIP3   OH211585   3.873   4.689   2.430 -0.5516  0.4630  0.3040
 3860TIP3    H111586   3.957   4.704   2.387 -0.6466 -0.4045 -0.2171
 3860TIP3    H211587   3.809   4.691   2.359 -0.8453  0.1147  0.5557
 3861TIP3   OH211588   2.905   5.647   5.167 -0.2550 -0.2605  0.6819
 3861TIP3    H111589   2.950   5.565   5.151  2.5709  1.2679  0.1615
 3861TIP3    H211590   2.830   5.646   5.106  0.6508 -1.7601 -0.4588
 3862TIP3   OH211591   6.068   0.180   2.450  0.1935 -0.0432  0.0045
 3862TIP3    H111592   6.146   0.230   2.426 -0.2971 -0.1805 -2.1209
 3862TIP3    H211593   6.016   0.240   2.502 -0.2161  1.6286 -2.1932
 3863TIP3   OH211594   5.338   3.334   4.554 -0.1303 -0.4561 -0.0625
 3863TIP3    H111595   5.271   3.388   4.512  0.4878 -0.1314 -0.6530
 3863TIP3    H211596   5.290   3.259   4.589 -1.4449  1.5680  2.9547
 3864TIP3   OH211597   4.175   1.205   0.585  0.2713  0.0984 -0.0785
 3864TIP3    H111598   4.206   1.131   0.638 -0.0789  1.7508  2.6667
 3864TIP3    H211599   4.084   1.183   0.565 -0.0597  0.0573  1.3444
 3865TIP3   OH211600   0.753   3.116   1.454 -0.1288 -0.0835 -0.3123
 3865TIP3    H111601   0.690   3.181   1.485 -0.0654 -0.6724  1.1248
 3865TIP3    H211602   0.838   3.157   1.467 -0.0831 -0.4847  0.7076
 3866TIP3   OH211603   1.281   5.404   5.013  0.6522  0.4736 -0.3674
 3866TIP3    H111604   1.319   5.352   5.084 -2.6790  1.2994  2.2732
 3866TIP3    H211605   1.249   5.339   4.950 -1.2359 -0.6744  1.6645
 3867TIP3   OH211606   4.572   5.304   4.836  0.1051  0.2198  0.2706
 3867TIP3    H111607   4.592   5.294   4.743 -0.3603  0.9283  0.0849
 3867TIP3    H211608   4.489   5.352   4.838  0.1742  0.3298  1.0524
 3868TIP3   OH211609   4.108   4.879   4.261 -0.4757  0.2487  0.1064
 3868TIP3    H111610   4.122   4.823   4.185 -0.3960  1.3334 -0.7059
 3868TIP3    H211611   4.114   4.968   4.226 -0.9011  0.7648  1.3034
 3869TIP3   OH211612   2.904   1.212   0.359  0.0436 -1.0009 -1.0775
 3869TIP3    H111613   2.863   1.275   0.419  0.8443 -1.3415 -0.1401
 3869TIP3    H211614   2.853   1.219   0.278 -0.8478 -0.2720 -0.4764
 3870TIP3   OH211615   1.971   4.018   3.141 -0.1575 -0.0475  0.1390
 3870TIP3    H111616   1.896   4.020   3.200  0.5840 -1.5899  1.1731
 3870TIP3    H211617   2.045   4.043   3.196  0.3243  0.0394 -0.5363
 3871TIP3   OH211618   0.295   2.322   3.469 -0.6190 -0.3419  0.4587
 3871TIP3    H111619   0.320   2.292   3.381  0.6630 -1.1609  1.0857
 3871TIP3    H211620   0.319   2.415   3.470 -0.6920 -0.3124 -0.0627
 3872TIP3   OH211621   4.978   5.148   4.749 -0.0827  0.6493  0.0881
 3872TIP3    H111622   4.989   5.072   4.692  0.0227  0.7103  0.0272
 3872TIP3    H211623   4.886   5.144   4.776 -0.0734  0.4895  0.1002
 3873TIP3   OH211624   5.448   1.817   4.371  0.1584 -0.5123 -0.0183
 3873TIP3    H111625   5.456   1.912   4.363  2.3336 -0.5572  0.9836
 3873TIP3    H211626   5.356   1.803   4.394  0.0584  1.4562  1.0312
 3874TIP3   OH211627   0.478   1.958   4.795 -0.2024  0.2912  0.1082
 3874TIP3    H111628   0.418   1.956   4.869  1.3255 -1.9001  1.4087
 3874TIP3    H211629   0.500   2.051   4.784  0.5226  0.6027  3.3267
 3875TIP3   OH211630   5.707   1.511   2.323  0.5978  0.6945  0.4879
 3875TIP3    H111631   5.774   1.463   2.274  0.7763 -0.0978  1.4759
 3875TIP3    H211632   5.680   1.450   2.392  0.8367  2.0237  1.7847
 3876TIP3   OH211633   0.181   1.067   1.071 -0.3452 -1.0359  0.4210
 3876TIP3    H111634   0.195   1.055   0.977 -0.0659 -0.1535  0.3367
 3876TIP3    H211635   0.248   1.131   1.097 -0.7708 -0.8583  1.1068
 3877TIP3   OH211636   5.927   2.833   4.836  0.2110  0.1749 -0.1780
 3877TIP3    H111637   5.909   2.860   4.746 -0.3948  2.8704  0.6472
 3877TIP3    H211638   5.851   2.863   4.886 -1.5140 -4.8363  0.8063
 3878TIP3   OH211639   0.453   2.186   1.381  0.2898  0.3959 -0.1302
 3878TIP3    H111640   0.481   2.276   1.398  0.2902  0.4685 -0.5106
 3878TIP3    H211641   0.501   2.134   1.446  0.5758  0.6287 -0.1525
 3879TIP3   OH211642   2.492   3.806   2.273 -0.0458  0.1007 -0.2030
 3879TIP3    H111643   2.503   3.890   2.317 -0.4582 -0.6296  1.3366
 3879TIP3    H211644   2.405   3.776   2.299  1.2417 -2.2181  1.8011
 3880TIP3   OH211645   4.937   4.148   0.845  0.6691  0.2283  0.0013
 3880TIP3    H111646   4.864   4.111   0.894  0.7094 -1.0635 -0.8587
 3880TIP3    H211647   4.901   4.168   0.759  1.3315 -0.5117 -0.4602
 3881TIP3   OH211648   0.193   3.146   0.102  0.2925  0.0683 -0.1066
 3881TIP3    H111649   0.271   3.092   0.102  2.1962  2.5340  1.9862
 3881TIP3    H211650   0.219   3.226   0.056 -1.1241  0.7585  0.2196
 3882TIP3   OH211651   1.925   4.884   1.791  0.1707  0.5621 -0.1000
 3882TIP3    H111652   1.939   4.931   1.709 -1.3633  1.7765  0.2823
 3882TIP3    H211653   1.872   4.944   1.844  1.1222 -0.1924  1.7845
 3883TIP3   OH211654   3.482   4.829   3.420  0.0287  0.0571  0.2403
 3883TIP3    H111655   3.549   4.867   3.363 -1.2632  0.2119 -1.2609
 3883TIP3    H211656   3.529   4.805   3.500  1.5200  1.7365 -0.0711
 3884TIP3   OH211657   2.161   1.495   0.344 -0.4798  0.0557 -0.2366
 3884TIP3    H111658   2.149   1.542   0.426  1.4168 -0.4182  0.3838
 3884TIP3    H211659   2.097   1.533   0.284 -0.0914  2.2953  0.6751
 3885TIP3   OH211660   6.284   1.946   3.847 -0.0646 -0.0900 -0.1452
 3885TIP3    H111661   6.256   1.964   3.758 -0.0071 -1.1504 -0.3899
 3885TIP3    H211662   6.203   1.926   3.894  0.1217 -2.5567 -0.7112
 3886TIP3   OH211663   5.202   4.776   2.898  0.0428 -0.1935  0.1174
 3886TIP3    H111664   5.191   4.867   2.870 -0.4892  0.1146  1.2791
 3886TIP3    H211665   5.297   4.764   2.901  0.1969 -0.6421 -2.9507
 3887TIP3   OH211666   3.242   5.379   4.059  0.4057  0.7094  0.3520
 3887TIP3    H111667   3.217   5.405   3.971  1.7268  2.0790  0.3434
 3887TIP3    H211668   3.188   5.302   4.078 -0.4523  0.8616 -1.3361
 3888TIP3   OH211669   5.477   2.300   3.177  0.4465  0.0665  0.1288
 3888TIP3    H111670   5.434   2.386   3.183  0.4287  0.2017 -1.5433
 3888TIP3    H211671   5.560   2.317   3.134  0.2829 -0.7951 -0.5618
 3889TIP3   OH211672   5.287   1.403   3.974 -0.0234  0.0819  0.2699
 3889TIP3    H111673   5.297   1.314   3.939  2.1068 -0.4339  1.9839
 3889TIP3    H211674   5.367   1.448   3.947 -1.0054  1.4630 -0.4345
 3890TIP3   OH211675   1.067   4.149   3.273 -0.1325 -0.2348  0.4440
 3890TIP3    H111676   1.146   4.191   3.307 -0.5896  1.0743 -0.0679
 3890TIP3    H211677   1.091   4.121   3.185 -0.2677  0.2661  0.2456
 3891TIP3   OH211678   3.062   4.665   2.773  0.0315  0.2268 -0.0987
 3891TIP3    H111679   3.040   4.684   2.682  1.0744 -0.9080 -0.6219
 3891TIP3    H211680   3.158   4.666   2.775  0.0216  0.1516  0.9707
 3892TIP3   OH211681   1.154   1.508   2.110 -0.5676 -0.7832  0.3977
 3892TIP3    H111682   1.172   1.441   2.044  1.2952  0.4644 -0.4451
 3892TIP3    H211683   1.085   1.470   2.164 -1.9409 -2.0052 -2.0450
 3893TIP3   OH211684   0.199   5.019   3.514  0.0972 -0.4652  0.5451
 3893TIP3    H111685   0.125   5.010   3.575 -0.6517  1.8248  0.0684
 3893TIP3    H211686   0.158   5.040   3.430  1.2037 -1.9385 -0.4131
 3894TIP3   OH211687   5.271   1.163   3.440  0.0212 -0.5213  0.0845
 3894TIP3    H111688   5.188   1.190   3.400  0.6379 -0.3451 -1.1144
 3894TIP3    H211689   5.254   1.075   3.473 -0.3073 -0.9737 -1.2320
 3895TIP3   OH211690   0.779   0.921   2.833 -0.5036 -0.4216  0.7551
 3895TIP3    H111691   0.859   0.889   2.876  0.4553 -0.8322 -1.2156
 3895TIP3    H211692   0.811   0.975   2.760 -2.0669  0.7573  0.8986
 3896TIP3   OH211693   3.831   0.234   2.068 -0.0129 -0.4293  0.5669
 3896TIP3    H111694   3.751   0.227   2.016  0.1532 -2.0608  0.4757
 3896TIP3    H211695   3.885   0.297   2.020 -0.0010 -1.6444 -1.0991
 3897TIP3   OH211696   0.935   4.866   0.601  0.0821  0.5227  0.3485
 3897TIP3    H111697   0.897   4.778   0.603  3.0477 -0.9066  0.2502
 3897TIP3    H211698   0.925   4.899   0.690 -1.9984  0.5751  0.1344
 3898TIP3   OH211699   1.295   3.122   2.493 -0.0860 -0.3607 -0.1882
 3898TIP3    H111700   1.278   3.037   2.453 -0.8544  0.5857 -1.9660
 3898TIP3    H211701   1.377   3.109   2.542 -1.3071 -2.6837  1.4485
 3899TIP3   OH211702   1.185   1.238   1.589  0.0462 -0.1394  0.4878
 3899TIP3    H111703   1.195   1.179   1.664 -0.5871 -1.3950 -0.3808
 3899TIP3    H211704   1.247   1.309   1.606  0.6750 -0.9404  1.6806
 3900TIP3   OH211705   4.364   0.705   3.451  0.3886 -0.2924 -0.5104
 3900TIP3    H111706   4.313   0.678   3.374 -0.2762  0.2115 -0.2538
 3900TIP3    H211707   4.339   0.796   3.465  0.6680 -0.3178  0.1788
 3901TIP3   OH211708   1.127   0.287   3.449  0.0293 -0.4955  0.0619
 3901TIP3    H111709   1.082   0.220   3.398 -0.3213  0.7412 -1.3026
 3901TIP3    H211710   1.192   0.324   3.390  0.7466 -0.1438  1.0401
 3902TIP3   OH211711   5.875   1.702   2.224 -0.4408  0.2514  0.3757
 3902TIP3    H111712   5.837   1.614   2.223 -0.8088  0.4171 -0.0765
 3902TIP3    H211713   5.820   1.751   2.285 -0.2696  0.1870  0.5844
 3903TIP3   OH211714   3.384   2.952   3.643 -0.2304 -0.2007 -0.5234
 3903TIP3    H111715   3.372   2.874   3.589  0.5119 -1.0924  0.5331
 3903TIP3    H211716   3.371   2.921   3.733 -2.6768  1.4904 -0.1909
 3904TIP3   OH211717   6.065   2.393   0.946 -0.0034  0.4142  0.3067
 3904TIP3    H111718   6.149   2.387   0.900 -0.3505  1.2571 -0.4780
 3904TIP3    H211719   6.009   2.331   0.899  0.0069  0.2921  0.4536
 3905TIP3   OH211720   2.647   3.239   4.043 -0.0712  0.5908  0.1581
 3905TIP3    H111721   2.565   3.281   4.069 -0.5569 -0.9300  1.2758
 3905TIP3    H211722   2.690   3.302   3.986 -1.0628  2.2917  1.1970
 3906TIP3   OH211723   5.488   0.945   4.654 -0.4258 -0.3285  0.1500
 3906TIP3    H111724   5.497   0.893   4.573  0.9792 -0.0248  0.0867
 3906TIP3    H211725   5.498   0.881   4.724  1.4750 -0.1965  0.0734
 3907TIP3   OH211726   3.984   2.216   5.135 -0.0848  0.4547  0.4318
 3907TIP3    H111727   3.895   2.247   5.149 -0.3420  0.1984 -0.6028
 3907TIP3    H211728   4.007   2.246   5.047  1.2869  1.5319  1.0941
 3908TIP3   OH211729   5.020   0.802   1.982  0.2852 -0.3581 -0.0268
 3908TIP3    H111730   5.092   0.860   2.005  0.7889 -0.9170 -0.1687
 3908TIP3    H211731   4.952   0.860   1.949  0.6627  0.1775  0.1268
 3909TIP3   OH211732   4.815   0.093   3.579 -0.6491  0.2832  0.1394
 3909TIP3    H111733   4.893   0.147   3.591  0.3392 -1.1685  0.5723
 3909TIP3    H211734   4.821   0.027   3.648 -0.0708 -2.3022 -2.2119
 3910TIP3   OH211735   5.300   2.570   4.642  0.2287  1.0139 -0.2821
 3910TIP3    H111736   5.288   2.501   4.577 -0.1095  0.5318  0.2921
 3910TIP3    H211737   5.227   2.630   4.627  0.6060  1.3330 -0.8792
 3911TIP3   OH211738   5.633   4.963   0.673 -0.1541  0.6386  0.1373
 3911TIP3    H111739   5.565   5.028   0.692 -0.8647 -0.1634  0.3602
 3911TIP3    H211740   5.711   5.016   0.655 -1.0632  1.6194 -1.1679
 3912TIP3   OH211741   5.562   0.804   3.823 -0.3091 -0.3178  0.1019
 3912TIP3    H111742   5.586   0.817   3.915 -3.6679  0.0314  1.0451
 3912TIP3    H211743   5.635   0.843   3.774  1.4112 -0.1879  2.5832
 3913TIP3   OH211744   5.927   1.297   0.391 -0.0920  0.2396  0.0332
 3913TIP3    H111745   5.888   1.291   0.304 -0.4787  0.4259  0.1930
 3913TIP3    H211746   6.010   1.343   0.377 -0.0094 -0.0011 -0.2793
 3914TIP3   OH211747   4.276   5.393   1.867 -0.0434 -0.4532  0.2781
 3914TIP3    H111748   4.336   5.328   1.831 -1.7837 -0.7934 -2.3235
 3914TIP3    H211749   4.227   5.425   1.791 -1.0765  1.9898  1.8443
 3915TIP3   OH211750   2.601   2.948   0.682  0.3663 -0.2657  0.7504
 3915TIP3    H111751   2.631   2.858   0.697  1.0384 -0.4011 -1.1127
 3915TIP3    H211752   2.626   2.967   0.591 -2.0436  0.9169  0.2434
 3916TIP3   OH211753   4.402   4.832   4.995  0.1371 -0.4123 -0.2712
 3916TIP3    H111754   4.417   4.927   4.997  0.5032 -0.4753  0.3472
 3916TIP3    H211755   4.333   4.820   4.930 -0.0396  0.2972 -0.2261
 3917TIP3   OH211756   1.418   4.720   2.835  0.0662 -0.6040 -0.4540
 3917TIP3    H111757   1.482   4.659   2.799  1.2027  0.5727 -0.5386
 3917TIP3    H211758   1.469   4.800   2.853 -1.2112  0.0840  0.2975
 3918TIP3   OH211759   5.014   3.922   3.511  0.2597 -0.4041 -0.7164
 3918TIP3    H111760   4.936   3.976   3.497  0.2158 -0.3786 -0.3919
 3918TIP3    H211761   4.993   3.838   3.471  0.2475 -0.2471 -1.0402
 3919TIP3   OH211762   1.604   5.577   1.282  0.3108 -0.6563 -0.0910
 3919TIP3    H111763   1.687   5.608   1.247  0.7248 -1.0414  0.5397
 3919TIP3    H211764   1.613   5.587   1.377  0.4011 -2.5431  0.1248
 3920TIP3   OH211765   3.908   1.064   0.946 -0.3011 -0.2103 -0.0767
 3920TIP3    H111766   3.958   1.017   0.879 -0.7204 -0.2364 -0.3739
 3920TIP3    H211767   3.817   1.048   0.923 -0.4760 -1.1260  1.1159
 3921TIP3   OH211768   4.245   3.787   3.660 -0.6400  0.1388 -0.6560
 3921TIP3    H111769   4.315   3.782   3.595  0.7941  0.1401  0.8489
 3921TIP3    H211770   4.224   3.880   3.665  1.9457  0.7177  1.5776
 3922TIP3   OH211771   3.195   0.581   1.073 -0.6257  0.2713 -0.0330
 3922TIP3    H111772   3.161   0.518   1.136  0.6026  0.3407  0.7459
 3922TIP3    H211773   3.153   0.558   0.990 -0.8084 -1.0636  0.4084
 3923TIP3   OH211774   3.068   3.470   4.686 -0.4535  0.0544  0.5572
 3923TIP3    H111775   3.001   3.443   4.750 -0.6704  1.2729  0.8797
 3923TIP3    H211776   3.031   3.549   4.646  1.4095  1.6611  1.8227
 3924TIP3   OH211777   1.000   2.676   3.267  0.2078 -0.6934 -0.6430
 3924TIP3    H111778   1.055   2.733   3.213 -1.5879  0.1694 -1.6775
 3924TIP3    H211779   1.055   2.652   3.341  2.9427 -2.2130 -2.9721
 3925TIP3   OH211780   1.532   1.699   2.055  0.1800 -0.0033 -0.4301
 3925TIP3    H111781   1.492   1.701   1.968  0.7710  1.3086 -0.6840
 3925TIP3    H211782   1.562   1.788   2.070 -1.6374  0.3110  1.9369
 3926TIP3   OH211783   4.238   5.243   3.548  0.1426 -0.8349 -0.6968
 3926TIP3    H111784   4.151   5.270   3.577  0.5090 -0.0210 -0.3217
 3926TIP3    H211785   4.243   5.150   3.571 -0.3738 -0.7239 -0.0885
 3927TIP3   OH211786   1.293   2.946   1.934  0.4050  0.1835 -0.2173
 3927TIP3    H111787   1.218   2.992   1.896 -1.2992 -0.2945  2.2616
 3927TIP3    H211788   1.318   3.000   2.009  1.8020 -0.2749 -0.3283
 3928TIP3   OH211789   0.933   2.819   2.836 -0.2790  0.3392  0.1717
 3928TIP3    H111790   0.985   2.741   2.857 -0.0195  1.0707  2.5762
 3928TIP3    H211791   0.984   2.866   2.770 -0.3129 -1.3384 -1.1258
 3929TIP3   OH211792   1.119   0.283   4.660  0.1355  0.0302 -0.5761
 3929TIP3    H111793   1.157   0.195   4.654 -0.3776 -0.5659  2.7504
 3929TIP3    H211794   1.189   0.341   4.631  0.8660 -1.3763 -1.8104
 3930TIP3   OH211795   5.465   2.217   4.583 -0.2245 -0.3333 -0.4037
 3930TIP3    H111796   5.532   2.171   4.633 -0.3673  0.0559  0.1586
 3930TIP3    H211797   5.511   2.290   4.541  0.1609 -1.4207 -1.9436
 3931TIP3   OH211798   6.048   2.995   3.844  0.1479  0.5245 -0.0548
 3931TIP3    H111799   6.018   2.906   3.858  0.0099  0.7268  1.0190
 3931TIP3    H211800   5.969   3.049   3.853  0.0602  0.7015 -1.5718
 3932TIP3   OH211801   6.285   3.602   2.336 -0.1502 -0.4782 -0.0225
 3932TIP3    H111802   6.293   3.535   2.404 -0.1208 -1.0807 -0.6139
 3932TIP3    H211803   6.210   3.575   2.284  1.1482 -1.2723 -1.5784
 3933TIP3   OH211804   5.824   4.828   0.234  0.5186  0.1268  0.2633
 3933TIP3    H111805   5.736   4.797   0.212  1.2123 -1.6806 -0.2153
 3933TIP3    H211806   5.862   4.855   0.150  0.2238  1.5229  0.5583
 3934TIP3   OH211807   2.245   0.907   2.426 -0.4018 -0.2046  0.0876
 3934TIP3    H111808   2.161   0.948   2.444 -0.8030 -1.5566  1.4722
 3934TIP3    H211809   2.299   0.928   2.502  0.0942 -0.4697 -0.1807
 3935TIP3   OH211810   5.760   2.387   1.247  0.3659  0.3328 -0.1115
 3935TIP3    H111811   5.691   2.320   1.252  1.6286 -1.1740 -1.5374
 3935TIP3    H211812   5.714   2.467   1.223 -1.1729 -0.0371  1.4090
 3936TIP3   OH211813   3.489   5.587   3.893 -0.7184 -0.1163 -0.7985
 3936TIP3    H111814   3.394   5.586   3.909 -0.6945  2.0993 -0.1545
 3936TIP3    H211815   3.508   5.678   3.870  1.4670 -0.2013  0.4522
 3937TIP3   OH211816   4.797   4.872   2.921  0.1478 -0.5772  0.1662
 3937TIP3    H111817   4.705   4.881   2.894  0.0435  0.0359  0.7031
 3937TIP3    H211818   4.800   4.787   2.965  0.6199 -2.2609 -2.8688
 3938TIP3   OH211819   4.415   1.779   4.814 -0.7258 -0.2440 -0.6704
 3938TIP3    H111820   4.337   1.743   4.858 -0.7690 -0.5383 -0.9861
 3938TIP3    H211821   4.384   1.803   4.727 -0.2417 -1.2801 -1.1417
 3939TIP3   OH211822   6.056   4.832   3.630  0.2325  0.0325 -0.2244
 3939TIP3    H111823   6.083   4.891   3.700  0.0201  0.1287 -0.2252
 3939TIP3    H211824   6.137   4.788   3.604  0.6039  1.0598 -0.9150
 3940TIP3   OH211825   5.089   3.252   5.170  0.2355 -0.1131  0.0625
 3940TIP3    H111826   5.051   3.207   5.094  0.4923 -0.6118  0.2215
 3940TIP3    H211827   5.025   3.238   5.240  0.5776 -0.7295  0.2614
 3941TIP3   OH211828   1.012   3.784   4.688 -0.2092  0.1573  0.2190
 3941TIP3    H111829   1.008   3.786   4.593  1.2932 -0.3002  0.1211
 3941TIP3    H211830   1.100   3.815   4.709 -0.8704  1.2908  1.5243
 3942TIP3   OH211831   2.677   0.967   3.890  0.8063  0.0969 -0.2324
 3942TIP3    H111832   2.766   0.950   3.921  0.6384  0.0896  0.2419
 3942TIP3    H211833   2.635   1.014   3.962  0.0448 -0.9849  0.0441
 3943TIP3   OH211834   2.897   2.747   3.041 -0.3158 -0.1103  0.2259
 3943TIP3    H111835   2.806   2.736   3.067 -0.5243  1.6389  0.4045
 3943TIP3    H211836   2.893   2.766   2.947 -0.1321 -0.1806  0.2043
 3944TIP3   OH211837   3.384   2.003   1.623 -0.2448  0.3702 -0.1656
 3944TIP3    H111838   3.416   1.951   1.697  3.4544  1.7592 -0.5971
 3944TIP3    H211839   3.405   1.949   1.546 -1.0006  0.3645 -0.3696
 3945TIP3   OH211840   0.349   0.630   3.050 -0.2870  0.2933  0.9312
 3945TIP3    H111841   0.390   0.620   3.135  1.9858  0.7461 -0.0443
 3945TIP3    H211842   0.310   0.718   3.052 -1.0816 -0.0638  1.7990
 3946TIP3   OH211843   3.161   4.201   1.279 -0.3585 -0.1319 -0.4308
 3946TIP3    H111844   3.125   4.269   1.336 -1.6262 -0.4598 -0.7940
 3946TIP3    H211845   3.255   4.218   1.276 -0.4075  0.5021  0.9333
 3947TIP3   OH211846   4.828   3.567   1.876 -0.1080  0.0112  0.1788
 3947TIP3    H111847   4.907   3.558   1.929 -1.1201  0.7143  1.9278
 3947TIP3    H211848   4.834   3.498   1.811  1.7329 -0.2099  0.5239
 3948TIP3   OH211849   5.288   2.774   3.423  0.2762  0.4227  0.3041
 3948TIP3    H111850   5.247   2.857   3.446 -0.6014  0.2075 -0.4385
 3948TIP3    H211851   5.372   2.799   3.384  0.5955  0.8888  1.2500
 3949TIP3   OH211852   2.477   1.826   0.558  0.1937  0.5070 -0.6503
 3949TIP3    H111853   2.566   1.830   0.594 -0.2722 -0.8062  0.7679
 3949TIP3    H211854   2.421   1.841   0.634 -0.8256 -0.2125 -1.2465
 3950TIP3   OH211855   5.132   2.677   1.030  0.1701 -0.5700  0.7955
 3950TIP3    H111856   5.050   2.712   0.995  1.2704  2.1757  0.6817
 3950TIP3    H211857   5.132   2.585   1.006 -1.0042  0.2372 -2.8660
 3951TIP3   OH211858   2.565   4.695   1.876  0.3259 -0.3128 -0.4007
 3951TIP3    H111859   2.563   4.651   1.961  2.3351 -0.9715 -0.6368
 3951TIP3    H211860   2.473   4.712   1.855 -0.2622 -0.9957  1.4503
 3952TIP3   OH211861   3.878   1.647   2.240  0.5633  0.6326  0.0367
 3952TIP3    H111862   3.903   1.610   2.325  0.9834  0.6082 -0.0982
 3952TIP3    H211863   3.958   1.687   2.206  0.1409  1.6101  0.1467
 3953TIP3   OH211864   5.218   3.976   5.133  0.1184  0.3986  0.3034
 3953TIP3    H111865   5.260   3.909   5.187 -0.0763 -0.2932 -0.3727
 3953TIP3    H211866   5.143   3.931   5.094 -0.1269  1.0703 -0.0123
 3954TIP3   OH211867   5.607   3.296   4.480 -0.1060  0.1473  0.0655
 3954TIP3    H111868   5.513   3.309   4.493 -0.1805  1.2204 -1.3366
 3954TIP3    H211869   5.648   3.367   4.529 -0.0715  0.2707 -0.1431
 3955TIP3   OH211870   3.532   0.801   2.285 -0.1031 -0.1173 -0.7368
 3955TIP3    H111871   3.497   0.889   2.300  0.2619 -0.0844 -0.0235
 3955TIP3    H211872   3.542   0.764   2.373 -0.6697 -1.0451 -1.0431
 3956TIP3   OH211873   5.442   5.606   5.055 -0.5232  0.7117  0.3204
 3956TIP3    H111874   5.516   5.665   5.040  1.4205 -1.4600  0.7520
 3956TIP3    H211875   5.424   5.569   4.969  0.6317 -0.5941  0.5912
 3957TIP3   OH211876   4.970   1.191   3.786  0.5178 -0.0563 -0.1204
 3957TIP3    H111877   5.054   1.148   3.804  0.9903  0.7120 -0.4715
 3957TIP3    H211878   4.908   1.119   3.781  1.5909 -0.9308 -2.4795
 3958TIP3   OH211879   0.661   2.628   4.923  0.1034  0.2522 -0.5029
 3958TIP3    H111880   0.692   2.716   4.903 -1.7013  1.3992  1.3548
 3958TIP3    H211881   0.589   2.641   4.985 -2.2487 -2.3855 -2.4336
 3959TIP3   OH211882   6.219   0.673   0.106 -0.2513  0.1467  0.1216
 3959TIP3    H111883   6.245   0.690   0.015  1.8461  0.5844  0.7483
 3959TIP3    H211884   6.300   0.650   0.150 -1.4669 -1.5898  1.5852
 3960TIP3   OH211885   1.728   0.220   2.566  0.1277 -0.0434  0.1006
 3960TIP3    H111886   1.799   0.283   2.553  0.7493 -0.7154  0.1805
 3960TIP3    H211887   1.766   0.136   2.539 -0.2691 -0.5957  1.2166
 3961TIP3   OH211888   2.721   0.095   3.535 -0.6687  0.1769  0.1242
 3961TIP3    H111889   2.798   0.040   3.544 -1.5178 -0.7837  1.9800
 3961TIP3    H211890   2.650   0.035   3.511 -1.2690  0.6835  0.5703
 3962TIP3   OH211891   3.023   3.699   4.926 -0.1933  0.2872 -0.5431
 3962TIP3    H111892   3.086   3.661   4.987  0.0674 -0.5309 -1.2987
 3962TIP3    H211893   3.076   3.736   4.856 -0.4768  1.5871 -0.1008
 3963TIP3   OH211894   2.547   3.728   1.191  0.5847  0.2520  0.2978
 3963TIP3    H111895   2.629   3.688   1.164  0.7251  1.3393 -0.9742
 3963TIP3    H211896   2.571   3.789   1.261  0.3075 -2.0874  2.6083
 3964TIP3   OH211897   2.485   2.436   1.138  0.1827  0.3237  0.2643
 3964TIP3    H111898   2.469   2.497   1.065  1.0043  0.8552  0.5110
 3964TIP3    H211899   2.580   2.423   1.137  0.0088 -1.0557  0.1523
 3965TIP3   OH211900   3.933   1.523   0.864  0.1418 -0.3665 -0.1114
 3965TIP3    H111901   3.914   1.614   0.840  0.1193 -0.1365  0.7218
 3965TIP3    H211902   3.997   1.494   0.800  0.1649  0.2526 -0.3772
 3966TIP3   OH211903   1.295   1.480   3.232 -0.6366 -0.2994 -0.0002
 3966TIP3    H111904   1.256   1.407   3.182  0.0850 -1.1771  0.6904
 3966TIP3    H211905   1.359   1.438   3.289  0.4412  0.9846 -0.2276
 3967TIP3   OH211906   5.320   5.375   2.922  0.8262  0.0315  0.4145
 3967TIP3    H111907   5.342   5.319   2.847  1.1124 -1.4400  1.5643
 3967TIP3    H211908   5.404   5.396   2.962  0.7219  1.3277 -0.0070
 3968TIP3   OH211909   2.347   5.472   3.934 -0.5346 -0.0942  0.7172
 3968TIP3    H111910   2.377   5.414   3.864  0.9945  2.6764 -1.0941
 3968TIP3    H211911   2.287   5.533   3.890 -0.5976  0.8941  2.1292
 3969TIP3   OH211912   1.631   1.263   2.790  0.7813  0.4510 -0.0895
 3969TIP3    H111913   1.705   1.310   2.828  0.0612  0.8698  0.8113
 3969TIP3    H211914   1.560   1.326   2.789 -0.2248 -0.5963  1.2008
 3970TIP3   OH211915   2.527   2.552   0.442  0.3076 -0.6007  0.2461
 3970TIP3    H111916   2.470   2.482   0.411  1.5022 -1.5036  0.0334
 3970TIP3    H211917   2.607   2.543   0.389  0.3699  1.1146 -0.0076
 3971TIP3   OH211918   1.280   1.882   0.645  0.4535  0.0507 -0.2557
 3971TIP3    H111919   1.256   1.797   0.609 -0.4719  0.3864 -0.4485
 3971TIP3    H211920   1.270   1.944   0.572  0.7770  0.3779 -0.0271
 3972TIP3   OH211921   3.966   0.483   1.659 -0.4689 -0.7624 -0.3263
 3972TIP3    H111922   3.940   0.574   1.672 -0.0719 -0.3533 -2.0420
 3972TIP3    H211923   3.921   0.456   1.579 -0.6114 -2.1091  0.1698
 3973TIP3   OH211924   2.968   2.150   1.060 -0.2135  0.2221 -0.4159
 3973TIP3    H111925   2.959   2.107   0.974 -1.0360 -0.9547  0.2242
 3973TIP3    H211926   3.061   2.139   1.082 -0.0302  0.3799 -1.0763
 3974TIP3   OH211927   5.288   3.848   4.458 -0.7902 -0.1936  0.1866
 3974TIP3    H111928   5.233   3.816   4.386  1.3838 -0.5313 -1.4644
 3974TIP3    H211929   5.301   3.772   4.514 -0.0274 -0.8210 -0.7957
 3975TIP3   OH211930   2.019   5.837   5.083 -0.0650  0.1319  0.2805
 3975TIP3    H111931   2.023   5.900   5.155  0.4085  0.2635  0.1427
 3975TIP3    H211932   2.077   5.874   5.016 -1.2160  0.4897 -0.5491
 3976TIP3   OH211933   2.421   0.341   3.798  0.3069  0.5212 -0.2092
 3976TIP3    H111934   2.398   0.417   3.745  0.0712  0.3123 -0.4050
 3976TIP3    H211935   2.476   0.376   3.868  0.8604  0.7559 -0.7548
 3977TIP3   OH211936   4.773   4.133   1.203 -0.0183  0.1880 -0.3674
 3977TIP3    H111937   4.725   4.118   1.122  1.4954  2.3278 -1.7886
 3977TIP3    H211938   4.746   4.221   1.231 -0.4015 -0.4449  1.4174
 3978TIP3   OH211939   3.659   4.173   3.568 -0.0349 -0.0668  0.4302
 3978TIP3    H111940   3.717   4.175   3.645 -0.6375 -1.8237  0.9817
 3978TIP3    H211941   3.717   4.148   3.496  0.5430  1.6241  0.2771
 3979TIP3   OH211942   1.666   1.161   0.601 -0.3430  0.5390  0.7778
 3979TIP3    H111943   1.709   1.154   0.686  1.0321 -0.4563  0.0402
 3979TIP3    H211944   1.587   1.212   0.618  0.8300  1.9533  2.3066
 3980TIP3   OH211945   2.139   5.657   1.147 -0.0754  0.1512  0.1080
 3980TIP3    H111946   2.150   5.684   1.056 -1.0452 -0.6287 -0.2660
 3980TIP3    H211947   2.124   5.738   1.195 -0.0621  0.5248 -0.5105
 3981TIP3   OH211948   6.086   0.488   3.958 -0.2672  0.5424  0.3137
 3981TIP3    H111949   6.090   0.581   3.936  0.3431  0.6098  0.6820
 3981TIP3    H211950   6.162   0.449   3.914 -1.3402 -0.0705 -1.0921
 3982TIP3   OH211951   0.916   0.799   3.872 -0.0016  0.2685  0.3793
 3982TIP3    H111952   0.848   0.734   3.858  0.2874 -0.5815  2.5273
 3982TIP3    H211953   0.989   0.770   3.817 -1.5500  1.7112 -2.6936
 3983TIP3   OH211954   2.053   3.265   3.835 -0.1940 -0.0283  0.3603
 3983TIP3    H111955   2.030   3.358   3.836 -0.2619 -0.0395  1.9539
 3983TIP3    H211956   2.139   3.262   3.792  0.4224  0.9391  1.4606
 3984TIP3   OH211957   2.998   0.318   3.306 -0.3829  0.5194  0.0247
 3984TIP3    H111958   2.942   0.366   3.367 -1.0705 -1.0900  0.7217
 3984TIP3    H211959   3.024   0.239   3.354  1.0846  0.3930 -0.9110
 3985TIP3   OH211960   3.982   0.658   2.808  0.3501  0.3714  0.0783
 3985TIP3    H111961   3.957   0.749   2.792 -2.9008 -0.1487  1.5201
 3985TIP3    H211962   3.964   0.644   2.901  1.5323 -1.5787  0.0776
 3986TIP3   OH211963   5.886   3.361   0.405 -0.5193 -0.2830 -0.1380
 3986TIP3    H111964   5.894   3.266   0.406  0.7493 -0.2084  1.6851
 3986TIP3    H211965   5.968   3.392   0.367 -0.9681  0.1083 -0.8211
 3987TIP3   OH211966   2.141   0.531   2.020 -0.2365  0.2978 -0.3034
 3987TIP3    H111967   2.131   0.567   2.108 -1.5094 -0.9151  0.0758
 3987TIP3    H211968   2.220   0.574   1.985  1.0612 -0.1954  1.8904
 3988TIP3   OH211969   6.372   4.897   1.558  0.1424 -0.0292 -0.1679
 3988TIP3    H111970   6.286   4.889   1.599 -0.2280 -1.5327 -1.1855
 3988TIP3    H211971   6.364   4.972   1.499 -0.5288 -0.2625 -0.3745
 3989TIP3   OH211972   6.023   5.656   0.542  0.2293  0.3890  0.3117
 3989TIP3    H111973   6.020   5.713   0.618 -0.6771  1.0088 -0.1778
 3989TIP3    H211974   6.117   5.640   0.528  0.4017  0.1191  1.6400
 3990TIP3   OH211975   3.978   0.177   3.675  0.4801 -0.1369 -1.0909
 3990TIP3    H111976   3.967   0.087   3.708 -0.8067 -0.1732 -1.5566
 3990TIP3    H211977   4.063   0.204   3.709  1.3989 -1.9048 -1.8143
 3991TIP3   OH211978   5.073   2.701   4.566 -0.0709 -0.2539 -0.2803
 3991TIP3    H111979   5.018   2.779   4.557  2.3173  1.5070 -0.4523
 3991TIP3    H211980   5.101   2.680   4.477  1.6169  0.4999  0.0466
 3992TIP3   OH211981   1.697   5.539   1.984 -0.3264 -0.3105  0.2128
 3992TIP3    H111982   1.739   5.598   2.046  0.4658  0.6778 -1.2064
 3992TIP3    H211983   1.745   5.551   1.902  0.7732 -3.9225  0.1365
 3993TIP3   OH211984   2.495   3.790   4.707 -0.1313 -0.0235  0.6735
 3993TIP3    H111985   2.518   3.836   4.788  0.3041 -1.3026  1.2917
 3993TIP3    H211986   2.553   3.828   4.641 -1.5594  2.1515  0.5671
 3994TIP3   OH211987   2.663   0.464   2.645  0.5713  0.2003  0.6622
 3994TIP3    H111988   2.711   0.546   2.653 -0.2025  0.5534  2.0091
 3994TIP3    H211989   2.617   0.455   2.729  0.1005 -1.2625  0.2761
 3995TIP3   OH211990   4.513   1.036   0.519  0.2860 -0.3554 -0.0484
 3995TIP3    H111991   4.562   1.023   0.438 -1.7516 -2.6658 -1.0528
 3995TIP3    H211992   4.555   0.978   0.582  1.1155  0.5280  0.2414
 3996TIP3   OH211993   3.062   0.934   0.969 -0.4584  0.4834  0.0716
 3996TIP3    H111994   3.090   1.025   0.978  3.4292 -0.6311  1.2443
 3996TIP3    H211995   3.096   0.905   0.885 -0.8420 -0.1547  0.1211
 3997TIP3   OH211996   6.299   0.078   2.125  0.1651  0.4629 -0.4121
 3997TIP3    H111997   6.380   0.065   2.076  1.3698 -1.0773  1.7944
 3997TIP3    H211998   6.229   0.061   2.062  1.5105  1.5196 -2.2934
 3998TIP3   OH211999   0.824   1.772   4.732 -0.3471 -0.3303 -0.0944
 3998TIP3    H112000   0.912   1.792   4.698 -0.0758 -0.8850  0.2850
 3998TIP3    H212001   0.788   1.710   4.669  0.0604 -1.1638  0.4776
 3999TIP3   OH212002   5.397   3.995   4.723 -0.7419 -0.0259 -0.1447
 3999TIP3    H112003   5.389   4.031   4.811 -0.5913  0.2608 -0.2473
 3999TIP3    H212004   5.310   3.960   4.703 -0.5943 -0.7228  0.3885
 4000TIP3   OH212005   0.060   3.567   1.294  0.0794 -0.0933 -0.1743
 4000TIP3    H112006   0.011   3.488   1.273 -2.2341  1.2226 -0.0952
 4000TIP3    H212007   0.074   3.609   1.209  2.1845 -1.0163 -0.3283
 4001TIP3   OH212008   1.388   3.180   0.886 -0.0588 -0.1570 -0.5574
 4001TIP3    H112009   1.435   3.220   0.812  0.0498 -0.4679 -0.6554
 4001TIP3    H212010   1.427   3.093   0.895 -2.9401 -1.8672 -2.8812
 4002TIP3   OH212011   4.157   0.301   2.898 -0.1251  0.0647 -0.1311
 4002TIP3    H112012   4.089   0.248   2.941 -2.3202  0.5601 -2.6451
 4002TIP3    H212013   4.150   0.387   2.938  0.4846 -0.4222  1.0462
 4003TIP3   OH212014   0.379   5.857   4.470  0.2214 -0.0108  0.1842
 4003TIP3    H112015   0.407   5.932   4.522 -0.4446 -1.1326  2.2724
 4003TIP3    H212016   0.438   5.786   4.495 -1.1324 -1.0043  0.6907
 4004TIP3   OH212017   0.210   4.297   3.284  0.1821 -0.3263  1.0829
 4004TIP3    H112018   0.206   4.207   3.253  0.4500  0.1135 -0.2780
 4004TIP3    H212019   0.303   4.311   3.304  0.0135 -0.6030  2.1105
 4005TIP3   OH212020   0.855   2.528   2.670 -0.1480  0.7228  0.2713
 4005TIP3    H112021   0.887   2.459   2.612 -0.8814 -0.4312  1.2129
 4005TIP3    H212022   0.790   2.574   2.617 -3.2150 -2.3112  1.0747
 4006TIP3   OH212023   0.833   0.523   4.588 -0.0013 -0.2653  0.2931
 4006TIP3    H112024   0.781   0.447   4.614  0.5284 -1.2290 -1.2949
 4006TIP3    H212025   0.903   0.528   4.653  1.5967 -2.9097 -1.0489
 4007TIP3   OH212026   5.768   4.894   3.550 -0.2452 -0.1694  0.4964
 4007TIP3    H112027   5.856   4.856   3.543 -0.6677 -1.2390  0.7118
 4007TIP3    H212028   5.733   4.891   3.461  0.0250  0.4907  0.3653
 4008TIP3   OH212029   3.102   1.151   1.488 -0.3711 -0.6177 -0.3899
 4008TIP3    H112030   3.053   1.233   1.491 -1.0567 -0.9795 -1.0571
 4008TIP3    H212031   3.111   1.125   1.579 -0.7895 -0.1671 -0.2116
 4009TIP3   OH212032   5.500   1.835   3.308  0.1564 -0.0770  0.0620
 4009TIP3    H112033   5.439   1.805   3.242 -1.1672 -1.1761  1.6978
 4009TIP3    H212034   5.542   1.756   3.341 -0.5442  0.2037  1.7524
 4010TIP3   OH212035   3.658   5.427   3.543  0.4379  0.1211  0.0784
 4010TIP3    H112036   3.689   5.446   3.632  0.6904 -1.7818  0.4297
 4010TIP3    H212037   3.600   5.352   3.553 -0.0171  0.2572 -1.3086
 4011TIP3   OH212038   4.019   0.937   4.511  0.3114 -0.3505  0.6912
 4011TIP3    H112039   4.099   0.971   4.553 -0.5354 -0.5334  2.5605
 4011TIP3    H212040   3.955   1.008   4.519  0.2112 -0.2492 -0.6911
 4012TIP3   OH212041   5.302   2.904   1.051 -0.3027  0.1134  0.2349
 4012TIP3    H112042   5.329   2.846   0.980 -1.1821  0.1073 -0.1148
 4012TIP3    H212043   5.228   2.859   1.091  0.2710  0.0540  1.2543
 4013TIP3   OH212044   2.488   5.460   1.258 -0.1577  0.3575  0.2876
 4013TIP3    H112045   2.526   5.375   1.240  1.9433  0.8019  2.0882
 4013TIP3    H212046   2.493   5.507   1.175 -0.6255 -0.9822 -0.5275
 4014TIP3   OH212047   1.136   2.911   3.561 -0.2034  0.3959  0.0628
 4014TIP3    H112048   1.200   2.934   3.493  0.2998  1.6734  0.9417
 4014TIP3    H212049   1.054   2.902   3.513  0.5798 -1.3154 -1.1000
 4015TIP3   OH212050   0.091   2.200   1.578 -0.0218  0.5125 -0.1496
 4015TIP3    H112051   0.034   2.252   1.521 -0.1271  1.2083  0.5681
 4015TIP3    H212052   0.031   2.155   1.637  0.1264  0.5459  0.0276
 4016TIP3   OH212053   3.400   1.060   2.492 -0.7413  0.3546  0.2193
 4016TIP3    H112054   3.380   0.972   2.524 -0.4731  0.0663 -0.3888
 4016TIP3    H212055   3.345   1.070   2.414 -0.7258  0.6981  0.2534
 4017TIP3   OH212056   0.554   5.491   1.314  0.7468 -0.0382  0.1900
 4017TIP3    H112057   0.642   5.501   1.349  0.4812 -1.6143  1.4397
 4017TIP3    H212058   0.550   5.401   1.281 -0.3321  0.0560  0.0016
 4018TIP3   OH212059   1.825   5.778   2.624  0.8027  0.0907 -0.5423
 4018TIP3    H112060   1.892   5.815   2.682 -0.1862 -0.8785  1.3143
 4018TIP3    H212061   1.863   5.695   2.594  0.2400 -0.7819  1.0392
 4019TIP3   OH212062   5.364   2.234   3.705  0.2325 -0.0224  0.0315
 4019TIP3    H112063   5.425   2.300   3.739 -0.8223  0.5765  0.8064
 4019TIP3    H212064   5.375   2.238   3.610  0.9557  0.4950  0.1249
 4020TIP3   OH212065   5.291   0.860   1.274 -0.0665 -0.4061  0.1857
 4020TIP3    H112066   5.343   0.826   1.346 -1.6913  1.5199  2.4179
 4020TIP3    H212067   5.206   0.818   1.284  0.3695 -2.1224 -2.3115
 4021TIP3   OH212068   4.314   5.226   0.588 -0.0494  0.0886  0.2323
 4021TIP3    H112069   4.335   5.133   0.574 -2.0509 -0.7051  1.8966
 4021TIP3    H212070   4.259   5.250   0.514  0.0270 -0.2264  0.0700
 4022TIP3   OH212071   3.283   3.902   2.689 -0.4603  0.7334 -0.0672
 4022TIP3    H112072   3.274   3.883   2.596 -0.7444 -0.1928  0.1429
 4022TIP3    H212073   3.373   3.879   2.710 -0.3627  1.0496 -0.1335
 4023TIP3   OH212074   5.802   2.323   4.043  0.3311  0.2723 -0.1931
 4023TIP3    H112075   5.826   2.265   4.116  1.7445 -0.1535 -0.9552
 4023TIP3    H212076   5.782   2.265   3.971 -0.3216  0.7102 -0.3738
 4024TIP3   OH212077   1.404   3.863   4.037  0.1251 -0.4177 -0.0905
 4024TIP3    H112078   1.429   3.942   3.988  0.5214  0.7046  1.8409
 4024TIP3    H212079   1.474   3.800   4.017  1.7429  0.9271  1.1015
 4025TIP3   OH212080   2.500   5.558   3.674 -0.4296  0.6284  0.0602
 4025TIP3    H112081   2.572   5.496   3.662 -0.4237  0.6189  0.1495
 4025TIP3    H212082   2.421   5.504   3.672 -0.4739  0.7086 -0.6660
 4026TIP3   OH212083   3.907   3.258   4.728 -0.2589 -0.3089  0.3094
 4026TIP3    H112084   4.001   3.243   4.739 -0.6034 -2.5802  0.6592
 4026TIP3    H212085   3.897   3.353   4.736  1.8725 -0.0986  1.2432
 4027TIP3   OH212086   3.095   5.455   2.263 -0.9131  0.6564 -0.0182
 4027TIP3    H112087   3.181   5.416   2.280 -0.7576  1.4671  1.1584
 4027TIP3    H212088   3.043   5.382   2.228  0.0138 -0.0425  0.0040
 4028TIP3   OH212089   1.691   0.216   3.768  0.1567 -0.1457  0.4970
 4028TIP3    H112090   1.635   0.170   3.831  0.0655 -1.0740 -0.2329
 4028TIP3    H212091   1.643   0.211   3.685  0.2381  1.1334  0.3619
 4029TIP3   OH212092   4.945   0.777   3.371  0.3852  0.5318 -0.2158
 4029TIP3    H112093   4.990   0.738   3.446  0.5398 -0.2561 -0.7076
 4029TIP3    H212094   4.855   0.747   3.378  0.6776 -0.5860 -1.0270
 4030TIP3   OH212095   5.314   5.173   4.643  0.0682  0.4437  0.4225
 4030TIP3    H112096   5.229   5.133   4.662  0.0891  0.6952  1.0527
 4030TIP3    H212097   5.348   5.122   4.570 -0.9447  0.7825 -0.3184
 4031TIP3   OH212098   5.225   3.025   4.411  0.3130 -0.4752 -0.2251
 4031TIP3    H112099   5.188   2.991   4.329  1.1541 -1.9109 -0.0378
 4031TIP3    H212100   5.312   2.986   4.417  0.3585 -0.2226  1.2522
 4032TIP3   OH212101   2.521   3.483   2.890  0.3396 -0.1454 -0.2430
 4032TIP3    H112102   2.476   3.412   2.843 -3.3084  1.1394  1.0238
 4032TIP3    H212103   2.534   3.449   2.978 -0.4036  0.3381  0.0603
 4033TIP3   OH212104   5.522   4.998   1.037  0.4245  0.2620 -0.4869
 4033TIP3    H112105   5.429   4.986   1.019  0.2803  2.1501 -1.1465
 4033TIP3    H212106   5.561   4.913   1.015 -1.2650 -0.9655  0.9607
 4034TIP3   OH212107   5.335   0.214   1.922 -0.1571  0.2505 -0.1496
 4034TIP3    H112108   5.355   0.210   1.828 -1.3258 -1.2711 -0.3844
 4034TIP3    H212109   5.420   0.220   1.965  0.5341 -1.0926 -1.2468
 4035TIP3   OH212110   5.796   4.704   0.701 -0.2678  0.0071 -0.1237
 4035TIP3    H112111   5.728   4.762   0.735 -0.0828 -0.0459  0.3423
 4035TIP3    H212112   5.849   4.761   0.646 -0.1353  0.2678  0.2675
 4036TIP3   OH212113   4.594   3.720   2.964 -0.0349  0.4390 -0.4186
 4036TIP3    H112114   4.527   3.652   2.957  0.5435 -0.2219  0.3956
 4036TIP3    H212115   4.636   3.721   2.878  1.9611 -2.3580  0.3712
 4037TIP3   OH212116   5.499   4.987   4.756 -0.2755  0.0390  0.0969
 4037TIP3    H112117   5.448   5.067   4.743 -1.2736 -0.5932  0.0417
 4037TIP3    H212118   5.488   4.938   4.674  2.7875  1.1352 -1.1084
 4038TIP3   OH212119   2.313   1.181   3.011  0.4053  0.1654  0.6357
 4038TIP3    H112120   2.308   1.163   3.104 -0.6611 -1.6900  0.2580
 4038TIP3    H212121   2.406   1.172   2.990  0.4012 -1.4083  1.1763
 4039TIP3   OH212122   2.161   0.342   4.392  0.5018  0.0401 -0.0822
 4039TIP3    H112123   2.150   0.325   4.298  3.7689 -0.4455 -0.4892
 4039TIP3    H212124   2.131   0.433   4.403 -0.0836  0.0555 -1.5251
 4040TIP3   OH212125   4.963   3.742   1.579  0.4512 -0.7472  0.5777
 4040TIP3    H112126   5.000   3.780   1.500  0.0528 -0.1793  0.6629
 4040TIP3    H212127   4.908   3.811   1.616  1.7366 -0.4823  2.1206
 4041TIP3   OH212128   5.687   3.800   1.619 -0.3993 -0.5254 -0.2634
 4041TIP3    H112129   5.707   3.741   1.547 -1.9604 -0.9084 -0.4058
 4041TIP3    H212130   5.658   3.743   1.690 -1.5227  0.0193 -0.2619
 4042TIP3   OH212131   0.738   2.287   3.188  0.0609 -0.1604  0.1221
 4042TIP3    H112132   0.710   2.201   3.156  0.4708  0.0264 -0.7832
 4042TIP3    H212133   0.834   2.282   3.191  0.1236  0.4600 -0.5441
 4043TIP3   OH212134   3.574   0.451   3.037 -0.2916 -0.0200 -0.0431
 4043TIP3    H112135   3.536   0.539   3.041 -1.5034 -0.5536  0.5705
 4043TIP3    H212136   3.616   0.447   2.951 -0.0522  1.2232 -0.0031
 4044TIP3   OH212137   0.273   0.035   2.098  0.6764  0.1143 -0.0623
 4044TIP3    H112138   0.221   0.044   2.018  0.0403 -1.1868  0.1791
 4044TIP3    H212139   0.300   0.125   2.120  0.5990  0.5229 -1.5483
 4045TIP3   OH212140   2.460   5.272   2.843  0.2153  0.3381 -0.3218
 4045TIP3    H112141   2.408   5.286   2.763  2.8634  1.4528 -1.9918
 4045TIP3    H212142   2.474   5.360   2.878 -0.5239 -0.1081  1.1603
 4046TIP3   OH212143   1.210   4.538   4.537  0.1569  0.2758  0.2574
 4046TIP3    H112144   1.205   4.478   4.612 -0.8682  0.7688  0.6041
 4046TIP3    H212145   1.202   4.625   4.576  1.3350  0.6318 -0.2750
 4047TIP3   OH212146   5.286   1.262   2.318  0.9085  0.5079 -0.4262
 4047TIP3    H112147   5.262   1.212   2.396 -1.3522 -0.9875 -1.9561
 4047TIP3    H212148   5.229   1.339   2.320 -1.2499 -0.9475 -1.9342
 4048TIP3   OH212149   5.893   0.746   4.011 -0.4958 -0.0371  0.6067
 4048TIP3    H112150   5.841   0.720   3.935 -1.7789 -0.7667  1.6805
 4048TIP3    H212151   5.844   0.819   4.050 -0.5098 -0.4612  1.4072
 4049TIP3   OH212152   4.665   2.348   4.591 -0.1406  0.3344 -0.1803
 4049TIP3    H112153   4.727   2.389   4.651 -0.4693 -1.2696  1.3503
 4049TIP3    H212154   4.579   2.368   4.628 -0.4520  0.7889 -1.1165
 4050TIP3   OH212155   2.197   5.173   2.038 -0.0589 -0.0276  0.3760
 4050TIP3    H112156   2.104   5.154   2.052 -0.1597 -0.5618 -0.8706
 4050TIP3    H212157   2.198   5.243   1.973  0.3752 -1.5118 -1.3302
 4051TIP3   OH212158   4.595   0.802   2.845  0.5239 -0.0626  0.2094
 4051TIP3    H112159   4.688   0.812   2.867  0.5749 -2.7395  1.6430
 4051TIP3    H212160   4.595   0.750   2.765  0.2869 -0.7359  0.6363
 4052TIP3   OH212161   3.144   4.924   1.994  0.4999 -0.6153 -0.1545
 4052TIP3    H112162   3.051   4.946   2.003  0.8835  0.4002  1.9831
 4052TIP3    H212163   3.186   5.007   1.971  1.2692 -0.1465  2.5390
 4053TIP3   OH212164   3.795   5.283   4.870 -0.4555 -0.0177  0.3637
 4053TIP3    H112165   3.866   5.346   4.860 -0.0439 -0.5541 -0.1378
 4053TIP3    H212166   3.742   5.318   4.942  1.4639 -0.6891  2.1983
 4054TIP3   OH212167   5.335   4.650   0.454 -0.2280  0.1443  0.0014
 4054TIP3    H112168   5.335   4.704   0.533 -0.8103  0.6989 -0.3607
 4054TIP3    H212169   5.370   4.566   0.482 -0.3852  0.3472  0.8428
 4055TIP3   OH212170   6.017   2.873   3.374 -0.2799  0.1261 -0.7970
 4055TIP3    H112171   5.987   2.964   3.377 -1.5777 -0.1234 -3.3539
 4055TIP3    H212172   6.086   2.873   3.308 -0.4617 -0.7864 -0.9980
 4056TIP3   OH212173   3.775   2.074   2.531 -0.2460 -0.0120 -0.3054
 4056TIP3    H112174   3.791   2.160   2.572  0.3449  0.0366 -0.6282
 4056TIP3    H212175   3.686   2.080   2.497 -0.4186  0.2685  0.1759
 4057TIP3   OH212176   0.213   2.862   1.594  0.2486 -0.2242 -0.6651
 4057TIP3    H112177   0.141   2.830   1.649  1.0449 -0.0846  0.5008
 4057TIP3    H212178   0.286   2.872   1.655  0.8903  0.8577 -1.5895
 4058TIP3   OH212179   1.836   1.587   2.445 -0.0092 -0.0390 -0.0187
 4058TIP3    H112180   1.798   1.656   2.390 -0.1640  1.8481  2.2687
 4058TIP3    H212181   1.780   1.586   2.523 -0.1505 -2.9930 -0.0365
 4059TIP3   OH212182   3.763   0.272   3.163 -0.1590 -0.4077 -0.5627
 4059TIP3    H112183   3.702   0.335   3.125  0.0684  0.6501  0.7554
 4059TIP3    H212184   3.725   0.251   3.249  1.3866  0.3805  0.3468
 4060TIP3   OH212185   3.183   0.167   4.453  0.0940 -0.1819 -0.2512
 4060TIP3    H112186   3.192   0.262   4.465 -0.5406  0.0025 -1.0819
 4060TIP3    H212187   3.154   0.158   4.362  1.6756 -1.2761 -0.6840
 4061TIP3   OH212188   5.293   2.121   1.699 -0.5931  0.7522 -0.4065
 4061TIP3    H112189   5.315   2.197   1.645  0.3811 -0.1426 -1.3121
 4061TIP3    H212190   5.206   2.095   1.669 -0.8773  1.4067 -0.1845
 4062TIP3   OH212191   0.826   5.611   2.692 -0.1774 -0.3919  0.0937
 4062TIP3    H112192   0.824   5.639   2.783  1.1012  0.5309 -0.1342
 4062TIP3    H212193   0.829   5.693   2.642  0.5470 -0.8902 -0.7069
 4063TIP3   OH212194   2.469   5.706   4.332 -0.9082 -0.0830  0.5343
 4063TIP3    H112195   2.487   5.613   4.343 -0.9278 -0.1375  0.1336
 4063TIP3    H212196   2.388   5.709   4.281 -0.5125  0.1452 -0.1036
 4064TIP3   OH212197   6.252   3.661   2.839 -0.5060 -0.3825  0.3113
 4064TIP3    H112198   6.290   3.748   2.849  0.0519 -0.7829  2.1269
 4064TIP3    H212199   6.322   3.608   2.801  0.3793 -0.7988  2.3909
 4065TIP3   OH212200   3.642   1.487   0.620 -0.0423  0.5677  0.2933
 4065TIP3    H112201   3.597   1.516   0.699  0.3698  1.7679  0.1085
 4065TIP3    H212202   3.711   1.552   0.606  0.0225  0.2699 -0.9372
 4066TIP3   OH212203   0.211   4.782   3.962 -0.6665 -0.1750 -0.2445
 4066TIP3    H112204   0.178   4.696   3.938  0.9168 -0.8190 -0.2127
 4066TIP3    H212205   0.138   4.824   4.008 -0.9449 -2.0922  1.1625
 4067TIP3   OH212206   0.513   1.195   4.229 -0.3961 -0.0151  0.0403
 4067TIP3    H112207   0.466   1.221   4.149  1.5035 -0.6252 -1.3558
 4067TIP3    H212208   0.604   1.188   4.201  0.2805 -0.5624  2.2278
 4068TIP3   OH212209   4.801   3.404   3.116  0.3141 -0.4222  0.0853
 4068TIP3    H112210   4.768   3.417   3.205 -0.1886 -1.4011  0.0553
 4068TIP3    H212211   4.877   3.463   3.110  0.2686 -0.2358  1.1107
 4069TIP3   OH212212   2.164   0.218   1.590  0.0828 -0.3929 -0.6726
 4069TIP3    H112213   2.172   0.158   1.516  0.6122  0.5901 -1.4453
 4069TIP3    H212214   2.142   0.302   1.549  0.6684  0.2302  0.2587
 4070TIP3   OH212215   4.310   3.864   2.873 -0.0213 -0.5127  0.3150
 4070TIP3    H112216   4.369   3.899   2.939 -0.9968  3.8777 -0.7970
 4070TIP3    H212217   4.365   3.851   2.796  0.1618 -0.0823  0.3716
 4071TIP3   OH212218   0.159   5.874   3.010 -0.0832 -0.2732 -0.2207
 4071TIP3    H112219   0.178   5.785   2.981 -0.9377 -0.3322 -0.6144
 4071TIP3    H212220   0.135   5.922   2.931 -1.1298 -0.0923  0.1873
 4072TIP3   OH212221   1.353   5.538   2.451  0.9586 -0.5929  0.5777
 4072TIP3    H112222   1.341   5.608   2.516  0.7446 -3.0312  3.3496
 4072TIP3    H212223   1.273   5.541   2.399 -0.2732 -0.4220  2.3793
 4073TIP3   OH212224   5.770   4.474   4.365  0.1662 -0.4970  0.2071
 4073TIP3    H112225   5.710   4.402   4.386  0.7763 -0.8526  0.7964
 4073TIP3    H212226   5.743   4.545   4.423 -2.5253  0.9741 -2.5537
 4074TIP3   OH212227   6.068   5.960   4.390  0.5984 -0.1916  0.2057
 4074TIP3    H112228   6.013   5.922   4.459  0.2427  0.2497  0.1699
 4074TIP3    H212229   6.148   5.986   4.434  0.2621  0.3411  0.5112
 4075TIP3   OH212230   1.025   0.633   1.280  0.2453 -0.3262  0.1985
 4075TIP3    H112231   1.003   0.695   1.350  1.0876 -0.4320  0.5697
 4075TIP3    H212232   1.114   0.606   1.299  0.3515 -0.6562 -0.7083
 4076TIP3   OH212233   3.878   1.139   3.851  0.0867  0.1014 -1.0568
 4076TIP3    H112234   3.793   1.180   3.864  0.1649 -0.6887  3.2803
 4076TIP3    H212235   3.862   1.046   3.869  1.5123 -0.4566 -2.4181
 4077TIP3   OH212236   3.513   1.721   4.149 -0.5854  0.1968 -0.4653
 4077TIP3    H112237   3.429   1.761   4.129  0.1808  2.1035 -0.1093
 4077TIP3    H212238   3.553   1.703   4.064 -0.7099  0.7580 -0.6482
 4078TIP3   OH212239   4.441   1.234   2.954  0.3112  0.0247 -0.2170
 4078TIP3    H112240   4.352   1.227   2.918  0.9445  0.6063 -2.0122
 4078TIP3    H212241   4.428   1.250   3.047 -1.4895  0.9107 -0.5707
 4079TIP3   OH212242   3.589   1.313   3.398 -0.3278 -0.3687 -0.0667
 4079TIP3    H112243   3.505   1.347   3.429 -0.5112 -1.6771  0.9760
 4079TIP3    H212244   3.595   1.342   3.307 -1.1388  1.1171  0.3309
 4080TIP3   OH212245   5.935   2.574   4.650 -0.0585 -0.2221 -0.4015
 4080TIP3    H112246   5.968   2.654   4.690 -1.2694 -0.0970  0.3821
 4080TIP3    H212247   5.931   2.511   4.722 -1.4980 -0.2299 -0.4717
 4081TIP3   OH212248   4.866   1.394   4.964  0.4303  0.6654 -0.0823
 4081TIP3    H112249   4.947   1.446   4.965  0.1715  1.0842 -0.4517
 4081TIP3    H212250   4.895   1.303   4.961  0.9322  0.6678  2.4927
 4082TIP3   OH212251   6.337   4.408   4.327 -0.4518 -0.7056 -0.1264
 4082TIP3    H112252   6.312   4.322   4.360 -0.9273 -0.4017  0.3287
 4082TIP3    H212253   6.327   4.467   4.402  0.7631 -0.4038 -0.1779
 4083TIP3   OH212254   1.805   2.103   0.920  0.1201  0.5399  0.0814
 4083TIP3    H112255   1.829   2.115   1.012  0.5491  0.7444 -0.0556
 4083TIP3    H212256   1.711   2.124   0.917 -0.2223 -0.7419  0.7185
 4084TIP3   OH212257   6.035   0.261   3.087 -0.1197 -0.3379 -0.2652
 4084TIP3    H112258   6.031   0.300   3.000  5.2883 -1.7945 -1.5391
 4084TIP3    H212259   6.062   0.333   3.144 -0.7115 -0.0306 -0.3624
 4085TIP3   OH212260   1.795   2.415   1.285 -0.0592  0.4467  0.7487
 4085TIP3    H112261   1.718   2.470   1.303 -0.6344 -0.3167  0.6758
 4085TIP3    H212262   1.868   2.462   1.325 -0.6526  0.9013  1.3136
 4086TIP3   OH212263   1.756   0.664   0.486  0.4277  0.2840  0.5547
 4086TIP3    H112264   1.771   0.749   0.444 -0.0189 -0.6677 -1.6423
 4086TIP3    H212265   1.754   0.601   0.414 -2.5992 -1.1796  1.7284
 4087TIP3   OH212266   2.778   2.046   2.382  0.2190 -0.7481 -0.2674
 4087TIP3    H112267   2.756   2.055   2.289 -0.4317  2.5628  0.0835
 4087TIP3    H212268   2.873   2.038   2.383  0.0959 -3.1013 -1.2564
 4088TIP3   OH212269   1.230   5.480   3.299  0.0219 -0.5536  0.0392
 4088TIP3    H112270   1.282   5.441   3.229 -0.0242 -1.0381  0.2636
 4088TIP3    H212271   1.141   5.447   3.282 -0.1581  0.0380 -0.1794
 4089TIP3   OH212272   4.898   5.370   3.205  0.7887 -0.3277 -0.1993
 4089TIP3    H112273   4.869   5.458   3.229  2.4394  0.3121 -0.4281
 4089TIP3    H212274   4.828   5.337   3.148 -0.4532  0.3241  0.8872
 4090TIP3   OH212275   0.564   0.165   4.865  0.1196  0.1366  0.2180
 4090TIP3    H112276   0.483   0.212   4.885  0.3576  0.8636 -0.4552
 4090TIP3    H212277   0.574   0.101   4.936 -1.7190 -0.8653 -0.3840
 4091TIP3   OH212278   1.176   2.897   1.506 -0.3372  0.2445 -0.2325
 4091TIP3    H112279   1.105   2.949   1.468  0.1264  0.6956 -0.4829
 4091TIP3    H212280   1.199   2.942   1.587  0.1150  0.4839 -0.4871
 4092TIP3   OH212281   4.595   4.460   4.416 -0.0863  0.0920 -0.0784
 4092TIP3    H112282   4.628   4.373   4.393  0.7889  0.3958 -0.0367
 4092TIP3    H212283   4.504   4.460   4.388  0.6729  0.1515 -2.8815
 4093TIP3   OH212284   2.721   4.826   2.758 -0.3088  0.0206 -0.2998
 4093TIP3    H112285   2.773   4.866   2.688 -1.4273  0.1266 -1.1182
 4093TIP3    H212286   2.740   4.733   2.752  0.6020  0.1715  0.1289
 4094TIP3   OH212287   3.829   1.397   3.593  0.1623  0.1704 -0.2766
 4094TIP3    H112288   3.760   1.389   3.527  0.3086  0.6587 -0.4922
 4094TIP3    H212289   3.786   1.379   3.676  0.4660 -2.9940 -0.6969
 4095TIP3   OH212290   0.972   2.763   1.617 -0.1391  0.7289 -0.4403
 4095TIP3    H112291   0.918   2.703   1.565 -0.5416 -1.4110  2.2125
 4095TIP3    H212292   1.046   2.784   1.561  0.3260 -2.7839 -1.3663
 4096TIP3   OH212293   3.972   1.375   5.092 -0.4938  0.0087  0.6129
 4096TIP3    H112294   4.035   1.378   5.164  0.5082 -0.9518 -0.1926
 4096TIP3    H212295   3.906   1.313   5.121  0.4079 -1.1134  0.3434
 4097TIP3   OH212296   5.601   4.515   1.523  0.0375  0.0046  0.1453
 4097TIP3    H112297   5.583   4.429   1.486  0.8755  0.8743 -2.4914
 4097TIP3    H212298   5.673   4.549   1.471 -1.7426  3.2404 -0.4413
 4098TIP3   OH212299   3.708   0.640   2.531  0.1271 -0.2780 -0.6816
 4098TIP3    H112300   3.654   0.616   2.606  1.0937  0.2330  0.2073
 4098TIP3    H212301   3.739   0.556   2.496  0.1748 -0.5037 -0.1116
 4099TIP3   OH212302   1.161   5.256   0.111  0.1162  1.0633  0.5588
 4099TIP3    H112303   1.197   5.306   0.037 -0.3251  0.8920  0.2201
 4099TIP3    H212304   1.230   5.258   0.177  2.4295 -2.4684 -1.4293
 4100TIP3   OH212305   3.484   1.487   0.405 -0.1560  0.3962  0.7139
 4100TIP3    H112306   3.396   1.461   0.431 -0.8261  0.9105 -0.9337
 4100TIP3    H212307   3.536   1.479   0.486 -1.1070 -2.4403  1.1524
 4101TIP3   OH212308   4.330   0.128   4.006 -0.6039 -0.0854  0.1450
 4101TIP3    H112309   4.355   0.219   3.989 -1.2497 -0.3524 -2.7101
 4101TIP3    H212310   4.235   0.126   3.994 -0.6865 -1.0481  0.7942
 4102TIP3   OH212311   2.676   3.967   1.286 -0.0973  0.4384  0.0132
 4102TIP3    H112312   2.650   4.041   1.341  0.1143  1.2641 -0.9602
 4102TIP3    H212313   2.771   3.959   1.301 -0.3781 -0.7798  1.4311
 4103TIP3   OH212314   6.243   4.192   2.341  0.5208 -0.0518  0.3265
 4103TIP3    H112315   6.332   4.207   2.310  1.8848 -1.9482  2.8904
 4103TIP3    H212316   6.228   4.098   2.326 -1.4455  0.3830 -0.8437
 4104TIP3   OH212317   5.585   0.534   0.580 -0.3842 -0.2682  0.0275
 4104TIP3    H112318   5.670   0.557   0.541 -0.3868  0.4118  0.4019
 4104TIP3    H212319   5.601   0.452   0.626 -0.0757 -0.4451 -0.3900
 4105TIP3   OH212320   1.800   4.129   4.075 -0.4594  0.0634  0.1998
 4105TIP3    H112321   1.753   4.210   4.057 -1.7625 -0.9682 -1.3337
 4105TIP3    H212322   1.882   4.137   4.027  0.5039  1.3862  1.9399
 4106TIP3   OH212323   1.581   2.020   4.790 -0.0707 -0.6269  0.2303
 4106TIP3    H112324   1.640   2.045   4.862 -1.1925  0.8013  0.6851
 4106TIP3    H212325   1.505   1.982   4.834 -0.4836 -0.3488 -0.2472
 4107TIP3   OH212326   4.467   3.905   1.228 -0.3040  0.0578  0.0309
 4107TIP3    H112327   4.471   3.848   1.305 -0.1764  0.9211  0.6846
 4107TIP3    H212328   4.438   3.990   1.263  1.1447  0.8615 -0.6248
 4108TIP3   OH212329   3.775   3.347   2.851 -0.2415  0.2705  0.3472
 4108TIP3    H112330   3.778   3.380   2.761  1.8177 -0.6226  0.0416
 4108TIP3    H212331   3.796   3.424   2.905 -0.1457  0.5148 -0.0320
 4109TIP3   OH212332   5.994   4.735   1.432 -0.4422  0.1896 -0.5430
 4109TIP3    H112333   6.014   4.804   1.496 -0.5202  0.7237 -1.0807
 4109TIP3    H212334   6.019   4.773   1.347  1.1666 -1.0875 -0.6945
 4110TIP3   OH212335   3.885   3.219   3.604  0.3597 -0.5291  0.4306
 4110TIP3    H112336   3.857   3.144   3.657 -2.1235 -1.0996 -1.5076
 4110TIP3    H212337   3.959   3.255   3.652  0.1134 -2.7434  2.7182
 4111TIP3   OH212338   3.852   2.539   3.845  0.3474  0.3643  0.4683
 4111TIP3    H112339   3.833   2.498   3.761  0.1604  1.2628  0.0673
 4111TIP3    H212340   3.948   2.540   3.850  0.4143  2.0545 -0.6215
 4112TIP3   OH212341   3.736   1.733   2.615 -0.2091  0.2574 -0.5729
 4112TIP3    H112342   3.796   1.751   2.687 -0.3498 -0.2942 -0.3102
 4112TIP3    H212343   3.649   1.743   2.653 -0.2869  0.9542 -0.9261
 4113TIP3   OH212344   4.863   2.733   0.988  0.4784  0.1882  0.3903
 4113TIP3    H112345   4.853   2.820   1.026 -1.2140  0.7295 -1.1419
 4113TIP3    H212346   4.812   2.676   1.044  0.2380  0.4834  0.4721
 4114TIP3   OH212347   2.693   1.205   2.652 -0.0481  0.4974 -0.3723
 4114TIP3    H112348   2.767   1.148   2.630  1.6633  3.1211 -1.8718
 4114TIP3    H212349   2.639   1.206   2.573  0.9718  2.3775 -1.0987
 4115TIP3   OH212350   5.905   5.153   1.261 -0.2031 -0.1918  0.0256
 4115TIP3    H112351   5.831   5.176   1.206  1.6181 -0.6038 -2.8122
 4115TIP3    H212352   5.982   5.182   1.212  1.5920 -0.2411  2.5761
 4116TIP3   OH212353   4.270   1.219   3.462  0.4381 -0.5199 -0.7912
 4116TIP3    H112354   4.185   1.242   3.498  0.6003 -0.4040 -0.4764
 4116TIP3    H212355   4.329   1.289   3.491  0.5880 -0.4654 -1.2205
 4117TIP3   OH212356   0.759   4.363   4.904  0.2093 -0.7181 -0.2969
 4117TIP3    H112357   0.753   4.352   4.999  1.1164 -3.6166 -0.4737
 4117TIP3    H212358   0.846   4.400   4.889  0.4482 -1.1834 -0.0531
 4118TIP3   OH212359   2.429   1.802   0.295  0.0647 -0.0975  0.1267
 4118TIP3    H112360   2.444   1.895   0.279  2.9938 -0.3723  0.7224
 4118TIP3    H212361   2.431   1.794   0.390  2.1406 -1.0093  0.0556
 4119TIP3   OH212362   1.487   2.495   4.601  0.1755 -0.1753  0.5319
 4119TIP3    H112363   1.559   2.496   4.664 -0.2614 -0.5084  1.0456
 4119TIP3    H212364   1.452   2.584   4.603  1.0437  0.2044 -0.2858
 4120TIP3   OH212365   0.962   4.896   0.868 -0.0475 -0.1953  0.3609
 4120TIP3    H112366   0.919   4.813   0.848  1.3218 -0.9531  0.4648
 4120TIP3    H212367   0.979   4.893   0.962  3.9338 -1.8628 -0.1813
 4121TIP3   OH212368   5.009   1.028   3.312  0.4385 -0.6941 -0.1948
 4121TIP3    H112369   4.953   1.096   3.350  0.9245  0.4099 -1.3702
 4121TIP3    H212370   4.975   0.946   3.349 -0.7018  0.0977  0.6121
 4122TIP3   OH212371   4.719   4.388   3.558  0.0710  0.1803 -0.3957
 4122TIP3    H112372   4.740   4.457   3.496 -0.8551 -1.1722 -2.3073
 4122TIP3    H212373   4.662   4.329   3.510  1.2713 -2.2408  0.9483
 4123TIP3   OH212374   3.773   4.353   1.793  0.3346  1.2103  0.2341
 4123TIP3    H112375   3.737   4.438   1.816  0.1131  1.2400 -0.2233
 4123TIP3    H212376   3.697   4.295   1.785  0.5190  0.8259  1.1077
 4124TIP3   OH212377   5.083   0.614   0.854  0.1681 -0.3637 -0.1903
 4124TIP3    H112378   5.072   0.663   0.773  0.2065  0.5410  0.3448
 4124TIP3    H212379   5.172   0.632   0.881 -0.3006  0.5070  0.8089
 4125TIP3   OH212380   5.104   3.542   5.163 -0.1737  0.1154  0.0813
 4125TIP3    H112381   5.012   3.557   5.184 -1.0449 -2.1253 -1.6905
 4125TIP3    H212382   5.121   3.453   5.193  0.9719 -0.0430 -0.9619
 4126TIP3   OH212383   5.935   1.796   1.070 -0.2036  0.2178  0.2462
 4126TIP3    H112384   6.017   1.751   1.088 -1.3666 -1.4098  1.7441
 4126TIP3    H212385   5.934   1.870   1.131 -0.5897 -0.7732  1.4894
 4127TIP3   OH212386   4.088   5.707   3.882 -0.0524  0.1266  0.6997
 4127TIP3    H112387   4.098   5.667   3.795 -0.4855  1.4121  0.0188
 4127TIP3    H212388   4.040   5.642   3.933  0.5168 -0.7944  0.0807
 4128TIP3   OH212389   0.865   3.840   2.781  0.1665  0.6070  0.5670
 4128TIP3    H112390   0.896   3.783   2.851 -0.8726 -0.6607  0.0429
 4128TIP3    H212391   0.816   3.782   2.723  1.1353  1.5664 -1.3219
 4129TIP3   OH212392   4.264   4.506   0.187  0.1355  0.0961  0.4545
 4129TIP3    H112393   4.271   4.594   0.149  0.8901  0.2597  0.9597
 4129TIP3    H212394   4.170   4.494   0.200  0.1108  1.6827  2.2794
 4130TIP3   OH212395   3.015   4.968   2.378  0.6305  0.0004 -0.2649
 4130TIP3    H112396   2.948   4.907   2.349 -0.0802 -0.1663  1.5888
 4130TIP3    H212397   3.098   4.923   2.361  0.1692 -0.9493 -0.0707
 4131TIP3   OH212398   2.706   1.116   4.964  0.1798  0.3351 -0.0686
 4131TIP3    H112399   2.702   1.104   4.869 -0.3184 -1.3521  0.1350
 4131TIP3    H212400   2.671   1.035   5.000  0.7552  0.7769  1.5779
 4132TIP3   OH212401   1.999   2.996   3.924 -0.1992 -0.1010 -0.1535
 4132TIP3    H112402   2.009   3.089   3.904 -0.1186  0.1130  0.8196
 4132TIP3    H212403   2.066   2.952   3.872  1.0289  0.5879  0.7805
 4133TIP3   OH212404   0.205   0.055   4.081 -0.4478 -0.2721  0.3075
 4133TIP3    H112405   0.216   0.148   4.059 -0.1307 -0.5950 -0.9445
 4133TIP3    H212406   0.111   0.039   4.072 -0.7322  0.2338  1.9014
 4134TIP3   OH212407   4.098   3.713   4.463  0.3534 -0.4508  0.5760
 4134TIP3    H112408   4.019   3.746   4.421 -0.3985 -0.1587  2.1432
 4134TIP3    H212409   4.095   3.749   4.552  0.7267 -2.7933  1.6123
 4135TIP3   OH212410   0.485   4.446   0.524  0.0678 -0.2949  0.3191
 4135TIP3    H112411   0.472   4.389   0.600 -0.5709 -0.1045  0.3581
 4135TIP3    H212412   0.404   4.438   0.474 -0.0234  0.5652  0.3145
 4136TIP3   OH212413   1.796   5.509   4.113 -0.2387 -0.2980 -0.3778
 4136TIP3    H112414   1.861   5.484   4.048 -0.7189  0.4844 -1.1801
 4136TIP3    H212415   1.775   5.600   4.093 -1.1274 -0.3426  0.2574
 4137TIP3   OH212416   1.136   2.888   2.640  0.0031 -0.3350  0.0493
 4137TIP3    H112417   1.223   2.874   2.675  0.0733 -0.4315 -0.1602
 4137TIP3    H212418   1.151   2.911   2.548 -0.0842  1.3778  0.4327
 4138TIP3   OH212419   5.076   3.996   4.609  0.0547 -0.3480  0.1005
 4138TIP3    H112420   5.099   4.089   4.609 -1.6687  0.1079 -0.2011
 4138TIP3    H212421   5.143   3.954   4.554  0.7539  0.7259  0.1105
 4139TIP3   OH212422   3.607   4.541   4.338  0.9232  0.2405  0.3372
 4139TIP3    H112423   3.549   4.590   4.397  0.1554 -0.0405 -0.1632
 4139TIP3    H212424   3.584   4.449   4.354  4.0445 -0.2603  3.0821
 4140TIP3   OH212425   3.510   1.922   4.857  0.3076 -0.2543  0.2355
 4140TIP3    H112426   3.474   1.911   4.769 -0.6008 -0.0469  0.5712
 4140TIP3    H212427   3.483   2.009   4.884 -0.6823 -0.8571  1.2775
 4141TIP3   OH212428   1.918   5.105   2.615 -0.0367 -0.1517 -0.2395
 4141TIP3    H112429   1.978   5.179   2.623 -1.1499  0.9562 -1.6459
 4141TIP3    H212430   1.893   5.084   2.705  1.8744 -0.1839  0.3188
 4142TIP3   OH212431   6.234   2.651   0.385 -0.4147  0.0037  0.0639
 4142TIP3    H112432   6.315   2.701   0.378 -1.0929  1.2776  0.8702
 4142TIP3    H212433   6.194   2.681   0.466 -1.6286 -0.7007 -0.2470
 4143TIP3   OH212434   2.281   4.031   0.814  0.1026  0.2048  0.0083
 4143TIP3    H112435   2.297   3.953   0.867  1.5148 -0.7504 -1.7034
 4143TIP3    H212436   2.325   4.102   0.861  0.4082 -0.4037  0.6570
 4144TIP3   OH212437   6.163   2.074   2.341  0.7924 -0.0525  0.4292
 4144TIP3    H112438   6.252   2.081   2.307  0.2871  1.0303 -0.7722
 4144TIP3    H212439   6.152   1.982   2.362  1.4827 -0.6223 -1.5058
 4145TIP3   OH212440   1.079   0.201   1.593 -0.0753 -0.4152  0.1275
 4145TIP3    H112441   1.108   0.259   1.523 -0.1254 -1.4816 -0.8112
 4145TIP3    H212442   0.984   0.196   1.582 -0.4800  1.5190  1.9783
 4146TIP3   OH212443   6.114   1.024   4.863 -0.3380 -0.2266  0.1822
 4146TIP3    H112444   6.207   1.042   4.876 -0.0200 -1.1632 -0.6544
 4146TIP3    H212445   6.099   0.942   4.910 -0.3377 -0.9666 -1.0731
 4147TIP3   OH212446   2.238   2.914   3.765 -0.4567 -0.4436  0.1674
 4147TIP3    H112447   2.297   2.967   3.711 -0.9070  0.1668  0.2594
 4147TIP3    H212448   2.175   2.878   3.703 -1.5162  0.9856  0.3656
 4148TIP3   OH212449   3.401   0.875   1.270  0.2030  0.1531 -0.1008
 4148TIP3    H112450   3.481   0.844   1.228  0.3390 -0.1127  0.3505
 4148TIP3    H212451   3.355   0.922   1.201  0.2402 -0.6063 -0.6521
 4149TIP3   OH212452   6.057   5.732   5.069 -0.5136 -0.5853 -0.7748
 4149TIP3    H112453   5.994   5.804   5.063 -0.2637 -0.0177  2.0094
 4149TIP3    H212454   6.012   5.666   5.121 -0.2912 -1.9979 -2.2904
 4150TIP3   OH212455   0.114   3.495   0.857  0.0803  0.5277  0.2824
 4150TIP3    H112456   0.074   3.528   0.776  0.5451  0.5119  0.0401
 4150TIP3    H212457   0.108   3.400   0.849  1.1731  0.4926 -0.2854
 4151TIP3   OH212458   1.409   4.439   0.653 -0.2647  0.2190  0.0672
 4151TIP3    H112459   1.367   4.472   0.733 -0.2643  1.3727 -0.3925
 4151TIP3    H212460   1.342   4.386   0.611 -0.0680 -0.9221  1.1243
 4152TIP3   OH212461   1.246   0.164   0.920 -0.3918  0.1336 -0.2222
 4152TIP3    H112462   1.206   0.083   0.888  0.1404 -0.1453 -0.1937
 4152TIP3    H212463   1.176   0.229   0.914 -0.8994 -0.3789 -0.0198
 4153TIP3   OH212464   1.777   4.924   1.228 -0.0400 -0.2501 -0.0805
 4153TIP3    H112465   1.740   4.844   1.191  0.7391  0.0559 -1.6352
 4153TIP3    H212466   1.745   4.927   1.318 -0.0061 -2.3656  0.0541
 4154TIP3   OH212467   2.540   1.145   0.013 -0.5199  0.3690 -0.1048
 4154TIP3    H112468   2.581   1.199  -0.054 -2.8001  0.6719 -1.3932
 4154TIP3    H212469   2.480   1.205   0.058  0.6559  0.0594  1.9776
 4155TIP3   OH212470   0.362   2.827   4.686  0.0872  0.0512 -0.4482
 4155TIP3    H112471   0.381   2.806   4.777  0.7812 -0.1480 -0.6344
 4155TIP3    H212472   0.326   2.916   4.689 -2.1569 -0.8180  0.2583
 4156TIP3   OH212473   4.287   0.177   3.512 -0.2584 -0.2376  0.3862
 4156TIP3    H112474   4.380   0.186   3.535 -0.0091 -0.0966 -0.6366
 4156TIP3    H212475   4.252   0.266   3.516 -0.1391 -0.1684 -0.0850
 4157TIP3   OH212476   0.900   1.832   1.875  0.1608  0.5561 -0.2157
 4157TIP3    H112477   0.839   1.863   1.807  1.1369  0.0247 -1.3785
 4157TIP3    H212478   0.861   1.751   1.906 -1.3493  1.8155  1.3767
 4158TIP3   OH212479   6.312   2.686   4.315 -0.4179 -0.2066  0.1020
 4158TIP3    H112480   6.373   2.707   4.387 -0.5166 -0.4102  0.2437
 4158TIP3    H212481   6.267   2.607   4.344 -1.6420  0.6189  0.5586
 4159TIP3   OH212482   3.176   3.628   0.369  0.0233 -0.1719 -0.3400
 4159TIP3    H112483   3.231   3.695   0.329 -2.0616  0.3000 -2.6542
 4159TIP3    H212484   3.230   3.548   0.367  1.0333  0.5026 -1.4445
 4160TIP3   OH212485   5.167   0.121   5.101  0.1750 -0.3279 -0.2871
 4160TIP3    H112486   5.201   0.035   5.123  0.3082 -1.1704 -3.3458
 4160TIP3    H212487   5.237   0.182   5.124  0.2466 -1.0271  1.4893
 4161TIP3   OH212488   1.754   5.792   5.147 -0.2078  0.3739 -0.0522
 4161TIP3    H112489   1.764   5.834   5.233 -1.9595 -0.5998  0.6837
 4161TIP3    H212490   1.842   5.791   5.111  0.6090  0.7208  1.7890
 4162TIP3   OH212491   5.804   1.608   4.570 -0.2435  0.1049 -0.5063
 4162TIP3    H112492   5.877   1.548   4.559  1.1692  1.7533 -0.6295
 4162TIP3    H212493   5.730   1.566   4.526  0.3553 -2.0396  0.4450
 4163TIP3   OH212494   0.800   3.065   0.219  0.0617  0.4675 -0.1677
 4163TIP3    H112495   0.776   3.157   0.231  0.1875  0.5809 -0.7510
 4163TIP3    H212496   0.879   3.067   0.165  0.5657  0.0425  0.5281
 4164TIP3   OH212497   1.331   5.148   2.768  0.0958  0.3022  0.0142
 4164TIP3    H112498   1.349   5.209   2.697 -2.4986  0.2313 -0.7881
 4164TIP3    H212499   1.270   5.084   2.731  1.1402 -1.6364  1.4067
 4165TIP3   OH212500   1.350   4.297   0.325 -0.1142 -0.1142  0.2129
 4165TIP3    H112501   1.443   4.313   0.340  0.1212  0.0681 -1.3428
 4165TIP3    H212502   1.316   4.274   0.412  1.2988  0.1508  0.8680
 4166TIP3   OH212503   1.861   0.236   4.041 -0.0688  0.4874 -0.5297
 4166TIP3    H112504   1.847   0.235   3.947  1.0130  0.7825 -0.7178
 4166TIP3    H212505   1.841   0.147   4.070 -0.9408  0.5456 -0.9480
 4167TIP3   OH212506   1.735   1.077   2.632 -0.7549 -0.5137  0.5733
 4167TIP3    H112507   1.713   1.155   2.682 -0.1656  0.1544 -0.1880
 4167TIP3    H212508   1.661   1.018   2.646  0.3832 -1.3382  4.1233
 4168TIP3   OH212509   5.455   3.190   3.158 -0.3464  0.1382  0.3659
 4168TIP3    H112510   5.415   3.106   3.135  0.9706 -0.6256  0.7764
 4168TIP3    H212511   5.549   3.175   3.147 -0.1716  2.2575 -1.8672
 4169TIP3   OH212512   3.485   4.119   3.214 -0.1675  0.1810  0.5458
 4169TIP3    H112513   3.437   4.092   3.293 -2.1625  3.4327  0.6335
 4169TIP3    H212514   3.545   4.187   3.244  2.4027 -1.6209 -0.1347
 4170TIP3   OH212515   4.860   1.262   0.764 -0.2184  0.1368 -0.3620
 4170TIP3    H112516   4.868   1.254   0.669 -0.0168  1.1230 -0.4376
 4170TIP3    H212517   4.943   1.228   0.798 -0.3617 -0.3871 -0.5181
 4171TIP3   OH212518   5.647   2.504   3.395 -0.3975 -0.5889  0.0656
 4171TIP3    H112519   5.662   2.493   3.301 -0.6038 -1.1873  0.0949
 4171TIP3    H212520   5.734   2.509   3.433 -0.2999 -1.1889 -0.0700
 4172TIP3   OH212521   0.055   5.752   4.518  0.0402  0.8869 -0.7419
 4172TIP3    H112522   0.097   5.781   4.437  2.1496  0.3299  0.0858
 4172TIP3    H212523   0.120   5.770   4.586 -1.8578  1.7682  0.9335
 4173TIP3   OH212524   3.979   1.605   2.490 -0.0126 -0.1613  0.3616
 4173TIP3    H112525   3.909   1.668   2.505 -0.8322 -1.0512  0.3946
 4173TIP3    H212526   4.043   1.624   2.558  0.7607  1.9816 -0.8698
 4174TIP3   OH212527   4.485   1.584   4.288 -0.7896 -0.4074  0.5283
 4174TIP3    H112528   4.436   1.618   4.214  0.6217 -2.9933 -1.7734
 4174TIP3    H212529   4.471   1.489   4.285  3.1290 -1.1757  0.5139
 4175TIP3   OH212530   2.228   3.625   3.049  0.0424 -0.3975  0.5240
 4175TIP3    H112531   2.319   3.602   3.069 -0.0975 -2.2096 -0.6626
 4175TIP3    H212532   2.187   3.639   3.134  1.8054  2.3012  1.0637
 4176TIP3   OH212533   3.081   0.714   4.681 -0.3882  0.1703 -0.2336
 4176TIP3    H112534   2.991   0.746   4.688 -0.9039 -1.1597 -0.4456
 4176TIP3    H212535   3.074   0.631   4.633  0.3084 -2.4844  3.7782
 4177TIP3   OH212536   1.568   5.089   4.375 -0.0813  0.0677  0.4878
 4177TIP3    H112537   1.650   5.040   4.368 -0.5686 -0.7553  0.2986
 4177TIP3    H212538   1.591   5.179   4.353  0.5067 -0.4171 -1.0090
 4178TIP3   OH212539   3.404   2.270   3.985  0.1716 -0.8251 -0.4091
 4178TIP3    H112540   3.417   2.260   3.891  0.8065 -1.1653 -0.2908
 4178TIP3    H212541   3.487   2.245   4.024  0.4720  0.8768  0.1642
 4179TIP3   OH212542   3.372   2.162   3.466 -0.7255 -0.2902 -0.4689
 4179TIP3    H112543   3.396   2.140   3.376  1.2032  3.1149 -0.9794
 4179TIP3    H212544   3.283   2.198   3.459 -0.4767  0.2302 -1.1064
 4180TIP3   OH212545   4.916   2.574   1.626  0.3124 -0.2638 -0.3573
 4180TIP3    H112546   4.905   2.523   1.546  0.9682 -0.0321 -0.6038
 4180TIP3    H212547   4.835   2.559   1.675 -1.5045  1.9605 -2.3899
 4181TIP3   OH212548   2.026   0.674   0.114  0.7348 -0.7847  0.9223
 4181TIP3    H112549   1.961   0.738   0.144  0.1231 -1.3468  0.8381
 4181TIP3    H212550   2.030   0.610   0.184  1.4632 -0.5795  1.0746
 4182TIP3   OH212551   2.913   0.086   5.018  0.8389  0.2556 -0.0451
 4182TIP3    H112552   2.928   0.164   5.071  0.1652  0.1968  0.2384
 4182TIP3    H212553   2.999   0.046   5.010  0.8859  0.0201  1.3876
 4183TIP3   OH212554   2.947   4.034   1.271 -0.2645 -0.1784 -0.1326
 4183TIP3    H112555   3.037   4.065   1.274 -0.1257 -0.4983 -0.9379
 4183TIP3    H212556   2.947   3.963   1.208 -1.2088  0.2631 -0.6627
 4184TIP3   OH212557   5.366   1.863   4.764 -0.1440  0.0000 -0.1104
 4184TIP3    H112558   5.437   1.906   4.812 -0.3746 -0.8564  1.0471
 4184TIP3    H212559   5.398   1.858   4.674  0.2746  1.7251 -0.1002
 4185TIP3   OH212560   3.953   3.014   2.072  0.2000  0.0139 -0.1999
 4185TIP3    H112561   3.910   2.970   2.146  0.7250  2.1004  1.4299
 4185TIP3    H212562   4.029   2.959   2.053  1.2586  0.4941  2.2828
 4186TIP3   OH212563   1.698   0.534   4.682 -0.4469 -0.4495  0.6246
 4186TIP3    H112564   1.613   0.576   4.672 -0.4580 -0.7404 -0.6954
 4186TIP3    H212565   1.698   0.463   4.618  1.5452  0.8179 -0.9275
 4187TIP3   OH212566   2.419   5.633   2.279  0.0925 -0.0684 -0.5472
 4187TIP3    H112567   2.508   5.661   2.303  0.8693 -0.6390 -2.5028
 4187TIP3    H212568   2.371   5.631   2.361  1.3949  1.9917  0.3313
 4188TIP3   OH212569   3.742   5.614   1.272 -0.4160  0.1844 -0.2738
 4188TIP3    H112570   3.707   5.557   1.340  0.1305  0.2686  0.0938
 4188TIP3    H212571   3.666   5.644   1.223 -0.5671 -2.5079 -1.8207
 4189TIP3   OH212572   4.597   1.781   1.464 -0.3798  0.3915  0.1226
 4189TIP3    H112573   4.623   1.688   1.468 -0.9488  0.1920 -0.5654
 4189TIP3    H212574   4.503   1.780   1.480 -0.8510  0.5755 -2.2665
 4190TIP3   OH212575   4.526   5.965   2.912  0.1985 -0.3115  0.1971
 4190TIP3    H112576   4.504   5.938   3.001 -0.0374 -1.1873 -0.1206
 4190TIP3    H212577   4.580   6.043   2.924 -2.4030  1.5074  1.0506
 4191TIP3   OH212578   3.322   0.728   5.108 -0.2456 -0.0172 -0.5521
 4191TIP3    H112579   3.386   0.736   5.037 -0.7223 -0.0255 -0.9926
 4191TIP3    H212580   3.253   0.791   5.085 -0.4570 -0.0998 -0.1525
 4192TIP3   OH212581   4.699   1.771   4.250 -0.4298  0.2252 -0.5642
 4192TIP3    H112582   4.760   1.741   4.318  0.1851 -0.0918 -1.2471
 4192TIP3    H212583   4.641   1.697   4.235 -0.6418  0.3360 -0.3140
 4193TIP3   OH212584   2.901   3.274   0.380  0.3059 -0.3568  0.2259
 4193TIP3    H112585   2.806   3.271   0.388  0.1643 -0.1965 -1.1634
 4193TIP3    H212586   2.923   3.367   0.385  0.2461 -0.2811 -0.7277
 4194TIP3   OH212587   1.437   2.377   2.446 -0.1118  0.0300  1.1910
 4194TIP3    H112588   1.507   2.439   2.428 -0.2479 -0.0142  0.4639
 4194TIP3    H212589   1.360   2.433   2.462 -0.5574  0.0797 -0.8040
 4195TIP3   OH212590   0.614   0.944   0.549 -0.0354 -0.0698 -0.2529
 4195TIP3    H112591   0.701   0.939   0.589  0.5822 -0.1122 -1.5706
 4195TIP3    H212592   0.575   0.858   0.564 -0.1072  0.1355  0.8610
 4196TIP3   OH212593   4.203   3.045   5.125  0.0176  0.1708  0.0188
 4196TIP3    H112594   4.297   3.055   5.111 -0.0211 -0.0915 -0.4188
 4196TIP3    H212595   4.195   2.971   5.185  0.0784  0.0231 -0.1538
 4197TIP3   OH212596   4.912   1.845   2.891  1.0429 -0.0348  0.5954
 4197TIP3    H112597   4.959   1.772   2.852  0.8718  0.3527 -0.3644
 4197TIP3    H212598   4.964   1.868   2.969  0.1437 -2.2788  1.9576
 4198TIP3   OH212599   0.948   1.903   0.646  0.5504  0.1951  0.2641
 4198TIP3    H112600   1.019   1.841   0.631 -0.8805 -1.6778  0.7913
 4198TIP3    H212601   0.970   1.945   0.729  1.4558  0.3094 -0.0187
 4199TIP3   OH212602   0.750   5.646   3.632 -0.4079  0.2805  0.6026
 4199TIP3    H112603   0.827   5.590   3.623 -0.4337  0.3870 -0.4130
 4199TIP3    H212604   0.677   5.586   3.643 -0.4361  0.0921 -0.4766
 4200TIP3   OH212605   0.672   0.598   3.008  0.1966  0.6329  0.0133
 4200TIP3    H112606   0.766   0.584   3.002  0.4289  2.2634 -0.5779
 4200TIP3    H212607   0.640   0.525   3.062  2.1453  1.4125  2.4325
 4201TIP3   OH212608   6.277   2.444   4.697  0.2616 -0.1718 -0.0273
 4201TIP3    H112609   6.192   2.402   4.686 -0.2276  0.7622  0.0781
 4201TIP3    H212610   6.329   2.381   4.746 -0.3381 -0.7887 -0.1745
 4202TIP3   OH212611   3.728   5.615   4.729 -0.0178  0.1257 -0.0136
 4202TIP3    H112612   3.809   5.583   4.769 -0.2953  0.2777  0.6917
 4202TIP3    H212613   3.678   5.650   4.802 -0.7290  0.0299 -0.4455
 4203TIP3   OH212614   4.755   1.362   4.714 -0.1996  0.4114 -0.5561
 4203TIP3    H112615   4.770   1.343   4.807  1.4456  0.5947 -0.7634
 4203TIP3    H212616   4.758   1.458   4.709 -0.0959  0.3941 -0.8262
 4204TIP3   OH212617   1.109   0.164   4.308  0.4219  0.3005 -0.1631
 4204TIP3    H112618   1.198   0.199   4.305  0.4652  0.1463 -2.0880
 4204TIP3    H212619   1.057   0.233   4.348  1.3481  0.4683  0.8120
 4205TIP3   OH212620   5.874   4.000   4.581  0.1989  0.4375 -0.3134
 4205TIP3    H112621   5.944   4.051   4.622  0.3917 -0.0377 -0.0306
 4205TIP3    H212622   5.824   3.965   4.655 -1.0884  1.7729 -0.5289
 4206TIP3   OH212623   3.616   5.302   0.323  0.9806  0.5670 -0.0792
 4206TIP3    H112624   3.576   5.347   0.248  0.5261  3.0530  1.5306
 4206TIP3    H212625   3.688   5.252   0.285 -1.5805 -1.5010 -2.6546
 4207TIP3   OH212626   5.664   1.146   4.942  0.3546  0.8077 -0.1965
 4207TIP3    H112627   5.715   1.091   4.883 -1.3468 -0.7222 -0.3275
 4207TIP3    H212628   5.681   1.236   4.913  2.0401  0.2773 -0.9329
 4208TIP3   OH212629   1.494   5.863   1.406 -0.0008  0.4213 -0.3202
 4208TIP3    H112630   1.554   5.801   1.445  0.9748  0.7414 -1.2565
 4208TIP3    H212631   1.503   5.850   1.311 -0.3334  1.4509 -0.5155
 4209TIP3   OH212632   1.323   5.908   4.760  0.7646  0.4202 -0.4051
 4209TIP3    H112633   1.269   5.943   4.831  0.8898  2.1404 -1.1253
 4209TIP3    H212634   1.370   5.834   4.800 -1.0569 -0.2613  0.5931
 4210TIP3   OH212635   3.701   0.656   4.778  0.6252 -0.0319 -0.3578
 4210TIP3    H112636   3.667   0.567   4.784  0.6519 -0.0339 -0.2461
 4210TIP3    H212637   3.646   0.707   4.839  0.9743 -0.0788 -0.0007
 4211TIP3   OH212638   1.894   4.503   4.034  0.0393 -0.5166 -0.2700
 4211TIP3    H112639   1.846   4.556   4.096  0.3989  1.2032 -1.3999
 4211TIP3    H212640   1.985   4.530   4.044  0.0426  0.1728 -1.8659
 4212TIP3   OH212641   1.859   4.468   2.348 -0.4637  0.4278 -0.5018
 4212TIP3    H112642   1.771   4.458   2.383 -0.2193  1.6402  0.5242
 4212TIP3    H212643   1.861   4.411   2.272 -1.5518 -1.0112  0.5011
 4213TIP3   OH212644   4.529   5.580   1.685 -0.1365  0.3323 -0.0506
 4213TIP3    H112645   4.582   5.525   1.742  0.3262  0.6621 -0.1546
 4213TIP3    H212646   4.592   5.637   1.641 -0.5305  0.3762 -0.5685
 4214TIP3   OH212647   4.302   1.519   4.036  0.2105  0.7764  0.3844
 4214TIP3    H112648   4.211   1.527   4.062 -0.6986  0.6888 -2.3725
 4214TIP3    H212649   4.309   1.432   3.998  1.4467  0.7946  0.5170
 4215TIP3   OH212650   3.026   5.180   0.963  0.0505  0.2395 -0.0946
 4215TIP3    H112651   3.038   5.183   0.868 -1.8676 -1.8980 -0.4859
 4215TIP3    H212652   2.982   5.262   0.984  0.7694  0.8702 -1.0020
 4216TIP3   OH212653   2.652   1.602   2.546  0.3530  0.0995  0.0649
 4216TIP3    H112654   2.572   1.552   2.561  0.8913 -0.5059  1.1102
 4216TIP3    H212655   2.623   1.693   2.540 -0.5783 -0.2596 -1.2355
 4217TIP3   OH212656   5.178   1.837   3.191 -0.3776 -0.1428  0.0336
 4217TIP3    H112657   5.200   1.924   3.158  0.2214  0.0626  0.9393
 4217TIP3    H212658   5.094   1.848   3.234 -0.2184  0.0404  0.3049
 4218TIP3   OH212659   1.005   0.686   3.302 -0.5595  0.9256  0.5440
 4218TIP3    H112660   0.992   0.648   3.215  1.5081 -0.5089  0.7871
 4218TIP3    H212661   1.004   0.611   3.361  2.0636  1.3458  1.2425
 4219TIP3   OH212662   0.677   1.001   1.260  0.1448 -0.0826 -0.4420
 4219TIP3    H112663   0.743   1.047   1.313 -0.0053 -0.4148  0.0362
 4219TIP3    H212664   0.594   1.044   1.283  0.0687 -0.2793 -0.3511
 4220TIP3   OH212665   5.073   3.804   2.641 -0.1834 -0.0852 -0.1812
 4220TIP3    H112666   5.074   3.875   2.577  2.5583 -1.2154 -1.5771
 4220TIP3    H212667   4.989   3.761   2.627 -0.6321  1.0948 -1.3829
 4221TIP3   OH212668   2.719   0.565   0.095  0.3145 -0.4353  0.2593
 4221TIP3    H112669   2.652   0.633   0.097  1.3621  0.6321  1.4331
 4221TIP3    H212670   2.683   0.497   0.039 -1.3905  0.4533  0.2065
 4222TIP3   OH212671   5.735   0.829   0.706  0.3483 -0.3170  0.7325
 4222TIP3    H112672   5.756   0.779   0.628  0.4621 -0.7658  1.0520
 4222TIP3    H212673   5.790   0.907   0.700  0.4387 -0.4039  0.4260
 4223TIP3   OH212674   0.962   0.297   0.420 -0.1527  0.2204 -0.1409
 4223TIP3    H112675   1.026   0.234   0.453 -0.6039 -0.7004 -0.9655
 4223TIP3    H212676   0.998   0.383   0.443  0.0507 -0.3400  1.8051
 4224TIP3   OH212677   2.239   3.082   0.911 -0.0136 -0.1339  0.1757
 4224TIP3    H112678   2.196   3.050   0.991 -0.4489 -0.9391 -0.3708
 4224TIP3    H212679   2.186   3.157   0.884 -0.7565 -0.7767 -0.1817
 4225TIP3   OH212680   0.544   0.992   0.297 -0.1160 -0.7334  0.1250
 4225TIP3    H112681   0.557   0.962   0.387 -2.7306 -1.1083  0.4678
 4225TIP3    H212682   0.536   0.911   0.246  0.7606 -0.5230 -0.3597
 4226TIP3   OH212683   2.334   2.959   4.855  0.0237  0.4889 -0.9586
 4226TIP3    H112684   2.280   2.900   4.907 -0.3568  1.0620 -0.6965
 4226TIP3    H212685   2.383   3.010   4.919 -0.7610  1.4944 -1.1254
 4227TIP3   OH212686   4.540   0.468   3.069  0.4960  0.0415 -0.3046
 4227TIP3    H112687   4.570   0.378   3.060  0.5398  0.1664 -1.7053
 4227TIP3    H212688   4.578   0.498   3.152  0.7630 -1.1118  0.0039
 4228TIP3   OH212689   4.065   2.443   2.529 -0.1582  0.6774  0.1736
 4228TIP3    H112690   4.138   2.449   2.590  0.3895 -0.2618 -0.3742
 4228TIP3    H212691   4.087   2.504   2.458  1.0916 -1.0038 -0.9720
 4229TIP3   OH212692   5.353   2.040   1.092 -0.7198 -0.0875 -0.1487
 4229TIP3    H112693   5.376   1.947   1.085  1.1576  0.3176  0.0049
 4229TIP3    H212694   5.258   2.041   1.101 -0.7823 -1.9893 -0.2193
 4230TIP3   OH212695   1.018   0.649   2.234  0.4016  0.4452  0.1300
 4230TIP3    H112696   1.108   0.616   2.238  1.1007  2.1144 -0.6041
 4230TIP3    H212697   0.994   0.639   2.142  0.3385  1.2164  0.0582
 4231TIP3   OH212698   1.690   2.658   4.252 -0.5908 -0.5159 -0.2702
 4231TIP3    H112699   1.781   2.689   4.261 -1.1136  0.7586  0.8306
 4231TIP3    H212700   1.689   2.575   4.298  0.1037 -0.7355 -0.6256
 4232TIP3   OH212701   6.249   3.194   2.083 -0.3751 -0.2401 -0.1006
 4232TIP3    H112702   6.250   3.160   2.173 -0.5950 -0.6666 -0.2584
 4232TIP3    H212703   6.158   3.217   2.067 -0.6892 -1.8945 -0.8532
 4233TIP3   OH212704   3.370   2.950   4.862  0.3699  0.9472  0.2937
 4233TIP3    H112705   3.352   2.898   4.940  0.5970  1.1172  0.4626
 4233TIP3    H212706   3.283   2.969   4.825  0.3578 -1.5103 -1.1013
 4234TIP3   OH212707   2.453   4.270   1.299  0.5191  0.9388  0.9631
 4234TIP3    H112708   2.485   4.214   1.369  1.7714 -0.2096 -0.4565
 4234TIP3    H212709   2.465   4.359   1.331 -0.4087  0.4456  2.8016
 4235TIP3   OH212710   3.523   5.858   3.820  0.2985  0.0096 -0.1823
 4235TIP3    H112711   3.548   5.902   3.739 -0.2171  1.5792  0.4765
 4235TIP3    H212712   3.582   5.894   3.887 -2.0250  2.0621  0.9441
 4236TIP3   OH212713   0.195   4.071   3.123  0.0431 -0.3120  0.1453
 4236TIP3    H112714   0.276   4.106   3.086 -1.0390  1.6878 -0.5189
 4236TIP3    H212715   0.133   4.074   3.050 -1.5065  1.4637  1.4509
 4237TIP3   OH212716   3.344   4.960   0.397  0.8438 -0.1919 -0.2246
 4237TIP3    H112717   3.344   4.881   0.452  1.2390 -1.7756 -2.3952
 4237TIP3    H212718   3.396   5.023   0.447 -0.6387 -0.7352  2.2309
 4238TIP3   OH212719   4.188   5.098   1.104  0.5979  0.2795 -0.4268
 4238TIP3    H112720   4.264   5.058   1.063  0.6589  0.0970 -0.1415
 4238TIP3    H212721   4.195   5.073   1.196  0.1984  0.2717 -0.3970
 4239TIP3   OH212722   5.216   1.585   3.117 -0.5443  0.2361  0.0598
 4239TIP3    H112723   5.214   1.676   3.145  0.2134  0.6417 -1.1138
 4239TIP3    H212724   5.125   1.565   3.095 -0.7024  0.7353  0.2492
 4240TIP3   OH212725   2.467   4.217   4.602  0.2338 -0.5260  0.0604
 4240TIP3    H112726   2.562   4.224   4.612  0.0174  1.3984  1.2128
 4240TIP3    H212727   2.453   4.128   4.571  2.4777 -0.5527 -1.0996
 4241TIP3   OH212728   0.715   4.117   2.346  0.1082  0.1170  0.0069
 4241TIP3    H112729   0.753   4.205   2.337  2.3046 -0.7449  0.1697
 4241TIP3    H212730   0.705   4.106   2.441 -2.2772  0.9661 -0.0832
 4242TIP3   OH212731   3.735   1.398   3.862 -0.3714  0.0088  0.9698
 4242TIP3    H112732   3.719   1.364   3.950  0.2263 -0.0106  1.0765
 4242TIP3    H212733   3.679   1.474   3.854 -1.4372 -0.7637  0.8777
 4243TIP3   OH212734   1.201   1.735   3.124  0.4086 -0.1461  0.1585
 4243TIP3    H112735   1.220   1.662   3.183  0.2802  0.5047  1.0246
 4243TIP3    H212736   1.282   1.786   3.123  0.2146  0.1637  0.2399
 4244TIP3   OH212737   3.057   2.915   1.196 -0.2484  0.5595 -0.1650
 4244TIP3    H112738   3.040   3.008   1.210  0.2433  0.5204  0.7682
 4244TIP3    H212739   3.023   2.897   1.108 -0.7713  1.5094 -0.1642
 4245TIP3   OH212740   0.409   3.387   0.224  0.3065  0.2678  0.1135
 4245TIP3    H112741   0.419   3.312   0.283  0.9461  0.3069  0.0641
 4245TIP3    H212742   0.432   3.463   0.277  1.0846  0.2844 -0.2346
 4246TIP3   OH212743   1.950   2.040   2.266  0.5076  0.5044  0.1162
 4246TIP3    H112744   2.029   2.091   2.284  0.5974  0.5610 -0.4283
 4246TIP3    H212745   1.880   2.088   2.310  1.0232 -0.5308  2.2312
 4247TIP3   OH212746   0.100   0.084   1.233 -0.2148 -0.2940 -0.2028
 4247TIP3    H112747   0.137   0.008   1.187  0.3381  1.0986 -2.1970
 4247TIP3    H212748   0.006   0.072   1.228 -0.1380 -1.4967  0.7142
 4248TIP3   OH212749   6.300   0.748   0.622  0.4083  0.2956  0.2139
 4248TIP3    H112750   6.275   0.705   0.704 -2.0628  2.1618  0.5610
 4248TIP3    H212751   6.377   0.800   0.644  0.0440  0.4251  1.2500
 4249TIP3   OH212752   3.335   0.079   3.353 -0.0642 -0.3374 -0.2951
 4249TIP3    H112753   3.349   0.148   3.289 -1.0404  0.0424 -0.1006
 4249TIP3    H212754   3.240   0.067   3.357  0.0329 -0.9890  0.4106
 4250TIP3   OH212755   3.759   1.907   4.511  0.0712 -0.4710 -0.5504
 4250TIP3    H112756   3.780   1.921   4.604 -0.9425  1.2929 -0.5361
 4250TIP3    H212757   3.813   1.832   4.485  2.5220  0.7445  0.7159
 4251TIP3   OH212758   1.245   1.607   3.747  0.3679  0.0140 -0.3191
 4251TIP3    H112759   1.308   1.657   3.798  1.0766 -1.2294  0.0751
 4251TIP3    H212760   1.225   1.531   3.802 -3.6462  1.6506  0.8772
 4252TIP3   OH212761   5.101   0.347   1.384 -0.3232 -0.4347  0.3025
 4252TIP3    H112762   5.125   0.424   1.435  0.0546 -1.0115  1.0180
 4252TIP3    H212763   5.130   0.367   1.295 -1.0581  0.6158  0.2876
 4253TIP3   OH212764   1.122   4.043   3.818 -0.4807  0.1802  0.0232
 4253TIP3    H112765   1.121   3.947   3.825  2.2630  0.0191 -0.7156
 4253TIP3    H212766   1.098   4.060   3.727 -2.6698  0.3669  0.5729
 4254TIP3   OH212767   1.469   3.828   0.735 -0.2824  0.3044 -0.7350
 4254TIP3    H112768   1.561   3.819   0.710 -0.0909 -3.1352  0.6908
 4254TIP3    H212769   1.469   3.821   0.830 -1.9737  1.2151 -0.6347
 4255TIP3   OH212770   2.315   0.758   4.890 -0.1311  0.6804  0.0934
 4255TIP3    H112771   2.293   0.810   4.967 -1.2223  0.3961 -0.0124
 4255TIP3    H212772   2.387   0.701   4.919 -1.0143  0.0592  1.1226
 4256TIP3   OH212773   4.091   4.308   4.471  0.4698 -0.3341 -0.5503
 4256TIP3    H112774   3.996   4.316   4.479  0.7882  3.0076  2.2137
 4256TIP3    H212775   4.113   4.362   4.395  0.3380  2.8719  1.5088
 4257TIP3   OH212776   0.800   2.685   4.359  0.4466 -0.2939 -0.0412
 4257TIP3    H112777   0.758   2.601   4.340 -1.8280  1.1455 -2.0462
 4257TIP3    H212778   0.776   2.704   4.450  1.0980 -1.8112  0.4761
 4258TIP3   OH212779   0.712   2.488   2.926 -0.2905  0.1206  0.0780
 4258TIP3    H112780   0.771   2.448   2.990 -0.1308 -1.0126 -0.7504
 4258TIP3    H212781   0.769   2.511   2.853 -0.6176  0.5647 -0.0365
 4259TIP3   OH212782   3.487   3.998   5.153  0.3597 -0.1346 -0.1245
 4259TIP3    H112783   3.567   3.947   5.144 -0.5943 -1.5413 -1.0426
 4259TIP3    H212784   3.463   3.990   5.245  0.3154 -1.2332 -0.2235
 4260TIP3   OH212785   4.043   2.102   3.387  0.0319 -0.1354 -0.0634
 4260TIP3    H112786   4.067   2.049   3.463 -0.3504 -0.7453 -0.3597
 4260TIP3    H212787   4.053   2.193   3.417  0.7825 -0.3657  0.4243
 4261TIP3   OH212788   2.034   4.092   4.977  0.1957  0.2385  0.4528
 4261TIP3    H112789   1.990   4.135   5.050  1.5823  0.2965  1.2858
 4261TIP3    H212790   2.087   4.161   4.936 -1.2766  0.4491 -1.2447
 4262TIP3   OH212791   1.766   5.304   2.065  0.1818 -0.0765 -0.2136
 4262TIP3    H112792   1.716   5.305   2.146 -1.1070 -0.7839 -0.9536
 4262TIP3    H212793   1.753   5.391   2.027  0.4816  0.1322  0.1627
 4263TIP3   OH212794   6.203   4.089   0.568 -0.3190 -0.2044  0.4500
 4263TIP3    H112795   6.182   4.047   0.651  0.2004 -0.1733  0.6001
 4263TIP3    H212796   6.119   4.097   0.523 -0.2466 -3.4210 -0.5327
 4264TIP3   OH212797   4.650   2.479   4.260 -0.2430 -0.3718  0.3768
 4264TIP3    H112798   4.629   2.440   4.175  0.4249  0.5234 -0.2220
 4264TIP3    H212799   4.600   2.428   4.323  0.0095 -1.6792 -0.4543
 4265TIP3   OH212800   0.244   3.425   3.982 -0.0841  0.3434  0.3256
 4265TIP3    H112801   0.199   3.499   4.024  1.0809  0.4302  1.4830
 4265TIP3    H212802   0.332   3.458   3.965  0.4307 -0.7752  0.7977
 4266TIP3   OH212803   1.281   0.320   3.748  0.1051  0.5559 -0.0777
 4266TIP3    H112804   1.225   0.370   3.807 -0.2160 -1.7885  1.7351
 4266TIP3    H212805   1.220   0.266   3.698  0.5351  0.8993 -0.9985
 4267TIP3   OH212806   2.290   4.913   4.880 -0.3760  0.0210  0.2520
 4267TIP3    H112807   2.355   4.862   4.929 -1.2576 -0.7565  0.6388
 4267TIP3    H212808   2.274   4.862   4.801  1.8303  1.7820 -1.4851
 4268TIP3   OH212809   0.038   4.568   3.885  0.6240 -0.1108 -0.0742
 4268TIP3    H112810   0.002   4.583   3.972  0.8055 -0.1109  0.0002
 4268TIP3    H212811  -0.031   4.522   3.838  0.6675 -0.4415  0.1826
 4269TIP3   OH212812   2.777   1.137   4.259 -0.0315  0.1801  0.3213
 4269TIP3    H112813   2.834   1.166   4.330  0.1349 -1.0424  0.7112
 4269TIP3    H212814   2.688   1.155   4.291  0.0810  1.2332  0.0951
 4270TIP3   OH212815   6.206   1.093   1.204 -0.7657 -0.6557 -0.3938
 4270TIP3    H112816   6.111   1.095   1.199 -0.8365  0.9552  0.7583
 4270TIP3    H212817   6.230   1.178   1.240  1.0836 -1.1954 -0.2346
 4271TIP3   OH212818   2.075   4.219   3.305 -0.0935 -0.2303  0.0364
 4271TIP3    H112819   1.996   4.265   3.276  0.9453  0.7343 -1.3698
 4271TIP3    H212820   2.078   4.235   3.399 -0.9269  0.7600 -0.0805
 4272TIP3   OH212821   3.406   1.477   4.696 -0.7746  0.2862  0.3465
 4272TIP3    H112822   3.326   1.529   4.702 -1.5128 -0.5356 -1.4871
 4272TIP3    H212823   3.379   1.388   4.718  0.0997  0.3377  1.7289
 4273TIP3   OH212824   0.833   3.879   3.098  1.1049 -0.3164 -0.0834
 4273TIP3    H112825   0.854   3.947   3.034 -1.9784 -1.0373 -2.0723
 4273TIP3    H212826   0.745   3.901   3.129  0.7116 -2.4403  0.5008
 4274TIP3   OH212827   2.808   0.266   1.331 -0.6119  0.0796 -0.0430
 4274TIP3    H112828   2.837   0.272   1.240 -0.4292 -1.2526 -0.0952
 4274TIP3    H212829   2.792   0.172   1.344 -1.9655  0.4171  0.8902
 4275TIP3   OH212830   6.107   0.770   2.186  0.1311  0.8140 -0.0977
 4275TIP3    H112831   6.163   0.846   2.202 -1.2852  1.6535  1.1148
 4275TIP3    H212832   6.019   0.798   2.211 -1.1091 -0.0897 -2.9537
 4276TIP3   OH212833   0.014   0.583   1.776  0.2826 -0.5960  0.0047
 4276TIP3    H112834   0.100   0.559   1.810  0.4869  1.5899  1.1919
 4276TIP3    H212835   0.030   0.659   1.720 -0.7682 -0.8028 -0.6210
 4277TIP3   OH212836   3.698   3.932   0.513 -0.1476 -0.2285  0.3925
 4277TIP3    H112837   3.641   3.947   0.437 -0.0979 -0.7059  0.2566
 4277TIP3    H212838   3.782   3.908   0.475 -0.1791 -0.6720  0.5998
 4278TIP3   OH212839   4.341   5.814   1.752  0.4454 -0.0816 -0.1115
 4278TIP3    H112840   4.260   5.776   1.717  1.0793 -0.5779 -1.0509
 4278TIP3    H212841   4.399   5.739   1.767  0.5925  0.2234  0.9950
 4279TIP3   OH212842   4.630   4.754   1.028 -0.1063 -0.1766  0.1074
 4279TIP3    H112843   4.673   4.676   0.993 -0.0963 -0.4631  0.7432
 4279TIP3    H212844   4.553   4.720   1.074  1.4572 -0.1425  2.9690
 4280TIP3   OH212845   2.419   2.383   0.187 -0.1816 -0.6286 -0.0554
 4280TIP3    H112846   2.382   2.298   0.211 -0.5516 -0.3447  0.4141
 4280TIP3    H212847   2.348   2.427   0.140  0.1365 -0.7176 -0.6367
 4281TIP3   OH212848   6.070   2.200   4.155 -0.5403 -0.0778 -0.5253
 4281TIP3    H112849   6.160   2.184   4.186 -0.8412  2.6508  2.2245
 4281TIP3    H212850   6.015   2.147   4.214 -0.8399  0.1739 -0.5792
 4282TIP3   OH212851   4.989   2.524   3.838  0.2327 -0.3516 -0.4930
 4282TIP3    H112852   5.017   2.443   3.796  0.4700 -0.5148 -0.0215
 4282TIP3    H212853   4.936   2.496   3.913  1.8047 -0.1366  0.7577
 4283TIP3   OH212854   4.671   4.591   0.407  0.2554  0.2626 -0.0872
 4283TIP3    H112855   4.704   4.664   0.354  0.6121 -0.4465 -0.8583
 4283TIP3    H212856   4.635   4.633   0.485 -0.4409  1.3562 -0.9584
 4284TIP3   OH212857   6.064   0.716   4.877 -0.4394 -0.0572 -0.2928
 4284TIP3    H112858   5.969   0.725   4.866 -0.7352  1.1834  2.3503
 4284TIP3    H212859   6.074   0.654   4.949  0.8709 -1.4399 -1.6056
 4285TIP3   OH212860   4.980   2.134   2.593  0.3429 -0.4328  0.3148
 4285TIP3    H112861   5.002   2.172   2.508  1.8589  1.0727  1.3049
 4285TIP3    H212862   4.885   2.139   2.598  0.0607 -2.1379 -1.9501
 4286TIP3   OH212863   0.741   3.679   2.528 -0.3801  0.1987 -0.3460
 4286TIP3    H112864   0.784   3.602   2.567 -0.9963  0.2573  0.4879
 4286TIP3    H212865   0.653   3.678   2.565 -0.5873  0.9740 -0.7971
 4287TIP3   OH212866   0.921   3.772   4.102 -0.4149 -0.0346 -0.5238
 4287TIP3    H112867   0.875   3.819   4.033  1.6251 -1.3147 -2.9133
 4287TIP3    H212868   0.997   3.828   4.122 -0.0197 -0.5192 -0.6540
 4288TIP3   OH212869   0.163   3.139   1.088 -0.0155 -0.0437 -0.6877
 4288TIP3    H112870   0.226   3.172   1.151 -0.8132  1.8899 -0.8381
 4288TIP3    H212871   0.170   3.044   1.094  3.6587  0.0183 -1.4555
 4289TIP3   OH212872   0.312   2.223   4.015  0.7606  0.2796  0.3275
 4289TIP3    H112873   0.235   2.267   4.050  0.5673  0.4902 -0.3351
 4289TIP3    H212874   0.386   2.270   4.053  0.5611  0.3141  0.6744
 4290TIP3   OH212875   4.862   3.647   2.525 -0.4169 -0.2830  0.2549
 4290TIP3    H112876   4.908   3.570   2.491 -1.5628 -0.5358 -0.8280
 4290TIP3    H212877   4.843   3.699   2.447 -0.0708  0.8763  0.9298
 4291TIP3   OH212878   5.098   3.790   1.346  0.1803  0.0419 -0.1247
 4291TIP3    H112879   5.053   3.771   1.263 -0.6327  0.9976  0.0830
 4291TIP3    H212880   5.141   3.874   1.331 -0.3862  0.4646  0.5801
 4292TIP3   OH212881   1.238   1.632   1.226 -0.1437  0.3058  0.1503
 4292TIP3    H112882   1.307   1.691   1.194  0.0549  0.4144  0.7546
 4292TIP3    H212883   1.160   1.687   1.231  0.3654  0.9647  2.1260
 4293TIP3   OH212884   0.770   3.443   1.713  0.8148  0.4574 -0.2790
 4293TIP3    H112885   0.761   3.435   1.618 -0.0549 -0.0801 -0.1646
 4293TIP3    H212886   0.682   3.426   1.746  1.1389  0.5282  0.6328
 4294TIP3   OH212887   0.183   3.561   4.951 -0.0619  0.4527 -0.4772
 4294TIP3    H112888   0.165   3.648   4.914  2.6502  1.6728  0.7755
 4294TIP3    H212889   0.264   3.533   4.909  1.0718  0.2074  1.7091
 4295TIP3   OH212890   6.018   5.482   2.410  0.3237 -0.3801  0.1009
 4295TIP3    H112891   6.082   5.513   2.474 -1.7410  0.0294  2.1287
 4295TIP3    H212892   5.949   5.442   2.463 -0.5501 -1.9470 -2.0387
 4296TIP3   OH212893   2.083   3.819   5.080 -0.4470  0.0096 -0.7670
 4296TIP3    H112894   2.154   3.855   5.133 -0.0284 -1.6699 -0.1117
 4296TIP3    H212895   2.089   3.866   4.997  0.9648  0.4226 -0.4582
 4297TIP3   OH212896   5.595   5.364   0.709 -0.0900 -0.3004  0.1427
 4297TIP3    H112897   5.607   5.404   0.795 -1.9555 -1.0032  0.7768
 4297TIP3    H212898   5.656   5.411   0.652  1.0151  0.3428  1.7837
 4298TIP3   OH212899   0.883   1.964   3.094  0.4090  0.2069  0.3576
 4298TIP3    H112900   0.944   2.031   3.065  0.2678  0.2013  0.0441
 4298TIP3    H212901   0.938   1.893   3.126  0.5558  0.6715  1.1466
 4299TIP3   OH212902   3.155   4.144   3.157 -0.2966 -0.2127 -0.0523
 4299TIP3    H112903   3.072   4.177   3.190  0.3014  0.2242  1.0637
 4299TIP3    H212904   3.221   4.176   3.219  0.7842 -0.0516 -1.2309
 4300TIP3   OH212905   0.928   2.913   1.350 -0.0510  0.3365  0.3037
 4300TIP3    H112906   0.857   2.965   1.387 -1.5671 -1.0114 -0.5722
 4300TIP3    H212907   0.961   2.965   1.276 -1.4609  0.1509 -0.4848
 4301TIP3   OH212908   0.027   5.246   3.017 -0.2753  0.0744 -0.5684
 4301TIP3    H112909  -0.035   5.253   3.090  1.4475  2.3665  0.7864
 4301TIP3    H212910   0.109   5.219   3.058  0.6737  1.1946 -1.6547
 4302TIP3   OH212911   2.268   3.625   4.976 -0.2432  0.1159  0.0132
 4302TIP3    H112912   2.210   3.698   4.956 -1.0058 -0.7235 -0.9564
 4302TIP3    H212913   2.252   3.605   5.068  0.2528  1.3924  0.3924
 4303TIP3   OH212914   4.387   4.251   2.355  0.7068  0.1562 -0.1996
 4303TIP3    H112915   4.301   4.241   2.396  1.2882  0.6301  1.2410
 4303TIP3    H212916   4.432   4.169   2.372  1.0041  0.4100  0.2677
 4304TIP3   OH212917   5.473   2.352   1.015  0.4893 -0.5551 -0.1363
 4304TIP3    H112918   5.411   2.391   0.953 -0.2221 -1.6395 -0.1447
 4304TIP3    H212919   5.519   2.426   1.053 -0.2618  0.2344 -0.7271
 4305TIP3   OH212920   2.545   5.798   3.129  0.8009 -0.6951  0.7788
 4305TIP3    H112921   2.474   5.816   3.068  1.1376 -0.4616  0.4516
 4305TIP3    H212922   2.502   5.759   3.205  0.2687 -0.1709  0.7586
 4306TIP3   OH212923   1.747   5.397   0.983  0.6059  0.5418 -0.1368
 4306TIP3    H112924   1.695   5.318   1.000  1.3859 -0.0397 -0.4171
 4306TIP3    H212925   1.838   5.369   0.992  1.0139  0.7666 -2.6745
 4307TIP3   OH212926   4.131   3.319   1.705  0.2902  0.0962 -0.5401
 4307TIP3    H112927   4.211   3.302   1.755 -0.2610 -0.9709  0.0293
 4307TIP3    H212928   4.160   3.323   1.614  0.7231 -2.7398 -0.6149
 4308TIP3   OH212929   5.641   1.365   1.326 -0.3702 -0.3512  0.0375
 4308TIP3    H112930   5.663   1.455   1.301 -1.4630  0.0715  0.5605
 4308TIP3    H212931   5.578   1.336   1.260 -0.8188 -0.3605  0.4661
 4309TIP3   OH212932   1.095   2.084   3.533  0.6449 -0.6676 -0.1278
 4309TIP3    H112933   1.114   2.176   3.551  1.6021 -0.9551  0.4235
 4309TIP3    H212934   1.177   2.050   3.498  0.3315 -1.3380 -0.2226
 4310TIP3   OH212935   0.119   5.689   2.047 -0.4938  0.0941  0.2097
 4310TIP3    H112936   0.128   5.698   1.952 -0.2220  0.7607  0.2982
 4310TIP3    H212937   0.116   5.594   2.061 -0.5254 -0.0094 -0.4631
 4311TIP3   OH212938   1.705   1.542   4.696 -0.7319 -0.1657  0.7103
 4311TIP3    H112939   1.677   1.471   4.752 -1.0385 -0.5832  0.0441
 4311TIP3    H212940   1.725   1.500   4.612  0.1423  0.3817  0.6392
 4312TIP3   OH212941   1.518   2.955   1.232 -0.6813 -0.0852  0.0318
 4312TIP3    H112942   1.565   3.006   1.298 -0.5791  1.7370 -1.3582
 4312TIP3    H212943   1.475   2.886   1.281  0.6891  0.2392  1.7844
 4313TIP3   OH212944   2.239   4.064   2.473  0.2147 -0.0798 -0.0516
 4313TIP3    H112945   2.265   4.037   2.561  2.0382 -0.3713 -0.6312
 4313TIP3    H212946   2.195   4.148   2.485 -0.5924 -0.6599  1.2343
 4314TIP3   OH212947   6.102   3.542   1.510  0.1416 -0.4695  0.1934
 4314TIP3    H112948   6.089   3.449   1.492  1.7092 -0.5364 -0.7057
 4314TIP3    H212949   6.197   3.554   1.514  0.0424  1.3793 -1.4078
 4315TIP3   OH212950   2.889   0.555   4.237 -0.0087 -0.4152 -0.3853
 4315TIP3    H112951   2.879   0.601   4.320 -0.0870 -1.6582  0.3219
 4315TIP3    H212952   2.866   0.464   4.257 -0.9683 -0.5717 -1.9841
 4316TIP3   OH212953   1.544   2.256   1.765  0.0385 -0.0902  0.2765
 4316TIP3    H112954   1.540   2.165   1.735 -2.1341 -0.0068  0.1130
 4316TIP3    H212955   1.524   2.251   1.858 -0.0568  0.2099  0.2733
 4317TIP3   OH212956   1.412   4.657   0.264  0.1417 -0.3920 -0.0228
 4317TIP3    H112957   1.483   4.657   0.200 -0.4362 -2.5694 -0.7408
 4317TIP3    H212958   1.451   4.696   0.343  1.3467  0.7995 -1.1675
 4318TIP3   OH212959   4.211   5.732   4.808  0.1175  0.1866  0.0131
 4318TIP3    H112960   4.187   5.775   4.890 -2.0419  1.6163 -1.2844
 4318TIP3    H212961   4.137   5.675   4.788  0.9693 -0.7440 -0.5876
 4319TIP3   OH212962   0.292   3.087   3.680 -0.1731 -0.2361 -0.2229
 4319TIP3    H112963   0.310   3.087   3.586 -0.7098  2.1075 -0.3847
 4319TIP3    H212964   0.324   3.172   3.710  1.7038 -1.6492  2.1066
 4320TIP3   OH212965   2.178   4.190   0.458  0.3075  0.1510  0.3019
 4320TIP3    H112966   2.159   4.097   0.462 -1.9335  0.5503  0.3143
 4320TIP3    H212967   2.103   4.228   0.413 -0.1642  2.2778  2.6736
 4321TIP3   OH212968   0.247   3.893   0.556 -0.3851  0.6768  0.1206
 4321TIP3    H112969   0.311   3.860   0.493  2.1847  0.9857  2.3383
 4321TIP3    H212970   0.184   3.821   0.566  0.4154 -0.2398 -1.1499
 4322TIP3   OH212971   1.076   0.963   3.220  0.1247  0.0614 -0.0567
 4322TIP3    H112972   1.162   0.928   3.197 -1.0055 -2.2049 -1.1930
 4322TIP3    H212973   1.041   0.901   3.285 -0.1478  1.7152  1.4455
 4323TIP3   OH212974   1.218   4.845   4.063  0.6063 -0.2705 -0.3625
 4323TIP3    H112975   1.299   4.827   4.111  0.7088 -0.2141 -0.5111
 4323TIP3    H212976   1.166   4.766   4.072  0.1596  0.1307  0.7595
 4324TIP3   OH212977   2.499   2.061   4.824 -0.1569  0.0577  0.2377
 4324TIP3    H112978   2.586   2.092   4.851 -0.7484  0.6075  1.5780
 4324TIP3    H212979   2.499   2.073   4.729  0.4639  2.1028  0.4367
 4325TIP3   OH212980   0.357   0.279   2.173  0.2538 -0.3475  0.2180
 4325TIP3    H112981   0.339   0.373   2.177 -1.4670 -0.6460  0.2947
 4325TIP3    H212982   0.452   0.272   2.186  0.2226  1.2830  1.6731
 4326TIP3   OH212983   0.058   3.317   2.600 -0.3848 -0.1169 -0.2632
 4326TIP3    H112984   0.077   3.410   2.588  1.6610 -0.2536  1.4503
 4326TIP3    H212985   0.125   3.286   2.660 -2.3207 -2.2215  0.9729
 4327TIP3   OH212986   5.053   3.642   3.728 -0.4399  0.1843 -0.5664
 4327TIP3    H112987   5.044   3.550   3.706 -0.4018  0.1560 -0.4607
 4327TIP3    H212988   5.124   3.674   3.672  0.4189 -0.1484  0.3225
 4328TIP3   OH212989   0.989   0.964   4.113  0.0975  0.1380  0.0032
 4328TIP3    H112990   1.050   0.895   4.136  0.0015 -0.3575 -1.1712
 4328TIP3    H212991   0.939   0.929   4.039 -1.3608  0.6730  0.6911
 4329TIP3   OH212992   5.554   5.519   1.817 -0.1570  0.2095  0.3781
 4329TIP3    H112993   5.557   5.473   1.900 -0.1313 -0.1015  0.2068
 4329TIP3    H212994   5.463   5.546   1.808 -0.2622 -0.1636  0.2914
 4330TIP3   OH212995   3.560   2.459   0.400  0.2707  0.2500  0.1406
 4330TIP3    H112996   3.539   2.533   0.456 -1.9623 -0.8434  0.8682
 4330TIP3    H212997   3.560   2.494   0.311  1.0577  1.4472  0.5948
 4331TIP3   OH212998   1.726   0.936   1.381  0.0835  0.0889  0.0219
 4331TIP3    H112999   1.813   0.898   1.391  0.4177  0.2404 -1.9323
 4331TIP3    H213000   1.740   1.014   1.327 -1.4069 -0.6499 -1.5165
 4332TIP3   OH213001   6.252   0.489   3.412  0.5715 -0.2012  0.1634
 4332TIP3    H113002   6.169   0.481   3.459 -1.1973 -1.6934 -2.8937
 4332TIP3    H213003   6.316   0.448   3.470 -1.1219 -0.4244  1.9819
 4333TIP3   OH213004   4.818   5.376   2.166 -0.0104  0.2350  0.0547
 4333TIP3    H113005   4.835   5.314   2.238 -0.8649  0.3771  0.3863
 4333TIP3    H213006   4.869   5.453   2.189 -0.7024  0.4821  0.8016
 4334TIP3   OH213007   5.266   0.881   4.990 -0.4444  0.4335  0.1226
 4334TIP3    H113008   5.225   0.856   5.072  1.7765 -1.4812  0.7591
 4334TIP3    H213009   5.302   0.968   5.007  0.2570 -0.0694  1.3123
 4335TIP3   OH213010   1.154   3.736   3.516 -0.1706  0.7481 -0.3413
 4335TIP3    H113011   1.236   3.746   3.565 -0.4092  0.0371  0.2170
 4335TIP3    H213012   1.175   3.677   3.444 -0.7283 -1.4612  1.1998
 4336TIP3   OH213013   0.729   3.784   4.720 -0.5080 -0.2504 -0.6420
 4336TIP3    H113014   0.820   3.758   4.729 -0.9895 -1.8733 -0.0560
 4336TIP3    H213015   0.729   3.878   4.739  0.7341 -0.6297  1.7409
 4337TIP3   OH213016   2.622   5.546   1.003 -0.0744  0.0979  0.1899
 4337TIP3    H113017   2.608   5.577   0.913 -5.5126  2.6360  1.5077
 4337TIP3    H213018   2.651   5.624   1.050  0.1405 -0.5475  1.1483
 4338TIP3   OH213019   3.625   3.923   3.009 -0.0579  0.3486 -0.5146
 4338TIP3    H113020   3.675   3.863   3.063 -2.6725 -0.8474  0.7200
 4338TIP3    H213021   3.581   3.982   3.071  1.0931  2.5017 -1.6207
 4339TIP3   OH213022   5.403   4.779   1.248 -0.3255  0.2250 -0.5260
 4339TIP3    H113023   5.308   4.777   1.256 -0.2580 -0.9319  0.2198
 4339TIP3    H213024   5.428   4.863   1.287 -1.0237  0.4323 -0.5107
 4340TIP3   OH213025   5.789   3.788   5.061 -0.0848  0.1211 -0.2857
 4340TIP3    H113026   5.850   3.835   5.118  0.8726  1.6095 -2.3962
 4340TIP3    H213027   5.711   3.774   5.116  1.0808  0.7029  1.6108
 4341TIP3   OH213028   1.032   4.633   3.649 -0.0626  0.5352  0.1884
 4341TIP3    H113029   0.998   4.552   3.688 -1.0229  0.0559 -1.5289
 4341TIP3    H213030   0.954   4.677   3.615  0.6819  1.1219 -0.8007
 4342TIP3   OH213031   2.063   3.950   3.638  0.4188 -0.2961 -0.3045
 4342TIP3    H113032   2.029   3.978   3.723 -1.6747 -1.6275 -0.6139
 4342TIP3    H213033   2.130   3.885   3.658 -1.5780 -2.2401  0.3987
 4343TIP3   OH213034   4.876   5.543   4.943  0.1826  0.6161  0.0093
 4343TIP3    H113035   4.927   5.598   5.002 -0.3905  0.0617  1.0397
 4343TIP3    H213036   4.804   5.510   4.996  1.3252 -2.3763 -0.1038
 4344TIP3   OH213037   6.023   1.451   2.604  0.4092  0.2026  0.0302
 4344TIP3    H113038   5.941   1.497   2.622  0.0654  0.3083 -1.6192
 4344TIP3    H213039   6.008   1.362   2.638  0.1740  0.6238  1.0600
 4345TIP3   OH213040   5.094   4.621   4.716 -0.2379 -0.2517  0.0810
 4345TIP3    H113041   5.187   4.638   4.699 -0.3577  1.8207  1.2716
 4345TIP3    H213042   5.093   4.584   4.804 -0.4890 -1.4345 -0.3886
 4346TIP3   OH213043   5.513   5.415   4.029 -0.0133  0.0723 -0.0492
 4346TIP3    H113044   5.601   5.441   4.055  0.2074 -0.5048 -0.2067
 4346TIP3    H213045   5.495   5.467   3.951 -0.7663  1.9809  1.3252
 4347TIP3   OH213046   6.120   4.010   4.177  0.0611  0.1668  0.0755
 4347TIP3    H113047   6.182   4.050   4.117 -0.7971 -0.8072 -1.5570
 4347TIP3    H213048   6.036   4.052   4.156 -0.1045  0.4387  1.2259
 4348TIP3   OH213049   5.315   0.799   0.997 -0.5490 -0.5806 -0.3447
 4348TIP3    H113050   5.306   0.836   1.085 -1.3771 -2.6594  0.5310
 4348TIP3    H213051   5.278   0.864   0.938 -0.7324  0.4991  0.9365
 4349TIP3   OH213052   2.363   5.603   2.817 -0.2512 -0.4237 -0.2905
 4349TIP3    H113053   2.436   5.566   2.867 -0.1354 -0.1925 -0.2884
 4349TIP3    H213054   2.349   5.690   2.856 -0.7778 -0.6151 -0.0329
 4350TIP3   OH213055   5.795   4.243   2.891  0.1286 -0.9750  0.1209
 4350TIP3    H113056   5.727   4.187   2.927 -1.4847  1.7505  1.6197
 4350TIP3    H213057   5.752   4.290   2.820  1.0404 -0.6180 -0.2162
 4351TIP3   OH213058   5.389   0.988   0.104 -0.4446  0.2513 -0.0833
 4351TIP3    H113059   5.452   0.938   0.052  2.7142  1.9433  1.8242
 4351TIP3    H213060   5.348   0.923   0.160 -0.9642 -0.9910 -1.8083
 4352TIP3   OH213061   4.860   0.032   1.809 -0.3873 -0.0046 -0.4662
 4352TIP3    H113062   4.929  -0.031   1.788 -1.8600 -1.7330 -0.3434
 4352TIP3    H213063   4.898   0.088   1.877  0.6079 -1.4772  0.2477
 4353TIP3   OH213064   1.509   3.586   2.792  0.5356 -0.0900  0.3999
 4353TIP3    H113065   1.497   3.586   2.697  0.0188  1.0589  0.4540
 4353TIP3    H213066   1.429   3.545   2.826 -0.4378  1.7046  0.4288
 4354TIP3   OH213067   5.673   2.071   4.674  0.2422 -0.1342 -0.1011
 4354TIP3    H113068   5.641   2.016   4.746 -0.1395 -1.5801 -1.3065
 4354TIP3    H213069   5.737   2.016   4.630  1.7568  1.3783  0.1185
 4355TIP3   OH213070   5.972   4.710   2.547  0.1768  0.3045  0.1202
 4355TIP3    H113071   6.012   4.630   2.514 -0.3820 -0.6415  1.6320
 4355TIP3    H213072   5.952   4.761   2.469 -0.3539 -1.4664 -0.9537
 4356TIP3   OH213073   4.574   0.654   4.559 -0.4821 -0.4425 -0.1395
 4356TIP3    H113074   4.669   0.662   4.552 -0.4566  2.2565  1.7775
 4356TIP3    H213075   4.561   0.571   4.606  0.8751 -0.9891 -0.6680
 4357TIP3   OH213076   3.198   5.783   3.381  0.4472 -0.0142 -0.3575
 4357TIP3    H113077   3.215   5.690   3.366 -0.6290 -0.3700  0.4925
 4357TIP3    H213078   3.121   5.802   3.327  1.9677  0.9644 -2.2773
 4358TIP3   OH213079   3.290   1.859   4.066  0.4065 -0.9047 -0.4583
 4358TIP3    H113080   3.339   1.921   4.012 -0.1622 -0.3900 -0.3869
 4358TIP3    H213081   3.232   1.913   4.119 -0.1846 -1.5030 -0.4807
 4359TIP3   OH213082   0.119   4.270   2.612  0.4792  0.2106 -0.3481
 4359TIP3    H113083   0.079   4.183   2.604  1.5779 -0.2191 -1.5072
 4359TIP3    H213084   0.157   4.287   2.526  1.0148  1.4893  0.1132
 4360TIP3   OH213085   1.296   0.024   3.458  0.6901 -0.6767  0.0736
 4360TIP3    H113086   1.307  -0.065   3.425 -1.0874 -0.4926 -1.1586
 4360TIP3    H213087   1.213   0.053   3.421  1.0288  1.3550  0.7851
 4361TIP3   OH213088   3.397   4.086   4.649  0.4168 -0.0949  0.7027
 4361TIP3    H113089   3.329   4.056   4.709  2.4025 -1.3081  2.4586
 4361TIP3    H213090   3.474   4.100   4.704  2.3774 -1.3861 -1.5526
 4362TIP3   OH213091   0.106   3.685   1.042 -0.2314  0.1855  0.2780
 4362TIP3    H113092   0.022   3.706   1.002 -0.3267  1.4622  1.1085
 4362TIP3    H213093   0.158   3.648   0.971 -1.3268 -0.1988 -0.3502
 4363TIP3   OH213094   1.273   0.888   1.986  0.0587 -0.2621 -0.3274
 4363TIP3    H113095   1.242   0.808   1.942  0.0392 -1.4088  1.6426
 4363TIP3    H213096   1.329   0.856   2.057  1.3797  1.5773 -0.4818
 4364TIP3   OH213097   5.379   0.291   0.013  0.3254  0.0031  0.4528
 4364TIP3    H113098   5.334   0.374   0.024 -0.2432 -0.2922  0.3666
 4364TIP3    H213099   5.317   0.235  -0.034  1.1300 -0.1046 -0.5296
 4365TIP3   OH213100   4.157   1.603   4.376 -0.0246 -0.2306 -0.4801
 4365TIP3    H113101   4.080   1.629   4.426 -0.2283 -0.0347 -0.8905
 4365TIP3    H213102   4.194   1.530   4.425 -1.0302 -0.9783 -0.8019
 4366TIP3   OH213103   5.481   4.903   2.994 -0.0933 -0.1329  0.1017
 4366TIP3    H113104   5.406   4.960   2.978 -0.5563 -0.6421  0.4394
 4366TIP3    H213105   5.505   4.869   2.908 -0.6298 -0.4346  0.0672
 4367TIP3   OH213106   5.804   5.251   4.606 -0.3959  0.0274  0.1154
 4367TIP3    H113107   5.825   5.242   4.513 -0.5248 -0.4591  0.1312
 4367TIP3    H213108   5.761   5.336   4.613 -0.1990  0.1591 -0.2342
 4368TIP3   OH213109   0.395   3.156   0.353  0.1263 -0.3067 -0.3200
 4368TIP3    H113110   0.306   3.134   0.380  0.1844  0.4703  0.5217
 4368TIP3    H213111   0.420   3.084   0.296 -1.3906 -0.0687 -1.3601
 4369TIP3   OH213112   0.887   3.606   3.207  0.3648 -0.0764 -0.3744
 4369TIP3    H113113   0.814   3.581   3.263  0.5378 -1.8440 -0.8760
 4369TIP3    H213114   0.855   3.682   3.158 -0.5542  0.1494  0.5358
 4370TIP3   OH213115   2.471   4.089   3.903 -0.1332  0.0697  0.0786
 4370TIP3    H113116   2.531   4.054   3.837 -0.7841 -0.3505 -0.3094
 4370TIP3    H213117   2.461   4.181   3.881 -2.9715 -0.6908 -2.5925
 4371TIP3   OH213118   0.082   5.478   4.469  0.1761 -0.6148  0.7167
 4371TIP3    H113119   0.030   5.559   4.470  1.0561 -0.0112 -0.4910
 4371TIP3    H213120   0.140   5.485   4.545  0.1330 -0.1951  0.7110
 4372TIP3   OH213121   4.462   2.366   1.340 -0.0647 -0.3297 -0.5106
 4372TIP3    H113122   4.472   2.308   1.415  0.5692 -0.3422 -0.5962
 4372TIP3    H213123   4.551   2.379   1.308  0.3549  3.5500  1.6648
 4373TIP3   OH213124   5.743   0.730   4.867  0.4806 -0.0565 -0.1078
 4373TIP3    H113125   5.752   0.760   4.776 -1.3993  1.4461  0.1403
 4373TIP3    H213126   5.650   0.738   4.885  0.6152 -1.7159  1.5306
 4374TIP3   OH213127   6.044   1.538   3.983 -0.2806  0.6726  0.2762
 4374TIP3    H113128   6.129   1.581   3.994  0.1360 -0.2104  0.5565
 4374TIP3    H213129   6.059   1.471   3.916 -0.2333 -0.8497  1.7665
 4375TIP3   OH213130   6.134   3.487   0.277  0.2225  0.9032  0.7089
 4375TIP3    H113131   6.209   3.432   0.256  0.6898  1.3017  1.3048
 4375TIP3    H213132   6.143   3.563   0.219  1.2061  1.7369  1.8992
 4376TIP3   OH213133   6.111   1.491   1.782 -0.0495 -0.0542 -0.3105
 4376TIP3    H113134   6.113   1.492   1.878  0.3437  1.2334 -0.3105
 4376TIP3    H213135   6.051   1.419   1.760  2.6477 -2.8842  0.8080
 4377TIP3   OH213136   2.319   3.029   2.784  0.3101 -0.1679  0.4190
 4377TIP3    H113137   2.345   2.984   2.704 -0.0469  0.0268  0.1930
 4377TIP3    H213138   2.341   2.967   2.854  3.5928  0.8914  0.4798
 4378TIP3   OH213139   0.803   2.557   1.538 -0.5555  0.2021  0.2293
 4378TIP3    H113140   0.783   2.510   1.618 -0.2763 -1.3555 -0.5841
 4378TIP3    H213141   0.736   2.529   1.476 -0.3923  0.8972 -0.2766
 4379TIP3   OH213142   0.396   0.379   4.430  0.1685  0.4067 -0.0460
 4379TIP3    H113143   0.386   0.308   4.367  1.3298  1.1673 -1.1412
 4379TIP3    H213144   0.349   0.349   4.508  0.1781 -1.3211 -0.6626
 4380TIP3   OH213145   3.888   4.218   4.821  0.4404 -0.0538  0.6164
 4380TIP3    H113146   3.980   4.246   4.822  0.4930 -0.2263  1.4727
 4380TIP3    H213147   3.860   4.230   4.730  0.6798  2.0284  0.7849
 4381TIP3   OH213148   4.842   2.991   1.104  0.0287 -0.5173 -0.6106
 4381TIP3    H113149   4.776   3.060   1.113 -0.6945 -1.3192  0.6306
 4381TIP3    H213150   4.924   3.033   1.130  0.0526  0.4926 -2.1611
 4382TIP3   OH213151   0.766   1.349   1.695 -0.2950 -0.2510  0.2431
 4382TIP3    H113152   0.798   1.271   1.741 -1.1249  0.0192  1.3293
 4382TIP3    H213153   0.828   1.418   1.720  0.1077 -0.4303 -0.2516
 4383TIP3   OH213154   6.072   5.093   2.674 -0.1102 -0.2993  0.1719
 4383TIP3    H113155   6.121   5.166   2.711 -1.1090  0.1542  0.6533
 4383TIP3    H213156   6.128   5.016   2.688  0.9006  0.3414 -0.2439
 4384TIP3   OH213157   0.512   5.753   2.974  0.1620 -0.3254 -0.0125
 4384TIP3    H113158   0.592   5.703   2.957  0.3649 -0.0744  0.1966
 4384TIP3    H213159   0.537   5.816   3.041 -0.1240 -0.0174 -0.1935
 4385TIP3   OH213160   1.772   3.533   4.482  0.1065  0.2301 -0.2312
 4385TIP3    H113161   1.780   3.486   4.399  2.4342  0.1001 -0.0088
 4385TIP3    H213162   1.845   3.595   4.481  0.9882 -0.6503  2.2183
 4386TIP3   OH213163   4.649   0.705   3.396 -0.0331 -0.5732  0.4454
 4386TIP3    H113164   4.557   0.685   3.415  0.5833 -1.8916  2.2665
 4386TIP3    H213165   4.661   0.794   3.429 -0.1002 -1.2490  2.3894
 4387TIP3   OH213166   1.733   3.091   1.081  0.0206  0.3315  0.0850
 4387TIP3    H113167   1.671   3.019   1.093  0.3401 -0.3702 -2.0645
 4387TIP3    H213168   1.819   3.052   1.097  0.0572  0.9114  1.4677
 4388TIP3   OH213169   2.804   0.576   3.202 -0.2164 -0.6851 -0.2062
 4388TIP3    H113170   2.817   0.647   3.264 -0.0148 -0.9488  0.0554
 4388TIP3    H213171   2.725   0.531   3.232  0.4668 -1.4556  0.4859
 4389TIP3   OH213172   0.996   3.599   1.082  0.4650 -0.4715 -0.2272
 4389TIP3    H113173   1.011   3.690   1.109  0.9262 -0.5424 -0.2315
 4389TIP3    H213174   1.003   3.601   0.987  0.3986 -0.4970 -0.2326
 4390TIP3   OH213175   5.837   1.310   3.041  0.1159  0.5815  0.2256
 4390TIP3    H113176   5.912   1.365   3.067  0.2481  0.7660 -0.5437
 4390TIP3    H213177   5.877   1.228   3.013 -0.0211  0.4355  0.4526
 4391TIP3   OH213178   2.909   4.217   0.501 -0.1424  0.3668  0.1471
 4391TIP3    H113179   2.963   4.141   0.524 -0.3496  0.1612 -0.0313
 4391TIP3    H213180   2.895   4.263   0.583  0.4659  0.5288  0.1635
 4392TIP3   OH213181   4.034   5.179   0.852 -0.0089  0.6308 -0.8422
 4392TIP3    H113182   4.090   5.158   0.928  0.6190  2.3637 -0.7949
 4392TIP3    H213183   4.043   5.102   0.795  0.8091  0.0000  0.0940
 4393TIP3   OH213184   1.283   1.585   4.225  0.1545  0.2418 -0.0916
 4393TIP3    H113185   1.338   1.601   4.301 -1.6523  1.7024  1.0224
 4393TIP3    H213186   1.221   1.659   4.224 -2.0059 -1.4458 -1.0041
 4394TIP3   OH213187   2.458   1.639   3.848 -0.0307 -0.2162 -0.2320
 4394TIP3    H113188   2.446   1.656   3.941  1.1302 -3.1892  0.5814
 4394TIP3    H213189   2.552   1.625   3.838  0.1588  1.8722 -2.2896
 4395TIP3   OH213190   3.222   0.192   3.887 -0.2907  0.0941 -0.4310
 4395TIP3    H113191   3.265   0.227   3.809  0.7190  1.3066  0.6219
 4395TIP3    H213192   3.273   0.226   3.960 -1.1116 -1.1462  0.7711
 4396TIP3   OH213193   2.091   4.543   2.465  0.5018 -0.7252  0.7547
 4396TIP3    H113194   2.163   4.556   2.403  0.2383  0.9671  0.7653
 4396TIP3    H213195   2.016   4.520   2.411 -0.3049  2.9135  0.0981
 4397TIP3   OH213196   2.854   2.523   4.724  0.3201  0.3077 -0.5270
 4397TIP3    H113197   2.897   2.608   4.714 -0.4531  0.8176  0.3175
 4397TIP3    H213198   2.784   2.524   4.659 -1.5701  1.5839  1.3865
 4398TIP3   OH213199   0.333   1.122   1.535 -1.0698  0.1918  0.2804
 4398TIP3    H113200   0.403   1.164   1.486  1.1796 -2.2979  1.1662
 4398TIP3    H213201   0.265   1.105   1.470  0.4464 -0.0797 -1.2969
 4399TIP3   OH213202   5.719   0.370   4.733  0.3666  0.4738  0.3139
 4399TIP3    H113203   5.733   0.280   4.704  2.0991  0.8795 -0.2528
 4399TIP3    H213204   5.697   0.362   4.826 -3.0030 -0.7050 -0.4508
 4400TIP3   OH213205   3.546   1.745   5.063  0.3833  0.3866  0.1561
 4400TIP3    H113206   3.516   1.810   5.000 -0.2583 -1.4427 -1.5251
 4400TIP3    H213207   3.639   1.734   5.044  0.3665  0.4119  0.0574
 4401TIP3   OH213208   6.312   4.905   3.075 -0.1383 -0.1350  0.4568
 4401TIP3    H113209   6.324   4.810   3.085 -1.3791 -0.2326  1.2515
 4401TIP3    H213210   6.371   4.929   3.004 -0.2834 -1.6161 -0.2137
 4402TIP3   OH213211   5.475   3.453   0.729  0.2341  0.5417  0.2099
 4402TIP3    H113212   5.483   3.358   0.736 -0.2346  0.4780 -0.0757
 4402TIP3    H213213   5.465   3.484   0.819 -2.4136  0.0519  0.1649
 4403TIP3   OH213214   1.128   4.651   1.573  0.4680  0.3171 -0.3823
 4403TIP3    H113215   1.216   4.666   1.539  0.2527  1.3327 -0.5265
 4403TIP3    H213216   1.071   4.657   1.496  0.1910  0.5585 -0.1627
 4404TIP3   OH213217   0.534   2.117   2.007  0.1741 -0.4642 -0.1893
 4404TIP3    H113218   0.469   2.140   1.940  0.1437 -1.5328 -0.5557
 4404TIP3    H213219   0.577   2.199   2.029 -0.1249 -0.0211 -1.2078
 4405TIP3   OH213220   0.490   3.799   4.884  0.1336 -0.4890 -0.1308
 4405TIP3    H113221   0.576   3.807   4.842 -0.9172 -0.0216 -2.2816
 4405TIP3    H213222   0.440   3.873   4.851 -1.2081 -0.8882  0.9208
 4406TIP3   OH213223   5.474   0.074   2.640 -0.3289 -0.0483  0.1275
 4406TIP3    H113224   5.412   0.117   2.697 -0.8876 -0.9308  0.2100
 4406TIP3    H213225   5.452  -0.019   2.646  0.5365 -0.3044 -0.3959
 4407TIP3   OH213226   0.640   3.610   3.340  0.3447 -0.3103  0.6197
 4407TIP3    H113227   0.643   3.550   3.415 -1.6016 -0.4106  0.6764
 4407TIP3    H213228   0.589   3.685   3.373 -1.0668 -0.6263 -0.7677
 4408TIP3   OH213229   5.222   4.382   0.691  0.1770  0.1792  0.2366
 4408TIP3    H113230   5.165   4.336   0.630  0.7872  1.3765 -1.3098
 4408TIP3    H213231   5.310   4.375   0.652  1.0841 -1.3268  2.3831
 4409TIP3   OH213232   3.545   0.231   0.961 -0.3275 -0.1614 -0.6910
 4409TIP3    H113233   3.567   0.276   0.880 -2.4091  0.8720 -0.7453
 4409TIP3    H213234   3.549   0.298   1.028  1.0163 -0.9328  0.0561
 4410TIP3   OH213235   4.539   2.132   1.922 -0.3262  0.3630  0.2732
 4410TIP3    H113236   4.467   2.138   1.985  0.1580 -0.7832  0.9706
 4410TIP3    H213237   4.542   2.039   1.898 -0.4352  0.7566 -1.3814
 4411TIP3   OH213238   6.044   2.404   3.966 -0.2952 -0.0778 -0.4684
 4411TIP3    H113239   6.068   2.333   4.025  0.0238  0.5274  0.1517
 4411TIP3    H213240   5.949   2.408   3.970 -0.2424  0.5127  0.7008
 4412TIP3   OH213241   1.000   1.429   3.832  0.0615 -0.2344 -0.1907
 4412TIP3    H113242   1.000   1.462   3.742  1.0683  0.3465  0.0038
 4412TIP3    H213243   1.015   1.335   3.823  0.9585 -0.0584 -0.6007
 4413TIP3   OH213244   2.124   4.284   4.167  0.1712 -0.1965 -0.3998
 4413TIP3    H113245   2.043   4.298   4.216  0.4109  1.3288 -0.3934
 4413TIP3    H213246   2.193   4.310   4.227  0.5073  0.9971 -1.2753
 4414TIP3   OH213247   0.173   1.833   3.512  0.5882  0.2492  0.2879
 4414TIP3    H113248   0.263   1.816   3.483  2.0470 -1.0132  4.7749
 4414TIP3    H213249   0.163   1.928   3.506  2.5199  0.4902  0.4300
 4415TIP3   OH213250   6.031   0.571   0.632 -0.2128  0.7796 -0.0810
 4415TIP3    H113251   6.099   0.537   0.574 -1.1827 -1.3686 -0.0607
 4415TIP3    H213252   6.010   0.497   0.690 -0.5256  2.2972  1.8526
 4416TIP3   OH213253   3.332   5.851   2.853  0.2425  0.3580  0.4142
 4416TIP3    H113254   3.286   5.877   2.933  0.3840  2.5656 -0.1487
 4416TIP3    H213255   3.279   5.779   2.817  0.8358 -1.5133  3.0430
 4417TIP3   OH213256   5.834   0.264   3.624 -0.0659  0.0065  0.3187
 4417TIP3    H113257   5.830   0.210   3.544  1.6992  0.5557 -0.1779
 4417TIP3    H213258   5.764   0.329   3.612 -0.6119 -0.6600 -0.2108
 4418TIP3   OH213259   5.600   3.838   4.640 -0.0911  0.0974  0.0945
 4418TIP3    H113260   5.514   3.880   4.647  0.3873  1.0453  0.4698
 4418TIP3    H213261   5.659   3.898   4.685  0.9255 -0.0665 -0.9665
 4419TIP3   OH213262   6.181   4.190   4.374  0.1509  0.1028  0.3736
 4419TIP3    H113263   6.157   4.108   4.332  1.3656  0.5460 -1.3139
 4419TIP3    H213264   6.181   4.171   4.467  0.7437 -1.9097 -0.0039
 4420TIP3   OH213265   4.008   3.673   0.377 -0.1051 -0.4207  0.9839
 4420TIP3    H113266   3.934   3.616   0.399  0.1785 -1.0064  0.4485
 4420TIP3    H213267   4.063   3.671   0.455 -1.3645  1.2056  1.9588
 4421TIP3   OH213268   6.192   5.598   4.842 -0.4853 -0.0382 -0.2002
 4421TIP3    H113269   6.168   5.664   4.777  1.0130  1.1785  0.4127
 4421TIP3    H213270   6.153   5.630   4.924 -3.2288 -2.0733 -0.5733
 4422TIP3   OH213271   2.712   4.456   1.501 -0.0040  0.3279  0.0686
 4422TIP3    H113272   2.648   4.424   1.564 -1.4139  0.8868 -1.0116
 4422TIP3    H213273   2.774   4.507   1.554 -1.5519  1.3943  0.9628
 4423TIP3   OH213274   1.943   1.731   0.714 -0.5380 -0.1834  0.2673
 4423TIP3    H113275   2.037   1.720   0.703 -0.3747  0.0143  1.3409
 4423TIP3    H213276   1.922   1.682   0.793 -1.2195  0.2965  0.3949
 4424TIP3   OH213277   1.766   2.069   4.114 -0.7746 -0.4107 -0.1775
 4424TIP3    H113278   1.735   2.081   4.204 -0.6863 -1.6349  0.0384
 4424TIP3    H213279   1.811   2.151   4.093 -1.5536  0.2351  0.5726
 4425TIP3   OH213280   2.971   5.839   0.058  0.1507 -0.3922 -0.4783
 4425TIP3    H113281   3.021   5.828   0.139 -0.5099 -1.6643 -0.2175
 4425TIP3    H213282   2.882   5.857   0.087  0.1503  0.3837 -0.9383
 4426TIP3   OH213283   2.135   4.417   5.150 -0.1604  0.0130  0.2751
 4426TIP3    H113284   2.125   4.384   5.061 -0.2186  1.5765 -0.3276
 4426TIP3    H213285   2.221   4.384   5.178  0.8571  1.2553 -1.1898
 4427TIP3   OH213286   2.986   4.964   1.100  0.7823  0.4615  0.2159
 4427TIP3    H113287   2.983   5.035   1.036 -2.3107 -1.2366 -1.7804
 4427TIP3    H213288   2.921   4.988   1.167  0.4861  0.0327  0.0913
 4428TIP3   OH213289   4.289   4.258   0.093  0.1293 -0.2436  0.4863
 4428TIP3    H113290   4.300   4.340   0.140 -2.7388 -0.5857  1.9765
 4428TIP3    H213291   4.358   4.259   0.027  0.7626  2.9052  1.0253
 4429TIP3   OH213292   1.313   0.423   1.690  0.6753  0.1271 -0.2726
 4429TIP3    H113293   1.330   0.342   1.737 -0.7366 -0.2125 -0.3162
 4429TIP3    H213294   1.352   0.410   1.604 -1.4846 -1.4458 -1.0863
 4430TIP3   OH213295   4.918   0.132   3.023  0.7250  0.3571  0.2546
 4430TIP3    H113296   4.882   0.219   3.041 -0.9895 -0.0945 -0.7708
 4430TIP3    H213297   4.979   0.146   2.951 -0.0755  0.6170 -0.3860
 4431TIP3   OH213298   4.848   1.621   3.720 -0.3424 -0.3894  0.4861
 4431TIP3    H113299   4.925   1.618   3.778 -0.3369 -1.1643  0.4552
 4431TIP3    H213300   4.788   1.681   3.764 -0.4272 -1.1298  1.4302
 4432TIP3   OH213301   5.012   3.070   4.986 -0.1545 -0.1703  0.3941
 4432TIP3    H113302   4.956   3.007   5.031  1.2161 -0.5030  1.7173
 4432TIP3    H213303   5.071   3.016   4.933  0.3947  0.0318  0.7871
 4433TIP3   OH213304   2.119   5.839   4.389  0.2692  0.1002 -0.6088
 4433TIP3    H113305   2.040   5.867   4.435  0.6945 -0.0754  0.2555
 4433TIP3    H213306   2.174   5.801   4.458 -0.1332 -2.5583 -1.6206
 4434TIP3   OH213307   3.036   3.774   1.396 -0.0582  0.6066  0.9169
 4434TIP3    H113308   3.014   3.863   1.370 -1.4795 -0.1944 -0.8375
 4434TIP3    H213309   2.951   3.731   1.409  0.5501 -0.8993  0.1864
 4435TIP3   OH213310   2.275   4.656   2.136  0.1700 -0.3036  0.4557
 4435TIP3    H113311   2.219   4.583   2.111  0.9122 -0.7826  0.1764
 4435TIP3    H213312   2.330   4.622   2.206  1.3655 -0.4102 -0.4961
 4436TIP3   OH213313   0.750   3.068   0.982  0.6128 -0.6267  0.1740
 4436TIP3    H113314   0.817   3.135   0.972  0.4541 -0.1576  1.9375
 4436TIP3    H213315   0.741   3.056   1.077 -1.6327 -0.8171  0.0038
 4437TIP3   OH213316   4.123   0.569   0.930 -0.2351 -0.3126  0.7733
 4437TIP3    H113317   4.043   0.620   0.930 -1.4263 -2.0781  1.5435
 4437TIP3    H213318   4.171   0.599   1.008 -1.3742 -0.9721  1.7768
 4438TIP3   OH213319   4.584   2.200   0.454  0.8958  0.3313 -0.2215
 4438TIP3    H113320   4.507   2.244   0.419  1.6730  1.1530 -0.9683
 4438TIP3    H213321   4.602   2.129   0.393  1.7490  1.2368 -1.0592
 4439TIP3   OH213322   3.466   5.141   3.125  0.0913 -0.3051 -0.1906
 4439TIP3    H113323   3.414   5.105   3.197  1.0997 -0.8657  0.2897
 4439TIP3    H213324   3.422   5.223   3.102  0.2452  0.3729  1.7026
 4440TIP3   OH213325   1.187   5.527   1.327  0.2122  0.1013  0.7247
 4440TIP3    H113326   1.218   5.589   1.393 -0.2550  0.9938  0.1288
 4440TIP3    H213327   1.120   5.576   1.279 -0.9547 -1.2323  0.9397
 4441TIP3   OH213328   1.979   2.452   0.858 -0.5583  0.3101 -0.1558
 4441TIP3    H113329   1.953   2.422   0.771 -1.4565 -0.8715  0.4841
 4441TIP3    H213330   2.074   2.438   0.861 -0.6666 -0.6533 -0.5888
 4442TIP3   OH213331   6.041   3.133   2.915  0.2223 -0.0619 -0.1095
 4442TIP3    H113332   6.120   3.159   2.868 -1.0850  1.9336 -1.3260
 4442TIP3    H213333   5.973   3.130   2.847 -0.8768 -1.1987  0.9994
 4443TIP3   OH213334  -0.009   5.870   3.746  0.1605 -0.4390  0.6337
 4443TIP3    H113335   0.019   5.786   3.709  0.9980  0.2733 -0.4234
 4443TIP3    H213336   0.025   5.936   3.684 -0.9416  0.6520  1.1405
 4444TIP3   OH213337   1.481   0.124   4.877 -0.6084  0.4823  0.1241
 4444TIP3    H113338   1.399   0.159   4.911 -0.1806  1.8071 -0.1574
 4444TIP3    H213339   1.460   0.095   4.789 -1.1951 -0.9342  0.6923
 4445TIP3   OH213340   2.815   0.874   1.426  0.1600 -0.4985 -0.0067
 4445TIP3    H113341   2.720   0.884   1.436  0.1706 -1.4710  1.2543
 4445TIP3    H213342   2.826   0.797   1.371  0.2276  0.9131 -2.1027
 4446TIP3   OH213343   1.743   1.358   4.279  0.1612  0.4150  0.4841
 4446TIP3    H113344   1.709   1.275   4.312 -0.2020 -0.1011 -1.0915
 4446TIP3    H213345   1.700   1.425   4.333 -2.0377 -0.3069 -0.2777
 4447TIP3   OH213346   4.037   5.584   0.058  0.5498  0.7150 -0.3643
 4447TIP3    H113347   3.973   5.529   0.014  1.8115 -0.1479 -1.2030
 4447TIP3    H213348   4.064   5.648  -0.008 -1.1654  2.6837  0.7015
 4448TIP3   OH213349   3.090   1.475   3.166  0.4883 -0.3875  0.0394
 4448TIP3    H113350   3.040   1.534   3.110 -1.0440 -0.7024  1.0104
 4448TIP3    H213351   3.177   1.472   3.126 -0.1220  0.5370 -1.4515
 4449TIP3   OH213352   3.818   5.180   2.621  0.3327 -0.2794  0.3189
 4449TIP3    H113353   3.767   5.260   2.613 -0.7677 -0.9075  0.7436
 4449TIP3    H213354   3.760   5.120   2.668  1.9603 -0.6044  2.0475
 4450TIP3   OH213355   5.613   3.530   4.624  0.4017  0.1319 -0.2710
 4450TIP3    H113356   5.614   3.625   4.639 -1.5809  0.4826 -1.8747
 4450TIP3    H213357   5.550   3.497   4.688  0.9174 -0.0668  0.1320
 4451TIP3   OH213358   4.134   1.974   0.597  0.4290 -0.0541 -0.1408
 4451TIP3    H113359   4.210   1.945   0.546  0.5374  0.0025 -0.0118
 4451TIP3    H213360   4.114   2.061   0.562 -0.1564 -0.4480 -0.8178
 4452TIP3   OH213361   2.008   3.695   4.438 -0.1104 -0.1172 -0.0617
 4452TIP3    H113362   2.099   3.666   4.442 -0.7202 -2.2091 -0.0999
 4452TIP3    H213363   1.987   3.695   4.345 -0.6958 -1.6055  0.0466
 4453TIP3   OH213364   4.949   1.126   4.905  0.3691 -0.0288  0.3604
 4453TIP3    H113365   4.904   1.053   4.949  0.2775 -1.0112 -1.2801
 4453TIP3    H213366   5.017   1.084   4.853 -1.3409  0.7155 -2.7045
 4454TIP3   OH213367   1.067   3.057   1.145 -0.1377  0.0136 -0.0652
 4454TIP3    H113368   1.051   3.025   1.056 -1.2463  0.5259 -0.0707
 4454TIP3    H213369   1.162   3.069   1.149  0.5073 -3.9406  0.2065
 4455TIP3   OH213370   5.812   1.812   3.574 -0.7731 -0.3326 -0.4913
 4455TIP3    H113371   5.744   1.787   3.638  1.2132 -1.7916  1.2032
 4455TIP3    H213372   5.891   1.769   3.606  1.4491  2.8397 -1.2886
 4456TIP3   OH213373   4.814   0.347   1.713  0.0508  0.6574  0.3242
 4456TIP3    H113374   4.817   0.325   1.807 -0.4746  0.8559  0.3902
 4456TIP3    H213375   4.879   0.289   1.674 -0.4832 -0.2085  0.6641
 4457TIP3   OH213376   0.547   0.703   0.964  0.1185 -0.0680  0.2950
 4457TIP3    H113377   0.548   0.790   1.004  1.8696 -0.0174  0.2493
 4457TIP3    H213378   0.478   0.655   1.010  0.0904  0.9125  1.3025
 4458TIP3   OH213379   0.622   5.804   0.205 -0.0098  0.3503 -0.4189
 4458TIP3    H113380   0.590   5.736   0.264 -0.4976  0.1191 -0.9395
 4458TIP3    H213381   0.717   5.790   0.202 -0.1161 -0.4009 -0.6218
 4459TIP3   OH213382   2.608   2.081   0.762 -0.1723 -0.4915 -0.3099
 4459TIP3    H113383   2.585   2.173   0.754 -2.2280 -0.7514  1.5056
 4459TIP3    H213384   2.528   2.039   0.796  1.0630 -2.7281  0.0768
 4460TIP3   OH213385   4.008   5.589   3.645  0.3659  0.2539 -0.2336
 4460TIP3    H113386   3.935   5.647   3.665 -0.1582 -0.3788 -0.2747
 4460TIP3    H213387   3.972   5.501   3.654  1.5309 -0.1066  1.3210
 4461TIP3   OH213388   1.099   3.041   3.084 -0.7231  0.3679 -0.0185
 4461TIP3    H113389   1.022   3.026   3.030 -0.2670  2.1718 -1.2988
 4461TIP3    H213390   1.092   3.133   3.110  0.4549  0.2688  0.7349
 4462TIP3   OH213391   4.237   3.929   1.879  0.4360  0.6697 -0.0970
 4462TIP3    H113392   4.147   3.956   1.895  0.2637 -0.0899  0.2599
 4462TIP3    H213393   4.249   3.936   1.785 -0.7245 -1.3509 -0.4577
 4463TIP3   OH213394   0.761   5.253   2.430 -0.5226  0.0788 -0.1884
 4463TIP3    H113395   0.823   5.317   2.466 -1.3093  1.2967 -0.9052
 4463TIP3    H213396   0.736   5.199   2.505  0.2391  0.5594  0.4275
 4464TIP3   OH213397   0.504   0.271   1.021  0.2858  0.2751  1.0885
 4464TIP3    H113398   0.555   0.191   1.009 -1.2427 -0.6076  0.1625
 4464TIP3    H213399   0.426   0.243   1.070 -1.1575  0.7704 -0.7834
 4465TIP3   OH213400   2.386   2.532   3.951 -0.1171 -0.4556  0.5509
 4465TIP3    H113401   2.296   2.523   3.919  0.1172 -0.9432  0.0222
 4465TIP3    H213402   2.388   2.482   4.032 -0.3012 -0.5124  0.5196
 4466TIP3   OH213403   2.400   0.650   2.850  0.6727 -0.3654  0.4407
 4466TIP3    H113404   2.339   0.713   2.888 -0.9651 -2.7400  1.9862
 4466TIP3    H213405   2.479   0.657   2.905 -0.1646 -0.8700  1.7514
 4467TIP3   OH213406   3.025   4.843   4.472  1.0139  0.1244  0.2995
 4467TIP3    H113407   3.012   4.932   4.504  1.7835 -0.1806  1.5471
 4467TIP3    H213408   3.052   4.794   4.549  2.3870 -0.7839 -0.7078
 4468TIP3   OH213409   0.076   3.777   5.096 -0.7666  0.4711  0.0547
 4468TIP3    H113410   0.118   3.691   5.106 -1.2849  0.3731  1.7748
 4468TIP3    H213411   0.090   3.820   5.180 -0.3812  2.1697 -0.8348
 4469TIP3   OH213412   2.002   4.750   4.688  0.2736  0.0847  0.6821
 4469TIP3    H113413   1.959   4.708   4.763 -0.9541 -1.1938 -0.6704
 4469TIP3    H213414   1.963   4.837   4.683  0.1083  0.0472  1.3191
 4470TIP3   OH213415   4.128   3.599   1.769  0.2925  0.4485  0.6148
 4470TIP3    H113416   4.205   3.574   1.718  1.1729 -0.4035  2.2909
 4470TIP3    H213417   4.067   3.525   1.759  0.7511 -0.0355  1.3400
 4471TIP3   OH213418   0.061   1.812   2.361 -0.3753 -0.3032 -0.8076
 4471TIP3    H113419   0.086   1.901   2.335  0.9684 -0.4143  0.0482
 4471TIP3    H213420   0.033   1.821   2.453 -1.2138 -0.6075 -1.0213
 4472TIP3   OH213421   0.554   0.073   3.367  0.3688  0.2945  0.6142
 4472TIP3    H113422   0.627   0.123   3.405  2.0598 -0.4994 -1.3913
 4472TIP3    H213423   0.497   0.055   3.441  2.2517  0.8677  2.3187
 4473TIP3   OH213424   0.630   5.058   0.519 -0.0213 -0.2269 -0.6499
 4473TIP3    H113425   0.632   5.084   0.611  2.4730 -2.9546  0.2117
 4473TIP3    H213426   0.721   5.045   0.495 -0.5873  0.4837 -3.6051
 4474TIP3   OH213427   2.981   0.540   2.707 -0.3083 -0.3674 -0.1511
 4474TIP3    H113428   2.999   0.448   2.685 -0.9648 -0.5221 -0.0803
 4474TIP3    H213429   2.921   0.534   2.782 -1.3922  0.0969 -0.9637
 4475TIP3   OH213430   4.984   2.682   0.315  0.6565  0.3575  0.6015
 4475TIP3    H113431   4.951   2.700   0.227  0.3272  0.8493  0.8225
 4475TIP3    H213432   5.051   2.615   0.302  0.2571  0.0607  0.0347
 4476TIP3   OH213433   1.505   0.762   1.407 -0.0236 -0.0868 -0.3745
 4476TIP3    H113434   1.581   0.813   1.437 -0.2229  0.9314 -1.4840
 4476TIP3    H213435   1.510   0.768   1.311 -0.3987 -1.6942 -0.5107
 4477TIP3   OH213436   6.334   3.851   1.619 -0.6476  0.1561 -0.1795
 4477TIP3    H113437   6.305   3.836   1.709  0.1412  0.1961  0.0867
 4477TIP3    H213438   6.286   3.929   1.592  1.3200  1.9737  1.2545
 4478TIP3   OH213439   3.461   1.765   0.399  0.2874  0.2666  0.1668
 4478TIP3    H113440   3.428   1.786   0.312  0.4185 -0.8292 -0.1614
 4478TIP3    H213441   3.449   1.671   0.407  0.6484  0.2967  1.1815
 4479TIP3   OH213442   3.323   5.670   0.892 -0.5762 -0.0037 -0.2088
 4479TIP3    H113443   3.332   5.647   0.800  1.5403 -0.4335  0.0543
 4479TIP3    H213444   3.344   5.763   0.896 -2.7678  0.5507 -0.3990
 4480TIP3   OH213445   4.087   4.014   3.963  0.2864  0.4369  0.2055
 4480TIP3    H113446   4.180   4.025   3.984  0.7765 -1.0644 -1.0232
 4480TIP3    H213447   4.051   3.964   4.036  0.6171  0.3531  0.3124
 4481TIP3   OH213448   4.532   5.557   3.092  0.3462 -0.2010 -0.0180
 4481TIP3    H113449   4.460   5.588   3.146  0.6213 -1.0308  0.8524
 4481TIP3    H213450   4.523   5.605   3.009 -1.1145 -0.2028  0.1223
 4482TIP3   OH213451   5.540   1.792   1.873  0.2773 -0.6279  0.2188
 4482TIP3    H113452   5.462   1.835   1.909 -0.2398 -0.9367 -0.5028
 4482TIP3    H213453   5.612   1.851   1.895 -0.6846  1.9584 -2.8363
 4483TIP3   OH213454   5.572   2.194   2.873 -0.1610 -0.9882  0.2075
 4483TIP3    H113455   5.566   2.165   2.964  1.4712  0.8120  0.9684
 4483TIP3    H213456   5.501   2.257   2.863  0.9570  0.4716  0.9872
 4484TIP3   OH213457   2.936   2.250   5.078 -1.2950  0.0884 -0.0761
 4484TIP3    H113458   2.919   2.338   5.044 -1.4946 -0.3434 -1.1204
 4484TIP3    H213459   2.938   2.194   5.001  0.0055 -0.6497  0.4490
 4485TIP3   OH213460   3.580   2.884   0.802 -0.4832  0.1022 -0.5343
 4485TIP3    H113461   3.525   2.814   0.837 -0.4283  0.7774  0.9665
 4485TIP3    H213462   3.522   2.933   0.744 -0.4319 -1.3448 -1.8831
 4486TIP3   OH213463   1.361   4.018   1.576  0.1271 -0.5734 -0.1055
 4486TIP3    H113464   1.341   4.108   1.602  1.0315 -0.5463  0.5369
 4486TIP3    H213465   1.276   3.979   1.556 -0.3123  0.2983  0.0139
 4487TIP3   OH213466   3.163   0.724   2.789  0.4473  0.0854 -0.7188
 4487TIP3    H113467   3.192   0.638   2.820  0.2377  0.4535  0.5396
 4487TIP3    H213468   3.082   0.706   2.741  1.4611 -0.6541 -2.2301
 4488TIP3   OH213469   2.478   1.418   4.284 -0.4727  0.1749 -0.3553
 4488TIP3    H113470   2.511   1.334   4.317  0.3879  0.7060  0.1645
 4488TIP3    H213471   2.553   1.456   4.238  0.1170  2.0278  1.9936
 4489TIP3   OH213472   4.961   1.596   3.466 -0.3981 -0.0020  0.1594
 4489TIP3    H113473   4.941   1.624   3.555  2.0265  0.1757  0.7148
 4489TIP3    H213474   4.936   1.503   3.465  0.4431 -0.2822  1.3846
 4490TIP3   OH213475   0.323   5.161   1.602 -0.1639 -0.3093 -0.3628
 4490TIP3    H113476   0.260   5.229   1.578 -1.1551 -0.0842  2.4950
 4490TIP3    H213477   0.368   5.196   1.678  0.9911 -1.9113 -0.2638
 4491TIP3   OH213478   3.723   1.065   4.232 -0.5680 -0.0555  0.0567
 4491TIP3    H113479   3.793   1.114   4.276 -1.5326  2.6394 -1.2120
 4491TIP3    H213480   3.659   1.048   4.301 -0.3042  0.6435  0.4794
 4492TIP3   OH213481   2.363   2.354   1.549 -0.2012  0.6461 -0.1686
 4492TIP3    H113482   2.296   2.286   1.559 -0.2521  0.7187 -0.0177
 4492TIP3    H213483   2.375   2.361   1.454  1.5307 -1.2403 -0.1566
 4493TIP3   OH213484   5.563   3.954   1.439  0.6207 -0.3835  0.0694
 4493TIP3    H113485   5.623   3.912   1.501  0.7414  1.3220  1.1620
 4493TIP3    H213486   5.545   4.040   1.478 -0.3011  0.2355 -1.6562
 4494TIP3   OH213487   4.171   3.135   4.710  0.1865  0.0985  0.1887
 4494TIP3    H113488   4.223   3.202   4.753  0.9429 -1.0146  1.0620
 4494TIP3    H213489   4.222   3.111   4.632  1.4217 -1.5130  1.4292
 4495TIP3   OH213490   0.122   3.159   0.531 -0.0856  0.4903 -0.3161
 4495TIP3    H113491   0.124   3.244   0.487  1.9040 -0.0154 -1.2860
 4495TIP3    H213492   0.189   3.165   0.598 -3.4179  1.4484  3.2800
 4496TIP3   OH213493   2.828   1.326   3.115  0.3200 -0.6249 -0.2468
 4496TIP3    H113494   2.910   1.376   3.110  0.2163  0.0869  2.9557
 4496TIP3    H213495   2.760   1.389   3.092  0.5485 -0.9339 -1.8741
 4497TIP3   OH213496   2.624   3.274   0.409  0.3869  0.3047  0.0377
 4497TIP3    H113497   2.565   3.339   0.370 -1.7382 -0.8711  1.1383
 4497TIP3    H213498   2.572   3.194   0.414  1.4058 -0.2954  2.8481
 4498TIP3   OH213499   2.421   1.983   5.114  0.3272 -0.1000 -0.0515
 4498TIP3    H113500   2.461   2.045   5.175  1.3598 -0.6194 -0.1854
 4498TIP3    H213501   2.458   2.005   5.029  0.0676 -0.3712 -0.2381
 4499TIP3   OH213502   0.999   2.736   2.034 -0.2701 -0.3976  0.7245
 4499TIP3    H113503   0.913   2.765   2.004  0.3177 -0.2994 -0.9817
 4499TIP3    H213504   1.061   2.793   1.989  0.7469 -1.5869  0.5584
 4500TIP3   OH213505   2.480   2.642   0.926  0.0883 -0.6232  0.2027
 4500TIP3    H113506   2.532   2.650   0.846  0.6056 -1.1424  0.4813
 4500TIP3    H213507   2.432   2.725   0.931  0.7892 -0.1830 -0.1331
 4501TIP3   OH213508   4.364   0.338   1.233  0.4999 -0.7576  0.1160
 4501TIP3    H113509   4.378   0.307   1.144  0.4154  0.6326 -0.3993
 4501TIP3    H213510   4.439   0.394   1.251 -0.1547  0.0292  0.4331
 4502TIP3   OH213511   0.577   1.716   1.277 -0.2584  0.2590 -0.0912
 4502TIP3    H113512   0.664   1.754   1.292 -0.4605  0.8440 -0.4104
 4502TIP3    H213513   0.565   1.720   1.183  0.4250 -2.1706 -0.3578
 4503TIP3   OH213514   1.028   0.226   2.833  0.6093  0.9147 -0.0795
 4503TIP3    H113515   1.112   0.267   2.813  0.3500  1.5526  0.1034
 4503TIP3    H213516   1.042   0.184   2.918  1.2055 -0.3509 -0.7796
 4504TIP3   OH213517   4.599   0.538   0.000 -0.0608 -0.0247  0.3730
 4504TIP3    H113518   4.621   0.631   0.007  0.0425  0.1112 -1.4226
 4504TIP3    H213519   4.642   0.498   0.076 -1.5892  1.5959  2.2221
 4505TIP3   OH213520   1.993   0.363   1.849 -0.7557  0.3107  0.4741
 4505TIP3    H113521   2.024   0.397   1.765 -2.8318  2.3474  0.4363
 4505TIP3    H213522   2.036   0.418   1.915  1.1410 -1.5053  0.8394
 4506TIP3   OH213523   3.416   4.315   0.074 -0.4174 -0.0345  0.2421
 4506TIP3    H113524   3.498   4.337   0.117  1.1453  0.1943 -2.6366
 4506TIP3    H213525   3.377   4.399   0.050 -0.9845 -0.1683  0.6662
 4507TIP3   OH213526   3.132   0.147   4.176  0.0373 -0.2465 -0.3460
 4507TIP3    H113527   3.148   0.056   4.151 -1.4072 -1.0811  1.4341
 4507TIP3    H213528   3.063   0.176   4.116  0.4372 -0.3444 -0.8616
 4508TIP3   OH213529   5.368   2.367   2.821 -0.7233  0.0696  0.7293
 4508TIP3    H113530   5.348   2.430   2.890  0.5835  0.4718  0.7673
 4508TIP3    H213531   5.283   2.349   2.780 -1.0793  2.3394  0.3115
 4509TIP3   OH213532   3.066   2.456   3.671 -0.5428  0.0923  0.4180
 4509TIP3    H113533   3.150   2.425   3.637 -0.1798  0.9366  0.5131
 4509TIP3    H213534   3.024   2.498   3.596 -0.9345 -0.4167  0.3456
 4510TIP3   OH213535   1.547   1.367   3.798  0.2032 -0.0951 -0.1900
 4510TIP3    H113536   1.536   1.278   3.832 -0.3271 -0.2888 -0.8350
 4510TIP3    H213537   1.558   1.421   3.875  1.0221 -0.7897  0.1880
 4511TIP3   OH213538   5.970   3.363   2.001 -0.3431 -0.3164  0.3106
 4511TIP3    H113539   5.929   3.277   2.005 -0.0148 -0.4267  1.7150
 4511TIP3    H213540   5.957   3.391   1.910 -1.3140 -1.4118  0.0857
 4512TIP3   OH213541   4.171   2.399   4.034 -0.4410 -0.2571  0.2291
 4512TIP3    H113542   4.210   2.442   3.958  0.6896 -1.2672  0.2101
 4512TIP3    H213543   4.078   2.394   4.013 -0.3188  0.5133 -0.5748
 4513TIP3   OH213544   2.869   3.346   3.533 -0.2729 -0.0666  0.1316
 4513TIP3    H113545   2.924   3.276   3.566 -1.0850 -1.5452 -1.4485
 4513TIP3    H213546   2.849   3.320   3.443 -1.9068  1.4003  0.0133
 4514TIP3   OH213547   2.777   0.570   3.989  0.6104 -0.1729  0.6255
 4514TIP3    H113548   2.687   0.598   4.007  0.9459  1.7089 -0.4298
 4514TIP3    H213549   2.816   0.557   4.076 -0.2105  0.5680  1.1140
 4515TIP3   OH213550   1.300   1.319   4.943 -0.1540 -0.3237  0.4692
 4515TIP3    H113551   1.330   1.331   5.033  1.0491  0.7555 -0.0504
 4515TIP3    H213552   1.257   1.233   4.944  0.4742 -0.6576  1.9000
 4516TIP3   OH213553   5.073   2.968   0.793  0.3447 -0.1496 -0.0122
 4516TIP3    H113554   5.045   3.032   0.727  0.8087 -0.3763 -0.4306
 4516TIP3    H213555   4.992   2.922   0.815 -0.0550  0.7728  0.5189
 4517TIP3   OH213556   0.112   1.502   0.386  0.4650  0.1445 -0.0009
 4517TIP3    H113557   0.069   1.528   0.304 -1.4374  0.6313  1.0770
 4517TIP3    H213558   0.121   1.584   0.435 -0.2979 -0.3806  1.0742
 4518TIP3   OH213559   3.465   3.551   1.528 -0.1413 -0.3764 -0.1240
 4518TIP3    H113560   3.480   3.605   1.451  3.8940 -0.5122  0.3115
 4518TIP3    H213561   3.372   3.532   1.527 -0.8743  2.4811 -2.9923
 4519TIP3   OH213562   0.343   5.930   2.102  0.0077  0.8714 -0.2899
 4519TIP3    H113563   0.389   5.930   2.186  0.7760  0.0786 -0.6802
 4519TIP3    H213564   0.337   6.022   2.078 -0.8413  1.1597  0.9438
 4520TIP3   OH213565   4.707   3.023   0.695  0.1196 -0.2622 -0.7199
 4520TIP3    H113566   4.630   3.018   0.638 -1.2282  1.5122  0.8150
 4520TIP3    H213567   4.762   3.090   0.654 -1.4282  1.9429  0.5471
 4521TIP3   OH213568   2.720   0.348   4.826  0.2181  0.3815 -0.1033
 4521TIP3    H113569   2.682   0.345   4.913  1.5389  1.2716  0.5477
 4521TIP3    H213570   2.714   0.258   4.794  0.3761 -0.1201  1.2078
 4522TIP3   OH213571   5.475   1.317   1.113 -0.2635  0.0787  0.1511
 4522TIP3    H113572   5.491   1.233   1.070 -2.0304 -0.3191  0.2332
 4522TIP3    H213573   5.520   1.381   1.057 -1.1523 -0.6026 -1.4022
 4523TIP3   OH213574   2.455   0.702   0.079 -0.2144  0.0599 -0.9336
 4523TIP3    H113575   2.398   0.778   0.089 -1.7397 -1.2843  1.5474
 4523TIP3    H213576   2.443   0.674  -0.012 -3.3080  0.0401 -0.6121
 4524TIP3   OH213577   5.931   4.596   3.000 -0.8381 -0.5269 -0.2345
 4524TIP3    H113578   5.860   4.573   2.939  0.4280  0.1070 -2.0366
 4524TIP3    H213579   6.010   4.592   2.946  0.4212 -0.4959  1.5457
 4525TIP3   OH213580   0.452   4.036   1.159 -0.6505 -0.1673 -0.2053
 4525TIP3    H113581   0.480   4.022   1.250 -1.3611 -1.1591 -0.1194
 4525TIP3    H213582   0.421   3.950   1.131  0.4051 -0.0871 -1.6973
 4526TIP3   OH213583   2.935   2.371   0.106  0.0834  0.3820 -0.8562
 4526TIP3    H113584   2.900   2.449   0.063  0.1942  0.1802 -1.3156
 4526TIP3    H213585   2.986   2.327   0.038 -0.5848 -0.4845 -0.8256
 4527TIP3   OH213586   1.150   2.500   1.643 -0.2352  0.0070  0.0260
 4527TIP3    H113587   1.179   2.588   1.663 -0.2642 -0.2723  1.3418
 4527TIP3    H213588   1.106   2.508   1.558  0.2518  1.1375 -0.1356
 4528TIP3   OH213589   5.417   5.645   0.190  0.1349 -0.0328  0.2591
 4528TIP3    H113590   5.456   5.558   0.192  2.1191  0.8128  1.5640
 4528TIP3    H213591   5.388   5.661   0.280  0.6958  1.0234  0.2659
 4529TIP3   OH213592   5.764   1.985   3.868 -0.1074  0.0867 -0.2101
 4529TIP3    H113593   5.797   1.920   3.930  0.6942  0.7628  0.0851
 4529TIP3    H213594   5.817   1.971   3.789 -0.7448 -0.3983 -0.5635
 4530TIP3   OH213595   1.079   3.757   3.818 -0.0194  0.5734 -0.7805
 4530TIP3    H113596   1.055   3.751   3.910 -2.5084  1.4534 -1.3009
 4530TIP3    H213597   1.143   3.686   3.805  1.7216  1.5016  1.9438
 4531TIP3   OH213598   4.416   3.943   2.616  0.3583  0.3848  0.0749
 4531TIP3    H113599   4.410   3.847   2.615  1.2559  0.3135 -1.7091
 4531TIP3    H213600   4.325   3.972   2.620 -0.2132 -0.6012 -2.9037
 4532TIP3   OH213601   1.198   4.953   5.097 -0.1656  0.3424  0.3360
 4532TIP3    H113602   1.162   4.996   5.019 -0.5408 -0.9917 -0.2492
 4532TIP3    H213603   1.124   4.948   5.157  0.2413  1.8279  1.0334
 4533TIP3   OH213604   1.372   1.894   4.872  0.2281 -0.2780 -0.5707
 4533TIP3    H113605   1.396   1.804   4.850 -0.4207 -0.3723 -0.9574
 4533TIP3    H213606   1.308   1.885   4.943 -0.2496 -0.1643 -0.9754
 4534TIP3   OH213607   2.602   1.151   2.921 -0.0998  0.3310 -0.0960
 4534TIP3    H113608   2.622   1.162   2.828  1.2129  1.6754  0.3005
 4534TIP3    H213609   2.687   1.144   2.963 -0.6808 -0.4527  0.9976
 4535TIP3   OH213610   0.924   5.446   3.268 -0.1301  0.5727  0.6121
 4535TIP3    H113611   0.849   5.391   3.290 -0.6286  0.5344 -1.0354
 4535TIP3    H213612   0.918   5.457   3.173  1.4701  1.2820  0.5660
 4536TIP3   OH213613   6.140   0.768   3.896 -0.0707  0.1804  0.0375
 4536TIP3    H113614   6.057   0.771   3.944  0.5572  0.4536  1.1292
 4536TIP3    H213615   6.204   0.805   3.956  1.5053 -3.0237  0.5258
 4537TIP3   OH213616   3.068   2.210   1.373  0.7847  0.4088 -0.2640
 4537TIP3    H113617   3.110   2.159   1.304  2.8656  3.0303 -1.1252
 4537TIP3    H213618   2.984   2.236   1.336  0.7355 -0.3940 -0.7320
 4538TIP3   OH213619   4.915   1.951   0.290 -0.4397 -0.6686 -0.2944
 4538TIP3    H113620   4.946   1.904   0.213 -1.0785  0.1284 -1.0581
 4538TIP3    H213621   4.841   1.900   0.322  0.1511 -1.2801  0.1059
 4539TIP3   OH213622   3.058   6.007   1.215  0.0335 -0.6797  0.1940
 4539TIP3    H113623   3.043   5.919   1.181 -0.0706 -0.5038 -0.2090
 4539TIP3    H213624   3.000   6.014   1.291 -0.2130 -0.8344  0.0197
 4540TIP3   OH213625   4.664   5.814   4.992 -0.5996 -0.1428 -0.3753
 4540TIP3    H113626   4.633   5.735   4.949 -1.7525  0.2100 -0.2133
 4540TIP3    H213627   4.719   5.857   4.926 -1.5992 -0.0700 -1.1890
 4541TIP3   OH213628   3.127   0.066   2.139 -0.3050  0.1102  0.0489
 4541TIP3    H113629   3.160   0.077   2.229  2.0206 -1.2101 -0.5541
 4541TIP3    H213630   3.087  -0.021   2.139  0.7964 -0.4142 -0.4552
 4542TIP3   OH213631   2.331   0.200   2.585 -0.7356 -0.1395 -0.0711
 4542TIP3    H113632   2.398   0.132   2.578 -0.6198  0.0728 -1.0452
 4542TIP3    H213633   2.364   0.273   2.532 -1.1302  0.4653  0.4926
 4543TIP3   OH213634   2.403   1.672   4.411  0.0027 -0.0623  0.1384
 4543TIP3    H113635   2.323   1.647   4.458  0.1492 -0.8036  0.0086
 4543TIP3    H213636   2.438   1.590   4.377  1.0317  0.1978  0.5150
 4544TIP3   OH213637   4.182   3.675   2.042  0.0866  0.1142 -0.3692
 4544TIP3    H113638   4.200   3.644   1.954 -0.2283 -0.7073 -0.1560
 4544TIP3    H213639   4.220   3.762   2.045  0.4453 -0.0033 -1.1902
 4545TIP3   OH213640   3.774   5.332   0.852  0.2087 -0.2778 -0.1280
 4545TIP3    H113641   3.811   5.243   0.857  1.0661  0.0621 -0.2704
 4545TIP3    H213642   3.815   5.379   0.924 -0.6553 -0.1280  0.2845
 4546TIP3   OH213643   3.279   4.820   3.688  0.7744  0.2508  0.1526
 4546TIP3    H113644   3.337   4.749   3.660 -0.7667 -0.6175 -0.9771
 4546TIP3    H213645   3.261   4.803   3.780 -0.2408 -1.3447 -0.3081
 4547TIP3   OH213646   2.764   0.101   0.118  0.5058  0.5190  0.6727
 4547TIP3    H113647   2.831   0.087   0.185 -1.0160  0.4320  2.2595
 4547TIP3    H213648   2.714   0.020   0.117  0.6940  0.4021 -0.8364
 4548TIP3   OH213649   2.774   3.853   3.111  0.1537  0.0967 -0.4362
 4548TIP3    H113650   2.723   3.792   3.058 -0.1863 -0.0680  0.0783
 4548TIP3    H213651   2.863   3.817   3.110 -0.4760 -1.7035  1.7409
 4549TIP3   OH213652   0.267   1.832   3.156  0.1618  0.3146  0.5261
 4549TIP3    H113653   0.308   1.883   3.087  1.8778 -1.4855  0.1167
 4549TIP3    H213654   0.316   1.855   3.235 -0.0990  0.4785  0.6393
 4550TIP3   OH213655   5.525   5.889   0.104  0.2069  0.1156  0.5892
 4550TIP3    H113656   5.502   5.797   0.117  2.7269 -0.5417  0.8732
 4550TIP3    H213657   5.459   5.921   0.042 -1.1215 -1.6646  0.9894
 4551TIP3   OH213658   5.722   3.563   3.672 -0.5729  0.9426 -0.5463
 4551TIP3    H113659   5.660   3.617   3.622  0.2619  0.3703 -2.2656
 4551TIP3    H213660   5.714   3.476   3.634  1.6661  0.9688 -1.1731
 4552TIP3   OH213661   2.268   4.176   3.113  0.4720 -0.2081  0.0936
 4552TIP3    H113662   2.308   4.094   3.143  1.0336  0.4091  1.1044
 4552TIP3    H213663   2.214   4.204   3.186 -0.1398  0.0569 -0.4550
 4553TIP3   OH213664   2.285   1.368   3.951  0.6586 -0.2434 -0.0230
 4553TIP3    H113665   2.233   1.374   4.032 -2.6641 -1.7859 -1.8303
 4553TIP3    H213666   2.313   1.458   3.935  0.6368  0.2635  2.3335
 4554TIP3   OH213667   4.615   2.509   2.601  0.2796 -0.3909  0.2319
 4554TIP3    H113668   4.638   2.593   2.562  1.0525 -0.6864  0.0316
 4554TIP3    H213669   4.541   2.529   2.658 -0.2113  0.2285 -0.6020
 4555TIP3   OH213670   4.286   5.502   0.120 -0.4419 -0.2859 -0.3614
 4555TIP3    H113671   4.199   5.534   0.094  0.1316  1.1641 -0.5514
 4555TIP3    H213672   4.308   5.436   0.054 -0.4686  0.9238 -1.6180
 4556TIP3   OH213673   1.927   1.025   4.221 -0.8648 -0.0690 -0.1992
 4556TIP3    H113674   1.984   0.974   4.163 -0.9429 -0.7507  0.3135
 4556TIP3    H213675   1.848   1.040   4.169 -0.9563 -0.7233 -0.2629
 4557TIP3   OH213676   0.870   0.665   0.531 -0.0284 -0.5808 -0.1564
 4557TIP3    H113677   0.961   0.649   0.553 -0.3123  0.2965  1.9567
 4557TIP3    H213678   0.821   0.599   0.581 -0.6358  0.4204  0.6296
 4558TIP3   OH213679   5.320   5.284   1.678  0.1366 -0.1256 -0.6187
 4558TIP3    H113680   5.390   5.297   1.742 -0.6778 -2.1689  0.8302
 4558TIP3    H213681   5.349   5.209   1.626  0.6356  1.3151 -2.4873
 4559TIP3   OH213682   0.056   3.958   3.524 -0.0700  0.3666  0.5152
 4559TIP3    H113683   0.076   4.043   3.487  0.2652  0.4335  0.8432
 4559TIP3    H213684  -0.025   3.931   3.481  1.0299 -0.1778 -1.2911
 4560TIP3   OH213685   4.012   4.890   3.840 -0.2167 -0.1847 -0.8169
 4560TIP3    H113686   3.966   4.972   3.855 -0.5591 -0.4470 -0.3980
 4560TIP3    H213687   3.955   4.823   3.878 -1.0846 -0.9052 -3.2326
 4561TIP3   OH213688   4.855   5.837   0.822 -0.4184  0.3707  0.2776
 4561TIP3    H113689   4.918   5.797   0.762  0.4676  1.3410  0.5366
 4561TIP3    H213690   4.810   5.763   0.862  0.7254 -0.3665  0.2610
 4562TIP3   OH213691   4.963   3.214   3.886 -0.3019  0.1511  0.0874
 4562TIP3    H113692   4.887   3.220   3.944 -0.4100  0.1446 -0.0508
 4562TIP3    H213693   4.946   3.138   3.831  0.3030 -0.4751  0.7476
 4563TIP3   OH213694   4.809   4.670   4.843 -0.0247 -0.0340  0.2669
 4563TIP3    H113695   4.856   4.690   4.762  2.5611  3.1979  2.3211
 4563TIP3    H213696   4.876   4.634   4.901 -0.8622  1.3270  2.1721
 4564TIP3   OH213697   6.160   1.091   4.097 -0.3173 -0.1310  0.0650
 4564TIP3    H113698   6.211   1.010   4.093 -0.1168  0.0546 -2.0428
 4564TIP3    H213699   6.213   1.156   4.052 -0.1587  1.4250  2.3461
 4565TIP3   OH213700   3.183   3.168   2.686 -0.3692 -0.0288 -0.2390
 4565TIP3    H113701   3.177   3.234   2.617  1.1491  0.7176  0.2998
 4565TIP3    H213702   3.270   3.130   2.675  0.0658  0.3816  1.4704
 4566TIP3   OH213703   4.559   5.377   0.210 -0.2126 -0.0820  0.0905
 4566TIP3    H113704   4.533   5.453   0.157  0.9961 -0.2454 -0.7677
 4566TIP3    H213705   4.594   5.414   0.290  0.5298  0.2914 -0.3955
 4567TIP3   OH213706   4.409   0.493   1.791 -0.7040 -0.1981  0.1192
 4567TIP3    H113707   4.386   0.452   1.708  1.1020  0.9630 -1.0272
 4567TIP3    H213708   4.395   0.425   1.857  0.2582 -1.9809 -1.4442
 4568TIP3   OH213709   3.797   3.934   4.830 -0.1521 -0.5652 -1.2523
 4568TIP3    H113710   3.846   3.954   4.751  2.4319  1.8314  0.7440
 4568TIP3    H213711   3.843   3.859   4.869  0.5476  0.2060 -0.5485
 4569TIP3   OH213712   1.474   4.544   4.596  0.2004 -0.1219 -0.4209
 4569TIP3    H113713   1.383   4.524   4.577  0.0136  0.7691 -0.5451
 4569TIP3    H213714   1.509   4.465   4.638 -0.9415 -0.0649  0.6929
 4570TIP3   OH213715   3.009   5.732   4.048 -0.4200 -0.6862  0.0987
 4570TIP3    H113716   2.917   5.756   4.047  0.0807  1.4862  0.7595
 4570TIP3    H213717   3.046   5.780   4.122  1.4813 -0.4499 -0.9143
 4571TIP3   OH213718   1.350   0.612   4.911  0.4383  0.2971  0.2372
 4571TIP3    H113719   1.277   0.609   4.848  1.4160 -1.1020 -0.8972
 4571TIP3    H213720   1.362   0.705   4.929 -1.6033  0.5626  0.4527
 4572TIP3   OH213721   4.691   5.288   4.569  0.0800  0.4210 -0.0923
 4572TIP3    H113722   4.768   5.235   4.552 -0.6768 -1.2971  1.4495
 4572TIP3    H213723   4.650   5.300   4.483  0.9012 -0.5236 -0.6316
 4573TIP3   OH213724   1.754   0.212   3.124 -0.2451  0.2783 -0.2449
 4573TIP3    H113725   1.748   0.205   3.029 -1.6467  1.7254 -0.3028
 4573TIP3    H213726   1.827   0.272   3.140 -0.5199  0.6633 -0.4368
 4574TIP3   OH213727   3.436   4.256   2.711  0.7026 -0.6336  0.4692
 4574TIP3    H113728   3.489   4.181   2.738 -0.9083 -1.5628  1.1803
 4574TIP3    H213729   3.346   4.229   2.728 -0.0097  0.9380 -0.5893
 4575TIP3   OH213730   5.349   3.636   2.131  0.1876  0.0905  0.0547
 4575TIP3    H113731   5.368   3.608   2.042  1.4805  1.2322 -0.0591
 4575TIP3    H213732   5.426   3.686   2.158 -1.0090  1.4727  1.0848
 4576TIP3   OH213733   5.946   4.129   0.474  0.3374  0.3504 -0.2914
 4576TIP3    H113734   5.877   4.158   0.533  0.3225  1.3736 -0.8053
 4576TIP3    H213735   5.941   4.187   0.399  0.4267 -0.8699 -1.2772
 4577TIP3   OH213736   4.214   3.268   1.147 -0.2156  0.3243  0.4355
 4577TIP3    H113737   4.209   3.304   1.059 -1.0875  0.0366  0.3559
 4577TIP3    H213738   4.273   3.327   1.194  1.7936 -0.5854 -0.8304
 4578TIP3   OH213739   3.725   4.639   5.128 -0.2785  0.2305 -0.0135
 4578TIP3    H113740   3.813   4.652   5.093  0.7106 -1.8716  1.4845
 4578TIP3    H213741   3.724   4.687   5.211 -1.5478  2.5208 -1.2326
 4579TIP3   OH213742   0.352   3.270   1.223 -0.5601 -0.1289 -0.0997
 4579TIP3    H113743   0.349   3.362   1.250  0.2225 -0.4471  1.1791
 4579TIP3    H213744   0.442   3.256   1.194 -0.7508 -0.4272 -0.5641
 4580TIP3   OH213745   6.310   4.350   3.659 -0.5190 -0.4642 -0.5316
 4580TIP3    H113746   6.277   4.303   3.582 -0.2014  0.4464 -1.2335
 4580TIP3    H213747   6.403   4.363   3.640 -0.2638 -0.9111  0.3616
 4581TIP3   OH213748   0.714   3.521   2.117 -0.4560  0.2365 -0.4617
 4581TIP3    H113749   0.699   3.453   2.052  0.4144  1.8926 -2.5155
 4581TIP3    H213750   0.627   3.552   2.141 -0.7916  0.0462 -1.3889
 4582TIP3   OH213751   0.693   5.405   4.368  0.2816  0.2013  0.0036
 4582TIP3    H113752   0.642   5.406   4.449 -0.2677  0.0746 -0.3424
 4582TIP3    H213753   0.644   5.461   4.308  1.1989  1.1093  0.0661
 4583TIP3   OH213754   3.959   1.043   5.203 -0.1160 -0.2554  0.2981
 4583TIP3    H113755   4.000   0.983   5.140  0.6966  0.2804  0.2945
 4583TIP3    H213756   3.897   1.094   5.151  1.4368  1.0459 -0.3751
 4584TIP3   OH213757   5.757   0.681   0.045  0.0532  0.5858 -0.2664
 4584TIP3    H113758   5.817   0.723   0.106 -1.3173  1.7514  0.3503
 4584TIP3    H213759   5.791   0.592   0.035  0.1104  0.1746  2.5769
 4585TIP3   OH213760   0.372   1.902   1.005 -0.5444  0.0932 -0.4419
 4585TIP3    H113761   0.376   1.884   0.911 -0.2782 -2.7167  0.0354
 4585TIP3    H213762   0.296   1.853   1.036 -1.1174  1.6331  0.7387
 4586TIP3   OH213763   3.005   5.202   2.205 -0.2211 -0.3711  0.5181
 4586TIP3    H113764   2.988   5.144   2.279  0.3732 -1.7970 -0.4370
 4586TIP3    H213765   2.963   5.160   2.130 -0.7172  0.9907 -0.0143
 4587TIP3   OH213766   0.879   5.855   4.389  0.1850  0.1417  0.3428
 4587TIP3    H113767   0.932   5.869   4.310  0.2494 -0.0414  0.3531
 4587TIP3    H213768   0.935   5.804   4.447  0.2552  0.5451  0.6348
 4588TIP3   OH213769   4.481   3.453   4.195 -0.7068 -0.5894 -0.2983
 4588TIP3    H113770   4.572   3.482   4.197 -0.8826  0.2686 -2.1650
 4588TIP3    H213771   4.476   3.385   4.261  1.5570 -1.3855 -0.8390
 4589TIP3   OH213772   3.706   0.128   2.287  0.0354 -0.3951 -0.1419
 4589TIP3    H113773   3.734   0.192   2.221  0.8413 -0.3963  0.1845
 4589TIP3    H213774   3.787   0.085   2.314 -0.4185 -1.0982  0.1211
 4590TIP3   OH213775   1.917   0.581   3.612 -0.4704  0.4983  0.6772
 4590TIP3    H113776   1.935   0.489   3.634  1.1506  0.0126 -2.1345
 4590TIP3    H213777   1.838   0.576   3.558 -0.6788  0.8304  0.9537
 4591TIP3   OH213778   0.128   4.387   1.171  0.1363  0.2020  0.2405
 4591TIP3    H113779   0.205   4.333   1.190  0.7504  0.6785 -0.7545
 4591TIP3    H213780   0.123   4.449   1.243  0.2531 -0.3055  0.6870
 4592TIP3   OH213781   5.720   4.612   2.568  0.5760 -0.4861  0.4199
 4592TIP3    H113782   5.762   4.687   2.611 -1.5485  0.7462  0.5511
 4592TIP3    H213783   5.725   4.632   2.475  1.4804 -1.0436  0.3418
 4593TIP3   OH213784   4.609   4.730   4.574  0.0565 -0.0894 -0.7535
 4593TIP3    H113785   4.534   4.737   4.515 -2.5103 -0.0118  2.2452
 4593TIP3    H213786   4.580   4.772   4.655  2.9109 -1.1656  0.9993
 4594TIP3   OH213787   3.400   2.164   3.196  0.1455  0.1401  0.1060
 4594TIP3    H113788   3.343   2.199   3.128 -0.2883 -1.0610 -0.1722
 4594TIP3    H213789   3.479   2.135   3.150 -0.9512 -2.5458 -0.2709
 4595TIP3   OH213790   1.151   5.790   1.225  0.1926 -0.4338  0.3969
 4595TIP3    H113791   1.093   5.849   1.272  0.3346 -0.2796  0.3778
 4595TIP3    H213792   1.155   5.826   1.137 -1.6392 -1.8058 -0.3087
 4596TIP3   OH213793   0.933   2.744   4.753 -0.1981 -0.4485 -0.0818
 4596TIP3    H113794   1.002   2.794   4.708  1.3159 -0.1020  2.4585
 4596TIP3    H213795   0.954   2.752   4.846 -3.4834 -0.6996  0.7944
 4597TIP3   OH213796   2.164   5.327   4.348 -0.2101  0.0052  0.4644
 4597TIP3    H113797   2.242   5.370   4.310 -0.4345  0.3896  0.4362
 4597TIP3    H213798   2.136   5.266   4.280 -0.7079  0.8115 -0.0722
 4598TIP3   OH213799   0.592   3.331   2.612  0.5740 -0.0900  0.2312
 4598TIP3    H113800   0.599   3.322   2.517 -2.5413 -0.0776 -0.1050
 4598TIP3    H213801   0.676   3.300   2.645  2.0880  0.7183 -2.5363
 4599TIP3   OH213802   4.678   5.810   2.183 -0.0352 -0.4451 -0.0701
 4599TIP3    H113803   4.691   5.842   2.272  0.6218  0.0716 -0.3379
 4599TIP3    H213804   4.606   5.863   2.148 -0.4150 -0.7728  0.2054
 4600TIP3   OH213805   6.089   2.657   1.033 -0.9889 -0.2077 -0.1354
 4600TIP3    H113806   6.129   2.636   1.117 -0.2426 -1.3180 -0.7403
 4600TIP3    H213807   6.090   2.575   0.984  0.6703  0.8309 -2.0372
 4601TIP3   OH213808   4.121   4.030   3.694  0.7622 -0.3832 -0.1553
 4601TIP3    H113809   4.079   4.019   3.780 -0.0207 -1.7691 -0.6777
 4601TIP3    H213810   4.079   4.108   3.657  1.0511  0.1801  0.6802
 4602TIP3   OH213811   2.543   4.087   2.325 -0.1256  0.1346  0.0730
 4602TIP3    H113812   2.491   4.149   2.376  1.9204  1.8721  0.1673
 4602TIP3    H213813   2.610   4.056   2.385 -1.7338 -3.1899  0.3824
 4603TIP3   OH213814   0.125   0.042   0.895  0.0650  0.1439 -0.3546
 4603TIP3    H113815   0.030   0.052   0.898  0.1349  1.4095 -1.3035
 4603TIP3    H213816   0.139  -0.050   0.873 -0.8863 -0.3940  1.1315
 4604TIP3   OH213817   2.452   3.401   2.304  0.0190  0.2297  0.6099
 4604TIP3    H113818   2.415   3.314   2.321 -0.8614  0.3677 -0.4526
 4604TIP3    H213819   2.375   3.457   2.291  0.5822  0.8061 -0.3705
 4605TIP3   OH213820   2.399   2.558   2.079 -0.6233 -0.0194  0.4189
 4605TIP3    H113821   2.334   2.616   2.040  0.0146 -0.3001 -1.1601
 4605TIP3    H213822   2.482   2.602   2.065 -0.3273 -0.3818  1.0147
 4606TIP3   OH213823   4.880   5.960   4.065 -0.0128  0.0929 -0.4654
 4606TIP3    H113824   4.862   5.901   4.138  0.0046 -1.7383 -1.8598
 4606TIP3    H213825   4.950   6.017   4.096 -0.4750 -0.1788  1.1528
 4607TIP3   OH213826   3.777   0.498   2.248 -0.1841  0.0067 -0.0166
 4607TIP3    H113827   3.844   0.550   2.292 -1.1730  0.4395  1.0341
 4607TIP3    H213828   3.810   0.487   2.159 -0.4228  3.3945 -0.6658
 4608TIP3   OH213829   0.191   1.841   4.704 -0.1399  0.2390  0.0597
 4608TIP3    H113830   0.158   1.786   4.775 -0.4371 -2.2060 -1.8489
 4608TIP3    H213831   0.268   1.795   4.671  0.5360  1.7981 -0.6564
 4609TIP3   OH213832   0.784   2.315   3.515  0.6327  0.1036 -0.4185
 4609TIP3    H113833   0.878   2.314   3.496  0.4072  0.5305 -1.6798
 4609TIP3    H213834   0.747   2.376   3.451 -0.6008 -0.6318 -0.4405
 4610TIP3   OH213835   0.351   3.231   3.420 -0.0601  0.3458 -0.0058
 4610TIP3    H113836   0.369   3.138   3.410  0.1055  0.4893 -1.0769
 4610TIP3    H213837   0.429   3.275   3.388 -0.5948  0.8767 -0.6071
 4611TIP3   OH213838   0.533   5.029   3.055 -0.2917  0.0880  0.2414
 4611TIP3    H113839   0.582   4.951   3.028 -0.4597  0.0290  0.1003
 4611TIP3    H213840   0.599   5.096   3.069 -0.0268 -0.4162  1.5641
 4612TIP3   OH213841   1.999   1.453   3.483  0.8308  0.6405  0.1852
 4612TIP3    H113842   1.914   1.460   3.526  1.3523 -1.3722  1.7004
 4612TIP3    H213843   2.059   1.424   3.552  1.9427 -1.6901 -1.6286
 4613TIP3   OH213844   2.573   3.446   1.644  0.0099 -0.0727  0.2174
 4613TIP3    H113845   2.627   3.524   1.654  0.5689 -0.6567  2.2363
 4613TIP3    H213846   2.636   3.373   1.649 -0.6233 -0.6985 -0.5752
 4614TIP3   OH213847   0.482   3.721   1.416  0.1160 -0.1849 -0.1167
 4614TIP3    H113848   0.506   3.811   1.395  1.4663 -0.4808  0.0727
 4614TIP3    H213849   0.468   3.722   1.511  2.5192 -0.6420  0.3044
 4615TIP3   OH213850   4.169   5.418   0.781  0.5100 -0.4193 -0.1088
 4615TIP3    H113851   4.215   5.388   0.703  0.5689 -1.1735  0.2104
 4615TIP3    H213852   4.156   5.339   0.833 -1.0806 -0.2309 -0.1597
 4616TIP3   OH213853   1.523   2.286   2.890  0.6195 -0.0450 -0.3226
 4616TIP3    H113854   1.475   2.291   2.808 -1.0197 -0.2520  0.5830
 4616TIP3    H213855   1.589   2.355   2.884 -1.1911  1.7272 -0.7425
 4617TIP3   OH213856   5.021   2.739   3.673 -0.6406 -0.1341 -0.0950
 4617TIP3    H113857   4.979   2.729   3.588  0.7582 -1.5260 -0.6616
 4617TIP3    H213858   5.018   2.651   3.712  1.4540 -0.2507 -0.0595
 4618TIP3   OH213859   1.337   2.471   0.130  0.0097  0.2741  0.5587
 4618TIP3    H113860   1.282   2.401   0.167  0.8430 -0.4090  0.5198
 4618TIP3    H213861   1.374   2.514   0.207  0.2206  0.0828  0.5656
 4619TIP3   OH213862   3.222   1.478   1.203  0.4251 -0.3660 -0.5412
 4619TIP3    H113863   3.236   1.453   1.295 -0.6482  1.4798  0.1782
 4619TIP3    H213864   3.304   1.520   1.177  0.6904 -0.7872 -0.3903
 4620TIP3   OH213865   5.794   2.820   0.270 -0.0207 -0.3560  0.7991
 4620TIP3    H113866   5.698   2.826   0.270 -0.0852 -0.1654 -1.9003
 4620TIP3    H213867   5.822   2.897   0.222  1.2915 -1.8210 -0.9247
 4621TIP3   OH213868   3.553   1.035   0.455  0.2973 -0.2954  0.3385
 4621TIP3    H113869   3.500   1.109   0.485 -2.3482 -1.9189 -0.0054
 4621TIP3    H213870   3.639   1.050   0.494 -0.4274  2.3789  1.1269
 4622TIP3   OH213871   0.507   0.305   4.011 -0.3117 -0.0576  0.4414
 4622TIP3    H113872   0.569   0.241   4.046 -0.7779 -1.0669 -0.5090
 4622TIP3    H213873   0.484   0.360   4.086  1.3463  0.0425  0.9190
 4623TIP3   OH213874   1.689   5.085   0.458 -0.0078 -0.0709  0.4145
 4623TIP3    H113875   1.742   5.058   0.383  0.0341 -2.4322  1.1917
 4623TIP3    H213876   1.745   5.143   0.508  1.0900 -0.8630  0.1308
 4624TIP3   OH213877   0.616   3.803   1.907 -0.3359 -0.0153  0.2068
 4624TIP3    H113878   0.589   3.895   1.917 -0.1083 -0.0693  1.4255
 4624TIP3    H213879   0.639   3.775   1.995  0.9285 -0.8439 -0.3671
 4625TIP3   OH213880   0.561   1.603   2.099 -0.2588 -0.0602  0.3369
 4625TIP3    H113881   0.471   1.574   2.113 -1.4146  2.2035 -1.5998
 4625TIP3    H213882   0.552   1.693   2.068  2.7386  0.4416  0.6478
 4626TIP3   OH213883   2.111   4.903   0.742 -0.4116  0.3575 -0.2923
 4626TIP3    H113884   2.194   4.923   0.699  0.4839  1.4938  1.7636
 4626TIP3    H213885   2.115   4.809   0.760 -0.2394  0.1248 -1.4869
 4627TIP3   OH213886   0.570   4.633   0.152  0.1158 -0.1456  0.0838
 4627TIP3    H113887   0.644   4.685   0.122 -0.2911  0.8907  0.8268
 4627TIP3    H213888   0.497   4.660   0.096  0.3236 -1.3314 -0.8019
 4628TIP3   OH213889   2.432   2.244   2.016 -0.1599  0.7896  0.1613
 4628TIP3    H113890   2.487   2.318   1.991 -0.3080  0.7566 -0.2849
 4628TIP3    H213891   2.457   2.175   1.954  0.1521  0.3847  0.7293
 4629TIP3   OH213892   0.551   3.260   1.618  0.2077 -0.0028  0.0294
 4629TIP3    H113893   0.473   3.205   1.611 -0.1991  0.5870 -0.1433
 4629TIP3    H213894   0.518   3.349   1.618  0.9464  0.2933 -1.0021
 4630TIP3   OH213895   3.827   2.265   0.013  0.4270  0.9194  0.4638
 4630TIP3    H113896   3.812   2.207  -0.061  1.0761  0.4969  0.6556
 4630TIP3    H213897   3.835   2.206   0.088  0.6059  1.2839  0.7331
 4631TIP3   OH213898   1.029   5.858   2.914  0.0922  0.2662 -0.4276
 4631TIP3    H113899   1.074   5.774   2.925  1.8147  1.2662  0.5874
 4631TIP3    H213900   1.087   5.909   2.858 -1.3474  0.5293 -1.7451
 4632TIP3   OH213901   3.623   2.784   3.381  0.1597  0.3251  0.1032
 4632TIP3    H113902   3.635   2.754   3.471  1.3068 -0.8222 -0.4114
 4632TIP3    H213903   3.548   2.734   3.349 -1.0944  1.6835  0.7961
 4633TIP3   OH213904   6.350   4.841   4.139  0.3826 -0.7453 -0.6139
 4633TIP3    H113905   6.287   4.893   4.189 -0.7473 -0.2732 -2.4278
 4633TIP3    H213906   6.296   4.774   4.095  1.2951 -1.0586 -1.2918
 4634TIP3   OH213907   1.332   0.560   3.013  0.3846  0.8098 -0.6569
 4634TIP3    H113908   1.353   0.467   3.010 -0.3067  0.6275 -0.0923
 4634TIP3    H213909   1.257   0.570   2.954  1.2716  1.2557 -1.7540
 4635TIP3   OH213910   1.753   4.013   1.223  0.0589 -0.0424 -0.0512
 4635TIP3    H113911   1.736   4.017   1.129  0.6633 -0.7028 -0.1932
 4635TIP3    H213912   1.821   3.946   1.233 -1.6572 -1.7125  1.0984
 4636TIP3   OH213913   5.543   1.535   0.918  0.1665  0.1239 -0.2170
 4636TIP3    H113914   5.630   1.513   0.885  0.1787  0.7630 -0.6245
 4636TIP3    H213915   5.484   1.475   0.873  0.2135  0.8172 -1.2403
 4637TIP3   OH213916   4.027   2.696   5.126 -0.0103  0.5818 -0.0786
 4637TIP3    H113917   3.938   2.676   5.095  0.2729  0.1606 -0.6270
 4637TIP3    H213918   4.060   2.760   5.063  1.0560 -1.2629 -1.4546
 4638TIP3   OH213919   0.290   2.969   3.162 -0.4825 -0.3886  0.2985
 4638TIP3    H113920   0.316   2.894   3.217 -1.3142 -0.1004  1.1299
 4638TIP3    H213921   0.202   2.990   3.193 -0.7755  0.1016 -0.8416
 4639TIP3   OH213922   2.572   3.267   4.923  0.2943  0.4062  0.3243
 4639TIP3    H113923   2.640   3.287   4.989 -0.1526 -0.0731  0.9423
 4639TIP3    H213924   2.491   3.298   4.963 -0.0279 -0.1966  0.1512
 4640TIP3   OH213925   1.433   1.686   1.787  0.2232  0.8005 -0.1779
 4640TIP3    H113926   1.341   1.704   1.770  0.4007  0.7022 -1.3120
 4640TIP3    H213927   1.443   1.593   1.767  0.6752  0.9238 -0.5303
 4641TIP3   OH213928   5.582   4.812   2.141  0.0105  0.1912  0.3496
 4641TIP3    H113929   5.623   4.893   2.112 -0.3092  0.9313  1.8162
 4641TIP3    H213930   5.488   4.833   2.146 -0.1145 -0.3577  0.4407
 4642TIP3   OH213931   1.231   1.050   1.773  0.1972  0.6647  0.3224
 4642TIP3    H113932   1.312   1.044   1.722 -0.5679  1.4491 -1.0399
 4642TIP3    H213933   1.251   1.005   1.855  2.4685  1.9844  0.5986
 4643TIP3   OH213934   4.176   2.031   5.091  0.0471  0.1919  0.2636
 4643TIP3    H113935   4.112   2.091   5.129 -1.1432 -0.7882 -0.1126
 4643TIP3    H213936   4.257   2.082   5.085 -0.2894  1.0314  2.0827
 4644TIP3   OH213937   1.993   4.961   2.399 -0.1148 -0.1117 -0.4656
 4644TIP3    H113938   1.963   4.978   2.488  0.0030 -1.4357 -0.1439
 4644TIP3    H213939   2.085   4.988   2.399 -0.6521  1.8522 -0.8126
 4645TIP3   OH213940   0.595   2.221   4.774  0.0796  0.2521 -0.2400
 4645TIP3    H113941   0.582   2.315   4.760  0.2061  0.2870 -0.1316
 4645TIP3    H213942   0.617   2.214   4.867 -2.8372 -0.1948  0.5121
 4646TIP3   OH213943   4.633   4.490   4.748  0.4366 -0.4537  0.1161
 4646TIP3    H113944   4.611   4.540   4.670  1.2530  0.0875  0.2227
 4646TIP3    H213945   4.690   4.548   4.800  0.6856 -1.1540  0.6556
 4647TIP3   OH213946   1.225   1.029   2.663 -0.2805 -0.4642 -0.8864
 4647TIP3    H113947   1.320   1.027   2.673 -0.2797 -1.2837 -1.0335
 4647TIP3    H213948   1.211   1.042   2.569 -0.3201 -0.4903 -0.8838
 4648TIP3   OH213949   5.321   3.907   1.623 -0.0411 -0.0676 -0.3292
 4648TIP3    H113950   5.390   3.862   1.573 -1.0253 -1.2948 -0.6397
 4648TIP3    H213951   5.297   3.982   1.569  1.2473  0.5637 -0.0694
 4649TIP3   OH213952   2.627   2.822   1.106 -0.0970 -0.6180  0.4336
 4649TIP3    H113953   2.578   2.884   1.052  1.7785 -0.4498 -1.2180
 4649TIP3    H213954   2.612   2.737   1.065  0.7581 -0.5915  0.0298
 4650TIP3   OH213955   1.406   0.396   5.090  0.2583 -0.3315  0.3559
 4650TIP3    H113956   1.431   0.464   5.027  1.8309 -1.7603 -0.6648
 4650TIP3    H213957   1.455   0.419   5.169  1.4931 -0.7317 -0.2671
 4651TIP3   OH213958   4.708   5.373   4.294 -0.6996  0.0460 -0.0167
 4651TIP3    H113959   4.682   5.408   4.209  2.5056  2.7946 -0.0751
 4651TIP3    H213960   4.804   5.364   4.289 -0.4190 -0.1359  3.1196
 4652TIP3   OH213961   5.568   2.520   1.456  0.1619 -0.3401 -0.4837
 4652TIP3    H113962   5.650   2.472   1.466  0.0550 -0.2417  1.0586
 4652TIP3    H213963   5.570   2.586   1.525 -1.3055 -0.4812 -0.2686
 4653TIP3   OH213964   0.225   0.565   5.137  0.3825 -0.0078  0.4299
 4653TIP3    H113965   0.190   0.569   5.048 -0.8679  0.1759  0.9118
 4653TIP3    H213966   0.180   0.490   5.177  1.9872 -0.9773  0.4920
 4654TIP3   OH213967   4.583   2.530   3.758  0.4071 -0.3625 -0.1355
 4654TIP3    H113968   4.543   2.615   3.776  1.8164  1.0518 -3.0596
 4654TIP3    H213969   4.536   2.497   3.681  1.3702 -1.1599 -0.3994
 4655TIP3   OH213970   0.383   5.514   0.428 -0.3665 -0.1519  0.3646
 4655TIP3    H113971   0.472   5.506   0.392 -0.5919 -2.0565  0.1243
 4655TIP3    H213972   0.354   5.423   0.440 -1.8906  0.4474  1.4342
 4656TIP3   OH213973   1.487   5.627   4.005  0.2970 -0.1333 -0.4277
 4656TIP3    H113974   1.460   5.558   4.064  0.9193  0.1806  0.2388
 4656TIP3    H213975   1.472   5.708   4.053 -1.2442  0.2826 -1.5150
 4657TIP3   OH213976   3.568   1.964   3.031 -0.2768  0.2747 -0.2704
 4657TIP3    H113977   3.632   1.992   2.966 -0.4345  1.3265  0.0013
 4657TIP3    H213978   3.620   1.924   3.101 -0.0393 -0.1038 -0.6617
 4658TIP3   OH213979   4.098   1.156   1.326  0.0293 -0.3036  0.2518
 4658TIP3    H113980   4.049   1.195   1.253 -1.0426  0.4079  1.3287
 4658TIP3    H213981   4.165   1.221   1.347  1.4720 -1.2454 -1.1732
 4659TIP3   OH213982   6.352   0.018   3.234 -0.5173  0.3697 -0.1588
 4659TIP3    H113983   6.299   0.047   3.308 -0.6833 -1.6112  0.5532
 4659TIP3    H213984   6.413  -0.045   3.272  0.5237  0.5592 -1.4506
 4660TIP3   OH213985   2.721   4.845   0.548 -0.2504  0.3191  0.0642
 4660TIP3    H113986   2.647   4.844   0.609  0.1160  1.2294  0.5550
 4660TIP3    H213987   2.684   4.878   0.466 -0.0866  2.5235  0.8043
 4661TIP3   OH213988   6.214   4.445   2.474 -0.1574  0.1949  0.2057
 4661TIP3    H113989   6.212   4.369   2.416 -1.7186  0.3877 -0.0463
 4661TIP3    H213990   6.150   4.423   2.543 -0.1465  1.0026  0.4789
 4662TIP3   OH213991   3.968   3.511   5.178 -0.0000  0.4707 -0.6250
 4662TIP3    H113992   4.000   3.438   5.124 -0.5418 -0.3139  0.0760
 4662TIP3    H213993   4.047   3.553   5.211  0.3389  0.9150 -1.9439
 4663TIP3   OH213994   1.225   3.617   5.045 -0.1734 -0.4970  0.1887
 4663TIP3    H113995   1.258   3.706   5.061 -0.7975 -0.3068  0.4466
 4663TIP3    H213996   1.133   3.621   5.071 -0.2717 -1.1521 -0.0524
 4664TIP3   OH213997   5.163   0.842   3.998  0.3156 -0.0412 -0.1834
 4664TIP3    H113998   5.110   0.807   3.927 -0.6176 -1.1884  1.0201
 4664TIP3    H213999   5.240   0.785   4.001  0.3244 -0.0319 -0.2328
 4665TIP3   OH214000   2.600   2.323   2.728  0.1753 -0.0628 -0.1381
 4665TIP3    H114001   2.587   2.281   2.642 -0.9288  1.0155 -0.5372
 4665TIP3    H214002   2.569   2.413   2.715 -1.1967 -0.2043  1.6967
 4666TIP3   OH214003   5.161   0.587   2.194 -0.5620  0.1758  0.3929
 4666TIP3    H114004   5.182   0.673   2.231  0.8115  0.1264 -0.2044
 4666TIP3    H214005   5.245   0.541   2.191 -1.1204 -0.8379 -0.1633
 4667TIP3   OH214006   6.332   4.613   0.205 -0.2834 -0.5017 -0.2159
 4667TIP3    H114007   6.269   4.543   0.188 -0.7703 -0.2771  0.5754
 4667TIP3    H214008   6.334   4.663   0.124 -1.1123 -0.5341 -0.2697
 4668TIP3   OH214009   3.889   1.192   0.436  0.0520 -0.1613  0.0348
 4668TIP3    H114010   3.818   1.215   0.496 -1.8572 -3.3751 -0.7192
 4668TIP3    H214011   3.893   1.265   0.374 -2.4826  0.2674  0.2454
 4669TIP3   OH214012   0.645   0.727   4.829 -0.2742  0.2114  0.0145
 4669TIP3    H114013   0.586   0.664   4.787 -0.8299 -0.4625  1.6984
 4669TIP3    H214014   0.681   0.679   4.904 -1.0758  2.0133  1.6268
 4670TIP3   OH214015   0.559   0.527   2.628 -0.1754 -0.2682 -0.3537
 4670TIP3    H114016   0.576   0.621   2.639  0.4192 -0.4153  0.0306
 4670TIP3    H214017   0.632   0.484   2.672 -1.5490 -0.9416  1.3807
 4671TIP3   OH214018   2.624   0.271   2.470 -0.0985  0.6937  0.7583
 4671TIP3    H114019   2.647   0.347   2.524 -0.8200  0.7527  0.9899
 4671TIP3    H214020   2.576   0.308   2.396 -3.0719  0.2761  2.3234
 4672TIP3   OH214021   1.315   4.475   5.098  0.6947  0.0135 -0.3864
 4672TIP3    H114022   1.221   4.481   5.083  0.4690 -0.7293  0.5965
 4672TIP3    H214023   1.350   4.559   5.069 -0.3328  0.4666 -0.3394
 4673TIP3   OH214024   3.011   0.455   3.059  0.6241  0.2891  0.1183
 4673TIP3    H114025   2.943   0.518   3.081 -0.1766 -0.9194  1.2586
 4673TIP3    H214026   3.017   0.399   3.136  2.0596 -0.3782 -0.4506
 4674TIP3   OH214027   1.341   5.718   1.852  0.1936 -0.3275  0.8371
 4674TIP3    H114028   1.372   5.793   1.802  2.5918 -1.3407  0.6828
 4674TIP3    H214029   1.315   5.754   1.937  0.2740  0.8050  0.3877
 4675TIP3   OH214030   3.580   2.035   1.282 -0.0503 -0.3844 -0.4014
 4675TIP3    H114031   3.526   1.957   1.299 -0.0388  0.2956  4.0318
 4675TIP3    H214032   3.524   2.092   1.229 -1.4023 -2.0156 -0.8264
 4676TIP3   OH214033   0.578   5.752   3.831  0.3290 -0.3984  0.3705
 4676TIP3    H114034   0.599   5.730   3.741  0.5529 -1.8819  0.7654
 4676TIP3    H214035   0.601   5.674   3.882  1.7461  0.9258  1.9443
 4677TIP3   OH214036   0.096   2.880   1.922  0.1891  0.5136  0.2788
 4677TIP3    H114037   0.052   2.801   1.891  1.7704  0.5844 -2.4910
 4677TIP3    H214038   0.146   2.851   1.998  0.3497 -1.0565 -0.3834
 4678TIP3   OH214039   4.644   0.352   1.019  0.0865  0.1907 -0.6412
 4678TIP3    H114040   4.662   0.436   0.977  0.6584  0.3242 -0.1440
 4678TIP3    H214041   4.718   0.297   0.995  0.8902  0.5418  0.8826
 4679TIP3   OH214042   5.849   2.227   3.222 -0.6407 -0.7281  0.1759
 4679TIP3    H114043   5.838   2.187   3.308  0.9177  1.2243  1.3798
 4679TIP3    H214044   5.926   2.184   3.184 -0.9455 -1.1440  0.0234
 4680TIP3   OH214045   4.289   4.865   3.821  0.2966 -0.3193 -0.2096
 4680TIP3    H114046   4.320   4.847   3.733 -0.7205  1.8249 -1.0948
 4680TIP3    H214047   4.193   4.861   3.814  0.2021  0.0308  0.7505
 4681TIP3   OH214048   0.319   4.722   4.652 -0.4307 -0.4552 -0.7319
 4681TIP3    H114049   0.282   4.786   4.591  1.0535  0.7624 -0.4349
 4681TIP3    H214050   0.244   4.681   4.694 -1.4279  0.8039 -1.2347
 4682TIP3   OH214051   4.233   3.930   0.611  0.4425 -0.0309 -0.1777
 4682TIP3    H114052   4.173   3.959   0.680  0.9778 -1.3823  0.9220
 4682TIP3    H214053   4.179   3.924   0.533 -0.3425  0.8805  0.2726
 4683TIP3   OH214054   5.642   5.858   0.905 -0.1903 -0.2166 -0.4505
 4683TIP3    H114055   5.687   5.878   0.823  0.6508 -0.0346  0.0494
 4683TIP3    H214056   5.712   5.834   0.966 -0.4428  2.4624  1.0782
 4684TIP3   OH214057  -0.006   3.403   3.767  0.0431  0.0235 -0.3100
 4684TIP3    H114058   0.088   3.417   3.778 -0.1664  0.0488  2.0111
 4684TIP3    H214059  -0.046   3.484   3.801 -0.8346 -0.2279 -0.7087
 4685TIP3   OH214060   3.207   5.530   3.253 -0.4335  0.5607 -0.2856
 4685TIP3    H114061   3.251   5.529   3.168 -1.8489 -0.7126 -1.0509
 4685TIP3    H214062   3.168   5.443   3.261 -2.2130  1.3811  0.6354
 4686TIP3   OH214063   2.784   4.284   1.300 -0.9212  0.1323  0.1764
 4686TIP3    H114064   2.833   4.204   1.317  0.3627  0.8494 -0.0167
 4686TIP3    H214065   2.771   4.323   1.387 -0.8018  0.1484  0.1866
 4687TIP3   OH214066   3.002   2.561   3.234 -0.7605 -0.4174 -0.0225
 4687TIP3    H114067   2.963   2.515   3.159 -0.2634 -0.1318 -0.4696
 4687TIP3    H214068   3.008   2.652   3.204 -1.9989  0.0064  0.9556
 4688TIP3   OH214069   5.627   3.267   0.248 -0.4018  0.5043  0.1116
 4688TIP3    H114070   5.682   3.340   0.219 -0.3227 -0.2682 -1.7864
 4688TIP3    H214071   5.617   3.212   0.171 -3.3249  0.2545  0.5812
 4689TIP3   OH214072   3.403   5.539   0.646 -0.1699  0.0757 -0.4095
 4689TIP3    H114073   3.436   5.454   0.676 -1.6171 -0.2933  0.2280
 4689TIP3    H214074   3.313   5.521   0.618 -1.6139  1.8553  2.5027
 4690TIP3   OH214075   1.600   5.864   4.904 -0.3528 -0.0234 -0.0248
 4690TIP3    H114076   1.615   5.866   4.998 -0.2915  0.5896 -0.0497
 4690TIP3    H214077   1.593   5.955   4.878  0.9964 -0.1203 -0.8334
 4691TIP3   OH214078   5.032   3.931   0.593  0.6501  0.2625  0.1700
 4691TIP3    H114079   5.083   3.850   0.601  2.8455  1.6689  1.3051
 4691TIP3    H214080   4.976   3.932   0.670 -0.4572 -0.8181 -0.5807
 4692TIP3   OH214081   2.127   5.808   0.929  0.3612  0.1677 -0.5598
 4692TIP3    H114082   2.185   5.869   0.974  0.6604 -0.2258 -0.4074
 4692TIP3    H214083   2.052   5.862   0.902  0.2098  0.4186  0.3437
 4693TIP3   OH214084   5.199   2.222   4.666  0.2789 -0.0855 -0.0683
 4693TIP3    H114085   5.151   2.245   4.586 -0.1527 -1.2337 -0.1612
 4693TIP3    H214086   5.288   2.254   4.650  0.4339 -1.0900 -1.4067
 4694TIP3   OH214087   2.556   4.802   3.486 -0.0292 -0.6039 -0.6446
 4694TIP3    H114088   2.595   4.745   3.553 -0.3864  0.8293  0.8565
 4694TIP3    H214089   2.469   4.765   3.472  0.2036 -1.1647 -0.6477
 4695TIP3   OH214090   2.538   2.019   1.868 -0.5476  0.0675  0.8347
 4695TIP3    H114091   2.474   2.002   1.799 -0.7068  0.5306  0.8664
 4695TIP3    H214092   2.614   1.965   1.843 -0.3403  0.7474 -0.0868
 4696TIP3   OH214093   6.085   0.869   5.144  0.0140  0.2671  0.0098
 4696TIP3    H114094   6.007   0.813   5.143 -0.1711  0.5145  0.4497
 4696TIP3    H214095   6.152   0.816   5.188  0.1037  0.0485 -0.3822
 4697TIP3   OH214096   4.909   5.079   1.409  0.1912  0.2660  0.0358
 4697TIP3    H114097   4.866   5.041   1.332 -1.3593  0.3405  0.8205
 4697TIP3    H214098   4.853   5.153   1.433  1.0204  0.6504  0.8391
 4698TIP3   OH214099   3.098   4.670   0.211 -0.1921 -0.2904 -0.0815
 4698TIP3    H114100   3.023   4.672   0.151  0.1699 -0.0747 -0.5297
 4698TIP3    H214101   3.114   4.577   0.225  0.2911 -0.3661 -1.0479
 4699TIP3   OH214102   6.126   3.178   0.388  0.3270 -0.2498  0.3203
 4699TIP3    H114103   6.192   3.216   0.330 -0.0776 -0.2874 -0.1708
 4699TIP3    H214104   6.153   3.206   0.476  1.1702 -0.5268  0.1605
 4700TIP3   OH214105   1.770   5.739   0.770 -0.1658 -0.1947  0.5006
 4700TIP3    H114106   1.805   5.799   0.836  1.2179  0.7116 -0.9958
 4700TIP3    H214107   1.695   5.698   0.813  0.6714  0.3626  2.6187
 4701TIP3   OH214108   0.252   4.003   2.839  0.3775 -0.1622  0.5640
 4701TIP3    H114109   0.274   4.095   2.852 -0.6859 -0.1452  2.6203
 4701TIP3    H214110   0.160   4.004   2.812 -0.4327 -0.6606  3.0659
 4702TIP3   OH214111   1.581   1.794   3.346 -0.0541 -0.6838  0.4660
 4702TIP3    H114112   1.528   1.769   3.422  1.5810 -1.3171  1.4581
 4702TIP3    H214113   1.517   1.807   3.275 -1.7334  1.0282  2.1838
 4703TIP3   OH214114   1.566   0.528   1.189  0.1228 -1.2192 -0.0617
 4703TIP3    H114115   1.621   0.498   1.116  0.6753 -0.8037  0.1744
 4703TIP3    H214116   1.480   0.488   1.173  0.4352 -1.7031 -0.5537
 4704TIP3   OH214117   5.806   3.969   3.985  0.0497 -0.4045  0.3014
 4704TIP3    H114118   5.868   3.900   3.958  0.5262  0.1841 -0.1444
 4704TIP3    H214119   5.839   4.048   3.942 -0.0612  0.2589  1.4012
 4705TIP3   OH214120   3.212   0.385   2.103 -0.5588 -0.6363 -0.4664
 4705TIP3    H114121   3.135   0.423   2.060  0.2000  1.3179 -0.2331
 4705TIP3    H214122   3.199   0.404   2.196 -0.2477 -1.1554 -0.3129
 4706TIP3   OH214123   0.081   1.497   5.068  0.1490  0.1692  0.5413
 4706TIP3    H114124   0.126   1.418   5.097 -1.1280 -1.6513 -2.0508
 4706TIP3    H214125  -0.009   1.486   5.101  0.1970  1.0188  0.9657
 4707TIP3   OH214126   0.696   0.157   2.503  0.4296 -0.1966 -0.2330
 4707TIP3    H114127   0.678   0.250   2.515 -0.6690 -0.3313 -0.7981
 4707TIP3    H214128   0.756   0.135   2.575  0.1610  0.7864  0.2998
 4708TIP3   OH214129   1.062   0.300   1.858 -0.0032  0.0633 -0.5552
 4708TIP3    H114130   1.082   0.287   1.765 -0.3943 -0.7803 -0.5334
 4708TIP3    H214131   0.967   0.298   1.862 -0.0186  1.0708 -0.2604
 4709TIP3   OH214132   4.576   4.987   1.381  0.3530  0.4042 -0.1038
 4709TIP3    H114133   4.572   4.891   1.378  0.0907  0.4337 -1.4890
 4709TIP3    H214134   4.653   5.009   1.328 -0.0869  0.9726 -0.5308
 4710TIP3   OH214135   4.364   5.755   3.269 -0.3913 -0.3107 -0.0427
 4710TIP3    H114136   4.310   5.719   3.340  1.1292 -1.6500  0.4931
 4710TIP3    H214137   4.454   5.737   3.296  0.2391 -0.9915 -2.3972
 4711TIP3   OH214138   4.887   4.591   1.978 -0.0547  0.1426 -0.2142
 4711TIP3    H114139   4.978   4.580   2.005  0.7830  0.1249 -2.8098
 4711TIP3    H214140   4.872   4.685   1.980  1.0681  0.4464 -2.6672
 4712TIP3   OH214141   0.401   1.685   0.360 -0.2694  0.1213 -0.5685
 4712TIP3    H114142   0.325   1.656   0.410 -0.3252  0.4765 -0.4420
 4712TIP3    H214143   0.476   1.668   0.417 -0.2944  0.1550 -0.5260
 4713TIP3   OH214144   3.315   2.847   3.901 -0.2989  0.1926 -0.2979
 4713TIP3    H114145   3.334   2.852   3.994  0.0884  0.0322 -0.3652
 4713TIP3    H214146   3.317   2.753   3.881 -0.6346  0.2083 -0.4170
 4714TIP3   OH214147   5.171   1.790   4.354  0.2163 -0.1669  0.2173
 4714TIP3    H114148   5.102   1.794   4.420  0.3730 -0.5901  0.4130
 4714TIP3    H214149   5.146   1.717   4.297  0.1954  0.0563 -0.0644
 4715TIP3   OH214150   5.224   5.830   1.659 -0.3907  0.0354 -0.1480
 4715TIP3    H114151   5.217   5.736   1.646  1.4644 -0.1568  0.0175
 4715TIP3    H214152   5.260   5.863   1.577  3.1458 -0.0437  1.2273
 4716TIP3   OH214153   1.451   1.449   0.441 -0.0717 -0.6884  0.0976
 4716TIP3    H114154   1.472   1.407   0.358 -0.2678 -2.2949  0.8039
 4716TIP3    H214155   1.413   1.378   0.494 -0.0323  0.3086  1.5122
 4717TIP3   OH214156   5.805   4.570   1.358  0.9609  0.4689  0.3768
 4717TIP3    H114157   5.830   4.582   1.266  1.6372 -0.2260  0.4648
 4717TIP3    H214158   5.839   4.648   1.402 -0.8042  1.6538 -0.2025
 4718TIP3   OH214159   6.054   4.469   3.504 -0.5175  0.3157 -0.1211
 4718TIP3    H114160   6.139   4.482   3.547 -1.3535  0.4478  1.5986
 4718TIP3    H214161   6.075   4.459   3.412  1.5172 -1.1587  0.4306
 4719TIP3   OH214162   5.244   2.332   4.935  0.4653 -0.6269 -0.6263
 4719TIP3    H114163   5.235   2.339   4.840  0.2914 -0.9450 -0.6319
 4719TIP3    H214164   5.231   2.240   4.954 -1.2172 -0.3178 -0.1134
 4720TIP3   OH214165   1.149   2.643   2.938 -0.5524  0.0706 -0.9349
 4720TIP3    H114166   1.210   2.618   2.869 -0.3499  4.5246 -2.6720
 4720TIP3    H214167   1.202   2.690   3.002 -1.3088 -1.0744  0.6060
 4721TIP3   OH214168   2.100   0.846   4.037  0.0519  0.6128  0.5427
 4721TIP3    H114169   2.014   0.806   4.053 -0.8582  2.5595  0.7881
 4721TIP3    H214170   2.132   0.802   3.959 -2.1741  1.3098 -0.8656
 4722TIP3   OH214171   2.215   5.406   1.221  0.2646 -0.2099  0.2353
 4722TIP3    H114172   2.201   5.500   1.211  1.2288  0.1494  1.8498
 4722TIP3    H214173   2.310   5.395   1.214  0.4609 -0.6463  2.7210
 4723TIP3   OH214174   3.243   3.907   5.090  0.5867  0.2574 -0.1323
 4723TIP3    H114175   3.178   3.941   5.152  0.9056 -0.8857  0.8791
 4723TIP3    H214176   3.327   3.922   5.133  0.6916 -3.2314  1.2301
 4724TIP3   OH214177   2.930   1.413   0.846 -0.4006 -0.3570 -0.3300
 4724TIP3    H114178   2.895   1.393   0.933 -0.0176 -1.6202 -0.4519
 4724TIP3    H214179   3.000   1.476   0.863 -0.3838 -0.5277  0.2718
 4725TIP3   OH214180   1.137   0.113   3.044  0.3776  0.0278  0.2500
 4725TIP3    H114181   1.110   0.067   3.124 -1.7148 -3.7565 -2.2894
 4725TIP3    H214182   1.213   0.063   3.013  0.0785  0.2844 -0.9555
 4726TIP3   OH214183   3.247   2.422   3.319  0.3381  0.1994 -0.2755
 4726TIP3    H114184   3.167   2.475   3.317  1.3737  1.8402 -0.8589
 4726TIP3    H214185   3.252   2.382   3.233 -0.2373 -0.5190  0.0220
 4727TIP3   OH214186   4.844   4.346   3.099  0.3910 -0.4131  0.4642
 4727TIP3    H114187   4.936   4.326   3.117  1.1533 -0.0673 -2.5219
 4727TIP3    H214188   4.797   4.267   3.124  1.6235 -0.9759  1.1029
 4728TIP3   OH214189   5.888   0.328   1.315  0.2923  0.3269  0.2787
 4728TIP3    H114190   5.979   0.356   1.302  0.3880 -0.1170 -0.0329
 4728TIP3    H214191   5.841   0.370   1.243  0.1594  0.9529  0.7201
 4729TIP3   OH214192   3.009   1.773   2.539  0.1102 -1.0078 -0.4772
 4729TIP3    H114193   2.986   1.755   2.448  0.6319 -0.5414 -0.7106
 4729TIP3    H214194   3.099   1.743   2.547  0.2214 -0.6163 -0.2437
 4730TIP3   OH214195   3.357   1.909   4.643  0.3299 -0.1576  0.3013
 4730TIP3    H114196   3.295   1.981   4.629 -0.8384 -1.5459 -2.1700
 4730TIP3    H214197   3.384   1.883   4.555  0.8456 -2.6215  1.1240
 4731TIP3   OH214198   0.260   5.204   4.173 -0.1119 -0.3419 -0.1625
 4731TIP3    H114199   0.229   5.290   4.201 -0.3311 -0.4815  0.0296
 4731TIP3    H214200   0.238   5.146   4.246  1.1044 -0.3474  0.2274
 4732TIP3   OH214201   4.733   2.162   2.975  0.7887 -0.5902 -0.0150
 4732TIP3    H114202   4.657   2.120   3.014  0.7923 -0.6144 -0.0342
 4732TIP3    H214203   4.745   2.117   2.891  0.4504 -0.1753 -0.2896
 4733TIP3   OH214204   1.899   0.988   3.778  0.3993  0.0646  0.0355
 4733TIP3    H114205   1.943   1.063   3.820  0.9895 -1.0573  1.5432
 4733TIP3    H214206   1.933   0.987   3.689  0.7418  1.3131  0.1348
 4734TIP3   OH214207   5.254   1.422   4.614 -0.2771 -0.4361 -0.1249
 4734TIP3    H114208   5.294   1.336   4.601 -1.2031 -0.8601 -0.2852
 4734TIP3    H214209   5.299   1.479   4.551 -0.1165 -0.9594 -0.4903
 4735TIP3   OH214210   2.858   3.009   3.249 -0.3371 -0.4174 -0.6205
 4735TIP3    H114211   2.930   2.976   3.194 -0.7582 -1.4255 -0.5863
 4735TIP3    H214212   2.780   2.969   3.212 -0.7272 -0.3916  0.1655
 4736TIP3   OH214213   5.421   1.570   0.503  0.4437  0.1477 -0.5108
 4736TIP3    H114214   5.500   1.517   0.511 -0.4326 -1.2314 -0.6635
 4736TIP3    H214215   5.366   1.521   0.442  0.0889  1.8698 -1.6636
 4737TIP3   OH214216   0.279   0.638   3.618  0.0876 -0.5556 -0.0679
 4737TIP3    H114217   0.198   0.630   3.668  0.1285 -1.4946 -0.1228
 4737TIP3    H214218   0.347   0.601   3.675  1.0718  2.8559  1.2047
 4738TIP3   OH214219   0.744   5.687   3.222  0.4231  0.1454  0.4356
 4738TIP3    H114220   0.726   5.610   3.169  1.2534  0.5649 -0.4806
 4738TIP3    H214221   0.812   5.659   3.283 -0.0789 -0.1558  0.8666
 4739TIP3   OH214222   2.537   3.648   2.564 -0.5263  0.4493 -0.1453
 4739TIP3    H114223   2.490   3.718   2.517  0.9759  1.7600  0.2156
 4739TIP3    H214224   2.629   3.673   2.557  0.0226 -1.3313  0.3249
 4740TIP3   OH214225   2.647   1.283   4.725  0.5634  0.0918  0.5440
 4740TIP3    H114226   2.601   1.362   4.753 -0.3826  0.4477 -1.7727
 4740TIP3    H214227   2.577   1.223   4.698  1.3249 -1.0045  0.9494
 4741TIP3   OH214228   5.168   0.844   2.332 -0.6216 -0.2362  0.6542
 4741TIP3    H114229   5.237   0.844   2.266  0.9678 -1.9981  2.1613
 4741TIP3    H214230   5.093   0.884   2.289  0.7440 -0.0374 -1.7252
 4742TIP3   OH214231   3.103   0.222   1.537  0.0602 -0.0542  0.1815
 4742TIP3    H114232   3.143   0.138   1.560 -0.5052 -0.0141  1.4062
 4742TIP3    H214233   3.009   0.208   1.547 -0.2045  0.1568 -1.6365
 4743TIP3   OH214234   4.389   0.485   2.675  0.3685 -0.1966  0.8132
 4743TIP3    H114235   4.438   0.561   2.644 -0.4680 -0.4991 -1.4266
 4743TIP3    H214236   4.429   0.410   2.632 -1.5783 -0.5081 -0.5792
 4744TIP3   OH214237   1.749   5.190   4.087  0.3844  0.7722  0.5588
 4744TIP3    H114238   1.700   5.242   4.023 -0.9027  0.8511  1.5555
 4744TIP3    H214239   1.747   5.243   4.167 -0.4170 -0.5072  1.4212
 4745TIP3   OH214240   4.561   1.011   5.004  0.6490  0.2327 -0.6384
 4745TIP3    H114241   4.506   0.975   4.935 -1.2346  1.2590  0.2308
 4745TIP3    H214242   4.570   0.939   5.067  0.0107  0.1415 -0.6430
 4746TIP3   OH214243   6.034   3.264   4.308 -0.1643 -0.3674  0.1188
 4746TIP3    H114244   6.058   3.174   4.329 -2.2460 -0.9033  0.4431
 4746TIP3    H214245   5.986   3.294   4.385  0.3089  0.9543 -0.0840
 4747TIP3   OH214246   4.710   2.294   5.003  0.5601 -0.3382 -0.1200
 4747TIP3    H114247   4.651   2.237   4.953 -0.7037 -0.9370  1.9559
 4747TIP3    H214248   4.795   2.286   4.958 -0.5061 -0.7504 -2.1885
 4748TIP3   OH214249   3.655   4.751   2.776 -0.2239 -0.6201  0.0005
 4748TIP3    H114250   3.644   4.814   2.847 -4.1393 -0.5089 -0.5157
 4748TIP3    H214251   3.606   4.674   2.804 -2.9672 -0.1353 -2.9203
 4749TIP3   OH214252   4.829   3.263   2.485  0.2964 -0.2467 -0.3748
 4749TIP3    H114253   4.852   3.292   2.397 -1.2166  1.6773 -0.1843
 4749TIP3    H214254   4.913   3.259   2.531  1.0698 -0.9624 -1.7714
 4750TIP3   OH214255   3.578   2.730   1.695  0.2670 -0.6216 -0.8003
 4750TIP3    H114256   3.646   2.724   1.762 -0.0388 -1.1448 -0.5305
 4750TIP3    H214257   3.538   2.643   1.693 -0.3356 -0.3478 -1.0146
 4751TIP3   OH214258   5.650   5.649   3.541  0.1462 -0.0567 -0.1958
 4751TIP3    H114259   5.658   5.681   3.451 -2.1635  1.6247  0.1159
 4751TIP3    H214260   5.556   5.633   3.553  0.3395  0.1769  2.0469
 4752TIP3   OH214261   2.741   4.308   4.404  0.2718  0.1126  0.1933
 4752TIP3    H114262   2.758   4.215   4.395  0.6924  0.3253 -1.6550
 4752TIP3    H214263   2.690   4.316   4.485 -1.4221 -1.9374 -0.5822
 4753TIP3   OH214264   4.772   0.204   3.318  0.0432  0.2270 -0.2217
 4753TIP3    H114265   4.798   0.291   3.289 -1.0354  0.6123 -0.0831
 4753TIP3    H214266   4.762   0.211   3.412 -0.1487 -0.0188 -0.2210
 4754TIP3   OH214267   4.516   2.145   3.933  0.1300  0.8078  0.1743
 4754TIP3    H114268   4.438   2.134   3.879 -0.1840  1.5191  0.4760
 4754TIP3    H214269   4.556   2.058   3.936  0.7225  0.9342 -2.0726
 4755TIP3   OH214270   2.215   3.783   0.278  0.4910  0.0431  0.7158
 4755TIP3    H114271   2.213   3.695   0.313  0.6147  0.0901  0.8372
 4755TIP3    H214272   2.136   3.825   0.314 -0.8499 -0.7134 -1.1360
 4756TIP3   OH214273   2.635   1.887   3.996  0.2358 -0.2426  0.4389
 4756TIP3    H114274   2.694   1.923   4.062  0.4330 -1.8270  1.1732
 4756TIP3    H214275   2.605   1.963   3.946  1.9004  0.7215  0.8582
 4757TIP3   OH214276   2.357   0.655   1.911  0.4315 -0.4105  0.0073
 4757TIP3    H114277   2.353   0.687   2.002 -1.8220  0.4611 -0.3351
 4757TIP3    H214278   2.350   0.734   1.858 -0.2808 -1.0752 -0.9032
 4758TIP3   OH214279   4.378   4.947   0.975  0.3862  0.1299  0.3459
 4758TIP3    H114280   4.464   4.985   0.958 -0.0411  0.0752 -2.3148
 4758TIP3    H214281   4.396   4.862   1.015  1.6223 -0.4029 -1.2853
 4759TIP3   OH214282   2.594   1.853   3.467 -0.3791  0.1993  0.4690
 4759TIP3    H114283   2.604   1.814   3.381 -0.7160 -0.4064  0.6966
 4759TIP3    H214284   2.572   1.945   3.450 -1.0845 -0.0674 -0.1041
 4760TIP3   OH214285   0.994   2.101   0.843 -0.2241 -0.5358  0.2279
 4760TIP3    H114286   0.923   2.159   0.816 -0.4928 -0.6461  0.6963
 4760TIP3    H214287   1.054   2.157   0.892 -0.0131 -0.4541 -0.1227
 4761TIP3   OH214288   4.137   0.791   4.052  0.5181 -0.2681  0.0852
 4761TIP3    H114289   4.083   0.815   4.127 -0.3828  1.3089 -0.9821
 4761TIP3    H214290   4.187   0.871   4.033  0.9264 -0.7263 -0.8030
 4762TIP3   OH214291   0.398   2.581   1.564  0.4997 -0.1593  0.1086
 4762TIP3    H114292   0.414   2.643   1.635  1.8660  0.0581 -0.3425
 4762TIP3    H214293   0.323   2.529   1.592  1.3592 -0.4638  1.9847
 4763TIP3   OH214294   5.379   3.983   4.061  0.0687 -0.1776  0.1693
 4763TIP3    H114295   5.455   4.036   4.038  0.1694  0.4478  1.8094
 4763TIP3    H214296   5.414   3.895   4.075  0.2206 -0.2462 -0.5754
 4764TIP3   OH214297   3.618   3.864   2.342  0.4667  0.0927 -0.4905
 4764TIP3    H114298   3.572   3.834   2.264 -1.3860 -0.3902  0.7074
 4764TIP3    H214299   3.574   3.946   2.366  0.8984  0.1526  0.1308
 4765TIP3   OH214300   2.894   4.646   1.554 -0.1316  0.2283  0.0311
 4765TIP3    H114301   2.974   4.662   1.604 -0.5609 -1.6021  1.3925
 4765TIP3    H214302   2.832   4.711   1.588  0.8905  2.0889 -1.4857
 4766TIP3   OH214303   3.578   0.349   4.582 -0.5653  0.1100  0.2791
 4766TIP3    H114304   3.622   0.354   4.667 -2.4663  1.5032  1.2591
 4766TIP3    H214305   3.502   0.293   4.598 -1.7191  1.5028 -0.0521
 4767TIP3   OH214306   0.891   4.660   1.136  0.0777  0.1507 -0.1183
 4767TIP3    H114307   0.824   4.725   1.112 -0.0844 -0.4958 -1.5574
 4767TIP3    H214308   0.908   4.613   1.054  0.3233 -1.5076  0.8507
 4768TIP3   OH214309   1.405   5.692   3.393 -0.0703  0.1503 -0.3102
 4768TIP3    H114310   1.344   5.733   3.454 -1.5723 -1.5426 -0.5784
 4768TIP3    H214311   1.358   5.616   3.360  2.0551 -1.0232 -0.8425
 4769TIP3   OH214312   5.808   3.919   1.276  0.1786  0.0337  0.3769
 4769TIP3    H114313   5.727   3.939   1.229 -0.0815  0.6885  1.0796
 4769TIP3    H214314   5.822   3.994   1.333  1.7462  0.3313 -0.3371
 4770TIP3   OH214315   4.448   2.097   5.123  0.0778  0.5233 -0.2848
 4770TIP3    H114316   4.497   2.026   5.083  0.0572  1.0984 -1.3619
 4770TIP3    H214317   4.477   2.098   5.215  0.7157 -0.3036 -0.4700
 4771TIP3   OH214318   6.008   4.587   1.102  0.5037  0.4924 -0.4972
 4771TIP3    H114319   6.063   4.514   1.129  0.2200 -0.3144 -1.9673
 4771TIP3    H214320   5.997   4.575   1.007 -2.1785  0.6101 -0.2750
 4772TIP3   OH214321   5.513   4.243   4.128 -0.0687  0.2503  0.5704
 4772TIP3    H114322   5.556   4.257   4.044 -0.1727 -0.2587  0.4343
 4772TIP3    H214323   5.584   4.218   4.187 -0.2112 -0.8994  0.2728
 4773TIP3   OH214324   1.613   0.575   2.962  0.3914 -0.1714  0.6637
 4773TIP3    H114325   1.642   0.496   3.007 -2.2273 -0.9869  1.1066
 4773TIP3    H214326   1.534   0.602   3.010 -1.9160 -0.4542 -2.6840
 4774TIP3   OH214327   4.026   0.538   0.609 -0.5446 -0.4250  0.2440
 4774TIP3    H114328   4.035   0.445   0.586  0.8169 -0.2645  0.0316
 4774TIP3    H214329   4.080   0.548   0.688 -2.3487 -0.2256  1.4992
 4775TIP3   OH214330   5.710   3.060   4.374 -0.3591 -0.6622  0.6687
 4775TIP3    H114331   5.739   3.077   4.285  0.6296 -0.2357  1.0579
 4775TIP3    H214332   5.666   3.141   4.401 -1.8071 -1.2342  0.1516
 4776TIP3   OH214333   0.194   0.890   0.060  0.6168  0.4040 -0.2560
 4776TIP3    H114334   0.209   0.853   0.147  0.9399  0.3959 -0.3165
 4776TIP3    H214335   0.173   0.982   0.077 -1.4293 -0.0617 -0.0035
 4777TIP3   OH214336   2.343   4.785   0.214  0.0074 -0.5275  0.1333
 4777TIP3    H114337   2.404   4.858   0.227 -1.3124  0.7763 -0.7076
 4777TIP3    H214338   2.257   4.826   0.214 -0.7758 -2.1064 -0.3598
 4778TIP3   OH214339   3.883   3.190   5.108  0.0828  0.8860 -0.3491
 4778TIP3    H114340   3.960   3.238   5.079 -0.0648  2.1166  1.2176
 4778TIP3    H214341   3.889   3.188   5.203 -0.8218 -0.7340 -0.2786
 4779TIP3   OH214342   6.097   0.890   4.350 -0.0422  0.2835 -0.3628
 4779TIP3    H114343   6.040   0.966   4.353  0.0405  0.3569 -0.6729
 4779TIP3    H214344   6.100   0.859   4.441 -0.7072  0.1792 -0.3686
 4780TIP3   OH214345   3.239   2.891   1.868  0.3492 -0.1003 -0.6862
 4780TIP3    H114346   3.166   2.924   1.816 -1.0108 -0.8495  0.6553
 4780TIP3    H214347   3.231   2.796   1.862  2.3568 -0.2623 -1.9864
 4781TIP3   OH214348   5.531   4.389   2.164 -0.1703 -0.0527 -0.1472
 4781TIP3    H114349   5.569   4.331   2.098 -0.8621  0.2505 -0.8299
 4781TIP3    H214350   5.447   4.350   2.186 -0.2706  0.2441  0.0103
 4782TIP3   OH214351   2.583   0.184   0.365 -0.1620  0.7068 -0.2327
 4782TIP3    H114352   2.595   0.146   0.278 -1.1592  0.7402 -0.3965
 4782TIP3    H214353   2.658   0.241   0.377  0.8936 -0.6054 -0.3542
 4783TIP3   OH214354   1.835   5.690   2.196 -0.2507 -0.0687 -0.3397
 4783TIP3    H114355   1.929   5.688   2.214 -0.4257 -1.5312  0.6379
 4783TIP3    H214356   1.800   5.615   2.244 -1.5374 -1.2151 -2.8629
 4784TIP3   OH214357   6.000   0.651   1.270 -0.0832  0.1097  0.1891
 4784TIP3    H114358   5.920   0.653   1.323 -0.0821 -0.0142  0.1952
 4784TIP3    H214359   5.976   0.695   1.189  0.0259  0.6402  0.4455
 4785TIP3   OH214360   3.192   4.550   3.435 -0.2465 -0.2471 -0.4925
 4785TIP3    H114361   3.239   4.575   3.515 -1.0802 -1.7648  0.5366
 4785TIP3    H214362   3.103   4.584   3.449 -0.0932  0.5459 -1.3555
 4786TIP3   OH214363   3.909   3.929   0.074 -0.0973  0.2495  0.1474
 4786TIP3    H114364   3.982   3.868   0.063 -0.5454 -0.2912  0.1795
 4786TIP3    H214365   3.832   3.879   0.049 -0.4588  0.8298  0.0947
 4787TIP3   OH214366   4.122   3.320   5.052  0.5116 -0.3753 -0.1182
 4787TIP3    H114367   4.204   3.355   5.016  0.7080  0.6063  1.1993
 4787TIP3    H214368   4.147   3.236   5.091  0.6357 -0.6624 -0.8184
 4788TIP3   OH214369   2.323   2.247   2.598 -0.1774 -0.0016  0.4336
 4788TIP3    H114370   2.291   2.157   2.606 -0.8506  0.1203 -0.6679
 4788TIP3    H214371   2.395   2.242   2.535 -0.4152  0.2750  0.1372
 4789TIP3   OH214372   4.561   5.180   1.038  0.6597 -0.0955 -0.3305
 4789TIP3    H114373   4.531   5.214   0.954  2.3692 -0.3853 -1.1109
 4789TIP3    H214374   4.507   5.224   1.103  0.0199  0.9331 -1.5188
 4790TIP3   OH214375   1.119   3.544   4.298 -0.1846 -0.1678  0.1495
 4790TIP3    H114376   1.204   3.575   4.265  0.4352 -0.8748  1.0189
 4790TIP3    H214377   1.094   3.474   4.237 -1.1427  1.3560 -1.2800
 4791TIP3   OH214378   0.241   4.976   5.176 -0.5153  0.2378  0.4306
 4791TIP3    H114379   0.152   4.968   5.211 -0.5236  0.7512  0.5358
 4791TIP3    H214380   0.243   4.914   5.103 -0.3277 -1.2131  1.6308
 4792TIP3   OH214381   0.522   3.598   2.742 -0.0371 -0.2890 -0.4619
 4792TIP3    H114382   0.533   3.510   2.705 -0.5744 -0.6751  0.2889
 4792TIP3    H214383   0.542   3.588   2.835 -2.5176 -0.1548  0.1452
 4793TIP3   OH214384   1.260   4.938   0.756  0.0526 -0.2030  0.2760
 4793TIP3    H114385   1.168   4.920   0.775  0.4127 -1.3805  1.0844
 4793TIP3    H214386   1.272   5.030   0.778 -1.1743  0.2675 -0.9136
 4794TIP3   OH214387   4.321   1.766   3.682 -0.1758  0.0391 -0.7211
 4794TIP3    H114388   4.388   1.729   3.625 -0.3009 -1.0363 -0.2000
 4794TIP3    H214389   4.251   1.700   3.683 -0.4129  0.2827  0.2257
 4795TIP3   OH214390   0.536   3.911   0.393  0.1398 -0.7506  0.0498
 4795TIP3    H114391   0.530   3.924   0.298 -2.7897 -0.7067  0.1470
 4795TIP3    H214392   0.577   3.992   0.425  0.6479 -0.5205 -1.1023
 4796TIP3   OH214393   1.493   3.697   4.552 -0.0994  0.5079 -0.3024
 4796TIP3    H114394   1.455   3.698   4.640 -0.2215 -2.5641 -0.1906
 4796TIP3    H214395   1.576   3.651   4.563 -0.6416 -0.9581 -1.9069
 4797TIP3   OH214396   5.541   0.747   4.480 -0.4842 -0.2063 -0.7848
 4797TIP3    H114397   5.555   0.653   4.491 -3.8258 -0.7666 -0.2840
 4797TIP3    H214398   5.466   0.753   4.420  2.1144  2.3319 -4.2062
 4798TIP3   OH214399   0.000   2.865   2.925  0.5059  0.1050  0.0367
 4798TIP3    H114400   0.093   2.858   2.903  0.5598  0.2240  0.2149
 4798TIP3    H214401  -0.045   2.864   2.841  0.7597  1.4059 -0.1366
 4799TIP3   OH214402   2.003   2.204   4.707 -0.0855  0.3317  0.0842
 4799TIP3    H114403   1.994   2.151   4.627  0.2267 -0.2450  0.4279
 4799TIP3    H214404   2.094   2.234   4.706  0.1841 -0.4421  0.6898
 4800TIP3   OH214405   0.760   1.941   0.888 -0.6779  0.6125  0.0322
 4800TIP3    H114406   0.756   1.911   0.978  0.1369 -0.6829 -0.3477
 4800TIP3    H214407   0.849   1.975   0.878 -0.2570 -0.6666 -0.7035
 4801TIP3   OH214408   5.301   1.324   3.033 -0.0502 -0.0433  0.3434
 4801TIP3    H114409   5.380   1.302   3.081  0.7379  1.6885 -0.0814
 4801TIP3    H214410   5.265   1.399   3.078 -0.3564  0.4123 -0.6253
 4802TIP3   OH214411   3.155   5.601   1.254  0.3360  0.2094  0.1052
 4802TIP3    H114412   3.230   5.585   1.311  0.5317 -1.5940 -0.5882
 4802TIP3    H214413   3.097   5.527   1.270 -0.4705  0.6599 -0.6583
 4803TIP3   OH214414   0.861   1.407   5.124  0.3414 -0.1946 -0.1574
 4803TIP3    H114415   0.853   1.418   5.219 -0.2586  2.4512 -0.4149
 4803TIP3    H214416   0.890   1.493   5.093 -2.7092  0.1393 -2.6550
 4804TIP3   OH214417   5.743   3.548   2.304 -0.0484 -0.4784  0.6976
 4804TIP3    H114418   5.689   3.598   2.242  0.0632 -2.1771 -0.8539
 4804TIP3    H214419   5.770   3.613   2.369  0.0619  1.5109 -1.1880
 4805TIP3   OH214420   5.050   3.392   0.482  0.0112 -0.0400  0.0296
 4805TIP3    H114421   5.088   3.340   0.411 -1.3973 -0.1823 -0.6597
 4805TIP3    H214422   5.125   3.434   0.524  0.8756  0.0934 -1.5787
 4806TIP3   OH214423   2.201   4.353   2.894 -0.2429  0.2555  0.4475
 4806TIP3    H114424   2.285   4.397   2.880 -0.8678  1.6258  0.8301
 4806TIP3    H214425   2.217   4.294   2.969  0.0239  1.5655  1.4632
 4807TIP3   OH214426   2.077   1.754   3.477 -0.7931  0.1602 -0.0804
 4807TIP3    H114427   2.108   1.678   3.526 -0.2886  1.0983  1.1043
 4807TIP3    H214428   2.135   1.761   3.402 -0.4687 -0.2714  0.1313
 4808TIP3   OH214429   5.832   5.881   4.981  0.3226 -0.4872 -0.2388
 4808TIP3    H114430   5.753   5.854   5.027  0.3467  1.7125  1.2832
 4808TIP3    H214431   5.806   5.958   4.932  1.3320 -0.1903 -0.3276
 4809TIP3   OH214432   2.573   3.749   0.685  0.5855 -0.5758  0.0232
 4809TIP3    H114433   2.509   3.803   0.637  0.0764  0.4123  1.7355
 4809TIP3    H214434   2.546   3.659   0.668  1.3254 -0.3716 -2.7377
 4810TIP3   OH214435   4.405   0.563   4.340 -0.2636  0.4516 -0.2549
 4810TIP3    H114436   4.460   0.574   4.418 -0.4448  0.1831 -0.0873
 4810TIP3    H214437   4.375   0.473   4.345  0.4369  0.1543 -1.1107
 4811TIP3   OH214438   5.325   3.036   0.529 -0.0916  0.4274  0.3123
 4811TIP3    H114439   5.360   3.125   0.525 -0.3568  0.6685  2.2675
 4811TIP3    H214440   5.245   3.040   0.477  0.4232  1.0495 -0.4642
 4812TIP3   OH214441   1.629   2.364   1.051 -0.5869 -0.3013 -0.0128
 4812TIP3    H114442   1.640   2.447   1.004 -1.5887 -0.2272 -0.1452
 4812TIP3    H214443   1.675   2.377   1.134 -2.1688  1.0393  0.7083
 4813TIP3   OH214444   5.704   2.540   0.803 -0.1013  0.0426  0.1807
 4813TIP3    H114445   5.641   2.480   0.842 -1.4137  0.0326 -1.7825
 4813TIP3    H214446   5.675   2.627   0.831 -0.9228  0.0249 -0.5808
 4814TIP3   OH214447   3.532   2.891   0.446 -0.2728 -0.6020 -0.8324
 4814TIP3    H114448   3.490   2.922   0.366 -1.5631 -2.2814 -0.8735
 4814TIP3    H214449   3.491   2.941   0.516 -1.4747 -1.3045 -0.9925
 4815TIP3   OH214450   4.329   1.287   3.854  0.2357  0.5179 -0.3436
 4815TIP3    H114451   4.253   1.239   3.888 -0.8239  1.0114 -1.9407
 4815TIP3    H214452   4.398   1.221   3.848 -0.6061 -0.3589 -0.6110
 4816TIP3   OH214453   3.436   2.584   4.499 -0.5626 -0.0216 -0.2312
 4816TIP3    H114454   3.382   2.506   4.507 -1.7146  0.4232 -2.7023
 4816TIP3    H214455   3.520   2.553   4.465  0.8777 -0.7024  3.5290
 4817TIP3   OH214456   0.005   0.977   2.770  0.0557 -0.2852  0.8676
 4817TIP3    H114457   0.089   0.937   2.748 -0.5984 -1.0647 -0.3464
 4817TIP3    H214458   0.025   1.070   2.780  0.9968 -0.3913  0.1355
 4818TIP3   OH214459   1.426   5.878   2.115 -0.1556  0.2273  0.4347
 4818TIP3    H114460   1.431   5.970   2.143 -1.1473  0.5479 -0.3783
 4818TIP3    H214461   1.502   5.865   2.059  0.1163  0.4891  0.7461
 4819TIP3   OH214462   3.828   0.882   4.008  0.3971 -0.8918 -0.2433
 4819TIP3    H114463   3.884   0.819   4.054  0.1676  0.5195  2.1270
 4819TIP3    H214464   3.800   0.943   4.076 -2.1944 -0.2096 -1.7893
 4820TIP3   OH214465   3.502   3.771   0.668 -0.2263  0.1467  0.0113
 4820TIP3    H114466   3.558   3.806   0.598 -1.7143  0.0999 -1.2500
 4820TIP3    H214467   3.553   3.785   0.748  2.0169 -0.7818 -1.1538
 4821TIP3   OH214468   5.050   0.180   1.928 -0.5697 -0.2835 -0.3428
 4821TIP3    H114469   5.144   0.166   1.917 -0.4828 -2.1766  2.0575
 4821TIP3    H214470   5.043   0.265   1.971  0.0894 -0.3475 -0.0971
 4822TIP3   OH214471   3.213   5.013   3.534 -0.2664 -0.0731 -0.0646
 4822TIP3    H114472   3.272   5.024   3.460 -0.6003 -2.1173 -0.6817
 4822TIP3    H214473   3.237   4.928   3.572 -2.7268 -0.9517 -0.3069
 4823TIP3   OH214474   1.756   0.322   0.760 -0.4117  0.5358 -0.0699
 4823TIP3    H114475   1.684   0.262   0.780 -0.5812  0.9062  0.4619
 4823TIP3    H214476   1.829   0.292   0.814 -1.1310  2.0685  1.8957
 4824TIP3   OH214477   0.690   4.189   0.416 -0.4379 -0.2429 -0.4016
 4824TIP3    H114478   0.617   4.172   0.475 -2.6972  1.6285 -2.4199
 4824TIP3    H214479   0.671   4.275   0.378  2.0809 -0.3168 -2.1182
 4825TIP3   OH214480   0.312   2.636   3.182 -0.2527 -0.2448  0.5561
 4825TIP3    H114481   0.229   2.597   3.211 -0.8062  0.5746  0.1233
 4825TIP3    H214482   0.366   2.561   3.158 -0.1329 -0.8955  2.6747
 4826TIP3   OH214483   0.941   1.860   2.692 -0.5834  0.5769  0.5869
 4826TIP3    H114484   0.970   1.804   2.764  1.1947 -0.3247 -0.7334
 4826TIP3    H214485   0.942   1.948   2.728  2.5158  0.4390  1.1299
 4827TIP3   OH214486   4.617   4.395   2.455  0.1926  0.2516  0.1118
 4827TIP3    H114487   4.571   4.471   2.491 -0.7305 -0.4607  0.4562
 4827TIP3    H214488   4.549   4.328   2.445  0.7145 -0.0699 -1.5469
 4828TIP3   OH214489   2.840   5.416   3.786  0.0498 -0.8645 -0.3913
 4828TIP3    H114490   2.919   5.362   3.778  0.3349 -0.5618  0.3571
 4828TIP3    H214491   2.769   5.356   3.764  0.5785 -0.6280 -3.2118
 4829TIP3   OH214492   2.248   2.195   2.984 -0.1047 -0.1293  0.5413
 4829TIP3    H114493   2.157   2.173   3.008 -0.2721 -1.9792 -1.4148
 4829TIP3    H214494   2.239   2.266   2.920 -0.2533 -0.7507 -0.1437
 4830TIP3   OH214495   5.500   2.340   0.088 -0.4373 -0.1748  0.4219
 4830TIP3    H114496   5.526   2.425   0.122 -2.0007  0.9107 -0.9257
 4830TIP3    H214497   5.428   2.312   0.145 -0.8482  0.0865  0.0430
 4831TIP3   OH214498   1.543   3.845   0.999 -0.3855  0.0443 -0.5226
 4831TIP3    H114499   1.624   3.799   1.021  0.0723  1.3185  0.5908
 4831TIP3    H214500   1.474   3.793   1.039  0.2205  0.9163  1.7991
 4832TIP3   OH214501   4.409   4.206   4.345 -0.0029 -0.1275  0.4624
 4832TIP3    H114502   4.486   4.152   4.324  1.0071  1.2173  0.5291
 4832TIP3    H214503   4.359   4.154   4.407  1.1093 -0.8502  0.7839
 4833TIP3   OH214504   3.834   1.761   1.401  0.7776  0.7349  0.5003
 4833TIP3    H114505   3.878   1.682   1.432 -0.5476 -0.9354 -1.5463
 4833TIP3    H214506   3.760   1.772   1.462  1.0573  0.4825  0.8905
 4834TIP3   OH214507   3.006   3.730   3.227  0.2828 -0.5150  0.1238
 4834TIP3    H114508   3.044   3.790   3.291 -1.2986  1.2128 -0.4931
 4834TIP3    H214509   3.011   3.644   3.270 -0.2242  0.4906  2.3578
 4835TIP3   OH214510   2.204   0.842   0.790 -0.5071  0.0598 -0.3904
 4835TIP3    H114511   2.127   0.844   0.733 -1.8027  1.3502  1.3093
 4835TIP3    H214512   2.213   0.750   0.815  0.2126 -0.5860 -2.7156
 4836TIP3   OH214513   3.427   3.858   1.802 -0.3055  0.4510 -0.5398
 4836TIP3    H114514   3.465   3.922   1.742  0.0180  0.3162 -0.4766
 4836TIP3    H214515   3.336   3.848   1.772 -0.1996  0.5278 -0.8854
 4837TIP3   OH214516   2.907   5.133   0.134  0.2868  0.4385 -0.3196
 4837TIP3    H114517   2.881   5.196   0.202 -0.0917  1.1714 -1.1266
 4837TIP3    H214518   2.942   5.058   0.183  1.5305  1.5944  0.6549
 4838TIP3   OH214519   6.062   3.517   2.211  0.3069  0.3490 -0.3593
 4838TIP3    H114520   6.031   3.470   2.134 -0.3383 -0.0686  0.1538
 4838TIP3    H214521   5.990   3.512   2.273  0.7628  0.8252  0.2160
 4839TIP3   OH214522   5.289   3.112   3.769 -1.0426 -0.5334 -0.3099
 4839TIP3    H114523   5.220   3.135   3.706 -0.6765 -0.6268 -0.7552
 4839TIP3    H214524   5.279   3.018   3.781 -0.9798 -0.5500 -0.3893
 4840TIP3   OH214525   0.536   5.074   5.079  0.2308 -0.0408  0.2358
 4840TIP3    H114526   0.573   5.096   5.165  0.4818 -0.1926  0.1672
 4840TIP3    H214527   0.447   5.110   5.081  0.4607  0.5391  0.3140
 4841TIP3   OH214528   1.334   0.783   1.158  0.4202  0.8872 -0.5666
 4841TIP3    H114529   1.322   0.877   1.167  0.0998  0.8418 -0.4865
 4841TIP3    H214530   1.262   0.755   1.103  0.8260  0.7655 -1.0399
 4842TIP3   OH214531   6.329   1.923   0.574 -0.4655 -0.3645  0.0247
 4842TIP3    H114532   6.257   1.964   0.526 -0.3350 -0.4246 -0.2247
 4842TIP3    H214533   6.293   1.842   0.608 -0.4037 -0.5903 -0.4390
 4843TIP3   OH214534   0.621   5.358   4.885 -0.5270  0.1969  0.9975
 4843TIP3    H114535   0.541   5.409   4.891 -0.9477 -0.4898  1.2733
 4843TIP3    H214536   0.592   5.268   4.870  0.2435  0.2731 -1.3008
 4844TIP3   OH214537   0.862   3.337   4.593 -0.3532  0.1167  0.0899
 4844TIP3    H114538   0.768   3.352   4.607 -0.0803  0.5913  1.6594
 4844TIP3    H214539   0.896   3.421   4.564 -0.3999 -0.0364 -0.4100
 4845TIP3   OH214540   6.286   3.078   1.370 -0.4097  0.0678  0.0134
 4845TIP3    H114541   6.258   3.112   1.285  1.2403 -0.0327 -0.6165
 4845TIP3    H214542   6.335   3.151   1.409  0.1631 -0.4084  0.1864
 4846TIP3   OH214543   3.645   2.132   1.967  0.1654 -0.0636  0.3938
 4846TIP3    H114544   3.710   2.167   2.028  3.6347 -1.5307 -2.1516
 4846TIP3    H214545   3.646   2.193   1.893 -2.3160  0.4866  0.7252
 4847TIP3   OH214546   3.402   5.452   4.274  0.3340  0.6064  0.1258
 4847TIP3    H114547   3.328   5.445   4.214  0.7387  0.6205 -0.3822
 4847TIP3    H214548   3.371   5.415   4.356 -0.9606  2.5898  0.6048
 4848TIP3   OH214549   2.588   5.217   4.155 -0.0746 -0.4995 -0.0732
 4848TIP3    H114550   2.514   5.260   4.198  0.3744 -1.7215  2.0409
 4848TIP3    H214551   2.592   5.258   4.069 -1.3188  1.7375  0.8482
 4849TIP3   OH214552   1.986   0.423   4.766  0.3283  0.8656  0.2319
 4849TIP3    H114553   1.941   0.478   4.701  0.9608 -0.0902 -1.0566
 4849TIP3    H214554   1.953   0.335   4.749 -0.6117  0.7760  2.2229
 4850TIP3   OH214555   4.549   3.498   1.046 -0.3636  0.4886 -0.3338
 4850TIP3    H114556   4.472   3.495   1.102 -0.5661 -0.8135 -0.6277
 4850TIP3    H214557   4.526   3.441   0.972  1.4043 -1.1570  0.3071
 4851TIP3   OH214558   3.103   5.662   2.100 -0.4844  0.1834  0.0464
 4851TIP3    H114559   3.150   5.730   2.148  1.1858 -0.0358 -1.1658
 4851TIP3    H214560   3.113   5.583   2.154 -0.3575  0.3806  0.3090
 4852TIP3   OH214561   5.024   3.573   3.038 -0.5083 -0.2677  0.1100
 4852TIP3    H114562   5.067   3.604   3.118 -1.1501  2.9559 -0.6696
 4852TIP3    H214563   5.032   3.646   2.977 -2.8086 -1.4309 -1.7037
 4853TIP3   OH214564   4.129   3.514   2.794 -0.0097  0.1133 -0.2913
 4853TIP3    H114565   4.068   3.555   2.733 -0.1868  2.1914  1.1604
 4853TIP3    H214566   4.134   3.575   2.868  0.7807 -1.9001  1.4398
 4854TIP3   OH214567   5.902   3.471   4.669  0.2135  0.1655  0.3887
 4854TIP3    H114568   5.832   3.484   4.606  0.5054  1.4993  0.3222
 4854TIP3    H214569   5.933   3.382   4.651 -1.2866 -0.3628  0.2728
 4855TIP3   OH214570   1.645   0.921   1.938  0.0788  0.1212 -0.0488
 4855TIP3    H114571   1.582   0.862   1.895  0.5820 -1.0287  0.7566
 4855TIP3    H214572   1.679   0.975   1.866 -2.1897  1.1577 -0.4309
 4856TIP3   OH214573   3.581   5.465   1.494  0.2118 -0.1371 -0.1105
 4856TIP3    H114574   3.560   5.496   1.582  0.1684 -1.0660  0.2174
 4856TIP3    H214575   3.496   5.461   1.449  0.5134  4.2663 -1.6179
 4857TIP3   OH214576   2.469   4.978   2.748  0.2439  0.1728 -0.5733
 4857TIP3    H114577   2.499   5.060   2.789  1.1048  1.2038 -3.1090
 4857TIP3    H214578   2.543   4.919   2.758 -0.2865 -0.2699  1.0415
 4858TIP3   OH214579   3.872   2.825   4.709 -0.4028  1.2732 -0.5615
 4858TIP3    H114580   3.940   2.803   4.646 -0.7254 -0.9906 -0.1914
 4858TIP3    H214581   3.919   2.858   4.785  0.6020 -2.4597  0.6205
 4859TIP3   OH214582   3.682   2.937   1.254 -0.1771  0.7625  0.1684
 4859TIP3    H114583   3.612   2.975   1.201 -0.0777  2.1684  0.9850
 4859TIP3    H214584   3.638   2.906   1.333 -0.0368  0.5613  0.1680
 4860TIP3   OH214585   2.792   3.075   0.901  0.4337  0.0074  0.2505
 4860TIP3    H114586   2.698   3.062   0.908  0.3519  1.2466  2.3292
 4860TIP3    H214587   2.805   3.168   0.919  1.9285  0.3253 -2.0168
 4861TIP3   OH214588   4.324   4.017   0.245 -0.2241  0.3127 -0.2166
 4861TIP3    H114589   4.293   4.096   0.201 -0.3091  1.1953  1.3434
 4861TIP3    H214590   4.375   4.049   0.319  0.7043 -1.1107 -0.1983
 4862TIP3   OH214591   6.314   4.911   0.395 -0.0536 -0.1083  0.3747
 4862TIP3    H114592   6.297   4.985   0.454  0.9370  1.0727 -0.7470
 4862TIP3    H214593   6.249   4.845   0.420 -0.4838  0.8341  1.9188
 4863TIP3   OH214594   1.805   1.802   2.273 -0.3507 -0.6333 -0.3811
 4863TIP3    H114595   1.862   1.879   2.275  0.1518 -0.9399  2.6212
 4863TIP3    H214596   1.721   1.836   2.244  0.8839  0.1208 -3.4354
 4864TIP3   OH214597   0.953   5.374   1.407  0.1873 -0.0651  1.0940
 4864TIP3    H114598   0.898   5.451   1.421 -0.0558 -0.1929  0.8688
 4864TIP3    H214599   1.037   5.409   1.380  0.4548  0.1557  2.1941
 4865TIP3   OH214600   1.467   4.255   1.928  0.5958 -0.3601  0.1310
 4865TIP3    H114601   1.400   4.293   1.870 -0.0328 -1.5121  0.0818
 4865TIP3    H214602   1.541   4.236   1.870  1.3958  1.8071  0.3416
 4866TIP3   OH214603   3.239   1.565   2.851  0.0801 -0.9208  0.3480
 4866TIP3    H114604   3.308   1.615   2.894  0.6601 -1.1411 -0.3086
 4866TIP3    H214605   3.243   1.593   2.760 -1.9412  0.4503  0.6267
 4867TIP3   OH214606   2.630   4.565   4.643  0.0344 -0.3901 -0.5023
 4867TIP3    H114607   2.589   4.651   4.657  0.8970 -0.2479  1.4975
 4867TIP3    H214608   2.655   4.565   4.551  1.7747  2.3438 -0.1341
 4868TIP3   OH214609   2.283   3.883   4.248 -0.1528 -0.2512  0.2187
 4868TIP3    H114610   2.267   3.809   4.306 -1.0309  0.1982  0.5587
 4868TIP3    H214611   2.221   3.872   4.176 -0.0650 -0.0190  0.1032
 4869TIP3   OH214612   1.384   2.462   3.100  0.4484  0.8197 -0.2743
 4869TIP3    H114613   1.434   2.401   3.045  0.8130  0.7351  0.1428
 4869TIP3    H214614   1.419   2.548   3.077  3.6145  0.5695  2.6870
 4870TIP3   OH214615   2.891   4.311   0.781  0.7698 -0.0830 -0.0409
 4870TIP3    H114616   2.913   4.218   0.791  1.4372 -0.0190 -0.8487
 4870TIP3    H214617   2.844   4.333   0.862 -0.8489 -1.5330 -0.5196
 4871TIP3   OH214618   1.934   3.410   3.587 -0.1147  0.6214 -0.2387
 4871TIP3    H114619   1.996   3.338   3.599 -0.1370  0.2565 -2.0272
 4871TIP3    H214620   1.979   3.487   3.621  0.4505  0.0119  0.4320
 4872TIP3   OH214621   3.889   4.727   4.056 -0.0314  0.0746 -0.1166
 4872TIP3    H114622   3.803   4.705   4.093 -0.3907  0.2553 -0.8263
 4872TIP3    H214623   3.948   4.662   4.094  0.0617  1.5916  2.5639
 4873TIP3   OH214624   4.496   5.481   1.047  0.5413  0.1044 -0.4065
 4873TIP3    H114625   4.488   5.433   0.965  1.2421  1.3826 -1.2512
 4873TIP3    H214626   4.458   5.423   1.113 -0.0640 -0.9285 -1.6334
 4874TIP3   OH214627   5.206   4.473   1.823 -0.6196  0.0050 -0.1192
 4874TIP3    H114628   5.227   4.536   1.754  1.9063  0.8753  1.2791
 4874TIP3    H214629   5.242   4.390   1.791  0.3696  0.3637  0.0033
 4875TIP3   OH214630   3.035   5.267   2.927 -0.0245 -0.3669 -0.6680
 4875TIP3    H114631   3.060   5.277   3.019  1.6380  1.6053 -1.2563
 4875TIP3    H214632   2.940   5.279   2.927 -0.0813 -0.6266  0.8099
 4876TIP3   OH214633   4.769   3.532   1.486 -0.0066  0.1473 -0.5498
 4876TIP3    H114634   4.837   3.597   1.503 -0.8987  0.5888  1.7110
 4876TIP3    H214635   4.741   3.551   1.396  1.4613  1.2356 -0.8323
 4877TIP3   OH214636   2.384   0.952   0.139  0.0505 -0.2685  0.5142
 4877TIP3    H114637   2.446   1.016   0.104 -0.0548 -0.1557  0.5302
 4877TIP3    H214638   2.339   0.999   0.210 -2.1937  0.7219 -1.4030
 4878TIP3   OH214639   3.132   3.036   0.767  0.1923  0.4314  0.7201
 4878TIP3    H114640   3.138   2.991   0.683 -0.8794 -0.6549  1.1760
 4878TIP3    H214641   3.053   3.090   0.760  0.5533  0.9700  0.7524
 4879TIP3   OH214642   5.802   4.327   4.864  0.1223 -0.0565  0.1277
 4879TIP3    H114643   5.856   4.378   4.803  0.2152 -0.6509 -0.3060
 4879TIP3    H214644   5.720   4.313   4.817 -0.8553  1.7624  1.2138
 4880TIP3   OH214645   1.212   5.120   3.578 -0.0647  0.3298 -0.5289
 4880TIP3    H114646   1.171   5.084   3.499 -1.7937 -1.2348  0.9936
 4880TIP3    H214647   1.235   5.043   3.630  1.2627  1.3247  0.4041
 4881TIP3   OH214648   5.441   1.537   4.462  0.0251 -0.6080 -0.6263
 4881TIP3    H114649   5.529   1.501   4.450  0.0202 -1.5141  1.5721
 4881TIP3    H214650   5.452   1.631   4.446  0.9575 -0.9634 -2.2418
 4882TIP3   OH214651   2.654   5.523   4.738  0.2111 -0.6960 -0.2237
 4882TIP3    H114652   2.637   5.518   4.832  0.5065 -0.5397 -0.1605
 4882TIP3    H214653   2.617   5.442   4.702 -0.9383 -0.2325 -0.1341
 4883TIP3   OH214654   3.354   0.497   0.148 -0.0888  0.0702 -0.0482
 4883TIP3    H114655   3.366   0.505   0.243  2.1600 -1.9822 -0.0565
 4883TIP3    H214656   3.282   0.435   0.138 -0.0113 -0.0790  0.3105
 4884TIP3   OH214657   4.904   2.275   4.425  0.2744  0.6747 -0.5183
 4884TIP3    H114658   4.844   2.319   4.485 -0.6003 -1.1561  0.0008
 4884TIP3    H214659   4.894   2.182   4.444  1.7421  0.1901 -1.8800
 4885TIP3   OH214660   3.427   0.220   4.145 -0.5349  0.5742 -0.4089
 4885TIP3    H114661   3.476   0.243   4.066  0.2031  0.0948 -0.1084
 4885TIP3    H214662   3.485   0.244   4.217  0.6937 -2.8505 -0.0737
 4886TIP3   OH214663   4.166   1.863   1.358  0.4297  0.7524  0.4269
 4886TIP3    H114664   4.104   1.823   1.297  0.2209  0.8520  0.5747
 4886TIP3    H214665   4.238   1.893   1.302  0.7858 -0.1959  0.3531
 4887TIP3   OH214666   2.371   4.385   0.433  0.3731  0.3675 -0.5661
 4887TIP3    H114667   2.445   4.375   0.492  0.1604  2.1047  0.0571
 4887TIP3    H214668   2.336   4.296   0.422  1.2114 -0.1666  0.8673
 4888TIP3   OH214669   5.069   0.482   0.527 -0.2345  0.3151  0.8429
 4888TIP3    H114670   5.158   0.449   0.510  0.5888  1.9136  1.8316
 4888TIP3    H214671   5.021   0.405   0.557 -0.0289 -1.2236 -2.3485
 4889TIP3   OH214672   4.678   3.778   2.706  0.0077  0.4558 -0.1969
 4889TIP3    H114673   4.703   3.868   2.727  0.0391  0.8610 -1.8261
 4889TIP3    H214674   4.718   3.761   2.620  0.5449 -1.3444  0.3572
 4890TIP3   OH214675   2.292   3.921   2.728 -0.0351  0.1468 -0.3657
 4890TIP3    H114676   2.198   3.932   2.744 -0.2542 -0.6064 -1.0396
 4890TIP3    H214677   2.305   3.826   2.730  0.4015  0.1506 -1.9079
 4891TIP3   OH214678   2.222   5.438   4.885 -0.5277 -0.1772 -0.2836
 4891TIP3    H114679   2.132   5.435   4.918 -0.5697  1.4959 -0.1662
 4891TIP3    H214680   2.273   5.388   4.949 -1.2826 -0.6554 -0.0527
 4892TIP3   OH214681   3.133   5.606   2.934 -0.7647  0.8837  0.5319
 4892TIP3    H114682   3.089   5.643   2.857  1.4035  3.0040  0.2062
 4892TIP3    H214683   3.115   5.669   3.004 -2.3814 -0.8226  1.7549
 4893TIP3   OH214684   3.457   2.502   1.574  0.1314  0.0542 -0.3830
 4893TIP3    H114685   3.479   2.411   1.593 -0.4610 -0.0997 -0.4158
 4893TIP3    H214686   3.377   2.497   1.522 -0.7652  0.6596  0.8972
 4894TIP3   OH214687   1.094   4.035   3.519 -0.1185 -0.0299  0.2528
 4894TIP3    H114688   1.053   4.068   3.439  0.8008  0.2840 -0.1112
 4894TIP3    H214689   1.123   3.947   3.496  0.0623  0.0254  0.2679
 4895TIP3   OH214690   2.337   4.201   0.149  0.0287 -0.2037 -0.1736
 4895TIP3    H114691   2.260   4.212   0.206 -0.6109 -2.3605 -0.5114
 4895TIP3    H214692   2.406   4.170   0.209  0.0086 -0.2910 -0.1946
 4896TIP3   OH214693   2.246   3.767   2.438 -0.5130 -0.2277 -0.0845
 4896TIP3    H114694   2.222   3.854   2.472  0.6965 -0.1229  0.5441
 4896TIP3    H214695   2.246   3.711   2.516  2.6829  0.0936  0.2736
 4897TIP3   OH214696   6.134   1.733   4.751 -0.6920 -0.1911  0.3847
 4897TIP3    H114697   6.116   1.646   4.787  2.1176 -1.4531 -0.9272
 4897TIP3    H214698   6.209   1.765   4.802  0.7786 -0.2848 -1.6068
 4898TIP3   OH214699   2.045   0.298   2.325 -0.0259 -0.3485  0.2733
 4898TIP3    H114700   2.120   0.353   2.348  1.2693 -1.2472 -1.6117
 4898TIP3    H214701   2.065   0.264   2.238 -1.6404 -2.3433  0.5995
 4899TIP3   OH214702   2.272   3.928   3.197  0.1354 -0.3246 -0.1524
 4899TIP3    H114703   2.341   3.891   3.142  1.0105  0.7121  0.2136
 4899TIP3    H214704   2.317   3.960   3.275 -0.8800 -0.3918  0.4888
 4900TIP3   OH214705   0.664   4.418   4.557 -0.1267 -0.0182 -0.6634
 4900TIP3    H114706   0.674   4.513   4.566 -0.1543  0.0532 -1.3299
 4900TIP3    H214707   0.596   4.395   4.621  0.4209  0.2945  0.0423
 4901TIP3   OH214708   0.135   0.286   2.317 -0.1248  0.1831  0.4022
 4901TIP3    H114709   0.210   0.281   2.257  0.2691 -0.1882  0.9225
 4901TIP3    H214710   0.162   0.235   2.393 -1.4391 -1.1225  0.0340
 4902TIP3   OH214711   5.773   1.679   3.117  0.0693 -0.0715  0.0056
 4902TIP3    H114712   5.816   1.708   3.036 -0.6571  1.6384  0.1948
 4902TIP3    H214713   5.690   1.642   3.088 -1.7020  3.4570  0.0545
 4903TIP3   OH214714   2.276   0.286   2.849 -0.0595  0.3153  0.0587
 4903TIP3    H114715   2.334   0.262   2.776 -0.7340 -1.2440 -0.0076
 4903TIP3    H214716   2.223   0.357   2.815  0.4236  0.3827 -0.5772
 4904TIP3   OH214717   1.561   1.948   1.787  0.0833  0.3670 -0.1981
 4904TIP3    H114718   1.484   1.892   1.787  1.3158 -1.4873 -1.8336
 4904TIP3    H214719   1.566   1.983   1.876 -3.0759  1.2826 -0.2703
 4905TIP3   OH214720   2.311   0.489   4.167  0.3612  0.1509 -0.3683
 4905TIP3    H114721   2.255   0.537   4.228 -1.2634 -0.2683 -1.4702
 4905TIP3    H214722   2.263   0.408   4.150  0.9173  0.1370 -1.9922
 4906TIP3   OH214723   0.571   5.922   4.882  0.1373 -0.2018 -0.2359
 4906TIP3    H114724   0.666   5.909   4.886 -0.0216 -1.1350  1.2557
 4906TIP3    H214725   0.534   5.834   4.889 -0.8443  0.2057 -0.1619
 4907TIP3   OH214726   4.858   5.118   0.994  0.2008  0.0447  0.1099
 4907TIP3    H114727   4.892   5.160   0.915  0.2294 -1.2743 -0.6144
 4907TIP3    H214728   4.773   5.160   1.009  0.4621  0.7187 -0.2703
 4908TIP3   OH214729   1.234   1.920   3.769  0.0700  0.5343 -0.0979
 4908TIP3    H114730   1.179   1.863   3.823  1.2413 -1.0823 -0.5114
 4908TIP3    H214731   1.177   1.948   3.697 -1.8336  3.6037  2.3819
 4909TIP3   OH214732   0.909   2.420   4.484 -0.1181 -0.3172  0.2366
 4909TIP3    H114733   0.922   2.513   4.465  1.7614 -0.5146  0.4270
 4909TIP3    H214734   0.868   2.386   4.404 -0.0289  0.4907 -0.1730
 4910TIP3   OH214735   5.814   3.279   2.336 -0.0098 -0.6648  0.2157
 4910TIP3    H114736   5.808   3.363   2.291  0.8709 -0.0133  1.2414
 4910TIP3    H214737   5.746   3.283   2.403  1.3126  0.1533  1.6102
 4911TIP3   OH214738   6.342   5.207   1.639  0.3152  0.5418  0.2518
 4911TIP3    H114739   6.387   5.260   1.705  0.1394 -1.0568  1.7349
 4911TIP3    H214740   6.290   5.145   1.690  0.2650 -0.8543 -1.4097
 4912TIP3   OH214741   2.615   5.932   4.288 -0.4958  0.1954  0.1355
 4912TIP3    H114742   2.564   5.850   4.294  0.1174 -0.1516  0.7161
 4912TIP3    H214743   2.616   5.966   4.377 -0.1979  0.5052  0.0160
 4913TIP3   OH214744   3.952   3.251   3.342  0.0434 -0.1016  0.0938
 4913TIP3    H114745   3.938   3.220   3.432 -1.4008  1.4723  0.4698
 4913TIP3    H214746   3.933   3.345   3.347  1.5239  0.3316 -1.5375
 4914TIP3   OH214747   2.030   1.992   1.339  0.2868  0.3440 -0.3986
 4914TIP3    H114748   1.990   1.912   1.372  1.4137 -0.0662 -0.0033
 4914TIP3    H214749   1.955   2.049   1.319 -0.6072 -1.2470 -1.9423
 4915TIP3   OH214750   3.632   3.998   4.338 -0.0697  0.4124 -0.1506
 4915TIP3    H114751   3.598   3.989   4.249 -0.0970 -3.5066  0.0905
 4915TIP3    H214752   3.611   3.915   4.380  3.6716  0.4283  2.2146
 4916TIP3   OH214753   1.530   3.782   3.383  0.0535 -0.1075  0.4385
 4916TIP3    H114754   1.584   3.727   3.440  0.3831 -0.9159 -0.6186
 4916TIP3    H214755   1.488   3.720   3.323 -2.4706  0.4436  1.5353
 4917TIP3   OH214756   1.423   0.418   1.458  0.8728  0.2867  0.3389
 4917TIP3    H114757   1.461   0.503   1.436  1.1876  0.4966  1.6341
 4917TIP3    H214758   1.487   0.354   1.426  0.8015  0.5344 -0.3157
 4918TIP3   OH214759   4.935   4.735   3.517 -0.2828  0.2390  0.2648
 4918TIP3    H114760   4.956   4.822   3.551 -0.4652  0.2829  0.2638
 4918TIP3    H214761   4.873   4.752   3.446  0.7047  0.2152 -0.6207
 4919TIP3   OH214762   4.662   2.417   1.621 -0.0259  0.0599  0.1533
 4919TIP3    H114763   4.673   2.423   1.716  0.6125  0.8519  0.0364
 4919TIP3    H214764   4.588   2.475   1.602 -0.0046  0.0802  0.1343
 4920TIP3   OH214765   5.084   3.622   3.313 -0.5654 -0.8857 -0.3999
 4920TIP3    H114766   5.112   3.531   3.304 -1.2862 -1.4303  2.1441
 4920TIP3    H214767   5.138   3.657   3.384 -1.0819  0.3450 -0.5918
 4921TIP3   OH214768   5.111   1.756   0.160  0.5692 -0.3793 -0.1829
 4921TIP3    H114769   5.093   1.748   0.066  0.4801  2.1571 -0.4334
 4921TIP3    H214770   5.200   1.792   0.164  0.8637 -1.1698  0.7500
 4922TIP3   OH214771   0.326   2.016   5.021  0.4106  0.0817 -0.1646
 4922TIP3    H114772   0.328   2.080   5.093  2.9170 -0.2518  0.1572
 4922TIP3    H214773   0.233   2.001   5.006 -0.3826  4.0815 -0.5264
 4923TIP3   OH214774   3.571   0.380   3.515 -0.2927  0.3020  0.0239
 4923TIP3    H114775   3.485   0.340   3.527 -0.9159  1.5507 -0.0737
 4923TIP3    H214776   3.624   0.345   3.587 -1.6660  1.5273  1.7403
 4924TIP3   OH214777   3.965   0.523   4.502 -0.6874  0.3837  0.1163
 4924TIP3    H114778   3.876   0.555   4.487 -0.7135 -0.2834 -1.2728
 4924TIP3    H214779   3.980   0.460   4.432  1.2568  1.2471 -0.3112
 4925TIP3   OH214780   5.703   2.243   3.569  0.8930  0.2023  0.4277
 4925TIP3    H114781   5.720   2.178   3.501  0.6731 -1.6749  2.0668
 4925TIP3    H214782   5.638   2.301   3.531  0.7524 -0.8038 -0.9535
 4926TIP3   OH214783   2.714   4.273   2.607  0.0333 -0.5890  0.6619
 4926TIP3    H114784   2.720   4.251   2.700 -0.5739  1.6086  1.2756
 4926TIP3    H214785   2.621   4.293   2.593  0.2735  0.0129 -0.1913
 4927TIP3   OH214786   4.534   5.502   2.299  0.4899 -0.1643 -0.2914
 4927TIP3    H114787   4.448   5.515   2.338  1.2757 -0.6635  1.6979
 4927TIP3    H214788   4.516   5.487   2.206 -1.4146  1.4961 -0.2658
 4928TIP3   OH214789   2.385   0.877   1.209  0.2490  0.4066 -0.4366
 4928TIP3    H114790   2.401   0.809   1.143 -1.0053 -0.8118  0.4538
 4928TIP3    H214791   2.296   0.907   1.191  0.1781  0.6107  0.2334
 4929TIP3   OH214792   0.731   2.882   1.670 -0.7492  0.0388 -0.0234
 4929TIP3    H114793   0.818   2.842   1.662 -1.2718 -1.1124 -0.2122
 4929TIP3    H214794   0.704   2.898   1.579 -0.5370  0.8370  0.0546
 4930TIP3   OH214795   1.181   3.134   1.693 -0.1640 -0.3880  0.8409
 4930TIP3    H114796   1.261   3.147   1.643 -1.5224 -0.1506 -1.4253
 4930TIP3    H214797   1.148   3.222   1.709 -1.6295 -0.4962 -1.2122
 4931TIP3   OH214798   1.812   3.784   3.293  0.1774 -0.1602  0.1072
 4931TIP3    H114799   1.817   3.750   3.204 -0.1570 -2.8374  1.0199
 4931TIP3    H214800   1.777   3.873   3.283  0.1550 -0.3812 -2.3971
 4932TIP3   OH214801   3.779   2.991   3.968 -0.2974 -0.4230 -0.2073
 4932TIP3    H114802   3.734   3.041   3.900 -1.3708  0.4750  1.0905
 4932TIP3    H214803   3.847   3.050   4.001  1.5389 -1.5620 -1.7528
 4933TIP3   OH214804   6.010   1.065   3.717 -0.1628  0.5823 -0.8249
 4933TIP3    H114805   5.929   1.017   3.703  0.1071 -0.0627 -0.2386
 4933TIP3    H214806   6.078   1.011   3.675  0.4668 -0.7169  1.6767
 4934TIP3   OH214807   0.962   5.331   5.162  0.3871  0.5609  0.1642
 4934TIP3    H114808   1.025   5.273   5.204  1.5065  2.4147  1.1639
 4934TIP3    H214809   0.922   5.277   5.094 -0.3286 -2.0682  2.4819
 4935TIP3   OH214810   1.453   4.095   0.958  1.0954  0.1408 -0.3603
 4935TIP3    H114811   1.509   4.172   0.948  0.2943  0.8892  0.6867
 4935TIP3    H214812   1.515   4.023   0.972  1.8306  0.7615 -0.3272
 4936TIP3   OH214813   0.398   1.266   3.078 -0.2721 -0.0760  0.7580
 4936TIP3    H114814   0.441   1.305   3.154 -1.3772  1.0636  0.8182
 4936TIP3    H214815   0.470   1.231   3.025  0.6721  1.0494  1.2524
 4937TIP3   OH214816   4.628   1.256   1.245  0.0719  0.5015 -0.0124
 4937TIP3    H114817   4.704   1.300   1.284  1.1094 -0.6601 -0.6437
 4937TIP3    H214818   4.610   1.307   1.166  0.0159  0.9508  0.2870
 4938TIP3   OH214819   0.545   3.782   2.211 -0.4503 -0.0941 -0.3690
 4938TIP3    H114820   0.480   3.826   2.265 -0.6454  0.7450 -1.2618
 4938TIP3    H214821   0.628   3.822   2.236 -0.6253  0.8050 -1.1659
 4939TIP3   OH214822   3.173   3.928   0.860  0.4731  0.1662  0.0961
 4939TIP3    H114823   3.246   3.934   0.922 -0.9483 -1.0244  2.0101
 4939TIP3    H214824   3.203   3.866   0.793  1.6967  0.7441  0.0893
 4940TIP3   OH214825   2.783   2.815   3.444 -0.4312  0.1408  0.1607
 4940TIP3    H114826   2.725   2.829   3.519 -0.6645 -0.4181  0.0934
 4940TIP3    H214827   2.764   2.888   3.385 -0.2618  0.5762  0.6328
 4941TIP3   OH214828   4.694   0.356   2.066 -0.2674  0.2581  0.3937
 4941TIP3    H114829   4.734   0.308   2.139  1.3485  0.7880 -0.1069
 4941TIP3    H214830   4.736   0.442   2.069 -1.5616  0.9159 -0.0337
 4942TIP3   OH214831   5.694   2.708   4.473  0.2713  0.2308 -0.5384
 4942TIP3    H114832   5.729   2.631   4.428  1.4966 -1.0054  2.3164
 4942TIP3    H214833   5.765   2.771   4.470  0.8198 -0.3080  0.6583
 4943TIP3   OH214834   0.213   4.515   3.648 -0.1271 -0.6842 -0.0898
 4943TIP3    H114835   0.187   4.517   3.740 -0.9104 -1.3155 -0.2804
 4943TIP3    H214836   0.302   4.480   3.648 -0.6281 -2.0290  0.3465
 4944TIP3   OH214837   2.935   0.853   5.114  0.0854 -0.4379  0.1446
 4944TIP3    H114838   3.017   0.878   5.159  0.2758  1.7365 -1.2549
 4944TIP3    H214839   2.872   0.919   5.142 -0.5503 -0.7171 -0.6165
 4945TIP3   OH214840   3.222   2.330   3.075 -0.2810 -0.3073 -0.0363
 4945TIP3    H114841   3.142   2.279   3.069 -0.3309 -0.0331 -3.2839
 4945TIP3    H214842   3.204   2.410   3.025  1.2727  0.8713  1.1581
 4946TIP3   OH214843   5.089   1.464   1.033 -0.3375 -0.1466  0.5338
 4946TIP3    H114844   5.070   1.546   0.987  1.7179  0.1548  0.1060
 4946TIP3    H214845   5.131   1.408   0.968  0.2407 -0.7070  1.3624
 4947TIP3   OH214846   0.252   4.451   1.669  0.3978  0.3343  0.0068
 4947TIP3    H114847   0.190   4.488   1.732  0.3534 -0.0396  0.1818
 4947TIP3    H214848   0.245   4.508   1.593  0.7061  1.0059  0.4675
 4948TIP3   OH214849   2.997   3.227   3.318  0.4351  0.2973 -0.1497
 4948TIP3    H114850   2.944   3.162   3.273 -2.0465  1.6855  0.5912
 4948TIP3    H214851   3.022   3.183   3.400  1.9439 -0.9507 -1.2095
 4949TIP3   OH214852   1.246   3.435   0.649  0.0825 -0.3474  0.1174
 4949TIP3    H114853   1.338   3.414   0.664 -0.0796 -1.4239 -0.2968
 4949TIP3    H214854   1.209   3.355   0.612 -1.1334 -0.1111  0.7522
 4950TIP3   OH214855   5.003   1.295   4.584 -0.3071 -0.4417  0.4503
 4950TIP3    H114856   4.932   1.346   4.622 -0.6955  0.3377 -1.2150
 4950TIP3    H214857   5.083   1.341   4.610 -0.6156  0.6121 -0.3884
 4951TIP3   OH214858   3.704   3.482   1.402 -0.7978  0.4648  0.0039
 4951TIP3    H114859   3.621   3.460   1.444 -0.6047 -0.7273 -0.2045
 4951TIP3    H214860   3.679   3.527   1.321 -1.2042  1.1914  0.5262
 4952TIP3   OH214861   1.828   0.264   1.277  0.0670 -0.8398  0.1130
 4952TIP3    H114862   1.845   0.181   1.232 -0.6274 -0.7367 -0.3425
 4952TIP3    H214863   1.915   0.300   1.292  0.3065 -0.3601 -2.1192
 4953TIP3   OH214864   4.359   5.537   4.142  0.4130 -0.4263 -0.6273
 4953TIP3    H114865   4.283   5.514   4.195  0.2638 -2.0253 -1.4763
 4953TIP3    H214866   4.399   5.610   4.189 -0.7689 -0.5525  0.6591
 4954TIP3   OH214867   5.283   5.764   3.151 -0.2842  0.0465 -0.2573
 4954TIP3    H114868   5.278   5.838   3.212 -1.9274 -0.1779 -0.0753
 4954TIP3    H214869   5.234   5.694   3.194  0.4358 -0.8417 -0.8578
 4955TIP3   OH214870   2.931   1.351   1.563 -0.2830  0.4115 -0.5489
 4955TIP3    H114871   2.949   1.444   1.550 -0.6755  0.5180 -0.3557
 4955TIP3    H214872   2.844   1.337   1.525 -0.2208  0.1189 -0.5915
 4956TIP3   OH214873   0.121   3.923   2.095  0.1245 -0.0998  0.5385
 4956TIP3    H114874   0.175   4.002   2.100 -1.9798  1.3598  2.0050
 4956TIP3    H214875   0.149   3.870   2.170 -1.9478  1.7836  2.8270
 4957TIP3   OH214876   2.840   0.328   0.756 -0.1391  0.5014 -0.0895
 4957TIP3    H114877   2.933   0.303   0.759 -0.2075  0.2882  0.5436
 4957TIP3    H214878   2.837   0.413   0.800  0.0007  1.3719 -1.6867
 4958TIP3   OH214879   1.658   3.182   4.323  0.0647 -0.2658  0.0799
 4958TIP3    H114880   1.677   3.154   4.413  0.2962  0.0016  0.1126
 4958TIP3    H214881   1.711   3.260   4.310 -0.8488  0.3769  0.1047
 4959TIP3   OH214882   0.678   1.821   4.398 -0.3903  0.5976 -0.3793
 4959TIP3    H114883   0.641   1.750   4.450 -0.5056 -0.2701 -1.5917
 4959TIP3    H214884   0.711   1.883   4.462 -0.3490 -0.5170  0.7222
 4960TIP3   OH214885   1.001   4.682   0.209  0.8615  0.4411 -0.1362
 4960TIP3    H114886   0.998   4.602   0.157  0.4621  1.1994 -1.3414
 4960TIP3    H214887   1.026   4.750   0.145  2.0574  1.1436  1.0243
 4961TIP3   OH214888   3.191   3.750   2.436 -0.4679  0.1103 -0.7520
 4961TIP3    H114889   3.131   3.724   2.505  1.0875 -1.1535  0.1943
 4961TIP3    H214890   3.147   3.823   2.392 -2.7930 -0.9356 -0.3160
 4962TIP3   OH214891   3.847   2.303   1.449  0.0686  0.3328 -0.1216
 4962TIP3    H114892   3.803   2.291   1.365 -0.6023  0.2903  0.2254
 4962TIP3    H214893   3.817   2.229   1.503  1.0700 -0.0510 -0.0784
 4963TIP3   OH214894   1.847   5.492   2.627 -0.5186 -0.6972  0.2098
 4963TIP3    H114895   1.813   5.435   2.696  1.0957 -0.6100  1.1240
 4963TIP3    H214896   1.935   5.459   2.609 -0.2056  0.4317 -0.4730
 4964TIP3   OH214897   0.557   4.449   2.360 -0.2708  0.4107 -0.2576
 4964TIP3    H114898   0.550   4.484   2.449 -0.5924  1.6798 -0.7484
 4964TIP3    H214899   0.646   4.414   2.354 -1.0396 -2.0366  1.3350
 4965TIP3   OH214900   6.149   4.726   0.508  0.0372  0.1704  0.2003
 4965TIP3    H114901   6.155   4.631   0.501  0.7964  0.1176  1.2374
 4965TIP3    H214902   6.157   4.743   0.602 -1.0416  1.2080  0.1298
 4966TIP3   OH214903   2.959   2.054   4.870 -0.1727 -0.9024  0.4279
 4966TIP3    H114904   2.986   2.119   4.806  0.2702  0.2516  1.7358
 4966TIP3    H214905   3.035   1.997   4.880 -0.7163 -1.9801 -1.0611
 4967TIP3   OH214906   1.933   4.692  -0.016 -0.9749 -0.0243 -0.0151
 4967TIP3    H114907   1.948   4.706   0.078 -1.3787 -1.4789  0.2851
 4967TIP3    H214908   1.930   4.597  -0.026 -4.7666  0.0232 -0.8471
 4968TIP3   OH214909   6.254   1.580   2.315  0.0037 -0.2067 -0.0001
 4968TIP3    H114910   6.325   1.641   2.337  1.0642 -1.3499 -0.1205
 4968TIP3    H214911   6.175   1.622   2.349  0.8265  0.7775  0.7844
 4969TIP3   OH214912   2.451   4.343   2.531 -0.1269  0.8872 -0.1448
 4969TIP3    H114913   2.431   4.256   2.566 -0.3243  1.0309  0.0975
 4969TIP3    H214914   2.436   4.403   2.604 -4.5083  1.7193 -1.4009
 4970TIP3   OH214915   4.852   3.739   3.381 -0.7297 -0.4094  0.0356
 4970TIP3    H114916   4.802   3.762   3.303 -0.3101 -0.0568 -0.1390
 4970TIP3    H214917   4.935   3.706   3.347 -1.3035 -2.1877  0.2909
 4971TIP3   OH214918   0.556   0.924   1.973  0.0999  0.2111 -0.5993
 4971TIP3    H114919   0.565   0.975   1.893  0.0362 -0.1581 -0.8475
 4971TIP3    H214920   0.480   0.963   2.017 -0.4595 -0.1831 -1.1867
 4972TIP3   OH214921   4.399   4.364   4.962  0.1605 -0.4390 -0.6495
 4972TIP3    H114922   4.447   4.383   4.882  1.0396  0.8940  0.1542
 4972TIP3    H214923   4.317   4.414   4.953  0.0854 -0.6054 -0.8846
 4973TIP3   OH214924   3.732   2.922   1.558 -0.2981  0.0315  0.5557
 4973TIP3    H114925   3.699   2.855   1.617  0.5856 -1.2555 -0.3429
 4973TIP3    H214926   3.825   2.930   1.581  0.4212 -1.5116 -1.4825
 4974TIP3   OH214927   5.412   3.225   3.974  0.2550  0.1922  0.3860
 4974TIP3    H114928   5.350   3.185   3.912 -0.1362  0.4809  0.5901
 4974TIP3    H214929   5.436   3.153   4.033  2.3861 -0.7220 -1.4159
 4975TIP3   OH214930   5.636   1.908   4.904  0.3409 -0.3271  0.3103
 4975TIP3    H114931   5.650   1.816   4.882 -0.0128 -0.0416 -1.2568
 4975TIP3    H214932   5.630   1.910   4.999 -2.9107 -2.4608  0.3122
 4976TIP3   OH214933   1.983   5.410   5.028 -0.0863  0.2212 -0.5364
 4976TIP3    H114934   1.996   5.476   5.096 -0.6515 -0.2733  0.0679
 4976TIP3    H214935   2.023   5.331   5.064 -0.1307  0.0308 -0.9085
 4977TIP3   OH214936   5.227   3.116   4.704 -0.4272 -0.0164  0.6882
 4977TIP3    H114937   5.319   3.103   4.726 -0.3807 -0.3707  0.3018
 4977TIP3    H214938   5.192   3.028   4.694 -0.2996  0.0904 -1.1919
 4978TIP3   OH214939   4.805   0.596   0.919 -0.4489  0.2253 -0.0275
 4978TIP3    H114940   4.749   0.609   0.842  0.2371  0.2398 -0.5294
 4978TIP3    H214941   4.894   0.611   0.887 -0.0682 -0.7249  0.5455
 4979TIP3   OH214942   5.355   2.973   4.989  0.3951  0.0983 -0.4790
 4979TIP3    H114943   5.371   2.905   4.924  0.4742  1.4080 -1.8872
 4979TIP3    H214944   5.420   3.041   4.970  0.6497  0.3651  1.2061
 4980TIP3   OH214945   0.622   4.744   0.678 -0.0830  0.1432 -0.3946
 4980TIP3    H114946   0.711   4.712   0.692 -0.8517 -0.8823  3.3608
 4980TIP3    H214947   0.604   4.727   0.585  3.4593  0.1282 -1.2019
 4981TIP3   OH214948   5.300   3.950   0.001  0.0303  0.0386  0.2971
 4981TIP3    H114949   5.379   3.915   0.042  0.3650  0.5405  0.0972
 4981TIP3    H214950   5.297   4.041   0.030 -2.4387 -0.8339  3.2353
 4982TIP3   OH214951   5.445   4.330   2.480 -0.0399 -0.0978  1.0272
 4982TIP3    H114952   5.392   4.264   2.436  0.1850  0.8415 -0.7407
 4982TIP3    H214953   5.516   4.349   2.419  0.0542  1.5517  1.5931
 4983TIP3   OH214954   3.226   5.408   1.569  0.6678 -0.3975  0.0152
 4983TIP3    H114955   3.295   5.473   1.574  0.3373  0.0543 -1.1633
 4983TIP3    H214956   3.237   5.367   1.483 -0.8990  0.1176 -0.4585
 4984TIP3   OH214957   1.352   5.150   2.097 -0.0821  0.2723  0.1288
 4984TIP3    H114958   1.262   5.182   2.099  0.2697  1.3992  2.8040
 4984TIP3    H214959   1.343   5.056   2.080 -1.7089  0.4360 -0.1332
 4985TIP3   OH214960   0.600   1.280   4.941 -0.0311 -0.1247  0.3217
 4985TIP3    H114961   0.545   1.263   5.017  1.6893  1.1607  1.9474
 4985TIP3    H214962   0.670   1.215   4.947 -0.9821 -1.3991 -1.4219
 4986TIP3   OH214963   2.195   1.367   4.215  0.7068  0.4040  0.3070
 4986TIP3    H114964   2.171   1.459   4.205  0.1102  0.5827  2.8039
 4986TIP3    H214965   2.289   1.368   4.232  1.1243  0.3304 -1.7730
 4987TIP3   OH214966   6.071   1.465   0.042 -0.2726 -0.4277  0.5605
 4987TIP3    H114967   6.143   1.513   0.084  0.1545 -0.5167 -0.0623
 4987TIP3    H214968   5.992   1.502   0.081  0.0955  0.0217  0.8880
 4988TIP3   OH214969   3.465   3.748   2.882  0.4433  0.2984  0.1208
 4988TIP3    H114970   3.434   3.686   2.947  1.5320 -0.7528 -0.3295
 4988TIP3    H214971   3.523   3.807   2.930  0.7851 -0.1192  0.2331
 4989TIP3   OH214972   5.772   1.674   4.829 -0.1259 -0.4177  0.8497
 4989TIP3    H114973   5.782   1.655   4.735 -1.4307  0.0097  0.6073
 4989TIP3    H214974   5.842   1.624   4.870 -1.3007 -3.0357 -0.0943
 4990TIP3   OH214975   5.491   4.185   2.898 -0.2710  0.0108 -0.0255
 4990TIP3    H114976   5.461   4.129   2.826 -0.2339 -1.2944  0.9210
 4990TIP3    H214977   5.450   4.270   2.881 -1.0662 -0.5447 -1.0461
 4991TIP3   OH214978   2.531   1.279   2.422  0.1216 -0.3723 -0.2410
 4991TIP3    H114979   2.532   1.332   2.342 -1.7598 -0.2334 -0.2196
 4991TIP3    H214980   2.485   1.199   2.398 -0.1388 -0.4893  0.5972
 4992TIP3   OH214981   5.044   3.118   1.730 -0.2313 -0.0791  0.0657
 4992TIP3    H114982   5.038   3.035   1.682 -0.4835 -0.7850  1.2657
 4992TIP3    H214983   5.009   3.183   1.670 -0.0320 -0.8456 -0.8999
 4993TIP3   OH214984   2.077   5.787   1.961 -0.1971 -0.3823 -0.1792
 4993TIP3    H114985   2.157   5.766   2.010  0.2889  1.4998 -0.0718
 4993TIP3    H214986   2.070   5.718   1.895 -0.1827 -2.2881  1.7133
 4994TIP3   OH214987   5.669   0.131   0.412  0.2687 -0.4870 -0.3293
 4994TIP3    H114988   5.633   0.216   0.388  0.4266 -0.2526  0.2529
 4994TIP3    H214989   5.592   0.079   0.436  0.2122 -0.3768 -0.2714
 4995TIP3   OH214990   2.206   5.955   4.887  0.4319  0.4022  0.4535
 4995TIP3    H114991   2.268   6.028   4.884  1.6271 -0.5358  1.3508
 4995TIP3    H214992   2.230   5.899   4.814  0.0946  0.4479  0.3051
 4996TIP3   OH214993   2.938   5.017   0.579  0.2892  0.0710 -0.2853
 4996TIP3    H114994   2.868   4.953   0.587  1.1755 -1.0456 -1.1975
 4996TIP3    H214995   2.959   5.017   0.486  1.9626 -0.1237  0.0765
 4997TIP3   OH214996   4.560   0.186   2.777  0.3056  0.1794  0.2874
 4997TIP3    H114997   4.635   0.200   2.718  0.1779  1.8966  0.4993
 4997TIP3    H214998   4.584   0.230   2.858 -1.2080  1.3480  0.1344
 4998TIP3   OH214999   2.430   3.774   1.991 -0.2236  0.0500  0.4820
 4998TIP3    H115000   2.481   3.787   2.071 -0.6701  0.6205  0.6727
 4998TIP3    H215001   2.408   3.862   1.961 -0.3231 -0.1689 -0.1021
 4999TIP3   OH215002   0.686   1.733   3.320 -0.4269 -0.5256  0.1922
 4999TIP3    H115003   0.712   1.703   3.407 -1.0015 -3.0518 -0.4367
 4999TIP3    H215004   0.767   1.734   3.270 -0.2234  0.1495  0.5212
 5000TIP3   OH215005   2.828   1.541   2.335 -0.8518  0.2426 -0.0130
 5000TIP3    H115006   2.761   1.554   2.402 -0.4099 -0.5133  0.5950
 5000TIP3    H215007   2.827   1.447   2.318 -0.0434  0.2379 -0.0937
 5001TIP3   OH215008   0.172   2.851   1.112 -0.5085  0.3687 -0.5112
 5001TIP3    H115009   0.104   2.851   1.179  0.0828  0.6298  0.1080
 5001TIP3    H215010   0.150   2.779   1.054 -0.3747 -0.6340  0.6494
 5002TIP3   OH215011   3.861   4.314   0.482 -0.3522  0.2484 -0.3208
 5002TIP3    H115012   3.944   4.301   0.526 -0.7322 -0.0037  0.3323
 5002TIP3    H215013   3.833   4.401   0.508 -0.2960  0.3363 -0.5465
 5003TIP3   OH215014   4.030   4.627   0.926  0.1923  0.2936  0.1834
 5003TIP3    H115015   3.995   4.649   1.012  0.1781 -0.4616  0.3779
 5003TIP3    H215016   3.984   4.548   0.901  1.2502 -0.3237  0.1351
 5004TIP3   OH215017   4.542   2.134   4.846 -0.8484  0.7151 -0.4915
 5004TIP3    H115018   4.581   2.091   4.770  2.5360  1.3572  0.7158
 5004TIP3    H215019   4.544   2.068   4.914  0.0640  1.3596  0.1262
 5005TIP3   OH215020   3.432   0.653   4.174 -0.2615 -0.3886 -0.3367
 5005TIP3    H115021   3.397   0.742   4.180 -0.4323 -0.4829  0.0877
 5005TIP3    H215022   3.355   0.597   4.184 -0.1444 -0.5864 -0.5313
 5006TIP3   OH215023   2.916   1.111   2.522  0.1906  0.0337  0.3320
 5006TIP3    H115024   2.955   1.176   2.463  0.3955 -0.3737  0.0050
 5006TIP3    H215025   2.991   1.072   2.567  0.2403 -1.1134 -0.6735
 5007TIP3   OH215026   6.376   1.460   2.543  0.0865 -0.2974  0.1412
 5007TIP3    H115027   6.310   1.413   2.493  0.2713 -0.0950 -0.2953
 5007TIP3    H215028   6.332   1.539   2.574 -0.3545 -0.9568  1.2476
 5008TIP3   OH215029   2.363   1.062   0.665  0.0837 -0.3820 -0.0828
 5008TIP3    H115030   2.289   1.121   0.676 -1.1018 -1.3291 -2.4114
 5008TIP3    H215031   2.424   1.110   0.609 -0.6522 -1.1228 -1.5553
 5009TIP3   OH215032   2.500   2.125   3.890  0.2684  0.3109 -1.2777
 5009TIP3    H115033   2.481   2.062   3.821  0.5422  0.4695 -1.4990
 5009TIP3    H215034   2.415   2.165   3.911  0.0092 -0.4620 -0.8053
 5010TIP3   OH215035   0.941   4.255   4.672 -0.4501 -0.1145  0.6637
 5010TIP3    H115036   0.934   4.167   4.709  0.1894  0.1785  1.5197
 5010TIP3    H215037   1.001   4.245   4.598 -0.5128 -0.4292  0.6520
 5011TIP3   OH215038   5.711   4.615   3.626  0.9531 -0.3434  0.4601
 5011TIP3    H115039   5.644   4.597   3.559 -0.7459 -1.3946  2.3210
 5011TIP3    H215040   5.725   4.709   3.622  0.4191 -0.3016 -0.9279
 5012TIP3   OH215041   4.606   1.998   3.685  0.7044 -0.5475 -0.9527
 5012TIP3    H115042   4.531   2.055   3.670  1.5597  0.5136 -1.3181
 5012TIP3    H215043   4.681   2.058   3.693  1.6142 -1.6097 -1.2572
 5013TIP3   OH215044   2.056   0.823   1.107  0.4632 -0.5556  0.4214
 5013TIP3    H115045   1.993   0.756   1.082  1.3314 -1.1043 -0.3442
 5013TIP3    H215046   2.071   0.873   1.026 -0.1169  0.5353  0.9572
 5014TIP3   OH215047   0.809   2.445   3.803 -0.0044 -0.1709 -0.0823
 5014TIP3    H115048   0.830   2.465   3.895 -1.1701 -0.2192  0.2169
 5014TIP3    H215049   0.807   2.531   3.760  0.7834 -0.1667 -0.1335
 5015TIP3   OH215050   1.907   3.690   0.514 -0.3785 -0.5563  0.1529
 5015TIP3    H115051   2.002   3.687   0.511 -0.2702  0.2737  1.8537
 5015TIP3    H215052   1.882   3.609   0.557 -0.3373 -0.1223  1.0161
 5016TIP3   OH215053   6.196   3.848   2.520 -0.3800 -0.1806  0.1162
 5016TIP3    H115054   6.230   3.877   2.436  0.6694  0.2339  0.6625
 5016TIP3    H215055   6.190   3.753   2.513  0.2636 -0.2003 -0.2357
 5017TIP3   OH215056   6.377   0.420   4.605  0.2515 -0.3037  0.2846
 5017TIP3    H115057   6.348   0.492   4.662 -1.5972 -1.2010  0.5460
 5017TIP3    H215058   6.305   0.357   4.608  1.6186 -1.9570 -0.3269
 5018TIP3   OH215059   3.332   5.402   3.019  0.5636 -0.3880  0.4453
 5018TIP3    H115060   3.256   5.451   2.988  0.9279 -0.7999 -1.1879
 5018TIP3    H215061   3.397   5.412   2.950  0.6404 -3.1763 -0.0104
 5019TIP3   OH215062   0.767   2.830   0.855  0.0482  0.4197  0.2597
 5019TIP3    H115063   0.772   2.921   0.884 -0.2615  0.7020 -0.5436
 5019TIP3    H215064   0.754   2.780   0.935 -0.1258  1.1167  0.6736
 5020TIP3   OH215065   0.138   5.411   0.281  0.5401  0.8285 -0.0489
 5020TIP3    H115066   0.164   5.325   0.248 -0.8626 -0.2335  1.4980
 5020TIP3    H215067   0.218   5.464   0.275  2.3067 -1.4267  1.7233
 5021TIP3   OH215068   4.649   1.515   1.516 -0.5671 -0.0973  0.1636
 5021TIP3    H115069   4.646   1.538   1.609 -1.2163 -2.1888  0.6967
 5021TIP3    H215070   4.704   1.438   1.512 -2.2509 -1.3051 -0.8701
 5022TIP3   OH215071   1.041   0.008   1.881  0.2474 -0.3184 -0.1886
 5022TIP3    H115072   1.046  -0.054   1.809  1.3954  0.5814 -0.9131
 5022TIP3    H215073   1.063   0.093   1.842 -0.2855  0.3838  0.9788
 5023TIP3   OH215074   0.690   3.008   4.667  0.4668 -0.1224  0.0486
 5023TIP3    H115075   0.679   2.913   4.654 -1.8952  0.1402 -0.3328
 5023TIP3    H215076   0.729   3.015   4.755 -1.5785 -1.4250  1.1406
 5024TIP3   OH215077   6.243   5.521   0.720  0.0316  0.1952  0.4930
 5024TIP3    H115078   6.213   5.503   0.809  0.1350  0.5778  0.6069
 5024TIP3    H215079   6.198   5.456   0.666 -1.3525  1.0319  0.5935
 5025TIP3   OH215080   5.160   2.009   5.154  0.8470 -0.0496  0.2705
 5025TIP3    H115081   5.134   2.041   5.067 -4.2519 -0.8700  1.1991
 5025TIP3    H215082   5.152   2.085   5.211  2.6534  0.1089  0.3752
 5026TIP3   OH215083   0.882   2.885   0.427  0.2489 -0.1686 -0.2081
 5026TIP3    H115084   0.799   2.865   0.470  0.4864 -1.3987 -0.2928
 5026TIP3    H215085   0.858   2.945   0.355 -0.6509 -0.9415 -0.5774
 5027TIP3   OH215086   1.045   5.488   1.959  0.1530  0.5450  0.0163
 5027TIP3    H115087   0.953   5.470   1.977  0.9373 -1.1401  3.0392
 5027TIP3    H215088   1.056   5.581   1.980 -0.4777  0.2389  1.9459
 5028TIP3   OH215089   3.888   0.809   2.387  0.0304  0.2055 -0.4278
 5028TIP3    H115090   3.957   0.816   2.453  1.1684 -0.7948 -1.4476
 5028TIP3    H215091   3.830   0.741   2.421 -1.3004  2.0110  1.1063
 5029TIP3   OH215092   2.687   4.598   1.028 -0.1088  0.5531 -0.3635
 5029TIP3    H115093   2.732   4.515   1.012  0.2432  0.4295  1.1076
 5029TIP3    H215094   2.750   4.664   1.000  0.3005  0.3482  0.0593
 5030TIP3   OH215095   2.246   2.210   0.696  0.1016  0.0953 -0.0532
 5030TIP3    H115096   2.307   2.211   0.771  0.9280 -0.1666 -0.7082
 5030TIP3    H215097   2.164   2.178   0.733  1.4963 -3.9601  0.0620
 5031TIP3   OH215098   2.167   2.235   5.160  0.0021 -0.0797  0.2426
 5031TIP3    H115099   2.209   2.184   5.230  0.1711 -2.5966 -1.5455
 5031TIP3    H215100   2.074   2.213   5.168 -0.2223  0.9480  0.6465
 5032TIP3   OH215101   1.976   2.166   0.737  0.3653  0.0424  0.2922
 5032TIP3    H115102   1.903   2.135   0.792  2.1356 -0.4427  2.5216
 5032TIP3    H215103   1.937   2.234   0.682 -2.1892 -1.5929 -0.0575
 5033TIP3   OH215104   6.340   2.499   5.040  0.2547 -0.6897 -0.4313
 5033TIP3    H115105   6.320   2.425   4.982 -1.5777 -0.4051 -0.2323
 5033TIP3    H215106   6.314   2.468   5.127 -0.5906  0.1744 -0.3548
 5034TIP3   OH215107   1.561   1.632   1.438  0.1224  0.3423 -0.1191
 5034TIP3    H115108   1.563   1.723   1.468 -1.0235  0.6657 -0.9726
 5034TIP3    H215109   1.626   1.587   1.493  0.9860  1.7444  0.0512
 5035TIP3   OH215110   0.184   2.101   1.280 -0.4424 -0.0946 -0.6802
 5035TIP3    H115111   0.110   2.146   1.321 -2.3407 -2.1007 -1.7231
 5035TIP3    H215112   0.258   2.122   1.337 -1.4865  2.9883 -0.2701
 5036TIP3   OH215113   5.751   4.058   3.271  0.2937 -0.0413 -0.1199
 5036TIP3    H115114   5.719   4.076   3.359 -0.1864 -0.8710 -0.1067
 5036TIP3    H215115   5.810   4.130   3.251  0.4621  0.1171  0.9048
 5037TIP3   OH215116   0.441   2.582   3.476 -0.1127 -0.0100 -0.3857
 5037TIP3    H115117   0.490   2.601   3.556  0.4834 -1.4485 -0.3789
 5037TIP3    H215118   0.508   2.557   3.412 -0.7600 -1.4259 -0.5510
 5038TIP3   OH215119   6.328   3.822   4.276 -0.0551  0.0038  0.0873
 5038TIP3    H115120   6.326   3.848   4.368  0.9478 -2.5671  0.9220
 5038TIP3    H215121   6.266   3.881   4.233  1.6514  3.3418  1.7985
 5039TIP3   OH215122   1.537   0.738   3.285  0.3413  0.0714 -0.2506
 5039TIP3    H115123   1.487   0.696   3.355  0.9838  1.0952  0.8711
 5039TIP3    H215124   1.628   0.731   3.313  0.5805  0.8364 -0.7951
 5040TIP3   OH215125   3.481   0.122   5.205 -0.4867 -0.0120 -0.0453
 5040TIP3    H115126   3.572   0.114   5.177 -0.4746  3.0518 -1.2537
 5040TIP3    H215127   3.435   0.052   5.157  0.7777  0.2531 -1.7167
 5041TIP3   OH215128   1.937   2.859   3.320  0.4815  0.2058  0.1289
 5041TIP3    H115129   1.981   2.926   3.268  1.5239 -0.0678  0.6443
 5041TIP3    H215130   1.974   2.869   3.408 -1.2897  0.7021  0.8664
 5042TIP3   OH215131   1.958   5.781   4.638 -0.1450 -0.0706  0.1778
 5042TIP3    H115132   1.948   5.867   4.678 -0.1101 -0.4731  1.0714
 5042TIP3    H215133   1.885   5.729   4.672 -0.7251 -0.1391 -1.0922
 5043TIP3   OH215134   2.717   3.390   2.336 -0.3732  0.0233  0.4905
 5043TIP3    H115135   2.622   3.379   2.332 -0.8629  1.5133  4.1726
 5043TIP3    H215136   2.735   3.465   2.280 -1.7489  1.0937  1.4028
 5044TIP3   OH215137   3.199   2.958   4.521 -0.0288 -0.1187 -0.3096
 5044TIP3    H115138   3.213   3.042   4.565 -0.9380  0.9594 -1.9522
 5044TIP3    H215139   3.282   2.939   4.477  1.6131 -2.2373  3.2960
 5045TIP3   OH215140   1.617   2.240   4.586  0.1581  0.4466 -0.1902
 5045TIP3    H115141   1.594   2.162   4.638  1.3500  0.7621  0.8499
 5045TIP3    H215142   1.541   2.298   4.596 -1.7702 -1.3587 -2.7694
 5046TIP3   OH215143   0.500   4.762   5.198  0.0969 -0.1260 -0.1500
 5046TIP3    H115144   0.505   4.666   5.194  0.1384 -0.0907 -1.7114
 5046TIP3    H215145   0.540   4.791   5.116  1.9467  1.3366  1.2085
 5047TIP3   OH215146   2.362   1.684   2.826  0.3127 -0.5539  0.2225
 5047TIP3    H115147   2.394   1.594   2.835 -0.3135 -0.8658 -0.5111
 5047TIP3    H215148   2.282   1.686   2.878  0.2275 -0.4809  0.0907
 5048TIP3   OH215149   3.340   0.156   1.978 -0.5030  0.0214 -0.1316
 5048TIP3    H115150   3.390   0.175   2.057  1.3852 -1.5546 -0.8532
 5048TIP3    H215151   3.260   0.115   2.010  0.3469 -0.8380  1.0180
 5049TIP3   OH215152   2.312   5.386   2.646 -0.3682 -0.0615 -0.0738
 5049TIP3    H115153   2.218   5.366   2.645 -0.1771 -1.2418  1.4818
 5049TIP3    H215154   2.320   5.459   2.708 -0.1645 -0.7225  0.7030
 5050TIP3   OH215155   3.803   1.954   1.164  0.0788 -0.0718 -0.2121
 5050TIP3    H115156   3.736   1.989   1.223 -0.6159 -2.0570  0.2492
 5050TIP3    H215157   3.843   1.882   1.213  0.3407 -0.9764 -1.6900
 5051TIP3   OH215158   4.503   2.139   1.493  0.1813  0.5435 -0.1525
 5051TIP3    H115159   4.485   2.161   1.585 -1.3640  2.1074 -0.7848
 5051TIP3    H215160   4.421   2.101   1.462  0.7455 -0.1048 -0.8666
 5052TIP3   OH215161   1.959   1.389   5.020 -0.4818 -0.3652 -0.6422
 5052TIP3    H115162   1.889   1.426   5.074 -0.9537 -0.2459 -1.3196
 5052TIP3    H215163   1.969   1.300   5.052 -0.1344 -0.0217  0.2327
 5053TIP3   OH215164   2.764   4.134   3.102  0.1359  0.2978  0.4828
 5053TIP3    H115165   2.811   4.144   3.020 -0.8098  2.2324  0.1149
 5053TIP3    H215166   2.758   4.039   3.115  2.5477 -0.0276 -0.3120
 5054TIP3   OH215167   4.786   0.929   3.893  0.0811 -0.0270 -0.0799
 5054TIP3    H115168   4.775   0.850   3.946  2.2978 -0.1798  0.2301
 5054TIP3    H215169   4.697   0.959   3.876 -0.8565 -2.9229 -0.7284
 5055TIP3   OH215170   2.447   5.645   1.429 -0.4768 -0.0383 -0.0546
 5055TIP3    H115171   2.391   5.586   1.479 -0.2321 -1.2017 -1.1070
 5055TIP3    H215172   2.473   5.595   1.352  0.6169  1.0752 -0.4554
 5056TIP3   OH215173   2.387   0.713   0.374 -0.0547  0.2559  0.1078
 5056TIP3    H115174   2.466   0.659   0.369 -1.9503 -2.6347 -2.6687
 5056TIP3    H215175   2.390   0.766   0.295 -1.8133 -1.5346 -1.2705
 5057TIP3   OH215176   2.074   0.725   3.781 -0.1209  0.6067 -0.1373
 5057TIP3    H115177   2.043   0.661   3.718  1.9960  2.5108 -3.4381
 5057TIP3    H215178   2.004   0.790   3.787  0.5663  1.6983 -2.6788
 5058TIP3   OH215179   4.723   1.725   1.227  0.1511 -0.2534  0.1388
 5058TIP3    H115180   4.664   1.757   1.159  0.8864 -2.0947 -1.4877
 5058TIP3    H215181   4.703   1.778   1.304 -0.8880  1.7611 -1.4350
 5059TIP3   OH215182   2.683   3.785   1.851 -0.3531  0.1179 -0.3691
 5059TIP3    H115183   2.589   3.780   1.867 -0.2917  1.1705  0.4935
 5059TIP3    H215184   2.711   3.862   1.901  1.1706 -0.8857  0.4057
 5060TIP3   OH215185   1.822   3.159   3.324 -0.2928 -0.5017  0.2968
 5060TIP3    H115186   1.835   3.252   3.304  0.7307 -0.5754  0.5680
 5060TIP3    H215187   1.762   3.128   3.256 -4.9421  1.4835  2.9881
 5061TIP3   OH215188   3.458   4.553   2.408 -0.2515 -0.6088  0.1203
 5061TIP3    H115189   3.486   4.615   2.341 -1.1454  0.2072  0.4855
 5061TIP3    H215190   3.525   4.485   2.406  0.3348 -0.0349 -0.8252
 5062TIP3   OH215191   0.041   1.283   3.288 -0.7322  0.4667 -0.0774
 5062TIP3    H115192  -0.030   1.346   3.299 -0.6866  0.4633  0.2469
 5062TIP3    H215193   0.080   1.306   3.204 -0.3751  1.2165  0.2847
 5063TIP3   OH215194   0.887   3.056   4.869 -0.6098 -0.1508 -0.5599
 5063TIP3    H115195   0.897   3.076   4.962 -0.8629 -0.6658 -0.4192
 5063TIP3    H215196   0.976   3.061   4.833 -0.4872 -0.1364 -0.2523
 5064TIP3   OH215197   1.755   1.143   4.984  0.9804 -0.3253  0.2659
 5064TIP3    H115198   1.841   1.147   5.027  1.5153  0.2329 -0.8139
 5064TIP3    H215199   1.763   1.071   4.922  0.7071 -0.1983  0.0843
 5065TIP3   OH215200   5.638   2.114   0.021  0.2926  0.0968 -0.0260
 5065TIP3    H115201   5.592   2.187   0.062 -0.0645 -0.7067  1.0772
 5065TIP3    H215202   5.569   2.053  -0.004  0.6943 -1.3481  2.0924
 5066TIP3   OH215203   3.543   0.093   2.540 -0.0576 -0.4194  0.2989
 5066TIP3    H115204   3.602   0.096   2.616 -0.3056  3.1544  0.5237
 5066TIP3    H215205   3.601   0.107   2.465 -0.2062 -0.5941  0.1504
 5067TIP3   OH215206   5.673   4.199   4.434 -0.1547  0.0287  0.1324
 5067TIP3    H115207   5.748   4.144   4.459 -0.0631  0.2978  0.4494
 5067TIP3    H215208   5.605   4.136   4.409  0.1306 -0.2191 -0.0271
 5068TIP3   OH215209   4.696   1.752   0.281 -0.1016 -0.2565 -0.6165
 5068TIP3    H115210   4.669   1.660   0.274 -0.2739 -0.3644  1.1210
 5068TIP3    H215211   4.714   1.778   0.190  1.7267 -2.5178 -1.0026
 5069TIP3   OH215212   2.029   3.566   2.722  0.3331  0.2353 -0.7417
 5069TIP3    H115213   1.944   3.610   2.718 -0.1364 -0.6879 -1.2940
 5069TIP3    H215214   2.008   3.473   2.722  1.2687 -0.0263  1.1178
 5070TIP3   OH215215   3.274   1.401   3.899 -0.1419 -0.0403 -0.3327
 5070TIP3    H115216   3.222   1.338   3.849  1.9492 -2.0525 -0.1366
 5070TIP3    H215217   3.236   1.398   3.987 -2.0219  1.4015 -1.0113
 5071TIP3   OH215218   2.986   0.967   0.397  0.1927 -0.3715  0.0224
 5071TIP3    H115219   2.946   1.054   0.388  1.7646  0.3632 -0.1602
 5071TIP3    H215220   2.912   0.909   0.415 -0.9556  0.9170 -0.3260
 5072TIP3   OH215221   2.375   1.702   1.167  0.3543 -0.3743  0.0499
 5072TIP3    H115222   2.313   1.774   1.173  0.3058 -0.4765  0.9895
 5072TIP3    H215223   2.461   1.744   1.160  0.2977 -0.2253  0.2406
 5073TIP3   OH215224   0.595   2.719   2.854 -0.1056  0.0811 -0.0679
 5073TIP3    H115225   0.511   2.674   2.840 -0.4559  0.8724 -0.5681
 5073TIP3    H215226   0.637   2.669   2.924 -0.7496 -0.6572 -0.1893
 5074TIP3   OH215227   5.957   0.806   3.419 -0.4016  0.1457 -0.1325
 5074TIP3    H115228   5.882   0.841   3.371  0.2741 -0.8839 -2.0239
 5074TIP3    H215229   6.034   0.841   3.373  0.3141  0.9083  1.5659
 5075TIP3   OH215230   6.256   4.242   4.064 -0.6618  0.1975  0.3628
 5075TIP3    H115231   6.253   4.281   4.151 -0.4982  2.1116 -0.4533
 5075TIP3    H215232   6.224   4.310   4.006  0.5611 -0.5345 -1.2424
 5076TIP3   OH215233   3.117   0.855   3.099  0.5116  0.5972 -0.2586
 5076TIP3    H115234   3.138   0.816   3.014 -0.0480 -2.4992  0.8885
 5076TIP3    H215235   3.034   0.901   3.085 -0.8726 -1.8923 -0.9848
 5077TIP3   OH215236   4.361   5.303   3.053 -0.4423 -0.0952 -0.2195
 5077TIP3    H115237   4.396   5.367   3.115  0.5732 -0.4888 -0.3600
 5077TIP3    H215238   4.434   5.285   2.994 -1.8536  1.6336 -2.7036
 5078TIP3   OH215239   5.596   4.211   4.702  0.2462 -0.7469 -0.5997
 5078TIP3    H115240   5.547   4.132   4.725  1.8161 -1.2221  1.4255
 5078TIP3    H215241   5.629   4.194   4.614 -1.4575 -1.2719 -1.1714
 5079TIP3   OH215242   0.455   4.699   3.315  0.1477  0.2422 -0.8283
 5079TIP3    H115243   0.385   4.717   3.253  0.7191 -1.8218 -2.1898
 5079TIP3    H215244   0.448   4.604   3.331 -0.9734  0.8296  3.5494
 5080TIP3   OH215245   0.266   3.322   2.244  0.4168 -0.1073 -0.4434
 5080TIP3    H115246   0.187   3.347   2.198  0.4850  0.6346 -0.1721
 5080TIP3    H215247   0.331   3.388   2.219  0.1480  1.0054  1.5494
 5081TIP3   OH215248   1.421   2.820   0.343  0.1422 -0.1648 -0.3330
 5081TIP3    H115249   1.439   2.901   0.296  0.3188 -1.1493 -2.0210
 5081TIP3    H215250   1.331   2.830   0.375  0.5285  1.1186  0.4401
 5082TIP3   OH215251   3.383   0.754   3.770 -0.0558  0.5156  0.5055
 5082TIP3    H115252   3.463   0.756   3.823 -0.4845  0.3693  1.1784
 5082TIP3    H215253   3.329   0.823   3.808 -1.5157 -1.4058  2.1474
 5083TIP3   OH215254   0.096   0.744   1.566 -0.5306 -0.1302  0.2785
 5083TIP3    H115255   0.028   0.811   1.554 -0.6631 -0.4534 -0.8649
 5083TIP3    H215256   0.176   0.794   1.581 -0.5739  0.3134 -0.8527
 5084TIP3   OH215257   0.111   4.944   0.181  0.2804 -0.1073  0.5678
 5084TIP3    H115258   0.055   5.000   0.128  0.6929  0.6291  0.8978
 5084TIP3    H215259   0.059   4.924   0.259  0.7434  1.2121  1.2383
 5085TIP3   OH215260   0.275   4.891   2.636  0.6428 -0.3881 -0.5891
 5085TIP3    H115261   0.342   4.958   2.652 -0.4526  0.2526  1.7604
 5085TIP3    H215262   0.228   4.922   2.559  1.5635  0.3507 -0.8751
 5086TIP3   OH215263   4.476   1.043   1.982 -0.6853 -0.2594  0.6018
 5086TIP3    H115264   4.478   1.138   1.976 -1.4239 -0.2818 -0.3330
 5086TIP3    H215265   4.384   1.020   1.967 -0.3564 -1.1639 -0.1865
 5087TIP3   OH215266   4.503   4.650   2.549  0.3042  0.0113 -0.1876
 5087TIP3    H115267   4.408   4.657   2.553  0.2972  1.1119 -1.5467
 5087TIP3    H215268   4.534   4.737   2.571  1.0063 -0.2788 -0.0004
 5088TIP3   OH215269   1.198   4.823   3.377  0.8047 -0.3096  0.1199
 5088TIP3    H115270   1.139   4.791   3.309  0.7079  0.2816 -0.0826
 5088TIP3    H215271   1.161   4.908   3.402  1.1318 -0.2896  0.5394
 5089TIP3   OH215272   3.185   2.631   2.208 -0.9340  0.0899  0.3532
 5089TIP3    H115273   3.145   2.693   2.147  0.7506  1.0559  0.1507
 5089TIP3    H215274   3.180   2.547   2.163 -3.8808 -0.1312  0.9240
 5090TIP3   OH215275   1.488   0.939   2.608  0.4574  0.3168 -0.4076
 5090TIP3    H115276   1.454   0.949   2.519 -1.9589  1.0838  0.5402
 5090TIP3    H215277   1.463   0.850   2.633 -1.8239  1.1538  0.5901
 5091TIP3   OH215278   2.358   4.314   4.345  0.2200 -0.1924  0.0862
 5091TIP3    H115279   2.377   4.225   4.318  0.6243 -0.2102  0.4135
 5091TIP3    H215280   2.404   4.324   4.428  0.4015  0.4011 -0.0759
 5092TIP3   OH215281   5.548   5.268   4.270 -0.1782  0.0065  0.4485
 5092TIP3    H115282   5.482   5.310   4.325 -0.4176 -0.3055  0.4028
 5092TIP3    H215283   5.533   5.304   4.183 -0.6685 -0.4934  0.3202
 5093TIP3   OH215284   0.990   5.626   5.203 -0.1919 -0.2704  0.3814
 5093TIP3    H115285   1.034   5.702   5.165 -2.8626  0.4627 -1.5995
 5093TIP3    H215286   1.029   5.551   5.158  0.9604  0.0933  0.7548
 5094TIP3   OH215287   4.699   2.563   1.132 -0.2595 -0.1045 -0.2343
 5094TIP3    H115288   4.683   2.616   1.210 -1.0475 -0.1576 -0.3574
 5094TIP3    H215289   4.721   2.476   1.167 -1.6341 -0.4072 -0.0787
 5095TIP3   OH215290   1.752   3.773   0.273 -0.1510 -0.0621 -0.3100
 5095TIP3    H115291   1.795   3.696   0.236 -1.5115 -0.0824 -1.9640
 5095TIP3    H215292   1.747   3.754   0.367  0.1698 -1.6770 -0.5841
 5096TIP3   OH215293   5.834   2.659   5.112 -0.0955 -0.0785 -0.2690
 5096TIP3    H115294   5.870   2.606   5.184 -0.3709 -1.6210 -1.2118
 5096TIP3    H215295   5.906   2.665   5.049 -0.1946  0.3309 -0.3421
 5097TIP3   OH215296   4.539   1.049   0.045  0.4666  0.6240  0.3619
 5097TIP3    H115297   4.483   0.997   0.103  0.6821  0.3175  0.2966
 5097TIP3    H215298   4.500   1.137   0.047 -0.8400  0.1207 -0.7149
 5098TIP3   OH215299   5.473   3.245   4.924  0.5355  0.1469 -1.0067
 5098TIP3    H115300   5.547   3.271   4.978  1.2978 -2.4263 -0.6510
 5098TIP3    H215301   5.447   3.324   4.878  1.0633  2.0093  1.6958
 5099TIP3   OH215302   1.243   2.832   3.154  0.2930 -0.0522 -0.2881
 5099TIP3    H115303   1.175   2.899   3.145 -0.5478 -0.7966  0.3683
 5099TIP3    H215304   1.301   2.866   3.223  0.6832  0.6514 -0.9506
 5100TIP3   OH215305   5.732   2.017   1.957 -0.0314 -0.1885  0.3501
 5100TIP3    H115306   5.798   1.961   1.914  0.6370  1.7093 -1.2962
 5100TIP3    H215307   5.783   2.068   2.019 -0.5233 -0.8901  1.3487
 5101TIP3   OH215308   5.542   3.593   3.445 -0.3919  1.1037  0.3242
 5101TIP3    H115309   5.488   3.529   3.399 -0.9918  1.3089  0.7294
 5101TIP3    H215310   5.568   3.656   3.378  2.0749 -0.7066 -0.5905
 5102TIP3   OH215311   0.177   4.919   0.879 -0.3082  0.4291  0.3856
 5102TIP3    H115312   0.159   4.901   0.787  1.7039 -0.1218  0.0389
 5102TIP3    H215313   0.145   4.842   0.925  0.6495 -0.3196 -0.1468
 5103TIP3   OH215314   0.709   0.189   2.953 -0.8475  0.3440 -0.5751
 5103TIP3    H115315   0.681   0.099   2.969  2.6395 -0.9838 -1.1412
 5103TIP3    H215316   0.748   0.217   3.035 -0.9385  0.9478 -0.7338
 5104TIP3   OH215317   5.410   0.940   0.405  0.3301 -0.3388 -0.0159
 5104TIP3    H115318   5.504   0.957   0.399  0.1637  0.3063 -1.1222
 5104TIP3    H215319   5.403   0.868   0.467  1.7439 -1.9354 -1.5966
 5105TIP3   OH215320   2.389   4.268   3.469 -0.0174  0.2425  0.2255
 5105TIP3    H115321   2.398   4.338   3.404 -1.2120  0.6726  0.4835
 5105TIP3    H215322   2.443   4.197   3.436  2.5834  1.8409  0.7968
 5106TIP3   OH215323   4.803   0.463   3.606 -0.2495 -0.5972  0.1060
 5106TIP3    H115324   4.845   0.391   3.654 -1.0280 -1.7470 -0.8915
 5106TIP3    H215325   4.759   0.514   3.674 -0.8801 -1.8898  0.6935
 5107TIP3   OH215326   2.599   5.943   0.483 -0.3981 -0.6122  0.1524
 5107TIP3    H115327   2.600   6.033   0.448 -0.5921 -1.0048 -0.8878
 5107TIP3    H215328   2.625   5.953   0.575  0.0839  0.4553 -0.0829
 5108TIP3   OH215329   0.312   4.266   4.426 -0.2139 -0.3126  0.0148
 5108TIP3    H115330   0.322   4.345   4.374  0.0688  0.7118  1.5644
 5108TIP3    H215331   0.267   4.204   4.368 -1.3977  1.3214 -0.8667
 5109TIP3   OH215332   3.228   3.576   1.390 -0.2030 -0.0760  0.2724
 5109TIP3    H115333   3.174   3.497   1.397 -0.6808  0.2377  0.2109
 5109TIP3    H215334   3.165   3.648   1.394  0.3574  0.3571  1.7871
 5110TIP3   OH215335   3.093   5.129   4.060  0.2314 -0.2642  0.2908
 5110TIP3    H115336   3.131   5.098   4.143 -0.8038 -1.6330  0.2749
 5110TIP3    H215337   3.147   5.087   3.993 -0.5787 -1.3082  0.2748
 5111TIP3   OH215338   5.088   5.528   2.836  0.5006 -0.3697 -0.2567
 5111TIP3    H115339   5.175   5.488   2.846  0.9776  0.6322 -0.2359
 5111TIP3    H215340   5.102   5.620   2.859 -0.4023 -0.0340 -1.0102
 5112TIP3   OH215341   2.425   0.715   0.978  0.1206 -0.8289  0.3435
 5112TIP3    H115342   2.353   0.659   0.951 -0.3934 -0.3602  0.7075
 5112TIP3    H215343   2.461   0.749   0.896 -1.3906  0.5446  0.1935
 5113TIP3   OH215344   5.916   5.521   5.175  0.0349 -0.5188  0.5060
 5113TIP3    H115345   5.941   5.432   5.197 -0.0916 -0.5733  0.4281
 5113TIP3    H215346   5.856   5.512   5.100 -1.2566 -0.4718  1.5074
 5114TIP3   OH215347   4.695   3.490   2.329  0.1592 -0.1737 -0.1459
 5114TIP3    H115348   4.790   3.480   2.321  0.6322  0.2640  3.4266
 5114TIP3    H215349   4.679   3.583   2.313  0.8269  0.3944  2.1535
 5115TIP3   OH215350   3.290   5.314   2.370 -0.0013  0.3706  0.2500
 5115TIP3    H115351   3.330   5.318   2.457 -1.2268 -0.7775  0.8999
 5115TIP3    H215352   3.232   5.239   2.374 -2.4074  2.0821 -0.5612
 5116TIP3   OH215353   0.064   1.151   0.064 -0.4443  0.0741  0.0368
 5116TIP3    H115354  -0.022   1.185   0.039  0.8952  3.2109 -0.8244
 5116TIP3    H215355   0.049   1.105   0.146 -2.7595  1.5739  0.5526
 5117TIP3   OH215356   5.413   0.262   0.687 -0.1133  0.0568  0.1401
 5117TIP3    H115357   5.369   0.229   0.608  1.9134  0.7083 -1.3652
 5117TIP3    H215358   5.348   0.318   0.729 -1.2996 -0.4079 -1.0110
 5118TIP3   OH215359   3.216   3.773   0.634  0.4106  0.3322 -0.1650
 5118TIP3    H115360   3.309   3.764   0.652  0.5399 -0.6942 -1.2568
 5118TIP3    H215361   3.206   3.750   0.542 -0.9998 -0.2097  0.0884
 5119TIP3   OH215362   1.905   2.764   4.765 -0.0421 -0.3424 -0.7652
 5119TIP3    H115363   1.935   2.854   4.755 -1.0890  0.1120  0.0195
 5119TIP3    H215364   1.923   2.723   4.680 -1.7595  1.2874 -2.0137
 5120TIP3   OH215365   4.476   2.816   2.495  0.4097  0.0908  0.6983
 5120TIP3    H115366   4.440   2.904   2.504  0.6414  0.5166 -1.8676
 5120TIP3    H215367   4.423   2.763   2.555 -0.8492  1.6441  1.0572
 5121TIP3   OH215368   4.805   5.019   5.121 -0.1217 -0.2829  0.4135
 5121TIP3    H115369   4.795   5.066   5.038 -0.5851  0.4102  0.8485
 5121TIP3    H215370   4.743   4.946   5.114 -0.3005 -0.1162  0.2202
 5122TIP3   OH215371   1.029   4.198   5.102 -0.4621  0.1268  0.3072
 5122TIP3    H115372   1.028   4.107   5.073 -2.1067  0.6055 -1.3442
 5122TIP3    H215373   1.022   4.194   5.197 -0.6187 -1.4674  0.2428
 5123TIP3   OH215374   6.238   1.493   3.263  0.1182  0.0623 -0.1724
 5123TIP3    H115375   6.193   1.486   3.179  0.7458 -0.5356 -0.4644
 5123TIP3    H215376   6.281   1.578   3.260 -1.5180  0.9457  0.3828
 5124TIP3   OH215377   0.756   5.760   0.513  0.1440  0.5326  0.5591
 5124TIP3    H115378   0.725   5.791   0.598 -1.3856  0.5552  0.0137
 5124TIP3    H215379   0.779   5.839   0.465 -0.4939  0.6201  0.3939
 5125TIP3   OH215380   3.613   0.734   2.001 -0.0598  0.1959  0.1219
 5125TIP3    H115381   3.571   0.649   1.988  0.5149  0.0227 -0.6641
 5125TIP3    H215382   3.619   0.744   2.096 -0.3427 -0.5330  0.2200
 5126TIP3   OH215383   5.809   4.328   3.216  0.3687  0.0559  0.2976
 5126TIP3    H115384   5.836   4.401   3.271  3.3879 -0.7405  0.0342
 5126TIP3    H215385   5.830   4.355   3.127 -0.2292 -0.4278 -0.0018
 5127TIP3   OH215386   4.959   3.146   0.609  0.0322  0.0453 -0.1415
 5127TIP3    H115387   4.974   3.175   0.519  1.9007 -0.6084 -0.0950
 5127TIP3    H215388   5.005   3.210   0.663  0.5555 -0.6167  0.2151
 5128TIP3   OH215389   5.346   1.901   2.326  0.2757  0.0038 -0.5427
 5128TIP3    H115390   5.271   1.934   2.276 -0.9599  0.2264  1.3555
 5128TIP3    H215391   5.420   1.953   2.296 -1.1855  3.0823  0.7345
 5129TIP3   OH215392   4.345   1.486   3.345  0.1234  0.2458 -0.3232
 5129TIP3    H115393   4.388   1.499   3.429  1.9587  0.4161 -1.2316
 5129TIP3    H215394   4.296   1.567   3.330  0.6613  0.6645  0.1112
 5130TIP3   OH215395   2.092   3.705   3.293 -0.0713 -0.2278  0.0248
 5130TIP3    H115396   2.001   3.732   3.301  0.2828  0.7614  1.0907
 5130TIP3    H215397   2.142   3.780   3.326  1.1080 -0.9386 -0.0736
 5131TIP3   OH215398   4.688   0.214   4.275 -0.2336 -0.0241  0.4053
 5131TIP3    H115399   4.724   0.125   4.275 -0.2775 -0.0449  1.0082
 5131TIP3    H215400   4.709   0.248   4.188 -1.2991 -1.0458 -0.2731
 5132TIP3   OH215401   1.980   0.613   4.564 -0.4360 -0.3703  0.1299
 5132TIP3    H115402   2.057   0.668   4.549 -2.6484  2.3115 -2.5685
 5132TIP3    H215403   1.911   0.674   4.590 -2.5683 -2.0562 -1.2050
 5133TIP3   OH215404   1.363   3.858   0.472  0.6549 -0.0653 -0.1580
 5133TIP3    H115405   1.393   3.853   0.563  0.2351  0.5301  0.0180
 5133TIP3    H215406   1.412   3.932   0.435 -0.7333  1.0678  0.1986
 5134TIP3   OH215407   5.292   2.458   0.833  0.5846 -0.4039  0.3000
 5134TIP3    H115408   5.204   2.429   0.856 -0.1224  1.0569 -0.4641
 5134TIP3    H215409   5.284   2.493   0.745  1.7857  0.3877  0.4786
 5135TIP3   OH215410   3.539   4.205   2.243  0.7079  0.3188 -0.2202
 5135TIP3    H115411   3.620   4.215   2.192  0.9415 -0.5679 -0.0306
 5135TIP3    H215412   3.561   4.238   2.330  0.3967  1.5500 -0.5866
 5136TIP3   OH215413   5.951   4.422   0.412  0.3159  0.1297  0.2150
 5136TIP3    H115414   6.045   4.436   0.409  0.2858  0.3285  0.2089
 5136TIP3    H215415   5.928   4.394   0.323  0.2662  0.7459  0.0246
 5137TIP3   OH215416   1.501   2.448   4.978  0.7871  0.4165 -0.3448
 5137TIP3    H115417   1.523   2.534   4.944 -1.6474  0.5691 -1.7483
 5137TIP3    H215418   1.435   2.414   4.918  0.1169 -1.5436  1.3526
 5138TIP3   OH215419   2.669   5.246   0.791 -0.4091 -0.3640 -0.0603
 5138TIP3    H115420   2.592   5.283   0.833  0.6814  1.1561  0.7142
 5138TIP3    H215421   2.719   5.207   0.863  0.2278 -0.0489 -0.3223
 5139TIP3   OH215422   2.951   1.245   4.796  0.6722  0.0366 -0.2320
 5139TIP3    H115423   2.994   1.325   4.823  0.4397  0.0956 -0.0284
 5139TIP3    H215424   2.857   1.264   4.803  0.6149 -0.4224  0.3357
 5140TIP3   OH215425   5.182   4.953   0.140 -0.1491 -0.1256 -0.9956
 5140TIP3    H115426   5.172   4.936   0.046  0.1907 -1.0665 -0.8738
 5140TIP3    H215427   5.222   4.873   0.174  0.7807  0.6399 -0.2361
 5141TIP3   OH215428   2.670   2.476   4.265 -0.1796  0.0749 -0.4890
 5141TIP3    H115429   2.699   2.565   4.286  0.3501 -0.1847 -0.1007
 5141TIP3    H215430   2.686   2.467   4.171  2.3346 -0.5204 -0.0756
 5142TIP3   OH215431   5.153   2.784   3.088  0.2555  0.5400  0.3797
 5142TIP3    H115432   5.183   2.720   3.154 -0.9915 -0.7769 -0.2711
 5142TIP3    H215433   5.111   2.731   3.021  2.1347  1.7683 -1.9178
 5143TIP3   OH215434   0.414   1.349   3.382 -0.0280  0.6022  0.2547
 5143TIP3    H115435   0.363   1.273   3.355  1.3779  0.0581 -1.0051
 5143TIP3    H215436   0.363   1.424   3.351 -0.0544  0.0723 -1.0483
 5144TIP3   OH215437   0.255   2.672   2.894  0.1409  0.5060  0.4428
 5144TIP3    H115438   0.251   2.676   2.989 -0.8721 -1.3153  0.5220
 5144TIP3    H215439   0.183   2.614   2.869  0.5885  0.6770 -1.4148
 5145TIP3   OH215440   4.341   5.328   2.151 -0.1887  0.1581 -0.0267
 5145TIP3    H115441   4.285   5.251   2.138 -1.1419  1.0658 -1.5912
 5145TIP3    H215442   4.341   5.372   2.066  1.7005  1.0113  0.3787
 5146TIP3   OH215443   5.971   3.695   3.590 -0.3713 -0.5757  0.2630
 5146TIP3    H115444   5.899   3.652   3.636 -0.4125 -1.7250 -0.8085
 5146TIP3    H215445   5.960   3.668   3.498  0.0007  1.2112 -0.3536
 5147TIP3   OH215446   3.953   4.503   1.672 -0.4621  0.5838  0.2706
 5147TIP3    H115447   3.892   4.438   1.707 -0.7821 -0.0182 -1.3183
 5147TIP3    H215448   4.010   4.525   1.746 -2.4543  1.0147  1.7396
 5148TIP3   OH215449   1.821   5.243   1.306 -0.3001  0.2214 -0.1579
 5148TIP3    H115450   1.791   5.220   1.219 -0.3402  1.3068 -0.4440
 5148TIP3    H215451   1.916   5.234   1.302 -0.3190  0.0614 -0.2466
 5149TIP3   OH215452   0.205   1.803   2.840  0.2509  0.1533  0.1075
 5149TIP3    H115453   0.264   1.871   2.872  1.0266  0.4564 -1.8302
 5149TIP3    H215454   0.246   1.720   2.866  0.3335  0.3983  0.7584
 5150TIP3   OH215455   2.704   1.623   4.618  0.0927  0.6680 -0.5554
 5150TIP3    H115456   2.779   1.682   4.626 -0.6791  1.4411  1.6552
 5150TIP3    H215457   2.631   1.681   4.594 -0.1521  0.2000 -0.9512
 5151TIP3   OH215458   5.194   2.750   2.560 -0.4229 -0.5062 -0.1073
 5151TIP3    H115459   5.239   2.752   2.644 -1.1781 -1.3712  0.3375
 5151TIP3    H215460   5.209   2.836   2.522  0.1512 -0.2008  0.7935
 5152TIP3   OH215461   5.342   4.319   4.355  0.2422  0.1269  0.4372
 5152TIP3    H115462   5.391   4.255   4.305  0.3183 -0.8864  1.7434
 5152TIP3    H215463   5.278   4.354   4.293  0.0850 -1.3348 -0.2787
 5153TIP3   OH215464   1.002   3.400   3.738  0.4853  0.2818  0.6030
 5153TIP3    H115465   0.999   3.308   3.710  0.8928  0.5631 -0.4274
 5153TIP3    H215466   1.088   3.430   3.710 -0.4765  1.5991 -1.2147
 5154TIP3   OH215467   6.054   0.466   2.889  0.1118  0.2507 -0.2965
 5154TIP3    H115468   6.110   0.476   2.813  0.5701 -1.5135 -0.2377
 5154TIP3    H215469   6.104   0.503   2.962  0.0653  1.0776 -0.6770
 5155TIP3   OH215470   0.344   0.017   0.169 -0.2069  0.5174 -0.1460
 5155TIP3    H115471   0.333   0.095   0.115  1.8391  0.3165 -0.9634
 5155TIP3    H215472   0.407   0.043   0.237  1.2433 -0.6072 -0.9890
 5156TIP3   OH215473   3.361   3.504   1.156  0.4112  0.0631 -0.2397
 5156TIP3    H115474   3.324   3.541   1.236  1.2118 -1.6884  1.0062
 5156TIP3    H215475   3.395   3.418   1.182 -1.6486 -1.7697 -3.0141
 5157TIP3   OH215476   5.086   0.861   2.583  0.2885 -0.4484 -0.1882
 5157TIP3    H115477   5.150   0.912   2.633  0.5656  0.1117 -1.0855
 5157TIP3    H215478   5.126   0.851   2.497 -1.2637  0.8547 -1.1338
 5158TIP3   OH215479   3.356   3.826   0.281  1.0638 -0.3469  0.3668
 5158TIP3    H115480   3.395   3.913   0.284 -0.6020  0.4781 -0.4243
 5158TIP3    H215481   3.405   3.779   0.214 -0.5349  1.3673 -2.1629
 5159TIP3   OH215482   3.951   4.704   0.137  0.0916 -0.8011 -0.2615
 5159TIP3    H115483   3.872   4.725   0.187  1.5061  1.5146  1.2108
 5159TIP3    H215484   3.986   4.626   0.178  0.6579  0.4622  1.7869
 5160TIP3   OH215485   0.222   0.524   2.164 -0.0626  0.1666 -0.4084
 5160TIP3    H115486   0.187   0.613   2.151 -1.9259 -0.5446 -0.6277
 5160TIP3    H215487   0.181   0.495   2.246  0.5548 -0.4833 -0.3313
 5161TIP3   OH215488   5.815   0.842   3.709  0.1282  0.5742 -0.4197
 5161TIP3    H115489   5.781   0.827   3.621  1.6698  0.3554 -1.0219
 5161TIP3    H215490   5.819   0.755   3.748  0.7766  0.4776 -0.6778
 5162TIP3   OH215491   5.460   4.374   0.548  0.0072 -0.2986 -0.3629
 5162TIP3    H115492   5.555   4.389   0.552  0.3366 -1.5135 -2.3060
 5162TIP3    H215493   5.451   4.283   0.518 -1.7805 -0.2578 -0.0554
 5163TIP3   OH215494   1.721   4.646   1.903 -0.1552 -0.0852 -0.7015
 5163TIP3    H115495   1.640   4.633   1.952  0.8726  1.8522  1.7134
 5163TIP3    H215496   1.753   4.731   1.932  1.0421  0.8039 -4.1554
 5164TIP3   OH215497   0.746   0.139   3.556  0.1553  0.1144 -0.0410
 5164TIP3    H115498   0.779   0.049   3.554 -1.1052 -0.3625 -0.1205
 5164TIP3    H215499   0.701   0.146   3.640 -0.5080  0.3771 -0.4087
 5165TIP3   OH215500   2.365   3.980   3.471 -0.3183  0.5367  0.0184
 5165TIP3    H115501   2.458   3.957   3.469 -0.8070 -2.0113  1.9233
 5165TIP3    H215502   2.327   3.923   3.538 -3.4753  0.6511 -1.4737
 5166TIP3   OH215503   4.004   4.454   0.263  0.0442  0.0060  0.3171
 5166TIP3    H115504   3.978   4.370   0.226 -0.5589 -0.1892  1.1609
 5166TIP3    H215505   4.021   4.435   0.355 -0.2422  0.8375  0.5447
 5167TIP3   OH215506   0.771   4.546   1.588  0.3750 -0.6217 -0.5783
 5167TIP3    H115507   0.825   4.539   1.666  0.4062  1.3213 -0.3757
 5167TIP3    H215508   0.825   4.510   1.518  0.3738 -2.3246  0.2405
 5168TIP3   OH215509   3.552   0.272   2.810 -0.0368 -0.2109 -0.4627
 5168TIP3    H115510   3.638   0.314   2.821 -0.4285  0.1335  1.8356
 5168TIP3    H215511   3.568   0.179   2.826 -0.1447 -0.0759  0.5082
 5169TIP3   OH215512   1.637   1.553   4.412  0.3432 -0.7252 -0.1956
 5169TIP3    H115513   1.557   1.594   4.446  1.3362  0.5751  0.6576
 5169TIP3    H215514   1.697   1.626   4.399  1.6748 -1.7647 -0.0190
 5170TIP3   OH215515   4.969   4.828   4.077 -0.1157  0.2092 -0.1124
 5170TIP3    H115516   5.025   4.765   4.031 -1.3681 -0.7223 -0.4476
 5170TIP3    H215517   5.025   4.903   4.095  1.0860 -0.4819 -0.8681
 5171TIP3   OH215518   4.815   2.232   4.114  0.5042 -0.1962  0.1210
 5171TIP3    H115519   4.754   2.292   4.070 -0.1208 -2.2615 -2.0582
 5171TIP3    H215520   4.759   2.180   4.172  0.7510  0.0778  0.6112
 5172TIP3   OH215521   5.856   0.572   3.786 -0.1087  0.0356  0.4822
 5172TIP3    H115522   5.890   0.520   3.858 -0.6858 -0.4903  0.3814
 5172TIP3    H215523   5.761   0.565   3.793 -0.1750 -0.0428 -0.3422
 5173TIP3   OH215524   3.881   5.960   0.861  0.4064  0.3489 -0.2784
 5173TIP3    H115525   3.838   5.900   0.800 -1.9992  1.3089  0.3797
 5173TIP3    H215526   3.912   6.032   0.807  4.0519 -1.6342 -1.2141
 5174TIP3   OH215527   3.665   4.678   2.214  0.4287 -0.3967 -0.2965
 5174TIP3    H115528   3.640   4.682   2.122 -4.1225 -1.6623  0.6220
 5174TIP3    H215529   3.704   4.591   2.225  0.3719 -0.4965 -0.8989
 5175TIP3   OH215530   4.540   3.624   0.134 -0.2486  0.2740  0.5730
 5175TIP3    H115531   4.565   3.544   0.181  0.0142 -0.0797 -0.1605
 5175TIP3    H215532   4.465   3.659   0.183 -1.8199 -1.6150 -0.3594
 5176TIP3   OH215533   0.542   1.540   4.336  0.3738 -0.7045 -0.2564
 5176TIP3    H115534   0.459   1.531   4.289 -0.1015  0.4805  0.3447
 5176TIP3    H215535   0.601   1.582   4.273  0.2652 -0.7529 -0.3907
 5177TIP3   OH215536   5.762   5.460   1.322  0.5742 -0.1833 -0.2831
 5177TIP3    H115537   5.692   5.402   1.294  1.3145 -1.4422  0.3770
 5177TIP3    H215538   5.744   5.477   1.414  0.9560 -0.2406 -0.1976
 5178TIP3   OH215539   4.087   2.260   4.290 -0.0552 -0.1030  0.0497
 5178TIP3    H115540   4.155   2.209   4.245 -1.9531 -0.7845 -2.2917
 5178TIP3    H215541   4.073   2.336   4.233 -0.3973  0.6798  1.1502
 5179TIP3   OH215542   3.209   0.724   0.012  0.2191 -0.0584  0.4337
 5179TIP3    H115543   3.137   0.663   0.000 -0.2227  0.4293  0.5417
 5179TIP3    H215544   3.288   0.670   0.011  0.0346 -0.3917 -1.8741
 5180TIP3   OH215545  -0.002   4.734   3.529  0.2195  0.4687  0.3703
 5180TIP3    H115546   0.069   4.688   3.484  0.4616 -0.0100  1.2268
 5180TIP3    H215547   0.039   4.772   3.606 -0.5473 -0.1949  1.1196
 5181TIP3   OH215548   5.548   5.738   3.032  0.1559 -0.2882  0.0939
 5181TIP3    H115549   5.455   5.737   3.053 -0.0881  0.9769 -0.7804
 5181TIP3    H215550   5.573   5.646   3.024 -0.6025 -0.7066  2.0054
 5182TIP3   OH215551   1.680   5.940   1.972 -0.3060  0.6540  0.2179
 5182TIP3    H115552   1.721   5.912   2.054  0.4609  1.6405  0.1865
 5182TIP3    H215553   1.748   5.931   1.906 -0.2024  2.0208  0.1063
 5183TIP3   OH215554   3.396   0.960   1.577  0.3010  0.5612  0.2218
 5183TIP3    H115555   3.455   0.925   1.644 -0.0266  1.1989  0.8495
 5183TIP3    H215556   3.415   1.054   1.575  0.5008  0.5128 -0.7788
 5184TIP3   OH215557   4.203   1.141   4.319 -0.0068  0.6963 -0.1714
 5184TIP3    H115558   4.277   1.200   4.309  0.4205 -0.0004 -1.2307
 5184TIP3    H215559   4.241   1.060   4.355 -0.1408  0.1157 -1.3056
 5185TIP3   OH215560   6.343   4.009   2.684 -0.5281  0.1956  0.5218
 5185TIP3    H115561   6.291   3.990   2.763  0.1325 -2.7444  0.3608
 5185TIP3    H215562   6.312   3.945   2.620  2.4066 -0.8591  0.0368
 5186TIP3   OH215563   0.833   4.948   5.134 -0.5441 -0.4259 -0.3441
 5186TIP3    H115564   0.768   4.902   5.081 -1.5309  1.3895 -0.7913
 5186TIP3    H215565   0.841   5.034   5.093 -0.3902  0.5869  1.6822
 5187TIP3   OH215566   3.774   5.028   0.572  0.2560  0.1810 -0.0946
 5187TIP3    H115567   3.780   5.038   0.668  1.5167  1.2054 -0.2459
 5187TIP3    H215568   3.682   5.046   0.552  0.2517  1.2747  0.8056
 5188TIP3   OH215569   2.120   4.222   3.560  0.1747  0.1060 -0.0711
 5188TIP3    H115570   2.215   4.210   3.555  0.1882  0.5991 -1.4327
 5188TIP3    H215571   2.085   4.134   3.573  0.7764 -0.1947 -0.4548
 5189TIP3   OH215572   6.191   4.630   2.920  0.6608  0.2133  0.4741
 5189TIP3    H115573   6.242   4.603   2.996 -0.1522 -0.1576  0.8997
 5189TIP3    H215574   6.212   4.566   2.852 -0.2367 -0.7164  1.0609
 5190TIP3   OH215575   4.738   4.217   0.654 -0.2779 -0.1272 -0.1389
 5190TIP3    H115576   4.696   4.154   0.596  0.2099 -0.0859 -0.5415
 5190TIP3    H215577   4.670   4.240   0.717 -1.0880  0.4474 -1.1799
 5191TIP3   OH215578   4.565   4.946   0.272 -0.6697  0.1712 -0.5551
 5191TIP3    H115579   4.481   4.990   0.280  0.5046  2.2946  1.3087
 5191TIP3    H215580   4.619   5.006   0.221  0.4827  0.1489  0.6000
 5192TIP3   OH215581   2.153   4.319   4.887  0.0054  0.2928 -0.2979
 5192TIP3    H115582   2.087   4.366   4.836 -0.2499  1.4712  1.0433
 5192TIP3    H215583   2.236   4.350   4.853 -0.1354 -0.2206 -1.1288
 5193TIP3   OH215584   0.784   5.787   1.206 -0.0827  0.1325  0.0829
 5193TIP3    H115585   0.718   5.857   1.207 -0.3726 -0.1248 -0.4676
 5193TIP3    H215586   0.861   5.828   1.165 -0.0833  0.2672  0.2118
 5194TIP3   OH215587   5.728   1.650   0.372 -0.3466 -0.0394  0.1888
 5194TIP3    H115588   5.707   1.729   0.422 -0.6417  0.1512 -0.2282
 5194TIP3    H215589   5.671   1.655   0.296 -0.1792 -0.5273  0.0314
 5195TIP3   OH215590   4.404   3.870  -0.011 -0.3824 -0.4839  0.2789
 5195TIP3    H115591   4.357   3.788   0.006 -0.5571 -0.3228  0.5644
 5195TIP3    H215592   4.396   3.920   0.070 -1.1370  0.2508 -0.2324
 5196TIP3   OH215593   0.371   0.271   0.058 -0.5310  0.5253 -0.2047
 5196TIP3    H115594   0.463   0.289   0.036 -0.2070  0.7748  1.2877
 5196TIP3    H215595   0.337   0.356   0.084 -1.9205  0.9763 -3.0631
 5197TIP3   OH215596   4.849   1.540   0.512 -0.2199 -0.6309 -0.2914
 5197TIP3    H115597   4.910   1.473   0.545 -0.3041 -0.2119  0.7628
 5197TIP3    H215598   4.904   1.616   0.496 -0.3850 -0.4136  0.1670
 5198TIP3   OH215599   0.913   4.755   4.237  0.4315 -0.3485  0.1101
 5198TIP3    H115600   0.974   4.750   4.310  0.5296 -0.8300 -0.0014
 5198TIP3    H215601   0.830   4.783   4.276  0.6011 -0.1578  0.3333
 5199TIP3   OH215602   1.614   2.569   2.033 -0.6780 -0.1201 -0.1718
 5199TIP3    H115603   1.579   2.480   2.043 -1.9281  0.3829  0.2509
 5199TIP3    H215604   1.697   2.568   2.081 -0.6332 -1.0814 -0.2474
 5200TIP3   OH215605   5.366   2.943   3.093 -0.1400 -0.3268 -0.1504
 5200TIP3    H115606   5.345   2.966   3.003 -2.9739 -0.8742  0.2809
 5200TIP3    H215607   5.297   2.881   3.118  0.1395  0.3577  2.6086
 5201TIP3   OH215608   4.754   1.377   3.131 -0.2295 -0.2160  0.1181
 5201TIP3    H115609   4.676   1.433   3.131 -0.6133 -0.7287 -0.9220
 5201TIP3    H215610   4.827   1.439   3.130 -0.6254  0.2673  0.2930
 5202TIP3   OH215611   3.507   1.805   3.376  0.3270  0.0873  0.1435
 5202TIP3    H115612   3.563   1.764   3.311  1.1022  0.9044  0.2773
 5202TIP3    H215613   3.564   1.865   3.423 -0.3781  0.0142  1.1289
 5203TIP3   OH215614   0.960   3.847   1.489  0.7505 -0.3970 -0.2353
 5203TIP3    H115615   1.039   3.851   1.542  0.9287 -2.3262 -0.2604
 5203TIP3    H215616   0.975   3.773   1.430 -0.5791 -0.0391 -1.0671
 5204TIP3   OH215617   5.995   5.052   2.171 -0.2989 -0.5951  0.6715
 5204TIP3    H115618   6.057   5.069   2.100 -1.2321  1.5305  0.2646
 5204TIP3    H215619   6.032   5.097   2.247 -0.9003  0.0048  0.6276
 5205TIP3   OH215620   2.255   5.413   4.632  0.4992 -0.7120  0.0517
 5205TIP3    H115621   2.249   5.424   4.727  1.6129 -2.9569  0.4301
 5205TIP3    H215622   2.347   5.393   4.616  0.2544 -0.7033 -1.4738
 5206TIP3   OH215623   5.436   3.052   2.573 -0.3666 -0.2191 -0.3329
 5206TIP3    H115624   5.436   3.060   2.668 -0.0840 -0.5805 -0.3012
 5206TIP3    H215625   5.478   2.968   2.556  0.9938  0.5325 -0.8332
 5207TIP3   OH215626   0.838   2.651   3.604 -0.6706 -0.2840  0.1884
 5207TIP3    H115627   0.889   2.696   3.537 -0.7412  2.0540  1.5836
 5207TIP3    H215628   0.748   2.680   3.587 -0.8585 -0.6497  0.5651
 5208TIP3   OH215629   2.084   3.409   3.255 -0.0919 -0.6883 -0.3355
 5208TIP3    H115630   2.038   3.464   3.192  1.3265  0.7620 -0.1889
 5208TIP3    H215631   2.049   3.436   3.340 -0.2225 -0.8381 -0.3427
 5209TIP3   OH215632   6.353   5.107   1.366  0.1406 -0.0555 -0.4109
 5209TIP3    H115633   6.362   5.156   1.285 -0.1441 -0.1881 -0.5226
 5209TIP3    H215634   6.337   5.174   1.433  2.8498  0.3281 -0.0102
 5210TIP3   OH215635   2.148   5.167   3.416 -0.3111  0.1904 -0.1561
 5210TIP3    H115636   2.218   5.135   3.472  0.8565  1.3852 -0.8631
 5210TIP3    H215637   2.095   5.223   3.474 -0.0330  0.1629  0.1269
 5211TIP3   OH215638   3.366   5.825   0.417  0.0788 -0.3684 -0.0156
 5211TIP3    H115639   3.271   5.815   0.410 -0.1680  1.8110 -0.7242
 5211TIP3    H215640   3.401   5.745   0.378 -1.4586 -0.8640 -0.4845
 5212TIP3   OH215641   3.673   3.035   3.491  0.2674 -0.1314 -0.1108
 5212TIP3    H115642   3.655   2.946   3.459 -0.9121 -0.0513  0.2742
 5212TIP3    H215643   3.659   3.029   3.585 -0.3237  0.5779 -0.1488
 5213TIP3   OH215644   2.634   0.854   4.992  0.4897  0.5745 -0.0219
 5213TIP3    H115645   2.562   0.800   5.025  0.0103  0.5332 -1.0827
 5213TIP3    H215646   2.710   0.797   4.995  0.0189 -0.1345 -0.9795
 5214TIP3   OH215647   5.066   4.245   3.185 -0.5300 -0.2525 -0.5639
 5214TIP3    H115648   5.054   4.239   3.280 -2.7002  2.2819 -0.5765
 5214TIP3    H215649   5.120   4.169   3.164  2.9671  0.8890  3.1049
 5215TIP3   OH215650   1.165   1.691   0.239 -0.7782  0.2240 -0.2708
 5215TIP3    H115651   1.152   1.737   0.156 -0.7482 -0.1050 -0.4564
 5215TIP3    H215652   1.122   1.607   0.227 -2.1861  0.7786  0.6050
 5216TIP3   OH215653   3.299   5.335   4.502 -0.3307  0.2930  0.2114
 5216TIP3    H115654   3.249   5.406   4.543 -1.0327  0.8956 -1.5802
 5216TIP3    H215655   3.333   5.284   4.576 -1.4749  1.3342  1.5218
 5217TIP3   OH215656   2.202   2.485   4.986  0.0735  0.0085 -0.0101
 5217TIP3    H115657   2.252   2.405   4.972  0.8675  0.4700  0.1082
 5217TIP3    H215658   2.114   2.465   4.954  0.4324 -0.6970 -0.5729
 5218TIP3   OH215659   2.481   0.692   2.587  0.6617  0.1254 -0.7826
 5218TIP3    H115660   2.452   0.687   2.678  1.2038  0.5615 -0.5801
 5218TIP3    H215661   2.573   0.716   2.592  0.4797  1.0130 -1.4698
 5219TIP3   OH215662   3.203   1.659   0.586 -0.0635 -0.2262 -0.0737
 5219TIP3    H115663   3.228   1.734   0.533 -1.6078  0.1219 -0.3541
 5219TIP3    H215664   3.173   1.593   0.523 -0.1368 -0.5127  0.2550
 5220TIP3   OH215665   1.923   1.822   4.075 -0.4124  0.3591  0.4321
 5220TIP3    H115666   1.854   1.888   4.078 -0.0662  0.7426  0.0559
 5220TIP3    H215667   1.876   1.738   4.076 -0.9745  0.6028 -1.4654
 5221TIP3   OH215668   0.028   2.332   3.567  0.0396 -0.9042  0.0583
 5221TIP3    H115669   0.098   2.354   3.506  0.5605  0.1252  0.9871
 5221TIP3    H215670  -0.014   2.416   3.587  0.5038 -1.0461  1.8321
 5222TIP3   OH215671   3.524   3.742   4.924 -0.4292 -0.1933 -0.1657
 5222TIP3    H115672   3.555   3.657   4.955  1.0002  0.8968  1.6011
 5222TIP3    H215673   3.473   3.722   4.845  0.5250 -2.5901 -0.2559
 5223TIP3   OH215674   4.101   2.502   2.845 -0.1461 -0.0626 -0.4721
 5223TIP3    H115675   4.064   2.573   2.792 -2.0661 -0.6241  0.0076
 5223TIP3    H215676   4.120   2.542   2.929 -0.0742  0.1504 -0.5894
 5224TIP3   OH215677   0.650   5.529   1.692 -0.3383  0.1310 -0.6635
 5224TIP3    H115678   0.708   5.578   1.634  0.7100 -1.6089 -1.1482
 5224TIP3    H215679   0.677   5.553   1.780 -0.5145  1.1724 -0.8842
 5225TIP3   OH215680   0.550   1.931   0.237  0.1104  0.3940 -1.1750
 5225TIP3    H115681   0.471   1.878   0.251 -0.2390  1.3978  1.0595
 5225TIP3    H215682   0.620   1.881   0.278 -0.3179  1.7834  1.4676
 5226TIP3   OH215683   2.497   4.659   4.039 -0.2604  0.0543  0.4364
 5226TIP3    H115684   2.468   4.644   4.129 -0.6975 -2.5386 -0.0444
 5226TIP3    H215685   2.591   4.674   4.047 -0.5348  1.4272  1.4246
 5227TIP3   OH215686   2.758   5.825   4.086 -0.2703  0.3946 -0.3498
 5227TIP3    H115687   2.702   5.874   4.147  0.0349  0.2813  0.0256
 5227TIP3    H215688   2.698   5.767   4.039 -0.2383 -1.2598  1.5149
 5228TIP3   OH215689   1.651   2.738   4.571  0.2464  0.7690 -0.8369
 5228TIP3    H115690   1.694   2.824   4.567  1.2756  0.2942 -0.3202
 5228TIP3    H215691   1.664   2.701   4.484  0.1061  0.9910 -0.9542
 5229TIP3   OH215692   0.555   3.049   4.268  0.0539  0.3769 -0.0353
 5229TIP3    H115693   0.486   3.111   4.291  0.8913  0.6613  1.9567
 5229TIP3    H215694   0.570   3.000   4.349  1.1880 -0.6537 -0.8436
 5230TIP3   OH215695   0.833   5.352   0.418 -0.1098  0.5281  0.1700
 5230TIP3    H115696   0.918   5.393   0.404  0.3891  0.4869  2.6320
 5230TIP3    H215697   0.853   5.258   0.423 -0.5498  0.3764 -0.7701
 5231TIP3   OH215698   4.685   0.173   4.768  0.1660  0.1630 -0.4352
 5231TIP3    H115699   4.711   0.256   4.728  2.2257  1.3317  2.9454
 5231TIP3    H215700   4.628   0.198   4.841  0.7158 -1.3614  0.5803
 5232TIP3   OH215701   4.198   0.879   2.303  0.1218 -0.0661 -0.2649
 5232TIP3    H115702   4.171   0.826   2.378  0.8156  0.5003  0.3989
 5232TIP3    H215703   4.155   0.963   2.315  0.2707  0.0426 -0.4837
 5233TIP3   OH215704   1.337   0.379   1.082 -0.3169 -0.1585 -0.7478
 5233TIP3    H115705   1.329   0.284   1.077 -0.1410 -0.1745 -0.7584
 5233TIP3    H215706   1.248   0.410   1.096 -0.1188 -0.4908  1.7540
 5234TIP3   OH215707   3.439   2.793   2.574  0.4284 -0.7024  0.4719
 5234TIP3    H115708   3.454   2.714   2.627  0.4499 -0.3876  0.9387
 5234TIP3    H215709   3.350   2.783   2.542 -1.2023  0.9942  3.9213
 5235TIP3   OH215710   4.148   3.821   1.313  0.0742 -1.0806 -0.3585
 5235TIP3    H115711   4.233   3.804   1.352  0.5728  1.1596 -0.3176
 5235TIP3    H215712   4.092   3.844   1.387  0.2946  0.4901 -0.6467
 5236TIP3   OH215713   3.446   0.577   4.542  0.8996 -0.2846  0.1699
 5236TIP3    H115714   3.375   0.527   4.501  0.3600  0.7351 -0.1844
 5236TIP3    H215715   3.522   0.519   4.537  0.0615 -1.4702  0.7195
 5237TIP3   OH215716   0.604   5.135   4.296 -0.1527 -0.5387  0.1792
 5237TIP3    H115717   0.650   5.218   4.292 -0.4326 -0.3365  0.9411
 5237TIP3    H215718   0.537   5.148   4.363 -0.2020 -1.3762  0.3054
 5238TIP3   OH215719   3.874   0.947   1.223 -0.1169  1.1333 -0.0036
 5238TIP3    H115720   3.938   0.896   1.272  0.0942  1.0628 -0.3476
 5238TIP3    H215721   3.907   0.946   1.133 -0.1596  1.8034 -0.0266
 5239TIP3   OH215722   2.451   5.952   4.004  0.0247 -0.6308 -0.4809
 5239TIP3    H115723   2.364   5.993   4.007 -0.0946 -0.7163 -2.0473
 5239TIP3    H215724   2.485   5.962   4.093 -0.4526  1.8631 -0.5085
 5240TIP3   OH215725   1.173   4.611   2.968 -0.4632  0.1968  0.2455
 5240TIP3    H115726   1.250   4.644   2.922  0.5238 -0.3520  1.4487
 5240TIP3    H215727   1.186   4.516   2.970 -1.2657  0.0867  0.3205
 5241TIP3   OH215728   2.784   4.989   3.848  0.0524 -0.0100 -0.3313
 5241TIP3    H115729   2.692   5.011   3.840  0.0271  0.6178  1.2240
 5241TIP3    H215730   2.805   5.008   3.940  1.3331 -1.6393 -0.2365
 5242TIP3   OH215731   4.117   2.439   4.978 -0.2217 -0.0799 -0.3165
 5242TIP3    H115732   4.139   2.500   4.908 -0.1965 -0.2405 -0.4495
 5242TIP3    H215733   4.127   2.490   5.059  2.4181 -0.6067 -0.2145
 5243TIP3   OH215734   2.165   3.458   4.169 -0.0134 -0.1006 -0.0185
 5243TIP3    H115735   2.092   3.505   4.129  0.3403 -0.0817 -0.6551
 5243TIP3    H215736   2.132   3.369   4.181  0.0293 -0.2291 -0.7974
 5244TIP3   OH215737   5.288   5.933   4.173  0.0658 -0.3122 -0.8207
 5244TIP3    H115738   5.240   5.978   4.103  1.0186  0.6826 -0.8695
 5244TIP3    H215739   5.313   6.003   4.233  1.0646 -0.8558 -0.5802
 5245TIP3   OH215740   5.717   1.996   3.354  0.3027  0.1232 -0.3113
 5245TIP3    H115741   5.637   1.963   3.313  0.3820  1.8402 -2.0250
 5245TIP3    H215742   5.736   1.933   3.424 -0.9851 -1.8763 -1.6368
 5246TIP3   OH215743   3.958   5.259   3.660  0.6084  0.8459 -0.3475
 5246TIP3    H115744   3.868   5.228   3.652  0.8551 -0.0189  0.1091
 5246TIP3    H215745   3.975   5.256   3.754  0.6602  2.3513 -0.2833
 5247TIP3   OH215746   1.551   0.214   1.334 -0.2528  0.1532 -0.4561
 5247TIP3    H115747   1.506   0.198   1.251 -1.0151 -0.7857  0.1298
 5247TIP3    H215748   1.644   0.217   1.310 -0.4872  0.2703 -1.3948
 5248TIP3   OH215749   5.868   0.016   5.005  0.6543 -0.6066 -0.6102
 5248TIP3    H115750   5.859   0.019   5.100  0.7371 -3.4206 -0.4139
 5248TIP3    H215751   5.940   0.076   4.985 -0.8393  1.7846  0.7748
 5249TIP3   OH215752   1.302   2.290   3.499 -0.2515  0.0589  0.5414
 5249TIP3    H115753   1.374   2.247   3.545 -1.0777 -0.3306  1.4995
 5249TIP3    H215754   1.274   2.360   3.558 -0.5943  0.2750  0.1233
 5250TIP3   OH215755   2.334   2.237   3.230  0.1374 -0.3115  0.3645
 5250TIP3    H115756   2.251   2.251   3.274 -0.0858  2.6460 -0.7996
 5250TIP3    H215757   2.311   2.219   3.139  0.7266  1.6296 -0.2101
 5251TIP3   OH215758   5.160   4.373   2.912 -0.1101 -0.0336  0.6024
 5251TIP3    H115759   5.132   4.461   2.937 -0.5961 -0.2145  0.7116
 5251TIP3    H215760   5.144   4.320   2.991 -2.0805 -0.7040 -0.1738
 5252TIP3   OH215761   6.217   4.591   1.543  0.2379  0.0205 -0.0871
 5252TIP3    H115762   6.139   4.609   1.492 -0.0704  1.3013  0.7808
 5252TIP3    H215763   6.184   4.557   1.627  0.5522  1.1413  0.5149
 5253TIP3   OH215764   2.633   2.361   0.763 -0.4702 -0.3094  0.8004
 5253TIP3    H115765   2.670   2.377   0.849  1.3208 -0.8334  0.1670
 5253TIP3    H215766   2.668   2.431   0.708  4.1089 -3.5965 -1.0292
 5254TIP3   OH215767   1.346   2.962   2.924 -0.0853  0.6490 -0.3633
 5254TIP3    H115768   1.311   2.921   3.003  0.8163 -0.0943 -0.3382
 5254TIP3    H215769   1.274   3.017   2.892 -0.4731  0.9669  0.9646
 5255TIP3   OH215770   0.956   5.497   3.550 -0.3556 -0.1601 -0.7955
 5255TIP3    H115771   0.988   5.569   3.496 -1.9883  0.5889 -0.8369
 5255TIP3    H215772   0.913   5.438   3.488  0.1701 -0.7205 -0.6412
 5256TIP3   OH215773   1.122   4.563   0.667  0.5229 -0.1110 -0.1584
 5256TIP3    H115774   1.158   4.566   0.579  1.9555 -0.7211  0.3700
 5256TIP3    H215775   1.196   4.535   0.722 -0.3173  0.3162  1.2386
 5257TIP3   OH215776   3.678   1.994   0.682 -0.3451 -0.0360  0.1666
 5257TIP3    H115777   3.721   2.078   0.691 -1.1519  0.4278 -0.1425
 5257TIP3    H215778   3.720   1.937   0.747 -0.5752  0.9304  1.1871
 5258TIP3   OH215779   4.826   5.058   4.308  0.4397  0.6196  0.0460
 5258TIP3    H115780   4.781   5.010   4.239  0.1216  1.8684 -0.6548
 5258TIP3    H215781   4.796   5.018   4.390 -1.3995  0.9485 -0.4306
 5259TIP3   OH215782   5.775   3.832   1.960  0.3324 -0.0178  0.9626
 5259TIP3    H115783   5.827   3.780   1.900  1.1711 -1.1734  2.6062
 5259TIP3    H215784   5.728   3.894   1.904  1.8758 -0.3147 -0.7559
 5260TIP3   OH215785   2.763   4.907   5.090  0.4080  0.0343 -0.4751
 5260TIP3    H115786   2.788   4.995   5.119 -1.9459  0.1641  1.4520
 5260TIP3    H215787   2.791   4.849   5.161 -2.5285 -0.0718  0.7009
 5261TIP3   OH215788   6.083   0.195   0.694 -0.4969 -0.3262 -0.3732
 5261TIP3    H115789   5.992   0.224   0.687 -1.0530 -1.9931 -0.3988
 5261TIP3    H215790   6.124   0.224   0.612 -1.0204  0.3507 -0.4018
 5262TIP3   OH215791   0.512   1.445   1.626 -0.4803  0.4558  0.0479
 5262TIP3    H115792   0.586   1.400   1.666  0.0869  1.3037 -0.0285
 5262TIP3    H215793   0.436   1.413   1.674 -0.0732 -0.4376  0.1130
 5263TIP3   OH215794   5.507   4.354   5.089 -0.3958  0.0576 -0.3532
 5263TIP3    H115795   5.538   4.334   5.177 -0.9000  1.5440  0.1958
 5263TIP3    H215796   5.413   4.373   5.100 -0.1170  2.0111 -0.8632
 5264TIP3   OH215797   3.195   4.856   0.952 -0.1666 -0.5573  1.1612
 5264TIP3    H115798   3.220   4.768   0.982 -0.4392 -0.9487  0.2498
 5264TIP3    H215799   3.111   4.873   0.995 -0.3160 -0.9124  1.0116
 5265TIP3   OH215800   1.518   5.395   2.257 -0.4972 -0.0324 -0.3500
 5265TIP3    H115801   1.505   5.422   2.166 -1.6080  1.1756  0.1239
 5265TIP3    H215802   1.450   5.442   2.305 -0.8581 -1.7650  0.9208
 5266TIP3   OH215803   6.159   1.456   0.393 -0.6393  0.9351 -0.2574
 5266TIP3    H115804   6.214   1.477   0.318 -0.9973 -2.0532 -1.4909
 5266TIP3    H215805   6.196   1.375   0.428 -1.5040  1.3505  1.7865
 5267TIP3   OH215806   3.945   1.758   3.468 -0.3166 -0.0286  0.1387
 5267TIP3    H115807   3.938   1.799   3.554  1.4431  0.8151 -0.0801
 5267TIP3    H215808   3.863   1.711   3.457 -2.4649  3.2554  0.5087
 5268TIP3   OH215809   0.346   3.478   1.616 -0.7645 -0.2332 -0.7323
 5268TIP3    H115810   0.338   3.470   1.521 -0.6854 -1.1980 -0.6678
 5268TIP3    H215811   0.341   3.572   1.633  0.9581  0.0960 -1.8436
 5269TIP3   OH215812   2.422   1.138   4.646  0.6324 -0.3685  0.0402
 5269TIP3    H115813   2.471   1.060   4.674 -2.3528 -1.7623  1.9173
 5269TIP3    H215814   2.330   1.114   4.657 -0.4641  3.3602  0.5215
 5270TIP3   OH215815   4.422   0.535   0.539 -0.0407  0.0462 -0.0738
 5270TIP3    H115816   4.373   0.545   0.457 -0.7309  1.0704  0.4447
 5270TIP3    H215817   4.355   0.515   0.604  0.3702  0.3581  0.4480
 5271TIP3   OH215818   4.143   0.668   4.684 -0.8267 -0.3224  0.1832
 5271TIP3    H115819   4.214   0.708   4.633 -0.0902 -0.5273  1.0118
 5271TIP3    H215820   4.106   0.602   4.626 -0.5591  0.0249 -0.3879
 5272TIP3   OH215821   0.031   3.811   3.764 -0.1876  0.1453 -0.0624
 5272TIP3    H115822   0.076   3.727   3.765 -0.7792 -0.1899 -0.6700
 5272TIP3    H215823   0.046   3.845   3.676 -0.8365  0.1736 -0.1725
 5273TIP3   OH215824   3.279   5.603   4.764 -0.2718  0.0463  0.2323
 5273TIP3    H115825   3.293   5.553   4.844 -1.7107  0.0502  0.5006
 5273TIP3    H215826   3.209   5.665   4.785  1.0007  1.7511 -0.2978
 5274TIP3   OH215827   0.918   1.482   0.845  0.1110 -0.6772 -0.4120
 5274TIP3    H115828   0.951   1.555   0.897  0.5673 -1.1289 -0.0586
 5274TIP3    H215829   0.833   1.461   0.885  1.7120 -2.9299  2.1237
 5275TIP3   OH215830   0.576   0.311   3.209  0.2659  0.3297 -0.5132
 5275TIP3    H115831   0.534   0.384   3.255 -0.3748  0.0908 -0.7142
 5275TIP3    H215832   0.523   0.234   3.232  0.8347 -0.0529 -0.4366
 5276TIP3   OH215833   6.151   5.252   3.978 -0.0768  0.3886 -0.1182
 5276TIP3    H115834   6.229   5.303   3.997 -1.3212  2.3414  0.0297
 5276TIP3    H215835   6.081   5.316   3.971 -1.7002 -1.2883 -0.2146
 5277TIP3   OH215836   1.307   0.969   3.782  0.0228  0.5691  0.1589
 5277TIP3    H115837   1.217   0.993   3.760 -0.0246  0.3567  0.1258
 5277TIP3    H215838   1.299   0.895   3.841  0.1672  0.7777  0.4454
 5278TIP3   OH215839   1.191   4.888   3.715 -0.1761  0.0918  0.1824
 5278TIP3    H115840   1.118   4.929   3.763 -0.2308  1.6183 -1.1073
 5278TIP3    H215841   1.159   4.801   3.693 -1.0210  0.1828  0.9558
 5279TIP3   OH215842   6.080   5.165   1.465 -0.1660 -0.0793  0.3245
 5279TIP3    H115843   6.032   5.136   1.388 -0.5232 -1.7523  1.1349
 5279TIP3    H215844   6.091   5.086   1.518 -0.3031  1.0874  2.1919
 5280TIP3   OH215845   2.655   1.445   1.060  0.5126  0.6809 -0.0987
 5280TIP3    H115846   2.614   1.476   1.140 -1.9228  1.1720 -1.4587
 5280TIP3    H215847   2.655   1.521   1.002 -1.7527 -0.6523 -2.0195
 5281TIP3   OH215848   3.003   0.489   1.974  0.3631  0.0517  0.1054
 5281TIP3    H115849   2.956   0.410   1.948  2.4803 -0.6938 -1.8815
 5281TIP3    H215850   2.992   0.549   1.900 -2.8271  2.5565  2.3554
 5282TIP3   OH215851   1.111   1.223   2.832  0.0812  0.0833 -0.1224
 5282TIP3    H115852   1.151   1.203   2.747  0.0459 -0.7376  0.0443
 5282TIP3    H215853   1.078   1.312   2.822  0.2380  0.0650 -0.9118
 5283TIP3   OH215854   4.837   3.351   4.875 -0.3087  0.0676 -0.3494
 5283TIP3    H115855   4.907   3.300   4.835  0.1776  0.7446 -0.3910
 5283TIP3    H215856   4.820   3.307   4.959 -1.8451 -1.7964 -1.5582
 5284TIP3   OH215857   1.415   3.743   3.686 -0.1786 -0.5846  0.7665
 5284TIP3    H115858   1.465   3.723   3.765  0.0247  1.1652  1.1165
 5284TIP3    H215859   1.456   3.688   3.618  0.8789 -0.7069  1.4772
 5285TIP3   OH215860   5.610   5.785   1.693 -0.2621 -0.0197  0.1842
 5285TIP3    H115861   5.586   5.735   1.772 -2.3891  0.1166 -0.3118
 5285TIP3    H215862   5.655   5.722   1.638  0.6178 -0.3123  1.1959
 5286TIP3   OH215863   1.658   3.412   2.187 -0.1744 -0.3571  0.2391
 5286TIP3    H115864   1.631   3.444   2.101 -1.4507  1.4590  1.2516
 5286TIP3    H215865   1.634   3.483   2.247  1.4550 -1.2250  1.9923
 5287TIP3   OH215866   2.365   3.127   0.373  0.4091 -0.1236  0.1995
 5287TIP3    H115867   2.416   3.052   0.341 -1.6800 -1.9824  0.9150
 5287TIP3    H215868   2.387   3.133   0.466 -2.2296 -2.5723  1.1798
 5288TIP3   OH215869   4.405   4.910   2.172 -0.4652 -0.0669  0.5781
 5288TIP3    H115870   4.478   4.953   2.215 -0.1048 -0.4098  0.3114
 5288TIP3    H215871   4.435   4.820   2.156 -0.2638  0.2631 -1.1494
 5289TIP3   OH215872   0.543   3.558   3.067  0.1044 -0.2933 -0.0818
 5289TIP3    H115873   0.604   3.524   3.132 -0.6152 -0.0647  0.7216
 5289TIP3    H215874   0.488   3.619   3.115 -0.0527  0.3390 -1.0341
 5290TIP3   OH215875   1.912   5.245   0.476  0.0486 -0.1758  0.2697
 5290TIP3    H115876   1.942   5.251   0.566 -1.0986  3.6047  0.5513
 5290TIP3    H215877   1.989   5.216   0.427  0.8164 -1.8748  2.2985
 5291TIP3   OH215878   5.751   2.589   3.865 -0.5294  0.4527  0.2292
 5291TIP3    H115879   5.696   2.511   3.876  1.2530 -0.6901  1.7837
 5291TIP3    H215880   5.716   2.652   3.927  0.4125 -0.6303  1.9605
 5292TIP3   OH215881   3.390   4.480   4.526  0.7002 -0.0403 -0.7152
 5292TIP3    H115882   3.433   4.465   4.610 -2.7132 -0.9178  1.0269
 5292TIP3    H215883   3.359   4.570   4.530  0.9192  0.0674 -1.2761
 5293TIP3   OH215884   0.391   0.900   2.218  0.3867 -0.3315  0.1529
 5293TIP3    H115885   0.448   0.828   2.193  1.2353  0.4922 -0.3706
 5293TIP3    H215886   0.441   0.949   2.284  0.5121  0.6670 -0.6546
 5294TIP3   OH215887   4.716   2.450   0.481 -0.2638 -0.2893 -0.0782
 5294TIP3    H115888   4.697   2.356   0.477  1.8295 -0.9041  1.9660
 5294TIP3    H215889   4.794   2.456   0.536  0.7111  2.5491 -1.5759
 5295TIP3   OH215890   0.115   5.370   3.850  0.1225  0.4653 -0.0110
 5295TIP3    H115891   0.125   5.293   3.905 -2.3701  1.4001  1.8915
 5295TIP3    H215892   0.193   5.423   3.869 -0.2191  0.3329  1.9397
 5296TIP3   OH215893   5.775   2.598   2.296  0.5965 -0.0948  0.2982
 5296TIP3    H115894   5.821   2.617   2.214 -1.6764  3.1669 -0.4250
 5296TIP3    H215895   5.691   2.564   2.269  0.1479  0.1698  1.3026
 5297TIP3   OH215896   5.189   2.813   1.956 -0.0838  0.2960  0.3171
 5297TIP3    H115897   5.144   2.782   2.035  0.0304  0.1133  0.3109
 5297TIP3    H215898   5.143   2.894   1.932  0.9054  1.2478  1.5065
 5298TIP3   OH215899   0.711   3.133   1.789 -0.3302  0.0820 -0.0361
 5298TIP3    H115900   0.705   3.037   1.785 -2.6094  0.1851 -0.5017
 5298TIP3    H215901   0.670   3.163   1.708 -0.1883  1.4703  0.3811
 5299TIP3   OH215902   4.299   4.093   1.379  0.0861  0.1928  0.1362
 5299TIP3    H115903   4.242   4.071   1.453 -0.8806 -0.4421 -0.7569
 5299TIP3    H215904   4.349   4.169   1.408 -0.3303  0.0004  1.4067
 5300TIP3   OH215905   4.166   1.887   4.262 -0.5096  0.0308  0.0902
 5300TIP3    H115906   4.159   1.798   4.297 -1.0835 -0.6842 -1.7632
 5300TIP3    H215907   4.116   1.940   4.324 -0.3696 -0.9590  1.0932
 5301TIP3   OH215908   5.039   3.238   4.430 -0.5243 -0.1788 -0.3279
 5301TIP3    H115909   5.102   3.166   4.419  0.7079  0.9478 -1.0366
 5301TIP3    H215910   4.972   3.221   4.364 -0.9831 -1.3957  0.4227
 5302TIP3   OH215911   4.271   2.994   1.669 -0.0303  0.0658  0.0924
 5302TIP3    H115912   4.315   2.922   1.714  2.6633  0.1227 -2.1828
 5302TIP3    H215913   4.318   3.073   1.697  1.8328  0.0871 -2.6982
 5303TIP3   OH215914   0.736   0.818   4.205  0.3937  0.0717 -0.7303
 5303TIP3    H115915   0.788   0.897   4.190 -0.4621  0.8342  0.1884
 5303TIP3    H215916   0.773   0.779   4.284 -0.9343  1.0951  0.4446
 5304TIP3   OH215917   3.510   0.731   0.150  0.6379  0.2781  0.7899
 5304TIP3    H115918   3.430   0.782   0.166  0.3174 -0.6865  2.5216
 5304TIP3    H215919   3.479   0.640   0.145  1.6594 -0.1541  1.9286
 5305TIP3   OH215920   1.081   2.960   0.878  0.5394 -0.4705  0.0743
 5305TIP3    H115921   1.145   2.942   0.809  0.1877 -1.4251 -0.0190
 5305TIP3    H215922   1.042   3.044   0.853 -0.3334 -1.2979 -1.4784
 5306TIP3   OH215923   1.195   1.299   2.491  0.2831  0.1289 -0.3587
 5306TIP3    H115924   1.269   1.251   2.453  0.2345 -0.0911 -0.1818
 5306TIP3    H215925   1.139   1.320   2.416  0.1519 -0.3648 -0.4027
 5307TIP3   OH215926   2.963   3.766   3.907  0.5107  0.3398  0.3466
 5307TIP3    H115927   2.977   3.752   3.813 -0.9619  0.5175  0.0818
 5307TIP3    H215928   2.878   3.809   3.912  0.2738 -0.2722  1.8134
 5308TIP3   OH215929   3.409   0.900   2.853  0.0489 -0.1112  0.0592
 5308TIP3    H115930   3.348   0.837   2.891 -0.3102  0.5912  0.6815
 5308TIP3    H215931   3.433   0.863   2.768 -1.6062 -0.1846 -0.3990
 5309TIP3   OH215932   6.026   2.373   1.212 -0.5062  0.4884  0.0165
 5309TIP3    H115933   6.041   2.366   1.118 -0.1274 -2.9741  0.2056
 5309TIP3    H215934   5.931   2.376   1.221 -0.5463  0.7897 -0.4689
 5310TIP3   OH215935   2.353   0.378   1.823 -0.0565  0.1704 -0.0101
 5310TIP3    H115936   2.267   0.376   1.781 -0.4043 -1.4778  0.7267
 5310TIP3    H215937   2.358   0.464   1.864 -1.2179  0.4010 -0.3364
 5311TIP3   OH215938   1.475   4.566   3.697  0.2567  0.2651  0.0203
 5311TIP3    H115939   1.553   4.520   3.729  0.0504 -1.0662 -1.2740
 5311TIP3    H215940   1.410   4.555   3.766 -0.1847 -2.5301 -0.7384
 5312TIP3   OH215941   4.414   2.386   3.208  0.5697 -0.1733 -0.3399
 5312TIP3    H115942   4.453   2.469   3.180 -0.7530 -0.1425 -2.2535
 5312TIP3    H215943   4.327   2.410   3.240  0.7985 -0.6528  0.6980
 5313TIP3   OH215944   3.102   0.511   1.628  0.2684 -0.1989 -0.0678
 5313TIP3    H115945   3.117   0.424   1.663 -0.6168 -0.2560  0.2042
 5313TIP3    H215946   3.016   0.506   1.586  0.8641  0.1409 -1.3815
 5314TIP3   OH215947   1.424   4.041   2.375  0.3594  0.6232  0.0963
 5314TIP3    H115948   1.511   4.059   2.339  0.3736 -1.0988 -0.8731
 5314TIP3    H215949   1.365   4.055   2.301  0.2949 -2.1593 -0.4950
 5315TIP3   OH215950   3.020   3.977   2.668 -0.6872 -0.2663 -0.5403
 5315TIP3    H115951   3.107   3.938   2.684 -1.4297 -1.0147  2.1660
 5315TIP3    H215952   3.030   4.024   2.585  2.5956  0.5065  0.1451
 5316TIP3   OH215953   3.795   0.611   3.718  0.3840  0.2226  0.7369
 5316TIP3    H115954   3.731   0.635   3.786 -1.0704  0.2246 -0.5686
 5316TIP3    H215955   3.801   0.689   3.663 -0.9837 -0.7943 -0.9843
 5317TIP3   OH215956   0.956   1.068   1.389 -0.4091 -0.1711 -0.1210
 5317TIP3    H115957   1.026   1.074   1.324 -1.0826  1.3737 -0.7339
 5317TIP3    H215958   0.999   1.030   1.466  0.3673 -2.1870 -1.4559
 5318TIP3   OH215959   4.720   5.720   0.181  0.3447  0.4002  0.2951
 5318TIP3    H115960   4.719   5.812   0.156  1.0957  0.5414  0.7609
 5318TIP3    H215961   4.730   5.673   0.097  1.7873  0.8286  0.1904
 5319TIP3   OH215962   5.670   3.239   1.555 -0.1041  0.1701 -0.0224
 5319TIP3    H115963   5.724   3.226   1.478 -0.9462 -1.1061 -0.4485
 5319TIP3    H215964   5.710   3.182   1.622 -2.4446 -3.1721 -1.1904
 5320TIP3   OH215965   0.451   5.213   0.746  0.4785  0.5039 -0.8658
 5320TIP3    H115966   0.428   5.135   0.796 -1.5708  1.5302 -0.0763
 5320TIP3    H215967   0.542   5.231   0.769 -0.0137  0.1979  1.5165
 5321TIP3   OH215968   2.891   0.177   4.000 -0.1588  0.1003 -0.3723
 5321TIP3    H115969   2.804   0.211   4.022  0.0060  1.2476 -1.3748
 5321TIP3    H215970   2.875   0.090   3.964 -1.0007  0.6854 -1.4464
 5322TIP3   OH215971   4.927   3.213   1.513  0.0233  0.1549  0.0931
 5322TIP3    H115972   4.918   3.151   1.440 -2.9241  0.2481  0.2460
 5322TIP3    H215973   4.917   3.299   1.472  0.6302  0.3388  0.3275
 5323TIP3   OH215974   0.899   5.062   4.316 -0.0919  0.3703 -0.0254
 5323TIP3    H115975   0.806   5.087   4.317 -0.3004 -0.3342 -0.4949
 5323TIP3    H215976   0.928   5.082   4.227  0.1489  0.3942  0.0583
 5324TIP3   OH215977   5.252   0.570   1.534 -0.2120 -0.1711 -0.2724
 5324TIP3    H115978   5.262   0.665   1.537  1.0887 -0.2905  2.4612
 5324TIP3    H215979   5.207   0.548   1.616  0.5020 -1.9813 -0.3062
 5325TIP3   OH215980   0.004   3.927   4.872 -0.8169  0.7800 -0.4950
 5325TIP3    H115981   0.016   3.876   4.951 -2.0641  0.7081 -0.3257
 5325TIP3    H215982   0.015   3.864   4.800  0.6359  0.9140 -0.4061
 5326TIP3   OH215983   6.315   3.810   1.901 -0.3226  0.1134 -0.4330
 5326TIP3    H115984   6.251   3.779   1.964  0.7456 -1.2640  0.0376
 5326TIP3    H215985   6.387   3.844   1.954  0.0609  0.0631 -0.9112
 5327TIP3   OH215986   4.624   2.534   0.194  0.1947  0.1833 -0.5394
 5327TIP3    H115987   4.685   2.504   0.262 -0.0870  1.6218  0.3954
 5327TIP3    H215988   4.679   2.573   0.127  0.3435  0.8802 -0.0126
 5328TIP3   OH215989   0.560   2.090   1.608  0.0561 -0.5642 -0.3871
 5328TIP3    H115990   0.646   2.114   1.643 -0.5747 -0.8455  1.5070
 5328TIP3    H215991   0.552   1.996   1.627 -1.2981 -0.2171  1.0494
 5329TIP3   OH215992   3.296   1.372   2.322 -0.5709  0.0556  0.0511
 5329TIP3    H115993   3.327   1.450   2.275 -0.7060  1.0098  1.4827
 5329TIP3    H215994   3.352   1.302   2.291  0.0968  0.8789 -0.6736
 5330TIP3   OH215995   5.614   1.866   0.507 -1.2739 -0.3204  0.2656
 5330TIP3    H115996   5.528   1.826   0.516 -1.9602  1.0138 -0.0884
 5330TIP3    H215997   5.602   1.956   0.539  0.0286 -0.1546  0.3616
 5331TIP3   OH215998   0.254   0.666   2.712 -0.0211 -0.2830  0.6283
 5331TIP3    H115999   0.261   0.755   2.677 -0.8419  0.2330  1.7142
 5331TIP3    H216000   0.287   0.672   2.802 -0.7211 -0.9162  0.9409
 5332TIP3   OH216001   5.997   2.536   2.459 -0.3241  0.2747  0.0357
 5332TIP3    H116002   5.991   2.448   2.496  2.1436 -0.5482 -1.3065
 5332TIP3    H216003   5.924   2.541   2.396 -0.6487 -0.7011  0.3199
 5333TIP3   OH216004   5.624   1.706   3.770 -0.1883 -0.7104 -0.2636
 5333TIP3    H116005   5.547   1.758   3.750 -0.0747 -0.8669 -1.1348
 5333TIP3    H216006   5.589   1.621   3.797 -0.3688 -0.2344  1.0605
 5334TIP3   OH216007   3.662   3.260   0.561 -0.1487 -0.0107  0.0539
 5334TIP3    H116008   3.740   3.233   0.513 -0.0628  0.2830  0.0250
 5334TIP3    H216009   3.695   3.313   0.634 -0.2800 -0.4329  0.4273
 5335TIP3   OH216010   1.787   2.000   3.414  0.4372 -0.0085 -0.6186
 5335TIP3    H116011   1.824   1.985   3.501  0.0955  1.0808 -0.2654
 5335TIP3    H216012   1.737   1.921   3.395  1.2651 -0.6396 -0.2262
 5336TIP3   OH216013   3.334   1.401   3.106 -0.2404 -0.9257  0.3107
 5336TIP3    H116014   3.425   1.402   3.134 -0.2423 -0.5315  0.3108
 5336TIP3    H216015   3.333   1.345   3.028  0.6077  1.6793 -1.7102
 5337TIP3   OH216016   4.715   4.213   4.312 -0.2683  0.4889  0.7804
 5337TIP3    H116017   4.703   4.201   4.218  0.0390  1.3478  0.6179
 5337TIP3    H216018   4.694   4.128   4.350  1.2180 -0.3602 -0.2043
 5338TIP3   OH216019   0.351   1.611   3.852  0.0257  0.1815 -0.0215
 5338TIP3    H116020   0.409   1.593   3.778  0.2666  0.0095  0.2097
 5338TIP3    H216021   0.371   1.702   3.875  0.2635  0.0949  0.1132
 5339TIP3   OH216022   2.639   3.176   3.590 -0.0935 -0.9998  0.5283
 5339TIP3    H116023   2.685   3.244   3.542 -1.9999  0.4650  0.6735
 5339TIP3    H216024   2.705   3.139   3.649  1.3664 -0.3774 -0.6590
 5340TIP3   OH216025   0.223   4.272   2.886 -0.1064 -0.1762 -0.2938
 5340TIP3    H116026   0.150   4.316   2.931 -0.9500 -1.4209 -0.4131
 5340TIP3    H216027   0.196   4.267   2.795  0.5602  0.2043 -0.5213
 5341TIP3   OH216028   3.927   1.481   1.338  0.2088  0.0314  0.2080
 5341TIP3    H116029   3.948   1.532   1.259  0.6204 -0.5742 -0.0836
 5341TIP3    H216030   3.851   1.430   1.314  0.9053 -0.8719 -0.1328
 5342TIP3   OH216031   5.632   4.183   2.002  0.0752 -0.0174  0.2593
 5342TIP3    H116032   5.563   4.119   1.987 -1.1439  1.1686  0.5478
 5342TIP3    H216033   5.678   4.189   1.919  0.4679 -1.5241  0.3430
 5343TIP3   OH216034   3.083   0.236   3.566  0.6802  0.1520  0.3880
 5343TIP3    H116035   3.027   0.162   3.587  0.7159 -0.3707 -1.2644
 5343TIP3    H216036   3.037   0.312   3.602  0.8152 -0.6605  2.4060
 5344TIP3   OH216037   1.921   4.589   4.432  0.1161  0.2026  0.2367
 5344TIP3    H116038   1.896   4.643   4.357  1.2129  0.1715 -0.1705
 5344TIP3    H216039   1.929   4.651   4.504 -3.0358 -0.0287  0.9215
 5345TIP3   OH216040   5.785   3.063   4.110 -0.6049 -0.3133 -0.3901
 5345TIP3    H116041   5.732   3.099   4.039  0.7325  0.3361 -1.0891
 5345TIP3    H216042   5.873   3.057   4.074 -0.0836 -0.8759  0.9104
 5346TIP3   OH216043   2.533   2.060   0.280  0.4221 -0.1869  0.0838
 5346TIP3    H116044   2.623   2.056   0.249  0.2507 -0.8764 -0.3413
 5346TIP3    H216045   2.536   2.122   0.353  0.9317  1.0864 -0.9642
 5347TIP3   OH216046   4.675   1.690   3.342 -0.0974 -0.7011  0.3257
 5347TIP3    H116047   4.745   1.677   3.406  1.6358  0.6822 -1.1978
 5347TIP3    H216048   4.627   1.766   3.375  0.1483 -0.6175  0.4912
 5348TIP3   OH216049   3.222   2.619   1.876 -0.2728 -0.0376 -0.0634
 5348TIP3    H116050   3.211   2.586   1.965 -1.9196 -0.9673 -0.5727
 5348TIP3    H216051   3.190   2.549   1.820  0.4582  0.6498 -1.3864
 5349TIP3   OH216052   3.579   3.486   2.490 -0.0289 -0.2321  0.4256
 5349TIP3    H116053   3.593   3.524   2.577  0.5609  0.2155  0.1415
 5349TIP3    H216054   3.631   3.541   2.431  2.2666 -2.4464  0.2004
 5350TIP3   OH216055   2.940   2.856   0.536 -0.3990  0.4136 -0.2006
 5350TIP3    H116056   2.974   2.799   0.604  0.5911  1.5630  0.3066
 5350TIP3    H216057   3.013   2.913   0.512 -0.2900 -0.8426 -3.2615
 5351TIP3   OH216058   6.166   2.596   0.087  0.3210  0.2609  0.0971
 5351TIP3    H116059   6.071   2.591   0.099  0.2087 -2.0677 -1.0942
 5351TIP3    H216060   6.202   2.561   0.168  0.0843 -0.4817 -0.1091
 5352TIP3   OH216061   0.928   1.950   2.439 -0.0278  0.2379 -0.3150
 5352TIP3    H116062   0.842   1.993   2.440  0.0056  0.3823  1.8559
 5352TIP3    H216063   0.938   1.916   2.528  1.6510 -0.8595 -0.8874
 5353TIP3   OH216064   1.345   1.451   1.480  0.3534  0.0274  0.2133
 5353TIP3    H116065   1.366   1.408   1.397 -2.2089  0.9846 -1.0560
 5353TIP3    H216066   1.403   1.527   1.482 -0.6415  0.9169 -1.6143
 5354TIP3   OH216067   1.818   0.132   2.133  0.1795  0.4214  0.1219
 5354TIP3    H116068   1.780   0.056   2.178  0.6417  0.9035  1.3649
 5354TIP3    H216069   1.903   0.145   2.175  0.9225  0.5196 -1.3334
 5355TIP3   OH216070   2.754   3.401   1.384 -0.1812  0.6663  0.7082
 5355TIP3    H116071   2.698   3.380   1.310  0.7460 -0.1911  0.2286
 5355TIP3    H216072   2.745   3.326   1.443  1.4316 -0.1162  0.0207
 5356TIP3   OH216073   2.596   3.830   0.351 -0.6356  0.1138  0.0789
 5356TIP3    H116074   2.670   3.860   0.404  0.6179  0.8928 -1.9618
 5356TIP3    H216075   2.631   3.757   0.300 -1.9406 -0.9386  0.6283
 5357TIP3   OH216076   2.785   2.410   1.651 -0.2364  0.4099  0.7854
 5357TIP3    H116077   2.873   2.438   1.626 -0.6687  0.7952 -0.3846
 5357TIP3    H216078   2.796   2.321   1.682  0.2947 -0.3704 -1.4346
 5358TIP3   OH216079   6.296   1.272   3.942  0.3580 -0.5112 -0.3628
 5358TIP3    H116080   6.338   1.249   3.859 -0.5878  1.6380 -1.5312
 5358TIP3    H216081   6.350   1.343   3.977 -0.2940 -0.1153 -0.1345
 5359TIP3   OH216082   5.518   5.877   1.999 -0.3043  0.8394 -0.0656
 5359TIP3    H116083   5.439   5.920   1.966 -1.3873 -1.5849 -0.8648
 5359TIP3    H216084   5.507   5.877   2.094 -0.7827  1.3902 -0.1117
 5360TIP3   OH216085   2.597   4.948   1.262 -0.3942 -0.0319  0.2837
 5360TIP3    H116086   2.527   4.919   1.321 -0.6708  1.8934  0.9667
 5360TIP3    H216087   2.658   4.874   1.258 -1.3642 -0.9251  1.4037
 5361TIP3   OH216088   2.597   5.736   1.884 -0.6018 -0.0489  0.1981
 5361TIP3    H116089   2.529   5.802   1.872 -0.6332 -0.0873  0.1648
 5361TIP3    H216090   2.593   5.682   1.805  0.8926  1.2221 -0.7995
 5362TIP3   OH216091   6.123   2.933   0.891  0.3365  0.0887  0.0291
 5362TIP3    H116092   6.064   3.008   0.896 -0.6390 -0.7053  0.8280
 5362TIP3    H216093   6.115   2.890   0.976  1.7028 -0.3282 -0.0314
 5363TIP3   OH216094   2.843   2.585   3.802 -0.2864 -0.6081 -0.1317
 5363TIP3    H116095   2.765   2.550   3.759  0.4492 -1.1120 -1.1109
 5363TIP3    H216096   2.911   2.521   3.782  0.1154 -0.8607  1.7893
 5364TIP3   OH216097   2.742   2.232   1.345  0.4229  1.0261  0.3108
 5364TIP3    H116098   2.730   2.195   1.432 -0.9078  0.9789  0.1268
 5364TIP3    H216099   2.720   2.325   1.356 -1.8528  0.6395 -0.3535
 5365TIP3   OH216100   3.422   4.339   4.830  0.3145  0.3440 -0.4093
 5365TIP3    H116101   3.436   4.247   4.809 -1.0271  0.0711 -0.1983
 5365TIP3    H216102   3.509   4.378   4.826  1.0341 -1.0999  0.3282
 5366TIP3   OH216103   1.827   0.135   1.858 -0.1548 -0.0673  0.4300
 5366TIP3    H116104   1.886   0.211   1.852 -1.9362  1.5698  2.2548
 5366TIP3    H216105   1.819   0.120   1.952 -3.2254  0.2866  0.2976
 5367TIP3   OH216106   4.141   3.565   2.340  0.0774  0.1769  0.1857
 5367TIP3    H116107   4.141   3.471   2.323 -0.7017  0.3074 -0.5680
 5367TIP3    H216108   4.232   3.585   2.360 -0.0394 -1.0662  2.2480
 5368TIP3   OH216109   4.359   0.398   4.002  0.5486 -0.4675  0.2358
 5368TIP3    H116110   4.313   0.445   3.932  0.9580 -2.1277 -1.2099
 5368TIP3    H216111   4.392   0.467   4.060  1.0839  1.0235 -1.7517
 5369TIP3   OH216112   5.220   1.627   4.783  0.1228  0.6791  0.0252
 5369TIP3    H116113   5.251   1.542   4.749 -0.6151  0.3264  0.2275
 5369TIP3    H216114   5.295   1.685   4.771 -0.0820  0.5777 -2.2018
 5370TIP3   OH216115   6.006   0.111   0.363  0.1177  0.4562  0.3119
 5370TIP3    H116116   5.955   0.043   0.320 -1.0668 -0.1823  2.5461
 5370TIP3    H216117   6.096   0.096   0.334 -0.3999 -0.8299 -0.7342
 5371TIP3   OH216118   2.137   0.199   3.799  0.3113 -0.1848  0.5226
 5371TIP3    H116119   2.170   0.130   3.856  0.2841  0.3603  1.2156
 5371TIP3    H216120   2.208   0.263   3.794  0.4255 -0.3597 -0.3013
 5372TIP3   OH216121   3.243   2.041   1.218 -0.2148  0.1596  0.0771
 5372TIP3    H116122   3.192   1.968   1.183 -0.4724  1.3977 -2.3275
 5372TIP3    H216123   3.322   2.044   1.165  0.7947  0.3904  1.5161
 5373TIP3   OH216124   5.641   5.758   1.246 -0.1498 -0.0544 -0.0842
 5373TIP3    H116125   5.653   5.663   1.242  0.2833 -0.0280  0.4501
 5373TIP3    H216126   5.691   5.791   1.171 -0.6631 -0.2712 -0.5316
 5374TIP3   OH216127   5.071   2.046   1.075 -1.2221  0.1555 -0.6230
 5374TIP3    H116128   5.056   1.965   1.027  1.4658 -0.2820 -0.9149
 5374TIP3    H216129   5.011   2.041   1.149  0.7755 -3.6465  1.0639
 5375TIP3   OH216130   4.607   0.726   0.391  0.6238 -0.2598 -0.4861
 5375TIP3    H116131   4.691   0.690   0.419  1.0389  0.2675 -1.0136
 5375TIP3    H216132   4.542   0.682   0.445  1.2283 -0.8074 -0.1986
 5376TIP3   OH216133   1.113   4.202   1.397 -0.1689 -0.2183 -0.0498
 5376TIP3    H116134   1.032   4.173   1.439  0.6525 -1.6733  0.6298
 5376TIP3    H216135   1.085   4.236   1.312 -1.7094  1.3896  1.0173
 5377TIP3   OH216136   4.411   2.386   0.347  0.3070  0.0337  0.7359
 5377TIP3    H116137   4.476   2.445   0.309 -1.0394  0.0154 -1.7462
 5377TIP3    H216138   4.339   2.443   0.374 -1.0131 -0.3705 -1.7032
 5378TIP3   OH216139   4.947   2.903   2.494  0.0684 -0.1091  0.0315
 5378TIP3    H116140   4.965   2.899   2.588 -0.6121  1.1716  0.2313
 5378TIP3    H216141   5.008   2.968   2.460  1.5134 -1.7885 -0.7551
 5379TIP3   OH216142   0.674   2.959   3.270  0.7283  0.0354  0.3148
 5379TIP3    H116143   0.670   3.048   3.234  0.2417 -0.1685 -0.1388
 5379TIP3    H216144   0.634   2.904   3.203  3.8453 -1.0235 -0.8620
 5380TIP3   OH216145   5.254   1.080   2.882 -0.2228 -0.1458  0.0615
 5380TIP3    H116146   5.180   1.025   2.907  0.7968 -1.2160  0.8205
 5380TIP3    H216147   5.249   1.156   2.940 -1.7938  0.7527 -1.1688
 5381TIP3   OH216148   5.913   1.704   1.416  0.1861  0.1107 -0.3650
 5381TIP3    H116149   5.889   1.777   1.359  1.9044  0.4231 -0.7578
 5381TIP3    H216150   5.925   1.744   1.502 -0.2360  0.0360 -0.2701
 5382TIP3   OH216151   3.796   2.448   3.583 -0.0210  0.4575  0.1430
 5382TIP3    H116152   3.749   2.372   3.551  2.2261 -1.0683  0.2787
 5382TIP3    H216153   3.807   2.504   3.506 -0.8878  0.2415 -0.1497
 5383TIP3   OH216154   2.643   1.351   5.095 -0.3614  0.1435 -0.4316
 5383TIP3    H116155   2.656   1.257   5.080  0.9499  0.0532  0.9585
 5383TIP3    H216156   2.686   1.393   5.021  2.1309 -0.3299  0.6600
 5384TIP3   OH216157   3.375   0.346   5.040 -0.5367 -0.2745 -0.1002
 5384TIP3    H116158   3.427   0.307   5.110  1.2509  1.5781 -0.2926
 5384TIP3    H216159   3.347   0.431   5.076  2.2586  1.7493 -2.2156
 5385TIP3   OH216160   1.250   5.931   2.758 -0.0971  0.2591  0.3147
 5385TIP3    H116161   1.291   5.956   2.841 -2.3191  3.6763  0.5810
 5385TIP3    H216162   1.299   5.981   2.692  1.6323 -2.4096 -0.5671
 5386TIP3   OH216163   0.350   0.558   0.135 -0.2872  0.2489 -0.0521
 5386TIP3    H116164   0.394   0.636   0.101  0.2299 -0.5172 -1.1906
 5386TIP3    H216165   0.404   0.531   0.209 -0.8887  1.3801  0.8366
 5387TIP3   OH216166   4.063   5.674   0.343  0.0764  0.0761  0.0277
 5387TIP3    H116167   3.995   5.614   0.373 -0.4532  0.9178  0.5606
 5387TIP3    H216168   4.043   5.689   0.251 -1.0331  1.0235  0.3950
 5388TIP3   OH216169   0.403   0.384   0.510 -0.0181 -0.0721  0.4386
 5388TIP3    H116170   0.319   0.399   0.466 -0.0551 -0.1703  0.4759
 5388TIP3    H216171   0.398   0.294   0.542  0.7115 -0.6223 -0.8918
 5389TIP3   OH216172   1.510   5.778   0.279 -0.0301  0.1437 -0.0674
 5389TIP3    H116173   1.573   5.706   0.288 -0.3503 -0.2305 -0.7839
 5389TIP3    H216174   1.513   5.823   0.364 -1.4396 -2.0358  1.2282
 5390TIP3   OH216175   2.279   3.638   2.682 -0.2170  0.1020  0.4678
 5390TIP3    H116176   2.329   3.559   2.703  0.6097  0.9705  1.9087
 5390TIP3    H216177   2.192   3.621   2.719  0.2384  0.2229  1.6464
 5391TIP3   OH216178   6.300   0.246   2.841 -0.3915 -0.3202 -0.3055
 5391TIP3    H116179   6.354   0.268   2.916  0.5926 -0.8812 -0.8347
 5391TIP3    H216180   6.267   0.158   2.860  1.9492 -1.5851 -1.6263
 5392TIP3   OH216181   3.055   2.997   1.708 -0.1506  0.3248 -0.0203
 5392TIP3    H116182   3.074   3.075   1.657  1.3330 -0.8951 -1.4318
 5392TIP3    H216183   3.001   2.943   1.650 -0.3709 -0.1176  0.5784
 5393TIP3   OH216184   4.040   5.119   0.007  0.1100 -0.2413  0.1036
 5393TIP3    H116185   4.079   5.033   0.024 -1.1605 -0.9142 -0.2206
 5393TIP3    H216186   3.955   5.116   0.051  0.3362  1.1288  0.6801
 5394TIP3   OH216187   3.771   0.654   3.279 -0.0103  0.0787  0.1366
 5394TIP3    H116188   3.826   0.643   3.356  0.1775 -1.8079 -0.2266
 5394TIP3    H216189   3.690   0.609   3.300 -0.2082  0.1134 -0.5138
 5395TIP3   OH216190   2.483   1.958   1.431 -0.3624  0.1412 -0.4264
 5395TIP3    H116191   2.455   1.937   1.520 -0.1049  0.7967 -0.1865
 5395TIP3    H216192   2.431   2.035   1.407  0.1967  0.4927 -0.5152
 5396TIP3   OH216193   5.599   1.810   1.566  0.2990 -0.6152  0.2792
 5396TIP3    H116194   5.686   1.848   1.581  0.7867 -0.9385 -1.5337
 5396TIP3    H216195   5.574   1.774   1.651  1.9811 -0.5941  0.8258
 5397TIP3   OH216196   3.930   5.844   3.341  0.8169 -0.0680 -0.0387
 5397TIP3    H116197   3.908   5.922   3.289 -0.1252 -0.8530 -0.8554
 5397TIP3    H216198   3.849   5.793   3.344  0.6563  0.2114  2.7696
 5398TIP3   OH216199   3.940   0.513   3.099  0.5958 -0.2253 -0.2834
 5398TIP3    H116200   3.954   0.431   3.146 -0.9609 -0.3603 -0.0238
 5398TIP3    H216201   3.885   0.566   3.156 -1.0391 -0.2527 -1.7567
 5399TIP3   OH216202   5.827   4.908   2.763 -0.1963 -0.0495 -0.2081
 5399TIP3    H116203   5.897   4.849   2.737  0.0807  0.9045 -1.7190
 5399TIP3    H216204   5.871   4.989   2.786 -0.4536 -0.7109  3.0783
 5400TIP3   OH216205   1.807   5.005   0.147 -0.1293  0.0055  0.1698
 5400TIP3    H116206   1.771   4.948   0.079  0.8116  0.1346 -0.4623
 5400TIP3    H216207   1.777   5.093   0.123 -0.1397 -0.0021  0.1540
 5401TIP3   OH216208   3.947   1.234   4.323 -0.1324  0.1842 -0.1560
 5401TIP3    H116209   3.948   1.271   4.411  1.2555  2.4843 -1.0537
 5401TIP3    H216210   4.028   1.184   4.316  1.0336  2.0681 -0.8619
 5402TIP3   OH216211   0.974   5.399   4.372 -0.2437 -0.3243 -1.0184
 5402TIP3    H116212   1.003   5.349   4.296  0.3733 -1.3654 -0.1347
 5402TIP3    H216213   0.880   5.410   4.360 -0.0681  0.0314 -2.2006
 5403TIP3   OH216214   5.326   4.633   1.619 -0.9107  0.7800 -0.0049
 5403TIP3    H116215   5.390   4.595   1.558 -1.8186 -0.8830  0.0016
 5403TIP3    H216216   5.364   4.717   1.645 -0.3795  1.4497 -2.6615
 5404TIP3   OH216217   3.746   3.828   1.471 -0.3397  0.1894  0.0722
 5404TIP3    H116218   3.783   3.769   1.536  1.8220 -0.1415 -1.3450
 5404TIP3    H216219   3.652   3.809   1.472 -0.1853 -0.8047  2.0320
 5405TIP3   OH216220   5.677   2.527   1.734 -0.0544  0.0327 -0.0455
 5405TIP3    H116221   5.628   2.587   1.790 -0.0019 -0.5384  0.6175
 5405TIP3    H216222   5.769   2.549   1.750 -0.0454  0.0728 -0.1466
 5406TIP3   OH216223   1.825   4.510   3.569  0.2129 -0.2551 -0.0114
 5406TIP3    H116224   1.747   4.510   3.514  0.3795  1.6928 -0.3093
 5406TIP3    H216225   1.796   4.472   3.651 -0.4860 -1.5657 -0.8269
 5407TIP3   OH216226   5.168   2.454   0.223  0.1624 -0.6786  0.4029
 5407TIP3    H116227   5.193   2.536   0.180 -1.4529  0.5656  1.7006
 5407TIP3    H216228   5.155   2.392   0.151  0.9466  0.3212 -0.6378
 5408TIP3   OH216229   4.711   1.473   4.014  0.3166  0.5089 -0.1267
 5408TIP3    H116230   4.639   1.533   4.032  0.6433  0.2003  2.6299
 5408TIP3    H216231   4.761   1.515   3.944 -0.3406  2.6817  0.6318
 5409TIP3   OH216232   2.874   5.441   3.381  0.2404 -0.2844 -1.1073
 5409TIP3    H116233   2.944   5.451   3.445  0.3181 -0.6522 -1.1340
 5409TIP3    H216234   2.826   5.524   3.385 -0.7964 -0.9139  0.6713
 5410TIP3   OH216235   3.829   4.287   4.571 -0.3834  0.1575  0.3523
 5410TIP3    H116236   3.766   4.354   4.543  0.1659 -0.1404 -1.8195
 5410TIP3    H216237   3.837   4.229   4.495  3.1198  0.6873  0.1627
 5411TIP3   OH216238   4.638   5.831   4.041 -0.0439  0.4578 -0.4197
 5411TIP3    H116239   4.690   5.912   4.046  0.8790 -0.1420  0.0068
 5411TIP3    H216240   4.552   5.860   4.010  0.1958  1.6349 -0.0579
 5412TIP3   OH216241   2.824   0.082   4.370  0.0086  0.0281 -0.5306
 5412TIP3    H116242   2.902   0.026   4.378 -0.2816 -0.1619  1.6168
 5412TIP3    H216243   2.757   0.023   4.335 -0.8256 -1.7177  3.4506
 5413TIP3   OH216244   4.441   3.115   4.112  0.2563 -0.2768  0.7750
 5413TIP3    H116245   4.348   3.122   4.091  0.5890 -0.9575 -1.1136
 5413TIP3    H216246   4.485   3.164   4.042  1.3534 -0.2901  1.4296
 5414TIP3   OH216247   2.443   2.937   0.143  0.4316  0.2812  0.5918
 5414TIP3    H116248   2.538   2.942   0.135  0.3634  1.6518  0.4215
 5414TIP3    H216249   2.410   2.992   0.072 -0.4789  0.3418  1.0449
 5415TIP3   OH216250   1.562   1.635   2.949  0.6056  0.2887  0.5910
 5415TIP3    H116251   1.568   1.728   2.928 -0.5571  0.4047  0.6937
 5415TIP3    H216252   1.598   1.627   3.037  0.9949  0.5877  0.4598
 5416TIP3   OH216253   1.785   4.123   3.714 -0.3652 -0.1840 -0.3936
 5416TIP3    H116254   1.787   4.177   3.634 -0.5019 -1.0147 -0.9662
 5416TIP3    H216255   1.705   4.150   3.758  0.2323  1.0329  0.0096
 5417TIP3   OH216256   5.485   0.577   5.154 -0.2369  0.2496  0.4135
 5417TIP3    H116257   5.567   0.586   5.203  0.7539 -0.8998 -0.9425
 5417TIP3    H216258   5.507   0.604   5.065 -1.2128 -0.4851 -0.0699
 5418TIP3   OH216259   0.146   2.599   4.090  0.1353  0.1186 -0.6956
 5418TIP3    H116260   0.214   2.659   4.122 -0.2230 -0.5404  1.5240
 5418TIP3    H216261   0.064   2.645   4.108 -0.0865 -0.2367 -0.7908
 5419TIP3   OH216262   3.785   1.464   4.320  0.4870 -0.0685  0.1673
 5419TIP3    H116263   3.781   1.480   4.414 -2.7564 -0.7301  0.2676
 5419TIP3    H216264   3.833   1.381   4.312 -0.0639 -0.5403  1.3651
 5420TIP3   OH216265   5.134   1.184   0.163 -0.1649  0.4358 -0.0897
 5420TIP3    H116266   5.155   1.091   0.168 -0.1157  0.4620  0.2564
 5420TIP3    H216267   5.044   1.190   0.196  0.5563  0.7561  1.9605
 5421TIP3   OH216268   1.190   2.654   3.445  0.2158  0.0533  0.0143
 5421TIP3    H116269   1.218   2.713   3.515 -0.2156 -1.2374  1.3006
 5421TIP3    H216270   1.267   2.600   3.427 -0.5772 -1.7775  1.7792
 5422TIP3   OH216271   0.980   2.113   2.782  0.0972 -0.3555 -0.3449
 5422TIP3    H116272   1.038   2.134   2.709  0.9805 -1.3303  0.0474
 5422TIP3    H216273   1.034   2.128   2.860 -0.5743 -0.1144  0.0845
 5423TIP3   OH216274   5.670   2.969   1.176 -0.6441 -0.2416 -0.3080
 5423TIP3    H116275   5.650   3.019   1.097  0.6519 -1.7110 -1.6254
 5423TIP3    H216276   5.736   2.906   1.148 -0.0061 -0.6776  2.0168
 5424TIP3   OH216277   4.678   5.897   3.146 -0.2947 -0.2350  0.4672
 5424TIP3    H116278   4.676   5.961   3.217 -1.2359 -1.4184  1.5445
 5424TIP3    H216279   4.691   5.813   3.190 -1.3174 -1.0474 -0.7175
 5425TIP3   OH216280   4.356   2.199   4.179  0.2638 -0.3595 -0.5059
 5425TIP3    H116281   4.318   2.242   4.102  1.3324  0.2154 -0.7335
 5425TIP3    H216282   4.382   2.112   4.147  1.6912  0.2607 -1.1123
 5426TIP3   OH216283   0.076   4.270   0.626 -0.4555  0.4816 -0.1529
 5426TIP3    H116284   0.118   4.242   0.708  1.0502 -1.0214 -1.3690
 5426TIP3    H216285   0.010   4.203   0.608 -1.1673  1.1033  0.0759
 5427TIP3   OH216286   2.606   5.086   1.842 -0.5612  0.1675 -0.1706
 5427TIP3    H116287   2.530   5.033   1.866  0.4226 -0.0814  2.9643
 5427TIP3    H216288   2.576   5.177   1.850 -0.8992  0.0760 -0.3837
 5428TIP3   OH216289   4.664   2.922   1.945  0.4976  0.9278  0.6265
 5428TIP3    H116290   4.691   2.980   2.016 -2.1263  0.3075  2.2621
 5428TIP3    H216291   4.735   2.858   1.939  0.2102  0.1514  3.7518
 5429TIP3   OH216292   4.958   1.516   0.219 -0.1475  0.1111 -0.4121
 5429TIP3    H116293   4.985   1.607   0.230  1.5073 -0.4980  1.0495
 5429TIP3    H216294   4.923   1.490   0.304 -0.7222 -0.6044 -0.8472
 5430TIP3   OH216295   0.443   2.818   4.426  0.1730  0.0212 -0.5782
 5430TIP3    H116296   0.372   2.878   4.447  0.2546 -0.3679  0.8983
 5430TIP3    H216297   0.477   2.789   4.511 -1.1315 -3.6218 -1.1015
 5431TIP3   OH216298   0.544   4.687   2.220  0.2766 -0.1194  0.3749
 5431TIP3    H116299   0.508   4.680   2.132 -0.9624 -1.5590  0.9549
 5431TIP3    H216300   0.551   4.597   2.251  1.3291  0.3229  1.5199
 5432TIP3   OH216301   2.836   3.878   1.634 -0.4409  0.3716  0.1041
 5432TIP3    H116302   2.909   3.862   1.693  1.2355 -0.9854 -2.1529
 5432TIP3    H216303   2.763   3.829   1.672  1.1953 -2.3743 -0.0272
 5433TIP3   OH216304   2.257   2.639   3.622  0.5132 -0.0755  0.3424
 5433TIP3    H116305   2.331   2.683   3.580  1.5292 -0.7259  1.3869
 5433TIP3    H216306   2.290   2.551   3.640 -1.3160 -1.1653 -1.2682
 5434TIP3   OH216307   1.910   0.039   1.091  0.5033  0.4665 -0.0738
 5434TIP3    H116308   1.975  -0.012   1.043 -0.1413 -0.0242 -0.4331
 5434TIP3    H216309   1.887  -0.016   1.166  0.4017  0.5813 -0.0212
 5435TIP3   OH216310   3.609   3.113   3.777  0.2097  0.0311  0.2619
 5435TIP3    H116311   3.515   3.115   3.755  0.2419 -1.1258 -0.0403
 5435TIP3    H216312   3.628   3.202   3.808 -1.2574 -0.0325  1.4678
 5436TIP3   OH216313   2.730   1.465   4.180 -0.8992  0.4948  0.0497
 5436TIP3    H116314   2.778   1.462   4.097 -0.7893  1.9665  0.0514
 5436TIP3    H216315   2.797   1.474   4.247 -0.8413 -2.3635  0.5154
 5437TIP3   OH216316   2.970   5.016   3.273  0.4565  0.5473  0.4960
 5437TIP3    H116317   3.042   4.956   3.287  0.3488 -0.2270 -1.8116
 5437TIP3    H216318   2.895   4.960   3.250  0.0401  1.4630 -0.5075
 5438TIP3   OH216319   6.263   2.981   5.218 -0.1809  0.8045 -0.1521
 5438TIP3    H116320   6.195   3.016   5.161  0.1331 -0.1066 -1.1021
 5438TIP3    H216321   6.325   2.938   5.159  0.2336 -0.0264  0.8507
 5439TIP3   OH216322   0.814   1.924   2.114 -0.0134 -0.5540  0.5704
 5439TIP3    H116323   0.874   1.850   2.114  1.1467  0.3630  0.1222
 5439TIP3    H216324   0.792   1.936   2.021 -1.8384 -1.6008  0.8183
 5440TIP3   OH216325   0.054   1.100   4.862  0.3932  0.0455 -0.3752
 5440TIP3    H116326   0.113   1.173   4.846 -0.1261  0.6142  0.2488
 5440TIP3    H216327   0.073   1.072   4.951  0.0499 -0.0750 -0.3379
 5441TIP3   OH216328   2.982   3.708   4.596  0.1509 -0.4462 -0.5401
 5441TIP3    H116329   3.066   3.726   4.553  0.0967 -1.3948 -1.0542
 5441TIP3    H216330   2.965   3.787   4.649  1.4891 -0.3490 -0.2226
 5442TIP3   OH216331   1.233   0.460   3.258 -0.2964  0.1032  0.3729
 5442TIP3    H116332   1.279   0.519   3.317 -0.7527  0.2758  0.5603
 5442TIP3    H216333   1.198   0.516   3.190 -0.5471  0.0224  0.4336
 5443TIP3   OH216334   2.559   4.660   2.488  0.5624 -0.1967 -0.3694
 5443TIP3    H116335   2.607   4.741   2.472 -1.8300  1.9859  2.3858
 5443TIP3    H216336   2.539   4.626   2.401  1.4573  2.3284 -1.6437
 5444TIP3   OH216337   3.264   2.240   4.777  0.4876  0.8808  0.0683
 5444TIP3    H116338   3.299   2.227   4.865 -1.1585 -2.2183  0.4005
 5444TIP3    H216339   3.186   2.293   4.789 -1.4161 -1.9133  1.0386
 5445TIP3   OH216340   1.168   2.267   0.191 -0.1415 -0.1795 -0.1958
 5445TIP3    H116341   1.101   2.317   0.237  0.1217 -0.9286  1.0297
 5445TIP3    H216342   1.124   2.185   0.165  0.1033 -0.3745 -0.0015
 5446TIP3   OH216343   5.227   4.068   0.862 -0.3468  0.4576  0.0089
 5446TIP3    H116344   5.208   3.975   0.848  0.8083  0.1527  0.3525
 5446TIP3    H216345   5.142   4.111   0.854 -0.7021 -0.4565 -1.5109
 5447TIP3   OH216346   4.405   3.506   2.940 -0.0382  0.4528  0.7268
 5447TIP3    H116347   4.317   3.468   2.936  0.6191 -1.0844  0.2704
 5447TIP3    H216348   4.463   3.431   2.956  1.2641  1.3339  0.2773
 5448TIP3   OH216349   0.494   4.414   3.640 -0.2812 -0.4017  0.0267
 5448TIP3    H116350   0.559   4.348   3.665 -1.2007 -1.2658  0.1757
 5448TIP3    H216351   0.521   4.493   3.687 -0.1169 -1.1266  1.1877
 5449TIP3   OH216352   0.682   5.382   2.848  0.0300  0.8020  0.5229
 5449TIP3    H116353   0.623   5.308   2.861  1.8649 -0.6309  1.0486
 5449TIP3    H216354   0.654   5.420   2.765 -1.3416 -0.0875  0.5436
 5450TIP3   OH216355   5.774   1.560   2.630  0.2653 -0.9462  0.3104
 5450TIP3    H116356   5.735   1.570   2.543  0.9735 -2.1163 -0.1603
 5450TIP3    H216357   5.699   1.562   2.690 -0.2528 -0.3478 -0.3253
 5451TIP3   OH216358   6.052   2.392   3.669 -0.0048 -0.3084  0.2688
 5451TIP3    H116359   6.130   2.347   3.639  0.1252 -0.1760  0.4014
 5451TIP3    H216360   6.075   2.424   3.757  1.2756  3.2602 -1.1754
 5452TIP3   OH216361   4.362   5.498   2.756 -0.4035  0.4435  0.1108
 5452TIP3    H116362   4.434   5.554   2.787 -0.8514  0.3710  1.3404
 5452TIP3    H216363   4.383   5.411   2.791 -0.5558  0.1962 -0.4115
 5453TIP3   OH216364   1.483   4.215   3.187 -0.2112  0.1216  0.3951
 5453TIP3    H116365   1.436   4.133   3.197  0.1108 -0.2586 -0.9891
 5453TIP3    H216366   1.434   4.278   3.239 -0.4152 -0.9489  1.5456
 5454TIP3   OH216367   2.963   4.476   1.174 -0.0046 -0.3018 -0.3073
 5454TIP3    H116368   3.005   4.445   1.093  0.6560 -1.2227  0.3682
 5454TIP3    H216369   2.891   4.414   1.189  1.4310 -1.7156  1.1456
 5455TIP3   OH216370   5.084   2.823   4.858 -0.1374 -0.3851  0.2888
 5455TIP3    H116371   5.159   2.822   4.799 -0.5777  2.2695 -0.4295
 5455TIP3    H216372   5.025   2.755   4.824 -0.1201  0.6890 -2.0052
 5456TIP3   OH216373   1.109   4.255   2.344  0.4092  0.1555  0.3544
 5456TIP3    H116374   1.091   4.161   2.343 -0.7444  0.3625 -0.0009
 5456TIP3    H216375   1.203   4.262   2.326  0.7699 -0.9704  1.6645
 5457TIP3   OH216376   3.469   3.728   3.848  0.2300  0.6405  0.2409
 5457TIP3    H116377   3.386   3.701   3.809  0.7206 -0.4323 -0.1016
 5457TIP3    H216378   3.492   3.809   3.803 -0.8474  1.1978  0.6637
 5458TIP3   OH216379   3.206   0.271   0.173 -0.0278 -0.2057  0.2739
 5458TIP3    H116380   3.132   0.255   0.114 -0.2079  0.7969  0.2096
 5458TIP3    H216381   3.260   0.192   0.166 -1.0505 -0.9245  0.2738
 5459TIP3   OH216382   3.741   5.813   0.069 -0.3798 -0.2543  0.2942
 5459TIP3    H116383   3.836   5.823   0.062  0.0534 -3.5877  0.0388
 5459TIP3    H216384   3.720   5.844   0.158  0.7348  1.4163  0.0203
 5460TIP3   OH216385   3.930   3.147   2.957  0.2855  0.8195 -0.2537
 5460TIP3    H116386   3.885   3.209   2.900 -0.0388  0.3881 -0.4698
 5460TIP3    H216387   4.016   3.186   2.971  0.8448  0.3463 -2.0564
 5461TIP3   OH216388   4.936   0.687   4.864  0.4032 -1.1831  0.6913
 5461TIP3    H116389   4.951   0.761   4.924 -0.8414 -1.1337  0.9790
 5461TIP3    H216390   5.018   0.638   4.866  0.9425 -0.3037  1.1973
 5462TIP3   OH216391   3.772   5.511   2.812  0.5632 -0.0740 -0.1607
 5462TIP3    H116392   3.815   5.501   2.897 -0.9609 -1.6303  0.4797
 5462TIP3    H216393   3.837   5.557   2.758  1.3806  1.3798  1.9433
 5463TIP3   OH216394   4.879   2.764   1.868  0.1204 -0.3660 -0.1950
 5463TIP3    H116395   4.936   2.761   1.944 -0.8272 -0.8505  0.5282
 5463TIP3    H216396   4.926   2.717   1.800  0.9929  0.1031  0.0780
 5464TIP3   OH216397   5.788   2.209   0.577  0.4577 -0.4478  0.2167
 5464TIP3    H116398   5.821   2.214   0.667 -0.2309 -0.0634  0.4505
 5464TIP3    H216399   5.693   2.205   0.586  0.3347  0.4658 -0.5160
 5465TIP3   OH216400   5.562   1.313   3.185  0.2495  0.3387  0.2993
 5465TIP3    H116401   5.573   1.306   3.280  0.3880 -1.6413  0.1753
 5465TIP3    H216402   5.651   1.313   3.151  0.1817  0.0175  0.1204
 5466TIP3   OH216403   4.728   0.380   0.204 -0.1933  0.6043 -0.0056
 5466TIP3    H116404   4.669   0.370   0.279 -0.1703 -1.0054 -0.1631
 5466TIP3    H216405   4.815   0.362   0.240 -0.2478 -0.7797 -0.4999
 5467TIP3   OH216406   4.426   3.103   0.604  0.5332  0.1013  0.4115
 5467TIP3    H116407   4.389   3.056   0.679 -2.6725  1.7226  0.0361
 5467TIP3    H216408   4.407   3.046   0.529 -1.0447  0.7825  0.2615
 5468TIP3   OH216409   5.415   5.279   0.976  0.3825 -0.6948 -0.3013
 5468TIP3    H116410   5.451   5.336   1.044  0.4957 -0.3556 -0.6430
 5468TIP3    H216411   5.438   5.191   1.004  1.7220 -0.4732 -0.6445
 5469TIP3   OH216412   1.403   1.475   2.201  0.2818  0.1298  0.2738
 5469TIP3    H116413   1.464   1.506   2.134  0.1017  0.5580  0.3017
 5469TIP3    H216414   1.317   1.504   2.170  0.2103  0.4460  0.7555
 5470TIP3   OH216415   2.064   5.131   3.834  0.0107  0.1527  0.3875
 5470TIP3    H116416   2.024   5.091   3.756 -0.7270 -0.3726  1.0271
 5470TIP3    H216417   2.131   5.069   3.861 -1.5598 -1.0395  1.7582
 5471TIP3   OH216418   1.431   5.507   1.666 -0.4707  0.4503  0.3437
 5471TIP3    H116419   1.349   5.457   1.662 -0.7358  0.7629  1.5784
 5471TIP3    H216420   1.403   5.596   1.687 -0.0619  1.3305 -2.4258
 5472TIP3   OH216421   6.006   3.662   3.093  0.1590  0.2432  0.3715
 5472TIP3    H116422   5.990   3.604   3.019  1.7491  0.1968  0.0412
 5472TIP3    H216423   5.988   3.750   3.059 -2.6162  0.0026  0.9753
 5473TIP3   OH216424   0.715   3.283   3.391  0.3101 -0.3094  0.1654
 5473TIP3    H116425   0.710   3.286   3.295  0.1963  1.1093  0.2006
 5473TIP3    H216426   0.807   3.299   3.411  0.0474  1.2012  0.3161
 5474TIP3   OH216427   1.339   3.713   1.194 -0.3327  0.0942 -0.1995
 5474TIP3    H116428   1.256   3.746   1.159 -1.5648 -1.2754  1.2500
 5474TIP3    H216429   1.370   3.783   1.252 -1.3984 -0.0452  0.5812
 5475TIP3   OH216430   4.821   4.666   0.046 -0.1876 -0.3024 -0.4214
 5475TIP3    H116431   4.765   4.693  -0.027  1.4323 -0.2900 -1.6993
 5475TIP3    H216432   4.809   4.572   0.052 -0.0704 -0.3468 -0.9137
 5476TIP3   OH216433   5.925   5.820   2.140 -0.0539 -0.2013  0.0692
 5476TIP3    H116434   5.873   5.762   2.085  1.6595  0.0265 -1.9096
 5476TIP3    H216435   6.015   5.792   2.127  0.7906  2.5010 -0.5473
 5477TIP3   OH216436   2.259   1.532   5.115 -0.4105 -0.0968 -0.0535
 5477TIP3    H116437   2.197   1.600   5.091  0.1018  0.6448  0.6905
 5477TIP3    H216438   2.308   1.568   5.188 -0.7455 -1.6240  0.9717
 5478TIP3   OH216439   3.433   4.053   1.594 -0.0585  0.3897 -0.2388
 5478TIP3    H116440   3.379   4.127   1.564  1.0965  1.0023 -0.8751
 5478TIP3    H216441   3.523   4.084   1.586  0.3891 -0.4033  1.3702
 5479TIP3   OH216442   4.105   0.815   3.639 -0.4683 -0.3779  1.0239
 5479TIP3    H116443   4.015   0.827   3.669 -0.2235 -2.8942  3.1118
 5479TIP3    H216444   4.102   0.733   3.589  0.5298  0.0027  0.3184
 5480TIP3   OH216445   2.772   1.476   0.461  0.6679  0.2781 -0.7004
 5480TIP3    H116446   2.748   1.510   0.548  1.1291 -2.3254  0.5642
 5480TIP3    H216447   2.700   1.504   0.404 -2.3763 -1.9789  1.6080
 5481TIP3   OH216448   4.185   0.660   3.217  0.4023  0.4910 -0.5644
 5481TIP3    H116449   4.233   0.684   3.138  0.6321 -0.4182 -0.7087
 5481TIP3    H216450   4.108   0.613   3.186 -0.3855  1.5595 -0.3116
 5482TIP3   OH216451   4.562   1.634   2.865 -0.5245  0.3494 -0.6120
 5482TIP3    H116452   4.499   1.584   2.812 -0.5496 -0.6591  0.3311
 5482TIP3    H216453   4.554   1.597   2.953  0.7947  0.7773 -0.2884
 5483TIP3   OH216454   4.102   2.730   2.367 -0.0240 -0.9535  0.1055
 5483TIP3    H116455   4.068   2.667   2.303 -0.0634  0.6574 -1.5530
 5483TIP3    H216456   4.039   2.802   2.366 -0.4404 -1.2053  2.5957
 5484TIP3   OH216457   2.593   3.548   0.130 -0.5535  0.0214 -0.0433
 5484TIP3    H116458   2.531   3.569   0.060  0.6214  0.7967 -0.9033
 5484TIP3    H216459   2.539   3.526   0.205 -1.8597  0.0090 -0.9559
 5485TIP3   OH216460   5.873   2.054   1.112  0.3530  0.4365  0.3627
 5485TIP3    H116461   5.952   2.067   1.059  0.2581  4.5259  0.9114
 5485TIP3    H216462   5.802   2.080   1.054 -0.2415  0.2368  0.9976
 5486TIP3   OH216463   4.441   3.040   2.159 -0.2342 -0.5075 -0.2488
 5486TIP3    H116464   4.437   2.945   2.150 -1.0843 -0.8407  2.7078
 5486TIP3    H216465   4.358   3.064   2.199  0.8576  1.1835  1.1300
 5487TIP3   OH216466   4.106   0.213   1.530 -0.4679 -0.5797 -0.0314
 5487TIP3    H116467   4.172   0.167   1.478  0.1484 -0.5142  0.6809
 5487TIP3    H216468   4.151   0.235   1.612 -1.3973 -0.6005  0.4936
 5488TIP3   OH216469   5.873   5.827   1.061  0.4203 -0.7193 -0.1438
 5488TIP3    H116470   5.939   5.895   1.051  1.9813 -2.3760 -1.8360
 5488TIP3    H216471   5.917   5.759   1.112  0.6045 -2.4583 -2.4925
 5489TIP3   OH216472   2.216   1.762   4.740  0.0869 -0.3256  0.5909
 5489TIP3    H116473   2.200   1.760   4.835  1.0670 -0.2086  0.7667
 5489TIP3    H216474   2.150   1.823   4.706 -0.1207 -0.1869  1.2264
 5490TIP3   OH216475   1.746   2.599   0.924  0.4839 -0.2311 -0.0251
 5490TIP3    H116476   1.776   2.666   0.984  1.4116  0.3908 -1.1358
 5490TIP3    H216477   1.824   2.547   0.904  0.2273 -0.3610 -0.7513
 5491TIP3   OH216478   6.202   5.831   2.759 -0.5090 -0.0547  0.3759
 5491TIP3    H116479   6.233   5.911   2.802  1.8342 -1.1097  0.7953
 5491TIP3    H216480   6.234   5.839   2.669  0.8753 -1.0634  0.7550
 5492TIP3   OH216481   3.768   2.286   2.822 -0.3083  0.1901 -0.4264
 5492TIP3    H116482   3.782   2.328   2.737 -0.9153 -0.1226 -0.6876
 5492TIP3    H216483   3.739   2.357   2.880  2.7389  0.9834  0.2890
 5493TIP3   OH216484   3.130   4.695   0.520  0.6738 -0.5175 -0.2274
 5493TIP3    H116485   3.053   4.646   0.549  0.6137  0.2255  0.9847
 5493TIP3    H216486   3.113   4.714   0.428  0.2546 -1.9048 -0.4546
 5494TIP3   OH216487   3.615   5.408   5.076  0.1375 -0.4399  0.0292
 5494TIP3    H116488   3.552   5.444   5.013 -0.1739 -1.1363 -0.0794
 5494TIP3    H216489   3.566   5.402   5.158  0.5394  0.4555  0.3397
 5495TIP3   OH216490   1.939   1.300   1.782 -0.1228 -0.1474 -0.5699
 5495TIP3    H116491   1.913   1.221   1.736 -0.8424 -0.6291  0.6203
 5495TIP3    H216492   1.870   1.314   1.847  1.3744 -0.1208  1.0926
 5496TIP3   OH216493   2.457   3.497   0.638  0.5460  0.2475  0.2371
 5496TIP3    H116494   2.444   3.416   0.688 -0.3504  0.3882  0.2488
 5496TIP3    H216495   2.374   3.510   0.592  1.6930 -0.4491 -2.1610
 5497TIP3   OH216496   0.970   5.231   3.729 -0.8827  0.1534  0.2853
 5497TIP3    H116497   0.991   5.317   3.693  1.3203 -0.4382 -0.0027
 5497TIP3    H216498   1.028   5.170   3.682 -1.4777 -1.3052  1.3555
 5498TIP3   OH216499   1.172   0.792   4.233  0.3322  0.2145  0.0078
 5498TIP3    H116500   1.235   0.770   4.164 -0.6143 -0.6014 -0.6439
 5498TIP3    H216501   1.164   0.712   4.284 -0.5157  0.1435 -0.2166
 5499TIP3   OH216502   6.276   3.139   2.761 -0.2079  0.2001  0.4038
 5499TIP3    H116503   6.288   3.051   2.725  0.6663 -0.2548  1.7425
 5499TIP3    H216504   6.305   3.198   2.691  1.7121 -0.6594  0.4182
 5500TIP3   OH216505   4.424   3.274   2.723  0.6659 -0.0614 -0.0489
 5500TIP3    H116506   4.470   3.328   2.659 -0.2303  0.0834 -0.5895
 5500TIP3    H216507   4.491   3.251   2.788  1.3679  0.5666 -0.5357
 5501TIP3   OH216508   5.561   3.476   2.705  0.5987 -0.1752  0.2484
 5501TIP3    H116509   5.485   3.438   2.748  0.3161 -1.4130 -1.2854
 5501TIP3    H216510   5.551   3.571   2.718 -1.4850 -0.2720 -0.3691
 5502TIP3   OH216511   2.968   0.669   0.690  0.6131 -0.2623 -0.1699
 5502TIP3    H116512   2.925   0.713   0.616 -0.7417 -2.0860 -0.5139
 5502TIP3    H216513   2.899   0.656   0.754  1.1581 -1.1709  0.2478
 5503TIP3   OH216514   1.922   2.724   1.893 -0.9743 -0.3665  0.1372
 5503TIP3    H116515   1.836   2.696   1.862 -0.8404  0.2192 -0.8202
 5503TIP3    H216516   1.984   2.672   1.842 -0.7584 -0.4277  0.4607
 5504TIP3   OH216517   6.119   1.988   4.680 -0.2191  0.0594  0.3326
 5504TIP3    H116518   6.110   1.897   4.710  0.9709  0.0991  0.8529
 5504TIP3    H216519   6.210   1.996   4.653 -0.5162  0.8852 -0.4845
 5505TIP3   OH216520   3.075   0.383   0.385  0.5060 -0.3167  0.1373
 5505TIP3    H116521   3.109   0.332   0.312 -2.4492 -1.6910 -0.4418
 5505TIP3    H216522   3.074   0.473   0.353 -1.1301 -0.9409 -1.7789
 5506TIP3   OH216523   5.609   1.153   2.754  0.1798 -0.4421 -0.4171
 5506TIP3    H116524   5.599   1.245   2.781 -0.5650 -0.1753 -1.5383
 5506TIP3    H216525   5.571   1.103   2.827  0.1702  0.1563  0.0024
 5507TIP3   OH216526   0.294   2.378   4.911 -0.7477 -0.1078  0.1376
 5507TIP3    H116527   0.241   2.303   4.882  0.6184 -0.6850 -1.0116
 5507TIP3    H216528   0.267   2.450   4.854 -0.9944 -0.1241  0.2310
 5508TIP3   OH216529   3.697   3.675   2.042 -0.2918  0.2168 -0.1211
 5508TIP3    H116530   3.789   3.682   2.068  0.4043  0.5156 -2.4608
 5508TIP3    H216531   3.671   3.588   2.072  0.6190  0.2664  0.9070
 5509TIP3   OH216532   3.969   2.517   1.901 -0.6072  0.3303  0.3072
 5509TIP3    H116533   3.885   2.506   1.855 -0.7786 -2.1074  1.0818
 5509TIP3    H216534   4.034   2.485   1.839 -0.5893 -0.7225  0.8660
 5510TIP3   OH216535   2.261   1.755   2.556 -0.6662  0.4530 -0.0293
 5510TIP3    H116536   2.267   1.699   2.634 -2.6124  0.4621  0.2003
 5510TIP3    H216537   2.312   1.710   2.489 -1.0238 -0.8863  0.5618
 5511TIP3   OH216538   5.085   5.460   0.372 -0.1269 -0.3503 -0.0275
 5511TIP3    H116539   5.011   5.519   0.385  0.5839  0.3773  0.7826
 5511TIP3    H216540   5.155   5.515   0.337 -0.5917 -1.4370 -2.9382
 5512TIP3   OH216541   5.202   3.666   3.984  0.0694 -0.0315  0.3385
 5512TIP3    H116542   5.291   3.659   3.949 -0.5569  2.5144 -2.0963
 5512TIP3    H216543   5.145   3.666   3.907 -1.7801  1.5924  1.5855
 5513TIP3   OH216544   1.468   2.612   3.352 -0.4380  0.0858  0.3911
 5513TIP3    H116545   1.485   2.672   3.425  2.0668 -0.0648  0.0148
 5513TIP3    H216546   1.505   2.655   3.276 -0.6774 -0.9214 -0.3135
 5514TIP3   OH216547   4.342   3.339   0.511 -0.0990 -0.0921 -0.4663
 5514TIP3    H116548   4.382   3.256   0.535  0.9946  0.5561  0.0112
 5514TIP3    H216549   4.264   3.314   0.461 -0.2871 -1.4048  0.4281
 5515TIP3   OH216550   1.538   4.568   2.089  0.0967  0.0959  0.1125
 5515TIP3    H116551   1.593   4.527   2.156 -0.3710 -0.5179  0.1310
 5515TIP3    H216552   1.450   4.533   2.105 -0.0299 -0.0441 -0.7995
 5516TIP3   OH216553   2.742   4.817   1.716  0.5963 -0.1720 -0.3862
 5516TIP3    H116554   2.794   4.868   1.778  0.8119 -0.1160 -0.6066
 5516TIP3    H216555   2.673   4.777   1.768 -0.4844  1.5533 -0.4200
 5517TIP3   OH216556   0.627   2.936   4.991 -0.0105 -0.1350  0.0440
 5517TIP3    H116557   0.722   2.944   4.979 -0.2029  2.4594 -0.3834
 5517TIP3    H216558   0.616   2.926   5.085  0.6404  2.8387  0.5399
 5518TIP3   OH216559   4.575   5.667   2.840 -0.0452 -0.2280  0.3639
 5518TIP3    H116560   4.575   5.763   2.850  0.2839  0.0303 -1.6465
 5518TIP3    H216561   4.661   5.647   2.802 -0.9602 -1.0415 -1.3544
 5519TIP3   OH216562   3.773   3.557   4.170 -0.2439 -0.3593 -0.0991
 5519TIP3    H116563   3.810   3.468   4.171 -1.9144 -1.0892  1.1199
 5519TIP3    H216564   3.687   3.547   4.129 -1.0736  0.3968  1.3915
 5520TIP3   OH216565   5.713   1.142   3.553  0.1152  0.0124 -0.7133
 5520TIP3    H116566   5.652   1.207   3.520 -0.1760  1.6187  2.6109
 5520TIP3    H216567   5.794   1.191   3.570  0.2852 -0.7038  0.6957
 5521TIP3   OH216568   5.916   1.670   4.262  0.4391  0.2237 -0.3128
 5521TIP3    H116569   5.829   1.700   4.287  1.1851  1.3674  1.0575
 5521TIP3    H216570   5.927   1.702   4.173 -0.9275 -0.8707 -0.9172
 5522TIP3   OH216571   0.331   0.561   1.027  0.1702 -0.5890 -0.0012
 5522TIP3    H116572   0.337   0.466   1.034  2.5693 -0.4966 -0.0895
 5522TIP3    H216573   0.299   0.590   1.112 -2.5467 -1.5230 -0.5834
 5523TIP3   OH216574   3.452   1.466   4.257  0.0707  0.3067 -0.4084
 5523TIP3    H116575   3.527   1.426   4.213  0.7221  0.6795  0.3400
 5523TIP3    H216576   3.462   1.560   4.240 -0.7032  0.2889 -1.0156
 5524TIP3   OH216577   5.169   0.531   3.200  0.1272 -0.7483 -1.0449
 5524TIP3    H116578   5.121   0.481   3.266 -1.3721 -0.9568 -2.2200
 5524TIP3    H216579   5.103   0.590   3.162  1.3464  0.5855 -1.1986
 5525TIP3   OH216580   2.952   4.372   3.633  0.2223 -0.3920  0.9399
 5525TIP3    H116581   2.985   4.449   3.679  0.4641  0.2994 -0.3547
 5525TIP3    H216582   2.930   4.310   3.703  1.8871  0.0779  1.9428
 5526TIP3   OH216583   2.952   4.742   4.907  0.1968 -0.5818  0.5294
 5526TIP3    H116584   2.904   4.718   4.986 -0.4998  1.2091  0.6900
 5526TIP3    H216585   3.017   4.806   4.937  0.5215 -0.5675 -0.1966
 5527TIP3   OH216586   3.956   1.860   1.912 -0.1358 -0.1363  0.1071
 5527TIP3    H116587   3.992   1.791   1.968 -1.7392 -0.7789  0.4102
 5527TIP3    H216588   3.878   1.821   1.874 -1.3627  1.6544  0.6383
 5528TIP3   OH216589   1.662   5.671   3.641  0.0604 -0.0658 -0.0523
 5528TIP3    H116590   1.571   5.643   3.652  0.2304 -0.0519  1.5987
 5528TIP3    H216591   1.711   5.589   3.634 -0.3125 -0.1212 -3.8733
 5529TIP3   OH216592   5.212   0.456   1.137 -0.4904 -0.0948  0.8187
 5529TIP3    H116593   5.300   0.494   1.129 -0.2972 -0.4499  1.2172
 5529TIP3    H216594   5.158   0.528   1.170 -0.2849  0.0463  0.8498
 5530TIP3   OH216595   2.957   2.665   0.771  0.0490 -0.3162 -0.2347
 5530TIP3    H116596   2.956   2.604   0.844  0.0456  0.5452  0.5016
 5530TIP3    H216597   3.035   2.641   0.721 -0.2462 -1.2533 -0.2470
 5531TIP3   OH216598   2.768   2.713   4.314  0.3760 -0.1944  0.2836
 5531TIP3    H116599   2.862   2.710   4.334  0.5875  0.7759 -0.4669
 5531TIP3    H216600   2.754   2.801   4.279 -0.7314 -0.4835 -0.0418
 5532TIP3   OH216601   2.253   2.489   0.906 -0.1802  0.4460  0.3443
 5532TIP3    H116602   2.280   2.422   0.968  0.5012 -1.4419 -1.8541
 5532TIP3    H216603   2.315   2.561   0.919  0.1053 -0.0080  1.6273
 5533TIP3   OH216604   5.413   2.928   4.077 -0.3184 -0.0107  0.1142
 5533TIP3    H116605   5.398   2.933   4.171  0.8501 -1.2958  0.3996
 5533TIP3    H216606   5.329   2.953   4.038 -0.0982  3.2097  1.4070
 5534TIP3   OH216607   3.954   0.616   4.870 -0.1445  0.4739 -0.1164
 5534TIP3    H116608   3.871   0.646   4.833  0.4473  0.1309 -1.8217
 5534TIP3    H216609   4.021   0.663   4.821  0.7057 -0.6412 -0.0728
 5535TIP3   OH216610   1.566   4.645   0.522 -0.1470 -0.2867  0.0169
 5535TIP3    H116611   1.516   4.725   0.533 -2.3206 -1.2218 -2.1653
 5535TIP3    H216612   1.516   4.578   0.568 -0.3124 -1.0268 -1.1985
 5536TIP3   OH216613   5.496   1.692   1.272 -0.2166 -0.0958  0.9068
 5536TIP3    H116614   5.514   1.688   1.178 -2.6037  2.7436  0.1876
 5536TIP3    H216615   5.448   1.611   1.290  0.2378 -0.6629 -0.3178
 5537TIP3   OH216616   3.297   3.888   1.215  0.3921 -0.0977 -0.0696
 5537TIP3    H116617   3.304   3.961   1.155  0.9474  0.1096  0.2404
 5537TIP3    H216618   3.203   3.873   1.224  0.2207  1.3666  0.8034
 5538TIP3   OH216619   1.642   2.768   3.203  0.5533 -0.0994  0.0016
 5538TIP3    H116620   1.658   2.811   3.287  0.3582  1.3207 -0.6552
 5538TIP3    H216621   1.713   2.799   3.147 -0.5019  0.6850 -0.9464
 5539TIP3   OH216622   2.933   3.339   0.068 -0.2572  0.5194  0.2945
 5539TIP3    H116623   2.919   3.380   0.153 -1.1455 -0.0686  0.4448
 5539TIP3    H216624   3.026   3.317   0.067  0.1101  1.9680  0.4519
 5540TIP3   OH216625   6.095   2.609   4.965 -0.6930 -0.5765 -0.9954
 5540TIP3    H116626   6.178   2.578   5.001 -0.2865  0.4157 -1.0174
 5540TIP3    H216627   6.120   2.684   4.911 -1.6212 -0.1726 -0.8796
 5541TIP3   OH216628   5.079   1.566   5.009  0.0430 -0.2022 -0.4746
 5541TIP3    H116629   5.133   1.583   4.931  0.5708  1.2948  0.1839
 5541TIP3    H216630   5.143   1.541   5.076  0.1973  2.9519  0.7155
 5542TIP3   OH216631   1.610   4.275   1.497 -0.8625 -0.9208 -0.4108
 5542TIP3    H116632   1.559   4.258   1.417 -1.1321 -1.5885 -0.1010
 5542TIP3    H216633   1.562   4.346   1.541 -0.1046  0.2342 -1.3756
 5543TIP3   OH216634   1.149   0.775   0.588 -0.0471 -0.0603 -0.1947
 5543TIP3    H116635   1.154   0.835   0.514 -1.0353  0.5913  0.2418
 5543TIP3    H216636   1.142   0.832   0.664 -1.6826 -0.7147  0.1833
 5544TIP3   OH216637   6.065   4.389   4.753 -0.7132  0.0977  0.1839
 5544TIP3    H116638   6.075   4.295   4.742 -0.7342  0.1213 -0.0625
 5544TIP3    H216639   6.113   4.410   4.832  0.5177  0.0928 -0.5365
 5545TIP3   OH216640   2.889   5.426   0.044 -0.0830 -0.5664  0.5216
 5545TIP3    H116641   2.896   5.333   0.064  1.3952 -0.4360  0.7685
 5545TIP3    H216642   2.946   5.438  -0.032  1.8708  0.5240  2.0425
 5546TIP3   OH216643   1.103   2.771   4.139  0.1274 -0.4796  0.2621
 5546TIP3    H116644   1.033   2.810   4.191 -0.5169 -1.4935  0.1847
 5546TIP3    H216645   1.155   2.721   4.202  0.7318  0.1663  0.2980
 5547TIP3   OH216646   0.155   4.179   4.930  0.7991 -0.2234  0.0955
 5547TIP3    H116647   0.104   4.098   4.936  2.2938 -1.3811 -1.4843
 5547TIP3    H216648   0.118   4.226   4.855  1.1000 -0.3583 -0.1416
 5548TIP3   OH216649   4.788   2.824   3.792 -0.2979 -0.5724 -0.2368
 5548TIP3    H116650   4.871   2.830   3.745 -0.1660 -1.9794 -0.2262
 5548TIP3    H216651   4.768   2.730   3.794 -0.6504 -0.5010  1.9138
 5549TIP3   OH216652   1.230   4.503   2.172 -0.5010 -0.1890  0.0169
 5549TIP3    H116653   1.275   4.436   2.223 -0.4970  1.0259  1.6597
 5549TIP3    H216654   1.139   4.475   2.171 -0.1197 -1.6231 -1.6755
 5550TIP3   OH216655   3.529   5.347   2.813 -0.0206  0.5977  0.4912
 5550TIP3    H116656   3.611   5.395   2.818 -1.2931  2.8813  0.9665
 5550TIP3    H216657   3.551   5.258   2.840  2.6626  0.5742 -1.4198
 5551TIP3   OH216658   4.594   3.652   0.808 -0.0844 -0.0365 -0.1457
 5551TIP3    H116659   4.554   3.596   0.875 -1.0606  1.7825  0.8529
 5551TIP3    H216660   4.592   3.740   0.846 -0.1393  0.9675 -2.3420
 5552TIP3   OH216661   5.933   0.285   4.967  0.2789  0.4735  0.0215
 5552TIP3    H116662   5.851   0.238   4.980 -0.1495  0.9956 -0.6965
 5552TIP3    H216663   5.915   0.374   4.999 -0.4949  1.5108 -2.9562
 5553TIP3   OH216664   3.628   2.718   3.646 -0.2359 -0.1150 -0.1086
 5553TIP3    H116665   3.648   2.717   3.740 -0.5537  0.3617 -0.0343
 5553TIP3    H216666   3.604   2.628   3.626 -1.7378  0.0996  0.6104
 5554TIP3   OH216667   0.536   2.330   2.770  0.3885  0.0056  0.0613
 5554TIP3    H116668   0.592   2.253   2.765  2.2160  1.3754 -1.6936
 5554TIP3    H216669   0.595   2.402   2.790 -0.9825  1.2713 -0.2849
 5555TIP3   OH216670   4.603   3.360   3.653 -0.1687 -0.2756  0.2722
 5555TIP3    H116671   4.662   3.294   3.617 -0.2597  0.1330 -0.6656
 5555TIP3    H216672   4.624   3.440   3.605 -1.5104 -0.1317 -0.1396
 5556TIP3   OH216673   2.060   5.286   2.740 -0.0007  0.0044  0.2785
 5556TIP3    H116674   2.111   5.222   2.790 -0.8891 -0.8416  0.1321
 5556TIP3    H216675   2.054   5.362   2.798  2.2591  0.5408 -0.0881
 5557TIP3   OH216676   4.273   0.040   2.037 -0.4942  0.2948  0.0613
 5557TIP3    H116677   4.224  -0.037   2.007 -1.4125  1.5327 -1.7451
 5557TIP3    H216678   4.213   0.084   2.097 -0.9990  0.9391 -0.8911
 5558TIP3   OH216679   3.833   2.257   2.124  0.1472  0.4044 -0.4020
 5558TIP3    H116680   3.865   2.347   2.134 -1.1876  1.0587 -1.6478
 5558TIP3    H216681   3.899   2.215   2.069  0.7307  0.6217  0.1051
 5559TIP3   OH216682   1.943   4.769   1.480 -0.0339  0.5347  0.1179
 5559TIP3    H116683   1.853   4.795   1.460 -0.4329 -0.3928  0.6832
 5559TIP3    H216684   1.952   4.682   1.442  0.7311  0.7355 -0.1883
 5560TIP3   OH216685   0.009   2.655   1.632 -0.6067 -0.2892 -0.2272
 5560TIP3    H116686  -0.019   2.635   1.721  1.6413 -0.9533  0.3929
 5560TIP3    H216687   0.082   2.595   1.616  0.1054  0.9582 -1.9161
 5561TIP3   OH216688   3.988   3.288   2.123  0.1670 -0.0672  0.1782
 5561TIP3    H116689   3.921   3.298   2.190  1.5613  1.1583  1.4523
 5561TIP3    H216690   3.972   3.200   2.087 -1.1747 -0.3969  1.4571
 5562TIP3   OH216691   1.150   4.844   4.392 -0.0448 -0.4861  0.1458
 5562TIP3    H116692   1.217   4.780   4.368 -3.0082 -3.6159 -0.4766
 5562TIP3    H216693   1.190   4.929   4.372  3.6285 -2.1430 -0.2613
 5563TIP3   OH216694   4.338   1.318   1.635 -0.1800  0.4016  0.1707
 5563TIP3    H116695   4.316   1.411   1.637 -0.0058  0.4368  0.6380
 5563TIP3    H216696   4.364   1.301   1.545  2.3448  1.4095  0.6507
 5564TIP3   OH216697   1.713   3.682   1.736 -0.1283 -0.2444  0.7516
 5564TIP3    H116698   1.774   3.744   1.696  0.0024  0.1408  1.5286
 5564TIP3    H216699   1.632   3.731   1.745 -0.2943 -0.4773  0.5363
 5565TIP3   OH216700   0.066   5.090   3.287 -0.0146  0.4060  0.1788
 5565TIP3    H116701  -0.007   5.151   3.299 -0.0661  0.1733  1.2153
 5565TIP3    H216702   0.036   5.029   3.220 -0.3018  1.0143 -0.2482
 5566TIP3   OH216703   5.763   3.964   4.831 -0.0543  0.0689 -0.3641
 5566TIP3    H116704   5.780   3.891   4.891 -0.8661 -0.7085 -1.0515
 5566TIP3    H216705   5.722   4.031   4.887 -2.4869 -1.3323 -0.3075
 5567TIP3   OH216706   5.923   2.340   2.865  0.0239 -0.1427 -0.0293
 5567TIP3    H116707   5.914   2.426   2.907  0.6143 -0.4582  0.7636
 5567TIP3    H216708   5.912   2.277   2.936  2.3129 -0.6581 -0.0692
 5568TIP3   OH216709   2.549   3.502   4.355  0.0773 -0.0536 -0.3654
 5568TIP3    H116710   2.615   3.549   4.406 -0.1873  0.0706 -0.1347
 5568TIP3    H216711   2.501   3.450   4.419 -0.6439  0.5613 -0.3957
 5569TIP3   OH216712   3.784   5.181   3.074 -0.4782 -0.0256  0.6783
 5569TIP3    H116713   3.826   5.184   2.988 -0.6920 -1.0951  0.5247
 5569TIP3    H216714   3.839   5.237   3.129 -0.0524  0.2660 -0.0254
 5570TIP3   OH216715   5.424   1.771   0.964 -0.2476 -0.1227  0.1038
 5570TIP3    H116716   5.456   1.686   0.933  2.0948  0.3798  0.9498
 5570TIP3    H216717   5.367   1.802   0.893  1.0870 -1.1594 -1.4852
 5571TIP3   OH216718   5.014   4.946   4.545 -0.2430 -0.7104 -0.2019
 5571TIP3    H116719   4.920   4.939   4.562 -0.6971  0.0944 -2.1059
 5571TIP3    H216720   5.031   4.881   4.477  0.3538 -0.1730 -0.5819
 5572TIP3   OH216721   0.603   2.374   2.082  0.0076  0.1389 -0.6129
 5572TIP3    H116722   0.574   2.457   2.045 -1.4270  1.4106  2.9898
 5572TIP3    H216723   0.699   2.381   2.083  0.0924  0.3323 -3.1518
 5573TIP3   OH216724   2.911   5.558   4.634 -0.1367 -0.4141 -0.6089
 5573TIP3    H116725   2.929   5.633   4.690 -3.0912  0.7657 -1.0890
 5573TIP3    H216726   2.818   5.541   4.646 -1.0697  0.1104 -5.2950
 5574TIP3   OH216727   1.102   5.272   2.165 -0.5022  0.0205  0.6489
 5574TIP3    H116728   1.099   5.306   2.075  0.5882  0.7028  0.8487
 5574TIP3    H216729   1.015   5.234   2.179 -0.5843 -0.3848 -0.8021
 5575TIP3   OH216730   5.171   5.532   3.858  0.1301 -0.0863 -0.4603
 5575TIP3    H116731   5.191   5.452   3.907 -0.6742  0.0044  0.0378
 5575TIP3    H216732   5.129   5.589   3.922 -0.7204  0.1278 -1.1902
 5576TIP3   OH216733   5.969   3.916   0.237  0.7223 -0.5496  0.1287
 5576TIP3    H116734   5.973   3.982   0.306 -1.6233  0.7828 -0.8857
 5576TIP3    H216735   5.991   3.964   0.157 -1.5225 -0.7904 -0.7023
 5577TIP3   OH216736   0.788   3.661   4.433 -0.5882  1.0107  0.3367
 5577TIP3    H116737   0.829   3.747   4.430  2.0263 -0.1278  0.0745
 5577TIP3    H216738   0.791   3.629   4.342  1.4534 -0.5441  0.8703
 5578TIP3   OH216739   5.858   2.924   4.588 -0.1980  0.3401  0.1727
 5578TIP3    H116740   5.813   2.973   4.520  0.0736  0.4425  0.0665
 5578TIP3    H216741   5.935   2.887   4.545  0.3045  0.9085  0.5571
 5579TIP3   OH216742   3.537   3.047   1.021 -0.5015 -0.4796  0.0122
 5579TIP3    H116743   3.443   3.032   1.034 -0.1190 -2.0137  1.2371
 5579TIP3    H216744   3.563   2.982   0.956 -0.4816  0.7350 -1.2458
 5580TIP3   OH216745   0.792   3.544   4.182  0.1278 -0.0080  0.3308
 5580TIP3    H116746   0.765   3.598   4.108  2.2504 -0.4675 -0.8814
 5580TIP3    H216747   0.882   3.570   4.199  1.9586 -4.2172 -1.5264
 5581TIP3   OH216748   1.068   3.949   2.018  0.2771  0.0037 -0.5541
 5581TIP3    H116749   1.068   4.045   2.028  0.1525  0.0066 -0.5869
 5581TIP3    H216750   1.012   3.933   1.943  0.7151 -0.0615 -0.8723
 5582TIP3   OH216751   4.765   3.867   3.110 -0.0551  0.4132  0.2278
 5582TIP3    H116752   4.799   3.915   3.034 -0.5578 -0.3097 -0.4724
 5582TIP3    H216753   4.692   3.816   3.075 -0.9490  0.8373  1.4106
 5583TIP3   OH216754   3.924   5.470   3.058 -0.3119 -0.7478  0.3994
 5583TIP3    H116755   3.892   5.559   3.046 -0.3206 -0.8735 -0.6044
 5583TIP3    H216756   3.912   5.452   3.151  1.7696  1.1088  1.1228
 5584TIP3   OH216757   0.436   3.785   5.163 -0.1740  0.5371  0.2123
 5584TIP3    H116758   0.394   3.869   5.183 -2.0648 -0.2154 -0.4005
 5584TIP3    H216759   0.438   3.782   5.067 -0.0615 -0.0923  0.2338
 5585TIP3   OH216760   1.092   2.318   3.883 -0.3447  0.1372  0.0111
 5585TIP3    H116761   1.049   2.232   3.888 -0.5531  0.2802  0.9649
 5585TIP3    H216762   1.077   2.348   3.794  0.4429 -1.1838 -0.6010
 5586TIP3   OH216763   0.927   4.801   2.303 -0.0595 -0.3459  0.0377
 5586TIP3    H116764   0.972   4.878   2.336 -1.2463  0.6130 -0.5091
 5586TIP3    H216765   0.971   4.780   2.221  0.5250 -0.5126  0.3852
 5587TIP3   OH216766   3.101   5.522   3.554  0.0188 -0.3240  0.5343
 5587TIP3    H116767   3.195   5.543   3.557  0.1554 -1.0683  2.3164
 5587TIP3    H216768   3.060   5.585   3.613 -0.6951  0.2593 -0.5401
 5588TIP3   OH216769   3.421   4.715   1.428 -0.0776 -0.9169  0.0602
 5588TIP3    H116770   3.505   4.693   1.466 -0.1815 -1.1134  0.1789
 5588TIP3    H216771   3.404   4.645   1.364  0.6024 -0.0161 -1.1509
 5589TIP3   OH216772   2.702   5.477   2.047  0.0327  0.1511  0.1001
 5589TIP3    H116773   2.688   5.564   2.010  0.7268  0.1892 -0.0901
 5589TIP3    H216774   2.789   5.451   2.015  0.6374  0.1573  1.6554
 5590TIP3   OH216775   0.350   3.875   3.792  0.2500  0.3484  0.1775
 5590TIP3    H116776   0.320   3.918   3.712  0.1356 -0.5356 -0.2683
 5590TIP3    H216777   0.402   3.941   3.837  1.0256  0.5906 -1.0398
 5591TIP3   OH216778   3.777   4.493   0.792  0.1967 -0.1803 -0.3077
 5591TIP3    H116779   3.780   4.534   0.705 -1.7758 -2.1068 -1.3803
 5591TIP3    H216780   3.851   4.431   0.791 -0.6610 -1.2397 -1.2405
 5592TIP3   OH216781   0.648   4.348   2.824  0.5139 -0.0505 -0.2811
 5592TIP3    H116782   0.726   4.355   2.878  0.4028 -0.0563 -0.1209
 5592TIP3    H216783   0.576   4.337   2.886  0.3952 -0.1272 -0.4313
 5593TIP3   OH216784   0.030   0.384   1.965  0.1260 -0.4535  0.0040
 5593TIP3    H116785  -0.005   0.327   2.033 -0.4152  0.8240  0.8307
 5593TIP3    H216786   0.125   0.374   1.972  0.0931 -0.0410  1.2158
 5594TIP3   OH216787   5.789   4.202   1.409  0.1396 -0.0695 -0.7605
 5594TIP3    H116788   5.693   4.203   1.404  0.1140 -0.4172 -0.3462
 5594TIP3    H216789   5.817   4.234   1.324 -0.3334 -1.3662 -1.4250
 5595TIP3   OH216790   2.590   4.386   3.629  0.5493  0.2076 -0.0714
 5595TIP3    H116791   2.575   4.369   3.722 -2.5491 -0.8131 -0.6345
 5595TIP3    H216792   2.506   4.366   3.587  2.2829 -0.9937 -3.3279
 5596TIP3   OH216793   2.033   2.102   3.863 -0.0996 -0.2802 -0.0245
 5596TIP3    H116794   1.986   2.152   3.929 -0.9482 -2.0649  0.8019
 5596TIP3    H216795   1.966   2.071   3.802  0.6849  1.5127 -1.9393
 5597TIP3   OH216796   2.584   2.831   2.166 -0.5219  0.1408  0.2736
 5597TIP3    H116797   2.664   2.795   2.203 -0.5748 -1.3720 -0.9553
 5597TIP3    H216798   2.577   2.790   2.080 -2.7214  0.0417  0.4356
 5598TIP3   OH216799   5.845   2.840   1.426 -0.0976 -0.1149  0.4561
 5598TIP3    H116800   5.773   2.833   1.489 -2.0617 -3.7049 -1.8687
 5598TIP3    H216801   5.918   2.796   1.469 -1.1984 -1.8872  0.6059
 5599TIP3   OH216802   2.061   2.622   2.693 -0.4482  0.3204  0.2662
 5599TIP3    H116803   2.037   2.542   2.647 -2.6076  1.3292 -0.5378
 5599TIP3    H216804   2.019   2.614   2.779  2.3745 -0.9250  1.6507
 5600TIP3   OH216805   0.750   4.160   1.304  0.1483 -0.2122  0.3216
 5600TIP3    H116806   0.768   4.173   1.397 -0.0127  2.5902  0.0353
 5600TIP3    H216807   0.696   4.235   1.279  0.3548 -0.7928 -2.0805
 5601TIP3   OH216808   5.585   2.611   1.086 -0.0234  0.0372 -0.2734
 5601TIP3    H116809   5.562   2.681   1.024  0.5460  0.9817  0.5663
 5601TIP3    H216810   5.672   2.634   1.117 -0.4257 -0.2515  1.1180
 5602TIP3   OH216811   1.677   2.300   0.257 -0.7291 -0.4905 -0.7210
 5602TIP3    H116812   1.677   2.394   0.237 -0.9641  0.0050  1.3685
 5602TIP3    H216813   1.585   2.275   0.253 -0.6884 -0.5958 -1.0575
 5603TIP3   OH216814   5.511   0.180   3.157 -0.4128  0.5209 -0.3868
 5603TIP3    H116815   5.571   0.255   3.153  1.0244 -0.5439  0.2418
 5603TIP3    H216816   5.535   0.126   3.082  0.1022 -0.3892  0.4074
 5604TIP3   OH216817   0.475   2.431   4.109  0.0307 -0.0983 -0.0268
 5604TIP3    H116818   0.547   2.486   4.076 -0.3315  1.4201  1.6023
 5604TIP3    H216819   0.407   2.493   4.136 -2.3267 -1.5049 -2.2984
 5605TIP3   OH216820   4.343   0.737   1.865 -0.5460  0.1861  0.1146
 5605TIP3    H116821   4.379   0.650   1.844 -1.3242 -0.7113  2.2459
 5605TIP3    H216822   4.265   0.719   1.917 -2.5431  2.1352 -1.9217
 5606TIP3   OH216823   1.991   3.893   1.239 -0.0227 -0.4135 -0.9767
 5606TIP3    H116824   2.075   3.937   1.255  0.1800 -0.7024 -1.2516
 5606TIP3    H216825   2.014   3.804   1.214 -0.4473 -0.8130 -0.0203
 5607TIP3   OH216826   6.017   2.546   2.070 -0.0542  0.4466  0.0376
 5607TIP3    H116827   6.024   2.624   2.125  0.6817  0.2258  0.2646
 5607TIP3    H216828   6.061   2.477   2.121 -2.2944 -0.5905  0.7058
 5608TIP3   OH216829   0.419   1.959   2.950  0.8203  0.5631 -0.0551
 5608TIP3    H116830   0.485   1.910   2.900  1.0334 -1.9154  2.4170
 5608TIP3    H216831   0.470   2.009   3.014  0.4369 -0.4808  1.1198
 5609TIP3   OH216832   2.456   3.430   4.124  0.0233  0.8793 -0.2289
 5609TIP3    H116833   2.362   3.429   4.139  0.1145 -1.6563  0.8093
 5609TIP3    H216834   2.494   3.438   4.211  0.7110 -0.6499 -0.3559
 5610TIP3   OH216835   4.666   5.385   1.310  0.2859  0.1016  0.4027
 5610TIP3    H116836   4.754   5.396   1.273  0.5359  2.1816  1.4513
 5610TIP3    H216837   4.681   5.348   1.397 -0.1074 -1.9828 -0.3502
 5611TIP3   OH216838   0.051   2.365   1.005 -0.5149 -0.2591  0.6283
 5611TIP3    H116839   0.029   2.272   1.011 -2.0488 -0.2249 -2.5599
 5611TIP3    H216840  -0.008   2.407   1.068 -0.6652 -1.3252  1.2235
 5612TIP3   OH216841   0.722   5.221   3.162  0.2674  0.1843 -0.0811
 5612TIP3    H116842   0.710   5.174   3.244  0.0093  3.1109  1.7103
 5612TIP3    H216843   0.808   5.192   3.130  0.6524 -0.5844  1.5454
 5613TIP3   OH216844   3.613   4.760   3.640  0.7562  0.7415  0.3106
 5613TIP3    H116845   3.632   4.777   3.732 -1.8453  1.0226  0.8907
 5613TIP3    H216846   3.693   4.720   3.605  1.7877  0.5811  2.6897
 5614TIP3   OH216847   6.155   1.252   2.863  0.6034 -0.5742 -0.0890
 5614TIP3    H116848   6.158   1.196   2.941  2.8032 -0.2651  0.1328
 5614TIP3    H216849   6.071   1.232   2.822  0.2802 -2.2553  1.2603
 5615TIP3   OH216850   3.885   4.532   4.383  0.2662  0.4046  0.4187
 5615TIP3    H116851   3.914   4.588   4.455  1.1807  1.9832 -1.1080
 5615TIP3    H216852   3.790   4.542   4.382  0.3593  1.4335  0.5922
 5616TIP3   OH216853   2.644   1.527   3.098  0.0482 -0.1559  0.0496
 5616TIP3    H116854   2.694   1.535   3.180  0.8161 -0.1626 -0.4086
 5616TIP3    H216855   2.570   1.587   3.109  0.1779 -0.1053  0.7185
 5617TIP3   OH216856   0.298   2.320   0.739  0.7187 -0.2860 -0.7831
 5617TIP3    H116857   0.382   2.281   0.762  0.3461 -0.5065  0.2769
 5617TIP3    H216858   0.244   2.246   0.711  0.6606 -0.2460 -0.7774
 5618TIP3   OH216859   2.008   2.088   2.568  0.4521 -0.0525 -0.3902
 5618TIP3    H116860   2.065   2.124   2.500 -0.5623  0.2451 -1.1039
 5618TIP3    H216861   2.000   1.995   2.545 -2.2594  0.5750 -2.4991
 5619TIP3   OH216862   4.612   4.294   1.945 -0.6668 -0.0724  0.0890
 5619TIP3    H116863   4.642   4.334   2.027 -0.4935  0.9315 -0.4446
 5619TIP3    H216864   4.690   4.253   1.908 -0.2337  1.2643 -0.5695
 5620TIP3   OH216865   1.868   0.703   4.056  0.4265  0.3384 -0.1412
 5620TIP3    H116866   1.808   0.629   4.066  0.0709  0.7232  0.6671
 5620TIP3    H216867   1.833   0.752   3.982 -0.9127  1.1401  0.9743
 5621TIP3   OH216868   4.369   1.159   1.069  0.2363 -0.1044  0.3032
 5621TIP3    H116869   4.377   1.064   1.080  1.0205 -0.0914 -0.1249
 5621TIP3    H216870   4.285   1.171   1.025  0.5933 -0.6791 -0.5578
 5622TIP3   OH216871   3.956   5.076   4.833 -0.3983 -0.7088  0.0943
 5622TIP3    H116872   3.901   5.154   4.825 -1.7167 -1.6246 -0.0871
 5622TIP3    H216873   4.045   5.110   4.841 -0.4857  0.7748 -3.4235
 5623TIP3   OH216874   0.739   2.119   2.470 -0.1280 -0.5282  0.0817
 5623TIP3    H116875   0.678   2.088   2.403 -0.4486  1.0794 -0.4253
 5623TIP3    H216876   0.683   2.163   2.535  0.3814 -0.0112  0.1823
 5624TIP3   OH216877   4.896   4.992   1.671  0.5031 -0.4668 -0.6780
 5624TIP3    H116878   4.889   5.081   1.705  0.9323 -1.0195  0.9430
 5624TIP3    H216879   4.898   5.003   1.575  0.6341  1.2561 -0.5078
 5625TIP3   OH216880   1.974   3.707   4.144  0.1239  0.0691 -0.5612
 5625TIP3    H116881   1.909   3.658   4.094 -0.0306 -0.6879  0.3462
 5625TIP3    H216882   1.930   3.789   4.168  0.2107  0.4512 -1.6524
 5626TIP3   OH216883   4.674   2.179   0.717  0.1642 -0.2021  0.6416
 5626TIP3    H116884   4.615   2.190   0.642  0.5936  0.2241  0.3607
 5626TIP3    H216885   4.635   2.233   0.786 -2.1689 -3.2358  1.9231
 5627TIP3   OH216886   5.058   3.229   2.637  0.0167  0.6124  0.7324
 5627TIP3    H116887   5.007   3.257   2.713  0.9189  2.7951  0.5998
 5627TIP3    H216888   5.118   3.163   2.672 -0.6582  0.4208  1.5691
 5628TIP3   OH216889   2.402   3.031   3.579 -0.0896 -0.0234 -0.1306
 5628TIP3    H116890   2.476   3.089   3.596  1.8385 -2.2951 -0.2898
 5628TIP3    H216891   2.383   3.043   3.486 -1.1198  1.8314  0.2784
 5629TIP3   OH216892   4.264   2.166   2.029 -0.3308 -0.2089 -0.6239
 5629TIP3    H116893   4.260   2.212   2.113  0.5379  0.7876 -1.0993
 5629TIP3    H216894   4.180   2.185   1.987 -0.0763  0.7967 -0.7128
 5630TIP3   OH216895   5.821   0.763   5.128  0.0936 -0.2294 -0.0090
 5630TIP3    H116896   5.764   0.827   5.170 -0.7154 -1.2444  0.4765
 5630TIP3    H216897   5.800   0.771   5.034 -1.4343 -1.1000  0.2199
 5631TIP3   OH216898   4.355   3.287   0.121 -0.8007  0.0668 -0.5214
 5631TIP3    H116899   4.360   3.208   0.068 -0.6803 -0.0707 -0.3087
 5631TIP3    H216900   4.316   3.353   0.064  0.7068  0.3503 -1.2904
 5632TIP3   OH216901   5.433   4.871   1.833  0.3683 -0.3540  0.7805
 5632TIP3    H116902   5.348   4.887   1.791  1.2163 -0.5738 -1.1304
 5632TIP3    H216903   5.414   4.875   1.927 -1.5442  0.6762  0.4168
 5633TIP3   OH216904   5.872   4.767   1.994  0.3019  0.0100 -0.4647
 5633TIP3    H116905   5.843   4.701   1.931  2.0877  0.1989 -1.5448
 5633TIP3    H216906   5.917   4.833   1.942  1.1613  0.5691  0.9137
 5634TIP3   OH216907   4.752   5.193   2.650  0.7173 -0.6683  0.1179
 5634TIP3    H116908   4.827   5.245   2.681  2.8693 -3.2323 -0.4495
 5634TIP3    H216909   4.760   5.194   2.555 -0.0490 -0.9025  0.0461
 5635TIP3   OH216910   2.509   2.564   4.862  0.1000 -0.0187  0.7796
 5635TIP3    H116911   2.429   2.539   4.909  0.3087  0.8175  1.6008
 5635TIP3    H216912   2.577   2.508   4.900  0.3192  0.8399  1.6964
 5636TIP3   OH216913   5.205   4.827   5.168  0.4240 -0.5271  0.3517
 5636TIP3    H116914   5.195   4.918   5.139 -1.1859  0.0786  2.5387
 5636TIP3    H216915   5.285   4.828   5.221 -0.0922 -0.1296  1.1464
 5637TIP3   OH216916   5.182   3.109   2.167 -0.1781  0.3145 -0.4131
 5637TIP3    H116917   5.232   3.104   2.086  0.1123 -3.1675 -0.1496
 5637TIP3    H216918   5.092   3.089   2.140 -0.4515  1.0648 -0.0975
 5638TIP3   OH216919   4.579   1.083   2.293  0.2885 -0.0514 -0.3186
 5638TIP3    H116920   4.577   1.001   2.342  1.8624 -1.2278 -2.0774
 5638TIP3    H216921   4.517   1.071   2.221  1.0808 -0.0570 -1.0333
 5639TIP3   OH216922   3.406   2.716   2.951  0.0994  0.2237  0.2061
 5639TIP3    H116923   3.377   2.807   2.946 -0.7767  0.1810  2.8898
 5639TIP3    H216924   3.326   2.666   2.967  0.6683 -0.9688 -0.5226
 5640TIP3   OH216925   0.425   2.643   0.828  0.5710  0.2493  0.6809
 5640TIP3    H116926   0.498   2.586   0.851  1.3028  0.5877 -0.6529
 5640TIP3    H216927   0.409   2.625   0.735 -0.2322  1.0677  0.6439
 5641TIP3   OH216928   0.617   5.842   1.609 -0.4141  0.2294  0.4581
 5641TIP3    H116929   0.577   5.795   1.536  0.1580  2.0550 -1.1223
 5641TIP3    H216930   0.558   5.828   1.683 -0.5897 -2.3525 -0.0897
 5642TIP3   OH216931   5.319   3.093   1.860  0.5392 -0.1024  0.0740
 5642TIP3    H116932   5.319   3.112   1.766 -0.4504  0.5157  0.1881
 5642TIP3    H216933   5.395   3.035   1.872  0.0371 -1.1120 -1.2945
 5643TIP3   OH216934   0.125   4.805   4.474 -0.0761  0.5571 -0.2579
 5643TIP3    H116935   0.089   4.827   4.560  0.8349 -0.2782  0.3518
 5643TIP3    H216936   0.111   4.885   4.422  2.3276  2.3882  1.6299
 5644TIP3   OH216937   5.837   5.068   1.803 -0.1847  0.3157 -0.1831
 5644TIP3    H116938   5.830   5.149   1.753  0.1649 -0.0511 -0.8465
 5644TIP3    H216939   5.909   5.020   1.762  1.4020  0.8050  1.8790
 5645TIP3   OH216940   3.071   0.201   0.819 -0.3143  0.1314  0.3003
 5645TIP3    H116941   3.123   0.130   0.782 -0.3643 -0.9173  2.1311
 5645TIP3    H216942   3.127   0.240   0.886 -0.6880  1.1604  0.0449
 5646TIP3   OH216943   2.865   5.742   1.628  0.7568  0.3120 -0.0067
 5646TIP3    H116944   2.930   5.746   1.558  1.1335  0.1103  0.3232
 5646TIP3    H216945   2.915   5.711   1.704  0.4565  0.9602  0.4661
 5647TIP3   OH216946   6.286   3.844   0.849 -0.0262 -0.3777 -0.1825
 5647TIP3    H116947   6.204   3.853   0.802  0.0319  0.1115 -0.1941
 5647TIP3    H216948   6.350   3.820   0.782  0.3889  1.8777 -0.6642
 5648TIP3   OH216949   4.185   3.058   4.070  0.3229  0.8254 -0.0149
 5648TIP3    H116950   4.113   3.118   4.089 -0.5978 -0.4193  0.5587
 5648TIP3    H216951   4.181   3.045   3.975 -0.1753  0.8076  0.0083
 5649TIP3   OH216952   3.315   0.656   1.528 -0.1081  0.4162 -0.3544
 5649TIP3    H116953   3.223   0.639   1.548  0.0251 -1.0736 -0.8947
 5649TIP3    H216954   3.357   0.570   1.531  1.5032  1.1828  0.9545
 5650TIP3   OH216955   2.717   2.726   2.577 -0.1515  0.1942 -0.2258
 5650TIP3    H116956   2.661   2.658   2.542 -0.0702  0.1037 -0.1796
 5650TIP3    H216957   2.798   2.720   2.526  0.5601 -0.9465  0.9925
 5651TIP3   OH216958   4.748   0.404   4.452  0.0923 -0.8727 -0.2093
 5651TIP3    H116959   4.743   0.333   4.388 -0.3747 -1.1043  0.0789
 5651TIP3    H216960   4.823   0.382   4.507 -0.5344 -1.5767  0.3845
 5652TIP3   OH216961   0.788   0.137   1.474 -0.1099 -0.3294  0.0575
 5652TIP3    H116962   0.795   0.213   1.417 -1.5297  0.6603  1.1240
 5652TIP3    H216963   0.812   0.063   1.419  1.6735  0.8949 -0.9129
 5653TIP3   OH216964   5.336   3.082   3.395 -0.3159  1.0293  0.3560
 5653TIP3    H116965   5.420   3.102   3.437 -0.0226  1.6893 -0.5166
 5653TIP3    H216966   5.332   3.142   3.320 -0.4075 -0.7168 -1.0999
 5654TIP3   OH216967   5.953   0.884   2.386  0.1600  0.3249  0.0908
 5654TIP3    H116968   5.878   0.924   2.431  0.5251 -0.4676  1.4771
 5654TIP3    H216969   6.030   0.918   2.432  0.7616  1.9653 -1.9888
 5655TIP3   OH216970   2.074   2.377   2.555 -0.1422  0.5916 -0.3339
 5655TIP3    H116971   2.045   2.391   2.465 -0.4181  0.6773 -0.2319
 5655TIP3    H216972   2.167   2.354   2.547 -0.4339 -0.4967 -0.7118
 5656TIP3   OH216973   2.967   3.388   1.723  0.2346 -0.4399  0.0612
 5656TIP3    H116974   3.057   3.372   1.751 -0.0328 -0.0395  1.2040
 5656TIP3    H216975   2.919   3.311   1.754  0.0770 -0.3674 -0.0034
 5657TIP3   OH216976   5.989   3.943   2.686  0.9265 -0.1561 -0.6432
 5657TIP3    H116977   6.030   4.030   2.685  1.8125 -0.5584 -0.1196
 5657TIP3    H216978   6.044   3.890   2.629  1.1845 -0.7203  0.1196
 5658TIP3   OH216979   3.961   3.087   1.254  0.3393  0.1391  0.6243
 5658TIP3    H116980   4.055   3.092   1.241 -0.0540  0.4650 -3.0381
 5658TIP3    H216981   3.938   3.170   1.297  1.4625  1.3296 -0.9554
 5659TIP3   OH216982   3.118   1.203   3.831 -0.1341  0.4021 -0.0542
 5659TIP3    H116983   3.102   1.182   3.739  3.2240 -3.9335  0.0186
 5659TIP3    H216984   3.072   1.135   3.879  0.3409  1.0176  1.3268
 5660TIP3   OH216985   2.363   3.831   0.054 -0.1176 -0.3096 -0.0273
 5660TIP3    H116986   2.327   3.822   0.142 -0.1289  0.6860  0.0814
 5660TIP3    H216987   2.364   3.742   0.019 -0.7793 -0.6220  0.7159
 5661TIP3   OH216988   2.078   3.416   4.660 -0.9745 -0.0036 -0.3182
 5661TIP3    H116989   2.148   3.481   4.661  1.2279 -2.2150  0.5490
 5661TIP3    H216990   2.004   3.460   4.702  1.0590  1.3274  2.2115
 5662TIP3   OH216991   4.911   5.664   0.366  0.0789  1.1510 -0.3331
 5662TIP3    H116992   4.974   5.729   0.332 -0.0947  1.1961 -0.5703
 5662TIP3    H216993   4.833   5.677   0.313 -0.1936  1.2149  0.0810
 5663TIP3   OH216994   0.251   3.620   1.993 -0.1761  0.5804 -0.7122
 5663TIP3    H116995   0.256   3.661   1.907 -2.0957  1.4281 -0.4833
 5663TIP3    H216996   0.169   3.570   1.990  0.6820 -0.9203  0.0037
 5664TIP3   OH216997   3.844   3.557   3.042  0.1698 -0.3082  0.9966
 5664TIP3    H116998   3.939   3.552   3.056  0.3622  0.9982  0.2671
 5664TIP3    H216999   3.817   3.635   3.089 -0.6195 -0.8547  1.4794
 5665TIP3   OH217000   5.938   0.759   1.010 -0.0226 -0.6051 -0.2258
 5665TIP3    H117001   5.875   0.689   0.993 -3.7857  2.2046  0.7264
 5665TIP3    H217002   5.949   0.802   0.926 -3.0196  1.4272  0.2433
 5666TIP3   OH217003   0.076   3.219   0.851 -0.1484  0.3775  0.2698
 5666TIP3    H117004   0.092   3.183   0.939 -1.0822 -0.0735  0.2612
 5666TIP3    H217005   0.083   3.144   0.793  1.0084  0.7672 -0.1199
 5667TIP3   OH217006   4.080   3.311   3.757  0.1249  0.2141  0.1321
 5667TIP3    H117007   4.082   3.371   3.831  1.1184  0.8109 -0.3523
 5667TIP3    H217008   4.160   3.332   3.707  0.8266 -1.9327  0.2781
 5668TIP3   OH217009   5.272   1.366   4.250 -0.4098 -0.0598  0.3017
 5668TIP3    H117010   5.352   1.400   4.288 -0.3147 -1.1116  1.0667
 5668TIP3    H217011   5.276   1.393   4.158  1.5757 -1.3903 -0.0669
 5669TIP3   OH217012   4.616   3.086   2.540 -0.1397  0.2365 -1.1548
 5669TIP3    H117013   4.639   3.037   2.620 -0.1187  1.3916 -0.4364
 5669TIP3    H217014   4.698   3.127   2.513  0.1118 -1.0249 -2.4294
 5670TIP3   OH217015   5.544   1.518   0.199 -0.0202 -0.4117  0.4344
 5670TIP3    H117016   5.469   1.471   0.235 -0.5515 -0.4457 -0.6872
 5670TIP3    H217017   5.519   1.539   0.110  0.2443  1.9617  0.8559
 5671TIP3   OH217018   4.351   4.030   4.060  0.5108 -0.0361 -0.0396
 5671TIP3    H117019   4.348   3.959   4.124  0.3141 -1.0987 -1.1976
 5671TIP3    H217020   4.440   4.064   4.065  0.8709 -0.9536 -0.0857
 5672TIP3   OH217021   1.958   1.013   3.500  0.3696  0.4331  0.1503
 5672TIP3    H117022   1.969   0.926   3.462 -1.3617  1.0207 -1.9555
 5672TIP3    H217023   2.044   1.055   3.492  0.6276 -0.2885 -1.0673
 5673TIP3   OH217024   1.743   0.178   2.868 -0.6203  0.2895  0.0790
 5673TIP3    H117025   1.778   0.229   2.795  0.0513 -2.5578 -1.7681
 5673TIP3    H217026   1.673   0.125   2.829 -1.7736  0.2646  2.0402
 5674TIP3   OH217027   0.395   2.696   4.194  0.0746  0.1716  0.0255
 5674TIP3    H117028   0.435   2.762   4.137 -1.2420  0.8146 -0.1989
 5674TIP3    H217029   0.409   2.730   4.283  0.8002 -0.0686  0.0092
 5675TIP3   OH217030   1.535   1.747   1.198 -0.0236 -0.1798 -0.7644
 5675TIP3    H117031   1.558   1.692   1.273  1.2565  0.1783 -0.8763
 5675TIP3    H217032   1.551   1.691   1.121  0.6352  0.1262 -0.8506
 5676TIP3   OH217033   2.879   2.610   1.126  0.0571 -0.1855  0.0693
 5676TIP3    H117034   2.965   2.591   1.164 -0.6423 -0.8422  1.4374
 5676TIP3    H217035   2.865   2.703   1.144  0.5767 -0.0178 -0.3781
 5677TIP3   OH217036   5.600   3.755   2.177 -0.2776  0.2664  0.4889
 5677TIP3    H117037   5.629   3.835   2.221  0.3730 -1.2045  2.9534
 5677TIP3    H217038   5.655   3.750   2.098  1.4042  1.0535  1.5401
 5678TIP3   OH217039   5.197   5.265   5.090 -0.2692  0.7926  0.7312
 5678TIP3    H117040   5.207   5.311   5.007  0.1382  0.8024  0.7845
 5678TIP3    H217041   5.144   5.188   5.069 -1.8274  1.7945  0.8257
 5679TIP3   OH217042   0.570   4.669   0.425  0.0250 -0.0031  0.4148
 5679TIP3    H117043   0.518   4.680   0.345 -1.0358  0.4606  1.1271
 5679TIP3    H217044   0.556   4.578   0.451  1.3050 -0.4894 -0.5254
 5680TIP3   OH217045   2.023   0.728   3.397 -0.0687  0.1627  0.1810
 5680TIP3    H117046   2.004   0.685   3.480  0.0563 -0.1753  0.0357
 5680TIP3    H217047   2.083   0.668   3.352 -2.1581 -0.9597 -1.2770
 5681TIP3   OH217048   5.820   2.663   1.213 -0.5944 -0.1223 -0.1279
 5681TIP3    H117049   5.835   2.731   1.278 -0.1031  0.1669 -0.5325
 5681TIP3    H217050   5.861   2.697   1.133  0.1371 -1.1231 -0.1993
 5682TIP3   OH217051   5.598   2.114   1.729  0.4256 -0.0871  0.0648
 5682TIP3    H117052   5.629   2.076   1.811  0.1110  0.3616  0.3997
 5682TIP3    H217053   5.503   2.122   1.740 -0.0644 -2.6924 -1.4567
 5683TIP3   OH217054   4.911   2.056   1.293  0.3452  0.2836  0.0861
 5683TIP3    H117055   4.905   2.106   1.374  0.5858  0.3520  0.0605
 5683TIP3    H217056   4.825   2.013   1.285  1.2842 -2.2288  1.9903
 5684TIP3   OH217057   4.601   3.004   3.732  0.3315  0.0444 -0.3552
 5684TIP3    H117058   4.549   2.942   3.681  0.2853  0.4761 -0.8388
 5684TIP3    H217059   4.659   2.949   3.785 -1.8047 -0.5401  1.5724
 5685TIP3   OH217060   4.501   3.336   2.444 -0.4955  0.0369 -0.2437
 5685TIP3    H117061   4.568   3.391   2.403  0.7785  0.7594  2.5472
 5685TIP3    H217062   4.546   3.252   2.459 -0.8231 -0.1162 -0.1153
 5686TIP3   OH217063   3.418   4.362   3.316 -0.2108 -0.6514 -0.2882
 5686TIP3    H117064   3.356   4.390   3.383 -0.1719 -0.4458 -0.3388
 5686TIP3    H217065   3.504   4.389   3.350 -0.3085  0.6695 -1.0374
 5687TIP3   OH217066   3.853   0.363   5.074  0.1856 -0.5586 -0.1060
 5687TIP3    H117067   3.920   0.431   5.071  0.1240 -0.4975 -0.1195
 5687TIP3    H217068   3.775   0.408   5.107  0.3995 -0.8359  0.7948
 5688TIP3   OH217069   3.231   3.933   2.159 -0.4579 -0.2116 -0.2103
 5688TIP3    H117070   3.225   4.000   2.227 -0.3507  0.9191 -1.2777
 5688TIP3    H217071   3.319   3.897   2.168 -0.6560 -0.4995  0.6291
 5689TIP3   OH217072   4.942   1.788   5.121 -0.0689 -0.4058 -0.1859
 5689TIP3    H117073   4.993   1.716   5.084  0.2270  0.8006 -2.3625
 5689TIP3    H217074   5.004   1.861   5.124 -1.3429  0.8688 -2.0889
 5690TIP3   OH217075   0.357   3.276   0.870  0.0878 -0.1822  0.4578
 5690TIP3    H117076   0.290   3.218   0.908 -0.1508  0.1847  0.5991
 5690TIP3    H217077   0.317   3.362   0.870  0.9521  0.2453  1.5420
 5691TIP3   OH217078   6.226   3.939   2.252  1.0112  0.2478 -0.0104
 5691TIP3    H117079   6.176   3.883   2.193 -0.0497  2.6056 -1.4840
 5691TIP3    H217080   6.296   3.974   2.199  1.8277  0.1591  0.9697
 5692TIP3   OH217081   4.608   0.344   1.498  0.0850  0.1985  0.2462
 5692TIP3    H117082   4.654   0.367   1.579  1.8615 -1.2387 -0.2997
 5692TIP3    H217083   4.660   0.385   1.429 -1.2581  1.1675 -0.2453
 5693TIP3   OH217084   3.429   1.338   2.718  0.2114  0.0276 -0.0698
 5693TIP3    H117085   3.334   1.344   2.710  0.1553  3.0288  1.3086
 5693TIP3    H217086   3.462   1.359   2.630 -0.4770  2.6013  0.1949
 5694TIP3   OH217087   5.597   3.074   3.507  0.2694 -0.0356  0.4177
 5694TIP3    H117088   5.689   3.078   3.482 -0.0380  0.8388 -0.6279
 5694TIP3    H217089   5.592   2.999   3.567  1.7049  0.1011  0.7444
 5695TIP3   OH217090   0.214   0.827   0.626  0.6664 -0.1645 -0.1677
 5695TIP3    H117091   0.233   0.749   0.679  0.0918  0.4761  1.0275
 5695TIP3    H217092   0.235   0.901   0.683 -0.1321  0.5556 -0.7718
 5696TIP3   OH217093   3.374   4.820   3.938 -0.0135  0.2771  0.6157
 5696TIP3    H117094   3.389   4.901   3.988 -0.1083  0.3282  0.5603
 5696TIP3    H217095   3.459   4.775   3.940 -0.4694 -0.5965  2.3872
 5697TIP3   OH217096   1.407   1.437   3.585 -0.0973  0.1442 -0.6710
 5697TIP3    H117097   1.470   1.428   3.656  0.3597  0.3104 -1.0506
 5697TIP3    H217098   1.344   1.502   3.617  0.7277  1.0591 -0.8387
 5698TIP3   OH217099   2.681   4.500   0.116 -0.1898 -0.0993 -0.0428
 5698TIP3    H117100   2.670   4.424   0.173 -1.3480 -0.0935 -0.2349
 5698TIP3    H217101   2.595   4.542   0.115  0.5933  1.5880  0.5826
 5699TIP3   OH217102   6.186   0.558   4.206 -0.0300 -0.1641  0.0107
 5699TIP3    H117103   6.147   0.645   4.214  2.1753  1.1659 -2.1789
 5699TIP3    H217104   6.144   0.520   4.128  1.3238  0.3704 -1.0254
 5700TIP3   OH217105   3.405   2.173   5.016 -0.8808 -0.2597  0.1556
 5700TIP3    H117106   3.405   2.130   5.101  2.2480 -0.9098 -0.0435
 5700TIP3    H217107   3.446   2.258   5.032 -0.1364 -0.4411 -0.6667
 5701TIP3   OH217108   6.138   5.422   1.351 -0.4504 -0.3718 -0.0834
 5701TIP3    H117109   6.149   5.371   1.270 -0.6035 -0.4965 -0.0251
 5701TIP3    H217110   6.118   5.357   1.418  0.8529 -0.4018  0.2987
 5702TIP3   OH217111   5.329   3.786   1.861 -0.0085 -0.0028 -0.5089
 5702TIP3    H117112   5.335   3.840   1.782 -0.7761 -0.8420 -1.1636
 5702TIP3    H217113   5.306   3.699   1.829  0.5836 -0.5772  0.5803
 5703TIP3   OH217114   4.407   0.218   4.915 -0.5221 -0.0110 -0.3724
 5703TIP3    H117115   4.455   0.230   4.998 -0.4318 -3.8678  0.2815
 5703TIP3    H217116   4.330   0.274   4.925  1.2369  2.4569  0.6654
 5704TIP3   OH217117   1.256   2.861   2.366  0.4121  0.1708  0.3262
 5704TIP3    H117118   1.243   2.932   2.303 -0.8079  0.4516  0.8596
 5704TIP3    H217119   1.182   2.802   2.349  0.6499 -0.2684  0.8119
 5705TIP3   OH217120   2.771   5.924   3.775 -0.3308 -0.0890  0.3372
 5705TIP3    H117121   2.705   5.888   3.834  0.2009 -1.2503  0.2553
 5705TIP3    H217122   2.826   5.849   3.753  1.9190  1.0824  1.5772
 5706TIP3   OH217123   1.755   5.893   2.379  0.2387 -0.4056 -0.1819
 5706TIP3    H117124   1.783   5.880   2.470 -0.3913 -1.2334 -0.0940
 5706TIP3    H217125   1.798   5.823   2.330 -1.1605 -1.3525 -0.1347
 5707TIP3   OH217126   5.558   1.303   2.489  0.5275  0.3834  0.4570
 5707TIP3    H117127   5.492   1.247   2.531 -0.3780  1.3229  0.3322
 5707TIP3    H217128   5.519   1.326   2.405  2.6803 -2.1766 -1.4058
 5708TIP3   OH217129   6.155   0.852   3.624  0.0693  0.1985 -0.0953
 5708TIP3    H117130   6.151   0.810   3.710  1.5561  0.8033  0.3145
 5708TIP3    H217131   6.078   0.820   3.577  0.1128 -1.4334  0.8837
 5709TIP3   OH217132   4.226   3.516   3.262 -0.0261  0.0536 -0.5348
 5709TIP3    H117133   4.139   3.479   3.280 -0.4371  1.2463  0.0463
 5709TIP3    H217134   4.208   3.603   3.226  0.9351  0.5313  0.0936
 5710TIP3   OH217135   3.051   1.786   3.210  0.4604 -0.0468 -0.0775
 5710TIP3    H117136   3.121   1.850   3.222  0.4974  0.0431 -0.7822
 5710TIP3    H217137   3.003   1.815   3.133 -0.6752  0.1777  0.6861
 5711TIP3   OH217138   3.175   0.875   0.713  0.6721 -0.6475 -0.3044
 5711TIP3    H117139   3.110   0.895   0.646 -0.4649 -0.3863  0.8314
 5711TIP3    H217140   3.165   0.781   0.729 -0.8602 -0.2726  1.2523
 5712TIP3   OH217141   1.382   1.366   1.210  0.4070 -0.1999 -0.1288
 5712TIP3    H117142   1.463   1.410   1.183  1.3136  0.4676  3.2404
 5712TIP3    H217143   1.315   1.435   1.206  0.9260  0.3941  1.0433
 5713TIP3   OH217144   2.431   4.978   3.105  0.2489 -0.2335 -0.5979
 5713TIP3    H117145   2.363   4.955   3.168  1.2805 -0.5784  0.4014
 5713TIP3    H217146   2.382   5.018   3.032 -0.9656  0.0420  0.3322
 5714TIP3   OH217147   0.630   5.012   3.689 -0.1158  0.6179  0.5599
 5714TIP3    H117148   0.563   4.956   3.728 -1.0811  1.3780  0.0272
 5714TIP3    H217149   0.594   5.038   3.605  1.6407 -0.4143 -0.5758
 5715TIP3   OH217150   2.192   2.367   1.973  0.1439 -0.3704  0.2501
 5715TIP3    H117151   2.245   2.288   1.975  0.4138 -0.2189  3.1261
 5715TIP3    H217152   2.255   2.439   1.978 -0.1920 -0.0586  0.0696
 5716TIP3   OH217153   2.125   5.644   3.875 -0.0152 -0.0358 -0.0480
 5716TIP3    H117154   2.070   5.660   3.798  1.4966  0.7824 -1.0049
 5716TIP3    H217155   2.071   5.671   3.949 -1.9032 -1.8230 -0.6872
 5717TIP3   OH217156   1.026   0.145   3.975 -0.5053  0.0782  0.0080
 5717TIP3    H117157   1.101   0.172   4.028  0.8683 -3.7045  0.2648
 5717TIP3    H217158   1.040   0.189   3.891  3.2655 -1.9670 -0.6432
 5718TIP3   OH217159   3.129   1.723   1.386 -0.4453 -0.1610 -0.8901
 5718TIP3    H117160   3.067   1.793   1.364  0.0443  1.1042  1.4387
 5718TIP3    H217161   3.076   1.643   1.384 -1.2150  0.3270 -2.7302
 5719TIP3   OH217162   3.115   3.072   3.841  0.1605  0.2342  0.0511
 5719TIP3    H117163   3.184   3.012   3.870  0.8635  1.2623  0.5609
 5719TIP3    H217164   3.046   3.062   3.908 -0.3930 -1.0943 -0.6795
 5720TIP3   OH217165   3.261   2.410   1.396 -0.0974 -0.1824 -0.2920
 5720TIP3    H117166   3.292   2.384   1.310 -1.0109 -1.2367 -0.3161
 5720TIP3    H217167   3.184   2.356   1.412 -0.1026  0.1877  1.0733
 5721TIP3   OH217168   2.621   0.060   5.147 -0.4523  0.4305 -0.5246
 5721TIP3    H117169   2.627  -0.011   5.083  0.1508 -0.1653  0.1777
 5721TIP3    H217170   2.707   0.102   5.145 -0.0680 -0.2694  0.6482
 5722TIP3   OH217171   4.251   1.922   1.915 -0.2044 -0.3417  0.0710
 5722TIP3    H117172   4.258   2.017   1.903 -2.0517 -0.3259 -1.4098
 5722TIP3    H217173   4.163   1.908   1.948  1.0744 -1.3884  3.4341
 5723TIP3   OH217174   5.508   4.223   1.480 -0.1184  0.7204 -0.1665
 5723TIP3    H117175   5.413   4.216   1.469 -0.0087  0.8429 -1.3276
 5723TIP3    H217176   5.521   4.232   1.575 -1.0925 -1.8137  0.2879
 5724TIP3   OH217177   5.038   3.548   4.161 -0.4156 -0.0736 -0.0133
 5724TIP3    H117178   5.088   3.469   4.182  0.7266  1.1241  2.1443
 5724TIP3    H217179   5.083   3.587   4.086 -0.1125 -0.6960 -0.1558
 5725TIP3   OH217180   0.422   1.871   3.372 -0.1838 -0.3280 -0.6560
 5725TIP3    H117181   0.486   1.803   3.394  0.5818  0.5054 -0.2531
 5725TIP3    H217182   0.461   1.952   3.403 -0.6838  0.4318 -1.9075
 5726TIP3   OH217183   5.837   5.355   4.285 -0.0412  0.1464  0.6594
 5726TIP3    H117184   5.762   5.299   4.304 -0.1293  0.0471  0.0280
 5726TIP3    H217185   5.823   5.385   4.195  0.7641 -0.0236  0.4654
 5727TIP3   OH217186   2.354   3.940   1.655 -0.3143  0.0208  0.4590
 5727TIP3    H117187   2.301   3.860   1.655 -1.2515  0.6161  0.2808
 5727TIP3    H217188   2.316   3.994   1.724 -1.2920  1.2922 -1.0015
 5728TIP3   OH217189   3.244   4.311   0.826 -0.0693 -0.3049  0.5189
 5728TIP3    H117190   3.189   4.302   0.748  0.0549  3.6752 -0.2212
 5728TIP3    H217191   3.182   4.307   0.899 -0.8332  0.3708 -0.0734
 5729TIP3   OH217192   3.740   0.351   0.637 -0.5254 -0.3674 -0.1660
 5729TIP3    H117193   3.653   0.312   0.650 -0.1473 -1.6370 -1.2288
 5729TIP3    H217194   3.762   0.331   0.546  0.9455 -0.1926  0.1298
 5730TIP3   OH217195   0.557   0.480   1.686 -0.0385 -0.0123 -0.4977
 5730TIP3    H117196   0.480   0.501   1.633  0.1409  0.1392 -0.6973
 5730TIP3    H217197   0.521   0.441   1.766 -0.3936  1.2938  0.0045
 5731TIP3   OH217198   4.769   0.663   1.167  0.0535  0.1718 -0.0296
 5731TIP3    H117199   4.797   0.643   1.078 -2.6130 -1.3165 -0.6686
 5731TIP3    H217200   4.716   0.742   1.158 -1.0774 -0.5466 -0.0350
 5732TIP3   OH217201   5.245   4.572   2.076 -0.5098 -0.1303  0.5442
 5732TIP3    H117202   5.314   4.516   2.113 -1.9470 -0.7463  2.4221
 5732TIP3    H217203   5.219   4.527   1.995 -0.4753 -1.2628  1.1458
 5733TIP3   OH217204   3.213   1.074   2.281 -0.0297  0.0166 -0.2599
 5733TIP3    H117205   3.155   1.012   2.235 -0.0495 -1.6195  1.8122
 5733TIP3    H217206   3.170   1.159   2.270 -0.2593 -0.3209 -2.7906
 5734TIP3   OH217207   2.337   3.707   3.946 -0.0980 -0.4119  0.5707
 5734TIP3    H117208   2.426   3.707   3.982  0.1437 -0.2455 -0.0130
 5734TIP3    H217209   2.300   3.790   3.975 -0.6611 -1.1920  2.2241
 5735TIP3   OH217210   5.198   0.029   3.873 -0.2655  0.5241  0.1250
 5735TIP3    H117211   5.272  -0.013   3.918  0.5596  0.8453 -0.8836
 5735TIP3    H217212   5.203  -0.004   3.783 -2.6499 -1.1239  0.4896
 5736TIP3   OH217213   3.306   1.707   2.511 -0.2387  0.5573 -0.0890
 5736TIP3    H117214   3.337   1.738   2.426 -1.0972 -1.7259 -1.3307
 5736TIP3    H217215   3.385   1.698   2.564  0.8341 -1.3780 -1.8749
 5737TIP3   OH217216   1.013   4.395   3.885  0.6558 -0.1216  0.2966
 5737TIP3    H117217   0.937   4.454   3.889  0.6200 -0.2000  0.9099
 5737TIP3    H217218   1.007   4.354   3.799 -0.3374 -0.5625  0.5620
 5738TIP3   OH217219   5.297   1.985   0.369 -0.4167  0.1716 -0.1315
 5738TIP3    H117220   5.363   1.929   0.327  1.7260  0.7346  2.2014
 5738TIP3    H217221   5.287   1.948   0.457 -0.7714  1.9819  0.6385
 5739TIP3   OH217222   3.921   0.175   2.950  0.0939  0.0037 -0.2389
 5739TIP3    H117223   3.899   0.174   3.043  0.3017 -0.5916 -0.1904
 5739TIP3    H217224   3.876   0.098   2.914  0.4516 -0.0748 -0.5254
 5740TIP3   OH217225   5.675   4.116   1.108  0.4815 -0.2203  0.5440
 5740TIP3    H117226   5.589   4.147   1.137  0.7817 -1.4629  3.0599
 5740TIP3    H217227   5.732   4.193   1.113  0.1820 -0.0658  2.0170
 5741TIP3   OH217228   4.510   1.888   3.063 -0.5574  0.1272 -0.5329
 5741TIP3    H117229   4.514   1.854   2.974  1.1216  0.5158 -0.6376
 5741TIP3    H217230   4.425   1.932   3.068 -1.7473 -1.9623 -1.1409
 5742TIP3   OH217231   6.192   4.764   1.904 -0.4150  0.5609  0.0307
 5742TIP3    H117232   6.149   4.801   1.826 -0.3202  1.3025  0.3227
 5742TIP3    H217233   6.280   4.801   1.902  0.1282 -0.6834 -0.3765
 5743TIP3   OH217234   0.928   1.508   3.578  0.0074 -0.4653 -0.1512
 5743TIP3    H117235   0.987   1.486   3.506 -0.4298  0.9404 -0.9945
 5743TIP3    H217236   0.850   1.454   3.562  0.2168 -0.7275 -0.2895
 5744TIP3   OH217237   2.746   0.740   2.645 -0.6398  0.3137  0.1113
 5744TIP3    H117238   2.835   0.719   2.615 -0.9647 -0.5562 -0.2518
 5744TIP3    H217239   2.760   0.804   2.715  0.2172  1.0092 -0.6739
 5745TIP3   OH217240   6.344   0.478   0.920 -0.1542 -0.1566  0.1343
 5745TIP3    H117241   6.380   0.486   1.008 -1.9565 -0.2451  0.9037
 5745TIP3    H217242   6.294   0.397   0.920 -1.7362  0.7624 -0.3556
 5746TIP3   OH217243   0.878   0.349   1.335  0.0186 -0.4420 -0.0789
 5746TIP3    H117244   0.949   0.413   1.330  0.5715 -0.9544  0.8930
 5746TIP3    H217245   0.824   0.366   1.257  0.1318  1.2089  0.1718
 5747TIP3   OH217246   5.716   5.839   4.120 -0.0440 -0.2478 -0.2075
 5747TIP3    H117247   5.635   5.829   4.071 -0.8647  1.6046  0.6647
 5747TIP3    H217248   5.716   5.765   4.181 -1.7587  0.3533  0.6174
 5748TIP3   OH217249   5.481   1.627   2.710 -0.0947  0.1603  0.2877
 5748TIP3    H117250   5.394   1.591   2.695  0.0628 -0.4217  0.7169
 5748TIP3    H217251   5.517   1.574   2.781  0.5224  0.5444  0.2743
 5749TIP3   OH217252   0.209   5.566   2.357 -0.4120  0.1192  0.5824
 5749TIP3    H117253   0.163   5.626   2.416 -1.2831  0.0962 -0.0567
 5749TIP3    H217254   0.140   5.530   2.301  0.5386  1.0880 -1.2830
 5750TIP3   OH217255   1.551   1.687   3.587  0.9353 -0.0606 -0.0511
 5750TIP3    H117256   1.524   1.596   3.593  2.7131 -0.6901 -0.8719
 5750TIP3    H217257   1.646   1.685   3.601  1.4172  1.3433 -2.4958
 5751TIP3   OH217258   0.478   0.966   4.700 -0.2528 -0.6531  0.1757
 5751TIP3    H117259   0.428   1.040   4.734  0.9150  0.4346 -0.3605
 5751TIP3    H217260   0.457   0.964   4.607  1.6166  0.6577 -0.3358
 5752TIP3   OH217261   4.764   2.946   1.462 -0.2327  0.1245  0.1568
 5752TIP3    H117262   4.743   2.959   1.554 -1.2149 -0.7731  0.0710
 5752TIP3    H217263   4.859   2.956   1.457 -0.3777  2.4640  0.8656
 5753TIP3   OH217264   0.525   0.635   1.980  0.0365 -0.7532  0.3093
 5753TIP3    H117265   0.561   0.721   1.957 -0.6172 -0.9180 -1.4716
 5753TIP3    H217266   0.591   0.573   1.948  0.4079 -0.9464  1.4060
 5754TIP3   OH217267   1.177   2.172   2.571 -0.6566  0.2771 -0.2639
 5754TIP3    H117268   1.165   2.077   2.564 -1.2851  0.4120 -1.1056
 5754TIP3    H217269   1.271   2.183   2.585 -0.6320 -0.4871  0.2003
 5755TIP3   OH217270   2.837   4.724   0.198 -0.1172 -0.1146  0.0637
 5755TIP3    H117271   2.766   4.735   0.134  0.5177 -0.9007 -0.8023
 5755TIP3    H217272   2.827   4.635   0.230 -0.9120  0.5277  1.6905
 5756TIP3   OH217273   4.029   4.361   2.319 -0.2065  0.2368 -0.3884
 5756TIP3    H117274   3.940   4.359   2.285 -0.1648 -0.4625 -0.4782
 5756TIP3    H217275   4.078   4.303   2.260  0.0084 -0.4666  0.4601
 5757TIP3   OH217276   2.887   0.839   0.148 -0.2076 -0.5506  0.5528
 5757TIP3    H117277   2.951   0.899   0.186  0.5341 -0.4985 -0.7288
 5757TIP3    H217278   2.882   0.864   0.056 -1.3173 -1.2219  0.4145
 5758TIP3   OH217279   6.157   5.779   3.999 -0.0796  0.2486 -0.4217
 5758TIP3    H117280   6.148   5.812   3.910  0.9408  0.0252 -0.6166
 5758TIP3    H217281   6.102   5.836   4.052 -0.6423  0.4210 -1.1845
 5759TIP3   OH217282   5.915   5.446   0.167  0.0127  0.0715  0.0185
 5759TIP3    H117283   5.921   5.423   0.074 -2.8814 -2.6002  0.3128
 5759TIP3    H217284   5.906   5.541   0.168 -1.7976  0.0378 -2.6566
 5760TIP3   OH217285   3.096   3.294   4.316  0.2145  1.1078  0.0997
 5760TIP3    H117286   3.167   3.306   4.252  0.1421  2.0598  0.1800
 5760TIP3    H217287   3.020   3.273   4.263  0.5035  0.2855 -0.0035
 5761TIP3   OH217288   2.749   1.839   1.791  0.6424 -0.3328 -1.0114
 5761TIP3    H117289   2.844   1.841   1.795  0.6691 -2.0412  0.3612
 5761TIP3    H217290   2.727   1.747   1.780 -0.8640 -0.1385 -0.0414
 5762TIP3   OH217291   0.138   4.540   3.390 -0.4235 -0.1290  0.0170
 5762TIP3    H117292   0.146   4.451   3.356  0.2902  0.2291 -0.7755
 5762TIP3    H217293   0.149   4.531   3.485 -2.5351 -1.1471  0.2308
 5763TIP3   OH217294   5.687   0.917   4.055  0.1805  0.2496  0.6499
 5763TIP3    H117295   5.602   0.937   4.094 -0.4349  0.5829 -0.7928
 5763TIP3    H217296   5.721   1.002   4.026 -0.2924 -0.1820 -1.2840
 5764TIP3   OH217297   5.391   2.353   1.582  0.4001 -0.3697 -0.2216
 5764TIP3    H117298   5.458   2.410   1.544  0.3389 -0.3167 -0.2496
 5764TIP3    H217299   5.319   2.412   1.604 -0.2798 -0.6404 -1.6305
 5765TIP3   OH217300   1.174   1.863   5.073  0.3792 -0.1046 -0.6521
 5765TIP3    H117301   1.099   1.912   5.038 -0.1966 -0.8594 -0.5207
 5765TIP3    H217302   1.182   1.894   5.164 -0.5269 -0.8535 -0.3027
 5766TIP3   OH217303   1.684   4.671   1.157 -0.6437 -0.0603  0.2581
 5766TIP3    H117304   1.605   4.629   1.123 -0.3365 -1.8183  1.6007
 5766TIP3    H217305   1.752   4.646   1.095 -0.9250  0.5984 -0.3324
 5767TIP3   OH217306   3.156   5.973   3.043 -0.4271  0.2201  0.4361
 5767TIP3    H117307   3.118   5.905   3.099  0.3779  0.3889  1.2037
 5767TIP3    H217308   3.121   6.055   3.077 -0.8005  0.2469 -0.0080
 5768TIP3   OH217309   3.264   1.256   0.217  0.3654  0.1139 -0.1680
 5768TIP3    H117310   3.356   1.270   0.194 -0.2463  1.0211 -2.2301
 5768TIP3    H217311   3.244   1.327   0.278  0.7531  0.5173 -0.5082
 5769TIP3   OH217312   0.035   1.574   2.064 -0.0604 -0.1874  0.0345
 5769TIP3    H117313  -0.012   1.595   2.145  1.7032  3.6531  0.2517
 5769TIP3    H217314   0.124   1.553   2.092  0.4114  0.5610 -0.8561
 5770TIP3   OH217315   0.276   0.367   3.006 -0.1781  0.4528  0.2782
 5770TIP3    H117316   0.324   0.450   3.010 -0.2998  0.4982  1.0605
 5770TIP3    H217317   0.229   0.363   3.089  0.3375 -0.7145  0.5393
 5771TIP3   OH217318   1.778   1.790   5.076  0.6477  0.0815 -0.0631
 5771TIP3    H117319   1.717   1.861   5.098  1.8278  1.6384 -1.5206
 5771TIP3    H217320   1.800   1.751   5.160 -2.2518 -0.5098  0.5201
 5772TIP3   OH217321   1.548   2.302   2.037 -0.1796  0.0080 -0.1224
 5772TIP3    H117322   1.554   2.210   2.060  1.1235  0.1953  0.3608
 5772TIP3    H217323   1.455   2.323   2.046 -0.4646 -1.2199 -0.1056
 5773TIP3   OH217324   1.769   1.484   3.671 -0.7136 -0.2112  0.4563
 5773TIP3    H117325   1.692   1.439   3.707 -1.0789 -0.8137 -0.9988
 5773TIP3    H217326   1.838   1.470   3.735 -1.6972 -0.0484  1.5770
 5774TIP3   OH217327   3.082   0.932   3.640  0.1912  0.4586  0.1882
 5774TIP3    H117328   3.064   1.022   3.612 -0.3347 -0.0100 -1.0441
 5774TIP3    H217329   3.106   0.886   3.559 -1.7516 -1.0445  0.3989
 5775TIP3   OH217330   1.087   1.832   4.119  0.2217  0.3922 -0.0886
 5775TIP3    H117331   1.056   1.886   4.191 -1.0241 -2.4688  1.6930
 5775TIP3    H217332   1.021   1.845   4.050 -0.9694 -0.0401  0.9261
 5776TIP3   OH217333   4.490   3.618   1.807 -0.4536 -0.0232  0.2319
 5776TIP3    H117334   4.453   3.592   1.722 -0.3619 -0.8054  0.4304
 5776TIP3    H217335   4.550   3.547   1.830  1.2860  1.2488 -0.1324
 5777TIP3   OH217336   3.811   0.962   4.939  0.2669 -0.4908 -0.2632
 5777TIP3    H117337   3.885   0.912   4.973  0.8917  0.3245 -0.3891
 5777TIP3    H217338   3.851   1.036   4.893 -0.6186 -0.2444 -0.6611
 5778TIP3   OH217339   0.315   1.446   4.231  0.5774 -0.3665  0.5536
 5778TIP3    H117340   0.332   1.398   4.311  1.0799  1.1490  1.3980
 5778TIP3    H217341   0.219   1.446   4.223  0.5879 -2.3719 -0.0619
 5779TIP3   OH217342   4.559   5.149   2.922 -0.1901 -0.4951  0.4282
 5779TIP3    H117343   4.639   5.191   2.890  0.4083  1.4462  4.0300
 5779TIP3    H217344   4.498   5.155   2.848  1.6400  1.8767 -1.0356
 5780TIP3   OH217345   3.560   2.970   3.094  0.8514  0.1391  0.8230
 5780TIP3    H117346   3.593   2.898   3.041  1.0196 -0.2489  1.4419
 5780TIP3    H217347   3.639   3.010   3.131  0.7395  0.4242  0.7520
 5781TIP3   OH217348   5.622   5.806   3.288  0.0288  0.2667  0.3525
 5781TIP3    H117349   5.609   5.796   3.194 -0.3375  2.5607  0.1005
 5781TIP3    H217350   5.684   5.878   3.297  0.6112 -0.3683  1.8700
 5782TIP3   OH217351   0.234   1.118   3.359 -0.1536  0.5440 -0.7009
 5782TIP3    H117352   0.155   1.167   3.339 -1.0866 -0.1070  1.1199
 5782TIP3    H217353   0.203   1.040   3.405  1.5632  1.2049  1.8544
 5783TIP3   OH217354   2.822   5.590   0.283 -0.2129  0.2319  0.2312
 5783TIP3    H117355   2.870   5.533   0.222  0.6487  0.9761  0.1984
 5783TIP3    H217356   2.887   5.653   0.313 -1.0185  0.8472  0.7148
 5784TIP3   OH217357   0.756   1.270   0.235 -0.3485 -0.4509  0.3557
 5784TIP3    H117358   0.832   1.309   0.278 -1.2334  1.2802  0.4138
 5784TIP3    H217359   0.783   1.259   0.143  0.0558 -0.1016  0.4331
 5785TIP3   OH217360   1.257   2.965   0.649 -0.2022  0.1242  0.0615
 5785TIP3    H117361   1.209   3.032   0.600 -0.9191 -1.3556 -1.3567
 5785TIP3    H217362   1.345   3.000   0.656  0.0744  0.2634 -2.7456
 5786TIP3   OH217363   1.095   5.646   3.970  0.3990 -0.2387 -0.0457
 5786TIP3    H117364   1.126   5.625   3.881  0.6945 -1.3394  0.3017
 5786TIP3    H217365   1.156   5.601   4.028  1.4045  2.0366  0.8073
 5787TIP3   OH217366   4.686   0.708   2.335  0.1872  0.4984  0.6907
 5787TIP3    H117367   4.764   0.690   2.283  0.2761 -0.8689  1.2492
 5787TIP3    H217368   4.617   0.725   2.271  0.3182 -1.0641  0.0910
 5788TIP3   OH217369   1.204   2.345   2.803  0.2588 -0.1434  0.7125
 5788TIP3    H117370   1.183   2.291   2.727  1.0864 -2.8519  2.2618
 5788TIP3    H217371   1.273   2.404   2.773 -1.0817  0.5718 -1.2038
 5789TIP3   OH217372   3.673   5.124   4.655  0.2810 -0.1384 -0.4244
 5789TIP3    H117373   3.578   5.129   4.670  0.2411  0.0618 -0.7307
 5789TIP3    H217374   3.710   5.188   4.717  0.1830  0.0767 -0.5850
 5790TIP3   OH217375   0.885   5.069   0.406  0.5741 -0.3693 -0.0613
 5790TIP3    H117376   0.915   5.031   0.489  3.4894  1.3085 -0.1887
 5790TIP3    H217377   0.846   4.996   0.359  0.1337 -1.6936  2.1953
 5791TIP3   OH217378   5.279   3.711   2.442 -0.0480 -0.2083 -0.4069
 5791TIP3    H117379   5.274   3.619   2.470  3.4589 -0.4531 -0.0254
 5791TIP3    H217380   5.238   3.760   2.513  0.3424 -1.3881  0.6827
 5792TIP3   OH217381   0.914   3.278   1.919  0.1633  0.1973  0.0840
 5792TIP3    H117382   0.905   3.183   1.912 -0.0779  0.1834  0.5522
 5792TIP3    H217383   0.849   3.313   1.857  0.1741  0.0606 -0.0055
 5793TIP3   OH217384   4.230   2.102   1.476  0.5018 -0.2224 -0.3350
 5793TIP3    H117385   4.198   2.013   1.460  0.1451 -0.5104  1.6635
 5793TIP3    H217386   4.167   2.139   1.538  0.8898  1.2869 -0.8097
 5794TIP3   OH217387   1.720   5.213   2.451 -0.0930 -0.4162 -0.2626
 5794TIP3    H117388   1.749   5.297   2.416 -1.0265  0.2921  0.5987
 5794TIP3    H217389   1.796   5.179   2.498  0.0299  0.3667  0.1198
 5795TIP3   OH217390   3.612   2.526   2.947  0.4497 -0.6249 -0.5208
 5795TIP3    H117391   3.689   2.581   2.958  0.5487 -0.7662 -0.5114
 5795TIP3    H217392   3.538   2.586   2.962  0.5229 -0.1941 -1.7482
 5796TIP3   OH217393   0.484   4.806   1.974 -0.3107  0.1026  0.0668
 5796TIP3    H117394   0.514   4.758   1.897 -0.4493 -1.1769  0.7658
 5796TIP3    H217395   0.427   4.874   1.940  0.2535  0.0551 -1.0077
 5797TIP3   OH217396   2.028   3.354   2.347  0.1929  0.4718  1.0009
 5797TIP3    H117397   2.093   3.310   2.291 -0.1635 -1.2163  1.8659
 5797TIP3    H217398   1.983   3.413   2.287  1.6221  0.7141  0.0913
 5798TIP3   OH217399   5.495   2.898   4.425  0.0128  0.2626  0.2041
 5798TIP3    H117400   5.549   2.821   4.439  0.2595  0.5859  1.1336
 5798TIP3    H217401   5.556   2.965   4.394 -0.1098  0.2288 -0.1111
 5799TIP3   OH217402   4.351   0.813   4.553 -0.2051 -0.1712 -0.1376
 5799TIP3    H117403   4.359   0.856   4.468 -0.7386 -0.1047 -0.1553
 5799TIP3    H217404   4.430   0.760   4.560 -0.1743 -0.2060 -0.6915
 5800TIP3   OH217405   4.839   0.120   2.441  0.2625 -0.6213  0.4659
 5800TIP3    H117406   4.886   0.204   2.448 -0.2152 -0.3039 -0.0467
 5800TIP3    H217407   4.747   0.144   2.439  0.0043 -1.3001  2.3753
 5801TIP3   OH217408   2.092   5.179   1.313 -0.0954 -0.2191 -0.2423
 5801TIP3    H117409   2.112   5.181   1.407 -1.0825 -1.8626  0.0505
 5801TIP3    H217410   2.138   5.254   1.277  1.0457 -0.0624  1.4192
 5802TIP3   OH217411   6.254   0.946   1.590 -0.0976  0.4460  0.1890
 5802TIP3    H117412   6.209   1.023   1.556 -0.5902  1.0724  2.1002
 5802TIP3    H217413   6.203   0.872   1.559 -2.0507  1.1072  1.6065
 5803TIP3   OH217414   4.314   5.104   0.219  0.6313 -0.3968 -0.4374
 5803TIP3    H117415   4.253   5.160   0.267  1.4605 -0.1540  0.3579
 5803TIP3    H217416   4.262   5.027   0.195  0.2374 -0.6046  1.0010
 5804TIP3   OH217417   1.370   5.632   4.902  0.3124 -0.3587  0.0772
 5804TIP3    H117418   1.451   5.634   4.953 -0.1658  0.4677  0.8426
 5804TIP3    H217419   1.322   5.557   4.937  0.9696 -1.1965 -0.7666
 5805TIP3   OH217420   4.134   2.837   0.176  0.3950  0.2789 -0.2012
 5805TIP3    H117421   4.134   2.926   0.211  1.5048  0.3943 -0.4425
 5805TIP3    H217422   4.192   2.841   0.101  0.7670 -0.7320  0.0124
 5806TIP3   OH217423   1.888   1.569   2.112 -0.8917  0.7781  0.3021
 5806TIP3    H117424   1.941   1.520   2.174  0.1847  0.5114 -0.7838
 5806TIP3    H217425   1.870   1.652   2.156  1.1627  1.2193  0.3969
 5807TIP3   OH217426   1.563   3.413   0.447  0.4432 -0.1483 -0.2063
 5807TIP3    H117427   1.494   3.348   0.460 -0.2410  0.5860 -0.0892
 5807TIP3    H217428   1.523   3.480   0.392  0.2241  1.4890  1.8068
 5808TIP3   OH217429   2.181   4.580   3.052 -0.0383 -0.5708 -0.4872
 5808TIP3    H117430   2.229   4.636   2.991 -1.8810 -0.7682 -2.1982
 5808TIP3    H217431   2.161   4.501   3.002 -1.2442 -0.9068  0.4734
 5809TIP3   OH217432   2.798   0.793   4.692 -0.1099 -0.0784  0.2921
 5809TIP3    H117433   2.749   0.718   4.724 -0.6584  0.5337  0.9257
 5809TIP3    H217434   2.733   0.863   4.684  0.2390  0.1102 -1.0808
 5810TIP3   OH217435   0.359   2.003   0.650  0.0414 -0.1183  0.3913
 5810TIP3    H117436   0.406   1.920   0.639  0.5264  0.3193 -1.1142
 5810TIP3    H217437   0.424   2.064   0.683  0.3207  0.2421 -0.7729
 5811TIP3   OH217438   1.080   4.332   1.157 -0.0309 -0.0527 -0.3211
 5811TIP3    H117439   1.152   4.302   1.102  1.4337  1.9570  0.3609
 5811TIP3    H217440   1.013   4.361   1.095  0.7768  0.3246 -1.0473
 5812TIP3   OH217441   1.831   4.748   0.444  0.5911  0.0725 -0.0205
 5812TIP3    H117442   1.860   4.707   0.525 -0.8961 -0.8782  0.0680
 5812TIP3    H217443   1.735   4.749   0.451  0.5132  1.7283 -0.9278
 5813TIP3   OH217444   1.184   2.533   1.963  0.5382  0.0956 -0.0141
 5813TIP3    H117445   1.170   2.490   1.879 -1.2053 -1.4613  0.9947
 5813TIP3    H217446   1.125   2.609   1.961 -1.4904 -1.3550  0.6866
 5814TIP3   OH217447   3.865   5.768   4.116  0.1750 -0.2411 -0.7223
 5814TIP3    H117448   3.874   5.695   4.055 -1.2668 -0.1472 -1.0740
 5814TIP3    H217449   3.874   5.729   4.203 -0.8059 -0.8829 -0.9018
 5815TIP3   OH217450   1.169   1.199   3.321  0.1348 -0.0414  0.1056
 5815TIP3    H117451   1.127   1.120   3.287  1.0089 -0.2503 -0.5105
 5815TIP3    H217452   1.108   1.231   3.387 -0.8239 -0.5430 -0.5039
 5816TIP3   OH217453   3.052   2.267   2.218  0.1035  0.4287 -0.0049
 5816TIP3    H117454   3.060   2.180   2.257  2.8733  0.7779  0.3639
 5816TIP3    H217455   3.049   2.326   2.293 -3.5464  0.6836 -0.1702
 5817TIP3   OH217456   6.098   5.864   3.224 -0.1987  0.1667  0.3882
 5817TIP3    H117457   6.185   5.905   3.221  0.6366 -1.3380  2.1864
 5817TIP3    H217458   6.071   5.860   3.132  2.2135 -0.4663 -0.3828
 5818TIP3   OH217459   0.334   2.384   1.067  0.0293  0.5114  0.0180
 5818TIP3    H117460   0.389   2.308   1.087 -1.0038 -0.8897 -2.0932
 5818TIP3    H217461   0.271   2.352   1.003 -0.5095  3.1542 -0.8969
 5819TIP3   OH217462   6.275   4.905   2.514 -0.9031  0.4237 -0.4246
 5819TIP3    H117463   6.275   4.829   2.456 -3.0419  0.7229 -0.8963
 5819TIP3    H217464   6.240   4.873   2.597 -2.8759  1.0728 -0.9628
 5820TIP3   OH217465   5.074   4.078   2.535 -0.1548 -0.0077 -0.5620
 5820TIP3    H117466   5.094   4.154   2.480  3.1627  0.5567  1.1827
 5820TIP3    H217467   5.000   4.106   2.589  1.1421  2.1428  0.2159
 5821TIP3   OH217468   3.271   5.806   1.716  0.3695  0.7383 -0.4451
 5821TIP3    H117469   3.232   5.837   1.797 -2.4752 -0.9717 -1.0110
 5821TIP3    H217470   3.231   5.860   1.648 -0.8785 -0.8111 -1.0134
 5822TIP3   OH217471   3.932   5.448   0.353  0.0821  0.1588 -0.5666
 5822TIP3    H117472   3.906   5.435   0.444  0.0886 -1.1294 -0.7213
 5822TIP3    H217473   3.852   5.433   0.303  0.8104 -3.1668 -0.9973
 5823TIP3   OH217474   2.036   3.243   4.942 -0.5968 -0.0806 -0.4239
 5823TIP3    H117475   2.021   3.222   5.034  0.5775 -0.0514 -0.2070
 5823TIP3    H217476   2.018   3.336   4.935  1.3490  0.4071  0.2856
 5824TIP3   OH217477   2.827   5.107   3.505  0.5778 -0.2484  0.3650
 5824TIP3    H117478   2.875   5.047   3.448  2.8385  0.2103  1.6670
 5824TIP3    H217479   2.809   5.183   3.450  0.3133 -0.9066 -0.4711
 5825TIP3   OH217480   3.622   2.442   0.706 -0.1824 -0.1398 -0.1630
 5825TIP3    H117481   3.541   2.483   0.677  0.3536 -0.0527 -1.5851
 5825TIP3    H217482   3.663   2.508   0.763 -0.6208  0.2155 -0.2544
 5826TIP3   OH217483   3.485   5.682   4.588  0.2825 -0.5471 -0.0633
 5826TIP3    H117484   3.410   5.633   4.620  1.5707 -2.2494  0.5424
 5826TIP3    H217485   3.560   5.627   4.610  2.0019  2.3249  1.9655
 5827TIP3   OH217486   4.651   5.395   3.645  0.5994 -0.7767 -0.4747
 5827TIP3    H117487   4.702   5.474   3.629 -1.9418  0.4212 -3.8169
 5827TIP3    H217488   4.594   5.417   3.719 -0.3160  0.7340 -1.5762
 5828TIP3   OH217489   2.381   3.837   0.982  0.4831  0.1896 -0.0357
 5828TIP3    H117490   2.375   3.781   0.905  1.6015 -1.8717  1.2773
 5828TIP3    H217491   2.439   3.789   1.042 -0.2163  1.7704  2.0276
 5829TIP3   OH217492   5.267   3.989   3.632  0.0013  0.3998  0.1878
 5829TIP3    H117493   5.185   3.946   3.607  0.8649 -1.5147  0.4581
 5829TIP3    H217494   5.331   3.959   3.568  1.0368 -0.2171  1.4466
 5830TIP3   OH217495   4.026   1.303   2.464  0.6407 -1.3737 -0.2108
 5830TIP3    H117496   3.972   1.380   2.447  2.6511 -0.0899 -1.1065
 5830TIP3    H217497   3.999   1.274   2.551  1.8255  2.1844  1.5409
 5831TIP3   OH217498   5.255   5.716   0.406 -0.5615 -0.0048  0.8335
 5831TIP3    H117499   5.224   5.726   0.496 -2.3765  2.6091  0.0361
 5831TIP3    H217500   5.208   5.783   0.357  0.6730 -1.0687 -2.0206
 5832TIP3   OH217501   5.063   0.077   4.800 -0.4651 -0.0126  0.1506
 5832TIP3    H117502   5.005   0.018   4.847 -0.7727 -0.3980 -0.6894
 5832TIP3    H217503   5.147   0.070   4.846 -0.5609 -0.9203  0.2021
 5833TIP3   OH217504   4.888   1.621   3.163  0.9881  0.0585 -0.0170
 5833TIP3    H117505   4.850   1.665   3.239  3.2958  1.7268  0.2677
 5833TIP3    H217506   4.895   1.689   3.096 -0.5079 -1.2572 -1.6232
 5834TIP3   OH217507   5.625   3.147   0.610  0.8790 -0.1451 -0.0657
 5834TIP3    H117508   5.703   3.141   0.666  0.7360 -0.2580  0.1216
 5834TIP3    H217509   5.651   3.205   0.539  2.0644 -2.2701 -1.4993
 5835TIP3   OH217510   0.607   2.414   0.977  0.3089  0.1631 -0.3425
 5835TIP3    H117511   0.513   2.411   0.991  0.3591 -0.1861 -0.0581
 5835TIP3    H217512   0.626   2.340   0.920  0.4528  0.0361 -0.1321
 5836TIP3   OH217513   3.042   2.128   3.332  0.4230 -0.4852  0.4043
 5836TIP3    H117514   3.033   2.043   3.376 -0.8743 -0.7287 -0.2686
 5836TIP3    H217515   3.051   2.106   3.239 -0.0463  0.1071  0.2130
 5837TIP3   OH217516   1.116   5.841   0.931 -0.9693 -0.0837  0.0928
 5837TIP3    H117517   1.031   5.885   0.935 -1.2982 -0.7052  0.0323
 5837TIP3    H217518   1.095   5.747   0.935 -0.4115 -0.3115 -1.6566
 5838TIP3   OH217519   5.252   0.942   3.607  0.3464 -0.4062  0.4801
 5838TIP3    H117520   5.176   0.937   3.666 -1.2994 -1.2844 -1.5899
 5838TIP3    H217521   5.291   0.855   3.611  0.0914 -0.5368  0.0795
 5839TIP3   OH217522   2.719   5.924   0.070  0.1419  0.1937  0.6199
 5839TIP3    H117523   2.659   5.997   0.053 -1.1930 -0.9192  0.3204
 5839TIP3    H217524   2.661   5.851   0.093  1.5620 -0.1749  3.2933
 5840TIP3   OH217525   4.326   1.870   2.819  0.1016  0.4732  0.3874
 5840TIP3    H117526   4.237   1.873   2.853  0.3001  0.9098  0.8914
 5840TIP3    H217527   4.337   1.780   2.788 -0.9224  0.7420 -0.8422
 5841TIP3   OH217528   3.403   4.795   4.345  0.0482  0.0248  0.4515
 5841TIP3    H117529   3.469   4.809   4.413 -0.6763  2.2205  0.7817
 5841TIP3    H217530   3.375   4.883   4.321 -2.0876 -0.8180 -0.3502
 5842TIP3   OH217531   3.648   3.206   1.947  0.1366  0.1527  0.2765
 5842TIP3    H117532   3.723   3.261   1.967  0.7743 -0.6006 -0.0026
 5842TIP3    H217533   3.652   3.136   2.012 -0.5785  0.3429  0.5347
 5843TIP3   OH217534   3.308   4.539   1.703 -0.3402 -0.6224 -0.5862
 5843TIP3    H117535   3.237   4.558   1.642 -1.0071 -0.5525  0.1932
 5843TIP3    H217536   3.291   4.597   1.778  0.8518 -0.2090 -0.6170
 5844TIP3   OH217537   1.321   4.550   0.879  0.3734  0.3925 -0.2280
 5844TIP3    H117538   1.380   4.622   0.858 -0.1635  1.2181  0.9645
 5844TIP3    H217539   1.288   4.571   0.966  1.5416 -2.1705  0.9552
 5845TIP3   OH217540   4.505   3.014   5.066 -0.2468  0.3000 -0.5523
 5845TIP3    H117541   4.525   3.094   5.016 -2.0068  0.2707 -1.3880
 5845TIP3    H217542   4.552   2.945   5.020  0.4129  0.6893 -0.4768
 5846TIP3   OH217543   5.366   4.897   2.374 -0.2828  0.4365 -0.5863
 5846TIP3    H117544   5.346   4.893   2.467  1.1965 -0.7159 -0.2807
 5846TIP3    H217545   5.357   4.806   2.343 -1.6026  0.9336 -1.7798
 5847TIP3   OH217546   4.942   3.947   4.260  0.0128 -0.0662 -0.1957
 5847TIP3    H117547   5.028   3.910   4.241 -0.0630  0.0044 -0.6862
 5847TIP3    H217548   4.882   3.897   4.205 -0.6393 -1.9125  2.0282
 5848TIP3   OH217549   1.290   1.934   1.992  0.3341 -0.2135 -0.7254
 5848TIP3    H117550   1.261   1.904   2.078 -0.3419  0.6660 -0.6381
 5848TIP3    H217551   1.380   1.963   2.006  0.7522 -1.4656 -0.6564
 5849TIP3   OH217552   5.679   4.372   2.676  0.7593 -0.0664 -0.0433
 5849TIP3    H117553   5.617   4.315   2.630  0.5152 -0.4901  0.7887
 5849TIP3    H217554   5.674   4.456   2.630  0.2914 -0.3920 -0.5887
 5850TIP3   OH217555   5.318   4.708   4.182 -0.2702 -0.2739  0.1752
 5850TIP3    H117556   5.307   4.669   4.096  0.2932  0.1570 -0.0993
 5850TIP3    H217557   5.406   4.682   4.209 -0.9299 -1.5524  1.2221
 5851TIP3   OH217558   0.309   0.873   2.927 -0.0089 -0.3295 -0.5128
 5851TIP3    H117559   0.354   0.927   2.992  0.9492 -0.5577 -0.9630
 5851TIP3    H217560   0.379   0.821   2.887 -0.7607 -1.1184 -0.8365
 5852TIP3   OH217561   5.553   4.358   3.574  0.1436 -0.1511 -0.1993
 5852TIP3    H117562   5.487   4.400   3.630 -0.4290 -0.7782 -0.3984
 5852TIP3    H217563   5.626   4.420   3.573 -0.9249  1.1455 -0.9806
 5853TIP3   OH217564   2.635   2.659   0.688 -0.2334  0.1051 -0.6161
 5853TIP3    H117565   2.587   2.626   0.611 -1.2429  1.7980 -0.7628
 5853TIP3    H217566   2.726   2.637   0.670 -0.6788 -1.2955 -1.3499
 5854TIP3   OH217567   0.300   5.738   3.984  0.8487 -0.1264  0.5477
 5854TIP3    H117568   0.287   5.794   4.061 -3.2659  2.1672 -1.4664
 5854TIP3    H217569   0.339   5.796   3.919 -0.1458 -0.5820 -0.4868
 5855TIP3   OH217570   1.707   3.007   4.817 -0.3114 -0.1018 -0.4087
 5855TIP3    H117571   1.718   3.032   4.909 -1.5776 -1.1993  0.0694
 5855TIP3    H217572   1.792   2.970   4.792 -0.8499 -2.7653  1.3252
 5856TIP3   OH217573   1.590   2.878   2.030 -0.3787  0.7736 -0.4808
 5856TIP3    H117574   1.602   2.784   2.014  0.3607  0.9781 -1.1595
 5856TIP3    H217575   1.537   2.908   1.956  0.3544  1.1057 -0.8824
 5857TIP3   OH217576   3.879   4.204   0.182  0.4130 -0.0619 -0.1069
 5857TIP3    H117577   3.889   4.142   0.254 -2.2440  0.0109  0.4053
 5857TIP3    H217578   3.896   4.152   0.104  3.3628 -0.1371  0.4721
 5858TIP3   OH217579   0.401   0.497   4.177  0.1020  0.2812 -0.3312
 5858TIP3    H117580   0.409   0.593   4.180  0.7094  0.2250 -0.0294
 5858TIP3    H217581   0.396   0.470   4.269 -1.8419  0.1446 -0.4337
 5859TIP3   OH217582   3.952   2.793   1.197 -0.1866 -0.4505 -0.0056
 5859TIP3    H117583   3.920   2.707   1.224  0.8228 -0.7784  0.1863
 5859TIP3    H217584   4.042   2.796   1.229  0.3737 -0.0250 -1.5447
 5860TIP3   OH217585   2.719   0.856   1.936 -0.0933 -0.1558  0.6602
 5860TIP3    H117586   2.701   0.762   1.943 -1.9012  0.1971  1.5726
 5860TIP3    H217587   2.755   0.867   1.848 -2.8348 -1.3346 -0.7566
 5861TIP3   OH217588   5.898   5.846   2.504 -0.2894 -0.5788  0.8191
 5861TIP3    H117589   5.980   5.874   2.466  0.4092 -0.8791  2.0406
 5861TIP3    H217590   5.831   5.874   2.442  0.6626  0.4193  0.2228
 5862TIP3   OH217591   1.885   2.307   4.056 -0.4234 -0.2291 -0.2894
 5862TIP3    H117592   1.813   2.351   4.009 -0.9839 -0.7298  0.0860
 5862TIP3    H217593   1.920   2.375   4.114 -0.9648 -0.1326 -0.0641
 5863TIP3   OH217594   2.544   1.152   4.379  0.3153 -0.6707  0.6239
 5863TIP3    H117595   2.534   1.057   4.377 -1.3860 -0.5792  2.0075
 5863TIP3    H217596   2.499   1.179   4.459 -0.9911  1.4583 -0.7211
 5864TIP3   OH217597   6.356   5.528   1.531  0.2686 -0.2659 -0.7845
 5864TIP3    H117598   6.402   5.581   1.465 -0.2067 -1.9330 -2.5515
 5864TIP3    H217599   6.266   5.524   1.500 -0.0075 -0.9605  0.0678
 5865TIP3   OH217600   3.543   0.427   1.754 -0.6937  0.2538  0.2507
 5865TIP3    H117601   3.498   0.445   1.671  0.8592  2.3735 -0.2212
 5865TIP3    H217602   3.598   0.351   1.736  0.4548  1.3407 -1.0624
 5866TIP3   OH217603   6.116   5.337   4.818  0.1645 -0.2430 -0.5121
 5866TIP3    H117604   6.152   5.415   4.859 -1.1582  0.5691 -0.8187
 5866TIP3    H217605   6.161   5.264   4.860  0.4605  0.6343  0.7375
 5867TIP3   OH217606   5.392   5.506   4.351  0.3430 -0.0296  0.1617
 5867TIP3    H117607   5.403   5.598   4.376 -1.7038  0.7937 -1.7400
 5867TIP3    H217608   5.303   5.500   4.317  0.8714 -2.4392 -0.9979
 5868TIP3   OH217609   4.566   0.374   5.157  0.3424 -0.2885  0.1765
 5868TIP3    H117610   4.501   0.444   5.166  0.4451 -0.1885  0.1460
 5868TIP3    H217611   4.610   0.371   5.242 -2.0557 -2.7346  1.4732
 5869TIP3   OH217612   5.939   5.389   0.638 -0.3315  0.7335  0.3132
 5869TIP3    H117613   5.943   5.480   0.608 -0.0493  0.4644 -0.5090
 5869TIP3    H217614   5.869   5.350   0.586  0.6828  0.0564 -0.6088
 5870TIP3   OH217615   3.830   5.010   4.221 -0.1420 -0.0522  0.2864
 5870TIP3    H117616   3.765   4.982   4.285 -0.1484  0.8799  0.7076
 5870TIP3    H217617   3.895   4.939   4.220 -1.0359 -0.8837  0.0229
 5871TIP3   OH217618   5.727   3.457   3.021  0.6618 -0.2950 -0.5971
 5871TIP3    H117619   5.730   3.550   2.997  0.1440 -0.1306 -0.0693
 5871TIP3    H217620   5.713   3.411   2.939  0.7405  0.1125 -0.8405
 5872TIP3   OH217621   4.127   3.111   3.177 -0.1648 -0.0632  0.3570
 5872TIP3    H117622   4.135   3.036   3.236 -2.0114 -2.3222 -1.9811
 5872TIP3    H217623   4.066   3.170   3.221 -0.1191 -0.8240  1.4780
 5873TIP3   OH217624   1.506   3.880   4.289 -0.2941  0.4173  0.3349
 5873TIP3    H117625   1.486   3.787   4.299  0.5663  0.0454 -1.0263
 5873TIP3    H217626   1.450   3.909   4.217  0.1181  0.6999  0.1213
 5874TIP3   OH217627   4.613   0.785   5.127 -0.2549  0.1722  0.9162
 5874TIP3    H117628   4.689   0.728   5.139  0.5438  0.5307 -1.7414
 5874TIP3    H217629   4.545   0.728   5.092 -0.2364  0.3855  0.5231
 5875TIP3   OH217630   4.458   5.218   1.774 -0.1366  0.0740 -0.0167
 5875TIP3    H117631   4.526   5.150   1.772  0.3328  0.5449 -0.4014
 5875TIP3    H217632   4.502   5.294   1.812  0.5991  1.4665 -3.2926
 5876TIP3   OH217633   5.229   0.829   3.325 -0.7796 -0.1404 -0.2152
 5876TIP3    H117634   5.251   0.854   3.415  1.2649 -0.5724 -0.5448
 5876TIP3    H217635   5.136   0.849   3.317 -1.4183 -1.5120  2.4769
 5877TIP3   OH217636   5.787   0.262   4.319  0.8411 -0.5344  0.0012
 5877TIP3    H117637   5.747   0.349   4.320 -0.2621 -1.0262  0.6347
 5877TIP3    H217638   5.817   0.250   4.229  1.3586  0.6527  0.0059
 5878TIP3   OH217639   4.278   2.576   4.783 -0.2747 -0.2004  0.6171
 5878TIP3    H117640   4.255   2.633   4.710 -4.0749 -2.4970 -0.2911
 5878TIP3    H217641   4.299   2.492   4.742 -1.6870 -1.3101  2.0322
 5879TIP3   OH217642   5.683   0.993   5.188 -0.4134  0.6131  0.2500
 5879TIP3    H117643   5.596   0.955   5.203  0.3675 -1.4782 -0.1641
 5879TIP3    H217644   5.673   1.043   5.107 -1.0189 -0.4346 -0.3513
 5880TIP3   OH217645   4.598   2.380   4.012 -0.5277 -0.3703  0.4582
 5880TIP3    H117646   4.575   2.290   3.988  0.0491  0.0684 -2.0325
 5880TIP3    H217647   4.605   2.426   3.928 -0.6607  1.9769  1.6647
 5881TIP3   OH217648   5.696   2.413   2.022 -0.0615  0.0555 -0.1357
 5881TIP3    H117649   5.731   2.331   2.057 -1.6157 -0.7407 -0.3539
 5881TIP3    H217650   5.627   2.438   2.084 -1.0379  0.0402 -1.1736
 5882TIP3   OH217651   5.109   5.439   4.309 -0.4032  0.4360 -0.6719
 5882TIP3    H117652   5.046   5.370   4.332 -2.4697  2.1736 -0.8395
 5882TIP3    H217653   5.086   5.512   4.366  1.6122  1.0949 -0.6372
 5883TIP3   OH217654   2.936   2.862   0.955 -0.0114 -0.0570  0.4600
 5883TIP3    H117655   2.896   2.940   0.917 -1.2347 -0.2622  1.2792
 5883TIP3    H217656   2.945   2.801   0.882  1.2747  0.9447 -0.2616
 5884TIP3   OH217657   1.013   0.082   0.660 -0.1286 -0.8600  0.4912
 5884TIP3    H117658   1.007  -0.012   0.672  0.9786 -1.0585 -0.2692
 5884TIP3    H217659   1.074   0.093   0.587 -3.2575  0.3020 -2.2328
 5885TIP3   OH217660   5.427   5.149   0.669 -0.4063 -0.3873 -0.4487
 5885TIP3    H117661   5.374   5.165   0.747 -2.1346 -0.0310 -1.6605
 5885TIP3    H217662   5.489   5.222   0.666 -1.5004  0.5586 -0.3713
 5886TIP3   OH217663   3.840   4.514   3.755  0.1639  0.1025 -0.0369
 5886TIP3    H117664   3.847   4.572   3.679  1.4295  0.1409  0.0805
 5886TIP3    H217665   3.748   4.488   3.757 -0.0470  0.6851 -1.1453
 5887TIP3   OH217666   4.428   1.917   4.151  0.0678 -0.0687  0.2627
 5887TIP3    H117667   4.419   1.862   4.073  0.0496 -0.7700  0.7549
 5887TIP3    H217668   4.346   1.905   4.199 -0.4867  1.4076 -0.2563
 5888TIP3   OH217669   4.063   1.418   1.608  0.1969 -0.0453 -0.1549
 5888TIP3    H117670   3.981   1.448   1.649  0.6259  0.1358  0.5931
 5888TIP3    H217671   4.040   1.404   1.517 -1.0169 -1.3054  0.3035
 5889TIP3   OH217672   2.910   2.702   1.810  0.6741 -0.4245  0.3735
 5889TIP3    H117673   2.982   2.670   1.755  0.6084  0.8049 -0.4643
 5889TIP3    H217674   2.831   2.680   1.761  0.5339 -0.6316  0.6885
 5890TIP3   OH217675   3.950   3.342   0.111  0.3844  0.0961 -0.4118
 5890TIP3    H117676   3.950   3.434   0.084  1.2541  0.0078 -0.7352
 5890TIP3    H217677   3.952   3.292   0.030  2.5189 -0.1717 -0.2466
 5891TIP3   OH217678   4.289   3.754   4.179 -0.5228  0.0553  0.2007
 5891TIP3    H117679   4.314   3.667   4.213 -1.6331 -0.5536 -0.4924
 5891TIP3    H217680   4.277   3.741   4.085 -0.3371  1.0608  0.0260
 5892TIP3   OH217681   5.753   1.442   0.545  0.2844  0.0268 -0.0200
 5892TIP3    H117682   5.823   1.393   0.501  2.7243  0.5673  2.9300
 5892TIP3    H217683   5.746   1.524   0.494  1.4111 -0.2756 -0.6994
 5893TIP3   OH217684   3.445   3.210   4.857 -0.0287  0.2755  0.3739
 5893TIP3    H117685   3.538   3.213   4.877  0.0373  1.3483 -0.0000
 5893TIP3    H217686   3.425   3.118   4.842  0.5375 -0.2335  2.4611
 5894TIP3   OH217687   2.773   0.238   2.136 -0.2088 -0.1857  0.3021
 5894TIP3    H117688   2.712   0.311   2.148  0.6780  0.6754 -0.3303
 5894TIP3    H217689   2.766   0.216   2.043  1.3438  0.7386 -0.0513
 5895TIP3   OH217690   2.823   4.017   1.980 -0.4849 -0.0319  0.1380
 5895TIP3    H117691   2.911   4.011   1.943 -0.8828 -0.1460 -0.8489
 5895TIP3    H217692   2.835   4.013   2.074  0.6646  1.1953  0.0657
 5896TIP3   OH217693   2.991   0.968   3.893 -0.0086  0.1696 -0.5336
 5896TIP3    H117694   3.023   0.898   3.949  1.5529  1.1017 -0.2021
 5896TIP3    H217695   3.017   0.941   3.804 -1.7649 -0.9130 -0.7602
 5897TIP3   OH217696   1.848   2.123   0.431 -0.0633 -0.5738  0.4620
 5897TIP3    H117697   1.776   2.181   0.406  0.0234  0.4768  2.5105
 5897TIP3    H217698   1.829   2.097   0.521  1.4626 -1.3161  0.6108
 5898TIP3   OH217699   6.173   5.333   2.264 -0.2016 -0.2663  0.4938
 5898TIP3    H117700   6.152   5.253   2.312  0.0463  0.5469  1.9839
 5898TIP3    H217701   6.134   5.403   2.315  2.5995  0.9153  1.1717
 5899TIP3   OH217702   4.800   4.075   3.812 -0.1241  0.6852  0.5505
 5899TIP3    H117703   4.716   4.088   3.767  0.0165 -1.6323 -0.4970
 5899TIP3    H217704   4.849   4.155   3.794 -1.3859  1.2667 -0.4547
 5900TIP3   OH217705   3.589   3.064   4.240  0.1667  0.1069  0.3915
 5900TIP3    H117706   3.595   3.068   4.335  0.5102  0.4852  0.3540
 5900TIP3    H217707   3.638   2.986   4.216 -0.4626 -0.3539  0.5710
 5901TIP3   OH217708   1.602   2.609   1.387  0.3751 -0.0655 -0.3170
 5901TIP3    H117709   1.519   2.656   1.376  0.7716  0.5940 -0.5350
 5901TIP3    H217710   1.594   2.566   1.473 -0.1199  0.1427 -0.2556
 5902TIP3   OH217711   5.330   4.575   2.536  0.3412 -0.8131 -0.4884
 5902TIP3    H117712   5.347   4.496   2.486 -0.8838 -1.5832  0.2563
 5902TIP3    H217713   5.346   4.550   2.627  1.5080  0.2660 -0.3654
 5903TIP3   OH217714   0.807   0.157   4.153 -0.1108 -0.4223  0.1814
 5903TIP3    H117715   0.782   0.243   4.186 -0.6620 -0.2024 -0.7723
 5903TIP3    H217716   0.895   0.170   4.117  0.2004 -0.4960  0.9008
 5904TIP3   OH217717   2.113   2.924   1.106 -0.0561  0.5745 -0.0884
 5904TIP3    H117718   2.058   2.912   1.028  0.0639 -0.5933 -0.0033
 5904TIP3    H217719   2.074   2.867   1.172  0.7626  0.3638  0.2246
 5905TIP3   OH217720   3.245   5.877   2.182 -0.2068  0.5111 -0.5914
 5905TIP3    H117721   3.324   5.835   2.148  0.4713  0.5951  0.7980
 5905TIP3    H217722   3.276   5.932   2.254 -1.3422  1.7913 -1.0336
 5906TIP3   OH217723   5.662   2.535   4.204  0.4208  0.2388 -0.2455
 5906TIP3    H117724   5.727   2.602   4.183 -0.1713  1.2047  0.8605
 5906TIP3    H217725   5.688   2.459   4.152  1.9221  0.8776 -0.4881
 5907TIP3   OH217726   1.468   3.682   0.242  0.1792  0.0716 -0.0978
 5907TIP3    H117727   1.436   3.761   0.287  1.4284  0.9073 -0.6298
 5907TIP3    H217728   1.539   3.713   0.186  0.4229 -1.3814 -0.6387
 5908TIP3   OH217729   1.710   5.212   0.014  0.2632 -0.5132  0.1513
 5908TIP3    H117730   1.732   5.296   0.053  0.9568 -0.0563 -1.1563
 5908TIP3    H217731   1.622   5.225  -0.023  0.6066 -0.1526 -0.5651
 5909TIP3   OH217732   0.708   1.716   3.708 -0.6174 -0.0710 -0.2448
 5909TIP3    H117733   0.704   1.808   3.683  0.0888 -0.6216 -2.6140
 5909TIP3    H217734   0.800   1.692   3.697 -1.0247 -1.3764 -0.9813
 5910TIP3   OH217735   0.638   0.689   3.974 -0.2357 -0.0560 -0.0724
 5910TIP3    H117736   0.695   0.732   4.037 -0.0304  1.0977 -1.0290
 5910TIP3    H217737   0.571   0.754   3.953  0.3489  0.0034 -1.9004
 5911TIP3   OH217738   5.728   4.862   4.843  0.0698 -0.5258  0.4767
 5911TIP3    H117739   5.671   4.930   4.807  0.2136  0.0910  1.3672
 5911TIP3    H217740   5.800   4.856   4.781 -1.0380 -1.4533 -0.7684
 5912TIP3   OH217741   3.121   0.903   4.393  0.0239  0.0929  0.0586
 5912TIP3    H117742   3.047   0.927   4.337  0.8952  1.2894 -0.6283
 5912TIP3    H217743   3.097   0.936   4.480 -0.3591  0.2354 -0.0980
 5913TIP3   OH217744   2.055   4.932   0.449 -0.0703  0.0015  0.3238
 5913TIP3    H117745   1.980   4.904   0.501  0.1538  1.1581  1.3119
 5913TIP3    H217746   2.131   4.905   0.500  0.1774 -0.1697 -0.1323
 5914TIP3   OH217747   1.733   2.684   0.193 -0.2665  0.3363 -0.2172
 5914TIP3    H117748   1.744   2.651   0.104  0.6997  1.3874 -0.5045
 5914TIP3    H217749   1.706   2.775   0.181 -0.7770  0.2948  0.5677
 5915TIP3   OH217750   5.829   5.697   4.713 -0.0270  0.7579  0.2264
 5915TIP3    H117751   5.861   5.697   4.804 -0.5660 -2.3792  0.5189
 5915TIP3    H217752   5.734   5.686   4.721  0.0761 -1.1099 -0.6743
 5916TIP3   OH217753   5.119   1.057   1.576 -0.5774 -0.4214  0.4003
 5916TIP3    H117754   5.106   1.148   1.550 -0.4286 -0.5987 -0.3172
 5916TIP3    H217755   5.147   1.062   1.667 -0.7467  0.2396  0.4201
 5917TIP3   OH217756   5.071   0.067   4.223 -0.9857  0.1964  0.0569
 5917TIP3    H117757   5.039   0.105   4.305 -0.4689  1.7214 -0.4015
 5917TIP3    H217758   5.110  -0.016   4.249 -2.0480  0.0064  1.1472
 5918TIP3   OH217759   0.132   4.654   0.721  0.6844 -0.4827 -0.9322
 5918TIP3    H117760   0.188   4.580   0.742  0.5492 -0.7491 -1.4862
 5918TIP3    H217761   0.099   4.635   0.633 -0.5848 -0.5287 -0.4756
 5919TIP3   OH217762   4.267   1.381   1.243 -0.2615  0.3160 -0.4825
 5919TIP3    H117763   4.255   1.373   1.148  2.5620 -0.2193 -0.8799
 5919TIP3    H217764   4.346   1.434   1.252 -0.1382 -0.1539  1.5813
 5920TIP3   OH217765   0.449   3.978   0.138 -0.2623 -0.6250  0.4528
 5920TIP3    H117766   0.422   3.900   0.089  1.3293 -1.1715  0.3870
 5920TIP3    H217767   0.450   4.048   0.073  0.1193 -0.9591  0.0951
 5921TIP3   OH217768   3.934   0.359   1.036 -0.3265 -0.2650  0.2765
 5921TIP3    H117769   3.861   0.373   1.096 -0.6377  0.1121 -0.1835
 5921TIP3    H217770   3.932   0.435   0.979  0.0584 -0.5532 -0.1226
 5922TIP3   OH217771   3.535   3.328   0.342  0.3471  0.2805 -0.0562
 5922TIP3    H117772   3.589   3.288   0.411 -1.2342 -1.2833  0.3502
 5922TIP3    H217773   3.496   3.254   0.295 -0.5106  1.3370 -1.0956
 5923TIP3   OH217774   5.928   1.118   0.126  0.0427 -0.3941  0.4339
 5923TIP3    H117775   5.856   1.156   0.076  1.7207  0.8730 -1.1602
 5923TIP3    H217776   5.941   1.031   0.086 -0.1428 -0.3439  0.2605
 5924TIP3   OH217777   4.347   2.642   2.644  0.0883 -0.2200 -0.0108
 5924TIP3    H117778   4.262   2.671   2.678 -0.5494 -0.9292 -0.9507
 5924TIP3    H217779   4.341   2.546   2.645  0.3030 -0.2586 -1.4913
 5925TIP3   OH217780   4.771   0.376   4.025  0.1677 -0.0460 -0.6125
 5925TIP3    H117781   4.735   0.414   3.945 -0.2008  1.2992  0.1450
 5925TIP3    H217782   4.831   0.308   3.995  0.9781  1.2473 -2.0850
 5926TIP3   OH217783   2.000   5.556   0.323  0.3123 -0.8084 -0.1612
 5926TIP3    H117784   1.977   5.648   0.320 -0.4203 -0.8906  1.9165
 5926TIP3    H217785   1.940   5.517   0.387  1.5460 -2.4425  0.0858
 5927TIP3   OH217786   3.958   5.939   2.730 -0.3523 -0.7842  0.4219
 5927TIP3    H117787   4.010   5.945   2.650  0.1820  0.0589  0.8219
 5927TIP3    H217788   4.021   5.947   2.801 -1.2325  3.1709  0.9480
 5928TIP3   OH217789   2.914   3.180   0.666  0.6431  0.2642 -0.0424
 5928TIP3    H117790   2.881   3.193   0.576 -1.0680 -0.8012  0.3801
 5928TIP3    H217791   2.850   3.122   0.706 -0.0419  2.6843  2.6843
 5929TIP3   OH217792   0.263   5.781   1.098 -0.0010 -0.4932 -0.0176
 5929TIP3    H117793   0.243   5.700   1.145  2.9814 -0.3014  1.8404
 5929TIP3    H217794   0.264   5.756   1.006  2.9577 -3.2298  0.5874
 5930TIP3   OH217795   3.823   2.544   4.141  0.0816  0.0713 -0.5810
 5930TIP3    H117796   3.804   2.577   4.053 -0.4120 -1.3016 -1.0234
 5930TIP3    H217797   3.916   2.563   4.155  0.3515 -0.3463 -1.7167
 5931TIP3   OH217798   1.719   4.172   4.566  0.8243  0.4388  0.7240
 5931TIP3    H117799   1.669   4.091   4.570 -0.2841  1.0886  0.5855
 5931TIP3    H217800   1.786   4.164   4.634 -0.5385  0.2282  2.0925
 5932TIP3   OH217801   2.157   1.653   4.136 -0.1667 -0.5120  0.4268
 5932TIP3    H117802   2.090   1.713   4.103 -0.5674 -1.2610 -0.1495
 5932TIP3    H217803   2.240   1.694   4.111 -0.4547 -0.9570 -1.3635
 5933TIP3   OH217804   3.348   4.065   1.016 -0.2304  0.2454 -0.2076
 5933TIP3    H117805   3.439   4.077   0.987 -0.0124  3.6456  1.4546
 5933TIP3    H217806   3.297   4.123   0.960 -1.5260 -1.8034 -1.2803
 5934TIP3   OH217807   4.978   4.123   4.872  0.0866 -0.1853 -0.0688
 5934TIP3    H117808   5.017   4.210   4.875  0.8205 -0.5274  0.8019
 5934TIP3    H217809   4.967   4.104   4.779  2.5538 -0.2973 -0.4036
 5935TIP3   OH217810   2.197   4.990   2.748 -0.4602  0.1780  0.0021
 5935TIP3    H117811   2.291   4.986   2.762 -0.3151 -0.0376 -0.9159
 5935TIP3    H217812   2.162   5.036   2.824  0.3029 -0.3685  0.6970
 5936TIP3   OH217813   2.517   2.383   1.778  0.5429  0.0330  0.0619
 5936TIP3    H117814   2.476   2.352   1.697  0.2649 -0.6479  0.4535
 5936TIP3    H217815   2.602   2.417   1.750  0.5676 -0.4517 -0.4847
 5937TIP3   OH217816   3.528   4.381   1.663 -0.2313  0.5897 -0.1651
 5937TIP3    H117817   3.579   4.404   1.585 -0.6255  0.9074 -0.3315
 5937TIP3    H217818   3.450   4.436   1.658 -0.0858  0.8837  0.6471
 5938TIP3   OH217819   4.920   2.679   3.433  0.3759  0.7655 -0.2030
 5938TIP3    H117820   4.878   2.593   3.435  2.0163 -0.0550  1.0682
 5938TIP3    H217821   4.987   2.673   3.365 -1.4359  2.0866 -2.2553
 5939TIP3   OH217822   1.092   0.950   3.562 -0.2235 -0.6237  0.0830
 5939TIP3    H117823   1.111   0.863   3.597  0.5692 -0.1677  0.8305
 5939TIP3    H217824   1.176   0.982   3.530 -0.4193  0.0452  0.2273
 5940TIP3   OH217825   1.559   4.203   3.842  0.0256  0.7471 -0.1029
 5940TIP3    H117826   1.503   4.161   3.777 -2.6025  2.0934  1.1022
 5940TIP3    H217827   1.500   4.222   3.915  2.7978 -0.6958  2.7607
 5941TIP3   OH217828   2.145   5.592   3.482  0.4756  0.0317  0.0451
 5941TIP3    H117829   2.082   5.603   3.411  1.1565  0.5915 -0.4857
 5941TIP3    H217830   2.221   5.643   3.455  1.2707 -0.8548  0.5401
 5942TIP3   OH217831   0.303   4.703   4.261 -0.1347 -0.1244  0.4479
 5942TIP3    H117832   0.301   4.767   4.190  1.7983  2.9720  2.9242
 5942TIP3    H217833   0.231   4.730   4.319  2.0216  1.4137  2.6102
 5943TIP3   OH217834   2.240   5.507   1.534 -0.4046 -0.7604  0.5747
 5943TIP3    H117835   2.182   5.431   1.540  0.0532 -1.1458  0.1573
 5943TIP3    H217836   2.280   5.515   1.621  1.5144 -2.5743 -0.0748
 5944TIP3   OH217837   2.429   0.126   4.931 -0.2390 -0.2086 -0.1913
 5944TIP3    H117838   2.507   0.071   4.929 -0.4781 -0.5422 -0.4774
 5944TIP3    H217839   2.404   0.135   4.839 -0.1909  0.3950 -0.1490
 5945TIP3   OH217840   2.734   3.551   3.682 -0.0968 -0.2391  0.1431
 5945TIP3    H117841   2.776   3.515   3.604 -0.3069  0.0297 -0.0976
 5945TIP3    H217842   2.751   3.645   3.677 -0.6821 -0.1320  0.0650
 5946TIP3   OH217843   6.021   4.614   0.837 -0.1838 -0.2376  0.3510
 5946TIP3    H117844   5.944   4.615   0.780 -0.0440  0.4022  0.1677
 5946TIP3    H217845   6.062   4.529   0.820 -1.5950 -1.2002  1.4831
 5947TIP3   OH217846   3.172   1.747   4.400 -0.3375  0.1307  0.0233
 5947TIP3    H117847   3.248   1.765   4.345 -0.6201  0.3442 -0.3022
 5947TIP3    H217848   3.097   1.779   4.349 -0.6805 -0.4027  0.1808
 5948TIP3   OH217849   4.879   0.701   0.439  0.6782  0.0036  0.2506
 5948TIP3    H117850   4.938   0.628   0.458  2.4793  1.0649 -0.9191
 5948TIP3    H217851   4.881   0.755   0.518  2.4829  0.7606 -0.2630
 5949TIP3   OH217852   3.552   1.567   2.804  0.2171 -0.2607 -0.1599
 5949TIP3    H117853   3.482   1.502   2.792 -0.6765  0.9938 -2.3435
 5949TIP3    H217854   3.519   1.624   2.874  0.6036 -1.5818  1.1387
 5950TIP3   OH217855   3.229   4.140   2.880 -0.4186 -0.1480  0.5134
 5950TIP3    H117856   3.188   4.118   2.964 -1.0048 -2.1541 -0.2305
 5950TIP3    H217857   3.244   4.055   2.838 -0.3915  0.8022 -1.5177
 5951TIP3   OH217858   1.996   3.252   1.018  0.1862  0.2602 -0.2989
 5951TIP3    H117859   1.912   3.216   0.990 -0.4324  0.1959  1.5031
 5951TIP3    H217860   1.998   3.340   0.978 -0.1234 -0.2060 -1.3950
 5952TIP3   OH217861   4.834   4.220   1.818  0.0399 -0.2959 -0.1900
 5952TIP3    H117862   4.868   4.245   1.732  0.5932 -1.9450 -0.4972
 5952TIP3    H217863   4.913   4.204   1.870 -0.2920  0.7019  0.6559
 5953TIP3   OH217864   3.198   0.213   4.903 -0.6520  0.2664 -0.0085
 5953TIP3    H117865   3.200   0.133   4.955  2.6997 -1.1205 -1.9607
 5953TIP3    H217866   3.266   0.269   4.940 -1.0041  0.9831 -0.4178
 5954TIP3   OH217867   5.504   5.364   2.084  0.2403  0.2532  0.6030
 5954TIP3    H117868   5.429   5.347   2.142  0.6802 -0.5089  0.9648
 5954TIP3    H217869   5.573   5.395   2.143  0.1091  1.2765  0.2249
 5955TIP3   OH217870   3.848   3.506   4.513  0.1462  0.7596  0.2949
 5955TIP3    H117871   3.869   3.512   4.606  2.0323  0.7826 -0.0918
 5955TIP3    H217872   3.844   3.597   4.483 -1.7348  0.8068  0.5730
 5956TIP3   OH217873   5.545   4.456   4.843 -0.4153 -0.2607  0.3076
 5956TIP3    H117874   5.545   4.384   4.780 -1.7163 -0.1184  0.1206
 5956TIP3    H217875   5.540   4.413   4.929  0.0029 -0.4172  0.2550
 5957TIP3   OH217876   3.438   0.168   2.242 -0.5093 -0.4745 -0.4360
 5957TIP3    H117877   3.384   0.204   2.313 -1.8913 -0.3515 -1.5035
 5957TIP3    H217878   3.526   0.163   2.279 -1.4137 -1.6544  1.7457
 5958TIP3   OH217879   4.006   4.350   0.811  0.1279  0.4328 -0.4308
 5958TIP3    H117880   4.078   4.342   0.874 -0.2964  0.3358  0.0473
 5958TIP3    H217881   4.035   4.300   0.735 -0.0774 -0.9189  0.3545
 5959TIP3   OH217882   4.559   5.018   3.156 -0.1392 -0.1283  0.0467
 5959TIP3    H117883   4.545   4.927   3.130 -1.2915 -0.3969  1.4464
 5959TIP3    H217884   4.558   5.068   3.075 -0.1090 -1.2974 -0.6849
 5960TIP3   OH217885   1.554   3.422   1.514  0.0058 -0.1106  0.2150
 5960TIP3    H117886   1.482   3.476   1.481  0.1093  1.2783  2.0717
 5960TIP3    H217887   1.633   3.465   1.482  0.0586 -0.2390  0.1722
 5961TIP3   OH217888   4.893   2.386   2.942  0.1386 -0.1274 -0.0091
 5961TIP3    H117889   4.828   2.325   2.975  0.8099 -0.2936  1.0709
 5961TIP3    H217890   4.938   2.338   2.873  0.3948 -0.7278  0.5587
 5962TIP3   OH217891   5.353   3.400   3.705  0.5409  0.0364 -0.0910
 5962TIP3    H117892   5.288   3.411   3.636  0.2574  0.8806  0.2983
 5962TIP3    H217893   5.342   3.310   3.735  1.5885 -0.8181 -2.0595
 5963TIP3   OH217894   1.178   3.016   4.727  1.0100  0.6059  0.2037
 5963TIP3    H117895   1.259   2.984   4.765  2.0037  0.2434 -2.0499
 5963TIP3    H217896   1.192   3.110   4.717  1.1920  0.5390 -0.2130
 5964TIP3   OH217897   1.523   0.072   3.951  0.2868  0.2709 -0.2452
 5964TIP3    H117898   1.531  -0.008   4.003  0.6370 -1.0811 -2.2985
 5964TIP3    H217899   1.456   0.052   3.886  0.5850  1.5583 -0.9843
 5965TIP3   OH217900   4.589   3.951   4.382 -0.5270 -0.1090 -0.4466
 5965TIP3    H117901   4.514   3.892   4.394  1.4345 -3.3422 -2.5564
 5965TIP3    H217902   4.641   3.940   4.462 -0.4129 -0.9715 -0.6207
 5966TIP3   OH217903   5.132   5.317   0.952 -0.4032 -0.2536  0.2655
 5966TIP3    H117904   5.157   5.316   1.044 -2.1958  0.5686  0.8050
 5966TIP3    H217905   5.213   5.337   0.905  0.6428 -1.1710  1.5931
 5967TIP3   OH217906   4.554   2.869   4.175 -0.4539  0.0722 -0.4577
 5967TIP3    H117907   4.511   2.825   4.102 -1.1072 -2.0411  1.1208
 5967TIP3    H217908   4.516   2.957   4.176 -2.2274 -0.6541 -1.1767
 5968TIP3   OH217909   6.293   1.825   2.921  0.1281  0.3386 -0.2205
 5968TIP3    H117910   6.267   1.908   2.960 -1.2192 -0.8959  1.6532
 5968TIP3    H217911   6.389   1.825   2.927  0.0546  0.9487  1.5336
 5969TIP3   OH217912   1.539   1.901   0.761  0.0047  0.0024 -0.6740
 5969TIP3    H117913   1.516   1.969   0.824 -0.6076  0.2802 -1.1799
 5969TIP3    H217914   1.471   1.908   0.694  0.4052 -0.5702 -1.1423
 5970TIP3   OH217915   3.460   1.267   3.751  0.1851 -0.5322  0.4931
 5970TIP3    H117916   3.370   1.297   3.741 -0.3930 -2.3199  0.0364
 5970TIP3    H217917   3.475   1.270   3.846 -0.1182  0.3773  0.5241
 5971TIP3   OH217918   2.465   0.275   4.562  0.2721 -0.4571  0.1760
 5971TIP3    H117919   2.542   0.218   4.569 -0.8332 -2.1859 -0.8535
 5971TIP3    H217920   2.442   0.272   4.469 -1.5265 -0.6770  0.6005
 5972TIP3   OH217921   3.641   1.491   2.563  0.2748  0.0805  0.3664
 5972TIP3    H117922   3.698   1.550   2.513  0.3667 -1.1165 -1.0275
 5972TIP3    H217923   3.631   1.533   2.648  1.4118  1.4306 -0.1280
 5973TIP3   OH217924   1.398   2.971   4.330  0.0575 -0.7343 -0.5350
 5973TIP3    H117925   1.432   3.002   4.414 -1.4229 -0.4414 -0.0139
 5973TIP3    H217926   1.322   2.918   4.353  0.5711 -1.9906 -1.6211
 5974TIP3   OH217927   5.697   1.130   4.473 -0.3898 -0.3336  0.2729
 5974TIP3    H117928   5.660   1.099   4.555 -1.6578 -0.5991 -0.3654
 5974TIP3    H217929   5.623   1.131   4.412  0.2694  0.9603 -0.5639
 5975TIP3   OH217930   5.711   3.701   2.904  0.0453 -0.1928 -0.3060
 5975TIP3    H117931   5.685   3.793   2.898  0.7212  0.2979  2.7000
 5975TIP3    H217932   5.797   3.698   2.861 -0.6453  0.2092 -1.7804
 5976TIP3   OH217933   0.578   5.937   4.009 -0.1790 -0.1333 -0.0271
 5976TIP3    H117934   0.589   5.885   4.088  2.5141 -1.4734 -1.1419
 5976TIP3    H217935   0.595   5.876   3.937  0.5143  1.6740 -1.5078
 5977TIP3   OH217936   2.411   1.079   2.234  0.0393  0.1646  0.0030
 5977TIP3    H117937   2.437   0.997   2.276 -1.4680  1.5657  4.2298
 5977TIP3    H217938   2.328   1.058   2.189  1.4020 -1.2620 -2.0184
 5978TIP3   OH217939   6.128   2.067   0.918 -1.0458  0.4207 -0.2988
 5978TIP3    H117940   6.151   2.129   0.848 -0.7530 -0.9260 -1.4416
 5978TIP3    H217941   6.211   2.028   0.944 -1.3494 -0.3428 -0.4409
 5979TIP3   OH217942   4.582   1.466   0.727 -0.0740 -0.7869 -0.0705
 5979TIP3    H117943   4.599   1.419   0.645 -0.2487  1.2217 -1.3410
 5979TIP3    H217944   4.496   1.505   0.714 -1.1457 -2.3024  2.0509
 5980TIP3   OH217945   2.468   3.995   4.463 -0.5897  0.2726 -0.3183
 5980TIP3    H117946   2.421   3.963   4.386 -1.2617 -1.4063  0.7441
 5980TIP3    H217947   2.560   3.975   4.445 -0.5745  1.0496 -1.2052
 5981TIP3   OH217948   1.243   4.330   4.766 -0.3379  0.2831  0.4463
 5981TIP3    H117949   1.212   4.243   4.743 -0.2276  0.4512 -0.3503
 5981TIP3    H217950   1.336   4.318   4.788 -0.1367  0.3106 -0.3650
 5982TIP3   OH217951   0.262   0.717   4.492  0.4742 -0.4789  0.8019
 5982TIP3    H117952   0.187   0.675   4.450  0.7014  0.6655 -0.8667
 5982TIP3    H217953   0.224   0.766   4.565 -0.6575  1.0765 -0.7337
 5983TIP3   OH217954   3.378   0.380   1.525  0.2564 -0.1036  0.1358
 5983TIP3    H117955   3.436   0.384   1.448 -0.2384  1.1649 -0.2106
 5983TIP3    H217956   3.310   0.317   1.501  1.6498 -1.8891  0.6917
 5984TIP3   OH217957   3.466   2.281   3.723  0.8572  0.4811  0.0988
 5984TIP3    H117958   3.440   2.212   3.662  0.3759 -1.4158  2.2581
 5984TIP3    H217959   3.476   2.359   3.670  0.0670 -0.9444 -2.2872
 5985TIP3   OH217960   3.020   0.433   3.945  0.3861 -0.4238  0.2334
 5985TIP3    H117961   2.940   0.474   3.978 -0.2012 -1.9155  0.7543
 5985TIP3    H217962   2.993   0.344   3.921  1.4261 -0.2767 -1.6506
 5986TIP3   OH217963   0.511   1.448   1.338  0.2547 -0.6324 -0.0400
 5986TIP3    H117964   0.499   1.454   1.432 -0.0169  0.2614 -0.1223
 5986TIP3    H217965   0.558   1.528   1.314 -0.6520 -0.3104 -0.8109
 5987TIP3   OH217966   3.314   4.715   2.710 -0.0308  0.1304  0.1889
 5987TIP3    H117967   3.384   4.653   2.686  0.1246 -0.6224  2.3911
 5987TIP3    H217968   3.358   4.781   2.763 -0.8609  0.0386  1.0094
 5988TIP3   OH217969   2.145   2.686   0.727  0.0995 -1.0779  0.3893
 5988TIP3    H117970   2.151   2.651   0.816  0.0641 -0.4368  0.6514
 5988TIP3    H217971   2.221   2.745   0.720  0.3264 -1.4263 -0.1443
 5989TIP3   OH217972   3.630   0.960   4.480  0.2623  0.1027 -0.2817
 5989TIP3    H117973   3.539   0.928   4.481  0.4670 -0.5013 -0.3662
 5989TIP3    H217974   3.644   0.996   4.567  0.7086 -2.0542  0.6054
 5990TIP3   OH217975   5.592   4.080   3.511  0.6697 -0.1352  0.0859
 5990TIP3    H117976   5.572   4.170   3.538  0.3029 -0.2184  0.0962
 5990TIP3    H217977   5.591   4.030   3.593 -0.1713 -0.3380 -0.0372
 5991TIP3   OH217978   3.454   0.700   0.986 -0.1580  0.0647  0.0097
 5991TIP3    H117979   3.362   0.697   1.011 -0.6577  2.3824 -1.2832
 5991TIP3    H217980   3.457   0.660   0.898 -0.1178  0.8716 -0.3646
 5992TIP3   OH217981   4.993   3.889   4.994 -0.4130 -0.3900 -0.1233
 5992TIP3    H117982   4.922   3.845   4.947 -0.4498 -0.6614  0.1839
 5992TIP3    H217983   5.006   3.970   4.946 -1.6066  0.1380  0.4038
 5993TIP3   OH217984   1.938   3.881   4.611  0.0677 -0.3374  0.0464
 5993TIP3    H117985   1.972   3.816   4.549  0.6771 -0.1871  0.2139
 5993TIP3    H217986   2.000   3.954   4.606  0.2769 -0.4385  1.0294
 5994TIP3   OH217987   3.858   3.739   2.818  0.0474 -0.2253 -0.2108
 5994TIP3    H117988   3.883   3.830   2.802 -0.1269  0.5060  3.0462
 5994TIP3    H217989   3.860   3.730   2.913 -1.3313 -3.2569 -0.3631
 5995TIP3   OH217990   3.737   5.524   0.138 -0.2696  0.3060 -0.1304
 5995TIP3    H117991   3.716   5.615   0.119  1.2652  0.6271 -0.4330
 5995TIP3    H217992   3.793   5.496   0.065 -1.3138 -1.1181 -0.4226
 5996TIP3   OH217993   5.930   1.096   4.368 -0.3099  0.1372  0.6076
 5996TIP3    H117994   5.956   1.147   4.291  1.4945 -0.0882  1.0179
 5996TIP3    H217995   5.849   1.136   4.397 -1.9430 -0.7514 -2.3079
 5997TIP3   OH217996   3.367   0.700   4.779  0.7766 -0.6720 -0.1469
 5997TIP3    H117997   3.413   0.675   4.699 -0.2389  0.3713 -1.0860
 5997TIP3    H217998   3.275   0.703   4.754  0.2941 -1.4646  1.3718
 5998TIP3   OH217999   2.162   1.181   3.580 -0.1320 -0.4897  0.2477
 5998TIP3    H118000   2.254   1.171   3.603  0.1350  1.4932  0.2626
 5998TIP3    H218001   2.119   1.207   3.661 -0.5542 -0.6853  0.0875
 5999TIP3   OH218002   4.608   2.725   1.327  0.0531 -0.6454  0.4216
 5999TIP3    H118003   4.658   2.795   1.368 -4.2230  2.5076  0.9764
 5999TIP3    H218004   4.562   2.682   1.400 -0.9942 -0.8030 -0.3033
 6000TIP3   OH218005   1.624   4.933   2.493  0.1898  0.4441  0.0314
 6000TIP3    H118006   1.604   4.910   2.402 -2.3137  1.7744  0.1460
 6000TIP3    H218007   1.681   5.009   2.487 -2.2392  2.3517 -0.5886
 6001TIP3   OH218008   5.739   5.696   2.652 -0.2221  0.1806  0.2136
 6001TIP3    H118009   5.782   5.744   2.581 -1.2727  0.2689 -0.3966
 6001TIP3    H218010   5.705   5.617   2.610  0.2486 -0.3911  0.9033
 6002TIP3   OH218011   0.205   5.450   3.558  0.3846 -0.1449  0.0900
 6002TIP3    H118012   0.281   5.392   3.570  0.6870  0.5562  1.7133
 6002TIP3    H218013   0.132   5.390   3.545  0.8033 -0.8957  1.0552
 6003TIP3   OH218014   1.841   0.577   5.156  0.0251 -0.5463  0.0828
 6003TIP3    H118015   1.907   0.634   5.117  0.1507  0.1350  1.2329
 6003TIP3    H218016   1.772   0.572   5.091  0.4717  0.0892 -0.4588
 6004TIP3   OH218017   4.159   2.508   0.434 -0.5312 -0.6384 -0.6738
 6004TIP3    H118018   4.180   2.595   0.469 -0.2720 -1.4213  1.2312
 6004TIP3    H218019   4.108   2.526   0.356 -1.6418  1.2553  0.3965
 6005TIP3   OH218020   2.891   5.513   3.070 -0.5551  0.7115  0.8711
 6005TIP3    H118021   2.986   5.516   3.061 -0.5857 -0.4162 -0.1437
 6005TIP3    H218022   2.875   5.451   3.141 -0.5286  2.0111  2.0536
 6006TIP3   OH218023   3.015   4.541   5.166 -0.1137 -0.5548  0.2234
 6006TIP3    H118024   3.110   4.543   5.159 -0.1127 -2.4580 -1.3100
 6006TIP3    H218025   2.995   4.455   5.203 -1.2391  0.0753  1.1432
 6007TIP3   OH218026   6.073   5.349   4.546 -0.4413  0.1129 -0.0648
 6007TIP3    H118027   6.050   5.331   4.637 -2.0898  0.4373 -0.3908
 6007TIP3    H218028   6.040   5.437   4.529 -1.4121 -0.4704 -1.3571
 6008TIP3   OH218029   1.923   5.693   0.081 -0.2781 -0.1562  0.3092
 6008TIP3    H118030   2.014   5.709   0.103 -0.3249  0.0213  0.3749
 6008TIP3    H218031   1.885   5.781   0.071  0.2314 -0.1774 -2.5202
 6009TIP3   OH218032   4.380   0.033   4.269 -0.1197  0.5076 -0.4574
 6009TIP3    H118033   4.353   0.062   4.182  0.8897 -1.7888 -1.5842
 6009TIP3    H218034   4.305  -0.017   4.301 -0.9043  2.1812  0.5067
 6010TIP3   OH218035   0.704   5.075   2.636  0.1458 -0.4628  0.1525
 6010TIP3    H118036   0.690   4.990   2.594  0.8004  0.0043 -1.0336
 6010TIP3    H218037   0.760   5.056   2.711  0.8669 -0.9827 -0.5146
 6011TIP3   OH218038   0.108   1.412   3.022  0.5139  0.3370  0.4899
 6011TIP3    H118039   0.107   1.335   2.964 -1.6989  0.7687 -0.1232
 6011TIP3    H218040   0.042   1.470   2.985 -0.5564  0.9036  3.1157
 6012TIP3   OH218041   4.949   1.035   4.594 -0.0427  0.2739  0.2554
 6012TIP3    H118042   4.960   1.128   4.577  2.5676 -0.1466 -0.9212
 6012TIP3    H218043   5.032   1.008   4.635 -1.3560 -1.2520  2.0990
 6013TIP3   OH218044   5.722   4.742   3.089  0.1188 -0.0815 -0.5251
 6013TIP3    H118045   5.685   4.690   3.018 -1.5685  0.0373  0.2297
 6013TIP3    H218046   5.804   4.698   3.111 -1.0150 -2.1653 -0.2301
 6014TIP3   OH218047   1.372   4.310   2.402 -0.2358  0.0207 -0.2441
 6014TIP3    H118048   1.330   4.298   2.487 -0.5357  1.1327 -0.2144
 6014TIP3    H218049   1.432   4.236   2.394 -0.8167 -0.5499  0.5598
 6015TIP3   OH218050   3.795   1.941   3.188 -0.1160  0.1242  0.6643
 6015TIP3    H118051   3.826   1.994   3.116  2.0240  0.3977  1.7201
 6015TIP3    H218052   3.845   1.860   3.182  1.1668  0.7011  2.6098
 6016TIP3   OH218053   4.486   3.936   1.607  0.0191  0.5450 -0.0314
 6016TIP3    H118054   4.466   4.024   1.639  1.3446  1.1358 -0.7718
 6016TIP3    H218055   4.581   3.928   1.616 -0.1719 -1.2108  0.9869
 6017TIP3   OH218056   1.304   2.699   4.555  0.0954  0.0767 -0.0494
 6017TIP3    H118057   1.276   2.661   4.471 -0.8976  0.7605 -0.0421
 6017TIP3    H218058   1.236   2.762   4.577 -0.6510 -1.4108  2.2207
 6018TIP3   OH218059   3.010   1.969   3.993 -0.1863  0.0365 -0.0551
 6018TIP3    H118060   3.049   2.048   4.029  0.9195 -1.1880  1.5464
 6018TIP3    H218061   2.928   1.999   3.953 -0.5585  1.7817  1.8487
 6019TIP3   OH218062   3.763   5.012   1.332  0.1590  0.0585 -0.1893
 6019TIP3    H118063   3.720   5.096   1.319  0.0907 -0.2189 -2.1318
 6019TIP3    H218064   3.804   4.993   1.248  1.2704 -1.2503  0.6052
 6020TIP3   OH218065   0.124   1.085   1.346 -0.5113  0.2678 -0.5720
 6020TIP3    H118066   0.066   1.152   1.310  0.5733  0.6157 -1.7373
 6020TIP3    H218067   0.151   1.034   1.270 -1.6389 -1.8042  0.3183
 6021TIP3   OH218068   0.804   2.060   0.101  0.0727  0.2632  0.5955
 6021TIP3    H118069   0.779   1.992   0.164 -1.4729 -0.4823 -0.7454
 6021TIP3    H218070   0.741   2.130   0.114 -0.5309 -0.0804 -0.3904
 6022TIP3   OH218071   3.939   3.333   2.580 -0.3502  0.7933 -0.1049
 6022TIP3    H118072   3.938   3.408   2.639  0.7711  0.2359  0.6612
 6022TIP3    H218073   4.017   3.345   2.527  1.0899 -0.8749  1.4962
 6023TIP3   OH218074   5.469   0.480   3.796  0.0345 -0.2115 -0.5283
 6023TIP3    H118075   5.534   0.484   3.726  0.6430  0.7290  0.0671
 6023TIP3    H218076   5.521   0.463   3.875 -0.5615 -0.5146 -0.1980
 6024TIP3   OH218077   3.320   5.953   4.544 -0.6583  0.3436  0.5269
 6024TIP3    H118078   3.327   5.917   4.455  2.2984  0.0491  0.7778
 6024TIP3    H218079   3.404   5.933   4.585 -2.2858 -0.4810  3.8258
 6025TIP3   OH218080   6.147   4.083   1.487  0.9159 -0.3300  0.0873
 6025TIP3    H118081   6.216   4.150   1.484  0.7986 -0.2282 -1.4800
 6025TIP3    H218082   6.133   4.060   1.395 -3.0674  1.6794 -0.0124
 6026TIP3   OH218083   3.127   0.846   1.425  0.4125  0.3117 -0.1313
 6026TIP3    H118084   3.067   0.816   1.357 -1.1253 -1.3920  1.8164
 6026TIP3    H218085   3.081   0.920   1.467  0.3499 -0.0167  0.3931
 6027TIP3   OH218086   3.466   4.863   0.865  0.2234  0.1142  0.1359
 6027TIP3    H118087   3.382   4.854   0.910  0.8468 -0.5145  1.2212
 6027TIP3    H218088   3.490   4.955   0.878 -0.8778  0.6564 -1.3116
 6028TIP3   OH218089   4.851   5.625   3.314 -0.0264 -0.2187  0.1015
 6028TIP3    H118090   4.899   5.708   3.317  0.7646 -0.6487 -0.3674
 6028TIP3    H218091   4.826   5.608   3.405 -0.0120  0.4265  0.2307
 6029TIP3   OH218092   4.480   0.973   3.020  0.5954  0.4675  0.3332
 6029TIP3    H118093   4.511   1.062   3.003 -0.5201  0.6727 -0.7916
 6029TIP3    H218094   4.532   0.918   2.961 -0.7353  0.7542 -1.1835
 6030TIP3   OH218095   5.069   4.356   4.969  0.1880 -0.9140  0.6832
 6030TIP3    H118096   5.140   4.330   5.027  0.1699 -0.4386  0.9252
 6030TIP3    H218097   5.065   4.451   4.977  0.4800 -0.7837 -0.4328
 6031TIP3   OH218098   5.438   3.159   0.792 -0.2248 -0.2530  0.5534
 6031TIP3    H118099   5.511   3.154   0.730  0.3179  2.5704  0.8242
 6031TIP3    H218100   5.366   3.114   0.749  0.1979  1.3771 -2.0808
 6032TIP3   OH218101   4.736   1.292   2.264  0.2819 -0.4444 -0.0712
 6032TIP3    H118102   4.725   1.317   2.172 -1.8919  0.4978  0.3695
 6032TIP3    H218103   4.669   1.225   2.279  0.6499 -0.6291  0.8175
 6033TIP3   OH218104   0.034   4.943   3.724 -0.4720 -0.3844  0.2071
 6033TIP3    H118105  -0.055   4.977   3.730  0.3594  1.7561  1.3570
 6033TIP3    H218106   0.080   4.982   3.798  1.3158 -1.8763 -0.0311
 6034TIP3   OH218107   0.461   5.965   2.335 -0.1585  0.3754 -0.3054
 6034TIP3    H118108   0.557   5.968   2.341 -0.1515  0.1411 -0.2648
 6034TIP3    H218109   0.433   5.934   2.421 -0.0900 -2.4526 -1.1937
 6035TIP3   OH218110   5.122   5.794   2.916  0.3389  0.6085 -0.0665
 6035TIP3    H118111   5.046   5.845   2.944  0.5287  1.0897 -0.4073
 6035TIP3    H218112   5.183   5.800   2.989  0.7342  1.6563 -0.4518
 6036TIP3   OH218113   0.929   4.955   3.820 -0.4396  0.1414  0.0680
 6036TIP3    H118114   0.900   5.044   3.804 -0.7591 -0.1791 -1.2516
 6036TIP3    H218115   0.862   4.917   3.877  0.3902  1.1220  1.7694
 6037TIP3   OH218116   2.224   2.481   0.030 -0.1832  0.1573  0.1653
 6037TIP3    H118117   2.161   2.442  -0.030  1.3500 -2.0725 -0.1534
 6037TIP3    H218118   2.182   2.477   0.116 -0.1057 -2.4469  0.1611
 6038TIP3   OH218119   2.599   4.783   3.017 -0.2454  0.2630  0.1587
 6038TIP3    H118120   2.540   4.858   3.016 -0.8576 -0.2105 -0.8488
 6038TIP3    H218121   2.635   4.780   2.929 -1.0874 -1.2753 -0.1664
 6039TIP3   OH218122   3.002   3.491   1.033 -0.2222 -0.1653 -0.6376
 6039TIP3    H118123   3.026   3.435   0.959  1.9597  0.9862 -0.8819
 6039TIP3    H218124   3.084   3.533   1.059 -1.3308  1.0573  1.1070
 6040TIP3   OH218125   1.421   1.894   3.098  0.1720 -0.2583 -0.0223
 6040TIP3    H118126   1.467   1.977   3.111  1.1327 -0.7765 -0.0283
 6040TIP3    H218127   1.428   1.878   3.004  2.0644 -1.4771  0.2621
 6041TIP3   OH218128   1.811   3.049   2.033 -0.0562 -0.1298 -0.2311
 6041TIP3    H118129   1.865   3.020   2.106  0.5891  0.5150 -0.4359
 6041TIP3    H218130   1.735   2.991   2.034  1.1054 -1.7104 -0.5442
 6042TIP3   OH218131   4.092   1.975   2.947  0.6521  0.4040 -0.4506
 6042TIP3    H118132   4.109   2.066   2.921 -1.2925  0.8504 -0.3002
 6042TIP3    H218133   4.119   1.971   3.039 -1.1254  1.4307  0.1553
 6043TIP3   OH218134   5.570   0.294   2.062  0.1569  0.2802 -0.0903
 6043TIP3    H118135   5.622   0.219   2.090  0.4326  0.1568 -0.9195
 6043TIP3    H218136   5.632   0.367   2.060  0.2145  0.2161 -0.7028
 6044TIP3   OH218137   5.959   2.104   1.691  0.2093 -0.2227 -0.0742
 6044TIP3    H118138   5.960   2.152   1.774  0.3707  0.7505 -0.6366
 6044TIP3    H218139   5.925   2.166   1.627  1.4988 -0.4703 -1.0393
 6045TIP3   OH218140   5.367   0.139   4.856 -0.2768  0.1168  0.1780
 6045TIP3    H118141   5.384   0.151   4.950 -0.0562  0.4792  0.0914
 6045TIP3    H218142   5.449   0.102   4.822 -0.4929 -0.3868  0.1999
 6046TIP3   OH218143   3.180   4.669   1.927 -0.1833 -0.6252 -0.2237
 6046TIP3    H118144   3.102   4.629   1.888 -0.3946  0.8932 -1.4945
 6046TIP3    H218145   3.152   4.757   1.953  0.6132 -0.7491  1.1654
 6047TIP3   OH218146   1.887   2.000   1.994 -0.0261  0.3260 -0.4113
 6047TIP3    H118147   1.792   1.993   1.986  0.1229 -2.4016 -0.8636
 6047TIP3    H218148   1.902   2.012   2.088 -0.7954  0.3638 -0.2855
 6048TIP3   OH218149   0.390   2.308   4.362  0.0088 -0.3299 -0.2375
 6048TIP3    H118150   0.335   2.319   4.285 -1.9756 -2.1688  0.7836
 6048TIP3    H218151   0.457   2.245   4.335  0.4532  0.4212 -0.9361
 6049TIP3   OH218152   0.621   1.840   2.773 -0.1477  0.1145  0.4853
 6049TIP3    H118153   0.694   1.784   2.802  0.1103 -0.1257 -0.5956
 6049TIP3    H218154   0.567   1.782   2.719 -0.5583  0.5834  0.3910
 6050TIP3   OH218155   5.595   3.609   1.836  0.0253  0.1352  0.1546
 6050TIP3    H118156   5.529   3.541   1.821  0.3241 -0.1680  0.1839
 6050TIP3    H218157   5.581   3.636   1.927 -0.5951  0.6673 -0.0918
 6051TIP3   OH218158   1.977   1.001   2.461  0.3885 -0.3004 -0.0150
 6051TIP3    H118159   1.979   1.049   2.378 -0.7743 -2.2375 -1.2371
 6051TIP3    H218160   1.896   1.032   2.504 -0.4168 -1.1887 -0.8479
 6052TIP3   OH218161   4.939   2.921   2.772 -0.1646  0.1390 -0.5008
 6052TIP3    H118162   4.879   2.979   2.819  0.4667  1.4203 -1.2157
 6052TIP3    H218163   4.935   2.838   2.820  0.5898  1.4219  1.9268
 6053TIP3   OH218164   4.008   4.063   5.034 -0.1813 -0.5488 -0.0320
 6053TIP3    H118165   3.969   4.126   4.973  1.3732 -0.6173 -1.1640
 6053TIP3    H218166   4.041   4.116   5.106 -0.3069 -0.2440 -0.1973
 6054TIP3   OH218167   3.036   1.347   2.376 -0.4962  0.3837  0.4446
 6054TIP3    H118168   2.998   1.430   2.403 -0.1048  0.3358  1.1523
 6054TIP3    H218169   3.129   1.366   2.364  0.1879 -0.5645  3.4277
 6055TIP3   OH218170   1.502   4.006   3.649  0.1026  0.1174 -0.2982
 6055TIP3    H118171   1.594   3.982   3.641  0.3266  0.8782 -0.1473
 6055TIP3    H218172   1.455   3.923   3.648  0.7577 -0.2604 -0.7979
 6056TIP3   OH218173   1.414   2.886   2.645  0.0125 -0.3083  0.1807
 6056TIP3    H118174   1.486   2.871   2.706 -0.6608 -0.6807  0.9167
 6056TIP3    H218175   1.415   2.810   2.587  2.2083  1.2026 -1.9557
 6057TIP3   OH218176   1.904   2.825   0.639  0.1855  0.3399  0.2254
 6057TIP3    H118177   1.986   2.782   0.664 -0.5912 -1.5467 -0.2383
 6057TIP3    H218178   1.860   2.761   0.582 -1.3749  1.5006  0.0519
 6058TIP3   OH218179   6.009   4.195   2.150  0.3332 -0.1477 -0.0615
 6058TIP3    H118180   6.034   4.124   2.092 -0.7602 -1.2343  0.7277
 6058TIP3    H218181   5.970   4.261   2.093  1.3426 -0.1811 -0.8053
 6059TIP3   OH218182   4.485   3.857   1.969  0.4541  0.2886  0.0264
 6059TIP3    H118183   4.482   3.790   1.900  0.0123 -0.7680  1.0495
 6059TIP3    H218184   4.411   3.915   1.950  0.9049  0.5779 -0.9301
 6060TIP3   OH218185   4.177   2.477   1.714  0.5415 -0.7826 -0.1064
 6060TIP3    H118186   4.258   2.502   1.758  0.1913 -1.3672  0.9147
 6060TIP3    H218187   4.188   2.508   1.624  0.7266  1.7353  0.6918
 6061TIP3   OH218188   1.286   3.229   4.470  0.0925 -0.2177 -0.0497
 6061TIP3    H118189   1.262   3.291   4.539 -0.1103  0.9650 -1.1466
 6061TIP3    H218190   1.325   3.156   4.517 -2.7734 -0.8711  1.6138
 6062TIP3   OH218191   3.066   5.352   4.708 -0.7451 -0.4276 -0.1924
 6062TIP3    H118192   2.998   5.407   4.669 -0.5625  0.7866  1.1576
 6062TIP3    H218193   3.132   5.413   4.740  0.8416 -1.5632 -1.1267
 6063TIP3   OH218194   5.418   4.733   0.704 -1.2097 -0.3385  0.1714
 6063TIP3    H118195   5.427   4.675   0.780  0.5952 -1.5555 -0.8954
 6063TIP3    H218196   5.503   4.778   0.699 -1.9080  0.9828 -0.1666
 6064TIP3   OH218197   2.152   4.512   0.445  1.0574 -0.0918  0.1029
 6064TIP3    H118198   2.237   4.470   0.433  0.9212 -0.9696  1.9341
 6064TIP3    H218199   2.119   4.477   0.528 -1.2351 -0.0058 -0.7087
 6065TIP3   OH218200   5.376   4.492   3.726  0.3421 -0.3706 -0.1666
 6065TIP3    H118201   5.383   4.582   3.757 -0.7835  0.0900 -1.1468
 6065TIP3    H218202   5.355   4.441   3.804  0.0985  0.3566  0.2517
 6066TIP3   OH218203   2.250   2.245   3.926  0.0090  0.2998 -0.0597
 6066TIP3    H118204   2.273   2.296   3.848 -1.1592 -0.7183 -1.1044
 6066TIP3    H218205   2.172   2.195   3.900  0.5553 -1.2944  1.2359
 6067TIP3   OH218206   1.485   0.653   2.721  0.2439 -0.0051  0.1647
 6067TIP3    H118207   1.545   0.643   2.647 -1.2443  0.1927 -1.1317
 6067TIP3    H218208   1.521   0.597   2.789  0.5879 -1.8362 -1.4282
 6068TIP3   OH218209   2.694   4.036   4.867 -0.0867  0.2978 -0.0153
 6068TIP3    H118210   2.722   4.108   4.923  2.6855 -0.8952  0.3096
 6068TIP3    H218211   2.637   3.983   4.923 -0.7534  1.3232  0.2904
 6069TIP3   OH218212   5.205   3.831   4.206 -0.1552  0.2332  0.1218
 6069TIP3    H118213   5.251   3.887   4.143  0.6747 -0.5871 -0.0331
 6069TIP3    H218214   5.183   3.752   4.157 -1.3261  0.4148  0.3306
 6070TIP3   OH218215   4.051   1.242   3.669 -0.1782  0.0815  0.5231
 6070TIP3    H118216   4.025   1.332   3.648  2.5398  1.0064  0.7188
 6070TIP3    H218217   3.974   1.204   3.710 -1.6253  2.1120 -0.1527
 6071TIP3   OH218218   0.160   5.665   2.630  0.7286  0.1174 -0.6884
 6071TIP3    H118219   0.219   5.602   2.672 -0.9814 -0.3667  1.1736
 6071TIP3    H218220   0.163   5.742   2.686 -0.3831  0.0665 -0.5210
 6072TIP3   OH218221   4.544   3.632   4.623 -0.1984 -0.6773 -0.4362
 6072TIP3    H118222   4.595   3.662   4.697 -0.0131 -0.5840 -0.5998
 6072TIP3    H218223   4.512   3.712   4.582  1.6717 -0.5789 -1.8510
 6073TIP3   OH218224   4.067   1.420   4.145 -0.5049  0.1953 -0.2175
 6073TIP3    H118225   4.101   1.473   4.217  0.5074 -0.2293 -0.3657
 6073TIP3    H218226   4.018   1.350   4.189 -1.3826  0.9279 -0.0070
 6074TIP3   OH218227   3.512   5.631   3.146 -0.0532 -0.0138 -0.1981
 6074TIP3    H118228   3.496   5.543   3.111  1.4619 -0.1092 -0.7290
 6074TIP3    H218229   3.516   5.687   3.068 -0.9518  0.5193  0.1367
 6075TIP3   OH218230   0.247   0.291   3.958 -0.4532  0.0028 -0.4743
 6075TIP3    H118231   0.336   0.325   3.968 -0.3438 -0.5869  0.5946
 6075TIP3    H218232   0.191   0.368   3.969 -0.1424  0.0989  0.5074
 6076TIP3   OH218233   0.574   2.210   0.699  0.4691  0.0214 -0.7507
 6076TIP3    H118234   0.619   2.146   0.643  0.1006  0.6845 -1.8411
 6076TIP3    H218235   0.587   2.294   0.655  0.9455  0.7066  0.6665
 6077TIP3   OH218236   1.893   2.757   4.022 -0.0782  0.5438 -0.0249
 6077TIP3    H118237   1.918   2.834   3.971  0.0855  0.0670 -0.6793
 6077TIP3    H218238   1.807   2.733   3.989 -0.3835  0.7885  0.5842
 6078TIP3   OH218239   0.437   5.937   2.723 -0.2579  0.1022 -0.1590
 6078TIP3    H118240   0.520   5.958   2.681  0.6724 -0.5127  1.3010
 6078TIP3    H218241   0.459   5.870   2.788 -1.9676 -0.3704 -0.0275
 6079TIP3   OH218242   4.994   0.519   4.128 -0.2120 -0.1403 -0.1127
 6079TIP3    H118243   4.914   0.482   4.090  0.6092  0.3739 -2.4930
 6079TIP3    H218244   4.962   0.590   4.185 -1.4798 -0.4121 -0.4402
 6080TIP3   OH218245   5.626   2.084   4.145  0.1027 -1.1736  0.8506
 6080TIP3    H118246   5.564   2.100   4.216  0.0843 -0.5129  0.6937
 6080TIP3    H218247   5.571   2.071   4.068  0.1556  0.4583  0.5014
 6081TIP3   OH218248   4.646   3.316   2.909  0.2171  0.0632 -0.2402
 6081TIP3    H118249   4.678   3.367   2.834  1.0579  0.5489  0.4311
 6081TIP3    H218250   4.712   3.330   2.977 -1.7873  1.7456  1.5014
 6082TIP3   OH218251   2.775   3.267   2.816 -0.1568  0.2890 -0.3138
 6082TIP3    H118252   2.719   3.246   2.891  1.5527 -0.6271  0.7977
 6082TIP3    H218253   2.855   3.303   2.856  2.1011 -3.1049 -1.3679
 6083TIP3   OH218254   1.279   3.804   1.954  0.1189 -0.4235 -0.0320
 6083TIP3    H118255   1.253   3.712   1.963  0.5590 -0.4756  0.8199
 6083TIP3    H218256   1.204   3.854   1.985 -0.7469 -0.4324 -2.0038
 6084TIP3   OH218257   0.276   5.131   3.100  0.4542  0.1607  0.0400
 6084TIP3    H118258   0.258   5.106   3.191  0.0105 -0.5961 -0.2447
 6084TIP3    H218259   0.371   5.125   3.091  0.3346 -1.9303 -0.1439
 6085TIP3   OH218260   1.239   4.229   0.580 -0.0587 -0.5789  0.2908
 6085TIP3    H118261   1.153   4.246   0.542 -0.7655  0.9583  2.3945
 6085TIP3    H218262   1.225   4.155   0.638 -0.1499  0.0812  1.1289
 6086TIP3   OH218263   2.623   2.906   3.159  0.2961  0.3426  0.2717
 6086TIP3    H118264   2.624   2.941   3.070  0.7252 -2.0591 -0.7476
 6086TIP3    H218265   2.564   2.830   3.155 -0.8813  1.0582  2.4319
 6087TIP3   OH218266   5.781   0.453   2.917 -0.4602 -0.1539 -0.6750
 6087TIP3    H118267   5.788   0.361   2.891  1.0951 -0.3947  0.4223
 6087TIP3    H218268   5.869   0.488   2.902 -0.9535  1.0719 -0.7695
 6088TIP3   OH218269   2.253  -0.016   0.706 -0.3694 -0.5078  0.0084
 6088TIP3    H118270   2.243   0.073   0.740 -1.9334 -0.8654  0.5734
 6088TIP3    H218271   2.220  -0.011   0.616  1.4014 -0.1180 -0.6623
 6089TIP3   OH218272   1.614   5.796   4.594 -0.2871 -0.3676  0.2677
 6089TIP3    H118273   1.660   5.769   4.673 -2.4152 -0.6166  1.4736
 6089TIP3    H218274   1.566   5.875   4.618 -0.4668 -0.0657 -0.9711
 6090TIP3   OH218275   2.959   3.010   5.031 -0.8366 -0.1407  0.1775
 6090TIP3    H118276   3.008   3.051   4.961 -0.7868 -0.1768  0.1909
 6090TIP3    H218277   2.877   2.982   4.991  0.0051 -1.9644 -0.3558
 6091TIP3   OH218278   0.823   1.895   1.445  0.2268  0.7136  0.1020
 6091TIP3    H118279   0.907   1.893   1.492  0.6583  0.0319 -0.6799
 6091TIP3    H218280   0.763   1.849   1.503  1.0398 -1.2159 -0.4998
 6092TIP3   OH218281   0.375   3.084   2.086  0.2086  0.3031  0.1932
 6092TIP3    H118282   0.349   3.155   2.145 -2.8474 -0.4936 -0.0230
 6092TIP3    H218283   0.344   3.113   2.000 -0.4605 -0.9602 -0.0048
 6093TIP3   OH218284   1.109   1.311   1.909 -0.4013 -0.4112 -0.2017
 6093TIP3    H118285   1.038   1.255   1.875 -1.6360 -0.7875  2.7424
 6093TIP3    H218286   1.164   1.252   1.959 -0.2640  0.5730  0.8278
 6094TIP3   OH218287   2.131   0.025   4.839 -0.1758 -0.1223  0.0956
 6094TIP3    H118288   2.149   0.110   4.801 -0.0470  0.3151  1.0878
 6094TIP3    H218289   2.087   0.044   4.922 -1.9369 -1.0814 -0.5612
 6095TIP3   OH218290   0.890   1.184   0.601 -0.3638 -0.1173 -0.5293
 6095TIP3    H118291   0.803   1.220   0.617 -0.2394 -0.0336 -0.0407
 6095TIP3    H218292   0.877   1.090   0.596 -0.0845 -0.3862  2.4031
 6096TIP3   OH218293   0.900   0.055   2.661  0.3280 -0.2549 -0.0314
 6096TIP3    H118294   0.991   0.047   2.634  1.2692 -1.3619  3.0050
 6096TIP3    H218295   0.904   0.090   2.750 -2.2091 -0.3950  0.2168
 6097TIP3   OH218296   5.495   2.649   3.578 -0.1664  0.0232 -0.1530
 6097TIP3    H118297   5.542   2.615   3.502 -1.8217 -0.5712 -0.9453
 6097TIP3    H218298   5.404   2.654   3.551 -0.3414  3.2669  0.5826
 6098TIP3   OH218299   3.078   4.400   0.188 -0.3693 -0.0515 -0.8526
 6098TIP3    H118300   3.004   4.355   0.229 -0.0507  0.4425  0.3077
 6098TIP3    H218301   3.150   4.338   0.193 -0.1879  0.2037 -0.1396
 6099TIP3   OH218302   6.327   1.001   0.266 -0.1123 -0.4095  0.3484
 6099TIP3    H118303   6.272   0.925   0.249  0.7437 -0.9940  0.1318
 6099TIP3    H218304   6.413   0.964   0.288  0.6552  0.5058 -0.9784
 6100TIP3   OH218305   4.190   1.541   3.725  0.0180 -0.6682  0.1362
 6100TIP3    H118306   4.115   1.546   3.783 -1.3294 -1.7249 -1.4042
 6100TIP3    H218307   4.225   1.453   3.737 -0.2569 -0.8891 -0.5899
 6101TIP3   OH218308   1.575   5.985   2.818 -0.4474  0.0045  0.2717
 6101TIP3    H118309   1.536   5.973   2.905  0.7670 -0.6943  0.7336
 6101TIP3    H218310   1.566   5.900   2.776  0.0586  0.0049  0.1643
 6102TIP3   OH218311   3.221   3.298   0.168 -0.1416  0.4386 -0.2743
 6102TIP3    H118312   3.257   3.210   0.178  0.4216  0.7643  0.6805
 6102TIP3    H218313   3.199   3.325   0.257 -0.2361  1.2992 -0.5486
 6103TIP3   OH218314   1.353   0.850   2.886  0.3757 -0.0662 -0.2149
 6103TIP3    H118315   1.295   0.882   2.817  0.1841 -0.6582 -0.3370
 6103TIP3    H218316   1.377   0.761   2.857 -1.0029 -0.9708  1.2480
 6104TIP3   OH218317   2.383   1.285   5.094 -0.4252 -0.1502 -0.3166
 6104TIP3    H118318   2.468   1.321   5.068 -0.8017  1.5654  0.7153
 6104TIP3    H218319   2.323   1.359   5.091 -1.1907 -0.6067  2.0705
 6105TIP3   OH218320   4.951   3.726   1.105  0.3055  0.0823 -0.0413
 6105TIP3    H118321   4.949   3.718   1.010 -0.8153  1.1373 -0.1208
 6105TIP3    H218322   4.875   3.676   1.135  0.4134  0.1062  0.2748
 6106TIP3   OH218323   0.976   2.149   2.163 -0.0785 -0.0913 -0.2124
 6106TIP3    H118324   1.065   2.115   2.174 -0.6364 -1.2894  0.8271
 6106TIP3    H218325   0.920   2.072   2.173 -1.2467  0.6659 -0.7401
 6107TIP3   OH218326   5.327   1.119   2.606  0.5083  0.1620 -0.5323
 6107TIP3    H118327   5.377   1.038   2.604 -0.2916 -0.3279 -1.8848
 6107TIP3    H218328   5.297   1.127   2.697  1.5655 -0.4353 -0.1177
 6108TIP3   OH218329   2.768   3.130   4.510 -0.4975  0.1666  0.0645
 6108TIP3    H118330   2.785   3.043   4.547 -2.2968 -0.3772 -0.2766
 6108TIP3    H218331   2.817   3.190   4.567  0.8070 -1.0526  0.2924
 6109TIP3   OH218332   3.093   4.278   1.591  0.2810  0.6069  0.0626
 6109TIP3    H118333   3.147   4.278   1.671  0.4584 -1.4479 -0.0077
 6109TIP3    H218334   3.119   4.358   1.545  1.6121  0.8313  1.1310
 6110TIP3   OH218335   1.857   0.932   4.861  0.4023  0.1166  0.6347
 6110TIP3    H118336   1.847   0.915   4.767 -0.0859  0.3431  0.6428
 6110TIP3    H218337   1.905   0.856   4.894 -1.5288 -1.1737  0.6425
 6111TIP3   OH218338   0.773   3.332   0.282 -0.1611 -0.0676  0.6303
 6111TIP3    H118339   0.761   3.421   0.248  2.0788  0.2215  0.4132
 6111TIP3    H218340   0.726   3.332   0.365 -0.7671  1.1141  0.3144
 6112TIP3   OH218341   0.495   4.496   1.790 -0.5519 -0.4447 -0.1700
 6112TIP3    H118342   0.407   4.474   1.757 -0.6844  1.3195 -1.0910
 6112TIP3    H218343   0.547   4.511   1.711  0.6938 -1.7543  0.3594
 6113TIP3   OH218344   2.891   3.057   0.200 -0.4363  0.2070 -0.3007
 6113TIP3    H118345   2.910   3.125   0.264  0.6152 -0.6081  0.2819
 6113TIP3    H218346   2.968   2.999   0.202 -1.1067 -0.7549 -1.0996
 6114TIP3   OH218347   6.309   5.215   0.129  0.3061  0.1137  0.2693
 6114TIP3    H118348   6.221   5.216   0.091 -0.2458 -1.1381  1.3854
 6114TIP3    H218349   6.304   5.278   0.202 -0.4548 -1.6180  1.8108
 6115TIP3   OH218350   2.258   0.259   4.738  0.7327  0.1504 -0.2570
 6115TIP3    H118351   2.323   0.277   4.670 -0.4090  1.3146 -1.0903
 6115TIP3    H218352   2.185   0.317   4.717 -0.1954 -0.4377  1.2048
 6116TIP3   OH218353   0.363   5.386   2.038  0.0109 -0.0000  0.0246
 6116TIP3    H118354   0.369   5.363   2.131 -1.3657  0.0259  0.1362
 6116TIP3    H218355   0.380   5.480   2.036  0.2539 -0.0383  0.2258
 6117TIP3   OH218356   2.690   5.091   1.574  0.4216 -0.0160  0.5383
 6117TIP3    H118357   2.646   5.013   1.607 -1.6552  1.1890  0.7860
 6117TIP3    H218358   2.697   5.149   1.651 -0.4579  1.0588 -0.1636
 6118TIP3   OH218359   3.912   1.671   4.494 -0.0004  0.3793 -0.4503
 6118TIP3    H118360   3.968   1.693   4.569 -0.2094 -0.0774 -0.1591
 6118TIP3    H218361   3.834   1.632   4.532 -0.2942  0.5319 -0.8861
 6119TIP3   OH218362   2.400   3.151   0.627 -0.2642  0.3111  0.6603
 6119TIP3    H118363   2.342   3.155   0.703 -0.8231  0.1814  0.2444
 6119TIP3    H218364   2.484   3.124   0.663 -1.2400 -2.8381  0.8827
 6120TIP3   OH218365   3.914   0.916   2.775  0.1443 -0.7019 -0.6297
 6120TIP3    H118366   3.905   0.910   2.870 -0.3263  1.4089 -0.4856
 6120TIP3    H218367   3.826   0.902   2.741 -0.4974  2.2467 -0.4354
 6121TIP3   OH218368   1.502   3.881   3.070 -0.0422  0.6776 -0.1039
 6121TIP3    H118369   1.448   3.877   2.991 -0.1424  0.5507 -0.0285
 6121TIP3    H218370   1.451   3.936   3.130 -0.9784 -0.9459  0.6556
 6122TIP3   OH218371   5.870   3.119   1.325 -0.2711 -0.2064 -0.7475
 6122TIP3    H118372   5.898   3.028   1.331 -0.5664 -0.2054  1.0910
 6122TIP3    H218373   5.778   3.115   1.299 -0.5525 -0.4872  0.2608
 6123TIP3   OH218374   5.658   5.522   2.283 -0.1039 -0.3513  0.4064
 6123TIP3    H118375   5.596   5.582   2.324 -1.4692 -1.4855  0.0907
 6123TIP3    H218376   5.688   5.465   2.354 -1.9555 -1.8837  0.0328
 6124TIP3   OH218377   3.293   5.162   1.154  0.1187 -0.3748  0.4049
 6124TIP3    H118378   3.207   5.151   1.112  0.6389 -0.7486 -0.5935
 6124TIP3    H218379   3.309   5.078   1.198 -0.0053 -0.3204  0.5547
 6125TIP3   OH218380   0.890   0.421   2.316 -0.2588 -0.0372 -0.2758
 6125TIP3    H118381   0.974   0.387   2.346 -0.9402 -0.9771  0.6638
 6125TIP3    H218382   0.908   0.510   2.287  1.3150 -0.6762 -1.3706
 6126TIP3   OH218383   4.370   3.708   1.432 -0.8771  0.0999 -0.2355
 6126TIP3    H118384   4.360   3.629   1.485 -0.0912 -0.2971 -0.6527
 6126TIP3    H218385   4.412   3.771   1.491 -0.8392 -0.0369 -0.1143
 6127TIP3   OH218386   5.765  -0.002   2.112  0.9490 -0.5273  0.0237
 6127TIP3    H118387   5.775   0.029   2.202 -0.9741  0.9014 -0.1948
 6127TIP3    H218388   5.845   0.029   2.069  0.3399  1.9279  0.4754
 6128TIP3   OH218389   6.283   2.100   2.995  0.3196 -0.3298 -0.0514
 6128TIP3    H118390   6.361   2.131   3.041  0.5342 -1.1172  0.1126
 6128TIP3    H218391   6.213   2.109   3.060 -0.2640  2.7645 -0.9470
 6129TIP3   OH218392   0.988   3.847   4.430  0.2018  0.4723  0.1152
 6129TIP3    H118393   0.983   3.943   4.427  0.0453  0.4952  0.8362
 6129TIP3    H218394   1.024   3.822   4.345  1.3149  1.2417  0.3276
 6130TIP3   OH218395   0.038   2.034   4.621  0.6268 -0.2059  0.3275
 6130TIP3    H118396   0.075   1.956   4.662 -0.0482 -0.4164  0.5476
 6130TIP3    H218397   0.114   2.081   4.586  0.9674 -1.3809 -0.5732
 6131TIP3   OH218398   1.271   1.915   4.424  0.5947 -0.6946 -0.6391
 6131TIP3    H118399   1.262   2.000   4.467  0.6859 -1.2493  0.5169
 6131TIP3    H218400   1.307   1.935   4.338  0.2262  0.4680 -0.5369
 6132TIP3   OH218401   3.313   3.569   1.941 -0.1842  0.1165 -0.2477
 6132TIP3    H118402   3.290   3.659   1.964 -1.9654 -0.2583 -0.4904
 6132TIP3    H218403   3.288   3.517   2.018  1.3518 -0.1279  0.1219
 6133TIP3   OH218404   6.186   0.237   0.955 -0.4103  0.1258  0.0214
 6133TIP3    H118405   6.110   0.200   1.001 -1.5007  2.3978  0.1493
 6133TIP3    H218406   6.176   0.206   0.865 -1.4880  0.3844  0.0393
 6134TIP3   OH218407   6.105   3.467   4.839 -0.0715  0.4040 -0.1104
 6134TIP3    H118408   6.053   3.425   4.908  0.7679 -0.6489 -0.0928
 6134TIP3    H218409   6.043   3.483   4.768 -0.1879 -2.3536 -0.7643
 6135TIP3   OH218410   0.610   2.893   0.569 -0.0188 -0.4869  0.6513
 6135TIP3    H118411   0.669   2.889   0.645  0.6182 -1.4398  0.1253
 6135TIP3    H218412   0.536   2.946   0.599  1.2644  1.0500  1.2260
 6136TIP3   OH218413   2.930   4.819   3.008 -0.1821  0.6244  0.3731
 6136TIP3    H118414   2.989   4.893   2.994 -0.9483  1.2805  0.5485
 6136TIP3    H218415   2.844   4.851   2.982 -0.4217 -0.4220 -0.1807
 6137TIP3   OH218416   2.984   0.200   1.878 -0.1253  0.1649 -0.6064
 6137TIP3    H118417   3.066   0.222   1.834 -0.3232  2.0008 -0.1405
 6137TIP3    H218418   3.010   0.174   1.966 -0.0725  1.9444 -0.0540
 6138TIP3   OH218419   0.400   3.300   4.992  0.3336  0.2560  0.2090
 6138TIP3    H118420   0.375   3.327   5.080  1.5211 -2.1100  1.3648
 6138TIP3    H218421   0.424   3.381   4.948  2.8478  1.2860  3.1323
 6139TIP3   OH218422   1.799   1.180   1.237 -0.5422  0.1157  0.1997
 6139TIP3    H118423   1.885   1.210   1.206 -0.0150 -0.7555  0.7588
 6139TIP3    H218424   1.736   1.232   1.188  0.2965  0.1904 -0.8292
 6140TIP3   OH218425   3.060   3.321   3.961  0.1763  0.7267  0.8790
 6140TIP3    H118426   3.093   3.249   3.908 -2.4561 -1.4614  2.0046
 6140TIP3    H218427   3.139   3.360   4.001  1.9486  0.6304 -2.2359
 6141TIP3   OH218428   2.687   2.421   3.201  0.0237 -0.4284 -0.1584
 6141TIP3    H118429   2.763   2.401   3.256  0.3153  0.3512 -0.2595
 6141TIP3    H218430   2.725   2.451   3.118 -0.4030 -0.5106 -0.3880
 6142TIP3   OH218431   5.930   2.380   0.411  0.1113 -0.2607 -0.2936
 6142TIP3    H118432   5.974   2.412   0.490  0.9174 -0.5537 -0.6090
 6142TIP3    H218433   5.876   2.307   0.442  0.1030 -0.1093  0.0544
 6143TIP3   OH218434   5.029   0.429   0.155 -0.7854  0.1202  0.0344
 6143TIP3    H118435   5.029   0.338   0.184 -0.5518 -0.1475 -0.7786
 6143TIP3    H218436   5.019   0.424   0.060  2.5466  0.7776 -0.4778
 6144TIP3   OH218437   5.798   2.895   0.767 -0.1225  0.2151 -0.0806
 6144TIP3    H118438   5.838   2.976   0.735  0.2263 -0.2331 -0.7835
 6144TIP3    H218439   5.748   2.862   0.693 -3.3328  1.6558  1.2267
 6145TIP3   OH218440   6.288   4.276   2.048 -0.5558 -0.2016  0.6538
 6145TIP3    H118441   6.221   4.234   2.101 -0.6881 -0.7804  0.0479
 6145TIP3    H218442   6.249   4.281   1.960 -0.2516  0.5120  0.5551
 6146TIP3   OH218443   5.586   2.682   4.994 -0.1221 -0.2113 -0.1647
 6146TIP3    H118444   5.669   2.673   5.042  1.1294  0.0609 -2.1727
 6146TIP3    H218445   5.607   2.655   4.905 -1.8831  1.0982 -1.0288
 6147TIP3   OH218446   6.104   3.260   3.682  0.0319  0.8526 -0.1403
 6147TIP3    H118447   6.198   3.262   3.701 -0.0878  0.0988  0.6122
 6147TIP3    H218448   6.074   3.178   3.722 -0.6139  0.1458 -1.9815
 6148TIP3   OH218449   4.879   5.276   2.403  0.3383  0.1750  0.0031
 6148TIP3    H118450   4.907   5.185   2.417 -0.3872  0.0147  0.4490
 6148TIP3    H218451   4.943   5.327   2.452  0.8098 -0.0817 -0.3289
 6149TIP3   OH218452   4.118   5.241   2.960 -0.0877 -0.2317  0.1100
 6149TIP3    H118453   4.194   5.272   3.009  0.2001  2.1682 -1.6750
 6149TIP3    H218454   4.053   5.310   2.970 -1.2778 -1.2789 -0.1160
 6150TIP3   OH218455   0.230   4.929   0.593 -0.2653  0.0469 -0.5738
 6150TIP3    H118456   0.179   4.865   0.542 -0.5034  0.3888 -0.7644
 6150TIP3    H218457   0.276   4.981   0.527 -1.9619  1.6746 -0.5648
 6151TIP3   OH218458   0.118   5.226   1.887  0.3364  0.3372  0.2048
 6151TIP3    H118459   0.181   5.295   1.905 -0.6630  1.5840 -0.9026
 6151TIP3    H218460   0.035   5.260   1.921 -0.1836 -0.2979 -0.3892
 6152TIP3   OH218461   3.528   1.574   3.897 -0.3563  0.0287 -0.7528
 6152TIP3    H118462   3.454   1.533   3.942 -0.4804  1.0016 -0.0286
 6152TIP3    H218463   3.498   1.586   3.808 -0.9777  0.1848 -0.5265
 6153TIP3   OH218464   3.636   0.273   4.337 -0.3434 -0.2359  0.4305
 6153TIP3    H118465   3.630   0.296   4.430 -0.6465  0.0200  0.3483
 6153TIP3    H218466   3.673   0.352   4.296  0.1111 -0.4678  0.3805
 6154TIP3   OH218467   0.722   0.656   1.580  0.5556  0.3779  0.3911
 6154TIP3    H118468   0.690   0.580   1.628  1.7705 -0.2500  0.2140
 6154TIP3    H218469   0.667   0.659   1.501  0.2220 -0.0524  0.6002
 6155TIP3   OH218470   1.240   1.253   0.231  0.4337 -0.2213  0.4123
 6155TIP3    H118471   1.231   1.170   0.184 -0.5604  0.2265 -0.2387
 6155TIP3    H218472   1.310   1.300   0.185 -0.4360  0.1553 -0.5774
 6156TIP3   OH218473   1.508   1.496   0.972  0.4520 -0.6966  0.7379
 6156TIP3    H118474   1.413   1.500   0.962  0.3663 -0.2612  1.5636
 6156TIP3    H218475   1.543   1.536   0.893 -0.0924  0.4421  1.0493
 6157TIP3   OH218476   2.651   5.790   1.139  0.4681  0.6133 -0.5060
 6157TIP3    H118477   2.733   5.757   1.176  0.1353  0.1088 -0.2109
 6157TIP3    H218478   2.639   5.876   1.179 -0.1847 -0.1561  1.0297
 6158TIP3   OH218479   0.570   0.083   0.325  0.0009 -0.3462 -0.5481
 6158TIP3    H118480   0.646   0.045   0.281  1.9819  1.3570  1.1607
 6158TIP3    H218481   0.592   0.079   0.418  0.3445  4.4451 -0.1472
 6159TIP3   OH218482   6.280   2.645   2.405 -0.4817 -0.3244  0.2150
 6159TIP3    H118483   6.221   2.571   2.391 -0.5597 -0.0589 -0.9129
 6159TIP3    H218484   6.355   2.607   2.451 -0.6565 -1.0437 -0.0798
 6160TIP3   OH218485   6.190   1.187   2.170  0.3815  0.3763 -0.0184
 6160TIP3    H118486   6.231   1.170   2.085 -1.1373 -0.2799 -0.6613
 6160TIP3    H218487   6.216   1.113   2.224 -1.1749 -0.8896 -0.9145
 6161TIP3   OH218488   0.435   3.008   0.069 -0.1899  0.5738 -0.0874
 6161TIP3    H118489   0.480   2.955   0.135 -1.7073  0.0804  0.6093
 6161TIP3    H218490   0.504   3.058   0.026  1.0351 -0.3957  0.6953
 6162TIP3   OH218491   6.030   2.286   0.184  0.0640 -0.3791  0.0151
 6162TIP3    H118492   6.118   2.322   0.174 -0.5576  1.0994 -0.3789
 6162TIP3    H218493   6.002   2.316   0.270 -0.3552 -0.1737 -0.1932
 6163TIP3   OH218494   5.469   0.671   0.214 -0.0927 -0.2737 -0.2921
 6163TIP3    H118495   5.538   0.634   0.158 -1.3711 -0.3733 -1.8656
 6163TIP3    H218496   5.509   0.749   0.252  1.6079 -1.4993  0.6093
 6164TIP3   OH218497   3.810   2.888   1.821 -0.2611  0.2298 -0.3236
 6164TIP3    H118498   3.833   2.973   1.784 -0.7917  0.4301 -0.2049
 6164TIP3    H218499   3.828   2.897   1.915  1.8994 -0.5552 -0.6140
 6165TIP3   OH218500   0.320   2.347   2.189  0.1569  0.0342  0.2675
 6165TIP3    H118501   0.408   2.310   2.193  0.9419  1.8177  0.6743
 6165TIP3    H218502   0.267   2.290   2.245  1.1084 -0.8767  0.2737
 6166TIP3   OH218503   5.144   2.343   3.319  0.2065  0.2487  0.3042
 6166TIP3    H118504   5.107   2.284   3.253  0.5093  0.1191  0.2500
 6166TIP3    H218505   5.226   2.302   3.345 -0.1001  0.0998  1.0490
 6167TIP3   OH218506   0.988   3.140   3.642  0.6001  0.1743  0.3464
 6167TIP3    H118507   0.894   3.119   3.641  0.6057  0.1542 -0.0608
 6167TIP3    H218508   1.031   3.055   3.652  0.5942  0.0933 -0.2723
 6168TIP3   OH218509   5.460   0.228   1.278  0.2704  0.3827 -0.0537
 6168TIP3    H118510   5.376   0.236   1.324  0.0998 -0.2398 -0.2493
 6168TIP3    H218511   5.442   0.167   1.206  0.4450  1.5995 -1.1583
 6169TIP3   OH218512   4.435   2.742   1.091 -0.1641  0.1964  0.4397
 6169TIP3    H118513   4.494   2.739   1.167 -1.5255 -0.9849  1.5111
 6169TIP3    H218514   4.479   2.800   1.029  1.9253 -0.2969  1.3476
 6170TIP3   OH218515   5.849   1.054   0.566 -0.5949  0.3932 -0.3678
 6170TIP3    H118516   5.790   1.002   0.512  0.8880 -0.4306 -1.2600
 6170TIP3    H218517   5.890   1.115   0.504  0.5649 -0.0521 -0.0674
 6171TIP3   OH218518   2.758   3.347   3.240  0.3857  0.3323 -0.1950
 6171TIP3    H118519   2.821   3.398   3.188 -1.1267  1.9204 -0.5941
 6171TIP3    H218520   2.751   3.264   3.194  0.2167  1.1425 -1.7086
 6172TIP3   OH218521   5.245   0.393   3.628  0.1001 -0.6276  0.2546
 6172TIP3    H118522   5.303   0.330   3.585 -1.4761 -1.6709 -0.4204
 6172TIP3    H218523   5.303   0.443   3.686  1.7549 -1.2291 -0.8167
 6173TIP3   OH218524   5.970   4.234   1.636  0.0201  0.2648  0.0892
 6173TIP3    H118525   6.017   4.162   1.595 -0.4305  0.6142 -1.0734
 6173TIP3    H218526   5.897   4.252   1.577  0.2261  1.7834  0.2548
 6174TIP3   OH218527   4.115   1.810   2.198  0.0585 -0.2929  0.5377
 6174TIP3    H118528   4.184   1.745   2.204 -0.7025 -1.1398  0.3929
 6174TIP3    H218529   4.110   1.847   2.286 -0.5490 -1.5652  1.0725
 6175TIP3   OH218530   0.645   0.034   4.513 -0.2551  0.0865  0.8392
 6175TIP3    H118531   0.730   0.076   4.530  1.1532 -2.3158  0.2672
 6175TIP3    H218532   0.620  -0.003   4.597  0.1153 -0.6238  0.6407
 6176TIP3   OH218533   0.151   5.929   2.739  0.6670 -0.4327 -0.2950
 6176TIP3    H118534   0.243   5.941   2.763  1.0332 -0.7676 -1.4773
 6176TIP3    H218535   0.131   6.005   2.684  0.6935 -1.1331 -1.2952
 6177TIP3   OH218536   5.821   3.392   2.765  0.3731  0.1997  0.0247
 6177TIP3    H118537   5.731   3.421   2.751  0.2428 -0.2888 -0.1596
 6177TIP3    H218538   5.827   3.309   2.719  0.4943 -0.5133  1.2766
 6178TIP3   OH218539   0.480   3.554   4.248 -0.0864 -0.1947 -0.7942
 6178TIP3    H118540   0.487   3.530   4.155  0.2488 -3.3951 -0.0621
 6178TIP3    H218541   0.569   3.580   4.273 -0.4509  2.0818 -1.6074
 6179TIP3   OH218542   0.440   2.821   2.047 -0.1336  0.1886  0.2989
 6179TIP3    H118543   0.367   2.761   2.063  0.7797 -0.7733  0.9706
 6179TIP3    H218544   0.406   2.907   2.072 -1.7199  0.1239 -1.4328
 6180TIP3   OH218545   4.737   3.530   4.111 -0.2766  0.0801  0.2954
 6180TIP3    H118546   4.717   3.623   4.107  0.0467  0.1660  0.5920
 6180TIP3    H218547   4.831   3.527   4.130 -0.0066 -0.2988 -0.9938
 6181TIP3   OH218548   1.998   0.675   4.904 -0.3586 -0.2338 -0.6791
 6181TIP3    H118549   1.962   0.590   4.879 -0.8020 -0.1756 -0.2686
 6181TIP3    H218550   2.088   0.674   4.872  0.0972 -1.4122  0.5562
 6182TIP3   OH218551   4.005   3.647   3.604 -0.1817  0.7011 -0.0259
 6182TIP3    H118552   4.088   3.695   3.606 -0.1832  0.7444 -0.7429
 6182TIP3    H218553   3.989   3.624   3.695  0.6146  0.7051  0.1247
 6183TIP3   OH218554   5.245   4.784   3.199  0.3084 -0.2943 -0.8794
 6183TIP3    H118555   5.334   4.773   3.234 -0.1722  1.3765  0.9885
 6183TIP3    H218556   5.250   4.863   3.145 -0.4506  0.9602  0.8293
 6184TIP3   OH218557   1.834   5.107   3.128 -0.5527  0.0419  0.6150
 6184TIP3    H118558   1.840   5.184   3.184 -2.0808 -0.5456  1.6539
 6184TIP3    H218559   1.764   5.054   3.167  0.9318 -2.2391  0.4111
 6185TIP3   OH218560   3.704   1.623   1.902  0.2728  0.4693  0.1093
 6185TIP3    H118561   3.702   1.701   1.957  1.5632 -0.0310  0.9064
 6185TIP3    H218562   3.621   1.578   1.921  0.1346  0.9549  0.6678
 6186TIP3   OH218563   1.800   0.605   1.288 -0.0209  0.4570 -0.1773
 6186TIP3    H118564   1.844   0.609   1.203 -1.1658  3.3106 -0.7704
 6186TIP3    H218565   1.709   0.584   1.267 -0.2695  0.9863  0.3386
 6187TIP3   OH218566   1.195   3.922   0.054 -0.3218 -0.3766  0.3039
 6187TIP3    H118567   1.192   3.989   0.122  1.5475 -1.4436  1.5660
 6187TIP3    H218568   1.108   3.882   0.056 -0.6072  0.2408  1.4401
 6188TIP3   OH218569   1.276   4.183   4.210 -0.1256  0.0946 -0.1490
 6188TIP3    H118570   1.337   4.196   4.283 -1.8288 -3.0256  2.0930
 6188TIP3    H218571   1.208   4.249   4.222  0.4157  0.5949  0.1546
 6189TIP3   OH218572   2.871   5.079   2.575 -0.1554  0.3273 -0.1252
 6189TIP3    H118573   2.936   5.146   2.595 -0.5865  0.6486  0.2275
 6189TIP3    H218574   2.911   5.026   2.506  2.2452 -2.0714  2.8413
 6190TIP3   OH218575   2.427   0.449   1.432  0.2837 -0.1002 -0.1929
 6190TIP3    H118576   2.408   0.510   1.504 -0.3651 -0.5999  0.0716
 6190TIP3    H218577   2.518   0.467   1.409  0.0531  1.1209 -0.2682
 6191TIP3   OH218578   2.815   2.082   3.798 -0.1484 -0.0795 -0.4995
 6191TIP3    H118579   2.746   2.148   3.806 -0.0078 -0.0491  0.5752
 6191TIP3    H218580   2.850   2.095   3.710 -0.6217  0.7812 -0.5765
 6192TIP3   OH218581   0.975   2.402   2.997 -0.3960 -0.2868  0.0836
 6192TIP3    H118582   1.043   2.470   2.990  0.7552 -1.2713  1.2447
 6192TIP3    H218583   0.985   2.350   2.918 -1.7754  1.2560 -1.1916
 6193TIP3   OH218584   2.627   3.052   2.899 -0.7464 -0.2361  0.1869
 6193TIP3    H118585   2.610   2.963   2.870 -2.1022  0.1419 -0.2665
 6193TIP3    H218586   2.594   3.107   2.828 -0.9505  0.6348  0.9331
 6194TIP3   OH218587   6.284   1.500   1.105 -0.0035  0.4572  0.2408
 6194TIP3    H118588   6.286   1.593   1.082 -1.5315  0.3702 -0.3024
 6194TIP3    H218589   6.337   1.457   1.037 -2.6276  0.4824 -2.0052
 6195TIP3   OH218590   0.541   1.830   0.734 -0.5174 -0.1682 -0.5092
 6195TIP3    H118591   0.584   1.756   0.691 -0.2001 -1.3812  1.7685
 6195TIP3    H218592   0.611   1.875   0.781 -0.9606  0.7523 -0.6960
 6196TIP3   OH218593   4.222   3.331   0.869  0.0575 -0.0635  0.6433
 6196TIP3    H118594   4.143   3.382   0.884  0.3666  0.3318  0.9395
 6196TIP3    H218595   4.192   3.240   0.867 -0.5294  0.1321 -0.1016
 6197TIP3   OH218596   4.944   1.587   1.549 -0.3855 -0.4166 -0.5155
 6197TIP3    H118597   4.875   1.653   1.539 -1.5028 -0.9320  2.6532
 6197TIP3    H218598   5.013   1.632   1.598  0.2269 -0.7434 -1.0659
 6198TIP3   OH218599   3.336   2.111   0.096  0.2669  0.0958 -0.0139
 6198TIP3    H118600   3.380   2.093   0.013  0.3141 -1.0158  0.2366
 6198TIP3    H218601   3.314   2.204   0.092  2.3689  0.6419 -0.2673
 6199TIP3   OH218602   0.463   4.976   0.335  0.2930  0.7929  0.1217
 6199TIP3    H118603   0.521   4.974   0.412 -0.8471 -0.6729  0.9963
 6199TIP3    H218604   0.521   4.994   0.262  1.8521 -0.5059  0.9724
 6200TIP3   OH218605   3.844   5.576   5.126 -0.7785 -0.1238 -0.3954
 6200TIP3    H118606   3.765   5.529   5.098 -0.5530 -0.1211 -1.0569
 6200TIP3    H218607   3.891   5.593   5.045  0.1079 -0.4814  0.0381
 6201TIP3   OH218608   4.776   4.557   5.161  0.1193  0.1526 -0.0441
 6201TIP3    H118609   4.863   4.539   5.196 -0.9688 -2.8307  1.5606
 6201TIP3    H218610   4.754   4.479   5.111 -1.8100  0.6086  0.0135
 6202TIP3   OH218611   0.473   4.216   5.018 -0.2225  0.5428 -0.3787
 6202TIP3    H118612   0.445   4.148   5.078  0.8932  0.2610 -0.1679
 6202TIP3    H218613   0.488   4.171   4.935 -1.3592  0.8647 -0.7873
 6203TIP3   OH218614   1.955   5.526   4.491  0.7612  0.0297 -0.7918
 6203TIP3    H118615   1.895   5.543   4.419 -1.8207 -0.0751  1.2138
 6203TIP3    H218616   1.956   5.608   4.541  0.7200 -0.6231  0.2903
 6204TIP3   OH218617   0.920   5.166   4.684 -0.4027  0.6816  0.5344
 6204TIP3    H118618   0.873   5.147   4.602 -0.6401  1.0053  0.5935
 6204TIP3    H218619   0.998   5.214   4.656 -0.2223  0.3502  0.4564
 6205TIP3   OH218620   6.044   0.726   1.773  0.2197 -0.7498 -0.2462
 6205TIP3    H118621   6.023   0.635   1.796  1.1877 -0.2694  3.0446
 6205TIP3    H218622   6.087   0.719   1.687  0.4909 -3.4220 -0.0002
 6206TIP3   OH218623   0.501   4.691   1.133 -0.3954 -0.5774 -0.3184
 6206TIP3    H118624   0.576   4.751   1.132  0.7048 -1.7890  1.7108
 6206TIP3    H218625   0.504   4.651   1.221 -1.8411 -2.6215 -1.1236
 6207TIP3   OH218626   3.115   5.556   2.524 -0.2476 -0.3175  0.0347
 6207TIP3    H118627   3.202   5.530   2.552  0.4453  1.6820 -0.1453
 6207TIP3    H218628   3.107   5.522   2.435  0.7761  0.3837 -0.3373
 6208TIP3   OH218629   0.812   3.171   2.674 -0.1187  0.2458  0.0794
 6208TIP3    H118630   0.797   3.166   2.769  1.8902 -1.8314  0.3796
 6208TIP3    H218631   0.781   3.087   2.640  0.9499  0.1760 -0.7758
 6209TIP3   OH218632   0.173   3.493   4.611  0.4673  0.1773  0.1103
 6209TIP3    H118633   0.140   3.515   4.523 -0.8214 -2.3302 -0.1618
 6209TIP3    H218634   0.193   3.399   4.605  1.1251  0.1350  2.2865
 6210TIP3   OH218635   0.369   2.413   2.996  0.2556  0.8625 -0.2097
 6210TIP3    H118636   0.293   2.404   2.939  0.2805  2.4289 -0.5547
 6210TIP3    H218637   0.444   2.416   2.937  0.4716  0.5487  0.0442
 6211TIP3   OH218638   3.466   4.659   5.021  0.0376 -0.1257 -0.0194
 6211TIP3    H118639   3.556   4.651   5.053 -0.5011 -0.1186  1.5754
 6211TIP3    H218640   3.438   4.746   5.050 -0.2571  0.1881 -1.1748
 6212TIP3   OH218641   2.400   1.822   1.699 -0.3372 -0.1424  0.4665
 6212TIP3    H118642   2.413   1.728   1.709 -0.9312 -0.5853 -2.1301
 6212TIP3    H218643   2.305   1.832   1.689 -0.0723  0.2854 -2.2948
 6213TIP3   OH218644   4.288   5.188   1.532  0.3766  0.1212 -0.2027
 6213TIP3    H118645   4.219   5.237   1.577 -0.7670 -0.5715 -1.1134
 6213TIP3    H218646   4.360   5.184   1.595 -0.1849  1.3823  0.5614
 6214TIP3   OH218647   3.770   5.863   4.560 -0.5070 -0.3107  0.1682
 6214TIP3    H118648   3.783   5.839   4.468 -0.1413 -0.9273  0.3706
 6214TIP3    H218649   3.719   5.791   4.596 -0.9528  0.1041  0.3683
 6215TIP3   OH218650   6.350   2.448   2.141 -0.4747  0.0078  0.0558
 6215TIP3    H118651   6.340   2.409   2.228  0.5629  0.4305  0.3887
 6215TIP3    H218652   6.348   2.374   2.081 -1.2524 -0.2841  0.4311
 6216TIP3   OH218653   1.300   4.367   3.297  0.7170 -0.4849 -0.1529
 6216TIP3    H118654   1.285   4.460   3.317  0.2458 -0.6097  0.1130
 6216TIP3    H218655   1.326   4.328   3.381  0.4577 -0.6767 -0.1582
 6217TIP3   OH218656   1.717   0.073   1.532 -0.0777  0.6119  0.1513
 6217TIP3    H118657   1.773   0.031   1.467 -0.6886  0.8949 -0.5832
 6217TIP3    H218658   1.641   0.104   1.481 -1.3226 -0.5380  1.2406
 6218TIP3   OH218659   5.113   2.126   0.687  0.2247 -0.1701  0.0698
 6218TIP3    H118660   5.195   2.122   0.736  1.1212  1.0695 -1.2328
 6218TIP3    H218661   5.140   2.134   0.595 -1.3208  0.9901 -0.3318
 6219TIP3   OH218662   0.986   0.448   4.819  0.5433  0.5595  0.3254
 6219TIP3    H118663   1.009   0.370   4.768  1.4341  0.0857  1.3876
 6219TIP3    H218664   0.987   0.417   4.910  0.8555  1.7988  0.7544
 6220TIP3   OH218665   1.335   0.991   3.461  0.3224  0.1773 -0.2954
 6220TIP3    H118666   1.368   0.985   3.551 -0.6244 -1.3766 -0.0070
 6220TIP3    H218667   1.388   0.927   3.412 -0.5947 -0.5723 -0.3442
 6221TIP3   OH218668   5.587   5.415   4.541 -0.3034 -0.1791  0.2170
 6221TIP3    H118669   5.624   5.477   4.478  0.3281 -1.2924 -0.5231
 6221TIP3    H218670   5.494   5.409   4.518  0.4001 -2.6880 -2.4952
 6222TIP3   OH218671   0.827   0.918   0.335 -0.2514  0.2146  0.0004
 6222TIP3    H118672   0.838   0.837   0.385 -0.7754 -0.6144 -1.1836
 6222TIP3    H218673   0.732   0.933   0.335 -0.1309  0.9866  0.4523
 6223TIP3   OH218674   0.113   4.578   4.832  0.3363 -0.0236 -0.2675
 6223TIP3    H118675   0.029   4.536   4.851  0.7436  0.1713  2.3209
 6223TIP3    H218676   0.165   4.508   4.792  0.7063 -1.9366  3.1589
 6224TIP3   OH218677   2.141   5.654   2.640 -0.0727  0.3589  0.7324
 6224TIP3    H118678   2.086   5.715   2.689  1.1855  3.1418 -1.0717
 6224TIP3    H218679   2.220   5.645   2.693  0.7160  2.2875  0.0012
 6225TIP3   OH218680   4.887   3.526   0.930  0.2806 -0.0877 -0.2214
 6225TIP3    H118681   4.854   3.612   0.904 -1.0831 -0.3137  0.6661
 6225TIP3    H218682   4.857   3.467   0.862 -0.9346 -0.2408  0.4250
 6226TIP3   OH218683   5.051   0.050   0.423 -0.1480 -0.0735 -0.0305
 6226TIP3    H118684   5.073  -0.042   0.406 -1.3652 -0.8067  1.9983
 6226TIP3    H218685   4.980   0.046   0.487 -0.1281  2.3078  0.2195
 6227TIP3   OH218686   3.436   0.523   2.700  0.0712  0.2056 -0.5324
 6227TIP3    H118687   3.362   0.502   2.757  1.3009  0.3319  1.1958
 6227TIP3    H218688   3.494   0.447   2.708  0.3093  0.2597 -1.5910
 6228TIP3   OH218689   0.378   5.451   4.999 -0.0900  0.0767  0.1543
 6228TIP3    H118690   0.367   5.392   5.073 -1.2479  1.7432  1.3890
 6228TIP3    H218691   0.288   5.472   4.972  0.3114  0.4547 -0.9305
 6229TIP3   OH218692   0.772   5.553   1.041 -0.2133  0.6841 -0.3481
 6229TIP3    H118693   0.678   5.549   1.023 -0.1201  0.3987 -0.7776
 6229TIP3    H218694   0.779   5.615   1.114 -0.8422 -0.1732  0.4729
 6230TIP3   OH218695   1.512   0.391   3.595  0.2700 -0.0157 -0.2971
 6230TIP3    H118696   1.425   0.375   3.632 -0.4863  0.7625 -1.6543
 6230TIP3    H218697   1.526   0.320   3.533  1.2024 -0.8869  0.8731
 6231TIP3   OH218698   6.181   2.885   2.054 -0.0296  0.2601 -0.5347
 6231TIP3    H118699   6.273   2.896   2.079  0.5808 -3.2189 -0.7599
 6231TIP3    H218700   6.140   2.845   2.130 -1.6042  2.3431 -0.2004
 6232TIP3   OH218701   2.085   4.673   5.011  0.0655  0.0589  0.2439
 6232TIP3    H118702   1.991   4.659   5.000 -0.3142 -0.7602  3.4512
 6232TIP3    H218703   2.114   4.597   5.062  2.3603  0.6472 -0.0841
 6233TIP3   OH218704   4.851   0.654   4.315 -0.2687  0.1973 -0.4568
 6233TIP3    H118705   4.837   0.731   4.369 -2.4972  1.2553 -2.3510
 6233TIP3    H218706   4.819   0.581   4.368 -0.1087  0.8523  0.5667
 6234TIP3   OH218707   4.422   1.912   0.746 -0.3308  0.0375 -0.2928
 6234TIP3    H118708   4.505   1.878   0.779 -0.4654 -0.1623 -0.1512
 6234TIP3    H218709   4.390   1.969   0.816 -0.6645 -0.4635 -0.0335
 6235TIP3   OH218710   3.862   1.937   2.216 -0.5567 -0.0598 -0.0654
 6235TIP3    H118711   3.889   2.029   2.223 -1.7160  0.2983 -0.0993
 6235TIP3    H218712   3.944   1.888   2.212  0.0985  0.8139  1.7668
 6236TIP3   OH218713   2.938   1.843   4.619 -0.8814 -0.1259 -0.5649
 6236TIP3    H118714   2.976   1.833   4.706  0.3242  0.6354 -0.9893
 6236TIP3    H218715   3.012   1.864   4.562 -1.4695 -1.6784 -1.9921
 6237TIP3   OH218716   1.052   0.547   1.640 -0.1704 -0.1439  0.0536
 6237TIP3    H118717   1.103   0.626   1.618 -0.6763  0.5845  1.3856
 6237TIP3    H218718   1.114   0.489   1.684  0.1449 -0.4100 -0.7187
 6238TIP3   OH218719   0.868   3.038   2.292 -0.2943 -0.1911 -0.1089
 6238TIP3    H118720   0.782   3.048   2.253 -0.8911  1.9574  1.6073
 6238TIP3    H218721   0.857   2.971   2.359 -0.3195 -0.6998 -0.6060
 6239TIP3   OH218722   0.252   0.193   4.302  0.1307 -0.1968  0.2988
 6239TIP3    H118723   0.252   0.116   4.244  0.0977  0.5379 -0.6915
 6239TIP3    H218724   0.161   0.201   4.331  0.2622 -0.9192  0.9443
 6240TIP3   OH218725   4.943   5.060   0.264 -0.8256 -0.0079 -0.0241
 6240TIP3    H118726   5.007   4.998   0.229 -1.4004  0.5936 -2.3229
 6240TIP3    H218727   4.865   5.007   0.280 -0.8497 -0.1491 -0.5813
 6241TIP3   OH218728   0.638   5.234   3.850  0.2749  0.1786 -0.4141
 6241TIP3    H118729   0.670   5.159   3.800  3.2817 -0.1939  1.8038
 6241TIP3    H218730   0.707   5.253   3.913 -1.4473  3.2907  0.7972
 6242TIP3   OH218731   4.747   2.136   2.336 -0.5763  0.3934  0.8439
 6242TIP3    H118732   4.741   2.119   2.430 -1.9044 -1.9855  0.3790
 6242TIP3    H218733   4.748   2.050   2.295 -1.6498  1.3749 -1.4357
 6243TIP3   OH218734   2.216   1.291   0.526 -0.2949 -0.2260 -0.0792
 6243TIP3    H118735   2.242   1.329   0.443 -1.6943  0.6135 -0.1667
 6243TIP3    H218736   2.257   1.346   0.592  2.3250 -1.9435 -0.1215
 6244TIP3   OH218737   1.439   4.233   5.164  0.2246 -0.1085 -0.3230
 6244TIP3    H118738   1.373   4.299   5.142  0.9528  0.1663 -1.8352
 6244TIP3    H218739   1.420   4.160   5.105  0.8561 -0.2833 -0.3152
 6245TIP3   OH218740   1.307   2.339   2.129  0.2355  0.8413  0.4564
 6245TIP3    H118741   1.278   2.418   2.083 -1.5381 -0.0862 -0.0756
 6245TIP3    H218742   1.316   2.366   2.220 -1.9231  1.3110  0.5744
 6246TIP3   OH218743   0.098   3.635   4.053  0.2896  0.4427 -0.4980
 6246TIP3    H118744   0.025   3.633   3.991 -0.5703 -0.1099  0.5000
 6246TIP3    H218745   0.068   3.691   4.125  0.5527 -0.3500  0.2548
 6247TIP3   OH218746   1.292   5.160   1.685 -0.3908  0.0125 -0.0255
 6247TIP3    H118747   1.345   5.180   1.762  1.7399  1.7266 -1.8065
 6247TIP3    H218748   1.240   5.239   1.671  0.0149  0.1304 -0.9223
 6248TIP3   OH218749   3.597   3.424   3.115  0.0846 -0.0530 -0.3702
 6248TIP3    H118750   3.628   3.348   3.163 -0.9671  0.1431  0.6453
 6248TIP3    H218751   3.676   3.475   3.097  0.5294 -0.3021  0.8369
 6249TIP3   OH218752   0.752   4.762   3.297  0.1108  0.1980 -0.0954
 6249TIP3    H118753   0.817   4.724   3.239 -0.2099  0.1469 -0.4229
 6249TIP3    H218754   0.668   4.736   3.260 -0.0992  0.2866  0.3078
 6250TIP3   OH218755   4.819   4.385   4.003  0.2100 -0.1516 -0.5348
 6250TIP3    H118756   4.886   4.372   3.935 -0.0504  1.3264 -1.1202
 6250TIP3    H218757   4.738   4.395   3.954  0.0549  1.1812 -0.0425
 6251TIP3   OH218758   3.291   2.568   0.129  0.4554 -0.0929  0.5412
 6251TIP3    H118759   3.378   2.602   0.152  0.4524  1.3199 -1.2966
 6251TIP3    H218760   3.286   2.577   0.034 -1.6710 -0.2319  0.5879
 6252TIP3   OH218761   4.120   0.811   0.215  0.3169 -0.2443 -0.2088
 6252TIP3    H118762   4.048   0.749   0.203 -0.3872  0.6827 -0.9025
 6252TIP3    H218763   4.078   0.889   0.252  1.1683 -0.1236  0.5256
 6253TIP3   OH218764   5.727   0.118   4.564  0.1576  0.2974  0.4175
 6253TIP3    H118765   5.730   0.163   4.480  0.3740 -1.2334 -0.4391
 6253TIP3    H218766   5.774   0.036   4.549 -2.3352 -1.3752  1.1406
 6254TIP3   OH218767   5.667   0.292   1.514 -0.5048  0.4132  0.1818
 6254TIP3    H118768   5.720   0.328   1.443  0.4633  1.2517  1.2844
 6254TIP3    H218769   5.682   0.197   1.509  0.5984  0.5822  0.0812
 6255TIP3   OH218770   5.237   3.638   4.659 -0.0297  0.3662  0.7020
 6255TIP3    H118771   5.205   3.676   4.741  1.0865 -2.1944  2.4844
 6255TIP3    H218772   5.170   3.574   4.634  0.7923 -0.6743  1.0781
 6256TIP3   OH218773   4.651   2.389   0.879 -0.2519 -0.0883  0.0607
 6256TIP3    H118774   4.691   2.440   0.808  1.1532 -0.2481  0.7082
 6256TIP3    H218775   4.634   2.452   0.948  0.7843 -0.3490  0.5694
 6257TIP3   OH218776   1.817   2.354   2.681  0.0173  1.1251 -0.2207
 6257TIP3    H118777   1.909   2.346   2.653 -0.3086 -1.3086 -0.8376
 6257TIP3    H218778   1.779   2.268   2.663 -1.3386  0.6417  3.9093
 6258TIP3   OH218779   5.901   2.217   0.835  0.0718 -0.3489 -0.1336
 6258TIP3    H118780   5.811   2.194   0.857  0.0400  0.9834  1.3439
 6258TIP3    H218781   5.954   2.147   0.874 -0.2220  0.0282  0.9981
 6259TIP3   OH218782   6.173   5.116   1.930  0.1472  0.0949  0.0694
 6259TIP3    H118783   6.146   5.205   1.905 -0.7842  0.2157  1.3657
 6259TIP3    H218784   6.133   5.060   1.863 -0.4704  0.5499  0.0395
 6260TIP3   OH218785   5.914   5.585   4.478  0.0074  0.3077  0.4923
 6260TIP3    H118786   5.832   5.593   4.429 -0.5902  0.8473  1.5452
 6260TIP3    H218787   5.890   5.602   4.569  0.9992 -1.1593  1.0753
 6261TIP3   OH218788   1.096   1.010   0.415  0.0344  0.5270  0.0796
 6261TIP3    H118789   1.088   1.071   0.488  0.6270  2.3875 -1.3421
 6261TIP3    H218790   1.012   1.016   0.370 -0.8146 -1.5693  1.2314
 6262TIP3   OH218791   0.496   4.492   5.132 -0.2158  0.1816 -0.2078
 6262TIP3    H118792   0.520   4.404   5.100 -0.8332  0.7838 -2.5445
 6262TIP3    H218793   0.452   4.533   5.057 -0.7503  2.1811  1.1292
 6263TIP3   OH218794   1.236   1.809   0.908  0.0584  0.4225  0.4310
 6263TIP3    H118795   1.251   1.833   0.817 -0.3762 -1.1219 -0.0947
 6263TIP3    H218796   1.269   1.719   0.915 -3.6851 -1.1370  0.6090
 6264TIP3   OH218797   5.543   4.212   0.239  0.3128 -0.0718  0.3343
 6264TIP3    H118798   5.589   4.147   0.186 -0.2290  0.5039 -0.8741
 6264TIP3    H218799   5.462   4.229   0.191 -0.0258  0.7349  1.1664
 6265TIP3   OH218800   3.048   2.706   4.353  0.2257  0.5035  0.2311
 6265TIP3    H118801   3.101   2.779   4.320  0.6358  0.4726  0.8004
 6265TIP3    H218802   3.101   2.668   4.424 -0.1088 -0.1692  0.1307
 6266TIP3   OH218803   3.093   4.728   1.206  0.2495 -0.7201  0.1315
 6266TIP3    H118804   3.041   4.804   1.180  3.8278  1.5431 -1.1702
 6266TIP3    H218805   3.029   4.658   1.218 -3.0322  1.8195 -1.0378
 6267TIP3   OH218806   6.133   4.141   4.666  0.0773  0.4233 -0.6005
 6267TIP3    H118807   6.159   4.138   4.758  2.6196 -0.0699 -1.2407
 6267TIP3    H218808   6.158   4.056   4.631 -1.8694  0.1940 -1.5412
 6268TIP3   OH218809   4.484   3.324   0.825 -0.2662 -0.4294  0.5447
 6268TIP3    H118810   4.486   3.232   0.797  2.1181 -0.3095  0.1389
 6268TIP3    H218811   4.391   3.345   0.830 -0.9119 -1.8207 -2.8306
 6269TIP3   OH218812   2.296   0.334   3.133 -0.1495  0.1877  0.1358
 6269TIP3    H118813   2.288   0.310   3.041  0.9097  0.0433  0.0746
 6269TIP3    H218814   2.330   0.256   3.176  0.4037  0.6005  0.4614
 6270TIP3   OH218815   1.033   4.665   5.113 -0.3617  0.7082 -0.3738
 6270TIP3    H118816   1.007   4.592   5.056  1.1215 -1.6506  1.7235
 6270TIP3    H218817   1.113   4.699   5.074  0.4334 -0.6300  0.0319
 6271TIP3   OH218818   2.262   3.630   4.645 -0.2550  0.3645  0.4650
 6271TIP3    H118819   2.330   3.694   4.668 -0.1433 -0.2340  1.9660
 6271TIP3    H218820   2.190   3.649   4.706 -0.2682 -0.8284  0.8446
 6272TIP3   OH218821   3.656   2.270   0.934 -0.6945  0.1129 -0.5367
 6272TIP3    H118822   3.723   2.237   0.873 -0.0569  1.8195 -0.8310
 6272TIP3    H218823   3.635   2.357   0.900 -2.0025  0.1891  0.4141
 6273TIP3   OH218824   2.678   4.398   4.126 -0.5020 -0.6181  0.3602
 6273TIP3    H118825   2.754   4.342   4.145  0.2986  0.3342  0.0716
 6273TIP3    H218826   2.620   4.384   4.200  0.2076 -0.9486  0.8722
 6274TIP3   OH218827   6.366   3.496   3.388 -0.2007  0.3920  0.4354
 6274TIP3    H118828   6.292   3.508   3.448 -2.9085 -1.8871 -2.1165
 6274TIP3    H218829   6.385   3.403   3.390  1.4623  0.6698 -0.3229
 6275TIP3   OH218830   5.253   1.479   2.729  0.1390 -0.0129 -0.1564
 6275TIP3    H118831   5.191   1.429   2.676  0.0495 -0.2125  0.1292
 6275TIP3    H218832   5.269   1.423   2.806  1.1061 -0.2217 -0.4939
 6276TIP3   OH218833   5.932   5.292   3.163 -0.3611  0.3793 -0.1947
 6276TIP3    H118834   5.905   5.269   3.075  0.9108 -0.8795 -0.2835
 6276TIP3    H218835   5.869   5.249   3.221  0.2843 -0.9696 -0.4490
 6277TIP3   OH218836   4.441   2.814   2.912  0.1910 -0.2972 -0.7413
 6277TIP3    H118837   4.403   2.769   2.836  1.2277  0.2064 -1.5819
 6277TIP3    H218838   4.377   2.880   2.935 -1.2544 -1.9920  0.3615
 6278TIP3   OH218839   2.214   5.276   3.184  0.4337 -0.6538 -0.2687
 6278TIP3    H118840   2.266   5.351   3.213  0.4616 -0.5328 -0.6219
 6278TIP3    H218841   2.221   5.213   3.256 -1.7340  0.6993  1.2563
 6279TIP3   OH218842   1.554   0.525   2.332 -0.1894 -0.4717  0.2935
 6279TIP3    H118843   1.532   0.432   2.339  1.2973 -0.9066 -0.4101
 6279TIP3    H218844   1.586   0.536   2.242  3.3350 -0.1612  1.4259
 6280TIP3   OH218845   0.764   3.598   0.762  0.2459  0.0190 -0.1223
 6280TIP3    H118846   0.732   3.561   0.680  0.8450 -1.4655  0.2669
 6280TIP3    H218847   0.757   3.526   0.825  4.2491 -0.4938  0.0076
 6281TIP3   OH218848   5.341   4.250   1.832 -0.1075 -0.0569 -0.4032
 6281TIP3    H118849   5.328   4.155   1.828  2.4193 -0.5082  0.3922
 6281TIP3    H218850   5.434   4.262   1.813 -0.0418  2.1326  0.9907
 6282TIP3   OH218851   1.546   0.410   4.118  0.4537 -0.2179  0.0083
 6282TIP3    H118852   1.451   0.404   4.106  0.1132  1.2648  1.5575
 6282TIP3    H218853   1.578   0.447   4.037 -0.0107 -2.3840 -1.2530
 6283TIP3   OH218854   0.025   0.591   4.395 -0.2020  0.5457  0.3370
 6283TIP3    H118855  -0.031   0.566   4.322  1.8075 -0.7168 -0.8684
 6283TIP3    H218856   0.040   0.510   4.443  0.7513  0.8144  0.5168
 6284TIP3   OH218857   4.809   0.498   3.319  0.4025  0.2167  0.2299
 6284TIP3    H118858   4.886   0.470   3.370  0.2581  0.0808  0.3733
 6284TIP3    H218859   4.768   0.566   3.372  0.2421  0.0625  0.3022
 6285TIP3   OH218860   4.960   1.641   4.705 -0.2006 -0.2510  0.1989
 6285TIP3    H118861   4.974   1.719   4.651 -2.1589 -0.1890 -0.2830
 6285TIP3    H218862   5.044   1.627   4.749 -0.6362  4.2205  3.1393
 6286TIP3   OH218863   1.324   0.543   0.873  0.1798  0.1900 -0.4662
 6286TIP3    H118864   1.256   0.593   0.918  0.0005  0.4047 -0.9622
 6286TIP3    H218865   1.343   0.470   0.932 -2.3230 -1.3525 -1.3597
 6287TIP3   OH218866   1.695   0.568   3.432  0.1425  0.2068  0.3106
 6287TIP3    H118867   1.641   0.568   3.511  0.0815  0.3550  0.2708
 6287TIP3    H218868   1.658   0.497   3.379  1.0025 -0.7406  0.9534
 6288TIP3   OH218869   5.701   3.910   2.691  0.0146  0.2106  0.1930
 6288TIP3    H118870   5.680   3.976   2.625 -0.8780 -0.8865 -0.6445
 6288TIP3    H218871   5.794   3.924   2.710  0.5798 -0.1398 -2.0935
 6289TIP3   OH218872   1.180   3.709   1.675 -0.4425  0.5659 -0.2672
 6289TIP3    H118873   1.189   3.641   1.608  1.5562 -0.1993  0.6889
 6289TIP3    H218874   1.270   3.728   1.701 -1.1238  1.5266  1.5355
 6290TIP3   OH218875   3.496   5.687   2.618 -0.4677  0.0968  0.4255
 6290TIP3    H118876   3.565   5.741   2.657  0.9619 -1.8262  0.7161
 6290TIP3    H218877   3.525   5.675   2.527 -0.9333  0.0402  0.2822
 6291TIP3   OH218878   4.174   4.506   3.784 -0.0504  0.1688 -0.1958
 6291TIP3    H118879   4.109   4.572   3.761 -0.5647 -0.7573 -1.5752
 6291TIP3    H218880   4.126   4.440   3.833  0.1064  0.0656 -0.1796
 6292TIP3   OH218881   0.369   4.939   2.222  0.2515 -0.3799 -0.2892
 6292TIP3    H118882   0.387   4.966   2.132 -3.4795 -0.1609 -1.1130
 6292TIP3    H218883   0.396   4.848   2.225 -1.0429 -0.8839 -2.1949
 6293TIP3   OH218884   4.117   4.414   1.464 -0.1319  0.2274 -0.0848
 6293TIP3    H118885   4.069   4.465   1.529 -0.1866 -0.3460  0.3354
 6293TIP3    H218886   4.052   4.397   1.395 -0.4752 -0.3496  0.3729
 6294TIP3   OH218887   5.006   4.322   4.668  0.3927 -0.1898 -0.4152
 6294TIP3    H118888   5.015   4.418   4.664  0.4494 -0.2073 -0.7091
 6294TIP3    H218889   5.089   4.289   4.635  0.3489 -0.3434 -0.3715
 6295TIP3   OH218890   2.183   3.267   2.782  0.5786 -0.2064  0.1726
 6295TIP3    H118891   2.226   3.182   2.781  1.3594  0.1701 -1.5739
 6295TIP3    H218892   2.252   3.330   2.761 -0.4343  0.6225 -0.8195
 6296TIP3   OH218893   0.900   2.913   4.248 -0.3886  0.0765  1.0219
 6296TIP3    H118894   0.855   2.838   4.287  1.5628 -0.4675  2.4200
 6296TIP3    H218895   0.867   2.988   4.297  0.8296 -0.4236  2.7191
 6297TIP3   OH218896   3.315   4.288   2.124  0.3717 -0.4130 -0.2398
 6297TIP3    H118897   3.392   4.244   2.159  1.3518  0.9664 -0.5690
 6297TIP3    H218898   3.350   4.364   2.076 -1.0929 -0.6512 -1.7823
 6298TIP3   OH218899   1.767   3.666   2.728  0.6306  0.4950 -0.5036
 6298TIP3    H118900   1.716   3.728   2.676  1.2947  1.1158 -0.4345
 6298TIP3    H218901   1.702   3.617   2.779 -0.0584 -0.2812 -2.0582
 6299TIP3   OH218902   0.636   4.194   2.060  0.3289  0.4144 -0.3855
 6299TIP3    H118903   0.565   4.258   2.056 -0.3763 -0.3842 -0.9143
 6299TIP3    H218904   0.647   4.176   2.153 -0.0383  0.6736 -0.2871
 6300TIP3   OH218905   3.622   3.239   3.327 -0.0838 -0.0401 -0.0688
 6300TIP3    H118906   3.634   3.155   3.371 -0.4904 -0.6952 -1.1708
 6300TIP3    H218907   3.623   3.304   3.398 -0.7959 -1.0582  0.8970
 6301TIP3   OH218908   5.271   5.570   1.602  0.7438 -0.3624  0.2783
 6301TIP3    H118909   5.284   5.477   1.622  1.0635 -0.1506  1.0842
 6301TIP3    H218910   5.202   5.570   1.536  0.4954 -1.1536  0.5173
 6302TIP3   OH218911   2.909   4.567   0.637 -0.0181 -0.0355 -0.2568
 6302TIP3    H118912   2.936   4.504   0.704  1.7412  1.2515  0.3380
 6302TIP3    H218913   2.831   4.529   0.598  0.2473 -1.9490  0.9426
 6303TIP3   OH218914   4.210   3.660   0.638  0.1137 -0.1752 -0.0023
 6303TIP3    H118915   4.278   3.603   0.600  0.3027  1.7614 -2.9494
 6303TIP3    H218916   4.250   3.747   0.638 -1.2044  0.4807  1.5344
 6304TIP3   OH218917   1.080   3.147   4.306  0.2966  0.3792  0.1436
 6304TIP3    H118918   1.023   3.085   4.351  1.6127 -1.0538 -0.1182
 6304TIP3    H218919   1.131   3.188   4.376  1.3117 -0.7896  0.1025
 6305TIP3   OH218920   0.601   1.464   2.493 -0.3418  0.3634  0.6321
 6305TIP3    H118921   0.669   1.470   2.426  0.8398 -0.5187  1.7113
 6305TIP3    H218922   0.527   1.422   2.448 -0.5279  2.0913 -0.7792
 6306TIP3   OH218923   0.840   0.400   1.670 -0.0981 -0.1539 -0.6331
 6306TIP3    H118924   0.907   0.467   1.660 -2.7651  2.7801 -0.4097
 6306TIP3    H218925   0.807   0.385   1.582 -0.1913 -0.4131 -0.5551
 6307TIP3   OH218926   1.724   3.130   2.614 -0.1152  0.2409  0.1821
 6307TIP3    H118927   1.696   3.133   2.523 -1.7208  0.9886  0.6675
 6307TIP3    H218928   1.804   3.183   2.617 -0.3671  0.6840 -0.6826
 6308TIP3   OH218929   3.024   3.387   1.445  0.6722  1.1140 -0.2092
 6308TIP3    H118930   2.994   3.411   1.533  1.5157 -0.9685  0.7325
 6308TIP3    H218931   2.944   3.375   1.395  0.0439 -0.0169  0.9928
 6309TIP3   OH218932   6.041   5.013   3.039 -0.1365 -0.1397  0.1950
 6309TIP3    H118933   6.073   5.094   2.998  0.1565  0.5864  1.7886
 6309TIP3    H218934   6.095   4.944   3.000 -1.6578  0.0882 -2.6495
 6310TIP3   OH218935   1.245   4.639   1.179  0.0818 -0.3560  0.0649
 6310TIP3    H118936   1.184   4.582   1.226  0.4631 -0.0812  0.9107
 6310TIP3    H218937   1.327   4.590   1.177  0.1000 -0.3145 -0.2054
 6311TIP3   OH218938   5.540   1.260   2.176 -0.3320  0.2955  0.0109
 6311TIP3    H118939   5.459   1.285   2.221  0.2544  0.1452  1.1868
 6311TIP3    H218940   5.574   1.341   2.141 -0.1952  0.6166  0.8644
 6312TIP3   OH218941   0.883   1.373   4.572 -0.2772 -0.2925  0.1314
 6312TIP3    H118942   0.905   1.362   4.664 -0.0020  0.3128  0.1437
 6312TIP3    H218943   0.813   1.310   4.556  1.7830 -2.7005 -0.0580
 6313TIP3   OH218944   2.921   0.180   2.367  0.0771  0.5111  0.3664
 6313TIP3    H118945   2.846   0.161   2.424  1.1273 -1.4861  1.2219
 6313TIP3    H218946   2.883   0.207   2.284 -1.5421  1.3435  1.3480
 6314TIP3   OH218947   3.263   2.021   4.287  0.4223 -0.0986 -0.4295
 6314TIP3    H118948   3.347   1.999   4.327 -0.8871 -3.9086  0.6894
 6314TIP3    H218949   3.208   2.048   4.361  0.0039 -0.0181 -0.7668
 6315TIP3   OH218950   2.761   0.045   2.573  0.0451  0.7704  0.1187
 6315TIP3    H118951   2.732   0.136   2.568  1.6798  1.3419  0.1119
 6315TIP3    H218952   2.843   0.050   2.623  0.2677 -0.6746 -0.0712
 6316TIP3   OH218953   4.136   0.571   4.231  0.0741 -0.1326  0.1176
 6316TIP3    H118954   4.202   0.572   4.300 -0.8280 -1.1665  1.0432
 6316TIP3    H218955   4.170   0.630   4.164 -0.0440  2.7655  2.3830
 6317TIP3   OH218956   0.258   2.518   0.547 -0.1618 -0.1387 -0.0614
 6317TIP3    H118957   0.164   2.523   0.527 -0.3058  1.0745  0.8122
 6317TIP3    H218958   0.264   2.452   0.616 -0.5258  0.5345  0.6334
 6318TIP3   OH218959   0.277   0.309   4.677  0.2521 -0.6229  0.2785
 6318TIP3    H118960   0.187   0.340   4.690  0.4086 -0.1185  0.2000
 6318TIP3    H218961   0.305   0.279   4.763 -0.1970 -1.3495  0.1788
 6319TIP3   OH218962   1.263   0.032   3.823  0.3115 -0.0426  0.0113
 6319TIP3    H118963   1.185   0.054   3.772  0.0702 -0.2506  0.2868
 6319TIP3    H218964   1.236  -0.041   3.879  0.6910 -0.0891  0.1423
 6320TIP3   OH218965   4.708   0.155   0.041 -0.3502  0.0258  0.1439
 6320TIP3    H118966   4.695   0.233   0.095  1.8763  2.0038 -1.9196
 6320TIP3    H218967   4.690   0.185  -0.048  0.6050 -1.8107 -0.7268
 6321TIP3   OH218968   2.579   5.736   0.276  0.2045  0.0695 -0.1245
 6321TIP3    H118969   2.595   5.811   0.334  1.0089  0.4609 -0.8249
 6321TIP3    H218970   2.658   5.683   0.284  1.0213  0.9123 -1.9971
 6322TIP3   OH218971   6.136   4.563   2.097  0.1165  0.3165  0.1444
 6322TIP3    H118972   6.200   4.516   2.045  0.0304  0.0723  0.2545
 6322TIP3    H218973   6.108   4.636   2.042 -1.0327 -0.7450 -0.7499
 6323TIP3   OH218974   2.925   5.345   5.154  0.1422 -0.1928  0.3461
 6323TIP3    H118975   2.952   5.296   5.077 -0.1541  0.3830 -0.1306
 6323TIP3    H218976   2.829   5.336   5.156  0.2777 -1.8301  1.7558
 6324TIP3   OH218977   5.891   3.637   3.338  0.0656 -0.3538 -0.5806
 6324TIP3    H118978   5.856   3.548   3.334  2.1756 -1.3188  0.5289
 6324TIP3    H218979   5.943   3.646   3.258  0.3770 -0.3711 -0.3821
 6325TIP3   OH218980   2.386   4.803   1.029 -0.4801 -0.2198 -0.2497
 6325TIP3    H118981   2.374   4.711   1.004 -0.0845 -0.2470 -0.3557
 6325TIP3    H218982   2.415   4.846   0.948 -0.0431 -0.1316 -0.0476
 6326TIP3   OH218983   1.387   2.570   2.741 -0.0438  0.1859  0.1732
 6326TIP3    H118984   1.440   2.630   2.793 -0.2272  0.6950 -0.2116
 6326TIP3    H218985   1.392   2.605   2.652 -1.4908  0.5917  0.2253
 6327TIP3   OH218986   2.777   2.031   4.182  0.5786 -0.7614  0.1887
 6327TIP3    H118987   2.710   2.059   4.245 -0.4590 -1.0248 -0.7593
 6327TIP3    H218988   2.826   2.110   4.162  0.4570 -0.5288  0.7966
 6328TIP3   OH218989   5.418   0.202   3.526 -0.1067 -0.0357 -0.1333
 6328TIP3    H118990   5.471   0.160   3.458 -1.1450 -0.0124 -0.9960
 6328TIP3    H218991   5.344   0.142   3.539  0.6437 -0.6109  1.8343
 6329TIP3   OH218992   0.031   2.064   1.016 -0.1627  0.0300  0.3059
 6329TIP3    H118993   0.082   2.093   1.092  0.7689  1.2442 -0.7557
 6329TIP3    H218994   0.096   2.044   0.949 -1.0042 -0.4191 -0.4087
 6330TIP3   OH218995   3.856   4.720   1.138 -0.8258 -0.0359 -0.0399
 6330TIP3    H118996   3.906   4.715   1.220 -2.5256 -1.2099  0.9959
 6330TIP3    H218997   3.766   4.703   1.164 -1.6432  0.9914 -1.9923
 6331TIP3   OH218998   5.672   0.446   3.977 -0.3643  0.3438  0.4532
 6331TIP3    H118999   5.682   0.500   4.055  1.3095  1.4685 -0.4802
 6331TIP3    H219000   5.721   0.366   3.996  1.3520  1.2495  0.0430
 6332TIP3   OH219001   5.029   2.388   3.571  0.0293 -0.4615 -0.7579
 6332TIP3    H119002   5.075   2.413   3.491  0.8555  0.9016  0.0995
 6332TIP3    H219003   5.093   2.337   3.621  0.5534  1.1334  0.2779
 6333TIP3   OH219004   0.517   2.053   4.333 -0.1458  0.2492  0.2941
 6333TIP3    H119005   0.500   1.966   4.295 -0.1486 -0.9643  2.8819
 6333TIP3    H219006   0.577   2.036   4.406  2.1573  2.8487 -0.8524
 6334TIP3   OH219007   0.481   2.539   1.879 -0.7717 -0.1548  0.0859
 6334TIP3    H119008   0.394   2.500   1.892 -1.0824  0.1604 -0.9887
 6334TIP3    H219009   0.467   2.608   1.814  0.0567  0.7552  0.8521
 6335TIP3   OH219010   3.455   3.090   0.687 -0.0669  0.1956  0.2555
 6335TIP3    H119011   3.370   3.128   0.710 -0.0620 -0.8537  2.2218
 6335TIP3    H219012   3.505   3.164   0.652 -1.9997  0.6835 -1.6904
 6336TIP3   OH219013   4.295   4.979   1.333  0.3713 -0.0679  0.8128
 6336TIP3    H119014   4.234   5.004   1.402 -0.7585 -0.2069 -0.1118
 6336TIP3    H219015   4.381   4.996   1.370 -0.2413  0.8819  1.8567
 6337TIP3   OH219016   6.277   0.047   0.318  0.0068  0.0275 -0.3023
 6337TIP3    H119017   6.343   0.010   0.261  0.2323  1.3673 -0.9448
 6337TIP3    H219018   6.294   0.008   0.404  3.2127  2.0761  0.1621
 6338TIP3   OH219019   4.618   5.510   4.083  0.4970 -0.2163 -0.1497
 6338TIP3    H119020   4.526   5.491   4.070  0.0757 -0.7404  2.8063
 6338TIP3    H219021   4.629   5.599   4.049 -1.0087 -0.2868 -0.8892
 6339TIP3   OH219022   2.061   4.445   3.687 -0.2362 -0.6058 -0.1366
 6339TIP3    H119023   2.079   4.361   3.645  0.7731 -0.0361 -0.8930
 6339TIP3    H219024   1.975   4.470   3.655 -0.0358 -0.8061 -0.8499
 6340TIP3   OH219025   4.716   5.597   2.490  0.0643  0.4162  0.3345
 6340TIP3    H119026   4.797   5.622   2.446 -0.1363  0.4396 -0.0293
 6340TIP3    H219027   4.665   5.553   2.422 -0.4636  0.9087  0.4036
 6341TIP3   OH219028   5.627   4.753   0.963 -0.3215 -0.5699 -0.2007
 6341TIP3    H119029   5.709   4.777   1.007 -1.1636  0.8812  0.6326
 6341TIP3    H219030   5.650   4.675   0.912  1.9093  0.5270 -1.0258
 6342TIP3   OH219031   0.288   3.748   4.353 -0.0268  0.4322 -0.2538
 6342TIP3    H119032   0.364   3.690   4.358  0.6424  0.9169 -2.9186
 6342TIP3    H219033   0.219   3.694   4.316  0.1818  0.9234 -1.4090
 6343TIP3   OH219034   1.258   1.527   0.878 -0.8133 -0.1008 -0.7030
 6343TIP3    H119035   1.184   1.477   0.913  0.6835 -2.5645 -0.8006
 6343TIP3    H219036   1.290   1.474   0.804  1.3654  0.5554 -0.3133
 6344TIP3   OH219037   3.052   4.305   2.062  0.0393 -0.4494  0.0139
 6344TIP3    H119038   3.000   4.320   2.141 -0.0628  3.2704 -0.5923
 6344TIP3    H219039   3.143   4.308   2.093 -0.0160 -0.7125  0.2079
 6345TIP3   OH219040   3.906   1.162   2.655 -0.0840 -0.4416  0.5587
 6345TIP3    H119041   3.904   1.091   2.720 -0.4431  1.0055  2.1967
 6345TIP3    H219042   3.817   1.163   2.619  0.8748 -3.3250 -2.4664
 6346TIP3   OH219043   0.933   4.438   2.649 -0.0960  0.5304  0.4945
 6346TIP3    H119044   0.886   4.418   2.730  2.1082  1.5022  2.1189
 6346TIP3    H219045   0.890   4.516   2.615 -0.4541  0.6723  1.2552
 6347TIP3   OH219046   1.025   0.447   3.949 -0.3394 -0.5001 -0.1518
 6347TIP3    H119047   1.051   0.533   3.916 -1.2604  0.0341  0.4660
 6347TIP3    H219048   0.934   0.438   3.920  0.3787 -2.2345 -2.1223
 6348TIP3   OH219049   2.258   1.320   0.036 -0.0061 -0.1766  0.0445
 6348TIP3    H119050   2.289   1.343  -0.051 -0.9205  0.6798 -0.0691
 6348TIP3    H219051   2.169   1.288   0.023  0.2371 -1.1247  0.5490
 6349TIP3   OH219052   1.883   2.553   3.318 -0.5757  0.0994  0.2763
 6349TIP3    H119053   1.791   2.578   3.330 -0.4955 -0.0841  1.3213
 6349TIP3    H219054   1.929   2.636   3.304 -0.7123  0.3043  1.0285
 6350TIP3   OH219055   3.487   0.106   1.312  0.4634  0.4597 -0.1513
 6350TIP3    H119056   3.564   0.163   1.311  1.5037 -0.8466  0.6509
 6350TIP3    H219057   3.519   0.024   1.351 -1.1948 -0.3375 -0.3731
 6351TIP3   OH219058   1.538   3.226   0.670  0.4460 -0.1083  0.2335
 6351TIP3    H119059   1.542   3.150   0.613  1.3206  0.1204 -0.0303
 6351TIP3    H219060   1.616   3.218   0.726  0.1150  0.1748  0.7480
 6352TIP3   OH219061   3.321   3.365   2.539 -0.1669  0.6051 -0.1634
 6352TIP3    H119062   3.407   3.396   2.509 -0.2135  1.1704  0.2756
 6352TIP3    H219063   3.300   3.421   2.614 -0.0411 -0.7759  0.9588
 6353TIP3   OH219064   0.380   2.212   3.201  0.0971 -0.6381 -0.0383
 6353TIP3    H119065   0.386   2.286   3.140  0.1117  0.6079  1.4043
 6353TIP3    H219066   0.468   2.176   3.203  1.2180  1.9013  2.2566
 6354TIP3   OH219067   4.686   5.270   0.652 -0.8612 -0.3748 -0.0864
 6354TIP3    H119068   4.662   5.191   0.602 -0.8762 -0.4972  0.1130
 6354TIP3    H219069   4.776   5.255   0.680 -0.8568 -0.3119 -0.0666
 6355TIP3   OH219070   0.491   4.676   4.898  0.3430 -0.4163  0.6088
 6355TIP3    H119071   0.568   4.717   4.938 -0.6409  1.8490  0.3554
 6355TIP3    H219072   0.523   4.639   4.816  0.6773  3.5203 -1.2475
 6356TIP3   OH219073   5.963   2.120   3.595  0.1410 -0.3063  0.0265
 6356TIP3    H119074   5.876   2.082   3.602 -0.2179 -0.4378 -3.3903
 6356TIP3    H219075   5.949   2.214   3.610 -0.2328 -0.5371  1.2354
 6357TIP3   OH219076   5.912   2.551   4.373  0.0820  0.1439 -0.1661
 6357TIP3    H119077   5.941   2.461   4.358  0.2040  0.1756 -0.1182
 6357TIP3    H219078   5.928   2.567   4.466 -2.7904 -0.8278  0.5982
 6358TIP3   OH219079   5.969   1.815   0.265 -0.3837  0.1442  0.1835
 6358TIP3    H119080   5.966   1.892   0.322 -3.8252  0.8226 -0.6724
 6358TIP3    H219081   5.920   1.747   0.313  0.1396 -0.5839 -0.2862
 6359TIP3   OH219082   4.649   5.512   0.438  0.2914  0.0279 -0.0409
 6359TIP3    H119083   4.704   5.446   0.480  1.4136  1.1216  0.2523
 6359TIP3    H219084   4.642   5.582   0.503  1.0925  1.2346 -1.2066
 6360TIP3   OH219085   2.806   4.250   1.822 -0.4466  0.5622 -0.3336
 6360TIP3    H119086   2.798   4.230   1.728 -0.0270  1.9439 -0.6831
 6360TIP3    H219087   2.833   4.167   1.861  0.8851  0.3274 -1.6546
 6361TIP3   OH219088   5.570   4.608   4.226 -0.1168 -0.6607 -0.6341
 6361TIP3    H119089   5.591   4.595   4.133 -0.3983  1.1812 -0.9883
 6361TIP3    H219090   5.651   4.586   4.272  0.1358 -1.2380 -1.3358
 6362TIP3   OH219091   4.621   3.143   4.800  0.1687  0.0480  0.1510
 6362TIP3    H119092   4.616   3.076   4.732 -0.0734  0.7477 -0.5373
 6362TIP3    H219093   4.704   3.188   4.784 -1.4538  2.5504 -1.9717
 6363TIP3   OH219094   5.420   3.688   3.090 -0.1175  0.0332  0.5645
 6363TIP3    H119095   5.506   3.703   3.051  0.2393  0.0957  1.3505
 6363TIP3    H219096   5.435   3.622   3.157 -0.4663  0.8097  1.4326
 6364TIP3   OH219097   0.943   3.808   0.297 -0.7633  0.5437 -0.6680
 6364TIP3    H119098   1.006   3.736   0.297 -0.8652  0.4397  0.5489
 6364TIP3    H219099   0.987   3.879   0.344 -2.1280 -0.0962  1.7691
 6365TIP3   OH219100   1.923   2.027   3.183 -0.7631  0.5108 -0.2825
 6365TIP3    H119101   1.854   2.029   3.117 -1.9621  4.3871  0.8094
 6365TIP3    H219102   1.877   2.016   3.266  0.4471 -1.2448  0.2162
 6366TIP3   OH219103   0.744   3.068   3.794 -0.0600  0.1749  0.7085
 6366TIP3    H119104   0.702   3.007   3.734  0.5388  0.2451  0.2125
 6366TIP3    H219105   0.672   3.124   3.825 -0.4353 -0.1065  0.3525
 6367TIP3   OH219106   5.324   2.851   0.763 -0.4506  0.3209 -0.3396
 6367TIP3    H119107   5.233   2.875   0.781 -0.9172  0.5979 -2.7415
 6367TIP3    H219108   5.344   2.892   0.679  1.2765 -1.3423 -0.8184
 6368TIP3   OH219109   3.713   2.410   3.212  0.5900 -0.1238 -0.2778
 6368TIP3    H119110   3.666   2.437   3.133 -0.1663 -1.3085 -0.2522
 6368TIP3    H219111   3.739   2.493   3.254 -2.2558  0.6456  0.1909
 6369TIP3   OH219112   2.083   4.509   1.983 -0.2606  0.7554 -0.1565
 6369TIP3    H119113   2.054   4.510   1.892  1.5397  1.8405 -0.7735
 6369TIP3    H219114   2.025   4.446   2.026 -0.6943 -0.3243 -2.1860
 6370TIP3   OH219115   4.492   5.238   2.689  0.0151  0.1935  0.5408
 6370TIP3    H119116   4.585   5.249   2.669  0.0126 -1.1228 -0.3257
 6370TIP3    H219117   4.447   5.259   2.607 -0.3198 -0.8601  0.4396
 6371TIP3   OH219118   3.689   4.461   1.462  0.2290  0.4474  0.2076
 6371TIP3    H119119   3.722   4.542   1.501 -0.6674  1.5221 -1.1409
 6371TIP3    H219120   3.678   4.482   1.369  0.6359 -1.4570 -0.3241
 6372TIP3   OH219121   2.441   1.445   2.917  0.0473  0.2902 -0.3834
 6372TIP3    H119122   2.497   1.451   2.995  1.6737 -0.7923 -1.4125
 6372TIP3    H219123   2.361   1.402   2.948 -1.1927  3.6389  1.5594
 6373TIP3   OH219124   2.169   2.908   0.267  0.0482  0.1176 -0.1210
 6373TIP3    H119125   2.206   2.914   0.355  1.0468  1.3194 -0.5771
 6373TIP3    H219126   2.244   2.891   0.210 -0.5434 -0.4016 -0.7700
 6374TIP3   OH219127   6.241   3.950   2.937 -0.2274 -0.3534  0.0923
 6374TIP3    H119128   6.151   3.952   2.969 -0.5762 -0.6444 -0.8248
 6374TIP3    H219129   6.291   3.910   3.008 -0.6283  0.7577  1.0338
 6375TIP3   OH219130   2.788   3.979   0.498 -0.2205 -0.3285  0.0440
 6375TIP3    H119131   2.826   4.065   0.481 -0.6023 -0.0514  0.5621
 6375TIP3    H219132   2.854   3.917   0.468  1.0099  0.1292  1.6803
 6376TIP3   OH219133   2.945   2.951   2.430  0.2592 -0.0585 -0.2221
 6376TIP3    H119134   2.946   3.010   2.355  1.4774  0.0739 -0.1183
 6376TIP3    H219135   2.906   3.002   2.501 -0.1572  0.0827 -0.5481
 6377TIP3   OH219136   5.916   4.819   2.283  0.2694  0.3858  0.0975
 6377TIP3    H119137   5.877   4.787   2.201  0.6743  0.2415 -0.0420
 6377TIP3    H219138   5.979   4.885   2.255  0.4089  0.3368  0.2940
 6378TIP3   OH219139   6.147   4.079   1.149 -0.1610 -0.1904 -0.1116
 6378TIP3    H119140   6.231   4.072   1.103 -1.1788  1.9240 -2.5113
 6378TIP3    H219141   6.103   3.996   1.130  0.9219 -0.8594  0.2161
 6379TIP3   OH219142   3.837   4.187   1.038 -0.3563 -0.0170 -0.4771
 6379TIP3    H119143   3.906   4.240   0.998  0.9992  1.3801  3.2832
 6379TIP3    H219144   3.874   4.099   1.041 -0.5149 -0.1848 -2.1461
 6380TIP3   OH219145   5.464   4.090   3.242 -0.2625 -0.0149  1.3824
 6380TIP3    H119146   5.417   4.011   3.270  0.5598 -0.9470  0.2533
 6380TIP3    H219147   5.549   4.084   3.284  0.2844 -0.4375  0.2474
 6381TIP3   OH219148   1.843   1.988   3.705 -0.2250 -0.0910  0.3129
 6381TIP3    H119149   1.848   1.896   3.680 -2.1663 -0.2756  0.4946
 6381TIP3    H219150   1.797   1.989   3.789 -0.9053  1.0833 -0.0397
 6382TIP3   OH219151   1.652   2.164   2.374  0.4590 -0.0955 -0.0827
 6382TIP3    H119152   1.626   2.143   2.284  3.2791  0.2482 -1.0861
 6382TIP3    H219153   1.598   2.239   2.397  1.9288  2.0046 -2.8458
 6383TIP3   OH219154   6.076   5.846   1.739 -0.2162 -0.6755 -0.1220
 6383TIP3    H119155   6.171   5.850   1.748 -0.2283 -0.1215 -0.2055
 6383TIP3    H219156   6.057   5.753   1.726  0.5048 -0.5942 -2.1556
 6384TIP3   OH219157   1.426   5.172   4.115 -0.3508  0.6506 -0.3288
 6384TIP3    H119158   1.413   5.133   4.028  0.2607  0.4912 -0.3567
 6384TIP3    H219159   1.521   5.171   4.127 -0.4885 -0.8085  1.0069
 6385TIP3   OH219160   2.024   1.260   0.278  0.4761 -0.6239 -0.1399
 6385TIP3    H119161   2.078   1.328   0.317 -0.5738  1.1384 -1.6278
 6385TIP3    H219162   1.935   1.278   0.310 -0.0816 -0.2784 -1.7969
 6386TIP3   OH219163   3.685   0.782   0.717 -0.2628 -0.0927 -0.1230
 6386TIP3    H119164   3.712   0.836   0.642 -0.4808 -0.4285 -0.4500
 6386TIP3    H219165   3.590   0.780   0.712 -0.2534 -0.5653 -0.1562
 6387TIP3   OH219166   3.253   1.282   1.814 -0.3440 -0.0105  0.1694
 6387TIP3    H119167   3.180   1.220   1.820  0.7567 -1.3164  0.4868
 6387TIP3    H219168   3.261   1.317   1.903  0.4954 -1.1753  0.5769
 6388TIP3   OH219169   3.228   2.368   1.734 -0.2251  0.7838  0.8647
 6388TIP3    H119170   3.224   2.274   1.718 -1.6573  0.7217  1.4841
 6388TIP3    H219171   3.308   2.397   1.689 -1.4021 -0.1754 -2.0413
 6389TIP3   OH219172   5.483   4.732   4.983 -0.6594 -0.1885 -0.0622
 6389TIP3    H119173   5.552   4.786   4.943 -0.6505 -0.7475 -0.8144
 6389TIP3    H219174   5.419   4.720   4.913 -0.7627 -0.9702  0.1637
 6390TIP3   OH219175   1.038   3.565   1.362  0.1135 -0.1442  0.0979
 6390TIP3    H119176   1.024   3.476   1.394 -0.4748 -0.2980 -0.5539
 6390TIP3    H219177   1.012   3.561   1.270 -0.0248  0.7258  0.0953
 6391TIP3   OH219178   2.601   5.043   3.641  0.0217 -0.2172 -0.0063
 6391TIP3    H119179   2.588   4.953   3.612  0.8781 -0.6655  0.9685
 6391TIP3    H219180   2.685   5.069   3.604 -0.2816  0.2328 -0.3907
 6392TIP3   OH219181   0.910   2.892   3.400  0.1758  0.2267 -0.3460
 6392TIP3    H119182   0.847   2.958   3.370  0.1256 -0.5633 -2.1623
 6392TIP3    H219183   0.911   2.827   3.329  3.2576  0.3504 -0.5468
 6393TIP3   OH219184   1.152   4.341   3.046  0.9165  0.1183  0.0243
 6393TIP3    H119185   1.179   4.261   3.001  1.3067  1.6640 -2.6890
 6393TIP3    H219186   1.212   4.348   3.121  0.3083 -2.4954  0.8786
 6394TIP3   OH219187   0.809   4.274   1.810 -0.2110 -0.4539 -0.3541
 6394TIP3    H119188   0.779   4.252   1.898  0.7954  0.8602  0.3648
 6394TIP3    H219189   0.834   4.367   1.817  2.1133 -0.9420 -1.3857
 6395TIP3   OH219190   0.368   1.370   4.515 -0.0912 -0.2502 -0.1161
 6395TIP3    H119191   0.382   1.396   4.606  1.0318 -2.5760  0.4478
 6395TIP3    H219192   0.443   1.405   4.468  0.0595 -0.2527  0.1216
 6396TIP3   OH219193   5.498   4.155   0.845  0.0624  0.0534 -0.0650
 6396TIP3    H119194   5.406   4.132   0.858 -0.0855  1.2857  1.4295
 6396TIP3    H219195   5.531   4.171   0.933  1.2742  1.1710 -0.6814
 6397TIP3   OH219196   5.988   1.985   1.378  0.5772  0.1136 -0.6212
 6397TIP3    H119197   5.921   2.000   1.444  0.8389 -2.3319  0.2932
 6397TIP3    H219198   5.967   2.047   1.308 -1.8903  0.2526  0.1641
 6398TIP3   OH219199   1.716   0.430   0.308  0.2767 -0.2960 -0.1942
 6398TIP3    H119200   1.631   0.405   0.342  0.9328 -0.2773  1.5654
 6398TIP3    H219201   1.746   0.353   0.258 -1.0662 -0.0049 -1.5177
 6399TIP3   OH219202   0.006   3.228   4.441  0.3829 -0.0979 -0.7286
 6399TIP3    H119203  -0.045   3.255   4.365 -0.9798 -0.8981 -0.1443
 6399TIP3    H219204   0.094   3.211   4.407 -0.4535 -1.4364 -2.3358
 6400TIP3   OH219205   4.780   5.519   0.738 -0.1244  0.0272 -0.2089
 6400TIP3    H119206   4.753   5.555   0.823 -0.7106  2.8909 -1.5104
 6400TIP3    H219207   4.723   5.442   0.726 -1.6546  0.9042  0.9661
 6401TIP3   OH219208   5.570   1.165   0.237  0.1506  0.1836 -0.4620
 6401TIP3    H119209   5.607   1.200   0.156  0.8558  0.5643  0.0105
 6401TIP3    H219210   5.522   1.087   0.211  0.0894  0.4948 -1.2898
 6402TIP3   OH219211   2.885   2.620   0.015  0.0740 -0.1002  0.0948
 6402TIP3    H119212   2.954   2.687   0.007 -0.7819  0.6337 -1.4089
 6402TIP3    H219213   2.803   2.669   0.008 -0.5819 -1.3875 -1.9956
 6403TIP3   OH219214   4.202   2.790   1.288  0.8323  0.2072  0.3292
 6403TIP3    H119215   4.231   2.871   1.329  1.2679  0.1664  0.1168
 6403TIP3    H219216   4.277   2.762   1.235  0.3122  0.2179 -0.4208
 6404TIP3   OH219217   6.260   4.198   3.432  0.4328  0.0071 -0.5223
 6404TIP3    H119218   6.195   4.129   3.445  0.6672 -0.1650 -0.2436
 6404TIP3    H219219   6.253   4.220   3.339 -0.1325  0.1045 -0.4615
 6405TIP3   OH219220   2.479   3.345   1.241  0.8710  0.0323  0.5226
 6405TIP3    H119221   2.432   3.409   1.294 -0.3146  0.7001 -1.2573
 6405TIP3    H219222   2.442   3.260   1.267 -1.8832  0.5728 -1.2439
 6406TIP3   OH219223   2.047   5.876   2.755 -0.0043  0.1777 -0.0224
 6406TIP3    H119224   2.093   5.960   2.747 -0.4635  0.5266  0.8919
 6406TIP3    H219225   2.003   5.880   2.840 -1.0458 -0.4983 -0.5080
 6407TIP3   OH219226   6.089   3.754   2.082 -0.4804  0.4326 -0.1677
 6407TIP3    H119227   6.021   3.806   2.038 -0.5559  0.6500  0.1963
 6407TIP3    H219228   6.040   3.693   2.136 -0.4399 -1.3732 -2.0596
 6408TIP3   OH219229   0.653   3.936   0.750 -0.6024  0.1561  0.1248
 6408TIP3    H119230   0.602   3.940   0.669 -0.7006  0.8642  0.2159
 6408TIP3    H219231   0.664   4.028   0.776  1.3127  0.0626 -0.2667
 6409TIP3   OH219232   0.111   3.610   2.587  0.2258  0.3648  0.0197
 6409TIP3    H119233   0.150   3.642   2.668  0.4023  0.8657 -0.2605
 6409TIP3    H219234   0.176   3.628   2.520 -0.3530  0.9339 -0.4025
 6410TIP3   OH219235   1.854   2.190   0.060  0.1823 -0.2690  0.2515
 6410TIP3    H119236   1.810   2.212   0.142  1.3481  1.4735  0.4541
 6410TIP3    H219237   1.784   2.156   0.004 -1.1923  1.1892  1.0060
 6411TIP3   OH219238   6.305   4.620   0.964  0.5075  0.2950  0.1009
 6411TIP3    H119239   6.367   4.637   1.035  0.4705 -0.4388  0.3175
 6411TIP3    H219240   6.333   4.536   0.928 -1.2140 -0.7745  1.1366
 6412TIP3   OH219241   2.433   0.209   2.016 -0.4024 -0.1774  0.1042
 6412TIP3    H119242   2.398   0.240   1.933  0.3140  0.5555  0.0597
 6412TIP3    H219243   2.472   0.287   2.056 -1.0684 -0.4314  1.3021
 6413TIP3   OH219244   1.529   1.404   1.762 -0.3202 -0.6400  0.4208
 6413TIP3    H119245   1.504   1.312   1.751 -1.1461 -0.4063  0.2667
 6413TIP3    H219246   1.605   1.415   1.705  0.6953 -1.5814  1.5395
 6414TIP3   OH219247   3.479   5.090   4.410 -0.4583  0.1898 -0.2968
 6414TIP3    H119248   3.438   5.083   4.496  0.9700 -2.3449  0.2621
 6414TIP3    H219249   3.478   5.184   4.391 -1.1081  0.7904  2.3200
 6415TIP3   OH219250   4.395   3.238   4.354 -0.1303 -0.2592 -0.1526
 6415TIP3    H119251   4.304   3.263   4.372 -0.5859 -2.0836  0.3119
 6415TIP3    H219252   4.388   3.173   4.285  0.9173  0.1671 -0.6795
 6416TIP3   OH219253   4.800   1.112   3.073  0.5237  0.1126  0.1647
 6416TIP3    H119254   4.799   1.199   3.114 -0.7457 -0.6984  1.9829
 6416TIP3    H219255   4.767   1.053   3.141  0.9912 -1.7517 -1.1536
 6417TIP3   OH219256   0.333   4.013   4.786 -0.1247  0.0418 -0.2118
 6417TIP3    H119257   0.268   3.958   4.742  0.0917 -1.3675  1.1536
 6417TIP3    H219258   0.286   4.092   4.809 -0.9060 -0.2693 -0.7078
 6418TIP3   OH219259   0.289   0.952   4.016  0.5805 -0.1031 -0.1711
 6418TIP3    H119260   0.299   1.043   3.987  1.4719  0.5085  1.9022
 6418TIP3    H219261   0.356   0.940   4.083 -1.1213 -1.5014  1.4008
 6419TIP3   OH219262   0.166   3.409   0.437 -0.3194  0.4364 -0.6976
 6419TIP3    H119263   0.194   3.484   0.383  1.3893  1.3573  1.3358
 6419TIP3    H219264   0.131   3.449   0.517 -1.0295 -0.9280 -0.2927
 6420TIP3   OH219265   1.203   5.232   0.791  0.4074 -0.4166 -0.1505
 6420TIP3    H119266   1.196   5.203   0.882 -0.4644 -0.1338 -0.1204
 6420TIP3    H219267   1.268   5.302   0.793 -1.2808  1.1873  0.6622
 6421TIP3   OH219268   2.797   3.276   4.749  0.3648  0.1104  0.1255
 6421TIP3    H119269   2.704   3.299   4.758  0.3794  0.3601 -0.3257
 6421TIP3    H219270   2.838   3.313   4.826 -0.2148 -1.7312  1.3936
 6422TIP3   OH219271   3.621   3.970   0.208  0.2395 -0.1148 -0.5216
 6422TIP3    H119272   3.699   4.023   0.227  0.8029 -0.5239 -1.6506
 6422TIP3    H219273   3.593   3.998   0.121 -2.2167  1.6092  0.7075
 6423TIP3   OH219274   3.692   3.819   5.162 -0.1496 -0.3775  0.6625
 6423TIP3    H119275   3.713   3.759   5.234  0.3592 -0.6894  0.2645
 6423TIP3    H219276   3.638   3.767   5.103  1.1764 -0.8192 -0.2200
 6424TIP3   OH219277   0.213   2.428   1.930  0.0631 -0.4263 -0.8014
 6424TIP3    H119278   0.145   2.364   1.912 -1.3283  0.6562  0.3001
 6424TIP3    H219279   0.253   2.398   2.012 -0.8884  0.2799 -0.0433
 6425TIP3   OH219280   3.893   1.769   3.785  0.6988 -0.7173  0.3769
 6425TIP3    H119281   3.888   1.674   3.797  1.3310 -0.6589  1.1407
 6425TIP3    H219282   3.940   1.801   3.862 -1.1663  0.4331  1.1077
 6426TIP3   OH219283   6.376   1.480   1.680 -0.5004  0.3739  0.0898
 6426TIP3    H119284   6.283   1.480   1.704 -0.2516  1.4286  1.1554
 6426TIP3    H219285   6.404   1.389   1.690 -0.9761  0.3719  1.6226
 6427TIP3   OH219286   0.506   1.554   3.640 -0.1808 -0.4870  0.1725
 6427TIP3    H119287   0.577   1.614   3.662 -0.0217 -0.0835 -1.3233
 6427TIP3    H219288   0.546   1.489   3.583 -0.8367 -0.7130 -0.0436
 6428TIP3   OH219289   3.338   0.193   4.668  0.5889 -0.0049  0.0792
 6428TIP3    H119290   3.275   0.152   4.608  0.3452  0.4996 -0.0113
 6428TIP3    H219291   3.290   0.207   4.749  0.6030  0.3340  0.0281
 6429TIP3   OH219292   1.893   5.507   1.786  0.0453  0.2633  0.6513
 6429TIP3    H119293   1.919   5.578   1.728  2.1645 -0.0510  1.1596
 6429TIP3    H219294   1.855   5.441   1.727  0.0580  0.8916 -0.0749
 6430TIP3   OH219295   2.878   2.441   3.011 -0.5195  0.0718 -0.3253
 6430TIP3    H119296   2.898   2.352   2.982 -0.5446 -0.1058  0.1955
 6430TIP3    H219297   2.839   2.483   2.934 -0.8287 -0.4720 -0.4695
 6431TIP3   OH219298   3.210   2.124   3.781 -0.9149 -0.0715 -0.1007
 6431TIP3    H119299   3.251   2.045   3.815 -0.0722  0.3321 -0.1559
 6431TIP3    H219300   3.171   2.097   3.698  2.7307  0.3514 -2.1942
 6432TIP3   OH219301   4.878   1.966   4.419  0.0581 -0.4299  0.2930
 6432TIP3    H119302   4.885   1.871   4.412  1.1418 -0.2489 -3.3741
 6432TIP3    H219303   4.797   1.987   4.372  0.7542  0.5123 -0.5470
 6433TIP3   OH219304   1.802   1.337   0.410  0.2196  0.3751 -0.1323
 6433TIP3    H119305   1.787   1.425   0.445 -0.7169  0.0533  0.3361
 6433TIP3    H219306   1.759   1.280   0.474  1.0453 -0.4415 -0.2939
 6434TIP3   OH219307   4.735   2.733   2.473  0.5819 -0.0582  0.1822
 6434TIP3    H119308   4.800   2.802   2.460 -0.4521  0.8401 -0.4545
 6434TIP3    H219309   4.651   2.780   2.471 -0.2272 -1.4719 -1.4465
 6435TIP3   OH219310   2.135   2.570   2.250  1.2177 -0.4967  0.0496
 6435TIP3    H119311   2.072   2.642   2.246  0.3394 -1.2878 -1.1340
 6435TIP3    H219312   2.168   2.562   2.160  0.3194 -2.3557 -0.1812
 6436TIP3   OH219313   3.784   2.927   5.147 -0.3116  0.0552  0.0929
 6436TIP3    H119314   3.860   2.985   5.152  2.2342 -2.8401 -1.7510
 6436TIP3    H219315   3.753   2.935   5.057 -0.6872 -0.5733  0.1594
 6437TIP3   OH219316   0.851   4.970   1.378 -0.3041  0.0441  1.0055
 6437TIP3    H119317   0.863   4.920   1.459  2.4150  1.1730  1.4196
 6437TIP3    H219318   0.933   5.018   1.368 -1.2807  1.3482 -1.4813
 6438TIP3   OH219319   2.387   2.232   1.296  0.2519 -0.2933 -0.3079
 6438TIP3    H119320   2.439   2.294   1.246 -0.4130 -1.0096 -1.9405
 6438TIP3    H219321   2.340   2.181   1.230 -0.1365 -1.7305  1.0262
 6439TIP3   OH219322   4.379   3.306   4.700  0.2472  0.5958 -0.3447
 6439TIP3    H119323   4.424   3.344   4.625  1.9434 -1.9603 -0.7549
 6439TIP3    H219324   4.434   3.326   4.775  0.0432  0.7283 -0.2292
 6440TIP3   OH219325   0.120   3.582   3.148 -0.4539  0.3970 -0.0802
 6440TIP3    H119326   0.127   3.500   3.196 -0.3654  0.4045 -0.0802
 6440TIP3    H219327   0.039   3.622   3.180 -1.3638 -0.4440 -1.2491
 6441TIP3   OH219328   3.149   1.536   0.908  0.0603  0.0008  0.0118
 6441TIP3    H119329   3.203   1.498   0.977  0.6525 -0.4553 -0.6810
 6441TIP3    H219330   3.141   1.628   0.932 -0.1335 -0.2418  0.9239
 6442TIP3   OH219331   5.093   2.915   4.146  0.4010  0.0100 -0.2364
 6442TIP3    H119332   5.120   3.000   4.111 -1.0526  1.3230  1.6109
 6442TIP3    H219333   4.997   2.917   4.142  0.1935 -0.2953  2.3812
 6443TIP3   OH219334   3.364   3.352   3.270  0.5021 -0.2410 -0.4422
 6443TIP3    H119335   3.454   3.331   3.246  0.1263 -2.1234 -0.4039
 6443TIP3    H219336   3.340   3.283   3.333 -0.2167  1.5803  1.3798
 6444TIP3   OH219337   5.719   5.067   4.404 -0.1466 -0.5071  0.0908
 6444TIP3    H119338   5.636   5.094   4.364  0.1026  1.4676  0.8302
 6444TIP3    H219339   5.693   5.010   4.476 -0.9620  0.9733  1.0106
 6445TIP3   OH219340   1.342   2.193   1.284  0.1845 -0.4452  0.2445
 6445TIP3    H119341   1.335   2.134   1.209  0.4017 -0.2499  0.0707
 6445TIP3    H219342   1.284   2.266   1.262 -0.8175 -1.0275  0.8730
 6446TIP3   OH219343   0.250   1.867   2.142  0.3706 -0.2473  0.2246
 6446TIP3    H119344   0.324   1.809   2.161 -1.2130 -2.1352  0.9540
 6446TIP3    H219345   0.172   1.816   2.166 -1.1562  1.9623  0.2889
 6447TIP3   OH219346   4.115   4.308   1.085 -0.0499  0.2265  0.5704
 6447TIP3    H119347   4.059   4.324   1.160 -0.6147  0.4669  0.1027
 6447TIP3    H219348   4.119   4.212   1.078 -1.0149  0.2053  0.1619
 6448TIP3   OH219349   3.778   3.804   3.614  1.1100  0.1831 -0.3777
 6448TIP3    H119350   3.851   3.743   3.604  0.9174  0.0081 -0.7228
 6448TIP3    H219351   3.715   3.778   3.547  0.1640 -0.4764  0.7232
 6449TIP3   OH219352   0.666   3.777   1.004 -0.1946  0.0492 -0.0100
 6449TIP3    H119353   0.581   3.734   1.009  0.2105 -0.9413 -1.0966
 6449TIP3    H219354   0.702   3.770   1.093 -1.7282  1.5914  0.7787
 6450TIP3   OH219355   5.571   5.106   5.013 -0.1679 -0.2924 -0.3715
 6450TIP3    H119356   5.575   5.196   4.981 -0.9058 -0.3992 -0.7982
 6450TIP3    H219357   5.551   5.054   4.935  1.7203 -1.0178 -0.4155
 6451TIP3   OH219358   5.945   1.260   3.516  0.1701 -0.3257 -0.0426
 6451TIP3    H119359   5.940   1.321   3.442 -0.2763 -2.8685 -2.2681
 6451TIP3    H219360   6.032   1.221   3.508  0.0994 -0.6702  0.7739
 6452TIP3   OH219361   5.972   0.528   5.092 -0.9145 -0.5816 -0.0376
 6452TIP3    H119362   5.973   0.494   5.182  0.7811  0.9495  0.6199
 6452TIP3    H219363   5.903   0.595   5.092 -0.6766 -0.3295  0.2623
 6453TIP3   OH219364   5.699   1.384   4.842 -0.7247  0.4849 -0.0447
 6453TIP3    H119365   5.666   1.419   4.925 -0.5176  2.2699 -0.6805
 6453TIP3    H219366   5.753   1.455   4.806 -0.0940 -0.5912 -1.2912
 6454TIP3   OH219367   4.285   0.892   3.822  0.0243 -0.3191 -0.3326
 6454TIP3    H119368   4.221   0.867   3.756 -1.0457 -2.8298  1.4967
 6454TIP3    H219369   4.241   0.960   3.873 -1.3666 -2.1160  0.9941
 6455TIP3   OH219370   0.045   2.993   4.100 -0.1804  0.2141  0.0447
 6455TIP3    H119371  -0.014   3.064   4.076  0.3747  0.8491  0.5297
 6455TIP3    H219372   0.055   2.942   4.019 -1.5435 -0.0306  0.0080
 6456TIP3   OH219373   0.503   0.557   3.319 -0.0703  0.0086 -0.3334
 6456TIP3    H119374   0.566   0.522   3.382  0.7990  1.0492 -0.5766
 6456TIP3    H219375   0.457   0.626   3.367  0.7726  0.9804 -0.8719
 6457TIP3   OH219376   4.128   4.531   1.876  0.5966 -0.2568 -0.6225
 6457TIP3    H119377   4.215   4.490   1.872  0.6376 -0.3282  0.6058
 6457TIP3    H219378   4.145   4.622   1.900  0.3008 -0.5070  0.6128
 6458TIP3   OH219379   4.348   2.602   4.341  0.4564  0.0082  0.8703
 6458TIP3    H119380   4.402   2.658   4.396 -0.8222 -0.0142  2.1969
 6458TIP3    H219381   4.305   2.542   4.402 -0.9120 -0.0910 -0.1369
 6459TIP3   OH219382   2.905   1.422   1.952 -0.6659  0.6598 -0.3448
 6459TIP3    H119383   2.829   1.455   2.000  0.5021  1.4961  1.0120
 6459TIP3    H219384   2.937   1.349   2.005 -0.6760  0.1089 -1.0721
 6460TIP3   OH219385   1.278   5.858   3.548  0.6251 -0.0596 -0.0022
 6460TIP3    H119386   1.242   5.919   3.484  0.7338  0.6454  0.5975
 6460TIP3    H219387   1.316   5.913   3.616 -0.9462 -0.7565  1.5100
 6461TIP3   OH219388   4.622   4.138   4.041  0.2541 -0.8791  0.1469
 6461TIP3    H119389   4.676   4.214   4.021  1.2075 -0.6921  2.9500
 6461TIP3    H219390   4.664   4.065   3.995 -0.2841  0.1021 -2.0224
 6462TIP3   OH219391   5.046   5.701   4.020 -0.3352  0.5674  0.6631
 6462TIP3    H119392   5.077   5.779   3.974  0.2764 -0.4890 -0.7609
 6462TIP3    H219393   5.033   5.731   4.110  1.4649  1.9165  0.5334
 6463TIP3   OH219394   0.860   5.938   0.978 -0.0751 -0.4474 -0.0850
 6463TIP3    H119395   0.798   5.912   0.909  0.6990 -0.5653 -0.7545
 6463TIP3    H219396   0.854   6.033   0.982  1.2772 -0.2502 -1.7049
 6464TIP3   OH219397   5.841   1.476   3.630 -0.8333  0.1157  0.3196
 6464TIP3    H119398   5.922   1.527   3.632  0.0187 -1.1764  2.2565
 6464TIP3    H219399   5.866   1.391   3.594 -1.8274  0.3856 -1.0919
 6465TIP3   OH219400   2.786   2.143   0.549  0.4254  0.7552  0.0204
 6465TIP3    H119401   2.786   2.238   0.562 -1.1190  0.6611  0.9770
 6465TIP3    H219402   2.738   2.109   0.624  1.3466 -0.8421 -0.0711
 6466TIP3   OH219403   2.350   3.088   1.593  0.6007 -0.2275 -0.1081
 6466TIP3    H119404   2.314   3.117   1.676  1.6050 -4.2136  1.9531
 6466TIP3    H219405   2.431   3.138   1.583  0.0242  0.9254  0.8082
 6467TIP3   OH219406   5.055   0.402   3.417 -0.5107  0.2169  0.1696
 6467TIP3    H119407   5.114   0.437   3.483 -1.4931  0.0494  1.1731
 6467TIP3    H219408   5.070   0.307   3.419 -0.1619  0.2566 -0.2489
 6468TIP3   OH219409   1.612   5.386   3.549  0.4570  0.1785  0.5167
 6468TIP3    H119410   1.552   5.320   3.514  0.9365  0.7358 -1.5130
 6468TIP3    H219411   1.567   5.421   3.626 -1.0173 -0.6308  0.0668
 6469TIP3   OH219412   4.963   0.165   0.178 -0.2521  0.0945  0.0683
 6469TIP3    H119413   4.991   0.128   0.262  0.9992  0.2245 -0.2704
 6469TIP3    H219414   4.911   0.095   0.137  0.3779 -0.5318  0.3157
 6470TIP3   OH219415   5.754   0.573   0.872  0.2938  0.1793  0.9060
 6470TIP3    H119416   5.664   0.568   0.906 -0.7478 -2.4191 -1.7958
 6470TIP3    H219417   5.758   0.657   0.827 -1.0510  0.0318  0.4633
 6471TIP3   OH219418   3.400   5.300   3.374  0.3457 -0.7513 -0.2657
 6471TIP3    H119419   3.355   5.379   3.345  1.4592 -0.3269 -0.9233
 6471TIP3    H219420   3.360   5.279   3.458 -1.8420 -1.0754 -1.3134
 6472TIP3   OH219421   0.994   3.289   3.400  0.1847 -0.2627 -0.6188
 6472TIP3    H119422   0.987   3.238   3.480 -2.3026  0.1703 -0.4850
 6472TIP3    H219423   1.077   3.336   3.409 -0.3127  0.2749  2.0403
 6473TIP3   OH219424   3.456   3.976   3.718 -0.1196  0.0459 -0.0843
 6473TIP3    H119425   3.387   4.006   3.778 -0.5938 -0.2812 -0.4539
 6473TIP3    H219426   3.533   4.026   3.743 -0.1910 -0.3950  1.0913
 6474TIP3   OH219427   3.160   1.336   2.652 -0.0256 -0.4529  0.4682
 6474TIP3    H119428   3.072   1.352   2.686 -1.0138  0.5238 -2.2647
 6474TIP3    H219429   3.147   1.313   2.560  2.6420  1.2061 -0.4545
 6475TIP3   OH219430   2.487   5.976   1.762  0.5960 -0.5875 -0.0884
 6475TIP3    H119431   2.582   5.990   1.767  0.9528 -2.6936  0.1065
 6475TIP3    H219432   2.455   6.001   1.849  0.7429  1.3037 -0.5335
 6476TIP3   OH219433   5.406   4.115   0.471  0.1319 -0.4618 -0.1223
 6476TIP3    H119434   5.472   4.068   0.522  0.1877 -1.4656 -1.0941
 6476TIP3    H219435   5.447   4.131   0.386  0.2599  1.7326  0.3006
 6477TIP3   OH219436   3.044   1.080   1.743  0.0296 -0.2525  0.1066
 6477TIP3    H119437   2.956   1.118   1.733  0.5196  1.0136  0.4176
 6477TIP3    H219438   3.034   1.014   1.811 -0.4661  0.6701  0.9551
 6478TIP3   OH219439   2.122   3.859   2.944  0.2801 -0.5964  0.4959
 6478TIP3    H119440   2.099   3.923   3.010 -0.8027 -1.5922  1.1154
 6478TIP3    H219441   2.166   3.789   2.992  0.5323 -0.7988 -0.0153
 6479TIP3   OH219442   2.222   1.968   3.570 -0.2616 -0.2116  0.0347
 6479TIP3    H119443   2.163   1.897   3.545 -2.9865  1.1415  2.0526
 6479TIP3    H219444   2.281   1.930   3.634  0.0114 -1.2071 -0.7786
 6480TIP3   OH219445   1.308   3.334   3.721  0.4425 -0.2783 -0.2840
 6480TIP3    H119446   1.385   3.352   3.773 -1.2675  0.9519  1.9836
 6480TIP3    H219447   1.299   3.239   3.723  1.1515 -0.3330  0.5394
 6481TIP3   OH219448   0.379   0.965   3.169 -0.1773 -0.1489 -0.2013
 6481TIP3    H119449   0.327   1.013   3.234  0.5781  0.8654 -0.3208
 6481TIP3    H219450   0.421   0.895   3.219 -0.5677 -0.1215  0.1652
 6482TIP3   OH219451   3.541   4.299   5.118 -0.4836  0.0011 -0.1967
 6482TIP3    H119452   3.561   4.306   5.025 -1.1634 -3.0086 -0.6710
 6482TIP3    H219453   3.499   4.213   5.127 -1.2999  0.6089  2.7489
 6483TIP3   OH219454   5.683   2.978   4.820  0.2335 -0.1667 -0.0519
 6483TIP3    H119455   5.591   2.998   4.800  0.1059  1.4522  1.8332
 6483TIP3    H219456   5.721   2.954   4.736 -1.2082  2.0762 -1.4612
 6484TIP3   OH219457   4.982   4.229   2.756 -0.5987 -0.8561  0.1425
 6484TIP3    H119458   4.963   4.281   2.679  0.4279 -1.0971 -0.2871
 6484TIP3    H219459   5.040   4.284   2.809 -0.5234 -1.0693  0.2845
 6485TIP3   OH219460   6.255   3.255   0.628  0.2721 -0.1532 -0.2797
 6485TIP3    H119461   6.277   3.240   0.720 -1.2251 -2.1983 -0.1740
 6485TIP3    H219462   6.316   3.198   0.580  0.1682 -0.1120 -0.4615
 6486TIP3   OH219463   6.201   1.672   0.573 -0.4836 -0.2025  0.1131
 6486TIP3    H119464   6.168   1.602   0.516  0.0057  1.1281 -1.8760
 6486TIP3    H219465   6.163   1.652   0.659 -1.7609 -1.9270 -0.7856
 6487TIP3   OH219466   0.664   4.105   2.621  0.0155 -0.1392 -0.5267
 6487TIP3    H119467   0.701   4.189   2.649  0.7573 -0.0771 -1.6334
 6487TIP3    H219468   0.605   4.080   2.693  1.7843  0.0183  1.0671
 6488TIP3   OH219469   3.714   2.228   3.864  0.1004 -0.0552 -0.0377
 6488TIP3    H119470   3.622   2.251   3.849 -0.1165 -0.7748  0.1145
 6488TIP3    H219471   3.729   2.155   3.804 -0.3220 -1.9667  2.0462
 6489TIP3   OH219472   2.277   0.068   5.162  0.2254 -0.1178 -0.1532
 6489TIP3    H119473   2.235  -0.016   5.143 -0.6986  0.1985  0.4575
 6489TIP3    H219474   2.324   0.090   5.082 -0.1010 -0.8832 -0.5612
 6490TIP3   OH219475   3.255   4.129  -0.000  0.7168  0.2452  0.1208
 6490TIP3    H119476   3.322   4.194   0.022  0.8543 -0.2818  1.3092
 6490TIP3    H219477   3.202   4.122   0.079 -0.1479 -0.0642 -0.4814
 6491TIP3   OH219478   2.735   1.527   3.363 -0.5659  0.0276  0.3165
 6491TIP3    H119479   2.693   1.563   3.441 -0.7159  0.0785  0.2119
 6491TIP3    H219480   2.814   1.485   3.396 -1.0493 -0.6700  0.6086
 6492TIP3   OH219481   2.911   5.717   0.642 -0.1343 -0.3828  0.0708
 6492TIP3    H119482   2.849   5.646   0.627  2.1712 -2.4682 -0.1738
 6492TIP3    H219483   2.935   5.747   0.555  0.4253 -0.7002  0.1168
 6493TIP3   OH219484   5.771   5.055   2.395 -0.2324 -0.4965  0.1437
 6493TIP3    H119485   5.706   5.069   2.326 -0.0150  2.0261  0.3847
 6493TIP3    H219486   5.807   4.968   2.376 -2.7639 -1.4744 -0.7172
 6494TIP3   OH219487   4.353   2.510   2.362 -0.7441 -0.4783  0.1174
 6494TIP3    H119488   4.393   2.476   2.442 -2.4129 -1.8505  0.4254
 6494TIP3    H219489   4.344   2.604   2.378  2.9968  0.1059 -0.3180
 6495TIP3   OH219490   1.527   1.543   4.007  0.1218 -0.6112 -0.1124
 6495TIP3    H119491   1.444   1.518   4.048 -0.4218  1.5487  0.2038
 6495TIP3    H219492   1.502   1.606   3.940  1.2657 -2.1666 -2.1111
 6496TIP3   OH219493   3.736   1.243   5.093 -0.0827 -0.0023  0.3343
 6496TIP3    H119494   3.685   1.287   5.161 -0.5428 -0.3369  0.2121
 6496TIP3    H219495   3.710   1.289   5.012  0.7728  0.6699  0.4281
 6497TIP3   OH219496   1.316   3.685   3.207  0.2156  0.2012 -0.0998
 6497TIP3    H119497   1.370   3.715   3.135 -0.6444  0.5582 -0.6066
 6497TIP3    H219498   1.233   3.733   3.197 -0.9155 -1.7260 -0.4811
 6498TIP3   OH219499   4.254   2.862   4.290  0.0280  0.1422  0.4422
 6498TIP3    H119500   4.229   2.891   4.202  1.9826  0.6269 -0.0027
 6498TIP3    H219501   4.306   2.783   4.276 -0.7220 -0.5267  1.2860
 6499TIP3   OH219502   0.174   2.476   2.515 -0.1040 -0.2081 -0.7493
 6499TIP3    H119503   0.269   2.481   2.501 -0.3195 -0.3742 -2.4550
 6499TIP3    H219504   0.165   2.429   2.598  1.3141  0.5913 -0.1095
 6500TIP3   OH219505   3.774   2.572   0.923  0.1026  0.6256  0.4456
 6500TIP3    H119506   3.817   2.655   0.899 -0.7790  0.4843 -1.8322
 6500TIP3    H219507   3.845   2.507   0.920  0.4393  0.9855  0.4531
 6501TIP3   OH219508   2.329   2.719   2.647  0.3850 -0.1809  0.0883
 6501TIP3    H119509   2.242   2.687   2.671  0.2967 -0.5410 -0.6622
 6501TIP3    H219510   2.325   2.728   2.551  0.7258  1.1396  0.1863
 6502TIP3   OH219511   3.863   1.420   2.830 -0.4129 -0.7874  1.1297
 6502TIP3    H119512   3.939   1.381   2.788 -0.1542 -1.0847  1.8522
 6502TIP3    H219513   3.794   1.355   2.821 -0.8936 -0.0963 -0.4305
 6503TIP3   OH219514   1.793   5.660   3.892 -0.0136 -0.0408  0.3255
 6503TIP3    H119515   1.701   5.683   3.891 -0.2072 -0.6580  1.4579
 6503TIP3    H219516   1.812   5.631   3.803 -1.1919 -0.9397  0.3434
 6504TIP3   OH219517   6.028   5.754   0.811  0.2485 -0.3737  0.6600
 6504TIP3    H119518   5.955   5.815   0.821  0.0233 -0.5825  0.3061
 6504TIP3    H219519   6.100   5.808   0.778 -0.2925 -0.5120 -0.8031
 6505TIP3   OH219520   1.833   5.035   2.859  0.0370  0.4051 -0.3817
 6505TIP3    H119521   1.750   4.992   2.840  0.0967  0.3356 -0.4842
 6505TIP3    H219522   1.836   5.041   2.954  0.5669 -0.8694 -0.3014
 6506TIP3   OH219523   6.018   0.810   0.756 -0.0501  0.2051 -0.2542
 6506TIP3    H119524   6.107   0.844   0.770  0.4081 -0.8953 -0.3376
 6506TIP3    H219525   6.032   0.729   0.707 -1.1616  0.3816 -0.8947
 6507TIP3   OH219526   1.459   3.339   4.266  0.6276  0.5231  0.1816
 6507TIP3    H119527   1.384   3.297   4.307  1.0289  0.4538  0.8625
 6507TIP3    H219528   1.535   3.292   4.300  0.9618  0.1961 -0.9656
 6508TIP3   OH219529   3.017   1.219   2.090 -0.7057  0.0731 -0.5258
 6508TIP3    H119530   2.966   1.225   2.171  1.3911  0.1477  0.8509
 6508TIP3    H219531   3.039   1.126   2.082 -0.2129  0.1898 -0.5503
 6509TIP3   OH219532   1.066   3.390   0.270 -0.3004 -0.0652 -0.2507
 6509TIP3    H119533   1.059   3.468   0.326  2.0365 -0.4439  0.6531
 6509TIP3    H219534   0.980   3.349   0.276 -0.7188  0.9545  1.5163
 6510TIP3   OH219535   2.490   0.809   0.705  0.2511 -0.0216 -0.1321
 6510TIP3    H119536   2.421   0.874   0.702  0.8950  0.7535  0.9985
 6510TIP3    H219537   2.470   0.749   0.633 -2.0448 -0.3051  0.6583
 6511TIP3   OH219538   3.433   1.694   2.246  0.3623 -0.6012 -0.1352
 6511TIP3    H119539   3.484   1.774   2.240  1.0642 -0.9448  1.0285
 6511TIP3    H219540   3.490   1.626   2.210  0.7180 -0.9593  1.0369
 6512TIP3   OH219541   6.139   3.501   0.637 -0.0026  0.2764  0.1015
 6512TIP3    H119542   6.203   3.567   0.612  0.0858 -0.3597 -1.4504
 6512TIP3    H219543   6.181   3.417   0.617 -1.6459 -0.1481 -1.9763
 6513TIP3   OH219544   6.222   1.166   3.474  0.0237  0.0291  0.2147
 6513TIP3    H119545   6.300   1.198   3.428  0.1455  0.2720  0.5823
 6513TIP3    H219546   6.249   1.160   3.565 -0.0841 -0.8816  0.1904
 6514TIP3   OH219547   5.137   4.227   3.693 -0.4833 -0.4068  0.0652
 6514TIP3    H119548   5.193   4.266   3.761 -1.3290 -0.2897  0.7040
 6514TIP3    H219549   5.186   4.150   3.664  0.0476 -0.2658  0.5577
 6515TIP3   OH219550   5.580   1.190   0.509 -0.2315  0.0879  0.2086
 6515TIP3    H119551   5.649   1.245   0.547  0.7296 -1.1737  0.3271
 6515TIP3    H219552   5.597   1.191   0.415 -0.3212  0.1162  0.1921
 6516TIP3   OH219553   5.606   1.096   1.956 -0.1548  0.6476 -0.7973
 6516TIP3    H119554   5.588   1.164   2.021 -1.4648 -0.9252  0.5929
 6516TIP3    H219555   5.657   1.030   2.003  0.0325  0.0915 -1.7528
 6517TIP3   OH219556   4.494   5.081   4.999 -0.5607  0.5472  0.3825
 6517TIP3    H119557   4.486   5.107   5.091 -0.6683  0.5164  0.3819
 6517TIP3    H219558   4.536   5.155   4.957 -1.5554  1.0439  0.2339
 6518TIP3   OH219559   2.307   0.866   1.742 -0.3185 -0.0897  0.0718
 6518TIP3    H119560   2.379   0.922   1.775  0.2040  0.2310 -1.5316
 6518TIP3    H219561   2.274   0.913   1.666 -2.0691 -0.3990  0.5978
 6519TIP3   OH219562   5.493   2.501   2.621  0.2331  0.4756  0.0882
 6519TIP3    H119563   5.588   2.492   2.631  0.2310  1.6514  1.4807
 6519TIP3    H219564   5.457   2.467   2.703 -0.5708 -0.0846 -0.4829
 6520TIP3   OH219565   0.475   1.665   2.595 -0.2801  0.0082 -0.6863
 6520TIP3    H119566   0.523   1.591   2.558  0.1312 -0.1446  0.1228
 6520TIP3    H219567   0.389   1.660   2.554 -0.2454 -0.9036 -0.6857
 6521TIP3   OH219568   0.327   3.334   1.856 -0.0574 -0.0063 -0.0106
 6521TIP3    H119569   0.333   3.376   1.770  0.3142 -0.7447 -0.3537
 6521TIP3    H219570   0.250   3.279   1.850 -0.1595  0.1108  0.2117
 6522TIP3   OH219571   3.628   2.889   4.892  0.4965  0.2840 -0.5412
 6522TIP3    H119572   3.676   2.913   4.813  2.6347  0.8557  0.8205
 6522TIP3    H219573   3.551   2.946   4.893  0.4875  0.3298 -2.1264
 6523TIP3   OH219574   3.520   1.234   1.866  0.2832  0.3336 -0.2315
 6523TIP3    H119575   3.503   1.151   1.911  1.6950  0.0572 -0.1564
 6523TIP3    H219576   3.443   1.249   1.811  0.6932 -1.8747 -1.5115
 6524TIP3   OH219577   0.247   5.735   0.812 -0.0416  0.1832  0.0685
 6524TIP3    H119578   0.200   5.663   0.770 -0.9051  1.3425 -1.0137
 6524TIP3    H219579   0.205   5.814   0.779 -0.7913  1.2208  3.1319
 6525TIP3   OH219580   5.602   3.867   4.130  0.2569  0.0235 -0.4719
 6525TIP3    H119581   5.672   3.892   4.069  0.5068  2.5538  0.7431
 6525TIP3    H219582   5.636   3.888   4.216 -1.2662 -0.6055  0.3188
 6526TIP3   OH219583   5.127   4.823   1.273  0.2585 -0.3011  0.2029
 6526TIP3    H119584   5.113   4.745   1.219  1.4819 -0.1331 -0.3844
 6526TIP3    H219585   5.107   4.896   1.215  0.3590 -0.1514  0.3572
 6527TIP3   OH219586   2.960   2.771   2.053  0.3363 -0.0484 -0.2070
 6527TIP3    H119587   2.899   2.731   2.115  0.5584  0.1926  0.1645
 6527TIP3    H219588   2.928   2.741   1.967 -1.2863  1.3712 -0.1545
 6528TIP3   OH219589   1.207   5.231   4.806  0.1397  0.8155  0.5750
 6528TIP3    H119590   1.237   5.258   4.720 -2.1265 -0.4387 -0.7004
 6528TIP3    H219591   1.121   5.270   4.815  0.1037  0.4667  2.0423
 6529TIP3   OH219592   4.761   4.128   0.393 -0.4206 -0.3543 -0.7653
 6529TIP3    H119593   4.818   4.052   0.397  2.2657  1.5358  1.0700
 6529TIP3    H219594   4.794   4.180   0.320  0.0136  0.5525  0.0388
 6530TIP3   OH219595   3.429   1.678   0.057  0.3061 -0.0228  0.0474
 6530TIP3    H119596   3.365   1.733   0.102 -0.8384 -2.8233  2.1565
 6530TIP3    H219597   3.390   1.664  -0.030 -1.5561 -0.8634  0.9454
 6531TIP3   OH219598   3.891   4.384   5.132 -0.4939  0.6993 -0.2418
 6531TIP3    H119599   3.930   4.433   5.060 -0.3419  2.2123  0.8210
 6531TIP3    H219600   3.820   4.441   5.164 -1.6425 -0.6843 -0.2320
 6532TIP3   OH219601   4.192   3.060   0.318 -0.2449 -0.4868  0.5900
 6532TIP3    H119602   4.287   3.065   0.325 -0.3335  0.6953  0.9992
 6532TIP3    H219603   4.161   3.150   0.327 -1.3789 -0.7914 -0.0021
 6533TIP3   OH219604   6.044   5.655   3.404  0.4986  0.3448  0.0894
 6533TIP3    H119605   6.107   5.586   3.383 -0.0401 -0.0783 -0.1610
 6533TIP3    H219606   6.064   5.726   3.343 -0.9607 -0.8120 -1.8501
 6534TIP3   OH219607   2.507   4.081   0.346  0.0729  0.6128  0.2859
 6534TIP3    H119608   2.481   4.087   0.438  0.2147 -2.6343  0.6600
 6534TIP3    H219609   2.522   3.988   0.332 -0.3569  0.9544 -3.1771
 6535TIP3   OH219610   2.241   5.493   1.898  0.3982  0.0555 -0.1081
 6535TIP3    H119611   2.158   5.509   1.854  0.3961 -1.7951 -0.8952
 6535TIP3    H219612   2.259   5.573   1.947 -0.2451  1.7407 -2.4547
 6536TIP3   OH219613   0.363   3.788   1.108  0.5789  0.5006 -0.6487
 6536TIP3    H119614   0.272   3.763   1.119  1.0177 -1.0011 -0.2509
 6536TIP3    H219615   0.390   3.745   1.026  1.2365 -0.0309 -0.1650
 6537TIP3   OH219616   3.196   2.898   5.125  0.1788 -0.4525  0.2493
 6537TIP3    H119617   3.193   2.805   5.145 -0.6820 -0.0938  1.9452
 6537TIP3    H219618   3.109   2.918   5.091  0.1540 -0.1494  0.4871
 6538TIP3   OH219619   1.879   2.390   0.583  0.5030  0.1452  0.2165
 6538TIP3    H119620   1.809   2.447   0.551  0.9288  0.5204 -0.0526
 6538TIP3    H219621   1.946   2.393   0.515  0.2743 -1.1691 -0.0880
 6539TIP3   OH219622   3.124   2.969   4.256  0.6192  0.1913 -0.0719
 6539TIP3    H119623   3.063   2.999   4.188  1.0163  0.3750 -0.3499
 6539TIP3    H219624   3.088   3.004   4.337  0.6252  0.7211 -0.2943
 6540TIP3   OH219625   5.836   4.192   5.103  0.1878 -0.0118  0.5380
 6540TIP3    H119626   5.927   4.215   5.119  0.1440  0.4762  0.1426
 6540TIP3    H219627   5.814   4.238   5.022  0.2534 -1.9115 -0.6279
 6541TIP3   OH219628   5.579   0.483   4.539  0.3236 -0.1243 -0.1138
 6541TIP3    H119629   5.659   0.472   4.592  1.1095  1.2336 -0.9597
 6541TIP3    H219630   5.536   0.397   4.544  2.1361 -1.0995 -0.1204
 6542TIP3   OH219631   2.845   4.744   2.017 -0.0398 -0.7028  0.5923
 6542TIP3    H119632   2.772   4.716   2.074  0.7698 -0.8085  1.6143
 6542TIP3    H219633   2.882   4.662   1.984 -0.9726 -0.6240 -0.7383
 6543TIP3   OH219634   0.894   5.314   3.969 -0.4046  0.3869 -0.5181
 6543TIP3    H119635   0.967   5.301   4.029 -0.7574 -0.4369 -0.2532
 6543TIP3    H219636   0.923   5.279   3.885  0.0824  1.5225 -0.8471
 6544TIP3   OH219637   2.672   3.644   4.981 -0.4428 -0.3834  0.4705
 6544TIP3    H119638   2.613   3.718   4.998 -0.1417  0.2517 -1.1342
 6544TIP3    H219639   2.626   3.590   4.918 -0.1699 -0.9798  0.7722
 6545TIP3   OH219640   1.437   4.228   4.453 -0.3004  0.0481 -0.3463
 6545TIP3    H119641   1.479   4.309   4.482 -0.8841  0.6198 -1.0596
 6545TIP3    H219642   1.470   4.161   4.513  0.7038  0.6913 -0.1622
 6546TIP3   OH219643   3.780   5.747   0.702  0.3284  0.0402  0.1457
 6546TIP3    H119644   3.747   5.779   0.618 -0.5760  0.5121  0.6590
 6546TIP3    H219645   3.823   5.664   0.681 -0.5308 -0.2234 -0.6895
 6547TIP3   OH219646   2.924   3.538   0.386  0.0459  0.6833 -0.4477
 6547TIP3    H119647   3.010   3.573   0.408 -0.0813  0.1245  1.0085
 6547TIP3    H219648   2.863   3.604   0.418 -0.2382 -1.0658  3.0961
 6548TIP3   OH219649   5.765   1.597   1.158  0.1536 -0.1768  0.2366
 6548TIP3    H119650   5.748   1.518   1.107 -1.3393  0.8875 -1.0068
 6548TIP3    H219651   5.828   1.646   1.106  0.7151 -0.3249  0.7710
 6549TIP3   OH219652   0.481   0.670   0.588  0.2791 -0.0581 -0.1131
 6549TIP3    H119653   0.478   0.579   0.558 -1.4530 -0.2199  0.4605
 6549TIP3    H219654   0.511   0.665   0.678 -2.7991 -0.4305  0.9996
 6550TIP3   OH219655   1.110   5.292   4.154 -0.3023 -0.6980 -0.1296
 6550TIP3    H119656   1.203   5.300   4.172 -0.2565  0.7962 -0.8202
 6550TIP3    H219657   1.096   5.200   4.133  1.0194 -0.9313 -0.0157
 6551TIP3   OH219658   3.355   2.742   0.862 -0.5181 -0.0925  0.0180
 6551TIP3    H119659   3.297   2.665   0.864 -2.1305  1.0832  0.5556
 6551TIP3    H219660   3.316   2.803   0.924  0.9886  1.0008 -0.0554
 6552TIP3   OH219661   3.976   0.805   3.053 -0.6068  0.6451  0.5660
 6552TIP3    H119662   4.060   0.849   3.039 -0.2304 -0.3413 -0.4275
 6552TIP3    H219663   3.949   0.833   3.141  0.8451  0.8445  0.9852
 6553TIP3   OH219664   3.298   1.481   3.425  0.2510 -0.2889 -0.6469
 6553TIP3    H119665   3.301   1.536   3.346 -0.1096 -2.1006 -1.9970
 6553TIP3    H219666   3.239   1.408   3.401 -0.8376 -0.2802  1.7337
 6554TIP3   OH219667   5.092   0.035   2.196  0.0353  0.1134 -0.4149
 6554TIP3    H119668   5.172  -0.017   2.205 -0.4859 -0.5803  0.3414
 6554TIP3    H219669   5.043  -0.009   2.126 -0.7404 -0.8914  0.7218
 6555TIP3   OH219670   4.339   0.859   2.715  0.5471 -0.1679 -0.0178
 6555TIP3    H119671   4.426   0.895   2.695  0.8431 -1.7482 -1.8164
 6555TIP3    H219672   4.354   0.801   2.790  1.6266 -2.3359 -1.7965
 6556TIP3   OH219673   3.414   5.957   0.093 -0.1050 -0.5608 -0.7421
 6556TIP3    H119674   3.466   5.965   0.173  1.9552 -1.7390 -1.8644
 6556TIP3    H219675   3.364   6.038   0.088  1.5843  0.6188  0.4643
 6557TIP3   OH219676   2.416   1.620   2.376 -0.6779  0.0791 -0.1564
 6557TIP3    H119677   2.478   1.683   2.341 -1.0685  0.1227 -0.7964
 6557TIP3    H219678   2.433   1.539   2.327  0.4382 -0.6161  1.2822
 6558TIP3   OH219679   0.817   4.569   3.862  0.6073  0.2438  0.4018
 6558TIP3    H119680   0.722   4.581   3.850  0.1280  0.1849  3.4970
 6558TIP3    H219681   0.853   4.657   3.858  0.7088  0.1614 -2.2035
 6559TIP3   OH219682   5.755   1.942   2.342  0.0253  0.5520  0.1588
 6559TIP3    H119683   5.742   2.026   2.385 -0.1138  0.7961 -0.3561
 6559TIP3    H219684   5.719   1.954   2.254 -0.9277 -0.3558  0.4056
 6560TIP3   OH219685   3.912   0.582   0.244 -0.0323 -0.3195 -0.0926
 6560TIP3    H119686   3.901   0.594   0.149  2.9051  0.6807 -0.4141
 6560TIP3    H219687   3.960   0.500   0.252  1.7999  0.7555  0.3102
 6561TIP3   OH219688   0.920   5.960   3.845  0.0119 -0.1190  0.4404
 6561TIP3    H119689   0.920   5.918   3.931  1.1280 -1.6941 -0.2835
 6561TIP3    H219690   0.974   6.039   3.857  1.3362 -1.0564  0.8755
 6562TIP3   OH219691   3.087   1.597   2.116  0.1959  0.1439  0.6363
 6562TIP3    H119692   3.099   1.595   2.021 -1.5721  1.9574  0.3039
 6562TIP3    H219693   2.994   1.577   2.128  0.3483  0.1784  1.9956
 6563TIP3   OH219694   2.521   1.654   1.961  0.7107 -0.3708  0.2920
 6563TIP3    H119695   2.610   1.666   1.995  0.4387 -1.3470  1.4252
 6563TIP3    H219696   2.533   1.619   1.873  1.4350  0.2673  0.1225
 6564TIP3   OH219697   5.085  -0.022   2.610 -0.0309 -0.6741 -0.5307
 6564TIP3    H119698   5.031   0.021   2.543 -1.0933 -1.7285 -0.3784
 6564TIP3    H219699   5.119   0.050   2.663 -1.2984  0.0332 -0.6336
 6565TIP3   OH219700   2.416   4.485   2.287 -0.0593 -0.2597 -0.6922
 6565TIP3    H119701   2.367   4.431   2.225  0.8498 -1.3064 -0.5197
 6565TIP3    H219702   2.406   4.442   2.371 -1.1834  1.0945 -0.0798
 6566TIP3   OH219703   2.933   3.424   4.940 -0.4869 -0.0726 -0.3379
 6566TIP3    H119704   2.946   3.519   4.942  0.3125 -0.1878  0.4999
 6566TIP3    H219705   2.996   3.389   5.003 -1.3785 -1.0938  0.0363
 6567TIP3   OH219706   0.473   5.975   0.575 -0.1068 -0.1164 -0.1623
 6567TIP3    H119707   0.484   6.021   0.492 -0.0289 -0.2262 -0.2120
 6567TIP3    H219708   0.397   5.918   0.561 -1.2334  1.1810  0.4122
 6568TIP3   OH219709   1.300   1.952   3.405  0.3160  0.1920  0.4288
 6568TIP3    H119710   1.306   1.949   3.310 -0.1261 -1.2270  0.4196
 6568TIP3    H219711   1.275   1.863   3.430 -1.4272  1.0025  1.7395
 6569TIP3   OH219712   0.759   4.848   4.003  0.0089  0.2708 -0.7608
 6569TIP3    H119713   0.670   4.842   4.038 -0.0500 -2.3348 -1.1678
 6569TIP3    H219714   0.815   4.814   4.072  0.3314 -1.0463 -1.6451
 6570TIP3   OH219715   5.636   3.781   3.274  0.0026 -0.7908  0.3992
 6570TIP3    H119716   5.714   3.726   3.267  0.5785  0.1649 -1.0395
 6570TIP3    H219717   5.670   3.869   3.287 -0.8862 -0.5543  1.3124
 6571TIP3   OH219718   4.796   0.870   0.649  0.1391  0.1232  0.1693
 6571TIP3    H119719   4.795   0.886   0.744 -0.2574 -0.8955  0.3531
 6571TIP3    H219720   4.722   0.811   0.635 -0.4705  1.1134 -0.9453
 6572TIP3   OH219721   5.002   3.288   4.685  0.3864 -0.0357  0.1257
 6572TIP3    H119722   5.063   3.219   4.710 -0.4971 -1.0583 -0.4910
 6572TIP3    H219723   5.014   3.297   4.591  1.1759  1.3474  0.3279
 6573TIP3   OH219724   4.108   4.034   1.598 -0.2646  0.8310 -0.0150
 6573TIP3    H119725   4.099   4.115   1.649 -0.2606 -0.0435  1.4356
 6573TIP3    H219726   4.040   3.976   1.632  0.3541 -0.1157 -0.3344
 6574TIP3   OH219727   3.672   3.596   0.891 -0.1301  0.0249 -0.0160
 6574TIP3    H119728   3.631   3.510   0.895  0.1549 -0.1695 -1.0909
 6574TIP3    H219729   3.709   3.601   0.803 -2.2336  2.1900 -0.8917
 6575TIP3   OH219730   6.141   0.532   2.023  0.0099 -0.6708 -0.5189
 6575TIP3    H119731   6.058   0.509   2.065  0.4692  1.2565  1.6706
 6575TIP3    H219732   6.168   0.614   2.066  1.8350  0.0970 -2.9013
 6576TIP3   OH219733   6.202   0.146   3.422 -0.0796  0.3426 -0.4929
 6576TIP3    H119734   6.264   0.100   3.478 -1.0071 -0.5065 -0.1209
 6576TIP3    H219735   6.117   0.128   3.462 -0.5188  2.0015 -0.6287
 6577TIP3   OH219736   0.232   5.785   4.239  0.3575  0.5053 -0.1891
 6577TIP3    H119737   0.294   5.800   4.310  0.6156  0.6855 -0.4469
 6577TIP3    H219738   0.170   5.858   4.246  0.5644  0.6991 -0.3368
 6578TIP3   OH219739   0.237   2.543   1.327  0.2567  0.2876  0.0952
 6578TIP3    H119740   0.297   2.484   1.280 -1.0422 -1.7202  0.8254
 6578TIP3    H219741   0.283   2.563   1.409 -0.7502 -2.8948  1.5904
 6579TIP3   OH219742   5.347   1.823   5.145  0.1271  0.2147 -0.1127
 6579TIP3    H119743   5.319   1.792   5.060  1.7559 -1.3682 -0.1441
 6579TIP3    H219744   5.300   1.905   5.158 -1.7122 -0.5428 -1.6010
 6580TIP3   OH219745   6.229   5.515   3.830  0.0180  0.0111  0.2469
 6580TIP3    H119746   6.298   5.450   3.843 -0.3096 -0.4388 -0.1812
 6580TIP3    H219747   6.256   5.563   3.752 -0.1860 -0.2185  0.0319
 6581TIP3   OH219748   1.812   3.918   5.097  0.6381  0.2330 -0.1022
 6581TIP3    H119749   1.905   3.898   5.096  0.4768 -1.0304  2.2121
 6581TIP3    H219750   1.771   3.839   5.060  0.4651  0.8024 -1.1550
 6582TIP3   OH219751   5.202   3.802   0.891  0.1368  0.0033  0.2366
 6582TIP3    H119752   5.240   3.724   0.931  1.5825  0.2864 -0.5034
 6582TIP3    H219753   5.145   3.768   0.822 -1.2391 -0.4413  1.5574
 6583TIP3   OH219754   4.982   1.732   1.036  0.4208  0.5808  0.2467
 6583TIP3    H119755   4.896   1.736   0.995  1.1264  1.5369 -1.2543
 6583TIP3    H219756   4.965   1.710   1.127 -1.3405 -0.1384 -0.2212
 6584TIP3   OH219757   2.488   2.071   2.833 -0.3916 -0.2534  0.1745
 6584TIP3    H119758   2.503   2.164   2.816 -0.2767 -0.2791  0.1375
 6584TIP3    H219759   2.395   2.058   2.815 -0.9537  0.3382  2.3354
 6585TIP3   OH219760   1.844   5.076   4.969  0.0853  0.4013  0.1694
 6585TIP3    H119761   1.859   5.046   5.058 -0.2113  0.1577  0.1394
 6585TIP3    H219762   1.751   5.101   4.968 -0.6732 -2.1751 -0.8043
 6586TIP3   OH219763   6.308   2.141   4.275  0.0430  0.4395  0.2383
 6586TIP3    H119764   6.343   2.054   4.296  0.1129  0.2603 -0.5939
 6586TIP3    H219765   6.385   2.196   4.264 -0.0052  0.6828  1.0227
 6587TIP3   OH219766   0.797   2.162   3.828 -0.2570  0.3963  0.1133
 6587TIP3    H119767   0.753   2.123   3.753 -0.2720  2.1891 -0.8483
 6587TIP3    H219768   0.807   2.254   3.806  0.7442  0.7588  1.8482
 6588TIP3   OH219769   5.307   4.477   3.181 -0.5548  0.3181  0.5468
 6588TIP3    H119770   5.309   4.407   3.247 -2.2788 -0.7640 -0.5027
 6588TIP3    H219771   5.376   4.453   3.119 -1.1724 -0.5108  0.1625
 6589TIP3   OH219772   5.304   0.776   3.059  0.6912  0.4380 -0.0948
 6589TIP3    H119773   5.304   0.748   3.151  0.1129  0.7921  0.0135
 6589TIP3    H219774   5.228   0.832   3.051  0.0770 -0.5005 -1.0785
 6590TIP3   OH219775   4.334   5.665   0.333 -0.2383 -0.5481  0.1609
 6590TIP3    H119776   4.342   5.600   0.264  1.0059  0.2122 -0.4395
 6590TIP3    H219777   4.241   5.663   0.357 -0.3438 -2.0666 -0.2856
 6591TIP3   OH219778   0.831   2.032   4.846 -0.4348 -0.1806  0.2041
 6591TIP3    H119779   0.743   2.064   4.824  0.0631  0.0423 -1.6624
 6591TIP3    H219780   0.836   1.946   4.805  0.0017 -0.4792  0.8682
 6592TIP3   OH219781   5.005   2.541   3.183  0.3793 -0.4292 -0.2513
 6592TIP3    H119782   4.941   2.510   3.120  0.8921 -1.1640 -0.4180
 6592TIP3    H219783   5.045   2.462   3.218  1.6295  0.0214 -0.5968
 6593TIP3   OH219784   1.059   3.529   4.596  0.1987  0.0989 -0.0129
 6593TIP3    H119785   1.095   3.541   4.509  0.6212  0.8148  0.2528
 6593TIP3    H219786   1.017   3.612   4.617 -1.3406 -0.6055 -0.1807
 6594TIP3   OH219787   0.918   0.790   1.462  0.1462 -0.2438 -0.1075
 6594TIP3    H119788   0.854   0.734   1.507  0.7410 -1.2651 -0.4956
 6594TIP3    H219789   0.912   0.874   1.506  0.0917 -0.9697  1.3059
 6595TIP3   OH219790   2.290   3.156   4.064 -0.0409 -0.8621 -0.5440
 6595TIP3    H119791   2.342   3.075   4.064  0.6910 -0.4103 -0.2649
 6595TIP3    H219792   2.336   3.213   4.002  0.0372 -0.3082  0.0160
 6596TIP3   OH219793   4.067   2.348   3.559 -0.2137 -0.3503  0.2484
 6596TIP3    H119794   4.092   2.400   3.482  1.6654 -0.0116  1.0346
 6596TIP3    H219795   3.986   2.389   3.591  0.4162  1.1540 -0.0217
 6597TIP3   OH219796   5.022   0.274   3.726  0.4887  0.7746 -0.3236
 6597TIP3    H119797   5.105   0.313   3.697  0.8969 -0.1453 -0.4240
 6597TIP3    H219798   5.049   0.204   3.786 -0.2793  1.5088  0.9246
 6598TIP3   OH219799   1.306   3.447   3.484 -0.1308 -0.2082  0.1467
 6598TIP3    H119800   1.400   3.450   3.467 -0.3395 -2.1413 -1.9543
 6598TIP3    H219801   1.296   3.385   3.556  0.2083  0.6637  0.9710
 6599TIP3   OH219802   0.122   2.085   0.728 -0.2579  0.2382  0.3242
 6599TIP3    H119803   0.192   2.027   0.697  0.0707 -1.0360  3.1043
 6599TIP3    H219804   0.041   2.044   0.697  0.1013  0.3383 -0.7909
 6600TIP3   OH219805   5.489   1.004   3.250 -0.0504  0.2856  0.2264
 6600TIP3    H119806   5.461   1.092   3.272 -1.3266 -0.2434  0.8503
 6600TIP3    H219807   5.417   0.948   3.280  0.7261 -0.9614 -0.1599
 6601TIP3   OH219808   2.275   3.632   4.354  0.0475 -0.1148  0.2878
 6601TIP3    H119809   2.359   3.610   4.393  0.4799  0.3477 -0.3491
 6601TIP3    H219810   2.258   3.562   4.291  0.4471  0.3095 -0.2994
 6602TIP3   OH219811   3.335   5.270   3.649  0.0790 -0.1454  0.7171
 6602TIP3    H119812   3.339   5.213   3.725  0.0280  0.0568  0.8729
 6602TIP3    H219813   3.250   5.252   3.609  0.6962 -1.3079 -0.1286
 6603TIP3   OH219814   2.608   5.308   3.633 -0.2897 -0.4120 -0.3296
 6603TIP3    H119815   2.562   5.292   3.550 -1.6750 -0.9737  0.5199
 6603TIP3    H219816   2.604   5.225   3.680  1.7969 -0.5329 -0.2799
 6604TIP3   OH219817   2.435   0.746   3.749 -0.2484 -0.0605  0.5623
 6604TIP3    H119818   2.398   0.829   3.720  0.8320  0.0973 -0.4892
 6604TIP3    H219819   2.389   0.680   3.697 -0.3628 -0.0250  0.6194
 6605TIP3   OH219820   3.678   5.423   2.531  0.3049  0.4958  0.1022
 6605TIP3    H119821   3.699   5.501   2.583  0.7995  0.0391  0.5973
 6605TIP3    H219822   3.714   5.443   2.444 -0.4747  1.2369 -0.0623
 6606TIP3   OH219823   1.166   3.649   0.824  0.2188 -0.0942  0.1838
 6606TIP3    H119824   1.244   3.633   0.877  1.1714  1.1146 -0.7973
 6606TIP3    H219825   1.171   3.586   0.753 -0.1787 -0.6106  0.6103
 6607TIP3   OH219826   5.734   0.790   1.734  0.0825 -0.0873 -0.1550
 6607TIP3    H119827   5.760   0.858   1.796  1.6263 -1.6336  0.9690
 6607TIP3    H219828   5.801   0.793   1.665 -0.7182  0.5375 -0.9269
 6608TIP3   OH219829   3.111   4.039   2.396  0.1495 -0.1709  0.2193
 6608TIP3    H119830   3.160   4.117   2.421  1.2616 -0.9015  0.3837
 6608TIP3    H219831   3.033   4.073   2.351  0.9239  1.0151 -0.2761
 6609TIP3   OH219832   0.916   4.136   1.585 -0.0967  0.5609 -0.3056
 6609TIP3    H119833   0.894   4.048   1.615 -1.2963  0.6711 -0.7737
 6609TIP3    H219834   0.883   4.194   1.653  0.4589  0.6616 -0.1201
 6610TIP3   OH219835   3.405   5.084   2.802  0.0082 -0.2826 -0.2820
 6610TIP3    H119836   3.340   5.035   2.751 -0.9965 -0.8143  1.4082
 6610TIP3    H219837   3.378   5.071   2.893  0.6455  2.0954  0.3249
 6611TIP3   OH219838   0.201   0.229   0.382 -0.3702  0.1836  0.0603
 6611TIP3    H119839   0.115   0.271   0.387  0.4194  1.7129  2.3226
 6611TIP3    H219840   0.183   0.141   0.349 -2.7123  0.6626 -0.1168
 6612TIP3   OH219841   0.451   4.941   3.437  0.0871  0.4349  0.4375
 6612TIP3    H119842   0.362   4.958   3.467  0.1196 -2.0699  2.3511
 6612TIP3    H219843   0.447   4.853   3.399  2.1265 -0.8666  2.9191
 6613TIP3   OH219844   5.468   3.156   2.823  0.0793  0.3084  0.2665
 6613TIP3    H119845   5.540   3.151   2.886 -0.1564 -0.1920  0.5008
 6613TIP3    H219846   5.414   3.228   2.855  0.0984  0.2254  0.4846
 6614TIP3   OH219847   6.048   3.826   1.114  0.6060 -0.3361  0.0774
 6614TIP3    H119848   6.117   3.797   1.173  2.0099  1.8857 -0.3197
 6614TIP3    H219849   5.980   3.862   1.171  0.7082 -0.6799  0.4157
 6615TIP3   OH219850   1.772   2.139   4.938  0.0967  0.0930  0.4229
 6615TIP3    H119851   1.829   2.128   4.862  0.8083 -0.2384  0.9921
 6615TIP3    H219852   1.832   2.151   5.012 -0.5842  1.0867  0.8395
 6616TIP3   OH219853   1.936   0.306   3.664  0.3496 -0.6124 -0.0267
 6616TIP3    H119854   2.003   0.262   3.717  0.7974 -1.8220 -1.5224
 6616TIP3    H219855   1.854   0.262   3.686  0.6781 -1.7288 -0.9593
 6617TIP3   OH219856   5.315   0.208   2.810  0.0674  0.2323  0.4235
 6617TIP3    H119857   5.380   0.259   2.860  0.7412  0.8490 -1.0320
 6617TIP3    H219858   5.232   0.229   2.852  0.1981  3.2306 -0.5944
 6618TIP3   OH219859   3.323   4.543   3.669 -0.6394  0.0275  0.2829
 6618TIP3    H119860   3.349   4.454   3.644 -1.1679  0.1683 -0.7835
 6618TIP3    H219861   3.302   4.535   3.763 -0.8547 -1.0109  0.1647
 6619TIP3   OH219862   3.163   2.643   1.230 -0.0130 -0.1006  0.4738
 6619TIP3    H119863   3.194   2.623   1.319 -0.3932  0.1766  0.6723
 6619TIP3    H219864   3.155   2.738   1.228  0.8875 -0.0280 -0.1644
 6620TIP3   OH219865   2.679   2.842   3.699 -1.0095  0.8694  0.0414
 6620TIP3    H119866   2.708   2.913   3.755  0.5068  0.1183  0.2709
 6620TIP3    H219867   2.666   2.768   3.758 -0.4337  0.3634 -0.4483
 6621TIP3   OH219868   5.370   0.421   2.255  0.5390 -0.1129  0.0762
 6621TIP3    H119869   5.399   0.365   2.328 -0.4275 -0.3935  0.2539
 6621TIP3    H219870   5.435   0.406   2.187 -0.2370 -2.2729 -0.2573
 6622TIP3   OH219871   1.850   0.655   1.941 -0.2950 -0.0896 -0.4245
 6622TIP3    H119872   1.779   0.705   1.981 -1.0854 -1.4161 -0.0964
 6622TIP3    H219873   1.876   0.592   2.008  0.7215 -0.0858 -0.7977
 6623TIP3   OH219874   3.408   3.661   4.093 -0.3193  0.3237  0.5903
 6623TIP3    H119875   3.323   3.617   4.102 -0.3740  0.3385  0.1604
 6623TIP3    H219876   3.415   3.681   4.000  0.0414  0.5576  0.6654
 6624TIP3   OH219877   5.396   2.397   0.546  0.1318 -0.0546  0.2866
 6624TIP3    H119878   5.312   2.356   0.524  0.0923  0.1159  0.1211
 6624TIP3    H219879   5.384   2.489   0.523  0.6473 -0.1836 -0.5272
 6625TIP3   OH219880   1.675   3.123   1.403 -0.2941  0.2819 -0.1704
 6625TIP3    H119881   1.625   3.204   1.392  0.8693  1.1053  0.4224
 6625TIP3    H219882   1.659   3.097   1.494  0.5153  0.6709  0.0901
 6626TIP3   OH219883   2.508   3.054   1.016 -0.4081 -0.7728  0.2206
 6626TIP3    H119884   2.485   3.077   1.106  1.7914  2.0491  0.1951
 6626TIP3    H219885   2.432   3.081   0.964 -0.7911 -0.2727  1.0240
 6627TIP3   OH219886   3.206   4.367   4.384 -0.0191  0.5540 -0.2199
 6627TIP3    H119887   3.268   4.402   4.448  0.6188  1.0782 -1.1112
 6627TIP3    H219888   3.232   4.275   4.373  1.4945  1.1006 -1.5919
 6628TIP3   OH219889   1.511   4.124   2.737  0.5371 -0.0481 -0.0649
 6628TIP3    H119890   1.592   4.174   2.736  0.0019  0.8349 -0.1548
 6628TIP3    H219891   1.442   4.190   2.744 -0.1523 -0.8149  0.6172
 6629TIP3   OH219892   3.050   2.088   2.695 -0.1555  0.1784  0.0076
 6629TIP3    H119893   3.123   2.076   2.634  0.0808 -1.8413  0.6199
 6629TIP3    H219894   2.998   2.008   2.687 -1.4820  0.9332  0.6918
 6630TIP3   OH219895   2.855   4.398   2.398 -0.2028  0.0965  0.5005
 6630TIP3    H119896   2.796   4.370   2.327  1.7275  0.7767 -1.4801
 6630TIP3    H219897   2.838   4.335   2.469  0.3132 -2.9908 -1.8734
 6631TIP3   OH219898   5.932   3.561   1.270 -0.2916  0.2120  0.4292
 6631TIP3    H119899   5.929   3.599   1.182 -1.5856 -3.2294 -1.1867
 6631TIP3    H219900   6.025   3.540   1.283  0.0209  1.3791  0.2375
 6632TIP3   OH219901   0.973   0.635   1.974  0.6221  0.0757  0.1483
 6632TIP3    H119902   0.933   0.694   1.911 -1.7068 -1.2121  0.3196
 6632TIP3    H219903   1.061   0.618   1.939  0.6624  2.0791 -0.8621
 6633TIP3   OH219904   2.213   0.065   1.327 -0.1662 -0.2360 -0.3646
 6633TIP3    H119905   2.231  -0.022   1.290 -0.6785 -1.1845  1.4988
 6633TIP3    H219906   2.281   0.121   1.291 -1.1486 -0.8429 -3.4319
 6634TIP3   OH219907   4.186   2.132   2.491  0.4036 -0.2173  0.3501
 6634TIP3    H119908   4.266   2.084   2.468 -0.0320 -0.6175 -0.3463
 6634TIP3    H219909   4.117   2.066   2.487  0.2491 -0.2932  2.6340
 6635TIP3   OH219910   1.253   5.751   4.308 -0.1485  0.2166 -0.0446
 6635TIP3    H119911   1.251   5.660   4.338 -1.7999  0.6363  1.2803
 6635TIP3    H219912   1.260   5.803   4.388 -0.2477  1.2889 -0.7106
 6636TIP3   OH219913   0.608   1.089   3.001 -0.0429 -0.1264 -0.1528
 6636TIP3    H119914   0.668   1.038   2.947 -0.3024  0.5202 -1.0834
 6636TIP3    H219915   0.550   1.024   3.040  0.1660 -0.6095 -0.6341
 6637TIP3   OH219916   0.455   2.813   2.363 -0.6500  0.1159 -0.1362
 6637TIP3    H119917   0.451   2.908   2.375  0.4056  0.7001 -3.3965
 6637TIP3    H219918   0.386   2.794   2.299 -0.9725 -1.3773  0.6001
 6638TIP3   OH219919   1.750   2.733   1.172  0.4676  0.5808 -0.3333
 6638TIP3    H119920   1.693   2.697   1.239  1.2946  0.6520  0.4190
 6638TIP3    H219921   1.795   2.806   1.215 -0.1848  1.6818 -1.4319
 6639TIP3   OH219922   5.717   1.887   0.918  0.1771  1.1788  0.0184
 6639TIP3    H119923   5.811   1.882   0.932  0.5382  0.1998 -2.3099
 6639TIP3    H219924   5.681   1.814   0.968  0.7623  0.9248  0.0686
 6640TIP3   OH219925   0.306   2.961   1.326 -0.0980 -0.0291 -0.6837
 6640TIP3    H119926   0.279   2.930   1.240  0.3559 -0.6755 -0.6061
 6640TIP3    H219927   0.276   2.893   1.387  2.0998 -1.0983 -0.6528
 6641TIP3   OH219928   1.335   3.150   1.147  0.1556 -0.4775  0.2562
 6641TIP3    H119929   1.356   3.186   1.061 -0.7094  0.2590  0.3454
 6641TIP3    H219930   1.393   3.074   1.156  0.5831 -0.2831 -0.7729
 6642TIP3   OH219931   0.768   3.425   3.891  0.5296 -0.1000  0.4088
 6642TIP3    H119932   0.782   3.357   3.957  1.1164 -0.3697  0.0289
 6642TIP3    H219933   0.849   3.423   3.838  1.2152  1.9301  1.2883
 6643TIP3   OH219934   5.003   5.632   1.113  0.0866 -0.6957 -0.1233
 6643TIP3    H119935   4.999   5.539   1.135 -1.9441 -1.0067 -1.5124
 6643TIP3    H219936   5.092   5.646   1.082  0.6792 -1.9576  0.8992
 6644TIP3   OH219937   4.981   5.680   0.630 -0.4342  0.4668  0.2443
 6644TIP3    H119938   4.960   5.691   0.537  1.7240 -2.4983 -0.7609
 6644TIP3    H219939   4.919   5.614   0.661 -0.9175  1.1904  0.8254
 6645TIP3   OH219940   2.930   5.199   4.925 -0.6311 -0.3669  0.0502
 6645TIP3    H119941   2.873   5.135   4.881  0.8951 -1.6008 -0.2033
 6645TIP3    H219942   2.980   5.239   4.854  1.0473 -1.5680  0.4945
   6.35547   5.99199   5.18922   0.00000   0.00000  -2.11850   0.00000  -2.11850  -2.99600
