Title
19927
    1ASP      N    1   1.896   3.059   2.084 -0.4675  0.3554  0.5389
    1ASP    HT1    2   1.958   2.993   2.135 -0.5913  0.1562  0.4292
    1ASP    HT2    3   1.830   3.001   2.030 -1.6071  0.2340  1.9843
    1ASP    HT3    4   1.835   3.114   2.148  0.5273  1.4392  0.6088
    1ASP     CA    5   1.984   3.151   2.006  0.9436 -0.6723 -0.0650
    1ASP     HA    6   2.032   3.221   2.073  1.2996  0.1302 -1.1305
    1ASP     CB    7   2.086   3.075   1.923  0.2047  0.3496  0.6003
    1ASP    HB1    8   2.158   3.146   1.878  1.5476 -1.5116 -0.3575
    1ASP    HB2    9   2.032   3.012   1.849  1.1344  1.1737 -0.8274
    1ASP     CG   10   2.183   2.989   2.009 -0.5206  0.1477 -0.1741
    1ASP    OD1   11   2.275   2.924   1.954 -0.2603 -0.0659 -0.1504
    1ASP    OD2   12   2.168   2.981   2.131 -0.3282  0.0093 -0.6130
    1ASP      C   13   1.900   3.245   1.921  0.0158 -0.6360 -0.3848
    1ASP      O   14   1.777   3.228   1.918  0.3118 -0.2024 -0.1329
    2ALA      N   15   1.968   3.352   1.862  0.2686 -0.0415 -0.6366
    2ALA     HN   16   2.066   3.367   1.876  0.3101  0.1256 -1.0887
    2ALA     CA   17   1.905   3.436   1.762  0.2271 -0.2688  0.2004
    2ALA     HA   18   1.812   3.479   1.798  0.8325  1.9087 -0.6791
    2ALA     CB   19   1.998   3.551   1.726 -0.2963  0.4394  0.5448
    2ALA    HB1   20   2.064   3.584   1.808  0.8818 -1.6693  0.5132
    2ALA    HB2   21   1.938   3.636   1.686 -1.3684 -0.7440 -0.4539
    2ALA    HB3   22   2.069   3.521   1.645 -0.9332  1.0733 -0.2675
    2ALA      C   23   1.858   3.363   1.641  0.5096 -0.3543  0.0277
    2ALA      O   24   1.908   3.256   1.612  0.1757  0.6205  0.7082
    3ASP      N   25   1.750   3.412   1.577  0.2757 -0.2651  0.0340
    3ASP     HN   26   1.730   3.507   1.601  1.6604  0.3080 -0.9263
    3ASP     CA   27   1.693   3.351   1.450  0.7234 -0.2118 -0.0814
    3ASP     HA   28   1.636   3.269   1.490 -2.2974  2.0344  0.6097
    3ASP     CB   29   1.595   3.460   1.397  0.3184  0.4391  0.3959
    3ASP    HB1   30   1.561   3.431   1.295 -0.3640  2.3032  0.0518
    3ASP    HB2   31   1.661   3.549   1.394  3.1853 -1.5831 -0.1369
    3ASP     CG   32   1.471   3.463   1.479  0.3984  0.0315 -0.3242
    3ASP    OD1   33   1.419   3.353   1.499 -0.2653  0.1499 -0.2609
    3ASP    OD2   34   1.417   3.566   1.513 -0.3013  0.1312  0.4843
    3ASP      C   35   1.791   3.306   1.344  0.1551  0.3080  0.2572
    3ASP      O   36   1.878   3.384   1.297  0.3312 -0.1406  0.0746
    4GLY      N   37   1.775   3.182   1.292  0.1165  0.7455 -0.4189
    4GLY     HN   38   1.706   3.121   1.329 -0.2788  0.1347 -2.0464
    4GLY     CA   39   1.848   3.124   1.173  0.0155  0.1569  0.5271
    4GLY    HA1   40   1.832   3.018   1.170  0.4312  0.0646 -3.0736
    4GLY    HA2   41   1.953   3.141   1.193  0.2798 -2.8845  2.2628
    4GLY      C   42   1.805   3.181   1.040 -0.2159 -0.7863  0.4088
    4GLY      O   43   1.722   3.273   1.029  0.4679 -0.1886 -0.1065
    5PRO      N   44   1.855   3.132   0.928  0.7038  0.3445 -0.2907
    5PRO     CD   45   1.962   3.030   0.926 -0.6604  0.0725  0.4424
    5PRO    HD1   46   1.929   2.937   0.977  0.5897 -1.0649 -0.7368
    5PRO    HD2   47   2.055   3.077   0.964 -1.3652 -0.1054  2.4757
    5PRO     CA   48   1.816   3.170   0.795  0.4487  0.3854  1.0652
    5PRO     HA   49   1.808   3.276   0.780 -1.5344 -0.0026 -1.2975
    5PRO     CB   50   1.939   3.123   0.705  0.3197 -0.2058 -0.6709
    5PRO    HB1   51   2.027   3.189   0.718  1.3236 -1.4647 -0.8784
    5PRO    HB2   52   1.915   3.102   0.599  1.2111 -2.1945 -0.5368
    5PRO     CG   53   1.982   2.994   0.777 -0.4951 -0.5198 -0.2658
    5PRO    HG1   54   1.913   2.910   0.755  0.8978 -2.0746  1.0725
    5PRO    HG2   55   2.088   2.964   0.761 -0.6592 -0.1697 -2.3235
    5PRO      C   56   1.687   3.101   0.749  0.6772  0.1158  0.6302
    5PRO      O   57   1.649   3.127   0.634  0.0577 -0.4052  0.2266
    6GLY      N   58   1.620   3.014   0.825  0.0895 -0.3683  0.1039
    6GLY     HN   59   1.639   3.001   0.922 -0.3462  0.6405  0.3460
    6GLY     CA   60   1.503   2.939   0.780 -0.3958 -0.2875 -0.0261
    6GLY    HA1   61   1.497   2.871   0.864 -0.7792  0.4188  0.5261
    6GLY    HA2   62   1.528   2.906   0.680  2.9109 -0.2345  0.6699
    6GLY      C   63   1.371   3.010   0.770  1.3361 -0.1934 -0.7681
    6GLY      O   64   1.350   3.123   0.814 -0.1825 -0.4854 -0.1639
    7ASP      N   65   1.268   2.938   0.714  0.4658 -0.1896 -0.3374
    7ASP     HN   66   1.284   2.844   0.683  0.0983  0.5906 -3.1486
    7ASP     CA   67   1.129   2.986   0.703 -0.4962 -0.1547  0.2162
    7ASP     HA   68   1.134   3.072   0.638 -1.7565  1.7729  2.5011
    7ASP     CB   69   1.035   2.874   0.650 -0.1891  0.0479 -0.4976
    7ASP    HB1   70   0.929   2.901   0.663 -0.1038  0.4353 -0.6019
    7ASP    HB2   71   1.062   2.783   0.709 -1.3588  1.2840  2.1019
    7ASP     CG   72   1.048   2.857   0.504 -0.9510  0.2637  0.2847
    7ASP    OD1   73   1.099   2.955   0.447  0.2756  0.9838  0.0964
    7ASP    OD2   74   0.991   2.762   0.447 -0.1500  0.0000  0.2347
    7ASP      C   75   1.059   3.036   0.831 -0.0106  0.3067 -0.9094
    7ASP      O   76   1.093   2.971   0.931  0.1943  0.0397  0.0227
    8PRO      N   77   0.970   3.132   0.835 -0.3583  0.3182  0.0262
    8PRO     CD   78   0.937   3.228   0.730 -0.7380 -0.1394 -0.1189
    8PRO    HD1   79   0.857   3.182   0.669 -2.1010  0.1636  1.3605
    8PRO    HD2   80   1.023   3.249   0.663 -0.2210 -0.6913  0.3658
    8PRO     CA   81   0.885   3.157   0.961 -0.8652 -0.0096  0.3207
    8PRO     HA   82   0.952   3.189   1.040 -1.9988  1.1375  0.8638
    8PRO     CB   83   0.797   3.285   0.924 -0.5084  0.2698  0.5452
    8PRO    HB1   84   0.789   3.367   0.999  3.1276 -0.6553  2.1411
    8PRO    HB2   85   0.701   3.246   0.884 -0.0118 -0.3141 -0.0956
    8PRO     CG   86   0.884   3.347   0.811 -0.0961 -0.0045  0.1884
    8PRO    HG1   87   0.837   3.422   0.743 -1.3239 -0.8551  0.0741
    8PRO    HG2   88   0.971   3.392   0.864 -0.7262  0.2220  1.0332
    8PRO      C   89   0.810   3.037   1.005  0.6071 -0.1296  0.4993
    8PRO      O   90   0.764   2.959   0.914  0.1709 -1.0499  0.0896
    9ASP      N   91   0.796   3.010   1.138 -0.6159  0.4728  0.0922
    9ASP     HN   92   0.840   3.068   1.206  0.0665  0.2791 -0.1789
    9ASP     CA   93   0.709   2.902   1.190 -0.2578 -0.6952  0.8157
    9ASP     HA   94   0.742   2.814   1.137  3.0740  0.2888  1.0722
    9ASP     CB   95   0.731   2.892   1.349  0.2785  0.1725  0.4245
    9ASP    HB1   96   0.705   2.986   1.402 -1.6085 -0.5894  0.9093
    9ASP    HB2   97   0.840   2.885   1.367  0.1303 -0.0747  1.2569
    9ASP     CG   98   0.676   2.761   1.399  0.9311 -0.2940 -0.6974
    9ASP    OD1   99   0.625   2.679   1.312 -0.3978  0.0151  0.3108
    9ASP    OD2  100   0.672   2.743   1.523 -0.1197  0.2105  0.2720
    9ASP      C  101   0.561   2.921   1.155 -0.1590 -0.6420 -0.0871
    9ASP      O  102   0.511   3.030   1.186 -0.5092 -0.1778 -0.4669
   10ALA      N  103   0.490   2.828   1.085  0.3906  0.6888  0.0853
   10ALA     HN  104   0.550   2.759   1.043 -0.3325  1.3305 -2.1195
   10ALA     CA  105   0.365   2.847   1.015 -0.2324 -0.1455 -0.4258
   10ALA     HA  106   0.317   2.941   1.036 -0.0729 -0.1612  0.0254
   10ALA     CB  107   0.398   2.834   0.860  0.9237  0.1824  0.1215
   10ALA    HB1  108   0.456   2.742   0.837  0.8246  0.6765 -2.5155
   10ALA    HB2  109   0.467   2.913   0.822  0.4659  0.6498  0.2495
   10ALA    HB3  110   0.300   2.831   0.808  1.2263 -0.9511 -0.4192
   10ALA      C  111   0.262   2.756   1.070  0.2469 -0.1103  0.9501
   10ALA      O  112   0.154   2.743   1.015 -0.3684  0.1259  0.6727
   11GLY      N  113   0.292   2.683   1.179 -0.4104 -0.0687 -0.6162
   11GLY     HN  114   0.377   2.697   1.229 -1.0157 -3.4847  1.7790
   11GLY     CA  115   0.198   2.602   1.250 -0.2418  0.2474  0.4282
   11GLY    HA1  116   0.263   2.519   1.272  0.9764  0.5892 -1.5742
   11GLY    HA2  117   0.102   2.586   1.204 -1.0851 -0.0238  2.1966
   11GLY      C  118   0.161   2.688   1.371  0.1863  0.2323 -0.6926
   11GLY    OT1  119   0.251   2.731   1.446 -0.0488 -0.3396 -0.0997
   11GLY    OT2  120   0.036   2.701   1.394  0.0998 -0.3918 -0.2052
   12SOD    SOD  121   0.728   2.321   2.638 -0.2433 -0.4331 -0.1383
   13SOD    SOD  122   3.114   1.330   0.662 -0.4204 -0.0301 -0.2995
   14SOD    SOD  123   0.401   1.363   1.960  0.2597  0.1901  0.1171
   15SOD    SOD  124   0.915   2.462   1.341 -0.1618  0.0466 -0.3517
   16SOD    SOD  125   0.468   5.512   1.786  0.2490 -0.0906 -0.0859
   17SOD    SOD  126   0.080   0.781   2.850 -0.2482  0.2664 -0.2903
   18SOD    SOD  127   3.642   1.997   1.933 -0.6202 -0.0917  0.0700
   19SOD    SOD  128   6.167   2.632   0.206  0.0646  0.2975 -0.0360
   20SOD    SOD  129   3.214   1.184   4.806  0.0881 -0.0158  0.2793
   21SOD    SOD  130   2.100   4.732   3.345 -0.0899  0.1515 -0.3408
   22SOD    SOD  131   0.637   0.197   3.997  0.1888 -0.8567 -0.1080
   23SOD    SOD  132   5.869   2.288   0.649 -0.5494 -0.1344 -0.2208
   24SOD    SOD  133   0.566   4.301   3.841  0.0653  0.1918 -0.1861
   25SOD    SOD  134   3.385   1.041   0.478 -0.5620  0.1790 -0.1684
   26SOD    SOD  135   3.775   2.250   4.133 -0.4370  0.2377  0.4540
   27SOD    SOD  136   5.055   3.610   0.731  0.6296 -0.3471 -0.2703
   28SOD    SOD  137   6.194   3.020   3.815 -0.4121 -0.0615  0.1454
   29SOD    SOD  138   5.282   4.961   4.893 -0.2196  0.3002 -0.0057
   30SOD    SOD  139   0.035   5.458   0.531 -0.3409 -0.3665 -0.0260
   31SOD    SOD  140   1.864   3.575   4.922  0.1271 -0.0951 -0.4483
   32SOD    SOD  141   5.561   4.675   2.313 -0.2537  0.0009 -0.1188
   33SOD    SOD  142   1.771   5.036   1.689 -0.2836 -0.0527  0.0603
   34CLA    CLA  143   2.388   1.202   2.407  0.4221 -0.1334  0.0598
   35CLA    CLA  144   2.282   4.617   1.643  0.3328 -0.0810  0.0134
   36CLA    CLA  145   5.384   3.116   3.733  0.0895 -0.4380 -0.2952
   37CLA    CLA  146   4.268   1.778   3.639  0.2936  0.1756  0.1324
   38CLA    CLA  147   3.178   1.005   0.272  0.1238 -0.1747  0.1708
   39CLA    CLA  148   2.982   5.294   1.891  0.3318  0.1042 -0.0547
   40CLA    CLA  149   0.728   1.918   2.349  0.5075  0.1414 -0.4756
   41CLA    CLA  150   1.942   2.151   4.074  0.0250  0.3442  0.1089
   42CLA    CLA  151   5.081   2.261   0.116 -0.3447  0.2227  0.0310
   43CLA    CLA  152   6.178   4.673   0.770  0.1322  0.2060  0.0722
   44CLA    CLA  153   1.127   5.215   1.475  0.2304 -0.0455  0.0045
   45CLA    CLA  154   3.930   3.544   0.798 -0.0659  0.3580 -0.2650
   46CLA    CLA  155   6.235   4.813   2.258 -0.0654  0.5647  0.5809
   47CLA    CLA  156   3.987   2.771   1.636  0.3617 -0.3836  0.0377
   48CLA    CLA  157   3.103   3.971   2.520  0.2066 -0.3370  0.2696
   49CLA    CLA  158   0.156   1.039   4.905  0.1229 -0.3870 -0.1016
   50CLA    CLA  159   2.309   5.611   3.061 -0.0944 -0.7398  0.0366
   51CLA    CLA  160   1.890   1.124   3.993  0.1091 -0.3271  0.4676
   52TIP3   OH2  161   5.510   4.833   1.536 -0.0577  0.4682 -0.3564
   52TIP3    H1  162   5.566   4.781   1.478 -0.3103 -0.1517 -0.0535
   52TIP3    H2  163   5.486   4.773   1.606  0.4388  1.2895  0.5270
   53TIP3   OH2  164   0.625   2.263   4.334  0.2850  0.6083  0.1993
   53TIP3    H1  165   0.552   2.233   4.279 -0.9509  1.2564  1.4167
   53TIP3    H2  166   0.666   2.333   4.283  0.8524 -0.5684 -1.0284
   54TIP3   OH2  167   6.068   2.421   2.157  1.0013  0.4712  0.0321
   54TIP3    H1  168   6.055   2.508   2.118 -0.5019  0.2286 -0.0675
   54TIP3    H2  169   6.094   2.366   2.083  1.2680  0.6745 -0.0306
   55TIP3   OH2  170   5.070   0.807  -0.006  0.2196  0.0721 -0.4062
   55TIP3    H1  171   5.154   0.773   0.026  0.1163  0.1104 -0.0939
   55TIP3    H2  172   5.004   0.768   0.051  0.1326  1.0800  0.2067
   56TIP3   OH2  173   0.304   4.693   4.545  0.2250 -0.3687  0.1569
   56TIP3    H1  174   0.248   4.705   4.469 -0.5752 -0.7643  0.6738
   56TIP3    H2  175   0.247   4.709   4.621  1.8097  3.7899  0.7453
   57TIP3   OH2  176   1.884   4.129   3.279 -0.2808 -0.0431  0.2635
   57TIP3    H1  177   1.789   4.126   3.292 -0.4883  0.9011 -0.8366
   57TIP3    H2  178   1.895   4.172   3.193  1.0877 -1.5459 -0.3601
   58TIP3   OH2  179   5.723   5.507   0.456  0.3122  0.2170 -0.0499
   58TIP3    H1  180   5.709   5.426   0.505  1.8835 -0.9097 -1.3768
   58TIP3    H2  181   5.638   5.552   0.459 -0.3042 -0.9702  1.5620
   59TIP3   OH2  182   0.460   4.810   4.288 -0.1735 -0.1210 -0.1759
   59TIP3    H1  183   0.548   4.771   4.287 -0.3812 -0.6390  1.0906
   59TIP3    H2  184   0.408   4.752   4.232  0.3624  0.4257 -1.2850
   60TIP3   OH2  185   3.773   3.297   2.662  0.9487 -0.5745  0.1852
   60TIP3    H1  186   3.791   3.387   2.635  0.1380 -0.1375  1.0582
   60TIP3    H2  187   3.694   3.303   2.716  0.8964 -1.8056  0.2715
   61TIP3   OH2  188   4.353   2.197   2.991  0.4255 -1.0489  0.6753
   61TIP3    H1  189   4.437   2.156   2.971  0.3178 -1.0740  0.2633
   61TIP3    H2  190   4.343   2.186   3.085  1.8200  0.6925  1.0872
   62TIP3   OH2  191   2.184   4.322   1.206 -0.0799 -0.1118  0.4536
   62TIP3    H1  192   2.143   4.261   1.268  1.3102 -2.1860 -0.5595
   62TIP3    H2  193   2.174   4.280   1.121  1.5168  0.7608 -0.2059
   63TIP3   OH2  194   5.997   5.540   0.425  0.0286 -0.0044  0.2021
   63TIP3    H1  195   5.969   5.562   0.336  0.8604 -1.9389 -0.5958
   63TIP3    H2  196   5.915   5.524   0.472 -0.3953  0.5005 -0.3501
   64TIP3   OH2  197   3.489   4.150   3.569  0.4810 -0.0614 -0.1538
   64TIP3    H1  198   3.484   4.064   3.611  0.1854  1.0515  2.2766
   64TIP3    H2  199   3.399   4.181   3.566  0.6097  0.2645 -0.7929
   65TIP3   OH2  200   3.082   1.948   2.168  0.0414 -0.0388 -0.0747
   65TIP3    H1  201   3.067   2.025   2.223  0.9546 -1.3033  2.0764
   65TIP3    H2  202   3.177   1.941   2.162  0.0141 -1.6411  0.8028
   66TIP3   OH2  203   5.701   3.268   5.180  0.0283  0.3812  0.0066
   66TIP3    H1  204   5.686   3.361   5.165 -0.2425  0.4580  0.7376
   66TIP3    H2  205   5.640   3.225   5.120 -1.8762  0.6961  1.6336
   67TIP3   OH2  206   3.785   0.279   2.878 -0.0861  0.3108  0.1236
   67TIP3    H1  207   3.839   0.314   2.808  0.5921 -1.0250 -0.0440
   67TIP3    H2  208   3.715   0.344   2.889  1.2095  1.7794 -0.0379
   68TIP3   OH2  209   1.619   4.426   2.629  0.5383 -0.2198  0.6446
   68TIP3    H1  210   1.592   4.353   2.684  0.6569  0.3918  1.5382
   68TIP3    H2  211   1.678   4.478   2.685 -1.5719  1.9852  0.9835
   69TIP3   OH2  212   4.454   3.344   2.796 -0.3066 -0.2421  0.3273
   69TIP3    H1  213   4.512   3.269   2.807 -1.5891 -1.3489 -0.2458
   69TIP3    H2  214   4.396   3.320   2.724  0.1642  1.9064 -0.8734
   70TIP3   OH2  215   5.704   5.596   3.080  0.4383 -0.1040 -0.5033
   70TIP3    H1  216   5.747   5.512   3.064  0.6743 -0.3100  1.0543
   70TIP3    H2  217   5.659   5.616   2.997 -0.1550 -2.0657 -0.7080
   71TIP3   OH2  218   4.278   2.711   2.572 -0.1466 -0.2661  0.5702
   71TIP3    H1  219   4.347   2.773   2.548 -2.2153  0.9298 -3.2061
   71TIP3    H2  220   4.227   2.757   2.639  0.2801  0.7239  0.2458
   72TIP3   OH2  221   3.210   5.696   1.633  0.0942  0.4429  0.2101
   72TIP3    H1  222   3.224   5.655   1.719  2.3792  0.9621  0.1566
   72TIP3    H2  223   3.134   5.752   1.646 -1.0900 -1.2873  1.1897
   73TIP3   OH2  224   3.785   5.450   4.778 -0.2005  0.3428  0.0202
   73TIP3    H1  225   3.836   5.369   4.773  0.3798  0.7392 -0.7503
   73TIP3    H2  226   3.706   5.426   4.826 -0.0775 -0.6940 -0.2787
   74TIP3   OH2  227   0.950   2.212   0.926  0.2578 -0.1132 -0.1666
   74TIP3    H1  228   0.933   2.305   0.906  0.8185  0.4726  1.8819
   74TIP3    H2  229   0.961   2.171   0.840  0.5845  1.8257 -1.1074
   75TIP3   OH2  230   0.482   5.316   3.495  0.1431  0.3644  0.5908
   75TIP3    H1  231   0.393   5.340   3.522  0.3908  0.4754  1.3234
   75TIP3    H2  232   0.537   5.340   3.570  0.7199 -0.2039  0.3556
   76TIP3   OH2  233   0.295   5.632   4.992 -0.4050 -0.1711  0.0604
   76TIP3    H1  234   0.285   5.693   4.919 -2.1890  0.2227  0.6051
   76TIP3    H2  235   0.329   5.686   5.064 -1.2930  0.0468  0.3268
   77TIP3   OH2  236   4.507   0.489   4.385 -0.2577 -0.1428  0.1026
   77TIP3    H1  237   4.597   0.503   4.354 -0.5749  1.4097 -0.1887
   77TIP3    H2  238   4.454   0.488   4.306 -0.5402 -0.7981  0.2946
   78TIP3   OH2  239   1.764   4.675   4.615 -0.3924  0.3976 -0.0689
   78TIP3    H1  240   1.735   4.592   4.652  0.1885  0.0599 -0.3648
   78TIP3    H2  241   1.782   4.656   4.523 -0.9293  1.0163 -0.3135
   79TIP3   OH2  242   4.872   3.372   0.242  0.0651  0.2067  0.0454
   79TIP3    H1  243   4.906   3.282   0.239 -1.2579 -0.4524  2.2738
   79TIP3    H2  244   4.946   3.423   0.276  1.5905  0.4947 -3.3252
   80TIP3   OH2  245   0.582   3.046   1.776 -0.3043  0.2426  0.4453
   80TIP3    H1  246   0.563   3.127   1.728 -2.7253 -0.2364  0.4485
   80TIP3    H2  247   0.528   2.980   1.733 -1.0534 -0.6088  2.5552
   81TIP3   OH2  248   2.705   5.536   3.509 -0.1859 -0.0662 -0.1063
   81TIP3    H1  249   2.677   5.526   3.418 -0.0146  0.5807 -0.2341
   81TIP3    H2  250   2.782   5.478   3.517 -0.7934 -0.8903 -0.0896
   82TIP3   OH2  251   0.630   3.695   3.317  0.1780  0.1115 -0.4131
   82TIP3    H1  252   0.632   3.667   3.226  0.3770 -0.6703 -0.1714
   82TIP3    H2  253   0.715   3.670   3.352  0.1180  0.4421 -0.0189
   83TIP3   OH2  254   0.900   5.933   4.303  0.2967 -0.0426  0.9110
   83TIP3    H1  255   0.820   5.976   4.273 -0.2041 -1.5791 -0.0778
   83TIP3    H2  256   0.916   5.970   4.390 -1.3987  0.4214  1.0622
   84TIP3   OH2  257   5.128   4.934   3.826 -0.4058 -0.8134  0.3788
   84TIP3    H1  258   5.172   4.961   3.907 -0.1571 -2.3347  0.7657
   84TIP3    H2  259   5.193   4.882   3.779 -0.2460  0.7436 -1.2373
   85TIP3   OH2  260   1.474   5.805   1.858  0.3110 -0.2507  0.3505
   85TIP3    H1  261   1.447   5.728   1.808 -1.0811  0.2962  0.2194
   85TIP3    H2  262   1.561   5.782   1.891  1.1071 -0.8358 -1.8958
   86TIP3   OH2  263   3.472   0.523   1.895  0.0257  0.1131  0.0333
   86TIP3    H1  264   3.505   0.573   1.969  0.5933 -0.1620 -0.0281
   86TIP3    H2  265   3.549   0.481   1.858 -0.4589 -0.9569  0.1917
   87TIP3   OH2  266   6.106   0.266   0.829  0.0634 -0.3043 -0.4351
   87TIP3    H1  267   6.088   0.181   0.788 -1.6252  0.4387 -1.3392
   87TIP3    H2  268   6.041   0.273   0.899  1.9712 -0.9110  1.5006
   88TIP3   OH2  269   4.681   4.202   0.794 -0.2494  0.3673  0.4038
   88TIP3    H1  270   4.674   4.136   0.725  5.5332  2.1295 -2.5192
   88TIP3    H2  271   4.700   4.150   0.873 -0.0385 -1.6385 -0.8710
   89TIP3   OH2  272   4.282   1.766   0.977  0.1945 -0.3709 -0.1763
   89TIP3    H1  273   4.244   1.727   1.056 -0.3797 -0.3814 -0.4487
   89TIP3    H2  274   4.219   1.744   0.908  0.1992  0.4680 -0.4561
   90TIP3   OH2  275   5.750   0.182   1.304  0.1226  0.2526 -0.3465
   90TIP3    H1  276   5.738   0.157   1.213 -1.4991  1.8088 -0.6159
   90TIP3    H2  277   5.692   0.123   1.353  0.7182 -0.3405 -0.3420
   91TIP3   OH2  278   0.182   5.847   1.388  0.2365 -0.4397 -0.4225
   91TIP3    H1  279   0.235   5.886   1.457  0.1232 -1.6647  0.3897
   91TIP3    H2  280   0.093   5.879   1.405  0.2596 -0.5149 -0.1484
   92TIP3   OH2  281   5.429   4.097   1.232  0.0474 -0.4853 -0.0941
   92TIP3    H1  282   5.402   4.188   1.224 -0.0680 -0.3376  1.6394
   92TIP3    H2  283   5.493   4.084   1.162  0.4486  1.0682 -0.0346
   93TIP3   OH2  284   0.429   1.283   3.818 -0.5849 -0.4915 -0.0687
   93TIP3    H1  285   0.425   1.289   3.723 -0.6835 -0.5041 -0.0647
   93TIP3    H2  286   0.343   1.313   3.849  0.0265  1.2275  0.0997
   94TIP3   OH2  287   1.551   1.014   1.842 -0.0278  0.1492 -0.1506
   94TIP3    H1  288   1.574   1.083   1.904 -1.1123  1.2181 -0.8837
   94TIP3    H2  289   1.456   1.006   1.850  0.0088 -0.8638 -0.5176
   95TIP3   OH2  290   1.283   4.293   1.140 -0.1348  0.4237  0.7555
   95TIP3    H1  291   1.207   4.304   1.196 -0.3669  1.7916  0.2085
   95TIP3    H2  292   1.344   4.361   1.169  0.7698 -0.4587  0.9882
   96TIP3   OH2  293   2.697   4.853   4.666 -0.2113 -0.0621  0.6947
   96TIP3    H1  294   2.701   4.941   4.704 -1.9235 -0.2146  1.3197
   96TIP3    H2  295   2.717   4.794   4.739  2.6784 -0.2170 -0.0908
   97TIP3   OH2  296   1.517   1.608   2.114 -0.3530 -0.2171  0.1910
   97TIP3    H1  297   1.476   1.561   2.187 -1.0828  2.4919  1.7051
   97TIP3    H2  298   1.541   1.693   2.152  0.5535  0.7797 -2.4124
   98TIP3   OH2  299   4.526   2.835   2.104  0.2667 -0.6302 -0.0390
   98TIP3    H1  300   4.525   2.930   2.103 -0.2536 -0.4969  3.0237
   98TIP3    H2  301   4.511   2.809   2.013  2.0695  2.1546 -1.2472
   99TIP3   OH2  302   4.064   1.584   1.516  0.5728 -0.2863  0.1781
   99TIP3    H1  303   3.997   1.616   1.576  0.4232 -0.4808  0.1139
   99TIP3    H2  304   4.016   1.554   1.439  0.8036  0.5815 -0.3287
  100TIP3   OH2  305   1.523   4.053   0.294  0.6661  0.5454  0.6121
  100TIP3    H1  306   1.585   4.094   0.233  1.4070  1.0854  1.6976
  100TIP3    H2  307   1.538   4.099   0.377 -0.4546 -0.0479  1.1553
  101TIP3   OH2  308   6.266   2.367   2.865  0.2109  0.5324 -0.3041
  101TIP3    H1  309   6.233   2.278   2.854 -0.1475  0.7233 -0.8787
  101TIP3    H2  310   6.215   2.402   2.938  0.7711  0.0757  0.3067
  102TIP3   OH2  311   3.495   5.348   4.134 -0.1745  0.1818 -0.0678
  102TIP3    H1  312   3.556   5.282   4.100 -1.2561 -0.1293 -1.4965
  102TIP3    H2  313   3.540   5.432   4.118  0.3540 -0.0966 -0.0759
  103TIP3   OH2  314   0.408   0.228   3.972 -0.0849 -0.4202  0.5635
  103TIP3    H1  315   0.353   0.203   3.898 -0.5360  1.3276  0.2852
  103TIP3    H2  316   0.347   0.252   4.041  0.3121  1.0074  0.4377
  104TIP3   OH2  317   3.770   2.322   5.064 -0.6011  0.1190  0.3909
  104TIP3    H1  318   3.772   2.373   5.145 -2.4098 -0.1136  0.6320
  104TIP3    H2  319   3.844   2.262   5.070  0.8656  1.8805  0.6458
  105TIP3   OH2  320   2.545   4.749   2.579  0.3340  0.4543 -0.0546
  105TIP3    H1  321   2.481   4.690   2.619  0.0684  0.5100 -0.3937
  105TIP3    H2  322   2.543   4.727   2.486 -0.7490  1.9166 -0.3981
  106TIP3   OH2  323   5.323   4.153   2.618  0.2500  0.4175  0.6768
  106TIP3    H1  324   5.245   4.196   2.583  0.2250 -0.2014 -0.0670
  106TIP3    H2  325   5.306   4.142   2.711 -1.0217 -0.6694  0.3459
  107TIP3   OH2  326   1.014   1.547   4.348 -0.1854 -0.2699  0.1300
  107TIP3    H1  327   0.989   1.638   4.361  2.5858  0.5036  0.7321
  107TIP3    H2  328   1.005   1.507   4.435 -0.9778 -0.4746 -0.0395
  108TIP3   OH2  329   3.051   1.596  -0.016  0.8470 -0.3641  0.4212
  108TIP3    H1  330   3.003   1.527   0.030  1.2450 -0.3641  0.8487
  108TIP3    H2  331   3.026   1.677   0.028  0.0948 -0.1803 -0.3194
  109TIP3   OH2  332   5.988   0.548   2.511  0.5850 -0.4280  0.8618
  109TIP3    H1  333   5.935   0.585   2.441 -1.3452 -0.5856  2.1646
  109TIP3    H2  334   5.991   0.454   2.492  0.2930 -0.4347  0.8493
  110TIP3   OH2  335   1.326   3.803   3.706 -0.2122  0.4392  0.1342
  110TIP3    H1  336   1.343   3.868   3.637 -1.8528  0.5987 -0.1814
  110TIP3    H2  337   1.347   3.849   3.787  1.0058  0.5175 -0.2169
  111TIP3   OH2  338   4.393   4.396   2.103 -0.4739  0.1944  1.2758
  111TIP3    H1  339   4.420   4.461   2.037  2.0471 -0.1203  1.9108
  111TIP3    H2  340   4.373   4.448   2.181  0.0891  0.3165  1.3405
  112TIP3   OH2  341   3.620   4.199   3.319  0.3174 -0.1307 -0.0767
  112TIP3    H1  342   3.561   4.267   3.351  1.5658  0.9763 -0.0318
  112TIP3    H2  343   3.640   4.146   3.395  1.1543  0.8713  0.4296
  113TIP3   OH2  344   3.382   0.872   2.186 -0.0878 -0.1971  0.0791
  113TIP3    H1  345   3.452   0.851   2.123 -0.4316  3.5139 -1.8493
  113TIP3    H2  346   3.428   0.891   2.268  0.8410 -0.6732 -0.3208
  114TIP3   OH2  347   1.487   4.803   2.418  0.1432 -0.5434 -0.1865
  114TIP3    H1  348   1.520   4.866   2.483 -2.2753  0.6356 -0.0147
  114TIP3    H2  349   1.553   4.804   2.349  1.6995 -0.1786  1.2274
  115TIP3   OH2  350   5.136   5.305   0.122  0.1645  0.6026 -1.1844
  115TIP3    H1  351   5.194   5.365   0.169  0.8568 -0.8736 -0.0558
  115TIP3    H2  352   5.051   5.314   0.165  0.5862 -0.1284 -0.1696
  116TIP3   OH2  353   0.187   1.131   3.391 -0.0814  0.4462 -1.0485
  116TIP3    H1  354   0.092   1.121   3.395 -0.5346  0.7203 -5.6861
  116TIP3    H2  355   0.216   1.063   3.330  2.2345  2.1890 -2.0663
  117TIP3   OH2  356   6.003   3.444   3.113  0.0611  0.1434  0.4086
  117TIP3    H1  357   5.959   3.508   3.056  1.6557 -0.3744 -1.4939
  117TIP3    H2  358   6.086   3.486   3.136  0.0361 -0.2435  1.2401
  118TIP3   OH2  359   4.526   3.434   4.595 -0.6833  0.1719 -0.9460
  118TIP3    H1  360   4.506   3.393   4.679 -0.0338 -1.0070 -1.3394
  118TIP3    H2  361   4.452   3.411   4.539  0.1507 -1.4197 -1.4657
  119TIP3   OH2  362   5.444   0.816   1.064 -0.0305 -0.4051  0.7672
  119TIP3    H1  363   5.457   0.906   1.033  2.3873 -0.6084  0.9841
  119TIP3    H2  364   5.352   0.813   1.089 -1.1220  0.9741 -2.4555
  120TIP3   OH2  365   5.640   1.245   2.903 -0.0743 -0.1981  0.1246
  120TIP3    H1  366   5.577   1.226   2.972 -0.9627 -0.5217 -0.7548
  120TIP3    H2  367   5.587   1.276   2.829  0.7977 -0.3538 -0.5885
  121TIP3   OH2  368   1.048   5.478   4.269  0.6585  0.3248 -0.1711
  121TIP3    H1  369   1.067   5.457   4.361  0.4623  1.1349  0.0692
  121TIP3    H2  370   0.986   5.551   4.275  0.5352  0.2845 -0.9538
  122TIP3   OH2  371   3.135   0.912   2.101  0.3659  0.3428  0.1039
  122TIP3    H1  372   3.217   0.865   2.087 -0.2738 -0.9074  0.4946
  122TIP3    H2  373   3.159   0.984   2.160  2.3214  3.4319 -3.9330
  123TIP3   OH2  374   1.240   5.505   4.757 -0.0588 -0.5541  0.3512
  123TIP3    H1  375   1.290   5.584   4.777  0.7769 -0.8224 -0.5731
  123TIP3    H2  376   1.160   5.514   4.808  0.0207  0.8868  0.2785
  124TIP3   OH2  377   4.625   3.625   4.879 -0.0067 -0.5771 -0.0252
  124TIP3    H1  378   4.614   3.551   4.818 -0.5073 -0.3793 -0.1763
  124TIP3    H2  379   4.654   3.584   4.960  2.1493 -0.7183 -0.8065
  125TIP3   OH2  380   1.228   0.342   2.550  0.1994 -0.2560  0.5955
  125TIP3    H1  381   1.172   0.420   2.544  1.5995  0.7925  0.5087
  125TIP3    H2  382   1.276   0.341   2.468 -0.2151 -1.5793  0.3482
  126TIP3   OH2  383   5.080   2.288   4.302  0.5214 -0.3743  0.2606
  126TIP3    H1  384   5.080   2.383   4.285 -1.1491 -0.3607  0.1539
  126TIP3    H2  385   5.071   2.249   4.215 -3.3651 -0.4432  0.5483
  127TIP3   OH2  386   1.266   5.086   3.244 -0.1900 -0.1159 -0.7649
  127TIP3    H1  387   1.188   5.135   3.217 -0.3388 -0.3849 -0.8327
  127TIP3    H2  388   1.339   5.134   3.208 -0.3400  0.0181 -0.8922
  128TIP3   OH2  389   6.040   0.575   3.914  0.3736  0.2601 -0.6145
  128TIP3    H1  390   5.968   0.559   3.975 -0.1266  2.9510 -0.3951
  128TIP3    H2  391   6.012   0.533   3.832 -1.1106  0.6302 -0.3236
  129TIP3   OH2  392   2.088   0.154   2.778  0.3426  0.0003  0.0493
  129TIP3    H1  393   2.163   0.129   2.724  1.7509  0.5437  1.6749
  129TIP3    H2  394   2.056   0.235   2.739  0.7541 -0.0974 -0.5019
  130TIP3   OH2  395   1.453   0.758   1.982  0.1577  0.1929 -0.4101
  130TIP3    H1  396   1.403   0.683   1.949  0.8395 -0.6091  0.3364
  130TIP3    H2  397   1.422   0.832   1.930 -1.4351 -0.3702 -0.3138
  131TIP3   OH2  398   1.764   4.058   4.304 -0.1912 -0.3153 -0.0963
  131TIP3    H1  399   1.792   3.988   4.245  1.9385  0.3120  0.0679
  131TIP3    H2  400   1.820   4.048   4.381 -0.4008  1.0768  0.2656
  132TIP3   OH2  401   2.290   2.470   1.715 -0.0580  0.3475 -0.2223
  132TIP3    H1  402   2.307   2.506   1.628  0.4616  1.1506  0.2068
  132TIP3    H2  403   2.276   2.546   1.771 -0.3582 -0.1613  0.4123
  133TIP3   OH2  404   0.867   0.302   2.041  0.2982  0.0411  0.0066
  133TIP3    H1  405   0.874   0.319   2.135  0.0879 -1.5415  0.3434
  133TIP3    H2  406   0.894   0.211   2.032 -2.3761 -0.7540 -1.0521
  134TIP3   OH2  407   3.224   0.338   0.139 -0.4641  0.1746  0.1167
  134TIP3    H1  408   3.298   0.294   0.181 -0.9464  0.8175  1.7196
  134TIP3    H2  409   3.160   0.268   0.127  0.8512 -0.6913 -2.5782
  135TIP3   OH2  410   1.847   1.133   3.677 -0.0392 -0.4598 -0.4950
  135TIP3    H1  411   1.893   1.071   3.734  1.4081  0.4627 -0.6179
  135TIP3    H2  412   1.789   1.181   3.735  0.2999 -0.5714 -0.0576
  136TIP3   OH2  413   2.882   0.929   5.156  0.0727  0.2529 -0.4358
  136TIP3    H1  414   2.874   1.024   5.169  1.3734  0.3660 -0.3419
  136TIP3    H2  415   2.967   0.907   5.195 -0.8631 -1.2073  0.8946
  137TIP3   OH2  416   3.595   1.389  -0.010  0.6419 -0.2392  0.3490
  137TIP3    H1  417   3.608   1.411   0.082  0.1014 -2.0179  0.8994
  137TIP3    H2  418   3.505   1.357  -0.015  0.9884 -1.1404 -0.5594
  138TIP3   OH2  419   3.934   3.703   3.479  0.0342  0.2931  0.1323
  138TIP3    H1  420   3.937   3.609   3.497  0.5345  0.5313  1.3403
  138TIP3    H2  421   3.882   3.710   3.398 -0.8299 -0.9372  0.5574
  139TIP3   OH2  422   4.633   5.219   1.231 -0.2541  0.7171  0.1487
  139TIP3    H1  423   4.577   5.278   1.180 -3.1817  0.2978  2.5741
  139TIP3    H2  424   4.623   5.134   1.187 -1.9385  0.5687  0.7304
  140TIP3   OH2  425   3.951   2.938   2.484  0.0652  0.2796  0.5387
  140TIP3    H1  426   4.024   2.992   2.454 -1.8103  1.8302 -1.6342
  140TIP3    H2  427   3.927   2.886   2.407 -1.8205  0.6795  0.8044
  141TIP3   OH2  428   5.611   1.762   0.326 -0.0777  0.3614  0.2161
  141TIP3    H1  429   5.584   1.704   0.254  1.4913  0.1631 -0.2538
  141TIP3    H2  430   5.666   1.708   0.382  0.7934  1.1848  0.1840
  142TIP3   OH2  431   1.285   1.046   1.161 -0.0629  0.3422  0.4331
  142TIP3    H1  432   1.372   1.006   1.169 -0.4836 -1.1232 -1.6615
  142TIP3    H2  433   1.303   1.141   1.159  1.2779  0.1768  1.8648
  143TIP3   OH2  434   3.338   3.417   3.405  0.0870 -0.0218  0.2044
  143TIP3    H1  435   3.430   3.415   3.432  0.4442  1.6901 -0.7149
  143TIP3    H2  436   3.328   3.503   3.364 -1.9394 -0.1878  0.2933
  144TIP3   OH2  437   1.272   0.641   4.032  0.3829  0.3702  0.6460
  144TIP3    H1  438   1.297   0.664   3.943  0.6538  1.0165  0.8832
  144TIP3    H2  439   1.198   0.698   4.052 -0.6343 -0.7882  0.3304
  145TIP3   OH2  440   1.954   1.965   2.899  0.0406  0.2709 -0.5954
  145TIP3    H1  441   1.898   1.907   2.951 -1.1671  0.6868 -1.3692
  145TIP3    H2  442   1.903   2.046   2.892  1.3394  1.1609 -0.2107
  146TIP3   OH2  443   4.852   5.981   1.982 -0.0039  0.2937 -0.0234
  146TIP3    H1  444   4.885   5.894   1.961  0.5751  0.8724 -1.7810
  146TIP3    H2  445   4.908   6.012   2.053 -0.8446 -1.1056  1.2891
  147TIP3   OH2  446   3.908   5.620   3.685 -0.1430  0.7129 -0.0584
  147TIP3    H1  447   3.969   5.546   3.690 -1.1231 -0.0514  1.1494
  147TIP3    H2  448   3.938   5.670   3.609  1.8635  0.2694  0.3695
  148TIP3   OH2  449   3.482   3.355   5.017 -0.6060  0.4532 -0.0449
  148TIP3    H1  450   3.538   3.430   5.000 -0.5000  0.6007  0.9239
  148TIP3    H2  451   3.394   3.392   5.026 -1.1282  0.1047 -2.7611
  149TIP3   OH2  452   5.204   2.031   2.762  0.6885 -0.2469 -0.5162
  149TIP3    H1  453   5.226   1.938   2.770 -0.1550 -0.4313 -0.1372
  149TIP3    H2  454   5.119   2.039   2.806  1.9749  1.2145  1.9576
  150TIP3   OH2  455   5.824   4.315   2.191 -0.2419  0.1247  0.1739
  150TIP3    H1  456   5.883   4.349   2.123  1.1185  1.5945  1.9784
  150TIP3    H2  457   5.822   4.221   2.177  1.3591  0.2117 -0.8818
  151TIP3   OH2  458   5.632   2.339   1.636  0.6184 -0.3344  0.0250
  151TIP3    H1  459   5.618   2.406   1.569  3.5759 -1.4132 -1.8436
  151TIP3    H2  460   5.595   2.259   1.598  1.7525 -0.8258 -0.0706
  152TIP3   OH2  461   4.816   0.982   4.401 -0.3440 -0.4124  0.3055
  152TIP3    H1  462   4.745   1.034   4.362  0.2526  1.8780  2.0174
  152TIP3    H2  463   4.808   0.896   4.361 -1.0973  1.0965 -3.1329
  153TIP3   OH2  464   1.988   3.725   3.064  0.2039 -0.4785  0.0266
  153TIP3    H1  465   1.903   3.726   3.108  0.7366  3.0138  1.2363
  153TIP3    H2  466   2.043   3.783   3.116  2.3735 -0.0323 -2.5576
  154TIP3   OH2  467   2.823   5.570   4.374 -0.7105 -0.0442  0.9426
  154TIP3    H1  468   2.790   5.642   4.428  0.6754  1.1170  0.3089
  154TIP3    H2  469   2.915   5.561   4.399  0.1687  0.9526 -1.5743
  155TIP3   OH2  470   0.163   3.399   0.653 -0.5625 -0.3062  0.2719
  155TIP3    H1  471   0.178   3.411   0.559  2.1088  1.1069  0.7941
  155TIP3    H2  472   0.101   3.468   0.677  0.3009  0.6298 -0.1246
  156TIP3   OH2  473   2.541   4.540   1.487 -0.0773 -0.3686 -0.0688
  156TIP3    H1  474   2.458   4.581   1.512 -0.2816  0.1355 -1.5223
  156TIP3    H2  475   2.517   4.474   1.422  0.6111 -0.5846 -0.1119
  157TIP3   OH2  476   4.690   4.373   2.615 -0.1646 -0.3753  0.0498
  157TIP3    H1  477   4.768   4.317   2.614  0.1354  0.0313  0.3006
  157TIP3    H2  478   4.654   4.365   2.526 -0.8582 -1.9651  0.4467
  158TIP3   OH2  479   1.990   0.940   0.468  0.3214  0.2489 -0.1755
  158TIP3    H1  480   1.970   0.968   0.378  1.0371 -0.1303 -0.4640
  158TIP3    H2  481   1.935   0.863   0.482  1.8587 -1.1008 -1.1456
  159TIP3   OH2  482   5.259   0.183   4.624 -0.3292 -0.1183 -0.4217
  159TIP3    H1  483   5.233   0.268   4.589  0.6905 -0.3303 -1.7682
  159TIP3    H2  484   5.338   0.200   4.675 -0.9758 -0.0441  0.5843
  160TIP3   OH2  485   0.693   4.441   0.517 -0.1629 -0.5702  0.1020
  160TIP3    H1  486   0.681   4.361   0.570 -0.5159 -1.6501 -1.5386
  160TIP3    H2  487   0.739   4.410   0.438  2.4379  1.3712  0.7147
  161TIP3   OH2  488   0.842   2.813   0.235  0.2635  0.4188 -0.2812
  161TIP3    H1  489   0.757   2.843   0.267  0.3049  0.6757 -0.4102
  161TIP3    H2  490   0.899   2.817   0.312 -0.1967 -1.1917  0.1813
  162TIP3   OH2  491   2.889   0.243   0.864  0.4164 -0.2422  0.8851
  162TIP3    H1  492   2.925   0.174   0.921  0.3365  0.7882  2.2470
  162TIP3    H2  493   2.802   0.213   0.841  0.3843 -0.6103  1.4682
  163TIP3   OH2  494   3.911   2.434   4.211  0.3314 -0.4966  0.7115
  163TIP3    H1  495   3.860   2.515   4.213  0.0811 -0.6522  1.9398
  163TIP3    H2  496   3.932   2.418   4.303  1.4647 -1.1507  0.3536
  164TIP3   OH2  497   0.071   2.968   3.773 -0.3009 -0.2392  0.3614
  164TIP3    H1  498   0.105   2.881   3.794 -1.4632 -0.4262  1.5713
  164TIP3    H2  499   0.084   2.977   3.678  4.0682  0.1563  0.7891
  165TIP3   OH2  500   1.287   3.676   2.092  0.3948  0.4896 -0.3050
  165TIP3    H1  501   1.251   3.606   2.038  1.9030  0.4042 -1.2553
  165TIP3    H2  502   1.368   3.639   2.128 -0.0315  0.9199  1.1725
  166TIP3   OH2  503   1.708   5.164   3.713  0.0037 -0.6136  0.3769
  166TIP3    H1  504   1.804   5.166   3.720  0.0802 -0.4092 -0.5581
  166TIP3    H2  505   1.691   5.190   3.623 -1.0669  1.9439  1.2460
  167TIP3   OH2  506   0.200   2.708   0.313  0.0497  0.0625  0.0789
  167TIP3    H1  507   0.135   2.639   0.325  0.0730 -0.1734 -1.0368
  167TIP3    H2  508   0.275   2.663   0.272  0.6055  0.4914  0.5965
  168TIP3   OH2  509   2.609   4.028   3.059 -0.0136 -0.2137  0.0699
  168TIP3    H1  510   2.582   3.943   3.025  0.1863 -0.2944  0.1136
  168TIP3    H2  511   2.689   4.010   3.108 -0.6414 -0.2045  1.1344
  169TIP3   OH2  512   1.344   5.197   0.392 -0.2768 -0.1013  0.1753
  169TIP3    H1  513   1.427   5.160   0.361 -0.3707 -1.4049  1.3531
  169TIP3    H2  514   1.293   5.212   0.313  0.6938 -0.2340 -0.5016
  170TIP3   OH2  515   3.770   2.257   0.046 -0.3394  0.7945 -0.2267
  170TIP3    H1  516   3.774   2.311  -0.033 -0.7472  1.3976  0.1460
  170TIP3    H2  517   3.684   2.278   0.084 -1.0857 -1.1284 -0.7603
  171TIP3   OH2  518   6.010   4.864   0.585 -0.5716 -0.3218  0.9072
  171TIP3    H1  519   5.932   4.816   0.555 -0.4707  0.5638 -0.8721
  171TIP3    H2  520   6.056   4.801   0.640 -0.6806 -2.1744 -0.9715
  172TIP3   OH2  521   1.481   5.754   4.747 -0.2403  0.2410  0.2939
  172TIP3    H1  522   1.506   5.758   4.655 -1.2482  1.1240  0.0455
  172TIP3    H2  523   1.558   5.717   4.791  0.0013 -0.8368 -0.9786
  173TIP3   OH2  524   2.978   3.723   3.679  0.1311 -0.0314  0.1310
  173TIP3    H1  525   3.035   3.769   3.740  0.5547  1.1092 -1.0631
  173TIP3    H2  526   3.035   3.697   3.607 -0.8303  1.1809 -1.1207
  174TIP3   OH2  527   0.529   4.165   3.646  0.2074 -0.0216  0.0294
  174TIP3    H1  528   0.492   4.077   3.641 -0.1953  0.2043 -2.0649
  174TIP3    H2  529   0.605   4.163   3.588  1.5286  0.4589  1.6584
  175TIP3   OH2  530   0.516   3.730   4.971  0.3282 -0.1798 -0.3321
  175TIP3    H1  531   0.482   3.785   5.042 -1.6480 -1.7684  0.0287
  175TIP3    H2  532   0.510   3.786   4.893 -2.5496 -0.0929 -0.1505
  176TIP3   OH2  533   3.675   0.634   3.215  0.0690 -0.1102 -0.2504
  176TIP3    H1  534   3.694   0.672   3.301 -0.3316 -0.7048  0.1057
  176TIP3    H2  535   3.589   0.594   3.225 -0.1414  0.1447 -1.0432
  177TIP3   OH2  536   0.970   2.661   1.221  0.2758 -0.4594  0.4620
  177TIP3    H1  537   1.006   2.739   1.263  1.7531 -0.9352  0.1466
  177TIP3    H2  538   1.016   2.655   1.137 -1.7885 -0.1718 -0.7695
  178TIP3   OH2  539   0.774   1.292   0.996  0.2108 -0.2660 -0.0426
  178TIP3    H1  540   0.692   1.275   0.950  0.2528 -1.6536  0.3405
  178TIP3    H2  541   0.838   1.238   0.950  0.3055 -1.4772  1.4458
  179TIP3   OH2  542   0.714   1.857   0.416 -0.1808  0.1097 -0.3382
  179TIP3    H1  543   0.703   1.898   0.330  0.0649  2.2077  0.5519
  179TIP3    H2  544   0.731   1.931   0.475  0.4136 -1.3374  1.3874
  180TIP3   OH2  545   1.491   5.090   3.472  0.2605  0.1276  0.3496
  180TIP3    H1  546   1.411   5.114   3.425  0.6698 -0.9254 -0.9532
  180TIP3    H2  547   1.473   5.002   3.506  0.0516  0.7828  2.0665
  181TIP3   OH2  548   6.340   0.005   0.727  0.3149 -0.1788  0.2603
  181TIP3    H1  549   6.394  -0.046   0.787 -0.5494 -0.6417  0.6629
  181TIP3    H2  550   6.320   0.085   0.774  2.3002  0.9420 -0.6531
  182TIP3   OH2  551   0.723   5.182   3.751 -0.2337 -0.1177  0.1823
  182TIP3    H1  552   0.815   5.197   3.769 -0.2876 -0.7446  1.0573
  182TIP3    H2  553   0.711   5.208   3.660  1.4784 -2.8401 -0.9324
  183TIP3   OH2  554   4.749   3.267   0.565 -0.1636 -0.1322  0.2522
  183TIP3    H1  555   4.702   3.191   0.532  0.3459 -0.7082  0.8290
  183TIP3    H2  556   4.835   3.234   0.591 -0.4785  0.3027  2.0088
  184TIP3   OH2  557   1.082   0.241   0.119 -0.1614  0.0695 -0.1703
  184TIP3    H1  558   1.174   0.236   0.143 -0.4595 -0.3357  0.9277
  184TIP3    H2  559   1.067   0.334   0.100  0.8140 -0.0746 -1.8659
  185TIP3   OH2  560   3.897   3.271   2.309  0.3862  0.6578  0.0954
  185TIP3    H1  561   3.916   3.222   2.229  0.4363 -0.5059  0.7940
  185TIP3    H2  562   3.849   3.348   2.279 -1.4314 -0.7862 -0.8786
  186TIP3   OH2  563   4.203   3.953   1.994  0.2258  0.6547 -0.6706
  186TIP3    H1  564   4.148   4.032   1.993 -2.1403 -0.8746  0.2388
  186TIP3    H2  565   4.232   3.945   2.084 -2.5867 -1.3767  0.1724
  187TIP3   OH2  566   0.876   2.444   4.551 -0.1177  0.2374 -0.0735
  187TIP3    H1  567   0.935   2.514   4.524 -1.2243  0.9544 -0.7418
  187TIP3    H2  568   0.817   2.486   4.614 -0.6702 -0.1340 -0.3283
  188TIP3   OH2  569   1.720   1.909   3.161  0.2411 -0.9858 -0.4655
  188TIP3    H1  570   1.745   1.892   3.251 -2.9160 -1.9965  0.3354
  188TIP3    H2  571   1.704   1.823   3.123 -2.2046 -0.4746 -0.7432
  189TIP3   OH2  572   6.136   3.513   0.397  0.1085  0.3399 -0.3485
  189TIP3    H1  573   6.146   3.527   0.491  2.0714  0.3475 -0.5354
  189TIP3    H2  574   6.140   3.600   0.358  1.8860  0.1689 -0.6250
  190TIP3   OH2  575   3.185   2.361   3.647  0.0924 -0.3482 -0.2614
  190TIP3    H1  576   3.220   2.437   3.600 -0.4873 -0.2956 -0.6055
  190TIP3    H2  577   3.093   2.381   3.662 -0.1768 -1.1578 -0.7291
  191TIP3   OH2  578   4.970   5.507   4.005  0.1441 -0.2818  0.1402
  191TIP3    H1  579   4.930   5.572   4.063 -0.0281 -1.0896  0.9449
  191TIP3    H2  580   4.910   5.500   3.931 -0.4128 -0.3342  0.5901
  192TIP3   OH2  581   1.304   1.715   1.307 -0.7685 -0.4227  0.1140
  192TIP3    H1  582   1.360   1.638   1.315  0.7197  0.4003 -1.6677
  192TIP3    H2  583   1.266   1.708   1.220  1.0283  1.8264 -0.9434
  193TIP3   OH2  584   1.097   4.139   2.510  0.1186  0.2136  0.3963
  193TIP3    H1  585   1.085   4.227   2.546  0.1748  0.9052 -1.1511
  193TIP3    H2  586   1.072   4.148   2.418  1.2207 -1.1244 -0.0740
  194TIP3   OH2  587   2.515   5.880   2.740 -0.1688  0.2450  0.2554
  194TIP3    H1  588   2.544   5.859   2.652  0.9412  1.5504  0.2838
  194TIP3    H2  589   2.592   5.865   2.795 -0.3903  0.9432  0.7659
  195TIP3   OH2  590   5.598   3.895   3.218  0.1408  0.2485  0.1981
  195TIP3    H1  591   5.529   3.859   3.163  0.9934  2.1643 -2.3250
  195TIP3    H2  592   5.679   3.855   3.185  0.7335  1.8791 -0.4278
  196TIP3   OH2  593   4.078   2.508   3.963 -0.2965 -0.4057  0.3042
  196TIP3    H1  594   4.129   2.428   3.951  1.1756  0.5149  0.2753
  196TIP3    H2  595   4.023   2.490   4.040 -0.0746 -1.4733  0.2302
  197TIP3   OH2  596   0.404   5.781   4.207  0.0897  0.0573 -0.0432
  197TIP3    H1  597   0.442   5.849   4.151  1.6012 -0.0918  0.7317
  197TIP3    H2  598   0.435   5.802   4.295 -0.4806 -0.9118  0.4131
  198TIP3   OH2  599   4.936   3.287   1.285  0.1820 -0.0525 -0.2351
  198TIP3    H1  600   5.023   3.256   1.310  1.1471  1.6976 -1.2410
  198TIP3    H2  601   4.909   3.343   1.358  0.8853  1.1658 -0.8858
  199TIP3   OH2  602   0.384   1.818   4.777  0.0207  0.0728  0.5152
  199TIP3    H1  603   0.405   1.899   4.731  1.7146 -0.5933  0.0447
  199TIP3    H2  604   0.359   1.756   4.708 -1.1275  0.1183  0.8576
  200TIP3   OH2  605   3.281   1.222   4.021  0.3771 -0.0023  0.1831
  200TIP3    H1  606   3.240   1.305   3.995  1.6452  1.0090  1.2425
  200TIP3    H2  607   3.330   1.195   3.943  1.8840  1.5346  0.5265
  201TIP3   OH2  608   0.125   2.023   2.248  0.0509  0.0937 -0.2277
  201TIP3    H1  609   0.209   2.067   2.235 -0.3818  0.1740 -3.5138
  201TIP3    H2  610   0.074   2.045   2.170 -2.6396 -0.8693  1.1346
  202TIP3   OH2  611   5.909   2.370   4.751  0.4829 -0.1425  0.1128
  202TIP3    H1  612   5.836   2.385   4.812  0.9956 -0.5818  0.8491
  202TIP3    H2  613   5.954   2.293   4.786 -0.1715 -1.4179 -1.7507
  203TIP3   OH2  614   1.874   1.135   2.682  0.0102 -0.4590  0.3775
  203TIP3    H1  615   1.842   1.183   2.758  0.2809 -1.3005  1.0419
  203TIP3    H2  616   1.799   1.131   2.622 -0.3687 -0.2604  0.8372
  204TIP3   OH2  617   0.991   5.020   4.044 -0.1878  0.4464 -0.0208
  204TIP3    H1  618   1.084   5.044   4.045 -0.1900  0.4516  0.0649
  204TIP3    H2  619   0.965   5.021   4.136 -0.6626  1.9558 -0.1367
  205TIP3   OH2  620   2.831   3.981   3.787 -0.0121 -0.4687 -0.2487
  205TIP3    H1  621   2.783   3.903   3.818 -1.2302  0.8376  1.3067
  205TIP3    H2  622   2.831   3.972   3.692 -3.0202 -0.7979 -0.3108
  206TIP3   OH2  623   5.139   2.065   2.143  0.1698  0.3935  0.4497
  206TIP3    H1  624   5.135   2.131   2.073  0.3613  1.1103  1.1010
  206TIP3    H2  625   5.211   2.008   2.116 -1.2231 -0.7357 -1.1063
  207TIP3   OH2  626   2.274   0.657   3.245 -0.7155  0.2106 -0.0899
  207TIP3    H1  627   2.368   0.654   3.228 -0.5748 -0.5793  0.7210
  207TIP3    H2  628   2.234   0.665   3.159  0.0408 -1.3500 -0.6341
  208TIP3   OH2  629   5.991   0.663   5.024 -0.2669  0.1825 -0.6439
  208TIP3    H1  630   5.927   0.601   4.990 -0.9790  0.0576  0.8533
  208TIP3    H2  631   5.939   0.737   5.055  0.5174  1.2215 -1.7109
  209TIP3   OH2  632   3.600   4.057   4.732 -0.4738  0.1391  0.1591
  209TIP3    H1  633   3.545   4.119   4.686 -1.2283 -0.4971  0.1972
  209TIP3    H2  634   3.618   4.099   4.816  0.3865  1.0189 -0.4450
  210TIP3   OH2  635   2.461   2.129   4.473  1.0152 -0.2434  0.1392
  210TIP3    H1  636   2.400   2.070   4.518 -0.1391  0.0901 -0.9325
  210TIP3    H2  637   2.477   2.200   4.535 -1.1246  0.5839 -0.1618
  211TIP3   OH2  638   6.252   0.177   3.656  0.2720  0.2496  0.4101
  211TIP3    H1  639   6.331   0.177   3.602  0.8161  0.7580  1.1747
  211TIP3    H2  640   6.222   0.086   3.655  0.7944  0.0800 -0.0041
  212TIP3   OH2  641   3.620   3.471   0.787  0.6145 -0.3651  0.3178
  212TIP3    H1  642   3.601   3.525   0.709 -0.0162  1.0989  1.4337
  212TIP3    H2  643   3.715   3.471   0.793  0.6495 -0.0193 -0.1411
  213TIP3   OH2  644   5.320   0.642   2.528 -0.2805 -0.2008 -0.5150
  213TIP3    H1  645   5.230   0.625   2.499 -0.3035 -1.0353  0.0178
  213TIP3    H2  646   5.347   0.561   2.571  0.3622  0.4052  0.2546
  214TIP3   OH2  647   0.289   1.456   1.764 -0.3171  0.6668 -0.3959
  214TIP3    H1  648   0.236   1.526   1.802 -0.4536  1.0751 -1.3091
  214TIP3    H2  649   0.245   1.433   1.682  0.6516  0.7061 -0.9507
  215TIP3   OH2  650   4.678   4.054   1.111 -0.0539  0.0732 -0.1914
  215TIP3    H1  651   4.640   4.005   1.183  1.4834 -0.6074  0.1938
  215TIP3    H2  652   4.636   4.018   1.033 -0.8989  0.0269  0.2775
  216TIP3   OH2  653   6.242   5.912   4.912 -0.6361  0.0418  1.2158
  216TIP3    H1  654   6.326   5.944   4.944 -1.6084  2.3199  1.6633
  216TIP3    H2  655   6.187   5.908   4.991 -2.1179  2.6037  0.4105
  217TIP3   OH2  656   6.298   3.196   3.930 -0.4621  0.6630 -0.2046
  217TIP3    H1  657   6.302   3.202   4.026  0.1658 -1.6900 -0.0297
  217TIP3    H2  658   6.329   3.281   3.900  1.5141  0.7034  1.6748
  218TIP3   OH2  659   6.178   4.709   0.336  0.2529 -0.0120 -0.1033
  218TIP3    H1  660   6.096   4.756   0.323  0.4437  0.2469 -0.4103
  218TIP3    H2  661   6.160   4.620   0.305  0.0579  0.0127 -0.0631
  219TIP3   OH2  662   4.844   1.828   0.451 -0.2450 -0.0404 -0.5019
  219TIP3    H1  663   4.780   1.758   0.438  0.1812 -0.6684  0.6238
  219TIP3    H2  664   4.925   1.782   0.475  0.5190  0.7591 -1.4653
  220TIP3   OH2  665   0.459   4.418   4.857  0.4439 -0.2849  0.0373
  220TIP3    H1  666   0.367   4.441   4.842 -0.2739 -2.6301  0.4589
  220TIP3    H2  667   0.485   4.472   4.931 -0.4962  0.6105 -0.2591
  221TIP3   OH2  668   0.671   5.468   1.452  0.5575 -0.1230  0.1101
  221TIP3    H1  669   0.734   5.538   1.461  1.3328 -0.4900 -1.9322
  221TIP3    H2  670   0.721   5.388   1.465  0.3755 -0.3935 -0.7718
  222TIP3   OH2  671   4.041   2.723   0.484 -0.4095  0.0405  0.0869
  222TIP3    H1  672   4.115   2.664   0.496 -0.8044 -0.0429  2.9053
  222TIP3    H2  673   3.982   2.677   0.425  1.9868  0.4259 -2.8640
  223TIP3   OH2  674   0.309   3.201   0.293 -0.2036  0.0864  0.0913
  223TIP3    H1  675   0.256   3.133   0.252 -1.1874  0.2117  1.0918
  223TIP3    H2  676   0.372   3.153   0.347 -1.1060 -0.0829  1.0565
  224TIP3   OH2  677   4.682   2.122   3.888  0.2042  0.3166 -0.6714
  224TIP3    H1  678   4.763   2.123   3.837  0.3144  1.5695 -0.5022
  224TIP3    H2  679   4.668   2.029   3.908  2.0928  0.1271  0.0668
  225TIP3   OH2  680   4.880   0.522   2.952  0.5504 -0.0341  0.6303
  225TIP3    H1  681   4.838   0.604   2.976  1.6822  1.0891 -1.0663
  225TIP3    H2  682   4.972   0.544   2.937  0.7523 -1.4624 -0.5264
  226TIP3   OH2  683   0.518   4.977   2.292  0.1445 -0.0774 -0.3810
  226TIP3    H1  684   0.432   4.958   2.332  0.3603  0.7203  0.5169
  226TIP3    H2  685   0.542   4.897   2.246  0.1856 -1.3281  1.6999
  227TIP3   OH2  686   5.009   5.294   1.598 -0.1426 -0.0310  0.4010
  227TIP3    H1  687   4.995   5.241   1.519 -0.4311 -0.5584  0.7987
  227TIP3    H2  688   5.046   5.376   1.565  1.6306 -0.9825 -0.1159
  228TIP3   OH2  689   1.003   5.948   4.937  0.0712 -0.5214 -0.1784
  228TIP3    H1  690   0.920   5.903   4.953 -0.0675 -0.5764 -1.0031
  228TIP3    H2  691   1.068   5.878   4.931  0.2918 -0.4482  1.0246
  229TIP3   OH2  692   2.850   5.808   0.456 -0.3830  0.3957 -0.5593
  229TIP3    H1  693   2.799   5.888   0.459  0.9034  1.2238  1.2549
  229TIP3    H2  694   2.885   5.804   0.367 -0.8777  1.5712 -0.8204
  230TIP3   OH2  695   1.958   4.211   5.088 -0.1869 -0.1570  0.2270
  230TIP3    H1  696   2.000   4.138   5.044  0.7773 -0.4830  1.6085
  230TIP3    H2  697   2.022   4.283   5.081 -1.0190  0.5101 -0.9021
  231TIP3   OH2  698   3.592   5.806   1.802 -0.3215 -0.4955 -0.3250
  231TIP3    H1  699   3.569   5.713   1.805  0.8150 -0.8535 -1.6924
  231TIP3    H2  700   3.619   5.821   1.712 -0.9774  1.3086 -0.2670
  232TIP3   OH2  701   2.012   2.352   4.329  0.6134  0.0901 -0.0883
  232TIP3    H1  702   1.993   2.271   4.283  1.9826 -0.8002  0.8028
  232TIP3    H2  703   2.108   2.353   4.335  0.5433  0.9155  1.3646
  233TIP3   OH2  704   3.702   4.123   1.256  0.8760  0.4860  0.0411
  233TIP3    H1  705   3.740   4.105   1.171  0.3882  1.7122 -0.4639
  233TIP3    H2  706   3.638   4.192   1.240 -1.6373 -1.5116  0.8477
  234TIP3   OH2  707   0.310   1.075   3.644 -0.6576  0.1411 -0.2541
  234TIP3    H1  708   0.244   1.110   3.704 -1.0997 -1.6432  0.3656
  234TIP3    H2  709   0.275   1.094   3.557 -1.6104 -0.0644  0.0635
  235TIP3   OH2  710   1.083   4.625   3.467  0.3978 -0.2596  0.2374
  235TIP3    H1  711   1.129   4.639   3.384 -0.2640 -0.0935 -0.1130
  235TIP3    H2  712   1.152   4.607   3.530  1.1588  2.1252  0.1900
  236TIP3   OH2  713   1.254   4.040   4.748  0.5093 -0.5355 -0.2409
  236TIP3    H1  714   1.267   3.985   4.670  0.5559 -1.5399  0.4591
  236TIP3    H2  715   1.211   3.983   4.810 -0.7840  0.6603  0.0068
  237TIP3   OH2  716   3.646   1.540   0.243  0.2690  0.0661  0.2159
  237TIP3    H1  717   3.701   1.619   0.242  1.4800 -0.7658 -0.5333
  237TIP3    H2  718   3.628   1.525   0.336  1.2179  0.4170  0.4683
  238TIP3   OH2  719   5.622   3.897   0.448  0.0720  0.6466  0.1075
  238TIP3    H1  720   5.709   3.936   0.448  0.4697  0.0037 -2.6786
  238TIP3    H2  721   5.637   3.803   0.454 -0.1925  0.3672 -2.4638
  239TIP3   OH2  722   4.490   5.031   4.382 -0.1712 -0.4710  0.1766
  239TIP3    H1  723   4.546   5.053   4.307 -1.1179  0.0369 -0.4140
  239TIP3    H2  724   4.509   5.099   4.447 -0.4170 -0.0248 -0.2057
  240TIP3   OH2  725   0.025   5.695   0.915 -0.6026 -0.4079 -0.0288
  240TIP3    H1  726  -0.033   5.759   0.957  0.1939 -0.0854  0.6186
  240TIP3    H2  727   0.113   5.731   0.929 -0.1856 -1.3752 -0.1369
  241TIP3   OH2  728   0.720   2.445   3.997 -0.6693  0.0049 -0.0907
  241TIP3    H1  729   0.733   2.439   4.092  0.4411 -0.1119 -0.2476
  241TIP3    H2  730   0.726   2.538   3.978 -0.0908 -0.0413 -0.1519
  242TIP3   OH2  731   2.892   5.049   1.125 -0.6844 -0.1720 -0.0281
  242TIP3    H1  732   2.898   5.064   1.031 -0.9872  2.7633  0.3299
  242TIP3    H2  733   2.812   4.997   1.136 -0.7317 -0.4041 -1.3595
  243TIP3   OH2  734   5.690   3.903   2.492  0.8112  0.2785  0.3480
  243TIP3    H1  735   5.664   3.945   2.574  0.8821 -2.4808  1.9009
  243TIP3    H2  736   5.765   3.848   2.515  1.3312 -0.0185 -1.7645
  244TIP3   OH2  737   2.938   1.570   3.251  0.0459 -0.2905  0.2262
  244TIP3    H1  738   2.922   1.477   3.268  0.5302 -0.1368  1.6088
  244TIP3    H2  739   2.996   1.571   3.175  0.0333 -1.1123  0.2007
  245TIP3   OH2  740   5.387   0.778   2.120 -0.7595 -0.5549  0.3888
  245TIP3    H1  741   5.293   0.764   2.108 -0.5473 -1.5137 -0.2334
  245TIP3    H2  742   5.428   0.721   2.056  0.2564 -0.0937  0.6143
  246TIP3   OH2  743   0.145   2.296   2.966  0.1340 -0.0587 -0.6147
  246TIP3    H1  744   0.150   2.334   3.053  1.1581  1.4315 -1.2852
  246TIP3    H2  745   0.051   2.277   2.953 -0.3547  1.8127 -0.0582
  247TIP3   OH2  746   4.749   5.691   5.034 -0.2145  0.2946  0.0574
  247TIP3    H1  747   4.812   5.742   4.983  2.4293 -1.5081  1.2410
  247TIP3    H2  748   4.668   5.694   4.984  1.2224  1.5282 -2.3510
  248TIP3   OH2  749   3.042   5.594   3.455  0.0142 -0.7137 -0.7108
  248TIP3    H1  750   3.017   5.506   3.483  0.6976 -1.1054 -1.3038
  248TIP3    H2  751   2.990   5.652   3.511 -0.5637 -1.4870 -0.4180
  249TIP3   OH2  752   5.283   5.608   4.084  0.1893  0.0688 -0.3573
  249TIP3    H1  753   5.195   5.600   4.123  0.2168  0.1178 -0.2859
  249TIP3    H2  754   5.308   5.699   4.099 -0.1270  0.2999 -1.1868
  250TIP3   OH2  755   3.250   0.379   1.237 -0.1725  0.1192  0.1206
  250TIP3    H1  756   3.286   0.414   1.155 -1.0978  1.9908  0.4507
  250TIP3    H2  757   3.326   0.372   1.295  0.1042  1.4598 -0.0386
  251TIP3   OH2  758   5.230   0.240   0.931 -0.3938 -0.2321  0.6150
  251TIP3    H1  759   5.257   0.314   0.984  0.5164 -0.5108  0.5472
  251TIP3    H2  760   5.135   0.235   0.944 -0.5427  1.2078  0.2649
  252TIP3   OH2  761   1.536   5.036   1.516  0.3454 -0.5802 -0.3197
  252TIP3    H1  762   1.485   5.085   1.580 -0.5848  1.4157 -2.4482
  252TIP3    H2  763   1.489   4.953   1.506  0.0810 -0.6066  0.9888
  253TIP3   OH2  764   0.627   3.975   5.161  0.1359 -0.2688  0.7069
  253TIP3    H1  765   0.687   3.900   5.164 -0.2382 -0.5834  0.4260
  253TIP3    H2  766   0.685   4.052   5.160  0.5989 -0.5974 -1.3005
  254TIP3   OH2  767   3.395   1.678   0.850  0.4969 -0.5298  0.0845
  254TIP3    H1  768   3.360   1.676   0.939  0.1878 -2.0154 -0.0405
  254TIP3    H2  769   3.488   1.697   0.861  0.2684  0.3008  0.6460
  255TIP3   OH2  770   5.041   0.298   1.248 -0.1729  0.2221 -0.4481
  255TIP3    H1  771   5.093   0.219   1.266  1.2380  0.3354 -3.4664
  255TIP3    H2  772   5.105   0.365   1.227 -1.4426  1.6161 -0.0327
  256TIP3   OH2  773   4.809   3.504   3.839  0.1045 -0.1070  0.2827
  256TIP3    H1  774   4.726   3.477   3.799  0.3899 -0.3566 -0.1476
  256TIP3    H2  775   4.835   3.430   3.893  0.1387 -0.1020  0.2731
  257TIP3   OH2  776   0.021   4.496   0.153  0.0190 -0.2498  0.1794
  257TIP3    H1  777   0.084   4.526   0.219 -0.5932  0.2469  0.5476
  257TIP3    H2  778   0.040   4.549   0.076  0.5110 -0.5949  0.0556
  258TIP3   OH2  779   4.233   2.003   5.033 -0.2677  0.2554  0.1468
  258TIP3    H1  780   4.283   2.027   4.955  1.7797 -2.5921  0.4381
  258TIP3    H2  781   4.275   2.052   5.104 -0.2692  0.6321 -0.1079
  259TIP3   OH2  782   3.690   3.001   1.168 -0.3853  0.0012 -0.5097
  259TIP3    H1  783   3.674   3.085   1.210 -2.8967 -0.3511 -0.6363
  259TIP3    H2  784   3.734   3.022   1.086 -0.1192  1.0851 -0.1007
  260TIP3   OH2  785   6.341   1.071   1.140  0.6504 -0.1207 -0.3383
  260TIP3    H1  786   6.390   1.150   1.116  2.5785 -0.7967  1.1364
  260TIP3    H2  787   6.271   1.103   1.196  1.3901  0.5633  0.2164
  261TIP3   OH2  788   2.958   1.839   4.260 -0.6508  0.3540 -0.3054
  261TIP3    H1  789   2.964   1.909   4.325 -0.1623 -0.9614  1.1320
  261TIP3    H2  790   2.897   1.872   4.194 -0.3008  2.1761  0.2509
  262TIP3   OH2  791   6.040   2.788   4.794  0.5166  0.5671  0.0241
  262TIP3    H1  792   6.126   2.774   4.834  0.8791  0.6020 -0.7323
  262TIP3    H2  793   6.044   2.739   4.712  0.1490  1.3533 -0.4668
  263TIP3   OH2  794   1.854   3.770   1.137  0.7762 -0.7345  0.5545
  263TIP3    H1  795   1.809   3.702   1.086  1.0455  0.2223 -1.0291
  263TIP3    H2  796   1.801   3.779   1.216  1.4876 -3.7045  1.4833
  264TIP3   OH2  797   0.726   1.563   2.978  0.0318 -0.2940 -0.1100
  264TIP3    H1  798   0.752   1.652   3.001 -0.9333 -0.3110  1.1718
  264TIP3    H2  799   0.645   1.573   2.928  1.1949 -0.3533 -2.0689
  265TIP3   OH2  800   1.805   2.315   3.791  0.1490 -0.0451  0.3737
  265TIP3    H1  801   1.774   2.236   3.747 -2.2502  0.7461  0.4674
  265TIP3    H2  802   1.856   2.283   3.865  0.7377 -1.4583 -0.6011
  266TIP3   OH2  803   6.325   2.986   3.038  0.5095 -0.0332 -0.5803
  266TIP3    H1  804   6.372   3.037   2.972 -2.6248  0.4046 -2.6600
  266TIP3    H2  805   6.234   3.016   3.031 -0.1411 -0.5858  3.4232
  267TIP3   OH2  806   2.295   1.950   4.744 -0.2867  0.0744 -0.1509
  267TIP3    H1  807   2.208   1.927   4.709 -1.2994  2.8290  0.3153
  267TIP3    H2  808   2.356   1.922   4.676 -1.6469 -0.7009 -1.1051
  268TIP3   OH2  809   4.147   0.232   4.280 -0.2307 -0.0117 -0.0922
  268TIP3    H1  810   4.130   0.236   4.374 -0.5760 -1.1156 -0.0962
  268TIP3    H2  811   4.071   0.188   4.243  1.4354 -2.8767 -0.4054
  269TIP3   OH2  812   4.428   4.402   1.470 -0.1444 -0.3164  0.1127
  269TIP3    H1  813   4.349   4.348   1.463  0.6080 -1.5226  0.5535
  269TIP3    H2  814   4.487   4.351   1.526  0.2893  1.3688  1.2714
  270TIP3   OH2  815   2.210   5.358   0.165 -0.4239 -0.2802 -0.1469
  270TIP3    H1  816   2.232   5.272   0.130 -0.7449  0.3153 -1.8975
  270TIP3    H2  817   2.147   5.394   0.102  0.1169  1.4485  0.2692
  271TIP3   OH2  818   1.469   3.633   5.118  0.0606 -0.4379 -0.1173
  271TIP3    H1  819   1.378   3.603   5.111 -0.4290  1.0814 -0.9562
  271TIP3    H2  820   1.474   3.707   5.056  1.2907  0.8589  1.4412
  272TIP3   OH2  821   5.180   5.297   1.789  0.4826  0.0382 -0.3012
  272TIP3    H1  822   5.261   5.270   1.747 -0.0541 -2.0883 -0.0783
  272TIP3    H2  823   5.114   5.290   1.721 -0.0762 -1.6527  0.3653
  273TIP3   OH2  824   2.628   0.567   1.133 -0.1863 -0.1267 -0.0037
  273TIP3    H1  825   2.573   0.573   1.055  0.1820  1.3343 -0.1729
  273TIP3    H2  826   2.676   0.485   1.122 -2.2124 -1.4002  0.0948
  274TIP3   OH2  827   5.294   4.858   1.303 -0.1896  0.0906  0.1473
  274TIP3    H1  828   5.240   4.922   1.350 -0.0975  1.7772 -1.8868
  274TIP3    H2  829   5.384   4.892   1.312 -0.0805  0.0020 -0.5442
  275TIP3   OH2  830   3.217   5.065   1.563 -0.3708  0.0845 -0.6957
  275TIP3    H1  831   3.278   5.013   1.510  0.7547  0.2832  0.3896
  275TIP3    H2  832   3.146   5.086   1.502  1.3104  1.0826 -2.4177
  276TIP3   OH2  833   3.040   0.090   2.014  0.4234 -0.8351  0.2934
  276TIP3    H1  834   3.040   0.013   2.071 -0.7206 -0.8437  0.3162
  276TIP3    H2  835   2.950   0.095   1.981  0.7322 -0.0669 -0.4771
  277TIP3   OH2  836   2.584   3.219   0.731  0.0593  0.1551 -0.0610
  277TIP3    H1  837   2.530   3.141   0.728  0.1745  0.0188 -3.8679
  277TIP3    H2  838   2.672   3.189   0.707  0.5864  1.1570  0.5402
  278TIP3   OH2  839   6.272   5.262   1.200  0.2270  0.2658  0.3367
  278TIP3    H1  840   6.317   5.322   1.140  2.8093  0.3215  2.1835
  278TIP3    H2  841   6.187   5.303   1.215  1.3460  2.7599  0.4042
  279TIP3   OH2  842   0.132   1.234   2.884 -0.5499  0.4122  0.0289
  279TIP3    H1  843   0.209   1.271   2.841 -1.3525  2.2042  0.0442
  279TIP3    H2  844   0.066   1.304   2.881 -1.4350 -0.2475  2.0240
  280TIP3   OH2  845   4.980   3.492   1.731 -0.3454  0.4236 -0.3804
  280TIP3    H1  846   4.926   3.415   1.718  0.1221  0.3362 -2.0400
  280TIP3    H2  847   4.939   3.539   1.804 -0.3960 -1.5670  0.9571
  281TIP3   OH2  848   1.741   5.459   0.875  0.2164 -0.2033  0.3457
  281TIP3    H1  849   1.754   5.372   0.836  1.0335 -0.0639  0.2967
  281TIP3    H2  850   1.684   5.443   0.950 -0.3068 -0.6597 -0.1365
  282TIP3   OH2  851   5.171   0.904   2.471  0.3270 -0.1872  0.2879
  282TIP3    H1  852   5.242   0.840   2.465 -0.7838 -1.4242 -0.2009
  282TIP3    H2  853   5.092   0.853   2.455 -0.6277  1.2749  0.1726
  283TIP3   OH2  854   3.540   5.995   3.695  0.0623  0.0937 -0.1323
  283TIP3    H1  855   3.594   5.964   3.768 -1.4464 -1.1186  0.5176
  283TIP3    H2  856   3.588   5.968   3.617  0.0789 -1.6447  0.4296
  284TIP3   OH2  857   4.249   1.337   2.777 -0.1667  0.5527  0.0665
  284TIP3    H1  858   4.269   1.318   2.869 -0.5451 -0.5482 -0.0723
  284TIP3    H2  859   4.258   1.253   2.732 -2.2642  0.5809 -0.5065
  285TIP3   OH2  860   0.257   2.435   4.413  0.2057 -0.3531 -0.1757
  285TIP3    H1  861   0.316   2.507   4.389 -1.6064  0.9756 -0.9233
  285TIP3    H2  862   0.191   2.476   4.470  0.5336 -2.0128  1.5128
  286TIP3   OH2  863   6.213   5.712   4.707  0.1123 -0.6347  0.2737
  286TIP3    H1  864   6.305   5.692   4.723  0.1848 -0.4271  0.1164
  286TIP3    H2  865   6.190   5.775   4.775  0.7471  1.1725 -1.1243
  287TIP3   OH2  866   4.897   4.191   2.658 -0.6084  0.2017 -0.2059
  287TIP3    H1  867   4.922   4.145   2.738 -0.3764  1.1447  0.2854
  287TIP3    H2  868   4.876   4.122   2.596  0.1939 -0.5667  0.3515
  288TIP3   OH2  869   1.510   2.304   3.323 -0.6549  0.0731  0.3245
  288TIP3    H1  870   1.550   2.256   3.395  0.7213  0.2896 -0.2710
  288TIP3    H2  871   1.449   2.241   3.284  1.6308 -1.5629 -0.8832
  289TIP3   OH2  872   3.884   0.157   3.141 -0.3515  0.1918  0.0251
  289TIP3    H1  873   3.938   0.224   3.181  1.2362 -0.0336 -1.6255
  289TIP3    H2  874   3.799   0.200   3.126 -0.7624  0.5011  2.7869
  290TIP3   OH2  875   2.845   4.300   2.207 -0.2716  0.2538 -0.6758
  290TIP3    H1  876   2.912   4.281   2.141  1.8678  0.5758  1.2677
  290TIP3    H2  877   2.880   4.263   2.288 -1.6785  1.8839  0.7681
  291TIP3   OH2  878   4.256   4.471   3.388  0.3505  0.3318  0.6723
  291TIP3    H1  879   4.313   4.472   3.312  0.1456  1.3425  0.5173
  291TIP3    H2  880   4.234   4.378   3.400 -1.3674  0.3093 -1.8246
  292TIP3   OH2  881   3.995   0.816   5.015  0.7953  0.1972 -0.3761
  292TIP3    H1  882   4.049   0.779   5.085  2.4601  0.9597 -1.1897
  292TIP3    H2  883   4.031   0.778   4.935 -0.1548  0.4242 -0.9207
  293TIP3   OH2  884   2.783   4.139   4.036 -0.2605  0.0064 -0.3950
  293TIP3    H1  885   2.821   4.096   3.959  0.0649  0.0243 -0.2449
  293TIP3    H2  886   2.829   4.102   4.110 -1.0298 -0.4946 -0.1518
  294TIP3   OH2  887   5.795   5.344   4.778  0.1153 -0.3489  0.7954
  294TIP3    H1  888   5.708   5.382   4.768  0.6409  0.2772 -2.9453
  294TIP3    H2  889   5.853   5.405   4.732  2.1183 -2.0071  0.9594
  295TIP3   OH2  890   2.032   2.124   2.609  0.1998  0.1788 -0.4561
  295TIP3    H1  891   2.081   2.096   2.686  0.8677 -1.3371 -1.3789
  295TIP3    H2  892   2.098   2.164   2.552  0.3919 -1.5814 -1.5673
  296TIP3   OH2  893   3.251   0.741   4.810  0.1847  0.3145 -0.1961
  296TIP3    H1  894   3.177   0.686   4.786 -2.0385  1.8875  2.4816
  296TIP3    H2  895   3.314   0.680   4.850 -0.7110 -0.7482 -0.3470
  297TIP3   OH2  896   2.540   2.521   0.342  0.1936  0.1047 -0.6369
  297TIP3    H1  897   2.471   2.459   0.365  0.1787  0.3851  0.1067
  297TIP3    H2  898   2.617   2.467   0.328  0.1120 -0.1080 -0.2727
  298TIP3   OH2  899   2.322   1.348   0.546  0.5446  0.1812 -0.7842
  298TIP3    H1  900   2.288   1.434   0.571  1.3416  0.6558 -1.2809
  298TIP3    H2  901   2.268   1.322   0.471  0.0759  0.0911 -0.4151
  299TIP3   OH2  902   3.544   5.125   3.810  0.4627 -0.3766 -0.1637
  299TIP3    H1  903   3.620   5.147   3.863 -0.3016  1.2195  0.3576
  299TIP3    H2  904   3.508   5.046   3.850  1.3713 -0.6756  0.0811
  300TIP3   OH2  905   2.562   4.902   2.810  0.1187 -0.5629 -0.5810
  300TIP3    H1  906   2.570   4.848   2.731 -0.6213  0.1705 -1.1835
  300TIP3    H2  907   2.502   4.852   2.866 -1.4355  0.0770 -1.5840
  301TIP3   OH2  908   0.572   3.125   4.190  0.0090 -0.1643 -0.5432
  301TIP3    H1  909   0.519   3.151   4.115 -0.1230  0.7006 -0.1671
  301TIP3    H2  910   0.580   3.030   4.182  1.7371  0.0955 -2.7926
  302TIP3   OH2  911   2.780   5.763   2.590  0.3854 -0.0450  0.4535
  302TIP3    H1  912   2.864   5.750   2.547 -0.3417 -0.4492 -0.9049
  302TIP3    H2  913   2.728   5.687   2.564  0.3685 -1.0859  3.2571
  303TIP3   OH2  914   1.926   0.696   2.605 -0.0944 -0.4543 -0.2896
  303TIP3    H1  915   1.975   0.773   2.635  1.1133 -0.3990 -2.1967
  303TIP3    H2  916   1.879   0.666   2.682  1.3586  0.7272  1.1396
  304TIP3   OH2  917   5.040   3.151   0.074  0.3271 -0.7042  0.0905
  304TIP3    H1  918   5.091   3.230   0.053 -3.6500  2.0500 -0.2607
  304TIP3    H2  919   5.015   3.115  -0.011  1.9201 -2.3301  0.2560
  305TIP3   OH2  920   3.004   3.697   4.559  0.1061 -0.3174 -0.1031
  305TIP3    H1  921   2.985   3.633   4.491  0.1236  1.6504 -2.0888
  305TIP3    H2  922   3.090   3.732   4.537  0.5510 -0.3060  1.5149
  306TIP3   OH2  923   3.747   3.173   4.345 -0.3693 -0.8429  0.1582
  306TIP3    H1  924   3.738   3.220   4.428  1.3227 -0.9367  0.4338
  306TIP3    H2  925   3.793   3.234   4.287 -0.8131 -1.0734 -0.4461
  307TIP3   OH2  926   4.707   4.830   2.483 -0.6071 -0.6969  0.0487
  307TIP3    H1  927   4.671   4.892   2.546 -2.4607  0.7826 -2.3315
  307TIP3    H2  928   4.800   4.825   2.505 -0.9440  0.7457  2.0595
  308TIP3   OH2  929   1.973   2.048   4.380 -0.2882 -0.0701  0.0865
  308TIP3    H1  930   1.896   2.084   4.425 -0.4973  0.8170 -0.9427
  308TIP3    H2  931   1.956   2.064   4.287  1.5477  1.0100 -0.1173
  309TIP3   OH2  932   5.070   1.536   1.765 -0.7298  0.1943 -0.0420
  309TIP3    H1  933   5.025   1.569   1.687  0.6080  0.1688 -0.8473
  309TIP3    H2  934   5.139   1.480   1.731 -0.0312  0.2868  1.1643
  310TIP3   OH2  935   4.991   0.254   5.026  0.7577 -0.3478 -0.0439
  310TIP3    H1  936   5.068   0.229   5.076  0.6931  0.4338  0.4699
  310TIP3    H2  937   5.011   0.226   4.936  3.3580  3.1078 -0.7863
  311TIP3   OH2  938   2.509   3.346   0.972  0.2361 -0.0946 -0.5753
  311TIP3    H1  939   2.527   3.436   0.944  0.6990  0.2603  0.7786
  311TIP3    H2  940   2.551   3.292   0.905 -0.7056  0.6569 -1.8293
  312TIP3   OH2  941   0.607   4.461   0.824 -0.0134  0.1603 -0.8149
  312TIP3    H1  942   0.537   4.461   0.759 -1.0002 -1.5675  0.1884
  312TIP3    H2  943   0.564   4.491   0.905  0.6391  0.0029 -0.4032
  313TIP3   OH2  944   2.499   0.877   4.815  0.3260  0.1007 -0.2769
  313TIP3    H1  945   2.424   0.824   4.787 -0.0290 -0.0349  0.8863
  313TIP3    H2  946   2.536   0.829   4.889  1.3336  0.3735 -0.5894
  314TIP3   OH2  947   5.749   4.626   2.184  0.0687 -0.0009 -0.2097
  314TIP3    H1  948   5.804   4.549   2.198  1.2597  0.6284 -1.2129
  314TIP3    H2  949   5.748   4.637   2.089 -1.8050  0.0283 -0.2204
  315TIP3   OH2  950   5.467   3.098   0.172  0.0613  0.1375  0.4181
  315TIP3    H1  951   5.519   3.037   0.225  1.2828  0.0527 -0.8359
  315TIP3    H2  952   5.524   3.174   0.161  0.1359 -0.1414 -1.3736
  316TIP3   OH2  953   1.678   4.783   3.448 -0.1269 -0.1557  0.1177
  316TIP3    H1  954   1.766   4.762   3.418  0.0156 -0.0632  0.4667
  316TIP3    H2  955   1.686   4.871   3.486 -0.3515 -0.1842  0.2324
  317TIP3   OH2  956   0.213   2.883   2.996  0.1745 -0.2724  0.6948
  317TIP3    H1  957   0.222   2.836   2.913 -0.1768  1.0696 -0.1341
  317TIP3    H2  958   0.120   2.878   3.017  0.3258 -0.9782  1.2591
  318TIP3   OH2  959   0.753   3.316   3.726  0.4549  0.1866  0.2875
  318TIP3    H1  960   0.787   3.229   3.747  0.8635  0.4514  0.7553
  318TIP3    H2  961   0.809   3.348   3.655  1.1490  0.5887  1.0007
  319TIP3   OH2  962   3.820   3.804   1.735 -0.0582 -0.2412  0.4573
  319TIP3    H1  963   3.865   3.749   1.671  0.4191  1.1091 -0.4073
  319TIP3    H2  964   3.876   3.882   1.744 -2.8915  2.3090 -1.9201
  320TIP3   OH2  965   1.321   0.539   1.870 -0.5076 -0.2844  0.3293
  320TIP3    H1  966   1.290   0.517   1.782  1.2791  0.2375 -0.4795
  320TIP3    H2  967   1.246   0.522   1.927 -1.3836 -1.6467 -1.1489
  321TIP3   OH2  968   5.960   0.859   3.968 -0.0468  0.6889 -0.3383
  321TIP3    H1  969   6.044   0.846   4.011 -0.3579  2.0424  0.7275
  321TIP3    H2  970   5.907   0.906   4.032 -1.5166  0.1385 -1.1086
  322TIP3   OH2  971   3.115   2.540   3.988  0.2823  0.6179  0.2732
  322TIP3    H1  972   3.065   2.520   4.068 -0.1059 -0.8861 -0.3013
  322TIP3    H2  973   3.070   2.490   3.920  1.4319  0.7917 -0.6303
  323TIP3   OH2  974   2.269   3.272   3.075 -0.5276 -0.3693 -0.3479
  323TIP3    H1  975   2.344   3.327   3.094 -0.7327  0.9339 -2.9713
  323TIP3    H2  976   2.300   3.208   3.011 -1.6511  0.3606 -1.6872
  324TIP3   OH2  977   0.672   3.885   4.481 -0.5995 -0.0508  1.0115
  324TIP3    H1  978   0.634   3.956   4.429 -3.2569 -0.5556  2.1101
  324TIP3    H2  979   0.758   3.918   4.507 -1.1672  2.1697  0.2616
  325TIP3   OH2  980   2.930   1.001   3.754 -0.1389 -0.1490 -0.2941
  325TIP3    H1  981   2.952   0.947   3.678  0.2160 -0.0463 -0.2674
  325TIP3    H2  982   2.913   1.088   3.717  0.0976 -0.0830 -0.2547
  326TIP3   OH2  983   0.476   3.691   3.546 -0.3570  0.1680  0.4950
  326TIP3    H1  984   0.525   3.621   3.589 -0.4249 -1.0501 -1.3054
  326TIP3    H2  985   0.529   3.715   3.470 -1.3904  0.5087 -0.1418
  327TIP3   OH2  986   3.503   4.618   2.948 -0.1620  0.0821 -0.0802
  327TIP3    H1  987   3.538   4.573   3.024 -1.3062 -0.3388  0.2247
  327TIP3    H2  988   3.512   4.555   2.876  1.6011  0.7492 -0.4969
  328TIP3   OH2  989   0.157   4.417   3.031  0.1608 -0.4332  0.0647
  328TIP3    H1  990   0.201   4.427   2.947  0.9252  1.0600  0.5991
  328TIP3    H2  991   0.197   4.483   3.087 -1.9170  0.1639  0.9560
  329TIP3   OH2  992   5.550   5.545   1.646  0.0553  0.3487  0.2535
  329TIP3    H1  993   5.592   5.612   1.593  1.4367 -1.0514 -0.5280
  329TIP3    H2  994   5.614   5.473   1.649 -1.2797 -0.8693  1.1805
  330TIP3   OH2  995   0.410   5.459   1.537  0.0844  0.4280  0.0599
  330TIP3    H1  996   0.504   5.464   1.517 -0.1280  1.3300 -0.7982
  330TIP3    H2  997   0.384   5.373   1.506  0.6437  0.1415  0.3683
  331TIP3   OH2  998   5.315   5.673   3.722  0.1738 -0.3396 -0.2410
  331TIP3    H1  999   5.341   5.761   3.751  0.3632 -0.3526 -0.3709
  331TIP3    H2 1000   5.306   5.623   3.803 -0.5194 -0.0395 -0.1262
  332TIP3   OH2 1001   5.899   0.154   3.065 -0.8482  0.2257 -0.2204
  332TIP3    H1 1002   5.877   0.069   3.104  1.0254  0.1902  0.8709
  332TIP3    H2 1003   5.967   0.190   3.122 -0.7227  1.9056 -1.3618
  333TIP3   OH2 1004   2.632   1.447   2.314 -0.0450 -0.2133 -0.3727
  333TIP3    H1 1005   2.596   1.363   2.344 -2.5658  0.8153 -0.2318
  333TIP3    H2 1006   2.677   1.483   2.390  0.7401 -1.2455 -0.3279
  334TIP3   OH2 1007   0.441   3.143   1.464 -0.6238 -0.4095  0.2546
  334TIP3    H1 1008   0.429   3.067   1.521 -1.0099 -0.0700  0.6402
  334TIP3    H2 1009   0.427   3.109   1.376 -1.7416 -0.5972  0.4934
  335TIP3   OH2 1010   5.633   0.156   4.118 -0.2906  0.3960 -0.0288
  335TIP3    H1 1011   5.544   0.144   4.085 -0.7236 -2.1202  1.7913
  335TIP3    H2 1012   5.624   0.160   4.213  1.6532 -2.9826  0.4885
  336TIP3   OH2 1013   0.324   5.700   0.947  0.3827 -0.0585 -0.0924
  336TIP3    H1 1014   0.381   5.689   1.023  0.6587 -2.0734 -0.5463
  336TIP3    H2 1015   0.338   5.621   0.895 -1.2549  0.3910 -1.2829
  337TIP3   OH2 1016   4.494   5.380   4.828 -0.3066  0.0782  0.2625
  337TIP3    H1 1017   4.438   5.424   4.764 -0.4203  0.6977  0.7692
  337TIP3    H2 1018   4.473   5.424   4.911  2.1533  1.5352  0.2108
  338TIP3   OH2 1019   2.934   2.767   4.955 -0.3802  0.4294 -0.4475
  338TIP3    H1 1020   3.018   2.734   4.985 -0.1972  0.2475 -1.1431
  338TIP3    H2 1021   2.870   2.727   5.013  0.0948  1.6739  1.0058
  339TIP3   OH2 1022   0.682   1.079   0.700 -0.1077  0.4846  0.3106
  339TIP3    H1 1023   0.685   1.172   0.724  0.3205  0.4668  0.3387
  339TIP3    H2 1024   0.749   1.070   0.632 -0.4400  0.2799  0.0099
  340TIP3   OH2 1025   5.941   4.732   3.145  0.1250 -0.5137  1.3192
  340TIP3    H1 1026   5.850   4.749   3.171 -0.2717  1.9317 -1.1458
  340TIP3    H2 1027   5.934   4.659   3.083 -0.3734  0.4062  0.2559
  341TIP3   OH2 1028   3.610   3.690   0.095  0.2373  0.0508  0.3065
  341TIP3    H1 1029   3.699   3.707   0.126  0.3024  0.1775  0.0479
  341TIP3    H2 1030   3.554   3.721   0.166  0.3408  1.6723 -0.2856
  342TIP3   OH2 1031   2.298   1.626   4.279  0.4267  0.1685 -0.5095
  342TIP3    H1 1032   2.233   1.666   4.336  1.6575 -0.0954  1.1418
  342TIP3    H2 1033   2.247   1.568   4.221 -0.6657 -1.6632  2.1070
  343TIP3   OH2 1034   0.957   2.525   2.045 -0.4478 -0.0292  0.1757
  343TIP3    H1 1035   0.892   2.587   2.080 -0.8950  0.2216 -1.0752
  343TIP3    H2 1036   0.915   2.485   1.969  1.9702  2.5948 -2.8353
  344TIP3   OH2 1037   5.654   5.136   2.069  0.3224  0.1686  0.5453
  344TIP3    H1 1038   5.585   5.201   2.084 -0.3272 -0.3952  0.0375
  344TIP3    H2 1039   5.727   5.187   2.032 -0.4042  0.5236 -0.4399
  345TIP3   OH2 1040   3.409   1.392   4.225  0.4338  0.0115  0.4814
  345TIP3    H1 1041   3.374   1.304   4.214 -0.8790  0.4007  1.3138
  345TIP3    H2 1042   3.492   1.391   4.177 -0.3349 -1.1841 -0.8992
  346TIP3   OH2 1043   4.000   4.650   4.461 -0.3745 -0.4134 -0.0367
  346TIP3    H1 1044   4.025   4.705   4.387  1.4727 -0.6262  0.3718
  346TIP3    H2 1045   3.998   4.561   4.426 -0.5728 -0.3990 -0.0647
  347TIP3   OH2 1046   0.254   5.614   0.330  0.0653 -0.4960  0.4415
  347TIP3    H1 1047   0.227   5.653   0.414 -0.0594  0.0720  0.1417
  347TIP3    H2 1048   0.187   5.643   0.268 -1.4639 -3.2265  0.6742
  348TIP3   OH2 1049   2.645   1.785   0.787  0.3579  0.6746  0.6593
  348TIP3    H1 1050   2.683   1.870   0.767  3.7372 -0.7161  0.6323
  348TIP3    H2 1051   2.693   1.755   0.864 -0.9339 -1.1504  0.8129
  349TIP3   OH2 1052   5.036   1.259   3.602 -0.4222  0.3308 -0.2666
  349TIP3    H1 1053   4.952   1.233   3.641  0.1761  0.9674  1.5357
  349TIP3    H2 1054   5.033   1.355   3.601  0.3999  0.3672  0.0986
  350TIP3   OH2 1055   5.757   1.519   1.351 -0.6958 -0.3952 -0.4780
  350TIP3    H1 1056   5.742   1.425   1.339  0.4302 -0.3123 -3.0838
  350TIP3    H2 1057   5.816   1.544   1.281 -0.4354  2.1814  0.5290
  351TIP3   OH2 1058   5.678   5.456   1.098 -0.4166  0.4071  0.2366
  351TIP3    H1 1059   5.730   5.376   1.094  0.6353  1.1023 -0.4233
  351TIP3    H2 1060   5.656   5.475   1.007  1.3942  2.1577  0.1171
  352TIP3   OH2 1061   1.299   3.706   0.750 -0.0647  0.4339  0.7661
  352TIP3    H1 1062   1.349   3.690   0.670  2.0370 -3.2951  2.5257
  352TIP3    H2 1063   1.217   3.659   0.737 -0.2242  0.8089  0.4002
  353TIP3   OH2 1064   5.326   4.777   4.742  0.1788 -0.1674 -0.0405
  353TIP3    H1 1065   5.417   4.748   4.738  0.4343  0.6148 -0.2053
  353TIP3    H2 1066   5.282   4.732   4.670  0.8567  0.8355 -1.1096
  354TIP3   OH2 1067   4.385   4.410   5.153  0.1248  0.1326  0.6298
  354TIP3    H1 1068   4.427   4.362   5.225 -1.4107 -0.5791  1.0943
  354TIP3    H2 1069   4.327   4.473   5.196  0.4063  0.8370  0.0056
  355TIP3   OH2 1070   5.280   4.131   4.240  0.1449 -0.7954 -0.8600
  355TIP3    H1 1071   5.330   4.189   4.182  0.5033 -0.8898 -0.6514
  355TIP3    H2 1072   5.239   4.190   4.303  0.6534 -0.7805 -0.5393
  356TIP3   OH2 1073   3.711   0.359   2.004 -0.1614  0.0515 -0.3034
  356TIP3    H1 1074   3.654   0.292   2.043 -1.1995  0.9008 -0.3043
  356TIP3    H2 1075   3.773   0.381   2.074 -0.9523  0.3615  0.3229
  357TIP3   OH2 1076   3.519   3.497   3.109 -0.1680  0.3412 -0.2592
  357TIP3    H1 1077   3.525   3.402   3.115  0.4203  0.3866 -0.1389
  357TIP3    H2 1078   3.607   3.527   3.088 -0.2958  0.8774 -0.0720
  358TIP3   OH2 1079   5.900   1.670   2.236  0.0219 -0.1251  0.0514
  358TIP3    H1 1080   5.937   1.583   2.253  2.3153  1.0407  1.4269
  358TIP3    H2 1081   5.957   1.707   2.169  0.3606  1.0616  0.9635
  359TIP3   OH2 1082   3.327   2.980   0.196 -0.0441 -0.0216 -0.0436
  359TIP3    H1 1083   3.418   2.958   0.175  0.3050  0.6557  0.7123
  359TIP3    H2 1084   3.313   2.941   0.283 -0.2768  0.3932  0.1080
  360TIP3   OH2 1085   0.448   4.872   1.637  0.0041 -0.2637  0.3890
  360TIP3    H1 1086   0.397   4.794   1.661 -1.4569  0.4656 -0.2133
  360TIP3    H2 1087   0.529   4.864   1.687 -2.0328  0.2337  4.1771
  361TIP3   OH2 1088   2.570   2.988   3.230  0.0705 -0.0456  0.4854
  361TIP3    H1 1089   2.573   2.915   3.292 -0.3045 -0.6268 -0.1618
  361TIP3    H2 1090   2.661   3.003   3.206  0.0619 -1.2608 -0.4430
  362TIP3   OH2 1091   3.938   4.335   0.897 -0.0306 -0.2524  0.1763
  362TIP3    H1 1092   3.854   4.322   0.853  0.4707  0.6871 -1.0913
  362TIP3    H2 1093   3.978   4.248   0.898  0.3994 -0.1563 -2.2251
  363TIP3   OH2 1094   1.828   1.563   4.459 -0.2837 -0.5188  0.2906
  363TIP3    H1 1095   1.894   1.588   4.395 -0.4202  2.8025  1.2626
  363TIP3    H2 1096   1.809   1.643   4.507 -2.9457 -1.9926  1.9837
  364TIP3   OH2 1097   4.811   0.192   3.933  0.0018 -0.0441 -0.1601
  364TIP3    H1 1098   4.840   0.229   3.850  1.2118  0.0085  0.2658
  364TIP3    H2 1099   4.750   0.123   3.909 -2.5472  2.3274 -0.9739
  365TIP3   OH2 1100   0.769   2.366   0.127 -0.2243  0.5978 -0.2375
  365TIP3    H1 1101   0.846   2.418   0.102 -0.3381  1.2950  0.8155
  365TIP3    H2 1102   0.697   2.404   0.077 -0.3342  1.5783  0.6260
  366TIP3   OH2 1103   6.268   4.758   2.726  0.0448 -0.4462 -0.7228
  366TIP3    H1 1104   6.341   4.798   2.773 -0.8503  0.8454 -0.3703
  366TIP3    H2 1105   6.203   4.739   2.793 -0.4050 -0.5238 -1.1761
  367TIP3   OH2 1106   0.010   1.943   5.168 -0.2239  0.2732  0.2318
  367TIP3    H1 1107   0.065   1.871   5.138  0.9427  1.7605 -1.4967
  367TIP3    H2 1108   0.010   1.937   5.263  1.0587 -1.1189  0.1668
  368TIP3   OH2 1109   5.361   4.974   0.643  0.1212  0.0405 -0.7286
  368TIP3    H1 1110   5.288   5.013   0.690 -0.8815 -0.0526 -2.1441
  368TIP3    H2 1111   5.374   5.030   0.566  1.5040  0.0124 -0.5443
  369TIP3   OH2 1112   3.139   1.031   0.992  0.0906  0.0382 -0.1899
  369TIP3    H1 1113   3.174   0.992   0.912 -0.2299 -1.1284  0.2172
  369TIP3    H2 1114   3.084   0.963   1.030  2.0507 -0.3329  2.2218
  370TIP3   OH2 1115   1.478   3.852   1.016 -0.0444 -0.1062  0.8020
  370TIP3    H1 1116   1.444   3.764   1.008 -0.6882  0.3150 -2.5595
  370TIP3    H2 1117   1.404   3.905   1.044 -0.7971 -0.0800 -1.0831
  371TIP3   OH2 1118   0.762   1.256   1.297 -0.1628  0.0925 -0.3457
  371TIP3    H1 1119   0.825   1.185   1.306 -0.1682  0.2309  1.0282
  371TIP3    H2 1120   0.751   1.267   1.202  1.4248 -0.3106 -0.5990
  372TIP3   OH2 1121   3.564   5.144   4.768 -0.7050 -0.0236  0.1413
  372TIP3    H1 1122   3.516   5.138   4.685 -3.3527  0.7408  1.5121
  372TIP3    H2 1123   3.564   5.238   4.788  0.1991 -0.1727  0.8642
  373TIP3   OH2 1124   5.772   4.440   0.656 -0.1099  0.0711  0.1905
  373TIP3    H1 1125   5.844   4.397   0.609 -0.5979  0.2909 -0.7988
  373TIP3    H2 1126   5.776   4.531   0.628 -1.4582 -0.1316 -0.8033
  374TIP3   OH2 1127   3.270   2.289   0.432  0.0874  0.2899 -0.0847
  374TIP3    H1 1128   3.299   2.199   0.419 -0.1000  0.3966 -1.3711
  374TIP3    H2 1129   3.350   2.337   0.455  0.8863  0.4415 -2.8604
  375TIP3   OH2 1130   2.362   4.546   4.266 -0.2751  0.2175 -0.0734
  375TIP3    H1 1131   2.386   4.537   4.358 -0.4575  1.0660  0.0699
  375TIP3    H2 1132   2.444   4.538   4.218  0.0197  1.1129  0.2676
  376TIP3   OH2 1133   5.211   0.718   1.179 -0.4701  0.2101 -0.1807
  376TIP3    H1 1134   5.241   0.674   1.258  1.0227  0.1464 -0.7476
  376TIP3    H2 1135   5.125   0.682   1.162  0.5480 -2.2673 -0.4325
  377TIP3   OH2 1136   1.705   0.876   0.756 -0.5689 -0.3905 -0.3849
  377TIP3    H1 1137   1.799   0.896   0.757 -1.0492  2.3538 -1.2377
  377TIP3    H2 1138   1.692   0.824   0.677  0.3981 -2.0845  0.5176
  378TIP3   OH2 1139   4.985   3.971   4.344 -0.4574  0.3924 -0.3124
  378TIP3    H1 1140   5.060   3.978   4.404 -0.5995 -0.0324 -0.0772
  378TIP3    H2 1141   4.910   4.000   4.397 -0.6353 -0.3103 -0.1724
  379TIP3   OH2 1142   5.517   5.641   0.607 -0.4049 -0.1192  0.1843
  379TIP3    H1 1143   5.483   5.714   0.556 -0.0524  1.2492  1.8133
  379TIP3    H2 1144   5.440   5.591   0.633 -0.6760 -0.1708 -0.7071
  380TIP3   OH2 1145   6.223   1.117   4.327 -0.2707 -0.2348 -0.1213
  380TIP3    H1 1146   6.142   1.165   4.339  0.5625  1.2093 -0.1276
  380TIP3    H2 1147   6.196   1.034   4.287 -1.8453 -0.2890  0.9597
  381TIP3   OH2 1148   2.274   2.948   2.530  0.4278  0.3908 -0.3068
  381TIP3    H1 1149   2.273   2.935   2.624  1.5819 -0.5724 -0.3941
  381TIP3    H2 1150   2.303   2.864   2.494 -0.1828  0.6781 -1.5304
  382TIP3   OH2 1151   3.592   0.766   5.042 -0.3759  0.1471 -0.0240
  382TIP3    H1 1152   3.662   0.715   5.081 -2.2244  0.4721  4.2764
  382TIP3    H2 1153   3.637   0.833   4.990  2.5511  0.1280  2.2180
  383TIP3   OH2 1154   5.802   1.118   0.067 -0.3958  0.2191  0.4915
  383TIP3    H1 1155   5.865   1.046   0.061  0.2496  0.6534  1.7568
  383TIP3    H2 1156   5.840   1.188   0.013  0.8545  0.9147  2.2047
  384TIP3   OH2 1157   1.453   3.646   0.503 -0.3953  0.1196 -0.6034
  384TIP3    H1 1158   1.532   3.686   0.466  0.3066  0.5391  1.2167
  384TIP3    H2 1159   1.486   3.578   0.562 -1.4663 -0.7972 -1.0245
  385TIP3   OH2 1160   2.351   0.168   0.606 -0.2859 -0.0275 -0.1995
  385TIP3    H1 1161   2.265   0.126   0.604  0.1432 -1.3783  3.1460
  385TIP3    H2 1162   2.405   0.117   0.545 -0.9461 -1.5367  0.4367
  386TIP3   OH2 1163   2.676   5.237   0.276 -0.2883  0.2457 -0.5947
  386TIP3    H1 1164   2.623   5.189   0.212  0.5623 -0.6206 -0.6675
  386TIP3    H2 1165   2.759   5.254   0.231  0.2892 -0.2980  0.2299
  387TIP3   OH2 1166   1.660   3.288   0.405  0.4384 -0.0087 -0.1289
  387TIP3    H1 1167   1.738   3.336   0.434  0.8242 -0.1997 -0.8313
  387TIP3    H2 1168   1.635   3.236   0.482 -0.8724  2.3789  1.1468
  388TIP3   OH2 1169   3.579   1.970   4.481 -0.1115  0.6005 -0.0961
  388TIP3    H1 1170   3.571   2.058   4.519  0.0162  0.8179 -0.5721
  388TIP3    H2 1171   3.491   1.951   4.447  0.0772  0.9041 -0.7700
  389TIP3   OH2 1172   4.980   0.107   0.904  0.1858  0.1515 -0.3983
  389TIP3    H1 1173   4.991   0.088   0.811  0.1515 -0.3545 -0.3024
  389TIP3    H2 1174   5.007   0.026   0.948 -0.7708  0.0257 -0.0133
  390TIP3   OH2 1175   5.967   3.347   1.464  0.0820  0.1828 -0.6771
  390TIP3    H1 1176   6.054   3.385   1.477  0.3801  0.1223 -2.2643
  390TIP3    H2 1177   5.984   3.256   1.439 -0.2364  0.7562 -3.3212
  391TIP3   OH2 1178   2.247   5.048   0.926 -0.0490  0.0702  0.1896
  391TIP3    H1 1179   2.285   5.056   0.838  1.6504 -1.6331  0.7056
  391TIP3    H2 1180   2.322   5.054   0.985 -0.9499 -0.6132  1.4356
  392TIP3   OH2 1181   3.931   0.538   4.212  0.5446 -0.0647  0.3297
  392TIP3    H1 1182   3.881   0.599   4.157  4.0233  0.8049 -2.2153
  392TIP3    H2 1183   3.901   0.451   4.185 -0.9289  0.4152  0.3328
  393TIP3   OH2 1184   5.942   2.385   5.122  0.4311 -0.2297 -0.5210
  393TIP3    H1 1185   6.028   2.395   5.081  0.6484 -0.1419 -0.0420
  393TIP3    H2 1186   5.942   2.446   5.195 -0.8286  1.3395 -1.7597
  394TIP3   OH2 1187   1.813   4.188   2.598 -0.4429  0.2467 -0.7144
  394TIP3    H1 1188   1.868   4.266   2.605  0.3034 -0.3712  0.4459
  394TIP3    H2 1189   1.724   4.223   2.588  0.0733  1.2451 -2.1894
  395TIP3   OH2 1190   5.181   0.088   1.685 -0.9057  0.1126  0.2941
  395TIP3    H1 1191   5.152   0.173   1.651 -0.7124  0.2822  0.5399
  395TIP3    H2 1192   5.277   0.093   1.682 -0.7502  1.1719  3.2222
  396TIP3   OH2 1193   4.439   0.054   4.533 -0.4208  0.3080  0.1900
  396TIP3    H1 1194   4.518   0.100   4.506 -0.8508  0.8723 -0.1187
  396TIP3    H2 1195   4.440  -0.028   4.484  1.2678 -0.8698  2.0555
  397TIP3   OH2 1196   0.916   2.457   0.810  0.0063  0.6112 -0.1784
  397TIP3    H1 1197   0.848   2.438   0.745 -0.2318 -1.3383  0.6048
  397TIP3    H2 1198   0.884   2.535   0.856 -1.1220  0.4136 -0.6037
  398TIP3   OH2 1199   4.133   4.944   4.974 -0.1648 -0.4354  0.0008
  398TIP3    H1 1200   4.156   4.977   4.887  0.8146 -0.9421  0.0475
  398TIP3    H2 1201   4.053   4.990   4.997 -1.4628 -1.5689 -1.9257
  399TIP3   OH2 1202   1.073   0.917   3.709 -0.7477  0.1266 -0.2232
  399TIP3    H1 1203   1.110   0.912   3.621 -1.1673 -0.3450 -0.3757
  399TIP3    H2 1204   1.099   1.003   3.741 -1.8866  0.9390 -1.3848
  400TIP3   OH2 1205   1.444   1.464   1.409  0.5470  1.3197  0.0528
  400TIP3    H1 1206   1.496   1.413   1.347 -1.1310 -1.6603  0.9212
  400TIP3    H2 1207   1.502   1.478   1.484  0.5085 -1.2082  0.6494
  401TIP3   OH2 1208   2.552   5.099   0.064  0.0486  0.5253  0.0585
  401TIP3    H1 1209   2.635   5.094   0.017  0.5376  0.2220  0.9408
  401TIP3    H2 1210   2.498   5.158   0.011  1.3099  1.8434  0.1978
  402TIP3   OH2 1211   3.464   3.343   2.047  0.4904  0.0683  0.2150
  402TIP3    H1 1212   3.393   3.406   2.060  0.4030 -0.4385  2.5942
  402TIP3    H2 1213   3.425   3.258   2.066  1.2941 -0.4138 -0.2422
  403TIP3   OH2 1214   4.546   0.728   4.956  0.2085  0.1349 -0.0830
  403TIP3    H1 1215   4.632   0.702   4.925  1.2519  1.5844  1.4165
  403TIP3    H2 1216   4.561   0.759   5.046 -2.3263 -2.1129  1.2908
  404TIP3   OH2 1217   1.546   2.958   1.090 -0.5030 -0.2876  0.2480
  404TIP3    H1 1218   1.586   2.991   1.171  1.6456  3.1918 -1.9830
  404TIP3    H2 1219   1.453   2.977   1.099  0.0722  2.6086  0.8878
  405TIP3   OH2 1220   0.241   4.957   3.211  0.7663  0.0530 -0.3917
  405TIP3    H1 1221   0.306   4.887   3.212  2.0742  1.2551  0.6120
  405TIP3    H2 1222   0.266   5.013   3.137  0.1993 -0.0619 -0.6847
  406TIP3   OH2 1223   1.121   5.357   0.239  0.7284 -0.6658  0.2000
  406TIP3    H1 1224   1.078   5.373   0.155  0.2233  0.8144  0.7054
  406TIP3    H2 1225   1.068   5.290   0.282  0.6102 -0.9434 -0.3793
  407TIP3   OH2 1226   2.826   0.395   1.493  0.4155  0.4190 -0.1164
  407TIP3    H1 1227   2.760   0.432   1.551 -0.8670  0.2553 -1.4433
  407TIP3    H2 1228   2.830   0.302   1.517  1.6414  0.7838  1.3040
  408TIP3   OH2 1229   2.004   1.846   1.823 -0.4243 -0.2657 -0.1409
  408TIP3    H1 1230   2.025   1.833   1.731 -1.0631  0.0251 -0.3314
  408TIP3    H2 1231   1.949   1.771   1.846 -0.4837 -0.1984 -0.0647
  409TIP3   OH2 1232   0.630   5.620   2.287  1.0465 -0.1327 -0.2257
  409TIP3    H1 1233   0.540   5.589   2.279  1.8873 -2.2696 -3.4909
  409TIP3    H2 1234   0.630   5.706   2.246  0.4342  0.0811  0.2025
  410TIP3   OH2 1235   1.910   1.558   2.218 -0.6786 -0.1568  0.1748
  410TIP3    H1 1236   1.872   1.585   2.301 -0.3688 -0.3064  0.3686
  410TIP3    H2 1237   1.838   1.515   2.171 -0.6232 -0.8769  0.7403
  411TIP3   OH2 1238   2.074   3.357   1.055 -0.6436 -0.3116 -0.5793
  411TIP3    H1 1239   2.023   3.401   1.122  1.3151  1.3776 -0.0828
  411TIP3    H2 1240   2.051   3.401   0.974  0.0738  0.5390 -0.3361
  412TIP3   OH2 1241   3.542   3.887   1.255 -0.7178  0.0496 -0.0599
  412TIP3    H1 1242   3.599   3.844   1.192 -2.4755 -0.6292 -1.2516
  412TIP3    H2 1243   3.583   3.973   1.269  1.1770 -0.8162  0.0273
  413TIP3   OH2 1244   3.813   4.333   5.179 -0.7955  0.5211  0.2561
  413TIP3    H1 1245   3.744   4.366   5.237 -2.0388  1.1805 -1.5164
  413TIP3    H2 1246   3.815   4.395   5.106  1.4014  0.2684  0.0236
  414TIP3   OH2 1247   3.303   4.052   2.724  0.5517 -0.3620 -0.1703
  414TIP3    H1 1248   3.379   3.994   2.716  2.0255  1.4998 -0.5219
  414TIP3    H2 1249   3.241   4.020   2.659  1.2804 -1.5675 -0.3063
  415TIP3   OH2 1250   5.309   0.424   5.121  0.1479  0.2668 -0.3359
  415TIP3    H1 1251   5.250   0.412   5.196  0.1606 -0.4192 -0.4345
  415TIP3    H2 1252   5.268   0.493   5.069  0.7562  1.6535  0.9184
  416TIP3   OH2 1253   2.851   1.304   4.308 -0.4819 -0.5761  0.3480
  416TIP3    H1 1254   2.850   1.390   4.265  0.4246 -0.6437  0.1548
  416TIP3    H2 1255   2.829   1.323   4.399 -0.5050 -0.1633  0.2614
  417TIP3   OH2 1256   4.270   5.669   0.369  0.7181  0.6032  0.0905
  417TIP3    H1 1257   4.240   5.581   0.391 -1.8092  0.2210 -3.8205
  417TIP3    H2 1258   4.217   5.727   0.423 -1.4829 -0.2726 -1.0095
  418TIP3   OH2 1259   1.678   2.662   4.635 -0.3852  0.1117 -0.1970
  418TIP3    H1 1260   1.749   2.664   4.700 -1.6763 -0.6867  1.3141
  418TIP3    H2 1261   1.714   2.610   4.563  0.3248 -0.9200  0.8604
  419TIP3   OH2 1262   3.934   1.956   3.823  0.3535  0.3692  0.2755
  419TIP3    H1 1263   3.925   2.037   3.774  0.7981 -0.7375 -1.7666
  419TIP3    H2 1264   4.024   1.959   3.857  0.2019  0.9405  0.6398
  420TIP3   OH2 1265   1.085   3.910   0.060 -0.2865  0.0144  0.6877
  420TIP3    H1 1266   1.007   3.882   0.107 -0.9634 -1.2361 -1.0673
  420TIP3    H2 1267   1.155   3.906   0.126 -1.1181 -1.9695  1.5452
  421TIP3   OH2 1268   0.282   3.359   2.991  0.2733  0.2514 -0.1310
  421TIP3    H1 1269   0.344   3.409   3.044  0.3446 -0.4127  0.4228
  421TIP3    H2 1270   0.297   3.268   3.015  1.2990 -0.2386 -2.3178
  422TIP3   OH2 1271   0.754   1.508   4.677  0.1334 -0.0414 -0.7374
  422TIP3    H1 1272   0.693   1.479   4.609  0.7385  2.7209 -2.6273
  422TIP3    H2 1273   0.841   1.492   4.640  0.5738 -1.2616  0.7234
  423TIP3   OH2 1274   6.048   4.003   0.622  0.5491  0.3714 -0.0194
  423TIP3    H1 1275   6.046   4.047   0.537  0.8144  1.1583  0.3660
  423TIP3    H2 1276   5.958   4.009   0.655  0.7133  1.2125  0.3082
  424TIP3   OH2 1277   3.832   2.797   2.257  0.2240  0.4176  0.0153
  424TIP3    H1 1278   3.756   2.740   2.272  0.1634  0.1441 -1.2040
  424TIP3    H2 1279   3.821   2.828   2.167  0.6706  1.7456  0.3934
  425TIP3   OH2 1280   0.848   3.123   3.005 -0.1047  0.3332  0.3358
  425TIP3    H1 1281   0.793   3.147   2.930 -0.1257 -0.6202  0.0302
  425TIP3    H2 1282   0.933   3.162   2.986 -0.3876  0.9422  0.3035
  426TIP3   OH2 1283   2.580   5.496   2.209  0.4099 -0.2886  0.2690
  426TIP3    H1 1284   2.492   5.468   2.184  0.2811  0.4732 -0.1586
  426TIP3    H2 1285   2.602   5.442   2.285 -1.4497  1.2362  1.9892
  427TIP3   OH2 1286   5.140   5.043   1.460  0.1561  0.6823 -0.1202
  427TIP3    H1 1287   5.060   5.021   1.412 -0.4837  2.3843  0.1056
  427TIP3    H2 1288   5.119   5.022   1.551 -0.0353  1.1064 -0.0641
  428TIP3   OH2 1289   3.230   1.784   4.648 -0.3743 -0.2293 -0.5184
  428TIP3    H1 1290   3.293   1.729   4.695  0.8935  0.9587 -0.7443
  428TIP3    H2 1291   3.233   1.868   4.694 -1.0906  0.1303 -1.1152
  429TIP3   OH2 1292   2.632   2.981   4.328 -0.2275  0.2974  0.2790
  429TIP3    H1 1293   2.661   2.942   4.246 -0.6915 -0.4173  0.4482
  429TIP3    H2 1294   2.592   2.909   4.376 -1.9536  1.1513  0.1929
  430TIP3   OH2 1295   2.068   0.942   4.267  0.4219  0.2593 -0.1034
  430TIP3    H1 1296   2.078   0.986   4.182  1.2776  0.0472 -0.1131
  430TIP3    H2 1297   1.981   0.969   4.297  1.0761  2.3185  0.1023
  431TIP3   OH2 1298   3.060   0.221   2.984 -0.2492 -0.0159 -0.1880
  431TIP3    H1 1299   3.096   0.133   2.975  0.8550  0.5888 -2.3197
  431TIP3    H2 1300   2.981   0.221   2.929 -0.1395  0.3719 -0.3501
  432TIP3   OH2 1301   4.347   4.618   0.067 -0.1071 -0.7916  0.6869
  432TIP3    H1 1302   4.252   4.626   0.062 -0.2752 -3.0047 -1.9541
  432TIP3    H2 1303   4.362   4.538   0.117  0.5626  0.8649  3.3385
  433TIP3   OH2 1304   6.268   0.051   2.968  0.1216 -0.6885  0.4177
  433TIP3    H1 1305   6.316   0.097   2.899 -1.0493 -0.7336 -0.4540
  433TIP3    H2 1306   6.250   0.118   3.034 -1.2386  0.0671 -0.6601
  434TIP3   OH2 1307   0.475   4.495   5.183 -0.2293 -0.1784  0.4605
  434TIP3    H1 1308   0.456   4.567   5.123 -1.3317 -0.4228  0.4992
  434TIP3    H2 1309   0.402   4.435   5.173 -0.4857 -0.2021  2.0776
  435TIP3   OH2 1310   1.079   4.038   1.906  0.5963 -0.6850 -0.1878
  435TIP3    H1 1311   1.147   4.058   1.842  0.0158 -0.2971 -0.6941
  435TIP3    H2 1312   1.114   4.071   1.989  0.8347 -0.0886 -0.5205
  436TIP3   OH2 1313   1.463   0.128   3.539 -0.0564  0.9324 -0.2360
  436TIP3    H1 1314   1.524   0.104   3.609 -0.2260 -1.2336 -0.7442
  436TIP3    H2 1315   1.504   0.094   3.459 -0.9409  1.3019 -0.8617
  437TIP3   OH2 1316   2.212   0.031   3.787  0.3582  0.0408  0.0305
  437TIP3    H1 1317   2.162   0.006   3.709  1.7294 -0.4672 -0.7203
  437TIP3    H2 1318   2.203   0.126   3.792 -1.4883 -0.1241  0.5006
  438TIP3   OH2 1319   4.534   3.258   3.463  0.0107 -0.1583  0.0975
  438TIP3    H1 1320   4.457   3.219   3.504 -0.4124  0.2184 -0.3396
  438TIP3    H2 1321   4.501   3.301   3.384  0.5644  0.5440  0.2380
  439TIP3   OH2 1322   5.289   3.296   5.025  0.2657  0.3933 -0.4633
  439TIP3    H1 1323   5.329   3.307   5.111  0.2764  2.4735 -0.6866
  439TIP3    H2 1324   5.342   3.228   4.982  0.9783  0.1744  0.7367
  440TIP3   OH2 1325   5.127   4.290   4.427  0.2632 -0.0008 -0.3641
  440TIP3    H1 1326   5.093   4.228   4.492  0.0191  0.8984  0.3835
  440TIP3    H2 1327   5.073   4.367   4.436 -1.5058 -0.6946 -3.4339
  441TIP3   OH2 1328   2.183   0.857   3.065  0.1415 -0.1112  0.3666
  441TIP3    H1 1329   2.258   0.825   3.015 -0.6471  0.8976 -1.5785
  441TIP3    H2 1330   2.163   0.942   3.026 -0.4137  0.8381  2.5808
  442TIP3   OH2 1331   0.414   5.501   0.769 -0.2320 -0.3571  0.0784
  442TIP3    H1 1332   0.448   5.472   0.685  1.7013  1.6333  0.1045
  442TIP3    H2 1333   0.352   5.432   0.795  1.4150 -2.5479 -1.4879
  443TIP3   OH2 1334   3.649   1.555   0.516 -0.1456 -0.3964 -0.6053
  443TIP3    H1 1335   3.740   1.575   0.537 -0.2518  0.3580 -0.8645
  443TIP3    H2 1336   3.624   1.489   0.581  0.0734  0.6190  0.5289
  444TIP3   OH2 1337   6.039   1.447   2.309 -0.2611 -0.7026  0.1606
  444TIP3    H1 1338   6.112   1.408   2.262  0.1688  0.4731 -0.1788
  444TIP3    H2 1339   6.076   1.478   2.391 -0.0100  1.2227 -0.6301
  445TIP3   OH2 1340   4.801   3.772   2.746  0.4192 -0.3171  0.0217
  445TIP3    H1 1341   4.776   3.684   2.718  1.2480 -1.0561  1.4763
  445TIP3    H2 1342   4.747   3.789   2.823 -1.2572  1.3553 -1.4122
  446TIP3   OH2 1343   1.740   2.666   4.261  0.1347 -0.3135  0.3903
  446TIP3    H1 1344   1.747   2.581   4.217 -0.5168 -0.5256  0.6884
  446TIP3    H2 1345   1.668   2.655   4.323  1.1662 -0.0807  1.6620
  447TIP3   OH2 1346   0.982   0.148   4.903  0.4519  0.3137 -0.0492
  447TIP3    H1 1347   0.941   0.168   4.987 -2.0291 -0.1870 -1.0472
  447TIP3    H2 1348   0.972   0.228   4.852  0.3162  0.0442 -0.4497
  448TIP3   OH2 1349   0.597   2.092   1.676 -0.0043  0.1477 -0.0213
  448TIP3    H1 1350   0.617   2.004   1.707  0.1432  0.7552  1.6953
  448TIP3    H2 1351   0.501   2.096   1.676 -0.0317 -0.2027 -0.7508
  449TIP3   OH2 1352   0.376   0.065   5.176  0.1264  0.2215 -0.0107
  449TIP3    H1 1353   0.324   0.142   5.202  0.6781 -0.1168  2.2183
  449TIP3    H2 1354   0.431   0.098   5.105 -1.5153  1.1623 -0.9359
  450TIP3   OH2 1355   2.613   4.625   3.707  0.3050  0.7371 -0.7213
  450TIP3    H1 1356   2.677   4.674   3.655  1.4786  0.1894  0.1491
  450TIP3    H2 1357   2.595   4.546   3.656  1.0166  0.4704 -0.5682
  451TIP3   OH2 1358   2.141   1.707   3.703  0.5096 -0.7692 -0.2475
  451TIP3    H1 1359   2.180   1.769   3.765  1.1079  0.3518 -1.6964
  451TIP3    H2 1360   2.070   1.666   3.752  0.3010  0.8308  0.8545
  452TIP3   OH2 1361   4.760   0.616   1.611  0.3971  0.5244 -0.2822
  452TIP3    H1 1362   4.766   0.553   1.682 -1.0688 -1.3683 -1.7432
  452TIP3    H2 1363   4.752   0.701   1.654  3.7343 -0.0238  1.7500
  453TIP3   OH2 1364   3.596   0.464   3.654 -0.0343 -0.3465  0.1327
  453TIP3    H1 1365   3.610   0.550   3.614  0.0041 -0.8918 -1.0621
  453TIP3    H2 1366   3.622   0.476   3.746 -0.8320  1.1244  0.2020
  454TIP3   OH2 1367   0.420   3.291   0.684  0.3376 -0.3402  0.0250
  454TIP3    H1 1368   0.440   3.288   0.778  1.0179  0.2547 -0.0949
  454TIP3    H2 1369   0.325   3.296   0.680  0.3283  4.0287  0.8712
  455TIP3   OH2 1370   2.792   0.165   1.951 -0.0555 -0.0275 -0.2649
  455TIP3    H1 1371   2.789   0.199   1.862  2.0814  0.0722 -0.3561
  455TIP3    H2 1372   2.716   0.108   1.957 -0.0883 -0.2758 -2.2695
  456TIP3   OH2 1373   4.548   3.468   1.881  0.2788  0.7504 -0.1137
  456TIP3    H1 1374   4.637   3.432   1.880 -0.1843 -0.5522  1.3611
  456TIP3    H2 1375   4.513   3.450   1.794  0.7918 -0.5204 -0.0709
  457TIP3   OH2 1376   3.658   3.671   1.046 -0.3483 -0.1807  0.0316
  457TIP3    H1 1377   3.691   3.649   0.959 -0.3735  2.5902 -0.7884
  457TIP3    H2 1378   3.736   3.683   1.099 -0.2643 -0.0914 -0.1118
  458TIP3   OH2 1379   4.328   3.304   0.492 -0.2080 -0.6284  0.0031
  458TIP3    H1 1380   4.406   3.349   0.526  0.1379 -1.7108  0.6765
  458TIP3    H2 1381   4.352   3.277   0.404 -0.4564  0.5592 -0.4576
  459TIP3   OH2 1382   4.770   1.330   3.357  0.0800 -0.1202  0.0201
  459TIP3    H1 1383   4.731   1.262   3.412 -0.8841 -0.5119 -1.0994
  459TIP3    H2 1384   4.707   1.402   3.359  0.1422 -0.0511 -0.3791
  460TIP3   OH2 1385   2.623   3.469   0.561  0.2117 -0.1026 -0.2212
  460TIP3    H1 1386   2.592   3.408   0.628  0.0899 -0.8038 -0.8956
  460TIP3    H2 1387   2.706   3.431   0.531 -0.5965 -0.7864 -1.7172
  461TIP3   OH2 1388   3.249   2.993   2.698  0.5757 -0.6179 -0.1512
  461TIP3    H1 1389   3.188   2.989   2.771 -0.9154  1.1809 -1.2079
  461TIP3    H2 1390   3.288   2.906   2.694 -1.1197 -1.4980  1.2517
  462TIP3   OH2 1391   1.348   3.436   4.729 -0.3143  0.0152  0.1482
  462TIP3    H1 1392   1.438   3.418   4.701  0.2411  1.9184  0.6318
  462TIP3    H2 1393   1.309   3.482   4.655 -0.1728  1.1934  0.7817
  463TIP3   OH2 1394   5.134   4.889   2.497  0.0513  0.2797 -0.4979
  463TIP3    H1 1395   5.116   4.983   2.496  0.1755  0.3023 -0.5467
  463TIP3    H2 1396   5.048   4.849   2.512  0.0977  0.4276  0.1961
  464TIP3   OH2 1397   2.140   1.225   1.949  0.2595 -0.0718  0.1450
  464TIP3    H1 1398   2.136   1.164   2.022  1.1066 -1.0669 -0.5893
  464TIP3    H2 1399   2.232   1.223   1.922 -0.1219 -0.1040 -1.2388
  465TIP3   OH2 1400   4.845   5.530   2.050 -0.4153  0.6100 -0.6703
  465TIP3    H1 1401   4.896   5.455   2.019 -2.8060 -1.3622 -0.1859
  465TIP3    H2 1402   4.808   5.569   1.970 -0.8709 -0.0680 -0.7959
  466TIP3   OH2 1403   1.728   5.218   3.141  0.1999  0.3584 -0.0392
  466TIP3    H1 1404   1.822   5.207   3.159 -0.1824  0.0342  1.9521
  466TIP3    H2 1405   1.695   5.128   3.131  0.0959  0.4723 -0.7412
  467TIP3   OH2 1406   1.746   3.982   0.556 -0.2090  0.3000  0.0149
  467TIP3    H1 1407   1.714   4.068   0.530 -0.7708  0.1087  0.0449
  467TIP3    H2 1408   1.716   3.971   0.646  1.4292  0.8141  0.6522
  468TIP3   OH2 1409   2.479   4.098   0.912 -0.0197 -0.6747 -0.0219
  468TIP3    H1 1410   2.503   4.027   0.852  2.6735 -0.9260  1.2171
  468TIP3    H2 1411   2.529   4.080   0.992 -0.8060  1.5607  1.0656
  469TIP3   OH2 1412   6.117   4.721   1.578  0.1027  0.7718 -0.0175
  469TIP3    H1 1413   6.209   4.711   1.602 -0.2506 -1.4683  0.6628
  469TIP3    H2 1414   6.119   4.747   1.486  1.4683 -1.9601 -0.8806
  470TIP3   OH2 1415   5.442   1.282   2.122 -0.2440 -0.2209 -0.4814
  470TIP3    H1 1416   5.383   1.350   2.089  0.9735  1.0869 -0.0917
  470TIP3    H2 1417   5.518   1.286   2.064  0.5723 -0.0463  0.5580
  471TIP3   OH2 1418   4.465   3.404   1.635  0.4901  0.7609  0.3822
  471TIP3    H1 1419   4.437   3.467   1.569 -0.3180 -1.9099 -2.0251
  471TIP3    H2 1420   4.385   3.355   1.657  1.1935  0.1432  1.6586
  472TIP3   OH2 1421   0.876   5.335   2.869  0.5783 -0.3692  0.2200
  472TIP3    H1 1422   0.785   5.303   2.864  0.1907  0.7841 -0.5399
  472TIP3    H2 1423   0.873   5.404   2.935  0.5332  0.7564 -0.9230
  473TIP3   OH2 1424   2.711   1.960   1.219 -0.2310  0.0577  0.2346
  473TIP3    H1 1425   2.652   2.035   1.225  0.2135  0.5867 -1.3286
  473TIP3    H2 1426   2.741   1.945   1.308 -1.1362  1.0784  0.7321
  474TIP3   OH2 1427   3.441   4.962   4.936  0.0844  0.0556  0.0353
  474TIP3    H1 1428   3.494   5.018   4.878  0.7751 -1.9648 -1.3954
  474TIP3    H2 1429   3.506   4.906   4.980 -0.7338 -2.0049 -1.2375
  475TIP3   OH2 1430   0.393   0.185   1.281 -0.4169  1.0603 -0.1565
  475TIP3    H1 1431   0.450   0.198   1.357  1.3701  1.2271 -1.4754
  475TIP3    H2 1432   0.353   0.100   1.296  0.2586  0.8854  0.7574
  476TIP3   OH2 1433   1.587   0.621   0.940 -0.1950  0.6923 -0.2708
  476TIP3    H1 1434   1.675   0.646   0.968  0.2200  1.5310 -2.1554
  476TIP3    H2 1435   1.533   0.698   0.961 -0.7641 -0.2274  1.8907
  477TIP3   OH2 1436   5.134   4.722   1.612  0.0035 -0.4742 -0.4563
  477TIP3    H1 1437   5.223   4.699   1.586  0.9141  0.1310  1.9077
  477TIP3    H2 1438   5.091   4.747   1.530  2.5137  0.8874 -1.4601
  478TIP3   OH2 1439   5.615   3.258   1.183  0.2808  0.1336  0.8795
  478TIP3    H1 1440   5.580   3.170   1.172 -0.0404  0.1458  1.7105
  478TIP3    H2 1441   5.580   3.288   1.267  0.3345  1.0805  0.5836
  479TIP3   OH2 1442   3.243   3.449   0.768  0.2502  0.1267 -0.0789
  479TIP3    H1 1443   3.183   3.508   0.722 -0.8246 -0.1793  0.8573
  479TIP3    H2 1444   3.188   3.408   0.835  1.1351 -1.4377 -0.2677
  480TIP3   OH2 1445   4.894   4.797   0.880 -0.1823  0.3460  0.0728
  480TIP3    H1 1446   4.968   4.850   0.848 -1.6543  1.7043 -1.3026
  480TIP3    H2 1447   4.877   4.735   0.809 -0.3377  0.0238  0.3908
  481TIP3   OH2 1448   0.329   1.238   0.366 -0.3823  0.0323 -0.6847
  481TIP3    H1 1449   0.318   1.296   0.442 -0.5061 -0.5401 -0.2610
  481TIP3    H2 1450   0.405   1.274   0.320 -0.0519  0.1465 -0.0669
  482TIP3   OH2 1451   1.105   4.685   1.866 -0.3967 -0.4113  0.2720
  482TIP3    H1 1452   1.140   4.705   1.779 -0.5117 -1.4805 -0.0310
  482TIP3    H2 1453   1.154   4.608   1.895 -1.6868 -1.2321  0.3351
  483TIP3   OH2 1454   4.341   0.039   5.070 -0.7213 -0.1371  0.3100
  483TIP3    H1 1455   4.397   0.116   5.085  0.8192 -1.5081  2.0862
  483TIP3    H2 1456   4.270   0.050   5.134  1.2778 -1.7222  3.0004
  484TIP3   OH2 1457   0.492   5.278   5.065 -0.4254  0.0748  0.2196
  484TIP3    H1 1458   0.569   5.258   5.012  0.0214  2.2729 -0.0713
  484TIP3    H2 1459   0.519   5.351   5.121 -1.9200  0.0546  1.0396
  485TIP3   OH2 1460   1.778   3.047   4.191  0.0827  0.2184  0.1163
  485TIP3    H1 1461   1.853   3.106   4.189 -0.8090  1.4919  1.3940
  485TIP3    H2 1462   1.795   2.983   4.122  1.2600  1.7815 -1.1286
  486TIP3   OH2 1463   0.769   0.427   1.417  0.1604  0.0844  0.2565
  486TIP3    H1 1464   0.826   0.373   1.361  0.0798  0.4559 -0.1893
  486TIP3    H2 1465   0.727   0.488   1.356  0.5242  0.8892  0.8048
  487TIP3   OH2 1466   5.571   0.492   5.013 -0.5634  0.3180 -0.8131
  487TIP3    H1 1467   5.497   0.448   5.054  0.4069 -2.1636 -1.5307
  487TIP3    H2 1468   5.538   0.521   4.928 -0.7523 -0.7640 -1.1256
  488TIP3   OH2 1469   0.508   4.751   3.393  0.6082  0.1173  0.0598
  488TIP3    H1 1470   0.414   4.759   3.413  0.3103 -0.2476 -1.1445
  488TIP3    H2 1471   0.547   4.828   3.434 -0.1567  0.0814  0.8974
  489TIP3   OH2 1472   1.381   2.541   3.981  0.5132  0.1616  0.4801
  489TIP3    H1 1473   1.378   2.528   4.076 -1.7931 -1.2689  0.3007
  489TIP3    H2 1474   1.437   2.471   3.949 -1.9962 -2.0627  0.5567
  490TIP3   OH2 1475   5.605   4.255   0.756 -0.1814  0.5278 -0.0388
  490TIP3    H1 1476   5.556   4.209   0.687 -0.7746  1.1185 -0.0229
  490TIP3    H2 1477   5.654   4.322   0.708  0.9054 -0.2703 -0.0967
  491TIP3   OH2 1478   2.521   5.470   0.364  0.4997  0.0106  0.0612
  491TIP3    H1 1479   2.566   5.537   0.415 -2.4271  1.0721  1.5022
  491TIP3    H2 1480   2.580   5.395   0.366  2.0567  1.1840  2.0150
  492TIP3   OH2 1481   1.703   4.782   1.287 -0.1273 -0.0372  0.0937
  492TIP3    H1 1482   1.726   4.750   1.374  1.3749  3.0548  0.9455
  492TIP3    H2 1483   1.779   4.760   1.233  1.1544  2.3426  0.8091
  493TIP3   OH2 1484   1.035   3.103   1.386 -0.0526  0.0601  0.3465
  493TIP3    H1 1485   1.021   3.143   1.472  2.2849 -1.4017  1.5164
  493TIP3    H2 1486   1.091   3.166   1.339 -0.3757  0.3324  0.3221
  494TIP3   OH2 1487   3.739   0.609   2.550 -0.2486 -0.6543  0.2883
  494TIP3    H1 1488   3.802   0.625   2.480 -2.0686 -1.4859 -1.6485
  494TIP3    H2 1489   3.679   0.684   2.546 -0.2380 -0.5829  1.1512
  495TIP3   OH2 1490   2.120   4.459   5.055  0.0475 -0.4287  0.3952
  495TIP3    H1 1491   2.177   4.458   5.132  0.7370 -0.5106 -0.1060
  495TIP3    H2 1492   2.141   4.542   5.010 -0.6515 -0.1820  0.5143
  496TIP3   OH2 1493   4.908   0.629   2.186  0.4766  0.4311  0.5653
  496TIP3    H1 1494   4.842   0.698   2.196  0.2469  0.0804  1.5694
  496TIP3    H2 1495   4.856   0.548   2.176  0.7482  0.3313 -0.0718
  497TIP3   OH2 1496   1.406   4.873   0.309 -0.6962 -0.2284  0.1452
  497TIP3    H1 1497   1.371   4.824   0.383  1.4312  1.2263  2.2974
  497TIP3    H2 1498   1.484   4.824   0.282 -0.7764 -0.1051 -0.3186
  498TIP3   OH2 1499   0.716   3.327   2.463 -0.1274 -0.6518 -0.2181
  498TIP3    H1 1500   0.750   3.319   2.373 -1.7156 -0.3383 -0.8926
  498TIP3    H2 1501   0.792   3.353   2.515  0.6690  0.0140 -1.6267
  499TIP3   OH2 1502   4.355   4.877   0.410 -0.2034  0.5168 -0.4124
  499TIP3    H1 1503   4.267   4.850   0.384 -0.4254  0.1307  0.6914
  499TIP3    H2 1504   4.354   4.873   0.506  0.9887  0.5872 -0.3839
  500TIP3   OH2 1505   1.594   5.525   0.615  0.5234 -0.1062  0.5223
  500TIP3    H1 1506   1.656   5.522   0.689 -0.9994 -0.7876  1.8428
  500TIP3    H2 1507   1.539   5.447   0.627  0.3713 -0.3571 -1.4957
  501TIP3   OH2 1508   2.888   1.211   5.156  0.1561 -0.1559 -0.2572
  501TIP3    H1 1509   2.901   1.273   5.084  1.2228 -0.6389 -0.4976
  501TIP3    H2 1510   2.864   1.266   5.231 -0.7706  0.3660 -0.9221
  502TIP3   OH2 1511   0.826   1.256   1.856  0.7298 -0.2097 -0.0897
  502TIP3    H1 1512   0.872   1.222   1.934 -0.3842  1.3313  1.3113
  502TIP3    H2 1513   0.882   1.327   1.825  0.6897 -0.1890 -0.1141
  503TIP3   OH2 1514   2.243   5.680   2.103  0.0237  0.3976  0.0879
  503TIP3    H1 1515   2.304   5.607   2.111 -1.0175 -0.3562  1.7634
  503TIP3    H2 1516   2.158   5.639   2.087 -0.5003  1.2423  0.5881
  504TIP3   OH2 1517   0.157   3.773   0.855 -0.9064 -0.3628 -0.3110
  504TIP3    H1 1518   0.104   3.841   0.897 -0.0476  0.0544  0.1222
  504TIP3    H2 1519   0.220   3.822   0.802 -1.1804 -0.8636 -1.1100
  505TIP3   OH2 1520   0.197   2.141   3.378  0.1021 -0.3973 -0.4871
  505TIP3    H1 1521   0.176   2.050   3.400  0.5859 -0.6858 -1.1901
  505TIP3    H2 1522   0.230   2.178   3.460 -2.5370 -0.0772  0.5156
  506TIP3   OH2 1523   5.237   1.862   4.561 -0.1039 -0.3736 -0.0785
  506TIP3    H1 1524   5.236   1.943   4.510 -1.1342  1.2605  2.3521
  506TIP3    H2 1525   5.147   1.849   4.589  0.3149 -1.5427  0.8352
  507TIP3   OH2 1526   6.257   2.424   1.439  0.3967 -0.2845 -0.2129
  507TIP3    H1 1527   6.283   2.509   1.403  0.9718  0.2379  1.3196
  507TIP3    H2 1528   6.163   2.417   1.420  0.9546 -0.8638 -3.2698
  508TIP3   OH2 1529   2.778   5.079   2.506  0.5868 -0.0756  0.1667
  508TIP3    H1 1530   2.795   5.020   2.432  1.9557 -0.9562  1.1314
  508TIP3    H2 1531   2.743   5.022   2.575  0.3381  0.5471  0.5643
  509TIP3   OH2 1532   1.778   3.340   3.660 -0.0789  0.1917 -0.6913
  509TIP3    H1 1533   1.819   3.423   3.683 -0.1203  0.5730 -1.8880
  509TIP3    H2 1534   1.841   3.298   3.601 -0.4182 -0.2533 -0.7440
  510TIP3   OH2 1535   5.157   1.155   0.017  0.6362  0.3657  0.1519
  510TIP3    H1 1536   5.211   1.176   0.093 -0.1301 -0.5802  0.9834
  510TIP3    H2 1537   5.069   1.183   0.041  0.1632 -0.9799  0.0995
  511TIP3   OH2 1538   2.556   5.950   3.410  0.4245  0.3418  0.5983
  511TIP3    H1 1539   2.480   5.901   3.379  0.2581  0.9385  0.0409
  511TIP3    H2 1540   2.631   5.897   3.384  0.2243  0.0840  0.5388
  512TIP3   OH2 1541   2.328   3.793   3.152  0.6887  0.4438  0.8520
  512TIP3    H1 1542   2.251   3.828   3.196 -0.2797 -0.7870  0.1940
  512TIP3    H2 1543   2.356   3.720   3.207  1.0524  0.5239  0.7771
  513TIP3   OH2 1544   5.415   5.901   0.518  0.2829  0.3507  0.6262
  513TIP3    H1 1545   5.365   5.950   0.583 -1.9530 -0.2481 -0.5594
  513TIP3    H2 1546   5.363   5.906   0.438  2.1671 -0.2798 -0.7118
  514TIP3   OH2 1547   4.713   5.529   3.260 -0.0099 -0.2231 -0.1397
  514TIP3    H1 1548   4.694   5.439   3.289  1.0883 -0.5572 -0.4271
  514TIP3    H2 1549   4.699   5.526   3.165  1.0475 -0.3636 -0.2950
  515TIP3   OH2 1550   5.485   1.302   3.553 -0.0889  0.1936  0.3197
  515TIP3    H1 1551   5.452   1.350   3.629 -0.0800 -0.2601  0.6125
  515TIP3    H2 1552   5.412   1.304   3.491 -1.0024 -1.4804  1.2613
  516TIP3   OH2 1553   1.998   1.293   2.495 -0.0251  0.6936 -0.2411
  516TIP3    H1 1554   1.971   1.306   2.404  0.0569 -0.1052 -0.3856
  516TIP3    H2 1555   1.991   1.199   2.509 -0.8168  0.8974  0.8298
  517TIP3   OH2 1556   3.056   4.664   0.555  0.1429  0.0962 -0.3405
  517TIP3    H1 1557   3.133   4.721   0.567  0.6945 -0.9904  1.6387
  517TIP3    H2 1558   2.981   4.723   0.568  0.5999  1.0917 -1.9196
  518TIP3   OH2 1559   4.821   2.197   1.197  0.2005 -0.3145  0.4075
  518TIP3    H1 1560   4.838   2.135   1.125  1.2131 -1.4283  1.5653
  518TIP3    H2 1561   4.736   2.234   1.176  0.6453 -0.2904 -1.5920
  519TIP3   OH2 1562   2.610   1.036   4.504  0.1533  0.1011 -0.6031
  519TIP3    H1 1563   2.596   0.941   4.509 -0.7378  0.1735 -1.3581
  519TIP3    H2 1564   2.592   1.058   4.412 -1.2187  1.2160 -0.0965
  520TIP3   OH2 1565   1.103   2.791   3.283  0.1466 -0.2721  0.9581
  520TIP3    H1 1566   1.125   2.705   3.247  2.2747  1.2862 -1.9195
  520TIP3    H2 1567   1.185   2.840   3.279 -1.5781  2.7663 -0.4041
  521TIP3   OH2 1568   6.207   0.323   2.216  0.2901 -0.2554 -0.2642
  521TIP3    H1 1569   6.167   0.408   2.198  1.8446  0.7406  0.7798
  521TIP3    H2 1570   6.211   0.280   2.131  0.6480  1.2568 -1.0406
  522TIP3   OH2 1571   3.518   1.384   0.968 -0.6487 -0.1863 -0.0734
  522TIP3    H1 1572   3.513   1.452   0.901 -1.3626  0.5021  0.6404
  522TIP3    H2 1573   3.595   1.332   0.945  2.7135  3.4353  1.6743
  523TIP3   OH2 1574   4.377   0.575   0.634 -0.5953 -0.3214  0.8406
  523TIP3    H1 1575   4.336   0.511   0.692 -1.0958  0.3217  1.2173
  523TIP3    H2 1576   4.340   0.659   0.661 -0.9387 -0.0135 -0.4948
  524TIP3   OH2 1577   5.475   0.125   1.660 -0.3210  0.0125 -0.4035
  524TIP3    H1 1578   5.531   0.125   1.737 -1.6089  1.4394  0.6177
  524TIP3    H2 1579   5.529   0.090   1.589  0.6743 -2.0240  1.2716
  525TIP3   OH2 1580   6.240   5.241   2.636  0.0684 -0.5140  0.3490
  525TIP3    H1 1581   6.225   5.153   2.601 -1.4020 -0.2675  0.2977
  525TIP3    H2 1582   6.199   5.239   2.723 -2.1604  0.7999 -0.5925
  526TIP3   OH2 1583   1.139   3.485   0.631 -0.0143  0.0780  0.1338
  526TIP3    H1 1584   1.074   3.461   0.564 -0.4942 -0.6452  0.8319
  526TIP3    H2 1585   1.217   3.436   0.607  0.0838  0.4776 -0.3700
  527TIP3   OH2 1586   1.476   3.710   0.172 -0.8861  0.0798 -0.2412
  527TIP3    H1 1587   1.530   3.717   0.251  0.1466  2.1329 -1.0316
  527TIP3    H2 1588   1.390   3.743   0.200 -0.7815 -0.0378  0.2409
  528TIP3   OH2 1589   1.439   1.984   4.754 -0.5049 -0.1786  0.3544
  528TIP3    H1 1590   1.501   1.918   4.722  0.8002  1.6204 -0.9620
  528TIP3    H2 1591   1.476   2.013   4.837 -1.5376 -1.6248  1.3876
  529TIP3   OH2 1592   2.347   5.794   1.185 -0.2631  0.3599 -0.1769
  529TIP3    H1 1593   2.311   5.880   1.208 -0.9740 -0.4403  1.9492
  529TIP3    H2 1594   2.306   5.734   1.247 -0.0585 -1.6030 -1.8420
  530TIP3   OH2 1595   4.562   1.826   3.831 -0.1671 -0.3042  0.1447
  530TIP3    H1 1596   4.554   1.884   3.755  0.3678  1.3382  1.2837
  530TIP3    H2 1597   4.477   1.832   3.875 -0.5069 -1.3231 -0.3601
  531TIP3   OH2 1598   2.756   4.384   0.477 -0.1508 -0.0377 -0.5112
  531TIP3    H1 1599   2.710   4.354   0.556  0.8597 -0.4444 -0.0626
  531TIP3    H2 1600   2.728   4.322   0.409 -1.2609  0.4957 -0.5566
  532TIP3   OH2 1601   5.529   5.058   3.861  0.6962  0.0036 -0.3028
  532TIP3    H1 1602   5.466   5.082   3.929 -0.5377 -2.1343 -0.5946
  532TIP3    H2 1603   5.615   5.068   3.902  0.1070  1.3339  0.6639
  533TIP3   OH2 1604   5.615   2.580   4.534 -0.0931 -0.4256 -0.0670
  533TIP3    H1 1605   5.580   2.667   4.513 -1.5256 -0.9906 -0.0951
  533TIP3    H2 1606   5.602   2.572   4.629 -2.1273 -1.4999 -0.3902
  534TIP3   OH2 1607   2.339   3.462   4.349 -0.0737 -0.3293  0.4122
  534TIP3    H1 1608   2.398   3.423   4.414  1.1410 -0.2234 -0.5896
  534TIP3    H2 1609   2.386   3.455   4.266 -1.3060  0.1469 -0.3631
  535TIP3   OH2 1610   0.624   2.557   0.443  0.0274 -0.1776  0.0430
  535TIP3    H1 1611   0.583   2.615   0.378  1.4033 -0.7674 -1.4086
  535TIP3    H2 1612   0.685   2.614   0.491 -1.9924  0.5851  1.8677
  536TIP3   OH2 1613   3.671   1.445   5.195 -0.9760 -0.7298  0.0069
  536TIP3    H1 1614   3.688   1.524   5.143  1.0580 -1.8877 -1.1815
  536TIP3    H2 1615   3.581   1.422   5.172 -0.1329 -1.3308 -3.3547
  537TIP3   OH2 1616   4.122   1.344   0.024 -0.3212  0.8315 -0.4554
  537TIP3    H1 1617   4.031   1.353   0.052 -0.5986 -0.5573 -0.7961
  537TIP3    H2 1618   4.148   1.257   0.056  1.3576  1.7609  0.8559
  538TIP3   OH2 1619   0.721   0.337   3.121 -0.1060  0.5236 -0.7333
  538TIP3    H1 1620   0.764   0.379   3.047 -0.7277  0.0856 -1.3568
  538TIP3    H2 1621   0.735   0.243   3.107 -0.2992  0.4333 -0.3380
  539TIP3   OH2 1622   2.911   1.434   0.138 -0.2047  0.1264 -0.3119
  539TIP3    H1 1623   2.874   1.346   0.140 -1.5704  0.6271 -1.5710
  539TIP3    H2 1624   2.861   1.483   0.203  0.0440  0.1590 -0.1452
  540TIP3   OH2 1625   5.043   0.595   2.465 -0.4923 -0.0997 -0.5197
  540TIP3    H1 1626   4.996   0.524   2.509 -1.0112  1.3039  1.2952
  540TIP3    H2 1627   4.981   0.628   2.400 -1.7018  1.0686  1.1598
  541TIP3   OH2 1628   5.245   5.517   2.989  0.3582 -0.4863 -0.4278
  541TIP3    H1 1629   5.196   5.454   3.040  1.4008 -0.3120  0.8457
  541TIP3    H2 1630   5.300   5.562   3.053  0.1851  1.1982 -1.4061
  542TIP3   OH2 1631   5.056   0.663   4.187  0.4175 -0.0353  0.1340
  542TIP3    H1 1632   5.150   0.643   4.185  0.1091 -1.7636  0.9237
  542TIP3    H2 1633   5.024   0.637   4.100  0.6833  0.7615 -0.2140
  543TIP3   OH2 1634   4.073   5.646   1.367 -0.4100  0.2517 -0.3884
  543TIP3    H1 1635   4.077   5.576   1.302 -0.1836  1.2193 -1.4525
  543TIP3    H2 1636   4.138   5.710   1.337 -0.0486  0.5534  0.9949
  544TIP3   OH2 1637   5.255   3.572   1.678 -0.2404  0.0817  0.1923
  544TIP3    H1 1638   5.291   3.589   1.765 -0.8743 -2.2956  0.9880
  544TIP3    H2 1639   5.163   3.554   1.693 -0.3844 -0.2272 -1.0038
  545TIP3   OH2 1640   5.692   2.767   3.088  0.0079 -0.0596 -0.1569
  545TIP3    H1 1641   5.647   2.839   3.044 -2.2664 -0.1428  1.8090
  545TIP3    H2 1642   5.662   2.689   3.043 -1.1272 -0.0415  0.5219
  546TIP3   OH2 1643   6.300   0.495   3.086  0.0958  0.2863  0.2317
  546TIP3    H1 1644   6.378   0.545   3.062  0.7953 -0.9694 -0.1500
  546TIP3    H2 1645   6.242   0.502   3.010  1.2127 -1.4846 -0.8446
  547TIP3   OH2 1646   1.155   4.471   1.337 -0.2610 -0.2670  0.6268
  547TIP3    H1 1647   1.248   4.475   1.314 -0.7533 -1.5754 -1.9572
  547TIP3    H2 1648   1.153   4.424   1.420  1.4212  0.6934  1.2671
  548TIP3   OH2 1649   5.202   3.801   3.569  0.3631  0.1710 -0.2224
  548TIP3    H1 1650   5.179   3.894   3.568  0.3038  0.1564 -1.4733
  548TIP3    H2 1651   5.160   3.767   3.648 -3.7868  0.1981 -2.1506
  549TIP3   OH2 1652   2.274   2.383   3.271  0.2220 -0.4235  0.3318
  549TIP3    H1 1653   2.288   2.306   3.327 -0.8220 -1.0925 -0.3038
  549TIP3    H2 1654   2.182   2.378   3.246  0.4831  0.2767 -0.8381
  550TIP3   OH2 1655   3.488   2.299   0.202 -0.1288 -0.3845 -0.1159
  550TIP3    H1 1656   3.522   2.376   0.249 -2.1204 -0.0741  0.9290
  550TIP3    H2 1657   3.445   2.335   0.125 -1.0894 -0.4106  0.3897
  551TIP3   OH2 1658   3.795   5.166   3.103  0.1802  0.4237  0.3718
  551TIP3    H1 1659   3.847   5.088   3.082 -1.4270 -0.0597 -2.2343
  551TIP3    H2 1660   3.740   5.180   3.026 -3.1558  1.2408  2.6967
  552TIP3   OH2 1661   1.527   4.782   1.954  0.2803  0.1504  0.1880
  552TIP3    H1 1662   1.489   4.711   2.006  0.1437  0.0209 -0.0840
  552TIP3    H2 1663   1.512   4.861   2.006 -2.2259  0.4232 -0.8219
  553TIP3   OH2 1664   4.988   5.290   2.005 -0.7271  0.4987  0.3915
  553TIP3    H1 1665   4.920   5.228   1.978 -0.6156  0.9317 -0.9551
  553TIP3    H2 1666   5.037   5.308   1.925 -0.9933  2.6152  0.6466
  554TIP3   OH2 1667   5.471   1.660   3.454  0.0251  0.8192  0.4565
  554TIP3    H1 1668   5.517   1.744   3.452  2.1997 -0.2663 -2.2615
  554TIP3    H2 1669   5.536   1.598   3.489 -0.5580 -0.1786 -0.1749
  555TIP3   OH2 1670   1.313   0.105   0.289  0.8174 -0.4532 -0.3277
  555TIP3    H1 1671   1.354   0.164   0.226 -1.1209  0.6273 -0.6344
  555TIP3    H2 1672   1.355   0.020   0.273  0.5608 -0.1758 -2.9249
  556TIP3   OH2 1673   5.646   0.782   4.878 -0.8701 -0.1770  0.8214
  556TIP3    H1 1674   5.708   0.851   4.899  0.3840 -0.9822 -0.1406
  556TIP3    H2 1675   5.590   0.776   4.955  0.9993 -0.2480  2.2358
  557TIP3   OH2 1676   4.345  -0.011   0.889  0.1609  0.2004 -0.6970
  557TIP3    H1 1677   4.318   0.063   0.943  2.3616  0.6427 -0.1008
  557TIP3    H2 1678   4.427   0.016   0.849  0.0528 -1.2269 -1.9814
  558TIP3   OH2 1679   1.350   3.802   4.261 -0.2286  0.3613 -0.0469
  558TIP3    H1 1680   1.354   3.707   4.263  1.0207  0.4185  1.6799
  558TIP3    H2 1681   1.417   3.831   4.322 -0.1630  2.3798 -0.9936
  559TIP3   OH2 1682   2.996   2.700   0.745 -0.0405 -0.9825  0.6920
  559TIP3    H1 1683   3.066   2.678   0.684  0.9303  0.3828  1.2652
  559TIP3    H2 1684   2.959   2.615   0.770  1.7912 -1.7901  0.8023
  560TIP3   OH2 1685   2.168   5.543   4.014  0.1670  0.0381 -0.2615
  560TIP3    H1 1686   2.210   5.562   3.931 -0.2250  2.0197 -0.0387
  560TIP3    H2 1687   2.236   5.558   4.080 -0.0919  0.5100 -0.0950
  561TIP3   OH2 1688   5.897   2.152   2.642 -0.6686  0.2484  0.1643
  561TIP3    H1 1689   5.963   2.220   2.652  0.0839 -0.2373 -1.2816
  561TIP3    H2 1690   5.831   2.191   2.584 -1.9997  0.9278  2.0076
  562TIP3   OH2 1691   2.668   1.077   2.462  0.0773 -0.4289  0.1174
  562TIP3    H1 1692   2.583   1.118   2.451  0.1719 -0.3741 -0.4010
  562TIP3    H2 1693   2.696   1.053   2.374  1.1475  0.6723  0.1155
  563TIP3   OH2 1694   2.140   2.122   1.874  0.3807  0.0109  0.1659
  563TIP3    H1 1695   2.101   2.044   1.833 -0.6361  0.6541 -0.1065
  563TIP3    H2 1696   2.087   2.195   1.843  2.2365  1.0172 -0.8138
  564TIP3   OH2 1697   1.124   0.081   2.642 -0.0017  0.0031  0.0467
  564TIP3    H1 1698   1.044   0.068   2.591 -1.0224 -0.1564  1.6381
  564TIP3    H2 1699   1.145   0.174   2.629 -0.0913 -0.0987 -0.8726
  565TIP3   OH2 1700   0.307   4.370   0.938  0.3406 -0.2444 -0.2934
  565TIP3    H1 1701   0.291   4.464   0.935  0.2139 -0.2782 -1.0659
  565TIP3    H2 1702   0.306   4.348   1.031  1.7939  0.7466 -0.0103
  566TIP3   OH2 1703   5.870   4.013   1.486  0.0244 -0.6201  0.3218
  566TIP3    H1 1704   5.886   3.935   1.538  1.0636 -0.1825  0.6908
  566TIP3    H2 1705   5.775   4.024   1.488 -0.0726 -1.4672  0.8577
  567TIP3   OH2 1706   0.613   2.974   3.061 -0.4318  0.9434 -0.3559
  567TIP3    H1 1707   0.695   3.021   3.046  0.3146  0.1386  0.9703
  567TIP3    H2 1708   0.641   2.884   3.083 -1.7227  0.3730 -0.9531
  568TIP3   OH2 1709   4.514   3.388   2.200  0.2953 -0.3437 -0.1590
  568TIP3    H1 1710   4.547   3.470   2.238  0.3645 -0.3504 -0.2036
  568TIP3    H2 1711   4.521   3.402   2.105  1.5137 -0.8799 -0.1681
  569TIP3   OH2 1712   4.632   0.401   2.491 -0.2245 -0.1794 -0.4183
  569TIP3    H1 1713   4.656   0.350   2.569  0.1219 -0.9182 -0.9985
  569TIP3    H2 1714   4.662   0.348   2.417 -1.2552  0.1345 -1.0827
  570TIP3   OH2 1715   1.822   3.001   1.560  0.3736 -0.0292 -0.5062
  570TIP3    H1 1716   1.863   3.088   1.564  1.7636 -0.6884  0.5906
  570TIP3    H2 1717   1.872   2.954   1.494  1.9266 -1.0516  1.2979
  571TIP3   OH2 1718   1.424   4.226   0.709 -0.1159  0.1103  0.3242
  571TIP3    H1 1719   1.391   4.235   0.620  1.4184 -1.3486 -0.4532
  571TIP3    H2 1720   1.348   4.198   0.761 -1.0390  1.0484 -0.4947
  572TIP3   OH2 1721   6.026   5.384   1.243 -0.7730  0.4210  0.2113
  572TIP3    H1 1722   5.960   5.355   1.181 -0.9765 -1.1944  1.1359
  572TIP3    H2 1723   5.996   5.353   1.328 -0.3452  2.3146  1.1193
  573TIP3   OH2 1724   1.236   3.766   2.865  0.2959 -0.0862 -0.0223
  573TIP3    H1 1725   1.255   3.681   2.905  1.3069  0.4689  0.7081
  573TIP3    H2 1726   1.288   3.828   2.915 -0.9273  1.0647 -0.1386
  574TIP3   OH2 1727   2.455   4.789   1.113  0.1714 -0.1920  0.2284
  574TIP3    H1 1728   2.435   4.742   1.193 -2.0911 -1.0509 -0.7824
  574TIP3    H2 1729   2.413   4.875   1.124  1.3486  0.3684  0.6250
  575TIP3   OH2 1730   3.886   1.732   0.513  0.1815  0.0022 -0.6098
  575TIP3    H1 1731   3.936   1.811   0.535 -0.7511  0.7887 -1.1866
  575TIP3    H2 1732   3.849   1.751   0.426  0.1734 -1.1940 -0.8817
  576TIP3   OH2 1733   1.415   3.818   3.062 -0.2655 -0.0286  0.7047
  576TIP3    H1 1734   1.498   3.865   3.062  0.6463 -1.5533  0.8280
  576TIP3    H2 1735   1.416   3.767   3.143 -1.2687 -0.1754  0.6442
  577TIP3   OH2 1736   4.612   3.333   0.048 -0.1160  0.0455 -0.2456
  577TIP3    H1 1737   4.535   3.348  -0.007 -1.0839 -0.5601  0.8915
  577TIP3    H2 1738   4.627   3.238   0.043  0.9299  0.2219 -0.9043
  578TIP3   OH2 1739   0.185   2.664   3.525 -0.5410 -0.3361 -0.1456
  578TIP3    H1 1740   0.103   2.684   3.479 -0.6797  0.4985  0.4266
  578TIP3    H2 1741   0.225   2.595   3.473 -0.9473  0.2040 -1.2203
  579TIP3   OH2 1742   6.263   5.334   0.004  0.2556 -0.3596  0.2986
  579TIP3    H1 1743   6.312   5.310  -0.075 -0.1003  0.2004 -0.0963
  579TIP3    H2 1744   6.323   5.313   0.076  1.3487  0.8970 -0.1901
  580TIP3   OH2 1745   0.750   4.135   1.270 -0.0139 -0.1199 -0.2442
  580TIP3    H1 1746   0.666   4.175   1.295  0.6715  0.3180  1.4938
  580TIP3    H2 1747   0.726   4.048   1.239 -1.3767  0.9947 -2.5910
  581TIP3   OH2 1748   1.595   4.747   0.163  0.5419 -0.0026 -0.6847
  581TIP3    H1 1749   1.674   4.699   0.190  0.7349  0.2287 -0.8298
  581TIP3    H2 1750   1.619   4.787   0.079 -0.0165 -0.6099 -1.1362
  582TIP3   OH2 1751   4.712   2.051   2.304  0.2728 -0.2093  0.5425
  582TIP3    H1 1752   4.777   2.115   2.333  0.2621 -0.1900  0.5239
  582TIP3    H2 1753   4.763   1.978   2.271  0.2853  0.1247 -0.1920
  583TIP3   OH2 1754   4.458   2.818   3.990 -0.3237  0.2186 -0.3586
  583TIP3    H1 1755   4.505   2.735   3.983  0.8729  1.0023 -2.3750
  583TIP3    H2 1756   4.522   2.879   4.026 -0.6977  0.6464 -0.4106
  584TIP3   OH2 1757   3.585   3.212   0.968  0.0608  0.3223 -0.3016
  584TIP3    H1 1758   3.574   3.199   0.874 -0.6786 -0.6576 -0.0917
  584TIP3    H2 1759   3.660   3.271   0.975  0.0222  0.5380 -1.5080
  585TIP3   OH2 1760   2.837   3.041   3.234 -0.0317  0.2786 -0.6339
  585TIP3    H1 1761   2.854   3.135   3.244 -0.7559  0.1606  3.4457
  585TIP3    H2 1762   2.922   3.000   3.244 -0.1092  0.4393  0.9671
  586TIP3   OH2 1763   1.245   4.150   0.915  0.1945  0.1646  0.1849
  586TIP3    H1 1764   1.194   4.217   0.870 -0.3570 -0.3231  0.0825
  586TIP3    H2 1765   1.261   4.186   1.002  0.2541  0.6031 -0.0067
  587TIP3   OH2 1766  -0.013   2.667   4.146 -0.6059 -0.3078  0.4393
  587TIP3    H1 1767   0.036   2.588   4.120  0.1283 -0.2054  1.4229
  587TIP3    H2 1768   0.018   2.685   4.235 -2.6221 -0.3583  1.2016
  588TIP3   OH2 1769   1.046   0.851   3.119  0.2380  0.2668  0.5596
  588TIP3    H1 1770   0.994   0.918   3.162 -0.6186  0.1650 -0.2949
  588TIP3    H2 1771   0.991   0.772   3.123 -0.8999  0.7542 -2.6532
  589TIP3   OH2 1772   1.625   5.280   2.001  0.0497  0.3564 -0.3444
  589TIP3    H1 1773   1.679   5.355   2.028  0.2043  0.0704  0.1610
  589TIP3    H2 1774   1.547   5.286   2.056  0.4130 -0.2911  0.2531
  590TIP3   OH2 1775   5.604   0.328   0.994 -0.3613 -0.1923 -0.2100
  590TIP3    H1 1776   5.632   0.396   1.055  0.6209 -0.2231 -0.6245
  590TIP3    H2 1777   5.574   0.376   0.917 -1.5964 -0.1541  0.2573
  591TIP3   OH2 1778   6.019   4.241   3.660 -0.1047 -0.3369  0.1926
  591TIP3    H1 1779   6.050   4.173   3.601  0.8515  1.1560 -1.0946
  591TIP3    H2 1780   6.057   4.218   3.745 -0.2426 -1.6782 -0.0905
  592TIP3   OH2 1781   2.767   4.816   1.187  0.1055  0.6129  0.4978
  592TIP3    H1 1782   2.826   4.761   1.135  0.2996  0.8036  0.5148
  592TIP3    H2 1783   2.684   4.768   1.186  0.6250 -0.3646  1.6424
  593TIP3   OH2 1784   0.026   3.324   4.399  0.2010 -0.7410  0.2129
  593TIP3    H1 1785   0.118   3.348   4.393 -0.3153  1.3046 -0.3599
  593TIP3    H2 1786   0.019   3.275   4.481  2.2324 -3.3749 -1.0221
  594TIP3   OH2 1787   3.521   3.886   2.727  0.3382 -0.1394  0.1650
  594TIP3    H1 1788   3.494   3.794   2.726  1.0093 -0.3389 -0.1161
  594TIP3    H2 1789   3.603   3.887   2.678  0.6109  0.5233  0.6240
  595TIP3   OH2 1790   4.724   4.636   4.953  0.2352 -0.3272 -0.0983
  595TIP3    H1 1791   4.632   4.608   4.958 -0.3040  1.4435  0.5760
  595TIP3    H2 1792   4.741   4.677   5.037  1.7033 -0.7237 -0.1841
  596TIP3   OH2 1793   3.820   5.012   0.029 -0.5172  0.2132 -0.2770
  596TIP3    H1 1794   3.793   4.921   0.028 -2.2096  0.6393 -2.6022
  596TIP3    H2 1795   3.914   5.009   0.044 -0.0868 -2.1233 -2.7002
  597TIP3   OH2 1796   4.233   3.905   5.054  0.1435  0.1615 -0.3411
  597TIP3    H1 1797   4.227   3.995   5.086  0.8780  0.5474 -1.2623
  597TIP3    H2 1798   4.315   3.872   5.090 -0.7831 -0.6308  1.1505
  598TIP3   OH2 1799   6.200   1.795   0.090  0.4162 -0.1972 -0.6251
  598TIP3    H1 1800   6.123   1.764   0.138 -0.7356  1.1203 -1.5403
  598TIP3    H2 1801   6.206   1.888   0.111  1.1908 -0.0749 -1.3250
  599TIP3   OH2 1802   0.009   3.320   3.111 -0.4882 -0.0039 -0.2420
  599TIP3    H1 1803   0.072   3.283   3.172 -0.7563  1.4293  0.9260
  599TIP3    H2 1804   0.046   3.301   3.024  1.3697  0.4919  0.4007
  600TIP3   OH2 1805   3.196   2.541   2.596 -0.0961 -0.8830  0.5498
  600TIP3    H1 1806   3.148   2.585   2.666 -0.3954 -1.0216  0.4346
  600TIP3    H2 1807   3.197   2.603   2.524  1.6742 -0.0742  1.2427
  601TIP3   OH2 1808   2.331   1.582   3.009  0.1226  0.2015  0.1147
  601TIP3    H1 1809   2.242   1.601   2.977 -0.8224 -0.6409  2.1109
  601TIP3    H2 1810   2.323   1.497   3.053  1.8422  0.3118  0.6987
  602TIP3   OH2 1811   5.773   3.812   2.891 -0.1482 -0.2834 -0.2129
  602TIP3    H1 1812   5.681   3.819   2.866 -0.5172  0.3696  1.2488
  602TIP3    H2 1813   5.798   3.902   2.914  0.3887 -0.7156  0.9639
  603TIP3   OH2 1814   3.290   2.133   3.714 -0.3971 -0.1115  0.5482
  603TIP3    H1 1815   3.250   2.113   3.799  0.1515 -0.0036  0.8373
  603TIP3    H2 1816   3.235   2.203   3.677  0.5874  1.3911  1.7889
  604TIP3   OH2 1817   3.498   5.647   3.045 -0.4205  0.2865  0.0788
  604TIP3    H1 1818   3.550   5.624   2.968 -0.9526 -1.5848  0.2214
  604TIP3    H2 1819   3.412   5.608   3.029 -0.7403  0.4281  1.3361
  605TIP3   OH2 1820   0.989   5.605   3.662 -0.2363  0.2001 -0.4134
  605TIP3    H1 1821   1.011   5.694   3.637 -0.2040  0.5132  0.6708
  605TIP3    H2 1822   1.004   5.602   3.757 -0.2760 -0.9430 -0.4231
  606TIP3   OH2 1823   5.497   5.234   1.246 -0.1388  0.2445 -0.3934
  606TIP3    H1 1824   5.450   5.159   1.208 -1.3613  0.1411  1.2163
  606TIP3    H2 1825   5.578   5.196   1.281  0.6451  0.2165 -2.1385
  607TIP3   OH2 1826   0.629   5.927   3.280 -0.4404  0.4496 -0.2855
  607TIP3    H1 1827   0.563   5.862   3.302 -2.4370  2.6397  0.6087
  607TIP3    H2 1828   0.666   5.954   3.364  1.9435 -1.0058 -0.7974
  608TIP3   OH2 1829   0.261   1.867   2.561  0.5595 -0.4316  0.2814
  608TIP3    H1 1830   0.292   1.914   2.484 -0.0833  2.8005  1.8561
  608TIP3    H2 1831   0.166   1.882   2.562  0.8200  1.6961  2.9081
  609TIP3   OH2 1832   5.175   2.374   1.649 -0.5668 -0.1059  0.6675
  609TIP3    H1 1833   5.247   2.409   1.596 -1.2574  0.5903  0.1591
  609TIP3    H2 1834   5.193   2.280   1.655  1.7314  0.3628  2.6807
  610TIP3   OH2 1835   3.070   3.575   0.568 -0.7667  0.6827  0.3880
  610TIP3    H1 1836   3.080   3.652   0.512 -0.3770 -0.5519 -1.3405
  610TIP3    H2 1837   3.018   3.514   0.516 -1.1422 -0.2027  1.7429
  611TIP3   OH2 1838   5.424   2.683   1.216  0.3323  0.2237  0.5517
  611TIP3    H1 1839   5.474   2.747   1.266 -1.5080  1.2586  1.1395
  611TIP3    H2 1840   5.340   2.724   1.201 -0.2312 -1.3043 -0.7692
  612TIP3   OH2 1841   4.575   1.096   4.324  0.2182 -0.1435  0.2520
  612TIP3    H1 1842   4.528   1.015   4.306 -0.4442  0.6382 -1.7784
  612TIP3    H2 1843   4.527   1.137   4.396  0.7047 -1.6108  1.4767
  613TIP3   OH2 1844   5.399   0.912   3.315  0.1227  0.0024 -0.1075
  613TIP3    H1 1845   5.419   0.830   3.360  0.0216 -0.3038 -0.6099
  613TIP3    H2 1846   5.319   0.943   3.357  1.1048  0.7430  1.2629
  614TIP3   OH2 1847   1.226   1.603   5.106  0.4369 -0.2101 -0.2384
  614TIP3    H1 1848   1.222   1.699   5.108  0.5158 -0.1548 -1.7275
  614TIP3    H2 1849   1.142   1.575   5.143 -0.3780  0.4759 -1.5037
  615TIP3   OH2 1850   3.011   4.773   1.661 -0.1366  0.6493 -0.0454
  615TIP3    H1 1851   2.942   4.747   1.723 -0.1625  1.0103  0.0767
  615TIP3    H2 1852   3.070   4.827   1.712  0.6446 -0.2564  0.0360
  616TIP3   OH2 1853   3.424   2.838   4.306  0.6025  0.5267 -0.1613
  616TIP3    H1 1854   3.365   2.908   4.278 -0.5812  0.3757  1.7626
  616TIP3    H2 1855   3.464   2.871   4.386  1.4468 -0.2613 -0.2454
  617TIP3   OH2 1856   4.263   1.263   1.428  0.0921  0.0858 -0.5529
  617TIP3    H1 1857   4.238   1.278   1.519 -1.0362  3.4125 -1.2575
  617TIP3    H2 1858   4.317   1.184   1.431 -0.3287 -0.2513  2.8879
  618TIP3   OH2 1859   2.960   2.142   1.675  0.1861  0.7865 -0.8266
  618TIP3    H1 1860   2.894   2.205   1.702 -1.2368 -0.6025 -0.8973
  618TIP3    H2 1861   2.921   2.097   1.600  0.5908 -1.0348  0.0014
  619TIP3   OH2 1862   1.480   4.628   4.363  0.8305  0.0020  0.1559
  619TIP3    H1 1863   1.469   4.722   4.371  1.4183  0.0843  0.0374
  619TIP3    H2 1864   1.509   4.600   4.450  1.5631  0.0707 -0.0559
  620TIP3   OH2 1865   4.204   3.813   1.441  0.5261 -0.4121 -0.1520
  620TIP3    H1 1866   4.252   3.888   1.477  0.0086 -0.8502  1.5394
  620TIP3    H2 1867   4.122   3.850   1.409  1.3206  0.1090 -1.6913
  621TIP3   OH2 1868   5.103   4.083   4.024 -0.3322 -0.3952 -0.4331
  621TIP3    H1 1869   5.131   4.026   4.096 -0.3231 -2.3794 -1.8946
  621TIP3    H2 1870   5.124   4.171   4.053 -0.2835 -1.1157  1.9565
  622TIP3   OH2 1871   1.679   0.101   0.529  0.3273 -0.2193  0.0733
  622TIP3    H1 1872   1.741   0.066   0.593 -0.2278  2.1834  2.0862
  622TIP3    H2 1873   1.598   0.054   0.547  0.3587 -0.0479  0.7001
  623TIP3   OH2 1874   2.106   2.142   3.215 -0.2125 -0.2295  0.6915
  623TIP3    H1 1875   2.021   2.159   3.256  0.6500  0.6012  2.2071
  623TIP3    H2 1876   2.084   2.114   3.126 -2.0593  0.1755  0.9751
  624TIP3   OH2 1877   1.267   5.505   1.260 -0.1618 -0.5424 -0.1958
  624TIP3    H1 1878   1.289   5.574   1.198 -0.5745  0.8402  1.1162
  624TIP3    H2 1879   1.176   5.484   1.242 -0.4763  0.3148  0.3215
  625TIP3   OH2 1880   6.266   0.865   0.622  0.4989  0.6118 -0.1156
  625TIP3    H1 1881   6.296   0.883   0.712 -0.0070 -1.0668  0.4332
  625TIP3    H2 1882   6.176   0.897   0.620  0.9889  2.0522 -0.5378
  626TIP3   OH2 1883   1.498   4.240   2.362 -0.1065  0.4747 -0.2311
  626TIP3    H1 1884   1.491   4.222   2.456 -1.5039 -0.2901 -0.4640
  626TIP3    H2 1885   1.531   4.330   2.357  2.7085 -0.3665  0.9721
  627TIP3   OH2 1886   0.362   2.897   5.022  0.0555 -0.3996  0.1735
  627TIP3    H1 1887   0.336   2.840   5.094  3.1962  0.0211  1.8005
  627TIP3    H2 1888   0.420   2.843   4.968 -0.9706 -0.2101 -1.1718
  628TIP3   OH2 1889   0.041   4.183   3.631  0.5591 -0.0446 -0.5047
  628TIP3    H1 1890  -0.025   4.229   3.579  0.8323  1.0969  0.1197
  628TIP3    H2 1891   0.087   4.128   3.567  0.8711  1.3041 -1.4901
  629TIP3   OH2 1892   4.302   5.875   3.308  0.7237  0.3067 -0.1928
  629TIP3    H1 1893   4.358   5.808   3.345  0.0738  0.4253  1.0448
  629TIP3    H2 1894   4.318   5.953   3.362 -0.5262  0.3737  0.1163
  630TIP3   OH2 1895   2.335   6.018   1.742  0.8210  0.2595 -0.3583
  630TIP3    H1 1896   2.389   5.986   1.814  1.3677 -0.4431 -1.0680
  630TIP3    H2 1897   2.259   5.960   1.741  1.3908 -0.4940 -1.0919
  631TIP3   OH2 1898   0.302   3.132   2.098 -0.1262  0.2144 -0.0102
  631TIP3    H1 1899   0.284   3.101   2.187  0.8393  0.2307  0.2022
  631TIP3    H2 1900   0.397   3.127   2.090 -0.2478 -0.5168 -1.3149
  632TIP3   OH2 1901   4.318   3.214   1.047  0.4265  0.1443 -0.2383
  632TIP3    H1 1902   4.273   3.295   1.022 -0.6620 -0.8561 -1.7220
  632TIP3    H2 1903   4.394   3.210   0.988  0.2578 -0.0905 -0.4446
  633TIP3   OH2 1904   0.425   3.931   3.192 -0.4589  0.0195 -0.7861
  633TIP3    H1 1905   0.389   4.019   3.183  0.5924  0.4359 -1.1332
  633TIP3    H2 1906   0.494   3.941   3.257 -1.4671 -0.9225  0.4634
  634TIP3   OH2 1907   0.002   5.347   5.165 -0.0192 -0.0765  0.0678
  634TIP3    H1 1908   0.028   5.267   5.212  0.9096  1.5629  2.5845
  634TIP3    H2 1909   0.049   5.343   5.082 -1.6943 -3.1099 -0.8984
  635TIP3   OH2 1910   0.629   4.833   1.349  0.0265 -0.0932 -0.0636
  635TIP3    H1 1911   0.654   4.826   1.441  1.2212  0.5183 -0.3180
  635TIP3    H2 1912   0.618   4.927   1.334 -4.4870 -0.3275  0.4907
  636TIP3   OH2 1913   6.251   2.458   5.205  0.4341 -0.2729 -0.5647
  636TIP3    H1 1914   6.217   2.369   5.214  0.0110 -0.0204  0.4933
  636TIP3    H2 1915   6.229   2.483   5.115 -2.0189 -0.2170 -0.0159
  637TIP3   OH2 1916   4.071   2.490   0.770 -0.3909 -0.2068 -0.1490
  637TIP3    H1 1917   4.093   2.583   0.777  0.5535 -0.3099 -1.3233
  637TIP3    H2 1918   4.129   2.458   0.701 -0.2810 -1.8114  0.6600
  638TIP3   OH2 1919   2.749   3.571   2.770  0.0463  0.0164  0.0895
  638TIP3    H1 1920   2.764   3.638   2.837  0.2754 -0.4570  0.5208
  638TIP3    H2 1921   2.836   3.535   2.751 -0.1145 -0.4082  0.1325
  639TIP3   OH2 1922   3.089   2.187   3.973  0.9327 -0.5041 -0.4145
  639TIP3    H1 1923   3.123   2.216   4.058 -2.2936  1.1157  0.5003
  639TIP3    H2 1924   3.080   2.268   3.922  0.1468 -1.0715 -1.2176
  640TIP3   OH2 1925   4.181   0.984   4.481 -0.2118 -0.0399  0.5828
  640TIP3    H1 1926   4.237   1.002   4.406  0.2831  0.8384  1.1453
  640TIP3    H2 1927   4.158   0.891   4.473  0.2262 -0.0700 -0.3777
  641TIP3   OH2 1928   4.829   3.999   3.696  0.5449  0.0624 -0.4349
  641TIP3    H1 1929   4.916   3.991   3.734 -0.3599 -1.2749  1.4693
  641TIP3    H2 1930   4.769   3.998   3.770 -1.1976 -0.4609 -1.7685
  642TIP3   OH2 1931   4.927   1.895   4.534  0.1509  0.4937 -0.3514
  642TIP3    H1 1932   4.934   1.915   4.440 -1.6092  1.4820 -0.3246
  642TIP3    H2 1933   4.852   1.836   4.540  1.3217 -0.9808  0.2847
  643TIP3   OH2 1934   5.763   0.931   3.362  0.4000 -0.0980 -0.3267
  643TIP3    H1 1935   5.799   0.856   3.408  1.8055  0.4867 -0.4195
  643TIP3    H2 1936   5.738   0.898   3.276 -0.9620 -0.8917  0.3412
  644TIP3   OH2 1937   5.090   1.208   2.266 -0.8889  0.2419  0.5992
  644TIP3    H1 1938   5.100   1.210   2.171 -2.6490 -2.0640  0.2688
  644TIP3    H2 1939   5.165   1.157   2.297 -0.5591  0.6045  0.3972
  645TIP3   OH2 1940   2.679   3.504   0.038 -0.3696  0.6857  0.0045
  645TIP3    H1 1941   2.675   3.450  -0.041  1.2306  0.2057  0.2150
  645TIP3    H2 1942   2.638   3.450   0.106  0.4162  0.0977  0.0176
  646TIP3   OH2 1943   3.656   2.713   3.138 -0.1165 -0.6055 -0.0601
  646TIP3    H1 1944   3.659   2.771   3.061 -0.6142 -1.5005 -0.7678
  646TIP3    H2 1945   3.691   2.630   3.107  0.3516 -0.7665  0.8825
  647TIP3   OH2 1946   5.084   5.768   0.507  0.6060  0.4387 -0.6695
  647TIP3    H1 1947   5.017   5.814   0.557  0.6954 -0.2328  0.0740
  647TIP3    H2 1948   5.072   5.800   0.417 -1.3298 -0.3729 -0.7476
  648TIP3   OH2 1949   5.943   1.439   0.306  0.1484  0.4820 -0.1694
  648TIP3    H1 1950   5.858   1.394   0.315  0.6604 -0.1658  2.0403
  648TIP3    H2 1951   6.007   1.368   0.302  0.8265  0.9601  1.5395
  649TIP3   OH2 1952   4.894   2.747   1.456 -0.0132  0.5542 -0.0116
  649TIP3    H1 1953   4.833   2.698   1.510  0.2031  0.5340  0.2156
  649TIP3    H2 1954   4.849   2.829   1.438 -0.6677 -0.0050 -0.9839
  650TIP3   OH2 1955   3.252   0.080   3.819  0.3676  0.1319 -0.0936
  650TIP3    H1 1956   3.252   0.174   3.802 -0.3931  0.0317 -0.6806
  650TIP3    H2 1957   3.171   0.064   3.868 -0.1729 -0.4113 -1.1387
  651TIP3   OH2 1958   5.262   4.084   2.337 -0.2466 -0.2104  0.2828
  651TIP3    H1 1959   5.327   4.036   2.286 -0.5107 -0.2394 -0.0307
  651TIP3    H2 1960   5.307   4.108   2.418  0.3043  0.1948 -0.1406
  652TIP3   OH2 1961   2.738   0.600   1.972 -0.6835 -0.4467  0.3573
  652TIP3    H1 1962   2.663   0.659   1.980  0.5490  1.3833 -0.7268
  652TIP3    H2 1963   2.814   0.658   1.970  0.8358 -2.2508  1.8021
  653TIP3   OH2 1964   4.211   1.620   2.104  0.1276  1.0305  0.0966
  653TIP3    H1 1965   4.293   1.649   2.142  0.1927  0.7952  0.1381
  653TIP3    H2 1966   4.225   1.528   2.083  0.3356  1.3311 -1.1685
  654TIP3   OH2 1967   5.718   2.689   2.214  0.0754  0.0370 -0.5701
  654TIP3    H1 1968   5.637   2.652   2.248 -0.1855 -0.5282 -1.7464
  654TIP3    H2 1969   5.706   2.784   2.219  0.1740 -0.0185  1.1495
  655TIP3   OH2 1970   1.920   3.568   3.847 -0.2496 -0.6653 -0.2676
  655TIP3    H1 1971   1.922   3.654   3.890  0.0648 -0.5836 -0.4342
  655TIP3    H2 1972   2.005   3.562   3.803 -1.0517 -0.1909 -1.9645
  656TIP3   OH2 1973   5.991   0.231   1.779 -0.0043 -0.3296  0.5543
  656TIP3    H1 1974   5.965   0.190   1.696  0.3625 -0.6495  0.5952
  656TIP3    H2 1975   5.910   0.230   1.832  0.3100 -2.3201  1.0803
  657TIP3   OH2 1976   0.673   1.997   4.009 -0.4318  0.1382 -0.1698
  657TIP3    H1 1977   0.747   1.985   3.950 -0.9920 -0.6472 -0.7385
  657TIP3    H2 1978   0.612   2.052   3.960 -2.1423 -2.7403 -1.5707
  658TIP3   OH2 1979   1.646   4.933   0.921  0.1104 -0.7776  0.5499
  658TIP3    H1 1980   1.581   4.938   0.992  0.2741  1.2318  0.6194
  658TIP3    H2 1981   1.708   4.866   0.950 -1.0237 -1.5702  1.2482
  659TIP3   OH2 1982   2.607   3.943   0.341 -0.2464 -0.8672 -0.3404
  659TIP3    H1 1983   2.531   3.997   0.319  0.2577 -0.4570 -1.1133
  659TIP3    H2 1984   2.617   3.884   0.267  0.9974  0.0079 -0.9181
  660TIP3   OH2 1985   2.172   0.654   0.990 -0.1767  0.1141  0.3124
  660TIP3    H1 1986   2.239   0.703   0.941 -0.8199  0.1160 -0.5893
  660TIP3    H2 1987   2.223   0.598   1.049  0.6130  0.4959  0.0208
  661TIP3   OH2 1988   1.585   1.079   1.267  0.4871 -0.4847  0.0770
  661TIP3    H1 1989   1.644   1.109   1.337 -0.0867 -1.2396  0.9006
  661TIP3    H2 1990   1.543   1.001   1.303  0.1799 -0.8896 -1.1236
  662TIP3   OH2 1991   2.309   3.436   1.761  0.3764  0.0562 -0.2156
  662TIP3    H1 1992   2.325   3.423   1.855 -1.6933 -0.1600  0.1606
  662TIP3    H2 1993   2.350   3.520   1.741  2.1682 -0.5837  0.4965
  663TIP3   OH2 1994   3.546   2.751   1.200 -0.0489  0.0521 -0.1866
  663TIP3    H1 1995   3.611   2.704   1.147 -0.0962  1.3762 -1.4912
  663TIP3    H2 1996   3.581   2.839   1.209 -1.8818  0.9832 -1.4434
  664TIP3   OH2 1997   5.769   1.167   2.197  0.1822  0.0761 -0.2894
  664TIP3    H1 1998   5.773   1.191   2.290  0.2561 -2.3735  0.4039
  664TIP3    H2 1999   5.711   1.091   2.195  0.0901  0.1595 -2.2892
  665TIP3   OH2 2000   0.693   5.621   3.270  0.4259 -0.1964  0.9135
  665TIP3    H1 2001   0.607   5.632   3.311 -1.0303 -0.8036 -1.7631
  665TIP3    H2 2002   0.750   5.683   3.317 -1.7482  1.1800  1.9064
  666TIP3   OH2 2003   0.828   1.592   2.326  0.8380 -0.6274  0.0750
  666TIP3    H1 2004   0.746   1.543   2.329  0.1652  0.4671  0.1035
  666TIP3    H2 2005   0.804   1.676   2.286  1.8250 -0.0772  0.6024
  667TIP3   OH2 2006   4.068   3.392   4.156 -0.3199  0.3678  0.0923
  667TIP3    H1 2007   4.040   3.339   4.231  0.7839 -0.7101 -0.2249
  667TIP3    H2 2008   3.986   3.413   4.110 -0.7703 -1.6029 -0.1064
  668TIP3   OH2 2009   1.391   3.826   1.863  0.0685 -0.3190  0.1093
  668TIP3    H1 2010   1.380   3.796   1.953 -0.6119 -2.0760 -0.5162
  668TIP3    H2 2011   1.316   3.790   1.816  0.1282  1.0068 -1.0745
  669TIP3   OH2 2012   2.216   0.283   3.610  0.1415 -0.0624 -0.0187
  669TIP3    H1 2013   2.227   0.221   3.538  0.0563 -0.2250  0.1085
  669TIP3    H2 2014   2.122   0.301   3.613  0.2355  0.5488 -0.4502
  670TIP3   OH2 2015   1.239   1.689   4.257 -0.4872  0.0253  0.2652
  670TIP3    H1 2016   1.256   1.660   4.346  2.6087  0.1520 -0.1727
  670TIP3    H2 2017   1.191   1.617   4.216 -2.0269  0.0130  1.9989
  671TIP3   OH2 2018   1.400   5.749   3.905 -0.0893 -0.2814  0.3091
  671TIP3    H1 2019   1.394   5.841   3.929  0.4507 -0.4430  1.0883
  671TIP3    H2 2020   1.401   5.702   3.988  3.2737 -0.7700  0.1288
  672TIP3   OH2 2021   5.943   3.914   4.436 -0.1363  0.7223  0.0465
  672TIP3    H1 2022   6.029   3.929   4.396  0.5606  1.5647  1.7642
  672TIP3    H2 2023   5.912   3.832   4.397  0.2755  1.6628 -2.4875
  673TIP3   OH2 2024   0.082   0.861   0.440  0.0257  0.0711  0.4955
  673TIP3    H1 2025   0.148   0.848   0.508 -0.6769 -1.7056  0.8912
  673TIP3    H2 2026  -0.000   0.869   0.487 -0.3733 -0.3580 -0.1164
  674TIP3   OH2 2027   0.791   1.048   4.637 -0.1772 -0.2044 -0.5160
  674TIP3    H1 2028   0.719   1.030   4.697 -1.1821 -2.9123 -2.3480
  674TIP3    H2 2029   0.847   0.971   4.641  0.9334  0.5049 -1.4308
  675TIP3   OH2 2030   1.478   4.485   5.162 -0.2878 -0.1629 -0.4519
  675TIP3    H1 2031   1.562   4.531   5.154 -1.0989  1.6806  0.8557
  675TIP3    H2 2032   1.457   4.489   5.255 -1.7302 -0.7748 -0.7218
  676TIP3   OH2 2033   6.331   5.004   1.136 -0.1500 -0.3898 -0.0087
  676TIP3    H1 2034   6.337   5.005   1.041  1.6119  1.8475  0.0432
  676TIP3    H2 2035   6.295   5.090   1.159  0.5663 -0.4326  1.3872
  677TIP3   OH2 2036   2.158   5.601   1.853  0.3885 -0.0061  0.9172
  677TIP3    H1 2037   2.181   5.508   1.859  0.3125 -0.0735  0.2430
  677TIP3    H2 2038   2.242   5.646   1.847  0.4348 -0.0050  1.5002
  678TIP3   OH2 2039   0.465   1.655   1.251  0.2488  0.6320  0.0001
  678TIP3    H1 2040   0.537   1.603   1.216 -0.6606 -0.2618 -0.5754
  678TIP3    H2 2041   0.447   1.720   1.183 -0.2836  0.0868 -0.3801
  679TIP3   OH2 2042   5.530   3.113   5.036  0.2437 -0.0590  0.3362
  679TIP3    H1 2043   5.531   3.068   4.952  0.3087  1.1497 -0.3404
  679TIP3    H2 2044   5.536   3.043   5.102 -0.7213 -1.0838 -0.6281
  680TIP3   OH2 2045   0.988   1.433   3.456 -0.0549 -0.0223  0.4808
  680TIP3    H1 2046   1.074   1.440   3.413  0.4747  2.4560  1.7322
  680TIP3    H2 2047   0.934   1.499   3.412  0.2841  2.0488  2.9005
  681TIP3   OH2 2048   4.454   2.146   1.522  0.1899 -0.0256  0.4243
  681TIP3    H1 2049   4.481   2.116   1.609 -1.2682 -0.2161  0.8206
  681TIP3    H2 2050   4.511   2.097   1.462  0.1496 -1.0676  1.2006
  682TIP3   OH2 2051   0.925   1.830   1.927  0.3386 -0.1404  0.5435
  682TIP3    H1 2052   0.959   1.884   1.856  0.1381 -0.9445 -0.1796
  682TIP3    H2 2053   0.999   1.818   1.986  1.2358 -1.5527 -0.8157
  683TIP3   OH2 2054   5.274   0.729   4.761 -0.0730  0.6482 -0.0183
  683TIP3    H1 2055   5.301   0.727   4.669  1.1701 -1.8556  0.3120
  683TIP3    H2 2056   5.310   0.811   4.794  2.6838 -0.0705 -0.9450
  684TIP3   OH2 2057   1.533   2.803   3.941 -0.9932 -0.6754  0.5695
  684TIP3    H1 2058   1.534   2.720   3.989  0.1244 -0.0916  1.6109
  684TIP3    H2 2059   1.625   2.828   3.934 -1.0341 -0.9841 -2.4297
  685TIP3   OH2 2060   2.183   3.853   2.501 -0.0549 -0.0471  0.2515
  685TIP3    H1 2061   2.261   3.798   2.501  0.8315  1.1545 -0.6724
  685TIP3    H2 2062   2.136   3.829   2.421  0.9107  1.2586 -0.7563
  686TIP3   OH2 2063   3.638   5.854   0.892 -0.1734  0.2335  0.6146
  686TIP3    H1 2064   3.630   5.862   0.797  1.6055 -0.4935  0.3574
  686TIP3    H2 2065   3.723   5.812   0.905 -0.2289  0.6350  2.5508
  687TIP3   OH2 2066   5.608   2.069   1.940 -0.4006  0.2788 -0.5044
  687TIP3    H1 2067   5.630   2.162   1.946  0.5911 -0.0380  2.0129
  687TIP3    H2 2068   5.667   2.026   2.002 -0.7447 -2.0666 -1.6830
  688TIP3   OH2 2069   5.409   0.429   3.850  0.1354  0.2139 -0.9441
  688TIP3    H1 2070   5.448   0.350   3.811 -1.1713 -0.7088 -0.4645
  688TIP3    H2 2071   5.459   0.444   3.930  1.0725  0.5150 -1.5688
  689TIP3   OH2 2072   1.712   4.956   2.996 -0.5708 -0.0361  0.1794
  689TIP3    H1 2073   1.625   4.961   2.957 -0.5857 -3.4073 -0.4560
  689TIP3    H2 2074   1.768   5.001   2.933 -1.4994 -0.0049 -0.6512
  690TIP3   OH2 2075   2.010   0.929   3.800  0.3751 -0.7178  0.7042
  690TIP3    H1 2076   1.974   0.983   3.871 -0.2925 -0.2914  0.0548
  690TIP3    H2 2077   1.967   0.844   3.811  0.6013 -0.7895  1.0657
  691TIP3   OH2 2078   4.813   4.034   3.991  0.0632 -0.1737 -0.4861
  691TIP3    H1 2079   4.817   3.955   4.044  0.0871  1.1387  1.5851
  691TIP3    H2 2080   4.898   4.077   4.006 -0.5629  1.0221 -0.2541
  692TIP3   OH2 2081   0.279   0.431   3.733 -0.3438  0.2345  0.5944
  692TIP3    H1 2082   0.252   0.359   3.791 -0.3513  0.2850  0.6532
  692TIP3    H2 2083   0.360   0.399   3.692 -0.3291  0.2063  0.6453
  693TIP3   OH2 2084   2.286   6.008   2.482 -0.7780 -0.9578  0.6870
  693TIP3    H1 2085   2.240   5.976   2.405 -0.2277  0.2490 -0.1768
  693TIP3    H2 2086   2.371   5.964   2.479  0.1501  0.7684 -0.7461
  694TIP3   OH2 2087   4.815   4.433   1.850 -0.0893 -0.9219  0.6446
  694TIP3    H1 2088   4.775   4.496   1.791  0.3614 -0.2035  1.0818
  694TIP3    H2 2089   4.899   4.473   1.874  0.3733 -1.8642  0.6329
  695TIP3   OH2 2090   2.682   0.522   2.321 -0.2892  0.7398  0.0978
  695TIP3    H1 2091   2.681   0.592   2.256 -0.0493  0.0583 -0.6540
  695TIP3    H2 2092   2.772   0.519   2.352  0.0619 -0.1919 -0.9474
  696TIP3   OH2 2093   1.733   5.672   3.705  0.3678 -0.4368  0.1578
  696TIP3    H1 2094   1.721   5.691   3.798  3.7703 -0.3927  0.6927
  696TIP3    H2 2095   1.783   5.591   3.703 -1.0077 -1.3294 -1.7529
  697TIP3   OH2 2096   1.979   4.802   2.604 -0.3325  0.0432 -0.3292
  697TIP3    H1 2097   2.040   4.872   2.583 -0.8140  1.1116  1.5512
  697TIP3    H2 2098   1.913   4.806   2.535 -0.0291  1.0590 -0.5746
  698TIP3   OH2 2099   4.473   4.260   1.082  0.1107 -0.3613  0.0996
  698TIP3    H1 2100   4.560   4.228   1.059  0.6544  0.4186  0.9825
  698TIP3    H2 2101   4.445   4.202   1.153  1.2985  1.2943  2.0333
  699TIP3   OH2 2102   4.995   2.548   1.735 -0.4675  0.4111 -0.0454
  699TIP3    H1 2103   5.045   2.467   1.723 -1.5538 -0.3554  0.3849
  699TIP3    H2 2104   5.034   2.610   1.675  1.1461 -0.0861  0.4489
  700TIP3   OH2 2105   6.104   0.021   0.467 -0.0381  0.4177 -0.3395
  700TIP3    H1 2106   6.088   0.034   0.560 -0.3566  1.2886 -0.5035
  700TIP3    H2 2107   6.017   0.005   0.430  0.0743  0.1777 -0.5012
  701TIP3   OH2 2108   3.033   3.450   4.931 -0.0450 -0.0315  0.1150
  701TIP3    H1 2109   3.088   3.525   4.908 -1.5388  0.3616 -2.5175
  701TIP3    H2 2110   3.072   3.376   4.886 -1.7627  0.3266 -2.1219
  702TIP3   OH2 2111   4.740   1.874   5.016  0.5879 -0.2467 -0.8702
  702TIP3    H1 2112   4.829   1.865   4.982  0.1020 -0.2328 -2.1892
  702TIP3    H2 2113   4.730   1.968   5.031 -0.0778  0.1241 -3.2726
  703TIP3   OH2 2114   1.163   4.125   0.512  0.1471  0.3265 -0.3507
  703TIP3    H1 2115   1.130   4.178   0.585 -1.3082  0.8222 -1.3352
  703TIP3    H2 2116   1.229   4.181   0.471  0.6469  0.2273  0.2963
  704TIP3   OH2 2117   1.291   0.106   1.136  0.1765 -0.0398  0.1686
  704TIP3    H1 2118   1.289   0.064   1.222  0.8675 -2.3968 -0.8935
  704TIP3    H2 2119   1.384   0.118   1.118  0.0778 -0.3953 -0.6047
  705TIP3   OH2 2120   0.883   5.815   2.626  0.2577 -0.2499  0.0430
  705TIP3    H1 2121   0.835   5.769   2.695 -0.6803  0.6733  0.0331
  705TIP3    H2 2122   0.903   5.900   2.664  0.4793 -0.0436 -0.5315
  706TIP3   OH2 2123   2.763   3.444   4.985  0.3630  0.0637  0.2510
  706TIP3    H1 2124   2.716   3.522   4.955  1.3278  0.7390  0.4588
  706TIP3    H2 2125   2.855   3.465   4.974  0.6389 -1.4305 -0.6102
  707TIP3   OH2 2126   0.573   1.302   0.275  0.5098 -0.3920  0.2539
  707TIP3    H1 2127   0.663   1.295   0.306  0.7336 -0.0079 -0.2785
  707TIP3    H2 2128   0.577   1.267   0.185  0.7047  2.0823 -0.7679
  708TIP3   OH2 2129   0.568   5.858   2.127  0.4827  0.1559 -0.6562
  708TIP3    H1 2130   0.522   5.805   2.062 -0.1672  2.5255 -2.2580
  708TIP3    H2 2131   0.512   5.934   2.140  1.1370  0.3008  1.9125
  709TIP3   OH2 2132   3.449   5.139   3.537  0.0439 -0.5380 -0.4847
  709TIP3    H1 2133   3.363   5.181   3.545 -0.3182 -1.2396 -0.5123
  709TIP3    H2 2134   3.483   5.135   3.626  0.7447  1.1138 -0.6514
  710TIP3   OH2 2135   5.128   1.559   4.435  0.4018  0.2363 -0.3869
  710TIP3    H1 2136   5.055   1.513   4.393  0.2605 -0.2751  0.3947
  710TIP3    H2 2137   5.104   1.563   4.528  0.8125  1.1384 -0.3059
  711TIP3   OH2 2138   1.301   4.357   0.442 -0.1436 -0.0049 -0.0966
  711TIP3    H1 2139   1.381   4.405   0.418 -0.2755 -0.0986 -0.7284
  711TIP3    H2 2140   1.234   4.424   0.451 -0.2496 -0.0359 -0.6494
  712TIP3   OH2 2141   5.163   2.695   0.859 -0.1303  0.1960 -0.2082
  712TIP3    H1 2142   5.127   2.626   0.804  0.7785 -0.0483 -0.5207
  712TIP3    H2 2143   5.107   2.696   0.937 -1.5711  0.6943 -1.2024
  713TIP3   OH2 2144   3.764   4.219   0.047 -0.1981  0.1542 -0.1059
  713TIP3    H1 2145   3.809   4.146   0.005 -1.7176  0.0424 -1.6614
  713TIP3    H2 2146   3.695   4.178   0.100 -1.2944  0.4281 -1.2788
  714TIP3   OH2 2147   2.707   0.761   0.821  0.1692  0.1657  0.3412
  714TIP3    H1 2148   2.699   0.669   0.846 -0.9003 -0.0085 -0.6155
  714TIP3    H2 2149   2.706   0.809   0.904 -1.1356 -0.5605  0.7629
  715TIP3   OH2 2150   2.973   0.198   2.625  0.0285 -0.2662  0.2160
  715TIP3    H1 2151   2.927   0.138   2.566 -1.4192  0.9846  0.0157
  715TIP3    H2 2152   2.922   0.195   2.706 -0.6159  1.3492 -0.1004
  716TIP3   OH2 2153   4.143   1.870   2.898  0.3259 -0.1220 -0.1602
  716TIP3    H1 2154   4.049   1.884   2.891  0.0133 -0.4088  2.5947
  716TIP3    H2 2155   4.181   1.939   2.844 -1.4360  0.7592 -0.3426
  717TIP3   OH2 2156   2.861   1.799   2.412 -0.3156  0.0597 -0.5892
  717TIP3    H1 2157   2.936   1.854   2.436  1.2737 -1.5985 -1.5424
  717TIP3    H2 2158   2.868   1.787   2.318 -1.2477 -0.9036 -0.5593
  718TIP3   OH2 2159   4.603   4.330   1.657 -0.2789  0.4909 -0.2085
  718TIP3    H1 2160   4.681   4.310   1.606 -1.0250  0.8951 -1.5605
  718TIP3    H2 2161   4.593   4.257   1.718  1.6672  0.8877  0.6462
  719TIP3   OH2 2162   0.882   4.803   2.001  0.0796 -0.3122  0.1607
  719TIP3    H1 2163   0.904   4.884   2.047 -0.7191 -0.3599  0.6407
  719TIP3    H2 2164   0.966   4.772   1.965  0.4745  0.4483  0.4104
  720TIP3   OH2 2165   0.781   1.617   3.391  0.3441 -0.1892  0.1727
  720TIP3    H1 2166   0.732   1.602   3.310  1.8867  0.2612 -0.8858
  720TIP3    H2 2167   0.719   1.597   3.461 -1.6674  1.3657 -1.0810
  721TIP3   OH2 2168   1.661   2.523   3.896  0.0793 -0.0189  0.1230
  721TIP3    H1 2169   1.708   2.603   3.871  0.3220  0.0986  0.9169
  721TIP3    H2 2170   1.711   2.452   3.855 -0.6622  0.2667 -1.3700
  722TIP3   OH2 2171   1.739   1.613   1.276 -0.8108  0.3499 -0.6152
  722TIP3    H1 2172   1.742   1.582   1.186  0.0473 -1.2234 -0.0801
  722TIP3    H2 2173   1.801   1.686   1.279  1.2837 -1.3269 -0.7276
  723TIP3   OH2 2174   1.753   2.049   3.705 -0.0440 -0.4812 -0.0492
  723TIP3    H1 2175   1.741   1.958   3.734  2.4165 -0.5363  1.0457
  723TIP3    H2 2176   1.840   2.050   3.664 -1.2873  0.7551 -2.9819
  724TIP3   OH2 2177   3.201   0.081   0.268 -0.0990  0.0508  0.0813
  724TIP3    H1 2178   3.265   0.019   0.302 -0.5904  0.6204  2.1367
  724TIP3    H2 2179   3.145   0.102   0.342  1.0295  4.2539  0.0348
  725TIP3   OH2 2180   5.083   3.486   4.903 -0.2026 -0.0636 -0.2437
  725TIP3    H1 2181   5.010   3.475   4.964 -0.9898  1.0973 -0.9567
  725TIP3    H2 2182   5.146   3.418   4.929 -1.6098 -1.2267  0.2440
  726TIP3   OH2 2183   3.886   4.387   4.717  0.3961 -0.2370 -0.4390
  726TIP3    H1 2184   3.943   4.363   4.643 -0.3443 -1.3057 -0.6894
  726TIP3    H2 2185   3.914   4.330   4.788 -0.3041 -0.7273 -0.5460
  727TIP3   OH2 2186   6.346   2.350   1.056 -0.1758 -0.4354 -0.3173
  727TIP3    H1 2187   6.415   2.389   1.002 -1.6219 -1.7404 -3.3559
  727TIP3    H2 2188   6.279   2.419   1.062  1.3130  0.9284  2.8552
  728TIP3   OH2 2189   2.812   4.796   0.558  0.7823 -0.2159  0.2115
  728TIP3    H1 2190   2.793   4.755   0.473  0.1652 -1.2778  0.8467
  728TIP3    H2 2191   2.769   4.881   0.553  0.7881 -0.2492 -0.5632
  729TIP3   OH2 2192   4.114   0.494   0.385 -0.2322  0.3985 -0.3363
  729TIP3    H1 2193   4.182   0.431   0.409  0.5481  1.3496  0.0104
  729TIP3    H2 2194   4.043   0.440   0.351  0.1578 -0.7186  0.5470
  730TIP3   OH2 2195   1.684   1.020   4.204  0.0142 -0.0828  0.5370
  730TIP3    H1 2196   1.731   1.020   4.121 -0.0168  1.7713  0.4677
  730TIP3    H2 2197   1.750   1.040   4.270  0.2279 -2.4946  1.1476
  731TIP3   OH2 2198   3.530   2.960   1.428  0.1383  0.0897  0.2632
  731TIP3    H1 2199   3.507   2.985   1.518  0.9315 -1.1150  0.8288
  731TIP3    H2 2200   3.596   3.024   1.401  0.5154 -0.0416  0.8549
  732TIP3   OH2 2201   5.226   0.063   3.763 -0.7651 -0.0726  0.1685
  732TIP3    H1 2202   5.154   0.123   3.742 -0.3897  0.3763  0.1655
  732TIP3    H2 2203   5.269   0.048   3.678 -1.4194 -1.0810  0.0040
  733TIP3   OH2 2204   0.913   2.316   2.248  0.6636  0.2198  0.0598
  733TIP3    H1 2205   0.901   2.326   2.154 -0.4288  1.4908  0.3040
  733TIP3    H2 2206   0.926   2.222   2.261  1.8482  0.1327 -1.4446
  734TIP3   OH2 2207   6.087   4.088   0.368 -0.3828 -0.2251 -0.5126
  734TIP3    H1 2208   6.076   4.056   0.279  0.9872  0.4664 -0.9651
  734TIP3    H2 2209   6.179   4.116   0.372 -0.1886 -0.9375  1.3426
  735TIP3   OH2 2210   0.821   2.701   2.561  1.0221 -0.4628  0.1681
  735TIP3    H1 2211   0.828   2.774   2.499 -0.1727  0.2854  0.8716
  735TIP3    H2 2212   0.781   2.630   2.511 -0.9394  0.4822  0.3046
  736TIP3   OH2 2213   1.211   2.013   0.531  0.0967 -0.1811  0.1414
  736TIP3    H1 2214   1.298   2.027   0.496 -0.4419 -1.2737 -1.7409
  736TIP3    H2 2215   1.202   1.918   0.538 -0.8924 -0.0805  0.4566
  737TIP3   OH2 2216   0.223   1.868   3.989 -0.1128  0.1939  0.0714
  737TIP3    H1 2217   0.311   1.835   4.009  0.7079  1.5347 -1.0802
  737TIP3    H2 2218   0.221   1.956   4.029 -0.4358  0.6935 -1.0018
  738TIP3   OH2 2219   5.168   0.430   4.797 -0.1410 -0.3254  0.7920
  738TIP3    H1 2220   5.188   0.524   4.796 -1.5417  0.0165 -1.2163
  738TIP3    H2 2221   5.100   0.421   4.864 -0.1639  0.1342  0.8351
  739TIP3   OH2 2222   3.496   4.638   4.222  0.1638  0.0941 -0.4884
  739TIP3    H1 2223   3.449   4.715   4.255 -1.3981 -0.6326 -0.9128
  739TIP3    H2 2224   3.588   4.662   4.226 -0.1392  1.0971  1.6455
  740TIP3   OH2 2225   5.296   0.670   3.757 -0.4031 -0.6512  0.1924
  740TIP3    H1 2226   5.325   0.580   3.776 -0.3758 -0.9559 -1.1805
  740TIP3    H2 2227   5.377   0.716   3.734 -0.6138 -0.7633 -0.8506
  741TIP3   OH2 2228   2.820   0.239   2.255  0.3203  0.0047 -0.3058
  741TIP3    H1 2229   2.827   0.287   2.173  0.4643 -1.3932 -1.1554
  741TIP3    H2 2230   2.817   0.306   2.323 -0.1728  1.2088 -1.4741
  742TIP3   OH2 2231   5.747   0.435   4.486 -0.3534 -0.0180 -0.4052
  742TIP3    H1 2232   5.826   0.381   4.493 -0.4846 -0.5099 -2.2596
  742TIP3    H2 2233   5.766   0.511   4.542  1.3366 -0.2524 -0.5929
  743TIP3   OH2 2234   4.755   0.743   2.727 -1.0279  0.4535 -0.8287
  743TIP3    H1 2235   4.791   0.699   2.650  0.0671  1.8531 -1.1612
  743TIP3    H2 2236   4.822   0.806   2.753 -1.7666  0.6531  0.7296
  744TIP3   OH2 2237   1.038   0.605   0.874 -0.1207 -0.6193 -0.0933
  744TIP3    H1 2238   1.043   0.515   0.841 -0.3084 -1.2526  1.4882
  744TIP3    H2 2239   1.107   0.610   0.940  0.4879  0.7059 -0.7915
  745TIP3   OH2 2240   4.052   3.806   3.954  0.3547 -0.0580 -0.0796
  745TIP3    H1 2241   4.095   3.736   3.905  0.3163  0.9766 -1.6753
  745TIP3    H2 2242   3.973   3.825   3.903  0.8656  1.7907 -0.2211
  746TIP3   OH2 2243   3.261   3.453   3.774 -0.4607 -0.0442 -0.4480
  746TIP3    H1 2244   3.268   3.518   3.844 -1.5407 -0.4263  0.0423
  746TIP3    H2 2245   3.336   3.394   3.788  0.0211  0.5776 -0.3663
  747TIP3   OH2 2246   1.477   1.405   5.077  0.2478  0.1677  0.1506
  747TIP3    H1 2247   1.482   1.487   5.126 -0.6490  0.4181 -0.1533
  747TIP3    H2 2248   1.518   1.340   5.134  2.3032  1.0706 -0.2041
  748TIP3   OH2 2249   6.279   0.021   1.147 -0.7512 -0.2300  0.1396
  748TIP3    H1 2250   6.328   0.091   1.104  0.4333  0.3792  2.3689
  748TIP3    H2 2251   6.191   0.056   1.157 -0.1529  1.0113  1.2816
  749TIP3   OH2 2252   2.542   4.546   0.646  0.2678  0.0460  0.8938
  749TIP3    H1 2253   2.561   4.523   0.555  0.5738  1.0737  0.6937
  749TIP3    H2 2254   2.524   4.640   0.644 -3.8414 -0.5334  1.1982
  750TIP3   OH2 2255   0.817   4.341   4.242 -0.7284 -0.0046 -0.0942
  750TIP3    H1 2256   0.883   4.281   4.207  0.3787 -0.5978  2.7231
  750TIP3    H2 2257   0.850   4.428   4.219 -1.3211 -0.3409 -2.4938
  751TIP3   OH2 2258   1.182   0.954   0.094  0.3588 -0.5128 -0.1605
  751TIP3    H1 2259   1.210   1.019   0.030  0.7190 -0.7657 -0.2649
  751TIP3    H2 2260   1.262   0.908   0.118 -0.0735 -1.9204 -1.2131
  752TIP3   OH2 2261   0.998   1.389   1.394 -0.4646 -1.0009 -0.3574
  752TIP3    H1 2262   0.907   1.362   1.383 -1.0967  0.4565  0.9951
  752TIP3    H2 2263   1.012   1.388   1.489  0.3752  0.5193 -0.4444
  753TIP3   OH2 2264   0.566   2.704   2.727  0.0829  0.4120 -0.0132
  753TIP3    H1 2265   0.631   2.753   2.778  1.4805 -1.4892  0.1429
  753TIP3    H2 2266   0.602   2.616   2.721 -1.4032 -0.1312 -1.9283
  754TIP3   OH2 2267   0.114   1.346   0.225 -0.2917 -0.0311 -0.2625
  754TIP3    H1 2268   0.165   1.382   0.153 -0.1504 -1.2535 -0.8069
  754TIP3    H2 2269   0.164   1.270   0.255 -0.1475  0.6697  1.4099
  755TIP3   OH2 2270   3.005   0.504   3.329 -0.6136 -0.0668 -0.0900
  755TIP3    H1 2271   2.953   0.488   3.407  0.0344  0.0817  0.3769
  755TIP3    H2 2272   2.944   0.542   3.266 -0.6905  1.7704  1.0453
  756TIP3   OH2 2273   5.474   1.515   3.168 -0.1572 -0.1793  0.4414
  756TIP3    H1 2274   5.412   1.570   3.121 -0.2372  0.6068  1.4409
  756TIP3    H2 2275   5.486   1.558   3.252  0.5298 -1.1744  0.8759
  757TIP3   OH2 2276   5.325   2.814   5.003 -0.0911 -0.0348 -0.0416
  757TIP3    H1 2277   5.410   2.841   5.037 -0.2107  1.0623 -0.5608
  757TIP3    H2 2278   5.342   2.788   4.912 -0.3959  0.8177 -0.3569
  758TIP3   OH2 2279   4.598   3.080   2.802  0.1208 -0.0009 -0.2628
  758TIP3    H1 2280   4.523   3.022   2.810  0.0098 -0.3792 -3.0381
  758TIP3    H2 2281   4.670   3.033   2.843 -0.7541 -0.4302  0.8107
  759TIP3   OH2 2282   4.476   1.502   4.731  0.2738  0.0159  0.4443
  759TIP3    H1 2283   4.386   1.474   4.712  0.9841 -1.5641 -0.8407
  759TIP3    H2 2284   4.485   1.490   4.826 -0.4285 -1.2101  0.3766
  760TIP3   OH2 2285   1.729   1.134   1.488  0.0312 -0.4892 -0.5504
  760TIP3    H1 2286   1.771   1.219   1.482  2.2876 -1.4323  0.5830
  760TIP3    H2 2287   1.740   1.108   1.580 -2.7951 -0.9852 -0.2639
  761TIP3   OH2 2288   0.029   2.668   2.462  0.5743  0.2984 -0.5859
  761TIP3    H1 2289   0.110   2.691   2.508  0.3148  1.4280 -0.6636
  761TIP3    H2 2290  -0.032   2.642   2.531 -0.3883  3.6545  0.0140
  762TIP3   OH2 2291   3.559   0.238   4.984 -0.3643 -0.0830  0.0230
  762TIP3    H1 2292   3.647   0.269   5.005 -0.5285  0.7840 -0.5491
  762TIP3    H2 2293   3.568   0.200   4.897 -0.7705  0.9673 -0.4913
  763TIP3   OH2 2294   3.591   2.037   0.995 -0.2240  0.0331  0.5571
  763TIP3    H1 2295   3.668   2.084   1.026  1.5549 -0.7563 -2.3317
  763TIP3    H2 2296   3.624   1.979   0.927 -3.2931 -0.8816 -0.3031
  764TIP3   OH2 2297   4.769   1.621   0.641  0.1247  0.2398 -0.1511
  764TIP3    H1 2298   4.771   1.545   0.583  0.3789  0.0655  0.0817
  764TIP3    H2 2299   4.855   1.662   0.630  0.8848 -0.8238  1.4377
  765TIP3   OH2 2300   0.516   1.025   3.905  0.8117  0.3654  0.1699
  765TIP3    H1 2301   0.501   1.036   3.999  1.9797  1.4086  0.2619
  765TIP3    H2 2302   0.457   1.089   3.864  0.5608  0.1604  0.2104
  766TIP3   OH2 2303   4.564   5.965   1.747 -0.4800  0.5290  0.5445
  766TIP3    H1 2304   4.635   5.938   1.689 -0.3437 -0.3022  1.0703
  766TIP3    H2 2305   4.535   5.883   1.788 -2.4000  0.7018 -0.3709
  767TIP3   OH2 2306   0.366   5.915   1.172  0.7148 -0.7390  0.0394
  767TIP3    H1 2307   0.285   5.963   1.187  1.2260  0.1524  0.1078
  767TIP3    H2 2308   0.363   5.841   1.232  0.1427 -0.4650  0.3562
  768TIP3   OH2 2309   6.125   0.195   3.882 -0.3144 -0.0753  0.2540
  768TIP3    H1 2310   6.195   0.195   3.947 -0.3231 -2.6984  0.3572
  768TIP3    H2 2311   6.168   0.219   3.800  0.7845 -1.7748  0.2860
  769TIP3   OH2 2312   3.363   3.069   5.141 -0.0944  0.2279 -0.2228
  769TIP3    H1 2313   3.446   3.093   5.184  1.6082  0.5216 -3.3603
  769TIP3    H2 2314   3.300   3.134   5.172  0.8016  0.0506  2.1995
  770TIP3   OH2 2315   5.112   3.869   4.802  0.4277 -0.0083  0.3002
  770TIP3    H1 2316   5.196   3.862   4.847 -0.0617  0.2064  1.2665
  770TIP3    H2 2317   5.091   3.963   4.806  0.2882 -0.0151 -0.2143
  771TIP3   OH2 2318   3.227   4.745   3.015  0.0870 -0.5946  0.0351
  771TIP3    H1 2319   3.221   4.781   2.926 -1.6004  0.0767  0.3904
  771TIP3    H2 2320   3.299   4.682   3.010  0.0925 -0.4960 -1.7865
  772TIP3   OH2 2321   3.619   4.354   1.109 -0.4762 -0.8738  0.0117
  772TIP3    H1 2322   3.638   4.436   1.062 -0.4325 -1.1376 -0.4347
  772TIP3    H2 2323   3.538   4.322   1.069 -0.0361 -1.4901 -0.4103
  773TIP3   OH2 2324   0.599   1.681   3.752  0.0344  0.2515  0.0974
  773TIP3    H1 2325   0.509   1.658   3.729 -0.6147 -0.4740  2.9393
  773TIP3    H2 2326   0.640   1.598   3.775  1.4786  0.5772 -1.1404
  774TIP3   OH2 2327   5.590   5.015   1.779 -0.3066  1.0272 -0.3599
  774TIP3    H1 2328   5.613   4.959   1.854  1.7426  0.5994 -1.2432
  774TIP3    H2 2329   5.571   4.954   1.708  0.3331  1.4266 -0.8853
  775TIP3   OH2 2330   2.961   1.269   2.102 -0.1644  0.3319 -0.1067
  775TIP3    H1 2331   3.036   1.298   2.049 -0.7780 -2.2951 -2.6624
  775TIP3    H2 2332   2.953   1.336   2.170  1.9659  2.8998 -2.1282
  776TIP3   OH2 2333   6.276   1.420   2.907 -0.4086  0.9841  0.3641
  776TIP3    H1 2334   6.241   1.367   2.835 -0.6177 -0.0593  1.2194
  776TIP3    H2 2335   6.201   1.470   2.938 -0.4257  1.0801  0.1696
  777TIP3   OH2 2336   3.169   3.222   4.877  0.0466  0.3003 -0.0057
  777TIP3    H1 2337   3.139   3.170   4.951 -0.5928  2.7163  1.5708
  777TIP3    H2 2338   3.261   3.197   4.866 -0.0676 -0.6987  1.0717
  778TIP3   OH2 2339   0.243   5.890   2.081  0.1563  0.6523  0.0559
  778TIP3    H1 2340   0.156   5.851   2.095 -0.2650  1.4904 -0.1377
  778TIP3    H2 2341   0.234   5.979   2.113  0.0393  1.7044 -2.6021
  779TIP3   OH2 2342   4.977   5.609   3.260 -0.3856  0.1255 -0.1615
  779TIP3    H1 2343   4.991   5.684   3.202 -0.4797  0.4524  0.2376
  779TIP3    H2 2344   4.882   5.597   3.261 -0.4606  0.7535  0.7199
  780TIP3   OH2 2345   5.686   0.083   0.091  0.0777 -0.5098 -0.0074
  780TIP3    H1 2346   5.651   0.162   0.132  3.2798  1.6001 -0.9174
  780TIP3    H2 2347   5.714   0.028   0.164  1.6566  1.1932  0.7370
  781TIP3   OH2 2348   4.629   3.858   2.414  0.4720 -0.4060 -0.3274
  781TIP3    H1 2349   4.564   3.921   2.381 -0.3314 -1.2881 -0.4915
  781TIP3    H2 2350   4.707   3.910   2.431  0.0945  0.4914 -1.2535
  782TIP3   OH2 2351   3.953   2.413   2.469  0.2584 -0.6330  0.2311
  782TIP3    H1 2352   3.915   2.390   2.554 -2.2663  1.2675 -0.2683
  782TIP3    H2 2353   4.047   2.413   2.484 -0.0074 -2.4699  2.4278
  783TIP3   OH2 2354   3.376   4.469   0.583  0.0624 -0.0549 -0.0618
  783TIP3    H1 2355   3.470   4.481   0.587  0.2356 -1.0455 -0.6293
  783TIP3    H2 2356   3.354   4.419   0.662  0.2885 -1.2885 -0.7483
  784TIP3   OH2 2357   3.491   0.227   0.252 -0.0622  0.3838  0.0070
  784TIP3    H1 2358   3.537   0.191   0.176 -2.0885  0.4446 -1.3053
  784TIP3    H2 2359   3.475   0.151   0.308  0.9492  0.2520  0.1379
  785TIP3   OH2 2360   4.113   4.701   4.210  0.5671  0.6223  0.2189
  785TIP3    H1 2361   4.157   4.771   4.164  1.1348 -0.2596 -0.6197
  785TIP3    H2 2362   4.178   4.631   4.216  0.1020  0.2514  1.2542
  786TIP3   OH2 2363   5.318   2.411   2.801 -0.4299 -0.0658 -0.2327
  786TIP3    H1 2364   5.342   2.492   2.755 -1.8701  0.6662  0.2306
  786TIP3    H2 2365   5.244   2.377   2.752  1.1428 -2.0360 -1.3857
  787TIP3   OH2 2366   3.978   0.750   0.322 -0.0085  0.0424 -0.3959
  787TIP3    H1 2367   3.964   0.696   0.244  2.9855 -0.0712 -0.9788
  787TIP3    H2 2368   4.004   0.687   0.389  0.5930  0.4515 -0.2394
  788TIP3   OH2 2369   2.199   1.245   3.708  0.3357  0.8634  0.2285
  788TIP3    H1 2370   2.207   1.156   3.676  1.7946  0.3392  1.9256
  788TIP3    H2 2371   2.247   1.298   3.644 -0.8797  0.5588 -1.0052
  789TIP3   OH2 2372   0.217   2.522   4.784 -0.3456 -0.6529 -0.5123
  789TIP3    H1 2373   0.269   2.452   4.823  0.7487  0.2898 -0.2230
  789TIP3    H2 2374   0.260   2.603   4.812 -2.6652  0.2455  0.7629
  790TIP3   OH2 2375   0.532   0.863   3.229 -0.0437  0.0654  0.4371
  790TIP3    H1 2376   0.575   0.784   3.260 -1.1960  0.1818  2.5490
  790TIP3    H2 2377   0.521   0.917   3.308 -1.3090  1.3266 -0.5385
  791TIP3   OH2 2378   4.102   5.188   2.002  0.1943  0.3713  0.1353
  791TIP3    H1 2379   4.186   5.143   1.999 -0.4022 -0.7813  0.2617
  791TIP3    H2 2380   4.037   5.119   1.994 -0.7675  1.1669  0.7703
  792TIP3   OH2 2381   2.208   4.546   3.812  0.3161  0.3618  0.5636
  792TIP3    H1 2382   2.280   4.526   3.872  0.0771  0.9104  1.0401
  792TIP3    H2 2383   2.173   4.629   3.843  0.6836  1.0649 -0.8119
  793TIP3   OH2 2384   6.063   1.702   0.816 -0.2383  0.0493 -0.2354
  793TIP3    H1 2385   6.012   1.623   0.797 -0.1881  0.3400 -1.6748
  793TIP3    H2 2386   6.144   1.691   0.767 -0.9546  1.7475 -1.9846
  794TIP3   OH2 2387   4.007   1.386   3.022 -0.0160  1.0552 -0.0757
  794TIP3    H1 2388   4.001   1.481   3.013  0.6600  1.0027 -1.2010
  794TIP3    H2 2389   4.100   1.368   3.023 -0.1364  0.3264 -0.8136
  795TIP3   OH2 2390   5.695   1.585   0.549 -0.3062 -0.0035 -0.5198
  795TIP3    H1 2391   5.614   1.535   0.558  0.8204 -2.2206 -1.9139
  795TIP3    H2 2392   5.754   1.548   0.614  0.3842 -0.1952 -1.2362
  796TIP3   OH2 2393   4.676   1.158   1.517  0.7522  0.3057 -0.1501
  796TIP3    H1 2394   4.728   1.119   1.447  0.7688  0.6929 -0.3586
  796TIP3    H2 2395   4.695   1.252   1.511 -0.0210  0.4611 -0.2683
  797TIP3   OH2 2396   2.787   3.321   1.280  0.3697 -0.1749 -0.1104
  797TIP3    H1 2397   2.753   3.400   1.237  0.3220 -0.5173 -0.7106
  797TIP3    H2 2398   2.867   3.351   1.324  0.2796  0.2374 -0.2157
  798TIP3   OH2 2399   3.396   5.902   3.021  0.0171 -0.3539 -0.1829
  798TIP3    H1 2400   3.446   5.822   3.005 -0.7778 -0.8756 -0.1085
  798TIP3    H2 2401   3.322   5.897   2.961  0.9586  1.2745 -1.5680
  799TIP3   OH2 2402   0.868   4.617   4.220 -0.5193 -0.2037 -0.2830
  799TIP3    H1 2403   0.837   4.698   4.179 -1.1169 -1.0175 -1.4931
  799TIP3    H2 2404   0.859   4.633   4.314  0.1111  1.4106 -0.4691
  800TIP3   OH2 2405   5.441   0.451   2.907 -0.4338  0.0029 -0.1905
  800TIP3    H1 2406   5.534   0.473   2.909 -0.1020 -1.3072 -0.2204
  800TIP3    H2 2407   5.417   0.442   2.999 -0.4804  0.1158 -0.1912
  801TIP3   OH2 2408   4.164   0.852   1.414  0.5938 -0.0200 -0.3119
  801TIP3    H1 2409   4.240   0.850   1.472 -0.0293 -1.7139  0.5287
  801TIP3    H2 2410   4.125   0.765   1.423 -0.0805 -0.0258 -2.5720
  802TIP3   OH2 2411   2.375   2.322   0.459  0.4911 -0.6221 -0.1678
  802TIP3    H1 2412   2.296   2.269   0.451  0.0372 -0.0148  0.2203
  802TIP3    H2 2413   2.375   2.354   0.549  1.9060 -1.7084  0.2663
  803TIP3   OH2 2414   3.131   5.362   2.823  0.0509  0.2783  0.0924
  803TIP3    H1 2415   3.194   5.371   2.752 -0.1216 -2.7551 -0.5679
  803TIP3    H2 2416   3.053   5.409   2.792  0.7729  1.0547 -0.6107
  804TIP3   OH2 2417   4.242   5.875   1.360  0.9633 -0.3125 -0.4768
  804TIP3    H1 2418   4.223   5.915   1.276  0.3359  0.6270  0.0925
  804TIP3    H2 2419   4.232   5.946   1.424 -1.6610 -1.6022  0.7485
  805TIP3   OH2 2420   0.316   4.416   0.030 -0.0920  0.6178 -0.5816
  805TIP3    H1 2421   0.390   4.417  -0.030  0.2711 -0.0136 -0.1473
  805TIP3    H2 2422   0.339   4.478   0.099 -0.5600  1.4311 -1.1427
  806TIP3   OH2 2423   3.342   2.456   3.228 -0.2931  0.0603 -0.4209
  806TIP3    H1 2424   3.382   2.543   3.221  0.6473 -0.2974  0.2646
  806TIP3    H2 2425   3.406   2.404   3.276  0.2861 -1.6998 -2.8684
  807TIP3   OH2 2426   6.114   3.559   0.659 -0.1843 -0.1333  0.3793
  807TIP3    H1 2427   6.091   3.481   0.708 -1.5034  0.6923  1.1345
  807TIP3    H2 2428   6.207   3.573   0.677 -0.4486 -0.3006  2.0236
  808TIP3   OH2 2429   2.430   0.863   1.185 -0.4699 -0.1725  0.6563
  808TIP3    H1 2430   2.362   0.902   1.239 -0.8446 -0.2520  0.2466
  808TIP3    H2 2431   2.445   0.777   1.224 -1.9625 -0.9418 -0.3570
  809TIP3   OH2 2432   4.587   0.836   3.849  0.5506  0.2371  0.1975
  809TIP3    H1 2433   4.508   0.834   3.795  1.3370  1.3237 -1.0402
  809TIP3    H2 2434   4.628   0.750   3.836 -0.2503 -0.2181  0.6091
  810TIP3   OH2 2435   4.697   1.718   4.649 -0.0369  0.6617  0.1442
  810TIP3    H1 2436   4.626   1.653   4.646  0.8632 -0.3446 -0.0229
  810TIP3    H2 2437   4.742   1.699   4.731  1.2704 -0.0819 -0.7087
  811TIP3   OH2 2438   3.948   4.464   1.497 -0.5134  0.0868  0.1266
  811TIP3    H1 2439   3.914   4.407   1.428 -0.3362  0.4726 -0.2834
  811TIP3    H2 2440   4.013   4.519   1.453 -0.2097  0.1620  0.6545
  812TIP3   OH2 2441   1.675   3.954   3.087 -0.0658  0.4301  0.0772
  812TIP3    H1 2442   1.734   3.984   3.018  0.9694  1.2518  1.2604
  812TIP3    H2 2443   1.696   3.861   3.097 -0.6229  0.1624 -1.0644
  813TIP3   OH2 2444   5.658   0.272   0.504 -0.0314 -0.2599 -0.2117
  813TIP3    H1 2445   5.571   0.270   0.464  0.1737 -1.8964 -0.6370
  813TIP3    H2 2446   5.697   0.353   0.472 -1.3538  0.4561 -0.0777
  814TIP3   OH2 2447   0.186   1.266   2.042  0.4442 -0.4488  0.1949
  814TIP3    H1 2448   0.173   1.309   2.127  1.1422 -0.2531  0.2094
  814TIP3    H2 2449   0.099   1.234   2.018  0.1610 -0.1501  0.7924
  815TIP3   OH2 2450   3.205   5.099   2.894 -0.6250  0.1665 -0.2984
  815TIP3    H1 2451   3.292   5.115   2.857 -1.2985 -2.2904 -3.3803
  815TIP3    H2 2452   3.151   5.169   2.857 -0.4874  0.1330 -0.5656
  816TIP3   OH2 2453   5.644   5.359   0.183  0.4344 -0.2584 -0.1068
  816TIP3    H1 2454   5.675   5.375   0.272  0.6383  1.4273 -0.4468
  816TIP3    H2 2455   5.553   5.390   0.183  0.4433 -0.2266 -0.4962
  817TIP3   OH2 2456   2.515   5.185   1.882  0.0526  0.2140 -0.2761
  817TIP3    H1 2457   2.421   5.165   1.884  0.3322 -1.1715 -0.4995
  817TIP3    H2 2458   2.518   5.278   1.859 -1.2608  0.2670 -0.3488
  818TIP3   OH2 2459   2.541   1.652   0.056 -0.3360 -0.6374  0.0257
  818TIP3    H1 2460   2.606   1.702   0.105 -1.6156  0.5535  0.5827
  818TIP3    H2 2461   2.457   1.687   0.086 -1.2293 -1.8765 -0.9363
  819TIP3   OH2 2462   3.969   3.565   2.596 -0.3868 -0.1300  0.6191
  819TIP3    H1 2463   3.992   3.523   2.679  2.6087  0.3498  0.1659
  819TIP3    H2 2464   4.007   3.653   2.602 -0.9909  0.2692 -0.8647
  820TIP3   OH2 2465   1.804   1.442   2.656 -0.1304  0.0616  0.0824
  820TIP3    H1 2466   1.884   1.394   2.635  0.2528  0.9994 -0.7169
  820TIP3    H2 2467   1.746   1.377   2.694  0.0909 -1.2237 -1.6254
  821TIP3   OH2 2468   3.761   1.386   2.189  0.3493  0.1570 -0.0616
  821TIP3    H1 2469   3.731   1.398   2.278 -0.5679 -0.9101 -0.2158
  821TIP3    H2 2470   3.847   1.345   2.198  0.2062 -0.0609  0.3286
  822TIP3   OH2 2471   4.569   4.742   1.822  0.1044  0.2328  0.0674
  822TIP3    H1 2472   4.654   4.699   1.814 -0.2461 -0.2026 -1.7914
  822TIP3    H2 2473   4.577   4.823   1.772 -0.3262  0.6269  0.6112
  823TIP3   OH2 2474   5.848   3.339   0.376  0.2199 -0.3367 -0.0866
  823TIP3    H1 2475   5.878   3.402   0.310 -0.5221  0.3093  0.1795
  823TIP3    H2 2476   5.919   3.274   0.381  1.2966  0.8128  0.0852
  824TIP3   OH2 2477   4.685   2.236   0.540  0.4967  0.4178  0.4507
  824TIP3    H1 2478   4.618   2.243   0.608 -0.8297 -0.5625 -0.7040
  824TIP3    H2 2479   4.699   2.326   0.511 -3.4875  0.4260 -2.1699
  825TIP3   OH2 2480   0.847   2.732   3.420  0.0676  0.5649  0.5129
  825TIP3    H1 2481   0.933   2.769   3.398 -0.1906  2.0859  1.8499
  825TIP3    H2 2482   0.855   2.639   3.399  1.6910  0.8556 -0.3670
  826TIP3   OH2 2483   4.730   4.801   1.494 -0.0890 -0.3008 -0.1907
  826TIP3    H1 2484   4.706   4.729   1.436  1.0981 -1.6732  0.9427
  826TIP3    H2 2485   4.758   4.758   1.575  3.9025  1.2046 -0.5645
  827TIP3   OH2 2486   1.980   5.204   3.676  0.0769 -0.3093 -0.2215
  827TIP3    H1 2487   2.054   5.204   3.738 -0.8952  2.5053  1.1244
  827TIP3    H2 2488   2.020   5.217   3.590  1.2140  2.3245  0.5949
  828TIP3   OH2 2489   2.900   2.125   2.708 -0.1642 -0.4442 -0.1684
  828TIP3    H1 2490   2.823   2.072   2.730 -0.2754  0.6145  2.3626
  828TIP3    H2 2491   2.950   2.070   2.649 -1.3808 -2.4490  0.5489
  829TIP3   OH2 2492   1.559   5.725   1.429 -0.3291 -0.0550  0.3065
  829TIP3    H1 2493   1.465   5.712   1.416  0.0985 -0.6985 -2.9258
  829TIP3    H2 2494   1.572   5.820   1.420 -0.5865 -0.0352  0.1474
  830TIP3   OH2 2495   2.041   0.539   0.602  0.2285  0.7858 -0.7183
  830TIP3    H1 2496   2.108   0.495   0.654 -2.0047 -0.4988  1.3087
  830TIP3    H2 2497   2.037   0.489   0.520  0.3097 -0.4949  0.0297
  831TIP3   OH2 2498   1.327   4.461   2.603  0.2114  0.0151  0.3206
  831TIP3    H1 2499   1.376   4.541   2.581  2.2449 -0.8378  1.4350
  831TIP3    H2 2500   1.385   4.390   2.575 -1.4320 -1.0931 -0.3759
  832TIP3   OH2 2501   2.888   5.595   1.145 -0.0332  0.0193 -0.4987
  832TIP3    H1 2502   2.878   5.587   1.240  0.6490  0.7872 -0.3421
  832TIP3    H2 2503   2.977   5.564   1.128  0.2534  0.9119 -0.7207
  833TIP3   OH2 2504   5.471   0.491   2.027  0.1447  0.2555 -0.2843
  833TIP3    H1 2505   5.518   0.482   1.944  0.9378 -2.4923  0.3657
  833TIP3    H2 2506   5.529   0.450   2.091 -0.8446  1.5265  1.5163
  834TIP3   OH2 2507   2.612   2.618   2.255 -0.0947  0.0865  0.0749
  834TIP3    H1 2508   2.574   2.690   2.206  0.3062  0.6039  0.5118
  834TIP3    H2 2509   2.543   2.591   2.316  0.0489  0.6662  0.4953
  835TIP3   OH2 2510   4.500   2.239   2.096  0.4308 -0.3873 -0.4449
  835TIP3    H1 2511   4.469   2.285   2.174 -1.0035 -1.6035 -0.2655
  835TIP3    H2 2512   4.595   2.252   2.098  0.2968  0.6866  0.7881
  836TIP3   OH2 2513   4.655   0.092   3.141  0.1404 -0.3155  0.2386
  836TIP3    H1 2514   4.666   0.111   3.234 -1.2875 -1.2532  0.6370
  836TIP3    H2 2515   4.677   0.174   3.097  2.0302 -0.2031  1.2916
  837TIP3   OH2 2516   2.066   3.406   4.306 -0.0728  0.0232 -0.3404
  837TIP3    H1 2517   2.028   3.494   4.303 -0.0546  0.0852  0.9711
  837TIP3    H2 2518   2.144   3.415   4.361  0.9087 -0.4635 -1.6031
  838TIP3   OH2 2519   2.279   4.543   2.323  0.0701  0.2050 -0.5373
  838TIP3    H1 2520   2.303   4.505   2.407 -1.5581 -0.5170 -0.3569
  838TIP3    H2 2521   2.282   4.470   2.261 -0.4294  0.3523 -0.7426
  839TIP3   OH2 2522   4.460   5.508   3.912  0.0837  0.2317  0.0401
  839TIP3    H1 2523   4.377   5.518   3.958 -0.2750  0.4146 -0.6301
  839TIP3    H2 2524   4.441   5.449   3.839  1.0154 -1.3327  1.0068
  840TIP3   OH2 2525   4.752   3.155   1.952 -0.5519  0.3999  0.1548
  840TIP3    H1 2526   4.792   3.135   2.037  0.3734 -2.2763 -0.8368
  840TIP3    H2 2527   4.658   3.155   1.970 -0.3577  2.0482  1.5506
  841TIP3   OH2 2528   5.286   3.371   3.063 -0.4256 -0.2224  0.1920
  841TIP3    H1 2529   5.237   3.447   3.094  3.0145  2.3498 -0.0721
  841TIP3    H2 2530   5.250   3.353   2.977 -1.7382  0.6565  0.5210
  842TIP3   OH2 2531   3.880   2.025   2.336  0.6353 -0.6949 -0.1453
  842TIP3    H1 2532   3.829   2.103   2.316  0.3154 -0.5806  1.0057
  842TIP3    H2 2533   3.967   2.057   2.357  0.1527 -0.4518  1.7100
  843TIP3   OH2 2534   6.269   4.261   4.757  0.2213 -0.6509  0.4429
  843TIP3    H1 2535   6.326   4.283   4.831  0.5877  0.2742 -0.0969
  843TIP3    H2 2536   6.239   4.346   4.724  0.7913 -0.9951 -1.0387
  844TIP3   OH2 2537   3.902   4.020   2.450  0.2239 -0.4080  0.7676
  844TIP3    H1 2538   3.880   4.112   2.435  0.1511 -0.5796 -0.2423
  844TIP3    H2 2539   3.978   4.005   2.395  0.6818 -0.7735  1.4864
  845TIP3   OH2 2540   1.074   0.458   1.927 -0.0624 -0.4484  0.3479
  845TIP3    H1 2541   0.998   0.411   1.962  0.1650 -2.2127 -1.3534
  845TIP3    H2 2542   1.045   0.548   1.917 -1.2123 -0.6391  1.7495
  846TIP3   OH2 2543   1.823   3.919   2.094  0.1495  0.0622  0.2638
  846TIP3    H1 2544   1.751   3.863   2.124 -0.0495 -1.5864 -2.9019
  846TIP3    H2 2545   1.783   4.004   2.079 -0.5152 -0.1027  1.0310
  847TIP3   OH2 2546   4.667   2.612   4.413  0.0664  0.0861 -0.3993
  847TIP3    H1 2547   4.735   2.656   4.362 -1.1259  2.3546 -0.1700
  847TIP3    H2 2548   4.634   2.680   4.472 -1.0640 -1.4920  0.8746
  848TIP3   OH2 2549   4.439   0.878   1.744 -0.1330 -0.3732 -0.0297
  848TIP3    H1 2550   4.369   0.919   1.795 -0.1891 -0.5831  0.0633
  848TIP3    H2 2551   4.402   0.795   1.714 -0.1578 -0.1712 -0.5594
  849TIP3   OH2 2552   5.129   3.773   3.002  0.2347  0.4385  0.6154
  849TIP3    H1 2553   5.109   3.860   2.968 -0.9837  0.6130  1.7007
  849TIP3    H2 2554   5.153   3.722   2.925  3.0579  2.2218  0.1648
  850TIP3   OH2 2555   6.084   4.278   0.836 -0.1739  0.6650  0.2782
  850TIP3    H1 2556   6.011   4.250   0.780  0.3216 -2.1716  0.8633
  850TIP3    H2 2557   6.042   4.310   0.916 -0.8350 -0.3105  0.3427
  851TIP3   OH2 2558   3.643   0.049   2.961 -0.2529 -0.1704 -0.1751
  851TIP3    H1 2559   3.556   0.085   2.947  0.2262  1.1933  0.1423
  851TIP3    H2 2560   3.702   0.111   2.917  0.5996 -0.6352  0.2788
  852TIP3   OH2 2561   0.679   1.562   1.133 -0.0328 -0.0828 -0.1450
  852TIP3    H1 2562   0.726   1.641   1.106  1.4396 -1.0101 -0.4005
  852TIP3    H2 2563   0.716   1.492   1.079  0.9507 -1.4956  2.1792
  853TIP3   OH2 2564   3.825   3.966   4.571  0.2513  0.1205  0.0193
  853TIP3    H1 2565   3.781   4.013   4.641 -1.2665 -0.5311 -0.4431
  853TIP3    H2 2566   3.887   3.909   4.616 -0.7876 -0.3827  0.8757
  854TIP3   OH2 2567   2.720   2.532   1.698  0.0298  0.3977 -0.0953
  854TIP3    H1 2568   2.681   2.619   1.706 -1.7186 -0.4926  2.1800
  854TIP3    H2 2569   2.749   2.527   1.607 -0.4963  3.0662 -0.4894
  855TIP3   OH2 2570   6.254   1.153   1.675  0.6418  0.7275  0.2029
  855TIP3    H1 2571   6.186   1.086   1.667  0.8024  0.4185  1.2728
  855TIP3    H2 2572   6.218   1.229   1.629  0.2788  0.0598 -0.6569
  856TIP3   OH2 2573   5.743   4.055   0.182  0.2355 -0.4707 -0.2978
  856TIP3    H1 2574   5.748   4.052   0.086  0.9970 -0.7295 -0.2582
  856TIP3    H2 2575   5.835   4.050   0.210  0.0470  0.0895  0.4306
  857TIP3   OH2 2576   2.832   2.515   1.456  0.0874 -0.1548 -0.2246
  857TIP3    H1 2577   2.872   2.589   1.411  1.7523  0.2763  1.8152
  857TIP3    H2 2578   2.871   2.438   1.415 -0.1153  0.1374 -0.9899
  858TIP3   OH2 2579   0.785   4.679   4.462  0.0576  0.7945 -0.0898
  858TIP3    H1 2580   0.709   4.628   4.491  0.2682  0.9870  0.8123
  858TIP3    H2 2581   0.781   4.759   4.513  0.0302  1.4669 -1.1238
  859TIP3   OH2 2582   4.044   5.206   2.940  0.6322  0.0546  0.1702
  859TIP3    H1 2583   4.070   5.253   2.861  2.6030 -0.3428  0.5331
  859TIP3    H2 2584   3.952   5.229   2.953 -0.1002 -0.7691 -2.8595
  860TIP3   OH2 2585   0.598   2.919   4.460 -0.5298 -0.0216 -0.1488
  860TIP3    H1 2586   0.515   2.963   4.477 -0.9237 -0.9229  0.3729
  860TIP3    H2 2587   0.601   2.911   4.365 -0.4579  1.0852 -0.2510
  861TIP3   OH2 2588   4.264   0.479   1.405  0.1454 -0.1606 -0.1574
  861TIP3    H1 2589   4.296   0.505   1.491 -0.3715  0.6543 -0.1932
  861TIP3    H2 2590   4.169   0.489   1.411 -0.0008 -1.2349 -0.4637
  862TIP3   OH2 2591   3.452   1.854   5.201  0.0913  0.4783  0.1767
  862TIP3    H1 2592   3.546   1.856   5.184 -0.1312  1.0074 -1.1211
  862TIP3    H2 2593   3.418   1.933   5.158 -0.8910  0.5111  0.9750
  863TIP3   OH2 2594   2.074   3.457   0.807 -0.1464 -0.7392 -0.3000
  863TIP3    H1 2595   2.132   3.389   0.772 -0.8305 -0.3346 -2.3422
  863TIP3    H2 2596   2.133   3.525   0.840  0.6696  0.2481 -3.4748
  864TIP3   OH2 2597   3.010   2.022   3.316 -0.3489  0.8301 -0.4858
  864TIP3    H1 2598   3.076   2.073   3.270  1.4873  0.9018  2.0156
  864TIP3    H2 2599   3.060   1.966   3.375 -2.5084  0.0058  0.6670
  865TIP3   OH2 2600   1.888   5.198   4.656  0.6202 -0.1340  0.2614
  865TIP3    H1 2601   1.864   5.186   4.564  1.3462  2.0352 -0.2794
  865TIP3    H2 2602   1.812   5.242   4.695 -0.0395 -1.8041  0.9726
  866TIP3   OH2 2603   6.172   0.850   1.141 -0.3242  0.5090 -0.1054
  866TIP3    H1 2604   6.224   0.929   1.131 -0.2922  0.4738 -0.2218
  866TIP3    H2 2605   6.222   0.795   1.202  0.5557 -0.1768 -1.3906
  867TIP3   OH2 2606   0.751   2.479   2.426  0.3855 -0.1044 -0.5015
  867TIP3    H1 2607   0.836   2.459   2.387  1.0480  2.1121 -0.3673
  867TIP3    H2 2608   0.689   2.471   2.354  0.8150 -0.9854 -0.7851
  868TIP3   OH2 2609   5.143   5.710   2.138  0.1993  0.0011 -0.5811
  868TIP3    H1 2610   5.205   5.649   2.178  0.5162 -0.3410 -1.5699
  868TIP3    H2 2611   5.138   5.683   2.046  0.2211  1.3661 -1.0047
  869TIP3   OH2 2612   3.836   4.634   1.686 -0.6446 -0.6356 -0.3583
  869TIP3    H1 2613   3.880   4.584   1.618 -1.8418 -0.7776 -1.0620
  869TIP3    H2 2614   3.898   4.703   1.710  0.2341 -1.2643 -0.7834
  870TIP3   OH2 2615   1.517   1.074   4.704  0.0100 -0.5883  0.4055
  870TIP3    H1 2616   1.521   1.054   4.610  1.8313  1.9066 -0.1629
  870TIP3    H2 2617   1.448   1.017   4.738 -1.6489 -0.6458 -2.6957
  871TIP3   OH2 2618   5.790   4.038   0.681  0.2189 -0.3906  0.0093
  871TIP3    H1 2619   5.703   4.073   0.698  0.3356 -0.2810  0.3917
  871TIP3    H2 2620   5.830   4.028   0.768  0.6289 -0.3277 -0.1680
  872TIP3   OH2 2621   4.628   2.623   2.234  0.4885  0.8575 -0.5894
  872TIP3    H1 2622   4.645   2.578   2.151  0.0478 -0.4810  0.0201
  872TIP3    H2 2623   4.576   2.700   2.209 -0.6544 -0.1557 -1.4501
  873TIP3   OH2 2624   0.522   2.247   2.185 -0.2832  0.2827 -0.3157
  873TIP3    H1 2625   0.602   2.224   2.233 -1.1851  0.1733  1.2054
  873TIP3    H2 2626   0.527   2.342   2.176  1.0907  0.0893 -2.2896
  874TIP3   OH2 2627   1.129   2.745   5.204 -0.2429  0.3076  0.2506
  874TIP3    H1 2628   1.150   2.659   5.168  1.5613  0.9309 -0.2991
  874TIP3    H2 2629   1.061   2.780   5.146  0.3886  0.0207 -0.6809
  875TIP3   OH2 2630   5.976   2.134   4.836 -0.2748 -0.3939 -0.1634
  875TIP3    H1 2631   6.041   2.101   4.898 -0.9716 -1.6562 -0.0790
  875TIP3    H2 2632   5.908   2.067   4.834 -0.8685  0.2046 -1.3623
  876TIP3   OH2 2633   5.134   3.614   4.669  0.0546 -0.4536  0.3974
  876TIP3    H1 2634   5.123   3.565   4.751  1.2029  0.9153  1.4162
  876TIP3    H2 2635   5.096   3.700   4.686 -0.7846 -0.5202 -0.9459
  877TIP3   OH2 2636   3.266   4.750   4.947  0.0447 -0.4386  0.1828
  877TIP3    H1 2637   3.310   4.833   4.932  0.3993 -0.4310  1.1915
  877TIP3    H2 2638   3.231   4.725   4.862 -0.9227  1.2346  0.0436
  878TIP3   OH2 2639   3.616   3.373   3.761 -0.3916  1.1104 -0.3543
  878TIP3    H1 2640   3.638   3.408   3.674 -0.0837  1.2968 -0.2028
  878TIP3    H2 2641   3.532   3.329   3.748 -0.7489  1.8452 -0.5646
  879TIP3   OH2 2642   3.968   1.860   4.209 -0.2587 -0.7775  0.6133
  879TIP3    H1 2643   3.914   1.885   4.284 -2.6474 -1.2141 -0.8778
  879TIP3    H2 2644   3.928   1.780   4.176  0.1724 -0.1064 -1.6757
  880TIP3   OH2 2645   0.426   5.990   1.894  0.2954 -0.0752 -0.0154
  880TIP3    H1 2646   0.454   5.903   1.867 -0.6391 -0.1437 -0.8347
  880TIP3    H2 2647   0.350   5.974   1.951 -0.2878  0.2149 -0.7001
  881TIP3   OH2 2648   2.096   1.916   0.936  0.7497 -0.1522  0.0392
  881TIP3    H1 2649   2.022   1.967   0.968  0.4356 -1.4926  1.6141
  881TIP3    H2 2650   2.170   1.945   0.989  1.6213  1.7367 -2.0450
  882TIP3   OH2 2651   1.236   0.937   2.328 -0.0530  0.0849  0.2087
  882TIP3    H1 2652   1.253   0.845   2.306 -1.4778 -0.1283 -0.0933
  882TIP3    H2 2653   1.306   0.985   2.283 -1.0857 -0.6082 -2.2907
  883TIP3   OH2 2654   6.162   5.909   0.192 -0.3271  0.4778 -0.0374
  883TIP3    H1 2655   6.114   5.830   0.166 -1.9246  1.4333 -0.1017
  883TIP3    H2 2656   6.121   5.980   0.143  1.2258  1.3593 -0.1588
  884TIP3   OH2 2657   1.700   5.701   1.975  1.0136  0.0198 -0.2833
  884TIP3    H1 2658   1.704   5.746   2.059  0.7105 -0.5565  0.0448
  884TIP3    H2 2659   1.735   5.614   1.993 -0.9253 -0.7984 -0.2781
  885TIP3   OH2 2660   4.706   1.293   4.782 -0.6661 -0.0123 -0.5568
  885TIP3    H1 2661   4.705   1.221   4.720  0.5098  0.2753 -0.9459
  885TIP3    H2 2662   4.640   1.355   4.750 -0.6765 -0.2634 -1.0205
  886TIP3   OH2 2663   6.070   5.144   3.190 -0.0283 -0.3410  0.1937
  886TIP3    H1 2664   5.980   5.119   3.168 -0.0869 -0.2562  0.3332
  886TIP3    H2 2665   6.116   5.061   3.202 -0.1817 -0.3851  0.4934
  887TIP3   OH2 2666   1.104   2.570   0.103 -0.0824 -0.1550  0.2659
  887TIP3    H1 2667   1.112   2.501   0.037  1.3857  0.1499  0.1009
  887TIP3    H2 2668   1.033   2.626   0.071  0.2141 -0.3486 -0.7432
  888TIP3   OH2 2669   4.325   2.640   2.295 -0.0033  0.1583  0.2804
  888TIP3    H1 2670   4.298   2.664   2.384 -1.2084  0.6914 -0.2090
  888TIP3    H2 2671   4.401   2.695   2.277 -0.5469  1.0086  0.5122
  889TIP3   OH2 2672   5.975   0.994   0.386  0.2179  0.1479 -0.1750
  889TIP3    H1 2673   5.896   0.951   0.352 -0.8155  1.8115  0.0075
  889TIP3    H2 2674   6.006   0.935   0.455  1.0718 -2.1603 -2.3753
  890TIP3   OH2 2675   0.384   5.669   3.933  0.6229 -0.2201 -0.4740
  890TIP3    H1 2676   0.479   5.668   3.938  0.5565 -1.4782  1.0352
  890TIP3    H2 2677   0.355   5.682   4.023 -0.6380 -0.0455 -0.8899
  891TIP3   OH2 2678   2.451   1.805   4.567  0.0260 -0.2521 -0.5198
  891TIP3    H1 2679   2.485   1.800   4.478  0.0842 -0.9909 -0.4647
  891TIP3    H2 2680   2.484   1.726   4.610 -1.3011 -0.7163 -0.3069
  892TIP3   OH2 2681   6.106   3.513   3.639  0.5589  0.2681  0.2066
  892TIP3    H1 2682   6.037   3.450   3.618 -0.7209  1.5868  0.3039
  892TIP3    H2 2683   6.151   3.529   3.556 -0.3758  0.6720 -0.2409
  893TIP3   OH2 2684   6.214   0.785   2.877 -0.1007  0.4995 -0.4999
  893TIP3    H1 2685   6.199   0.859   2.935  0.1343 -0.9365  1.4902
  893TIP3    H2 2686   6.126   0.757   2.850 -0.3955 -0.2671  1.1288
  894TIP3   OH2 2687   2.861   2.730   2.290  0.1873 -0.1665  0.0042
  894TIP3    H1 2688   2.895   2.730   2.380  1.7052  0.4158 -0.5366
  894TIP3    H2 2689   2.783   2.674   2.294  1.6095 -2.2127  1.1750
  895TIP3   OH2 2690   1.767   4.589   1.951  0.0655 -0.5377  0.2772
  895TIP3    H1 2691   1.726   4.671   1.925  0.5578 -0.1598  0.6749
  895TIP3    H2 2692   1.840   4.579   1.891  0.5606 -0.2068  0.8106
  896TIP3   OH2 2693   1.108   5.493   3.201  0.0426 -0.5694 -0.8401
  896TIP3    H1 2694   1.199   5.482   3.229  0.1240 -0.4581 -1.0588
  896TIP3    H2 2695   1.057   5.457   3.274  0.2664 -0.9370 -0.8596
  897TIP3   OH2 2696   6.236   0.973   4.065 -0.0200 -0.5628  0.4491
  897TIP3    H1 2697   6.258   0.914   4.137 -3.6841 -1.5504  0.9670
  897TIP3    H2 2698   6.258   0.923   3.986  3.6414  0.3753  0.6684
  898TIP3   OH2 2699   4.229   5.246   4.300  0.1274 -0.0639  0.4110
  898TIP3    H1 2700   4.224   5.244   4.204  0.9306  0.1602  0.3520
  898TIP3    H2 2701   4.138   5.254   4.329 -0.1727 -0.7699 -0.3085
  899TIP3   OH2 2702   1.372   3.145   3.950 -0.1310 -0.7813 -0.4737
  899TIP3    H1 2703   1.389   3.146   4.044  0.6485  1.3105 -0.5807
  899TIP3    H2 2704   1.457   3.128   3.910 -0.2045 -0.3948 -0.8088
  900TIP3   OH2 2705   2.230   5.442   0.964  0.3279  0.2701 -0.7731
  900TIP3    H1 2706   2.232   5.538   0.960  1.9903  0.4071  1.3941
  900TIP3    H2 2707   2.138   5.420   0.971 -0.1976  1.5770 -2.7119
  901TIP3   OH2 2708   5.293   1.460   3.712 -0.4964 -0.1237  0.3919
  901TIP3    H1 2709   5.322   1.543   3.751  0.2131  0.2228 -0.8301
  901TIP3    H2 2710   5.197   1.464   3.717 -0.4487  0.3168  1.2358
  902TIP3   OH2 2711   2.274   1.702   1.656  0.3832 -0.6314 -0.1726
  902TIP3    H1 2712   2.349   1.704   1.715  1.1216 -1.3991 -1.0521
  902TIP3    H2 2713   2.219   1.631   1.689 -0.3381  0.3852  0.8898
  903TIP3   OH2 2714   3.768   3.510   4.474  0.0486 -0.3531 -0.5613
  903TIP3    H1 2715   3.854   3.468   4.481  0.4186  0.5974  0.9374
  903TIP3    H2 2716   3.706   3.444   4.505  0.4750 -0.3292  0.3770
  904TIP3   OH2 2717   1.874   2.126   0.313 -0.1103  0.2456 -0.6865
  904TIP3    H1 2718   1.920   2.174   0.244  0.6067  0.3163 -0.1670
  904TIP3    H2 2719   1.848   2.194   0.375  0.0171  0.0781 -0.4512
  905TIP3   OH2 2720   2.887   1.252   1.704  0.1527 -0.8309 -0.4946
  905TIP3    H1 2721   2.954   1.200   1.748  0.8487  0.9574  0.6951
  905TIP3    H2 2722   2.817   1.262   1.769 -0.6787 -1.5351 -1.2519
  906TIP3   OH2 2723   3.375   0.520   1.601  0.3284 -0.2518 -0.1089
  906TIP3    H1 2724   3.350   0.596   1.549 -0.3181 -1.4379 -1.6379
  906TIP3    H2 2725   3.292   0.491   1.641  0.4089 -0.6561 -0.2360
  907TIP3   OH2 2726   5.308   2.787   4.474 -0.3546  0.7435 -0.2062
  907TIP3    H1 2727   5.397   2.779   4.440  0.2772 -0.1633  1.5208
  907TIP3    H2 2728   5.256   2.819   4.400  0.4903 -2.9883 -2.6728
  908TIP3   OH2 2729   0.737   1.616   2.625  0.4797  0.4253  0.1549
  908TIP3    H1 2730   0.765   1.618   2.534  0.1110  0.9064  0.0511
  908TIP3    H2 2731   0.734   1.708   2.652  0.1446  0.3145  0.5114
  909TIP3   OH2 2732   0.031   3.065   4.509 -0.1497 -0.6188  0.2374
  909TIP3    H1 2733   0.059   3.095   4.422  1.2899  0.0270  0.8984
  909TIP3    H2 2734  -0.048   3.014   4.492  0.7991 -1.5864 -1.6165
  910TIP3   OH2 2735   5.731   5.780   1.882 -0.3629 -0.4631 -0.1964
  910TIP3    H1 2736   5.816   5.815   1.857 -0.6298 -0.0986 -0.6198
  910TIP3    H2 2737   5.750   5.695   1.922  0.1074 -0.9777 -1.4515
  911TIP3   OH2 2738   6.003   1.932   3.217 -0.0113 -0.2719  0.6339
  911TIP3    H1 2739   5.989   1.982   3.137 -1.8882 -0.9633  0.4852
  911TIP3    H2 2740   6.097   1.916   3.219  0.1924  0.5224 -0.9602
  912TIP3   OH2 2741   3.572   3.843   4.186 -0.2256  0.1955  0.0390
  912TIP3    H1 2742   3.661   3.856   4.155 -0.4194 -1.5391 -1.3761
  912TIP3    H2 2743   3.582   3.806   4.274  0.3843  1.7809  0.6659
  913TIP3   OH2 2744   1.117   2.503   0.642  0.1263 -0.0555 -0.3825
  913TIP3    H1 2745   1.106   2.454   0.560  0.3402 -1.1615  0.2226
  913TIP3    H2 2746   1.042   2.477   0.695 -0.2746  1.0302 -0.3900
  914TIP3   OH2 2747   2.988   1.153   1.432 -0.4952  0.0092  0.0788
  914TIP3    H1 2748   3.032   1.068   1.436  0.9367  0.7723  1.3205
  914TIP3    H2 2749   2.950   1.165   1.519 -2.3109 -0.1348 -0.6346
  915TIP3   OH2 2750   5.630   3.226   2.366 -0.0086 -0.0883  0.3091
  915TIP3    H1 2751   5.665   3.198   2.450  0.8790 -1.3696 -0.4558
  915TIP3    H2 2752   5.675   3.309   2.347 -1.1767  0.8996  1.6637
  916TIP3   OH2 2753   3.902   5.794   0.918 -0.0810  0.6098 -0.3890
  916TIP3    H1 2754   3.889   5.699   0.924  0.9255  0.3480 -1.9172
  916TIP3    H2 2755   3.997   5.806   0.922  0.0630  1.2296 -3.3377
  917TIP3   OH2 2756   5.744  -0.004   5.001 -0.4983  0.2372  0.7924
  917TIP3    H1 2757   5.750  -0.006   5.096  1.9373  1.0340  0.7209
  917TIP3    H2 2758   5.725   0.087   4.980  0.6212  0.4069  0.4810
  918TIP3   OH2 2759   3.349   1.928   3.897 -0.5133 -0.5545 -0.1741
  918TIP3    H1 2760   3.402   2.008   3.890  0.2011 -1.1066 -1.3598
  918TIP3    H2 2761   3.320   1.927   3.989  0.1083  0.6499  0.0637
  919TIP3   OH2 2762   4.655   1.146   3.507  0.1063 -0.1511 -0.4340
  919TIP3    H1 2763   4.656   1.051   3.504 -1.4362 -0.2062 -0.3214
  919TIP3    H2 2764   4.710   1.169   3.582  0.4162 -0.9618 -0.4117
  920TIP3   OH2 2765   2.249   0.205   2.386  0.1729 -0.4171 -0.7668
  920TIP3    H1 2766   2.231   0.282   2.440  1.4946 -0.7031  0.1583
  920TIP3    H2 2767   2.207   0.133   2.433  1.3959 -0.6796 -0.0222
  921TIP3   OH2 2768   5.475   3.566   2.218 -0.0228  0.1673 -0.2846
  921TIP3    H1 2769   5.463   3.627   2.290 -1.2693  0.3066 -0.5889
  921TIP3    H2 2770   5.425   3.488   2.242 -1.8481  0.8297 -1.6826
  922TIP3   OH2 2771   2.976   3.183   5.072  0.4256 -0.7742  0.5379
  922TIP3    H1 2772   2.886   3.175   5.103 -0.4491 -0.2114 -1.7384
  922TIP3    H2 2773   2.982   3.273   5.038  1.3479 -1.3156 -0.7952
  923TIP3   OH2 2774   3.861   0.473   3.495 -0.1195 -0.2661  0.4779
  923TIP3    H1 2775   3.894   0.496   3.582 -0.1897  0.0595  0.4220
  923TIP3    H2 2776   3.793   0.538   3.478  0.5912  0.3121 -0.2512
  924TIP3   OH2 2777   6.068   3.091   2.590  0.3369  0.6649  0.2516
  924TIP3    H1 2778   6.135   3.128   2.533  0.8426  0.5180  0.7375
  924TIP3    H2 2779   6.100   3.003   2.611 -0.5537  0.1721 -0.4049
  925TIP3   OH2 2780   4.175   2.413   2.882  0.1326  0.1846  0.1547
  925TIP3    H1 2781   4.154   2.362   2.803  0.5147 -0.7867  0.6632
  925TIP3    H2 2782   4.176   2.348   2.953 -0.8420  1.1392  1.0761
  926TIP3   OH2 2783   2.305   4.307   1.581 -0.2923 -0.0459  0.7275
  926TIP3    H1 2784   2.354   4.321   1.500  0.2459  0.7128  1.1728
  926TIP3    H2 2785   2.287   4.395   1.615 -1.6534 -0.3212  0.7690
  927TIP3   OH2 2786   1.583   0.689   3.694  0.2539 -0.5285  0.0829
  927TIP3    H1 2787   1.499   0.727   3.719  0.5157  0.0914  0.0194
  927TIP3    H2 2788   1.559   0.617   3.634 -0.2518 -0.6691  0.4397
  928TIP3   OH2 2789   2.939   5.541   1.432  0.6597  0.9885  0.2498
  928TIP3    H1 2790   3.029   5.522   1.458  0.8721  1.0986 -0.3826
  928TIP3    H2 2791   2.886   5.473   1.475  1.2098  0.0109 -0.5672
  929TIP3   OH2 2792   3.672   5.575   3.809 -0.5145  0.0562 -0.5848
  929TIP3    H1 2793   3.756   5.570   3.764  0.1030  1.8636  0.2703
  929TIP3    H2 2794   3.608   5.590   3.740  0.2605  1.5413 -1.0263
  930TIP3   OH2 2795   5.995   0.867   4.455 -0.2542  0.3614  0.2832
  930TIP3    H1 2796   5.947   0.944   4.485  1.8143  0.9525  2.4353
  930TIP3    H2 2797   6.085   0.882   4.486  0.8427 -1.6402 -1.6847
  931TIP3   OH2 2798   3.761   4.541   3.550 -0.3608  0.5688  0.1152
  931TIP3    H1 2799   3.683   4.583   3.514 -0.4174 -0.3749 -0.9185
  931TIP3    H2 2800   3.807   4.506   3.473  0.6042  0.3025  0.7876
  932TIP3   OH2 2801   0.505   0.174   4.966 -0.0817  0.0543 -0.3684
  932TIP3    H1 2802   0.429   0.227   4.943  0.3059  0.0503 -1.7313
  932TIP3    H2 2803   0.580   0.226   4.936  0.4546 -0.1294  0.5870
  933TIP3   OH2 2804   6.345   0.575   0.573 -0.1133  0.0665 -0.5789
  933TIP3    H1 2805   6.268   0.553   0.626  0.1324 -0.9941 -0.6555
  933TIP3    H2 2806   6.354   0.670   0.584 -0.6755  0.0171  0.4486
  934TIP3   OH2 2807   1.525   3.470   2.108 -0.2411 -0.2795 -0.2457
  934TIP3    H1 2808   1.546   3.451   2.199 -0.0342  0.0152 -0.2313
  934TIP3    H2 2809   1.524   3.384   2.065 -0.7623 -0.4617  0.1201
  935TIP3   OH2 2810   6.081   0.974   2.347 -0.3365 -0.5120 -0.0896
  935TIP3    H1 2811   6.164   0.997   2.388  0.1480 -0.7820 -0.9088
  935TIP3    H2 2812   6.104   0.913   2.277 -0.7390  2.0883 -2.7038
  936TIP3   OH2 2813   0.795   2.499   5.039  0.1410 -0.4179 -0.1339
  936TIP3    H1 2814   0.783   2.469   4.949  4.8564  1.1133 -1.5933
  936TIP3    H2 2815   0.844   2.429   5.082  2.0217  0.7043 -0.3332
  937TIP3   OH2 2816   2.450   0.701   1.436 -0.2650  0.5400 -0.2944
  937TIP3    H1 2817   2.468   0.792   1.457  1.1960  0.2645 -0.2684
  937TIP3    H2 2818   2.356   0.691   1.450 -0.6380  2.3045 -1.3611
  938TIP3   OH2 2819   2.696   5.272   1.467 -0.2997 -0.3042 -0.2098
  938TIP3    H1 2820   2.681   5.365   1.483  0.4438 -0.2161  0.0441
  938TIP3    H2 2821   2.673   5.230   1.550 -0.7358 -0.3593 -0.3583
  939TIP3   OH2 2822   0.741   3.502   3.925 -0.3047  0.4721  0.2025
  939TIP3    H1 2823   0.737   3.501   3.829  1.6905  0.6005  0.0812
  939TIP3    H2 2824   0.759   3.411   3.948  0.6042  0.6766  0.3450
  940TIP3   OH2 2825   4.869   4.432   1.037  0.6489  0.3379  0.2948
  940TIP3    H1 2826   4.931   4.394   0.975 -0.0220 -0.2535 -0.0407
  940TIP3    H2 2827   4.883   4.382   1.118  1.8709  1.4453  0.7948
  941TIP3   OH2 2828   0.411   3.933   3.656 -0.2016 -0.3147  0.2930
  941TIP3    H1 2829   0.416   3.852   3.606 -1.1440 -1.1457  1.4939
  941TIP3    H2 2830   0.369   3.909   3.738 -1.0212  1.4883  0.4628
  942TIP3   OH2 2831   6.180   3.132   4.283  0.0370  0.4807 -0.1316
  942TIP3    H1 2832   6.110   3.173   4.232  0.7368  0.4949 -1.1126
  942TIP3    H2 2833   6.239   3.205   4.306  2.1915 -0.0170 -3.3118
  943TIP3   OH2 2834   4.006   2.067   4.618  0.0367 -0.5628  0.0395
  943TIP3    H1 2835   3.929   2.010   4.615 -0.6850  0.4059 -0.5384
  943TIP3    H2 2836   3.970   2.154   4.636  0.7712  0.2542 -2.1126
  944TIP3   OH2 2837   6.218   3.063   0.037  0.2932  0.4365 -0.6776
  944TIP3    H1 2838   6.214   3.045   0.131  1.0289 -1.6291 -0.9929
  944TIP3    H2 2839   6.134   3.103   0.017 -0.7037 -0.9312  0.5267
  945TIP3   OH2 2840   5.401   1.535   4.463 -0.8546 -0.6590 -0.1148
  945TIP3    H1 2841   5.409   1.441   4.446  0.7154 -0.7882  1.0628
  945TIP3    H2 2842   5.306   1.551   4.465 -1.1406 -1.9706 -1.4571
  946TIP3   OH2 2843   5.833   0.581   1.844  0.2201  0.1562 -0.0712
  946TIP3    H1 2844   5.855   0.604   1.934  1.1067 -1.4460  0.1612
  946TIP3    H2 2845   5.786   0.498   1.851 -2.1681  1.3384 -0.9221
  947TIP3   OH2 2846   6.149   1.723   1.258 -0.1015  0.2997 -0.1101
  947TIP3    H1 2847   6.235   1.733   1.299 -0.3352 -0.6504  0.6726
  947TIP3    H2 2848   6.158   1.762   1.172  1.5779 -1.1223 -0.6329
  948TIP3   OH2 2849   6.381   0.182   5.028  0.4990 -0.5543 -0.0486
  948TIP3    H1 2850   6.352   0.272   5.012 -0.9502 -0.3349  3.1062
  948TIP3    H2 2851   6.301   0.130   5.023  1.3142 -1.7275 -1.7853
  949TIP3   OH2 2852   4.991   1.283   0.762  0.0691  0.1235  0.7031
  949TIP3    H1 2853   4.935   1.298   0.686 -0.0176 -1.8973  0.3245
  949TIP3    H2 2854   5.020   1.193   0.754  0.5153  0.0186  2.7898
  950TIP3   OH2 2855   5.489   0.579   4.770  0.1522 -0.1539  0.0747
  950TIP3    H1 2856   5.524   0.600   4.683 -0.3566  0.3938  0.0014
  950TIP3    H2 2857   5.437   0.655   4.795  0.2185 -0.3461  0.8266
  951TIP3   OH2 2858   5.290   5.845   4.250  0.1710 -0.1828 -0.0303
  951TIP3    H1 2859   5.369   5.871   4.298  1.2825 -0.3975 -1.6936
  951TIP3    H2 2860   5.231   5.813   4.319  1.6180 -0.2911  1.2267
  952TIP3   OH2 2861   2.012   4.064   4.868 -0.0177  0.0168 -0.1377
  952TIP3    H1 2862   2.096   4.074   4.913  0.6203 -3.7343 -0.1479
  952TIP3    H2 2863   2.034   4.071   4.775  0.3062 -0.7182 -0.1293
  953TIP3   OH2 2864   4.620   0.713   0.197 -0.1344  0.0887 -0.0808
  953TIP3    H1 2865   4.548   0.727   0.135  0.3316  1.4053 -0.3641
  953TIP3    H2 2866   4.590   0.642   0.253 -1.5876  0.4737 -0.3237
  954TIP3   OH2 2867   1.891   5.084   3.998  0.0510  0.1320 -0.0237
  954TIP3    H1 2868   1.854   5.055   4.081 -0.4072  1.3056  0.1999
  954TIP3    H2 2869   1.870   5.178   3.994 -0.0368  0.0735 -1.5037
  955TIP3   OH2 2870   0.715   3.590   1.170  0.1053 -0.3066  0.1035
  955TIP3    H1 2871   0.677   3.524   1.228 -0.6544 -0.3423 -0.4247
  955TIP3    H2 2872   0.645   3.613   1.110  1.1210 -0.9399 -1.3986
  956TIP3   OH2 2873   2.024   2.218   2.211 -0.1987 -0.2064 -0.1422
  956TIP3    H1 2874   2.015   2.269   2.131  0.3284 -0.0493 -0.1010
  956TIP3    H2 2875   1.988   2.276   2.280  1.5130  0.6324  0.0995
  957TIP3   OH2 2876   1.885   5.084   2.808 -0.8718 -0.0861  0.3657
  957TIP3    H1 2877   1.888   5.179   2.816  2.5782 -0.0748  0.7758
  957TIP3    H2 2878   1.902   5.067   2.716 -1.6126 -0.3338  0.2679
  958TIP3   OH2 2879   4.858   1.911   0.202 -0.1433  0.0965 -0.0956
  958TIP3    H1 2880   4.825   1.855   0.272 -3.2155  0.1926 -1.3217
  958TIP3    H2 2881   4.844   1.861   0.122  1.5913  0.7173 -0.8418
  959TIP3   OH2 2882   5.475   2.557   3.047  0.4522 -0.2537 -0.2319
  959TIP3    H1 2883   5.465   2.545   2.953 -3.7365 -0.2462  0.0403
  959TIP3    H2 2884   5.450   2.473   3.085  0.8289  0.1244  0.9094
  960TIP3   OH2 2885   4.883   2.621   1.998 -0.3414 -0.4489 -0.0895
  960TIP3    H1 2886   4.907   2.684   2.065  0.5521 -0.8787  0.0107
  960TIP3    H2 2887   4.883   2.671   1.916  2.0275 -0.6173 -0.2676
  961TIP3   OH2 2888   4.372   5.070   1.373  0.5853 -0.3208  0.5748
  961TIP3    H1 2889   4.443   5.023   1.417  0.1436 -2.2248 -0.6271
  961TIP3    H2 2890   4.400   5.074   1.281 -0.3573 -0.0892  0.2899
  962TIP3   OH2 2891   4.472   1.775   2.818 -0.0998  0.0348 -0.3981
  962TIP3    H1 2892   4.408   1.723   2.866 -0.1805  0.2057 -0.3217
  962TIP3    H2 2893   4.556   1.732   2.836 -0.3211 -0.8110 -1.3469
  963TIP3   OH2 2894   3.031   1.881   2.953  0.1824  0.1072 -0.3719
  963TIP3    H1 2895   3.090   1.830   3.009  0.4577  1.3362  0.5070
  963TIP3    H2 2896   2.946   1.877   2.996  0.4803  1.3785  0.4082
  964TIP3   OH2 2897   5.409   1.587   2.886 -0.4516 -0.1841  0.3413
  964TIP3    H1 2898   5.317   1.605   2.864 -0.1316 -0.1904 -1.0450
  964TIP3    H2 2899   5.456   1.666   2.862 -0.1609  0.1103  1.7508
  965TIP3   OH2 2900   3.041   5.963   5.010 -0.0821 -0.3721 -0.3152
  965TIP3    H1 2901   3.089   6.040   4.979 -1.8786  0.5589 -0.8619
  965TIP3    H2 2902   3.110   5.900   5.033  1.4639  1.6313  0.8307
  966TIP3   OH2 2903   2.084   1.351   2.911 -0.0232 -0.2871 -0.1110
  966TIP3    H1 2904   2.121   1.400   2.838 -1.5349 -0.4870 -1.0613
  966TIP3    H2 2905   2.066   1.418   2.977  0.5431  0.0225 -0.2597
  967TIP3   OH2 2906   3.301   1.330  -0.000 -0.5862 -0.1596  0.5192
  967TIP3    H1 2907   3.265   1.376   0.076 -0.2209  0.4129  0.3529
  967TIP3    H2 2908   3.282   1.387  -0.074  0.7591  0.2308  0.4385
  968TIP3   OH2 2909   3.522   2.779   2.153 -0.2480 -0.2753 -0.3901
  968TIP3    H1 2910   3.543   2.690   2.182  0.3756 -0.2951 -0.8780
  968TIP3    H2 2911   3.524   2.774   2.057 -0.8100  0.1253 -0.4250
  969TIP3   OH2 2912   0.654   0.983   4.217  0.3305 -0.2400 -0.0495
  969TIP3    H1 2913   0.571   0.944   4.246 -0.3081  1.3365  0.3507
  969TIP3    H2 2914   0.665   1.060   4.274  1.4825  0.2184 -0.8683
  970TIP3   OH2 2915   5.275   4.217   0.370 -0.2793  0.0107 -0.3854
  970TIP3    H1 2916   5.284   4.293   0.312 -2.6527  0.3295 -0.4031
  970TIP3    H2 2917   5.186   4.222   0.403 -0.1896 -2.2699  0.3674
  971TIP3   OH2 2918   5.510   0.645   0.367 -0.2769 -0.5907  0.3819
  971TIP3    H1 2919   5.446   0.684   0.426  0.2749  2.2194 -0.7506
  971TIP3    H2 2920   5.503   0.695   0.286  1.8741 -1.6026 -0.5064
  972TIP3   OH2 2921   0.430   0.513   1.024 -0.8547  0.0987  0.1031
  972TIP3    H1 2922   0.337   0.530   1.009 -1.2603 -0.9711  1.2924
  972TIP3    H2 2923   0.473   0.596   1.001 -2.1107  0.6771 -0.2514
  973TIP3   OH2 2924   1.283   3.594   3.481  0.6937  0.1520 -0.9267
  973TIP3    H1 2925   1.346   3.638   3.539  0.4083 -0.2940 -0.2647
  973TIP3    H2 2926   1.252   3.520   3.533 -0.7757  0.6667 -1.0449
  974TIP3   OH2 2927   1.201   0.376   3.011  0.4302  0.0832 -0.4004
  974TIP3    H1 2928   1.190   0.445   2.945 -0.5089 -0.7930 -1.1872
  974TIP3    H2 2929   1.227   0.299   2.961  0.3536 -0.4260  0.3301
  975TIP3   OH2 2930   6.153   0.149   1.999 -0.0609  0.2933  0.6805
  975TIP3    H1 2931   6.124   0.079   2.057 -0.6689  0.5909  0.7447
  975TIP3    H2 2932   6.084   0.155   1.933  1.9389 -1.9754 -1.8178
  976TIP3   OH2 2933   3.094   0.247   3.425  0.4374 -0.0285  0.8034
  976TIP3    H1 2934   3.136   0.192   3.358 -2.5040  0.4421 -1.6203
  976TIP3    H2 2935   3.068   0.326   3.379 -3.7408 -0.6096  1.7739
  977TIP3   OH2 2936   0.315   4.303   0.393 -0.2588 -0.4375 -0.2168
  977TIP3    H1 2937   0.362   4.273   0.315 -0.6364  0.3314 -0.7461
  977TIP3    H2 2938   0.310   4.225   0.448 -0.8062 -1.2501 -1.3591
  978TIP3   OH2 2939   5.139   0.424   3.907 -0.5659  0.1331  0.2102
  978TIP3    H1 2940   5.216   0.399   3.856 -0.2282 -0.3436  0.9280
  978TIP3    H2 2941   5.159   0.394   3.996 -1.3962  0.3961  0.4941
  979TIP3   OH2 2942   2.044   1.735   4.371 -0.0831  0.3800  0.2138
  979TIP3    H1 2943   2.027   1.751   4.278 -0.2232  0.5247  0.2630
  979TIP3    H2 2944   2.057   1.822   4.408 -0.0452  0.3233  0.3340
  980TIP3   OH2 2945   3.499   4.705   1.419 -0.0873 -0.1063 -0.2259
  980TIP3    H1 2946   3.466   4.659   1.496  0.3579  1.4457  0.9418
  980TIP3    H2 2947   3.420   4.727   1.369 -0.6974  1.4757  1.3264
  981TIP3   OH2 2948   5.210   0.450   4.426 -0.2116 -0.0331 -0.1969
  981TIP3    H1 2949   5.142   0.473   4.489  0.8998  1.5750  0.4809
  981TIP3    H2 2950   5.267   0.527   4.422  0.9455 -0.8997 -1.5828
  982TIP3   OH2 2951   1.722   0.461   3.447  0.2143 -0.8687  0.1947
  982TIP3    H1 2952   1.732   0.382   3.501 -1.5754 -2.5500 -1.7762
  982TIP3    H2 2953   1.632   0.489   3.464  0.8545  0.8612  0.9263
  983TIP3   OH2 2954   0.011   4.501   1.000 -0.0855  0.1379 -0.4589
  983TIP3    H1 2955   0.001   4.530   0.909 -1.0787  1.1600 -0.0526
  983TIP3    H2 2956   0.067   4.568   1.040 -0.8833  0.5252  0.0369
  984TIP3   OH2 2957   1.191   5.950   3.354 -0.2854 -0.1742 -0.6062
  984TIP3    H1 2958   1.155   5.895   3.423  0.5564  0.3387  0.2823
  984TIP3    H2 2959   1.242   6.016   3.401  1.0911 -0.3698 -1.7577
  985TIP3   OH2 2960   0.357   4.731   3.900  0.3033 -0.0535  0.0600
  985TIP3    H1 2961   0.426   4.708   3.838 -0.2662 -0.0007 -0.6163
  985TIP3    H2 2962   0.285   4.761   3.844  0.5244  2.0812  0.8275
  986TIP3   OH2 2963   1.048   0.044   0.764  0.3391  0.7940  0.1700
  986TIP3    H1 2964   1.103   0.002   0.829  0.7084  0.4341 -0.3661
  986TIP3    H2 2965   0.969   0.069   0.811  0.5588  0.4450  0.7270
  987TIP3   OH2 2966   5.981   2.206   4.485  0.0583 -0.4759  0.1009
  987TIP3    H1 2967   5.901   2.258   4.480  0.8944  0.7147 -1.4207
  987TIP3    H2 2968   5.970   2.154   4.565 -1.9588  0.0875  0.2460
  988TIP3   OH2 2969   3.523   0.134   1.641 -0.7709 -0.4799  0.5244
  988TIP3    H1 2970   3.454   0.097   1.696 -2.3406  1.4845 -0.0162
  988TIP3    H2 2971   3.594   0.155   1.702 -0.5605 -2.6018  1.0797
  989TIP3   OH2 2972   6.312   4.454   1.677  0.3583 -0.2541  0.1175
  989TIP3    H1 2973   6.361   4.379   1.643  0.5756 -0.3830  0.7053
  989TIP3    H2 2974   6.334   4.526   1.618 -0.7781 -0.9193 -1.1767
  990TIP3   OH2 2975   3.265   2.047   5.114  0.6614  0.4443 -0.5090
  990TIP3    H1 2976   3.273   2.142   5.110 -0.5011  0.6018  0.3334
  990TIP3    H2 2977   3.183   2.031   5.162  0.2597 -0.9758 -1.5805
  991TIP3   OH2 2978   0.921   3.885   1.758 -0.0885  0.3883 -0.3951
  991TIP3    H1 2979   0.992   3.928   1.806 -0.2468 -0.0938  0.2807
  991TIP3    H2 2980   0.861   3.957   1.736  0.8097  0.8729 -1.3651
  992TIP3   OH2 2981   4.235   0.348   2.248 -0.5490 -0.3050 -0.0552
  992TIP3    H1 2982   4.284   0.424   2.279  0.4452 -1.4192  1.2338
  992TIP3    H2 2983   4.149   0.355   2.290  0.2998 -1.0379  1.9208
  993TIP3   OH2 2984   2.827   4.173   1.563 -0.3651 -0.3328  0.8422
  993TIP3    H1 2985   2.921   4.157   1.564 -0.2721 -0.0745 -0.6284
  993TIP3    H2 2986   2.812   4.217   1.479 -1.9226 -1.1867  0.6431
  994TIP3   OH2 2987   2.806   4.964   1.550 -0.2251  0.4605 -0.0742
  994TIP3    H1 2988   2.799   4.878   1.591 -1.7268 -0.0593 -1.3059
  994TIP3    H2 2989   2.782   5.025   1.619  1.1050 -0.0547  0.8930
  995TIP3   OH2 2990   2.211   2.147   4.936 -0.2107 -0.9153  0.1577
  995TIP3    H1 2991   2.257   2.075   4.891  1.5081 -0.6926  1.4345
  995TIP3    H2 2992   2.281   2.206   4.964 -1.5746  1.2240 -0.7176
  996TIP3   OH2 2993   4.787   4.706   4.239 -0.4416  0.2126  0.0121
  996TIP3    H1 2994   4.719   4.763   4.276  0.7351  0.6790  1.5189
  996TIP3    H2 2995   4.749   4.618   4.244  0.1645 -0.0166  3.8746
  997TIP3   OH2 2996   1.765   1.165   0.363 -0.5604  0.2254  0.3154
  997TIP3    H1 2997   1.844   1.199   0.405  0.7922 -2.2473  0.0142
  997TIP3    H2 2998   1.694   1.189   0.422  0.7498  0.3684  1.9186
  998TIP3   OH2 2999   5.273   2.442   3.358  0.0739 -0.5857  0.5176
  998TIP3    H1 3000   5.257   2.431   3.264 -1.3372 -3.2036  0.9679
  998TIP3    H2 3001   5.364   2.415   3.371  0.1032 -0.7564 -0.0354
  999TIP3   OH2 3002   5.592   5.485   4.682  0.0443 -0.5047 -0.1434
  999TIP3    H1 3003   5.632   5.467   4.597  1.3801 -0.7305  0.5022
  999TIP3    H2 3004   5.498   5.476   4.667  0.2550 -0.4712 -1.6047
 1000TIP3   OH2 3005   3.448   3.352   2.447  0.2242 -0.3388 -0.1808
 1000TIP3    H1 3006   3.497   3.270   2.441 -1.5036 -1.5807  1.3077
 1000TIP3    H2 3007   3.480   3.405   2.374 -0.3446 -3.3010 -2.7970
 1001TIP3   OH2 3008   6.224   5.638   4.194 -0.0940 -0.1270  0.3753
 1001TIP3    H1 3009   6.217   5.679   4.280  1.5546 -1.2618  1.1024
 1001TIP3    H2 3010   6.270   5.702   4.141 -2.1125  1.0581 -0.0594
 1002TIP3   OH2 3011   0.876   3.270   4.839 -0.3834 -0.1569  0.0392
 1002TIP3    H1 3012   0.802   3.237   4.891 -0.6869  2.1969  1.2702
 1002TIP3    H2 3013   0.835   3.323   4.771  0.1087  0.8810  0.5230
 1003TIP3   OH2 3014   4.769   5.439   4.424 -0.3708  0.4079  0.3285
 1003TIP3    H1 3015   4.726   5.524   4.411 -0.2561  0.3650 -0.3484
 1003TIP3    H2 3016   4.730   5.382   4.358  0.2123  0.1762  0.1781
 1004TIP3   OH2 3017   0.271   4.673   1.760  0.0458  0.1024 -0.2981
 1004TIP3    H1 3018   0.234   4.616   1.827  1.8655  1.0742  1.6192
 1004TIP3    H2 3019   0.322   4.614   1.705 -0.4791 -0.5249 -0.1318
 1005TIP3   OH2 3020   3.155   2.831   0.035 -0.8094 -0.2654  0.1046
 1005TIP3    H1 3021   3.080   2.889   0.024 -1.1794 -0.9076 -0.8599
 1005TIP3    H2 3022   3.223   2.886   0.074 -1.5084  0.5251  0.2169
 1006TIP3   OH2 3023   5.491   1.546   1.087 -0.1221  0.3237 -0.4404
 1006TIP3    H1 3024   5.463   1.566   1.177  1.3103 -0.8094  0.3118
 1006TIP3    H2 3025   5.410   1.531   1.039 -0.9248 -2.1226  1.4488
 1007TIP3   OH2 3026   0.042   4.630   3.506  0.1382 -0.4383  0.1029
 1007TIP3    H1 3027   0.026   4.604   3.597 -1.9484 -0.9189 -0.3635
 1007TIP3    H2 3028  -0.002   4.563   3.454 -0.2276  0.8043 -1.2359
 1008TIP3   OH2 3029   6.352   0.573   1.254  0.1760  0.4842 -0.3869
 1008TIP3    H1 3030   6.411   0.498   1.259  0.1082  0.4186 -0.5643
 1008TIP3    H2 3031   6.311   0.577   1.340 -0.8144 -0.4968 -0.7816
 1009TIP3   OH2 3032   1.182   1.300   3.113  0.1300 -0.3245  0.0068
 1009TIP3    H1 3033   1.187   1.213   3.074  1.6597  0.8217 -2.6857
 1009TIP3    H2 3034   1.102   1.338   3.075  0.1771 -0.1182  0.1163
 1010TIP3   OH2 3035   3.819   0.185   0.537  0.0241 -0.7655  0.1295
 1010TIP3    H1 3036   3.846   0.094   0.551  0.7874 -0.4214  1.0615
 1010TIP3    H2 3037   3.741   0.195   0.592  0.0190 -0.8149  0.1317
 1011TIP3   OH2 3038   1.909   0.175   4.135 -0.2929  0.3182  0.4180
 1011TIP3    H1 3039   1.956   0.248   4.175  0.3589  0.8837 -1.2538
 1011TIP3    H2 3040   1.923   0.101   4.194 -0.1421  1.3081  1.6447
 1012TIP3   OH2 3041   0.070   3.591   1.135  0.3638  0.2948 -0.0033
 1012TIP3    H1 3042   0.070   3.498   1.115 -1.0198 -0.2230  2.0458
 1012TIP3    H2 3043   0.157   3.607   1.174  0.5486 -0.1732 -0.2149
 1013TIP3   OH2 3044   4.695   5.682   4.312 -0.0687  0.0416 -0.0739
 1013TIP3    H1 3045   4.784   5.695   4.279  0.1248  0.0831  0.4553
 1013TIP3    H2 3046   4.648   5.761   4.284  0.4889  0.8103  1.0417
 1014TIP3   OH2 3047   2.314   0.548   1.216 -0.4165  0.2228 -0.2660
 1014TIP3    H1 3048   2.312   0.468   1.269  1.1492 -0.3884 -1.0873
 1014TIP3    H2 3049   2.391   0.595   1.246  0.1931  0.1177 -1.6262
 1015TIP3   OH2 3050   3.508   3.628   2.360  0.2754  0.5204  0.6014
 1015TIP3    H1 3051   3.555   3.707   2.385  1.1969 -0.0771  0.8389
 1015TIP3    H2 3052   3.422   3.658   2.332  1.4396  1.8673 -1.7650
 1016TIP3   OH2 3053   0.028   1.351   4.317 -0.8122 -0.1271  0.6279
 1016TIP3    H1 3054  -0.034   1.279   4.300 -0.8577 -0.5309  2.3378
 1016TIP3    H2 3055   0.039   1.351   4.412 -0.3595  1.7793  0.6133
 1017TIP3   OH2 3056   4.959   0.441   0.168  0.2245  0.8068 -0.7180
 1017TIP3    H1 3057   4.884   0.409   0.119  0.0302 -0.5917  0.4309
 1017TIP3    H2 3058   5.035   0.406   0.122  0.0453 -0.4318 -0.0952
 1018TIP3   OH2 3059   3.640   0.748   4.676 -0.8765 -0.1083 -0.0660
 1018TIP3    H1 3060   3.671   0.810   4.742 -2.9874 -0.4819  1.3763
 1018TIP3    H2 3061   3.582   0.800   4.619  0.9602  0.2216 -1.7338
 1019TIP3   OH2 3062   5.144   0.055   1.360 -0.2601 -0.7665 -0.2021
 1019TIP3    H1 3063   5.225   0.064   1.410  0.8670  1.7692 -2.2332
 1019TIP3    H2 3064   5.108  -0.029   1.388  2.4194 -1.4401  1.6691
 1020TIP3   OH2 3065   0.729   2.534   3.044  0.0138  0.0898  0.2158
 1020TIP3    H1 3066   0.803   2.475   3.051 -0.1132 -0.5215 -2.4658
 1020TIP3    H2 3067   0.652   2.477   3.036 -0.2484  0.5741 -1.1369
 1021TIP3   OH2 3068   4.247   4.485   0.529 -0.5760 -0.1970  0.3558
 1021TIP3    H1 3069   4.330   4.448   0.561 -0.2890 -0.0371 -0.1878
 1021TIP3    H2 3070   4.204   4.519   0.607  0.3949  0.7457  0.5059
 1022TIP3   OH2 3071   4.496   5.031   4.758  0.3436  0.3649 -0.5671
 1022TIP3    H1 3072   4.504   5.117   4.800  1.8859  0.1888 -0.4271
 1022TIP3    H2 3073   4.479   4.971   4.830  1.7392  0.2371 -0.3138
 1023TIP3   OH2 3074   1.680   5.933   2.563 -0.0988 -0.2596 -0.0119
 1023TIP3    H1 3075   1.733   5.854   2.575 -0.3572 -0.5637 -0.8586
 1023TIP3    H2 3076   1.592   5.900   2.545  0.0030  0.1935 -1.3997
 1024TIP3   OH2 3077   2.890   3.322   3.270 -0.0903 -0.1966  0.2272
 1024TIP3    H1 3078   2.873   3.328   3.364 -2.3468 -0.2081 -0.1225
 1024TIP3    H2 3079   2.934   3.405   3.248  1.5817 -0.7038  1.4491
 1025TIP3   OH2 3080   0.160   5.578   1.440  0.3583  0.1887  0.2365
 1025TIP3    H1 3081   0.251   5.562   1.463  0.2092  0.5508  1.0936
 1025TIP3    H2 3082   0.152   5.674   1.440 -0.4220  0.1434  1.7864
 1026TIP3   OH2 3083   4.452   4.179   4.489 -0.1064  0.4301  0.6284
 1026TIP3    H1 3084   4.435   4.153   4.398  0.6158  1.1992  0.2663
 1026TIP3    H2 3085   4.441   4.274   4.489 -0.2490  0.4157  1.3834
 1027TIP3   OH2 3086   2.129   0.648   4.128 -0.5840 -0.3361  0.4237
 1027TIP3    H1 3087   2.180   0.691   4.060 -1.5190  0.2248  0.0694
 1027TIP3    H2 3088   2.040   0.682   4.118 -1.2249 -1.8972  0.5234
 1028TIP3   OH2 3089   0.702   4.776   0.588  0.1963  0.6893 -0.3066
 1028TIP3    H1 3090   0.734   4.712   0.651 -1.3137  1.2110  1.0597
 1028TIP3    H2 3091   0.637   4.730   0.536  0.2754  0.6930 -0.4101
 1029TIP3   OH2 3092   4.503   5.688   0.248 -0.5509  0.7940  0.1559
 1029TIP3    H1 3093   4.414   5.674   0.282  0.5458 -2.3823  2.2003
 1029TIP3    H2 3094   4.537   5.761   0.300 -1.2509  0.6165  0.8931
 1030TIP3   OH2 3095   6.193   0.459   4.137  0.3717  0.0467  0.0667
 1030TIP3    H1 3096   6.115   0.404   4.128  1.0225 -1.2883  1.8691
 1030TIP3    H2 3097   6.205   0.499   4.051 -2.2446  0.2599 -0.2640
 1031TIP3   OH2 3098   5.911   2.258   0.406 -0.4486 -0.3419 -0.4648
 1031TIP3    H1 3099   5.877   2.272   0.318 -0.6621 -2.9598 -0.8871
 1031TIP3    H2 3100   6.000   2.226   0.392  1.7103  4.3213  0.5607
 1032TIP3   OH2 3101   5.541   3.999   2.142  0.6901  0.0777 -0.2233
 1032TIP3    H1 3102   5.516   4.091   2.134 -0.4797 -0.2881 -1.0933
 1032TIP3    H2 3103   5.625   4.000   2.187 -0.5154  1.4401  2.1875
 1033TIP3   OH2 3104   2.902   3.198   1.932  0.2086  0.8089 -0.0718
 1033TIP3    H1 3105   2.871   3.126   1.878 -0.2137  0.0268  1.1817
 1033TIP3    H2 3106   2.983   3.166   1.971 -0.3246  0.7504  1.0099
 1034TIP3   OH2 3107   2.225   0.017   4.977  0.5345 -0.2554  0.4615
 1034TIP3    H1 3108   2.211   0.012   5.072 -1.5303  0.9935  0.2676
 1034TIP3    H2 3109   2.194   0.104   4.953  3.0611  0.3121 -1.0844
 1035TIP3   OH2 3110   3.505   4.269   1.820  0.1738 -0.2127 -0.3864
 1035TIP3    H1 3111   3.572   4.315   1.771 -1.5715  0.8862 -1.8454
 1035TIP3    H2 3112   3.531   4.278   1.912  1.3532  1.2305 -0.8398
 1036TIP3   OH2 3113   6.012   5.267   0.733 -0.0680  0.3158 -0.3334
 1036TIP3    H1 3114   5.949   5.198   0.754 -1.3442  1.1158 -1.3623
 1036TIP3    H2 3115   5.960   5.347   0.734  1.3908  1.3110  0.9180
 1037TIP3   OH2 3116   4.360   2.659   1.069 -0.2852  0.1425  0.3866
 1037TIP3    H1 3117   4.362   2.753   1.086  0.8680  0.4681 -1.3970
 1037TIP3    H2 3118   4.321   2.622   1.149 -0.3889  2.0655  1.2912
 1038TIP3   OH2 3119   4.394   5.389   1.520 -0.2707 -0.6568 -0.2815
 1038TIP3    H1 3120   4.380   5.340   1.439  1.0652 -2.0293  0.2669
 1038TIP3    H2 3121   4.313   5.377   1.570  0.1442 -2.6926  0.0007
 1039TIP3   OH2 3122   3.530   4.365   1.416  0.8338  0.0407 -0.0523
 1039TIP3    H1 3123   3.564   4.399   1.334  0.0508  0.2293 -0.3104
 1039TIP3    H2 3124   3.435   4.373   1.408  0.7049 -0.7969  0.4996
 1040TIP3   OH2 3125   4.602   2.525   0.712  0.3509  0.4257  0.1153
 1040TIP3    H1 3126   4.522   2.574   0.731  0.6162  1.1820 -0.6952
 1040TIP3    H2 3127   4.598   2.451   0.773  0.0285  1.5269  1.4998
 1041TIP3   OH2 3128   2.724   1.514   0.354 -0.3390  0.7087  0.7941
 1041TIP3    H1 3129   2.648   1.520   0.295 -0.7202 -1.2124  1.0114
 1041TIP3    H2 3130   2.694   1.554   0.435 -1.1606 -0.0776  0.8917
 1042TIP3   OH2 3131   2.277   4.024   3.837  0.4651 -0.2136 -0.0895
 1042TIP3    H1 3132   2.340   3.999   3.771  1.6481  1.3238  0.3925
 1042TIP3    H2 3133   2.229   4.098   3.798 -0.9609 -1.2414 -0.3819
 1043TIP3   OH2 3134   2.947   0.779   0.214  0.2844 -0.0500 -0.0128
 1043TIP3    H1 3135   2.949   0.719   0.139 -1.0251 -0.3894  0.2081
 1043TIP3    H2 3136   2.958   0.866   0.175 -1.3959 -0.1219 -0.7428
 1044TIP3   OH2 3137   3.732   1.432   4.682 -0.3161 -0.2223  0.3195
 1044TIP3    H1 3138   3.815   1.431   4.634 -0.4686 -1.8833  0.0198
 1044TIP3    H2 3139   3.729   1.347   4.727 -1.1916  0.4106  1.5111
 1045TIP3   OH2 3140   1.273   0.460   1.340  0.2719 -0.0442  0.5497
 1045TIP3    H1 3141   1.214   0.513   1.286  0.4846 -1.2369 -0.9161
 1045TIP3    H2 3142   1.361   0.491   1.317  0.3095  0.6824  1.5962
 1046TIP3   OH2 3143   4.333   5.942   4.881 -0.2477  0.2536 -0.4004
 1046TIP3    H1 3144   4.260   5.911   4.934  0.9923 -1.2197  0.5651
 1046TIP3    H2 3145   4.334   6.037   4.892 -1.7035  0.2446 -0.0665
 1047TIP3   OH2 3146   3.914   2.698   4.325  0.3345  0.4233 -0.1180
 1047TIP3    H1 3147   3.993   2.644   4.315 -0.3074 -1.1402  2.2629
 1047TIP3    H2 3148   3.947   2.786   4.341  1.7172 -0.3486  1.7077
 1048TIP3   OH2 3149   5.717   0.858   3.102 -0.5716 -0.3658  0.0760
 1048TIP3    H1 3150   5.706   0.770   3.064  0.2181 -0.5395  0.2435
 1048TIP3    H2 3151   5.762   0.908   3.035 -0.5553 -0.2308  0.1874
 1049TIP3   OH2 3152   0.239   4.819   3.464 -0.1463  0.3626 -0.3227
 1049TIP3    H1 3153   0.158   4.769   3.475 -0.8137  1.3852 -0.5698
 1049TIP3    H2 3154   0.216   4.891   3.407  1.0222  0.4968 -0.6531
 1050TIP3   OH2 3155   0.030   5.447   3.663  0.2852  0.3042 -0.7485
 1050TIP3    H1 3156   0.081   5.387   3.609  0.3748  0.1413 -0.4822
 1050TIP3    H2 3157   0.039   5.413   3.752 -0.3936  0.1929 -0.7152
 1051TIP3   OH2 3158   3.189   2.594   0.587  0.3871  0.1834 -0.0741
 1051TIP3    H1 3159   3.129   2.526   0.557 -0.4565  0.5046  0.8389
 1051TIP3    H2 3160   3.276   2.556   0.573  0.0507  0.1526 -2.4667
 1052TIP3   OH2 3161   5.785   2.472   3.276  0.4029  0.0884  0.4736
 1052TIP3    H1 3162   5.827   2.422   3.346  0.2894  2.1494  2.1157
 1052TIP3    H2 3163   5.810   2.563   3.294 -2.0975  1.0106 -0.3747
 1053TIP3   OH2 3164   5.056   5.382   0.772 -0.4371 -0.9446 -0.4461
 1053TIP3    H1 3165   4.985   5.407   0.831  0.3732  0.3110  0.0426
 1053TIP3    H2 3166   5.131   5.366   0.830  0.3336  0.1583 -1.0950
 1054TIP3   OH2 3167   5.871   0.955   4.213  0.2258  0.2083  0.4740
 1054TIP3    H1 3168   5.882   0.897   4.289  0.5001  0.6804  0.7952
 1054TIP3    H2 3169   5.893   1.042   4.245  1.9200  0.1942 -0.5458
 1055TIP3   OH2 3170   0.370   3.612   0.502  0.0972  0.3243  0.8908
 1055TIP3    H1 3171   0.309   3.678   0.535  0.6652  0.5605  1.4816
 1055TIP3    H2 3172   0.314   3.548   0.458 -0.4181  1.4715 -0.1937
 1056TIP3   OH2 3173   0.528   5.876   2.666  0.5817 -0.0381 -0.0777
 1056TIP3    H1 3174   0.583   5.826   2.727  0.4846  0.9458  0.8550
 1056TIP3    H2 3175   0.441   5.838   2.675 -0.0241  1.6895  2.3646
 1057TIP3   OH2 3176   4.891   2.197   4.487 -0.0039  0.7076 -0.0450
 1057TIP3    H1 3177   4.950   2.230   4.419 -0.3069 -0.8437 -1.1058
 1057TIP3    H2 3178   4.805   2.195   4.445 -0.8730  2.8423  1.4446
 1058TIP3   OH2 3179   0.377   2.670   3.156 -0.3109  0.6180 -0.2663
 1058TIP3    H1 3180   0.464   2.699   3.186 -0.7205  0.9601  0.6134
 1058TIP3    H2 3181   0.342   2.745   3.108 -1.4683  1.7594  2.2102
 1059TIP3   OH2 3182   4.133   1.104   4.727 -0.3162 -0.3275 -0.0934
 1059TIP3    H1 3183   4.206   1.152   4.766 -1.2136 -0.8759  2.4462
 1059TIP3    H2 3184   4.169   1.065   4.648  1.1487  2.2949 -0.8570
 1060TIP3   OH2 3185   0.693   5.742   3.909  0.7995 -0.0138 -0.1850
 1060TIP3    H1 3186   0.788   5.732   3.916  0.8074 -0.0669 -0.3574
 1060TIP3    H2 3187   0.676   5.833   3.934  0.9096  0.0308 -0.2689
 1061TIP3   OH2 3188   1.576   3.438   4.581  0.3595  0.1470 -0.8632
 1061TIP3    H1 3189   1.658   3.393   4.559 -0.0193  0.2947 -2.7962
 1061TIP3    H2 3190   1.537   3.458   4.496 -1.6385  0.1834  0.0168
 1062TIP3   OH2 3191   1.394   3.469   3.912 -0.6063 -0.2166 -0.6290
 1062TIP3    H1 3192   1.465   3.414   3.879 -1.5116 -1.1168 -1.1467
 1062TIP3    H2 3193   1.356   3.419   3.985  0.1295  0.8736  0.5418
 1063TIP3   OH2 3194   2.807   3.452   0.838  0.0378 -0.3900 -0.5532
 1063TIP3    H1 3195   2.740   3.510   0.804  0.1203  1.3642  2.0050
 1063TIP3    H2 3196   2.815   3.382   0.772 -1.3844  1.4743 -2.8400
 1064TIP3   OH2 3197   1.508   3.544   4.351  0.6271 -0.4939  0.0130
 1064TIP3    H1 3198   1.540   3.633   4.338  1.8103 -0.7228  1.2079
 1064TIP3    H2 3199   1.542   3.494   4.276 -1.8952  0.4307 -1.9371
 1065TIP3   OH2 3200   5.554   3.937   3.822  0.4404 -0.1824 -0.2267
 1065TIP3    H1 3201   5.539   3.865   3.883 -1.0807 -0.8522 -1.3079
 1065TIP3    H2 3202   5.649   3.939   3.810  0.7066 -0.4495  1.6240
 1066TIP3   OH2 3203   2.514   2.723   0.841  0.4469 -0.5950  0.8397
 1066TIP3    H1 3204   2.420   2.729   0.824  0.5235 -0.9738  0.2472
 1066TIP3    H2 3205   2.553   2.724   0.754  1.1564  2.1551  1.1055
 1067TIP3   OH2 3206   1.263   2.443   1.726 -0.0161 -0.2443 -0.2917
 1067TIP3    H1 3207   1.318   2.402   1.793  0.9184 -0.4273 -1.1497
 1067TIP3    H2 3208   1.272   2.537   1.742 -1.7832 -0.2838  1.3772
 1068TIP3   OH2 3209   4.148   5.916   4.052  0.1039  0.0304 -0.1966
 1068TIP3    H1 3210   4.109   5.898   3.966 -2.4967 -0.1052  0.9356
 1068TIP3    H2 3211   4.164   6.011   4.050 -2.2292  0.4772 -0.0096
 1069TIP3   OH2 3212   4.830   5.510   0.898  0.5902 -0.1380  0.9108
 1069TIP3    H1 3213   4.790   5.450   0.835 -1.3079  2.6139 -0.7367
 1069TIP3    H2 3214   4.758   5.535   0.956  1.1501  1.0594  1.1239
 1070TIP3   OH2 3215   6.010   3.064   1.401  0.2827  0.0190 -0.2615
 1070TIP3    H1 3216   6.102   3.072   1.427  0.3505  0.9805 -0.7524
 1070TIP3    H2 3217   6.012   3.007   1.324  0.2261 -1.7020  0.9701
 1071TIP3   OH2 3218   5.591   1.828   4.230  0.1438  0.1893  0.5392
 1071TIP3    H1 3219   5.537   1.853   4.154  0.5908  0.8916  0.4360
 1071TIP3    H2 3220   5.588   1.733   4.232  1.4771  0.0452 -1.3897
 1072TIP3   OH2 3221   5.363   5.144   5.200 -0.0131 -0.4787  0.8025
 1072TIP3    H1 3222   5.290   5.200   5.228 -2.3354 -2.7652 -0.2616
 1072TIP3    H2 3223   5.402   5.191   5.127 -2.6399 -0.6312 -0.8276
 1073TIP3   OH2 3224   1.637   5.053   1.264  0.1027 -0.1027  0.1482
 1073TIP3    H1 3225   1.580   5.080   1.336  2.0449  3.7485  0.5000
 1073TIP3    H2 3226   1.650   4.959   1.277 -4.8816 -0.9368  0.8037
 1074TIP3   OH2 3227   5.326   0.588   4.149 -0.1194 -0.1124 -0.0034
 1074TIP3    H1 3228   5.421   0.596   4.140 -0.3732  1.1203 -2.1721
 1074TIP3    H2 3229   5.310   0.494   4.155  1.2361 -0.3266  0.6058
 1075TIP3   OH2 3230   5.628   2.861   3.358 -0.4647  0.2697 -0.5197
 1075TIP3    H1 3231   5.650   2.783   3.409  0.7742  2.0145  1.8436
 1075TIP3    H2 3232   5.677   2.851   3.276  0.2171 -1.1253  0.0202
 1076TIP3   OH2 3233   4.269   3.821   0.092  0.0753  0.0951 -0.4047
 1076TIP3    H1 3234   4.344   3.879   0.103 -1.1113  1.6398 -0.1269
 1076TIP3    H2 3235   4.300   3.735   0.123  1.9574  0.4808 -1.1110
 1077TIP3   OH2 3236   0.761   0.537   2.747 -0.3950 -0.1882  0.4714
 1077TIP3    H1 3237   0.702   0.483   2.693  1.2341 -0.5201 -1.0924
 1077TIP3    H2 3238   0.835   0.479   2.767  1.0607  1.1999 -0.6373
 1078TIP3   OH2 3239   5.849   0.578   0.651  0.2547  0.4536  0.2889
 1078TIP3    H1 3240   5.771   0.609   0.696  0.8491  2.9180 -0.2734
 1078TIP3    H2 3241   5.817   0.552   0.564 -0.4777 -2.0473  1.2117
 1079TIP3   OH2 3242   4.933   0.865   1.305  0.4618 -0.0199 -0.7498
 1079TIP3    H1 3243   4.959   0.775   1.289  3.5503  0.7946 -0.9212
 1079TIP3    H2 3244   4.887   0.892   1.225 -0.2336 -1.3062 -0.8054
 1080TIP3   OH2 3245   0.867   5.050   3.444 -0.1338 -0.5351  0.8172
 1080TIP3    H1 3246   0.835   5.033   3.356  0.3492  0.3011  0.4649
 1080TIP3    H2 3247   0.910   5.135   3.438  1.8741 -1.4415  1.3225
 1081TIP3   OH2 3248   0.713   4.984   0.218 -0.1661 -0.4884  0.2489
 1081TIP3    H1 3249   0.761   4.976   0.135 -2.0964 -0.9847 -0.8796
 1081TIP3    H2 3250   0.768   5.041   0.272  0.8594  0.3540 -1.5991
 1082TIP3   OH2 3251   3.548   5.814   2.784  0.1562 -0.1409 -0.0232
 1082TIP3    H1 3252   3.478   5.784   2.727  0.1927  0.7480 -0.5504
 1082TIP3    H2 3253   3.553   5.908   2.768  0.2695  0.1034  1.3265
 1083TIP3   OH2 3254   1.919   5.372   5.109  0.3938 -0.1263  0.0057
 1083TIP3    H1 3255   1.915   5.419   5.026 -0.4502 -1.0647 -0.5070
 1083TIP3    H2 3256   1.831   5.335   5.120  0.6109 -0.3482  1.1200
 1084TIP3   OH2 3257   2.282   3.497   4.660  0.0191  0.1936  0.2753
 1084TIP3    H1 3258   2.347   3.534   4.600 -1.3604  0.3175 -1.2056
 1084TIP3    H2 3259   2.272   3.406   4.632 -1.8799  0.6956 -0.8877
 1085TIP3   OH2 3260   0.695   3.607   4.400  0.1828  0.0448 -0.6552
 1085TIP3    H1 3261   0.646   3.689   4.402 -0.7571 -0.5175  0.6556
 1085TIP3    H2 3262   0.763   3.618   4.466 -0.9212 -0.7763  0.6723
 1086TIP3   OH2 3263   2.429   5.698  -0.006  0.8205  0.0872 -0.5079
 1086TIP3    H1 3264   2.395   5.673   0.080  0.1963  1.1930 -0.4123
 1086TIP3    H2 3265   2.523   5.706   0.007  0.9159 -1.1406 -0.2944
 1087TIP3   OH2 3266   6.082   2.556   4.087 -0.1091 -0.1456 -0.2810
 1087TIP3    H1 3267   6.170   2.592   4.098  0.2456 -1.0654 -0.0319
 1087TIP3    H2 3268   6.088   2.468   4.122 -1.2196 -0.1066  0.0264
 1088TIP3   OH2 3269   3.376   4.802   2.168  0.4502 -0.3060  0.0728
 1088TIP3    H1 3270   3.320   4.809   2.245 -0.4894 -0.8886 -0.5393
 1088TIP3    H2 3271   3.456   4.850   2.192  0.7031 -1.5206  1.8638
 1089TIP3   OH2 3272   2.084   1.686   2.927 -0.5928 -0.0502 -0.1836
 1089TIP3    H1 3273   2.105   1.777   2.908  2.3949 -0.1990  1.6689
 1089TIP3    H2 3274   2.083   1.643   2.842  2.5498  0.9445 -0.8421
 1090TIP3   OH2 3275   1.748   3.148   5.139  0.3190  0.2541 -0.0829
 1090TIP3    H1 3276   1.673   3.125   5.084 -0.7064 -0.6714  1.6115
 1090TIP3    H2 3277   1.710   3.190   5.216  1.4480 -0.8725  1.1573
 1091TIP3   OH2 3278   4.177   2.713   1.290  0.4010  0.0923 -0.2053
 1091TIP3    H1 3279   4.141   2.643   1.237  0.7449  0.6284 -1.1586
 1091TIP3    H2 3280   4.106   2.777   1.296 -0.6850 -1.1692  2.3872
 1092TIP3   OH2 3281   0.167   4.854   3.730  0.3893 -0.6475  0.5481
 1092TIP3    H1 3282   0.085   4.904   3.723  0.1951 -0.7429  1.7824
 1092TIP3    H2 3283   0.196   4.841   3.640  0.6431  2.0158  0.1816
 1093TIP3   OH2 3284   3.693   4.809   4.531 -0.8180  0.3643  0.4892
 1093TIP3    H1 3285   3.668   4.901   4.517 -0.7983  0.3992  0.6887
 1093TIP3    H2 3286   3.708   4.802   4.625  1.5900  0.7699  0.2063
 1094TIP3   OH2 3287   4.746   2.850   3.169  0.6426 -0.4771  0.3842
 1094TIP3    H1 3288   4.699   2.783   3.218 -0.0221 -0.3949 -0.1321
 1094TIP3    H2 3289   4.734   2.930   3.220 -0.4202 -0.2991 -0.1314
 1095TIP3   OH2 3290   1.063   5.789   3.193 -0.0151  0.4005 -0.2016
 1095TIP3    H1 3291   1.109   5.706   3.198 -2.0538 -0.8134 -0.4295
 1095TIP3    H2 3292   1.119   5.850   3.241  1.3718 -1.1655  0.2719
 1096TIP3   OH2 3293   1.882   1.065   4.403  0.4057 -0.1444  0.0927
 1096TIP3    H1 3294   1.929   1.146   4.425  1.4930 -0.6026 -0.4632
 1096TIP3    H2 3295   1.872   1.020   4.487  0.1546  0.3707  0.3454
 1097TIP3   OH2 3296   0.881   2.579   1.531 -0.4595 -0.2183  0.4584
 1097TIP3    H1 3297   0.815   2.648   1.527 -0.6418 -0.3839  0.5593
 1097TIP3    H2 3298   0.887   2.557   1.624  1.6460  1.5973  0.8222
 1098TIP3   OH2 3299   5.060   5.755   3.618 -0.2242  0.2801  0.3208
 1098TIP3    H1 3300   5.037   5.664   3.600 -2.1061  0.7141  0.4145
 1098TIP3    H2 3301   5.146   5.750   3.661 -0.6479 -1.4852  1.0259
 1099TIP3   OH2 3302   2.267   0.439   5.106  0.3960 -0.1140 -0.7772
 1099TIP3    H1 3303   2.197   0.373   5.102 -0.0632  0.3580 -0.5812
 1099TIP3    H2 3304   2.282   0.462   5.014  1.0301 -0.9794 -0.8998
 1100TIP3   OH2 3305   0.078   4.931   4.286  0.2048 -0.1564  0.2075
 1100TIP3    H1 3306   0.111   4.947   4.198  0.7609  3.7972  0.9708
 1100TIP3    H2 3307  -0.016   4.950   4.281 -0.0221 -1.2052  0.2368
 1101TIP3   OH2 3308   3.057   5.971   2.598 -0.0486  0.1922 -0.6317
 1101TIP3    H1 3309   3.120   6.003   2.663  0.2534  0.6260 -1.1324
 1101TIP3    H2 3310   2.973   6.008   2.626  0.2364  1.1572 -1.0065
 1102TIP3   OH2 3311   4.219   4.961   4.123  0.6887  0.1418 -0.4222
 1102TIP3    H1 3312   4.301   4.927   4.089  0.8127  0.3207 -0.3027
 1102TIP3    H2 3313   4.184   5.015   4.052  0.0457 -0.9466 -0.9630
 1103TIP3   OH2 3314   0.969   4.469   3.165  0.7272  0.0032  0.2537
 1103TIP3    H1 3315   1.064   4.473   3.170  0.8667 -2.7181  1.3802
 1103TIP3    H2 3316   0.950   4.380   3.135 -1.4740  1.0285 -1.7235
 1104TIP3   OH2 3317   5.501   4.665   0.193 -0.1113 -0.2697  0.3370
 1104TIP3    H1 3318   5.502   4.741   0.136  1.3438  0.1066  0.8194
 1104TIP3    H2 3319   5.593   4.641   0.203 -0.4867 -1.6091  0.8320
 1105TIP3   OH2 3320   2.082   4.653   4.479  0.3538  0.0488 -0.1515
 1105TIP3    H1 3321   2.066   4.579   4.420  0.7707 -0.9062  0.8940
 1105TIP3    H2 3322   2.079   4.615   4.567  2.9599  0.7998  0.3530
 1106TIP3   OH2 3323   1.246   2.792   3.929  0.5013  0.6179 -0.2742
 1106TIP3    H1 3324   1.313   2.849   3.891  1.1952 -0.1215 -0.2142
 1106TIP3    H2 3325   1.288   2.705   3.931 -1.7859 -0.8307 -4.0264
 1107TIP3   OH2 3326   4.945   5.824   2.569 -0.2478  0.8727 -0.4723
 1107TIP3    H1 3327   4.850   5.828   2.582 -0.1655 -1.7171  1.5295
 1107TIP3    H2 3328   4.965   5.731   2.560  2.1448  1.3458 -0.8427
 1108TIP3   OH2 3329   1.769   3.555   2.881  0.5952  0.1711 -0.3646
 1108TIP3    H1 3330   1.787   3.461   2.887  0.5055  0.2379  1.2688
 1108TIP3    H2 3331   1.855   3.595   2.871  0.6059 -0.0822 -1.5044
 1109TIP3   OH2 3332   3.467   4.533   2.081  0.2235  0.4968  0.5449
 1109TIP3    H1 3333   3.459   4.604   2.145 -1.3166  1.0834 -0.2380
 1109TIP3    H2 3334   3.467   4.578   1.996 -1.5454 -0.4454  0.0035
 1110TIP3   OH2 3335   2.847   1.861   4.925  0.0236 -0.4578  0.7446
 1110TIP3    H1 3336   2.878   1.950   4.910 -0.9801  0.1824  2.1801
 1110TIP3    H2 3337   2.846   1.821   4.838 -2.0406  1.7859 -0.3846
 1111TIP3   OH2 3338   2.788   1.518   0.797  0.3544 -0.1840  0.0692
 1111TIP3    H1 3339   2.814   1.564   0.717  0.4270  0.7146  0.5874
 1111TIP3    H2 3340   2.869   1.510   0.848 -0.1849  2.1418  1.4506
 1112TIP3   OH2 3341   4.143   4.261   2.211  0.1035  0.1562  0.0382
 1112TIP3    H1 3342   4.084   4.247   2.138 -1.3934  1.2796  0.9861
 1112TIP3    H2 3343   4.228   4.278   2.170 -0.5121 -0.0825 -1.3996
 1113TIP3   OH2 3344   2.650   3.976   1.672 -0.2848 -0.0815  0.1109
 1113TIP3    H1 3345   2.711   3.931   1.731 -0.3818  1.5965  1.5747
 1113TIP3    H2 3346   2.706   4.018   1.607 -0.1651 -1.7867 -0.9463
 1114TIP3   OH2 3347   0.340   0.915   1.934 -0.3352  0.0260  0.1535
 1114TIP3    H1 3348   0.359   0.830   1.892  0.2752 -0.1577  0.7749
 1114TIP3    H2 3349   0.422   0.937   1.980 -0.2473  1.2933 -0.5716
 1115TIP3   OH2 3350   0.530   4.324   1.251 -0.3101 -0.1945 -0.0526
 1115TIP3    H1 3351   0.476   4.324   1.330 -0.8895 -0.2635 -0.4503
 1115TIP3    H2 3352   0.562   4.414   1.244 -0.3223 -0.1671  0.2107
 1116TIP3   OH2 3353   2.578   2.064   3.071 -0.7290 -0.7068 -0.5292
 1116TIP3    H1 3354   2.585   2.159   3.061  1.0964 -0.6505  0.8330
 1116TIP3    H2 3355   2.525   2.036   2.996 -2.8705  1.5453 -0.0021
 1117TIP3   OH2 3356   3.433   1.344   1.236  0.4004  0.5849 -0.0253
 1117TIP3    H1 3357   3.349   1.299   1.227  0.3379  0.7749 -0.4320
 1117TIP3    H2 3358   3.447   1.386   1.151  1.5183 -0.4972 -0.4058
 1118TIP3   OH2 3359   5.572   4.584   0.898  0.0748  0.1946 -0.4002
 1118TIP3    H1 3360   5.646   4.573   0.838  0.3260 -0.3478  0.0013
 1118TIP3    H2 3361   5.573   4.505   0.951  0.9741  1.4588  1.5594
 1119TIP3   OH2 3362   1.523   1.493   0.116  0.1561 -0.0476 -0.7949
 1119TIP3    H1 3363   1.528   1.504   0.211 -1.6289  0.1365 -0.6916
 1119TIP3    H2 3364   1.511   1.582   0.082  0.0792 -0.1866 -1.1343
 1120TIP3   OH2 3365   5.815   5.554   2.037 -0.0544  0.3739  0.1509
 1120TIP3    H1 3366   5.864   5.490   1.985 -0.6060  0.7087 -0.7934
 1120TIP3    H2 3367   5.786   5.504   2.114 -0.4432 -0.5239 -0.5512
 1121TIP3   OH2 3368   5.655   0.926   1.982 -0.7298 -0.1819  0.3088
 1121TIP3    H1 3369   5.614   0.963   2.060  0.8871 -0.5990  1.3948
 1121TIP3    H2 3370   5.747   0.916   2.005 -0.0643  0.3048 -1.8951
 1122TIP3   OH2 3371   0.795   4.255   3.844 -0.0428  0.1137  0.2591
 1122TIP3    H1 3372   0.832   4.205   3.918 -0.0503 -1.3792 -0.7138
 1122TIP3    H2 3373   0.872   4.283   3.795 -0.0880 -0.2669 -0.0317
 1123TIP3   OH2 3374   3.742   2.282   2.331  0.0709  0.2489 -0.8117
 1123TIP3    H1 3375   3.679   2.269   2.402 -1.2611  0.7546 -1.8685
 1123TIP3    H2 3376   3.822   2.311   2.375 -0.2541 -0.8800  0.6028
 1124TIP3   OH2 3377   5.336   5.429   4.356  0.0866 -0.1585 -0.6490
 1124TIP3    H1 3378   5.255   5.399   4.397  0.0133  1.0541  0.1491
 1124TIP3    H2 3379   5.315   5.435   4.263 -1.4604  2.1187 -0.2602
 1125TIP3   OH2 3380   4.019   4.002   0.172 -0.4139 -0.1468 -0.2219
 1125TIP3    H1 3381   3.986   3.934   0.232 -0.0531 -0.9766 -0.9462
 1125TIP3    H2 3382   4.100   3.965   0.137 -2.6659 -1.6386 -4.5040
 1126TIP3   OH2 3383   3.221   2.194   1.751  0.0785  0.5082  0.1631
 1126TIP3    H1 3384   3.139   2.157   1.720  0.2872  0.5742 -0.4991
 1126TIP3    H2 3385   3.234   2.272   1.696  0.9339  0.1045 -0.2308
 1127TIP3   OH2 3386   5.390   3.649   4.180 -0.4986 -0.2958 -0.2808
 1127TIP3    H1 3387   5.399   3.741   4.206 -2.2107  0.2017 -1.2985
 1127TIP3    H2 3388   5.325   3.613   4.241 -0.5689 -0.5712 -0.5157
 1128TIP3   OH2 3389   2.639   0.944   1.032 -0.5391 -0.0291  0.1554
 1128TIP3    H1 3390   2.608   1.031   1.056 -1.7356 -0.0955 -0.9938
 1128TIP3    H2 3391   2.563   0.887   1.045  0.5152 -1.1289  1.8863
 1129TIP3   OH2 3392   6.240   2.938   0.740 -0.0142 -0.0561  0.1311
 1129TIP3    H1 3393   6.193   3.015   0.772 -0.7967 -0.0776 -0.9169
 1129TIP3    H2 3394   6.292   2.970   0.666  0.2081 -0.3981  0.1349
 1130TIP3   OH2 3395   0.793   1.605   5.165 -0.1000  0.0344 -0.0802
 1130TIP3    H1 3396   0.725   1.573   5.224  0.2124 -0.1713  0.1731
 1130TIP3    H2 3397   0.791   1.545   5.091 -0.1998  0.0344 -0.0779
 1131TIP3   OH2 3398   5.567   0.295   2.440 -0.1479 -0.2569 -0.6566
 1131TIP3    H1 3399   5.500   0.226   2.444 -0.3862  0.0275  1.5063
 1131TIP3    H2 3400   5.526   0.365   2.390 -0.2875 -1.2300 -1.9917
 1132TIP3   OH2 3401   1.061   5.516   4.961 -0.1488  0.2074 -0.1601
 1132TIP3    H1 3402   1.100   5.478   5.040  0.6890 -0.8552 -1.0458
 1132TIP3    H2 3403   0.967   5.512   4.977  0.0210  0.4336  0.9671
 1133TIP3   OH2 3404   2.552   0.780   1.949 -0.1612 -0.9576  0.3929
 1133TIP3    H1 3405   2.608   0.856   1.963 -1.2328 -0.5900  3.3734
 1133TIP3    H2 3406   2.484   0.810   1.889 -0.1194  0.2146  0.9200
 1134TIP3   OH2 3407   5.345   2.385   2.499 -0.3582 -0.1405  0.1458
 1134TIP3    H1 3408   5.269   2.373   2.443 -2.3173 -0.8751  2.7603
 1134TIP3    H2 3409   5.382   2.297   2.508  1.4474  0.3403 -1.8223
 1135TIP3   OH2 3410   3.993   2.264   1.915 -0.3152  0.5339 -0.1034
 1135TIP3    H1 3411   3.968   2.277   1.823 -0.5031 -1.5325 -0.3928
 1135TIP3    H2 3412   3.918   2.217   1.953  1.0516 -1.5081  0.2368
 1136TIP3   OH2 3413   4.001   2.976   0.965  0.0876  0.8338 -0.3837
 1136TIP3    H1 3414   3.912   2.995   0.938 -0.4375  0.3152  0.9095
 1136TIP3    H2 3415   4.024   3.048   1.024  0.7455  1.2599 -1.1302
 1137TIP3   OH2 3416   3.027   4.978   1.370 -0.2745  0.3602  0.0060
 1137TIP3    H1 3417   2.980   4.964   1.287 -1.3535  1.6480  0.3658
 1137TIP3    H2 3418   2.959   4.973   1.437  0.6642 -1.1809  0.8979
 1138TIP3   OH2 3419   4.741   3.002   5.130  0.1985  0.2230 -0.1512
 1138TIP3    H1 3420   4.744   2.920   5.179  1.6289 -0.2105 -0.9017
 1138TIP3    H2 3421   4.769   3.069   5.193  1.0153 -0.1810 -0.0601
 1139TIP3   OH2 3422   5.738   2.478   0.589  0.2950 -0.1637  0.4751
 1139TIP3    H1 3423   5.646   2.478   0.615  0.1372 -2.7420  0.1756
 1139TIP3    H2 3424   5.739   2.519   0.502 -0.3770  0.9067  0.9576
 1140TIP3   OH2 3425   2.307   3.644   1.478 -0.0741 -0.3106  0.0858
 1140TIP3    H1 3426   2.368   3.678   1.543  0.7661  1.0047 -1.3579
 1140TIP3    H2 3427   2.361   3.595   1.416 -0.3710  1.1395 -1.3901
 1141TIP3   OH2 3428   0.576   1.799   1.746 -0.7917 -0.7955 -0.3666
 1141TIP3    H1 3429   0.518   1.763   1.679 -1.3540 -0.8733  0.1482
 1141TIP3    H2 3430   0.517   1.831   1.814 -0.3149  0.8834 -0.6829
 1142TIP3   OH2 3431   0.081   1.757   2.259 -0.1228  0.8062  0.1288
 1142TIP3    H1 3432   0.011   1.769   2.195 -0.0169 -1.9084 -0.6244
 1142TIP3    H2 3433   0.134   1.837   2.252 -0.3154  0.7853 -2.9492
 1143TIP3   OH2 3434   1.995   2.428   3.263  0.1040 -0.6677  0.2636
 1143TIP3    H1 3435   1.959   2.477   3.189  1.9577 -0.3788 -0.5097
 1143TIP3    H2 3436   1.931   2.360   3.281 -0.4224 -0.7081 -1.5821
 1144TIP3   OH2 3437   6.216   4.129   2.671 -0.7703  0.3682 -0.2613
 1144TIP3    H1 3438   6.246   4.171   2.751 -0.9177  0.3336 -0.1869
 1144TIP3    H2 3439   6.295   4.091   2.632 -0.2586  2.4564 -1.3893
 1145TIP3   OH2 3440   0.542   4.546   4.533 -0.2951  0.4409  0.1024
 1145TIP3    H1 3441   0.457   4.590   4.532 -1.2911 -1.3562 -0.8217
 1145TIP3    H2 3442   0.534   4.481   4.604  1.6505  2.5386  2.4035
 1146TIP3   OH2 3443   4.613   0.777   3.123  0.5909 -0.2643 -0.7169
 1146TIP3    H1 3444   4.573   0.706   3.074 -4.0438 -0.2239  2.3651
 1146TIP3    H2 3445   4.574   0.856   3.086  0.9491  0.1699 -0.1856
 1147TIP3   OH2 3446   4.557   0.692   2.147 -0.0702 -0.2228  0.0932
 1147TIP3    H1 3447   4.530   0.778   2.116  0.7957 -0.1643 -0.5375
 1147TIP3    H2 3448   4.524   0.631   2.082  1.6375 -0.1114 -0.9256
 1148TIP3   OH2 3449   1.626   1.937   4.960  0.0765 -0.2167 -0.0438
 1148TIP3    H1 3450   1.678   2.006   5.004  0.6937 -0.9516  0.4063
 1148TIP3    H2 3451   1.654   1.856   5.003 -0.9919 -0.6995 -0.2473
 1149TIP3   OH2 3452   3.567   0.915   0.389  0.1911 -0.4355  0.4303
 1149TIP3    H1 3453   3.578   0.861   0.311  4.8947 -0.4512  0.8126
 1149TIP3    H2 3454   3.621   0.873   0.455  1.1966  2.7404  1.8399
 1150TIP3   OH2 3455   2.545   4.952   2.355 -0.4304  0.1976  0.0971
 1150TIP3    H1 3456   2.541   4.986   2.266 -1.1012  2.2685  0.8595
 1150TIP3    H2 3457   2.620   4.893   2.355  0.6982  1.5483 -1.3755
 1151TIP3   OH2 3458   6.117   4.777   2.942  0.2610  0.4292 -0.1024
 1151TIP3    H1 3459   6.194   4.789   2.998 -0.2681  0.6329  0.6010
 1151TIP3    H2 3460   6.043   4.799   2.999 -0.4521 -1.4735 -0.2200
 1152TIP3   OH2 3461   5.037   4.713   4.421  0.2527  0.2172 -0.4825
 1152TIP3    H1 3462   5.107   4.671   4.370  1.4375  1.2500  0.2155
 1152TIP3    H2 3463   4.964   4.719   4.360  0.4430 -1.7392 -0.9465
 1153TIP3   OH2 3464   4.490   4.685   2.104 -0.1299  0.2359  0.2143
 1153TIP3    H1 3465   4.481   4.729   2.019  0.5036  1.2961  0.6850
 1153TIP3    H2 3466   4.404   4.695   2.145 -0.4695 -0.3716 -0.3439
 1154TIP3   OH2 3467   5.675   3.175   0.825  0.2394  0.0049  0.6143
 1154TIP3    H1 3468   5.649   3.118   0.897 -0.7424  0.5716  0.7252
 1154TIP3    H2 3469   5.707   3.254   0.867 -1.0750  0.6543  0.4498
 1155TIP3   OH2 3470   0.990   5.046   1.713 -0.3852  0.7583  0.1328
 1155TIP3    H1 3471   1.052   4.997   1.768 -3.0529 -0.6184  2.2156
 1155TIP3    H2 3472   1.035   5.058   1.630  3.2065  1.2524  1.9560
 1156TIP3   OH2 3473   4.554   5.390   4.222 -0.5114  0.3351  0.3641
 1156TIP3    H1 3474   4.468   5.431   4.232  0.9712  3.3643  1.6447
 1156TIP3    H2 3475   4.586   5.423   4.138 -0.7770 -1.3330 -0.4487
 1157TIP3   OH2 3476   1.078   4.868   3.558  0.1677 -0.3282  0.9237
 1157TIP3    H1 3477   1.049   4.789   3.513  2.1719 -0.8456  0.4738
 1157TIP3    H2 3478   1.025   4.938   3.518 -0.7216 -1.2476  0.4270
 1158TIP3   OH2 3479   5.935   0.206   1.494  0.3385 -0.1423 -0.2155
 1158TIP3    H1 3480   6.011   0.148   1.490  0.2041 -0.6578  2.5506
 1158TIP3    H2 3481   5.885   0.186   1.415  0.5809 -3.4619  0.3053
 1159TIP3   OH2 3482   3.356   0.159   4.421 -0.0339 -0.0671  0.8591
 1159TIP3    H1 3483   3.332   0.078   4.465  1.4574 -1.5904 -0.9380
 1159TIP3    H2 3484   3.274   0.190   4.382 -0.2911 -1.8824 -0.1790
 1160TIP3   OH2 3485   2.479   1.722   3.221 -0.4426  0.8437 -0.0130
 1160TIP3    H1 3486   2.573   1.706   3.215 -0.3662  0.5298  1.6228
 1160TIP3    H2 3487   2.442   1.679   3.144  0.8074  1.5801 -1.0550
 1161TIP3   OH2 3488   2.672   4.348   4.887  0.8731 -0.5801  0.2116
 1161TIP3    H1 3489   2.765   4.347   4.912  0.7574  0.0452  0.6854
 1161TIP3    H2 3490   2.670   4.405   4.810  1.0883 -1.7482 -0.6805
 1162TIP3   OH2 3491   0.033   4.869   2.970 -0.2334 -0.4894  0.2362
 1162TIP3    H1 3492   0.094   4.943   2.977 -1.2674  0.2777  1.9338
 1162TIP3    H2 3493   0.045   4.821   3.052 -2.3465  0.1026  0.9749
 1163TIP3   OH2 3494   5.670   3.762   0.133  0.4366 -0.1108 -0.1424
 1163TIP3    H1 3495   5.708   3.837   0.179  0.2122  0.0110 -0.1526
 1163TIP3    H2 3496   5.587   3.795   0.097  0.4024 -0.3246 -0.2654
 1164TIP3   OH2 3497   6.026   3.031   3.015 -0.5124 -0.0855 -0.1000
 1164TIP3    H1 3498   6.026   2.937   2.996 -0.9096 -0.0450 -0.3244
 1164TIP3    H2 3499   5.935   3.058   2.999  0.0741  0.7732 -2.2219
 1165TIP3   OH2 3500   3.749   5.126   2.140  0.2763 -0.0798  0.0951
 1165TIP3    H1 3501   3.698   5.178   2.078  0.4078 -0.3814 -0.2707
 1165TIP3    H2 3502   3.795   5.191   2.193 -1.4117  0.2339  1.2468
 1166TIP3   OH2 3503   4.948   2.731   1.026  0.3006 -0.4801  0.2014
 1166TIP3    H1 3504   4.960   2.814   1.073 -1.8873 -0.3321  0.6236
 1166TIP3    H2 3505   4.858   2.735   0.994  0.8811 -1.7167 -1.8089
 1167TIP3   OH2 3506   5.994   5.457   3.054 -0.4912  0.3915 -0.3376
 1167TIP3    H1 3507   5.968   5.514   3.126 -1.2687 -0.1847 -0.1474
 1167TIP3    H2 3508   5.938   5.380   3.063  0.2864 -0.2464 -0.8038
 1168TIP3   OH2 3509   1.395   1.604   2.359  0.1048  0.1751 -0.1876
 1168TIP3    H1 3510   1.332   1.588   2.430 -0.4034  0.6151 -0.5374
 1168TIP3    H2 3511   1.428   1.692   2.375 -1.1749  0.9088 -1.3632
 1169TIP3   OH2 3512   6.067   3.966   3.545 -0.7754  0.2638  0.4842
 1169TIP3    H1 3513   6.093   4.009   3.463 -2.4395  2.4130  0.9935
 1169TIP3    H2 3514   5.992   3.912   3.520 -0.8267  0.3478  0.4535
 1170TIP3   OH2 3515   2.595   1.864   2.452 -0.3448  0.3935  0.3516
 1170TIP3    H1 3516   2.687   1.839   2.442 -0.5950 -1.0698  1.2886
 1170TIP3    H2 3517   2.550   1.818   2.381 -0.5183 -0.0733  0.7528
 1171TIP3   OH2 3518   3.251   2.340   5.132 -0.2171  0.2962  0.5379
 1171TIP3    H1 3519   3.269   2.405   5.199 -3.7118  0.7195  1.2628
 1171TIP3    H2 3520   3.164   2.307   5.153 -0.0930 -1.9878 -1.9291
 1172TIP3   OH2 3521   0.220   2.438   0.401  0.2426  0.5076  1.2663
 1172TIP3    H1 3522   0.295   2.378   0.393  0.7215  1.2476 -0.0806
 1172TIP3    H2 3523   0.153   2.386   0.446  0.3427 -1.3665 -0.5771
 1173TIP3   OH2 3524   1.369   1.665   3.327 -0.3857 -0.5093 -0.4742
 1173TIP3    H1 3525   1.341   1.576   3.306  0.0708 -0.5024 -1.1322
 1173TIP3    H2 3526   1.325   1.721   3.263 -1.6060 -0.1242  0.6724
 1174TIP3   OH2 3527   5.764   3.658   0.429 -0.2609  0.0940  0.1082
 1174TIP3    H1 3528   5.810   3.596   0.372  0.5163  1.6405 -1.0242
 1174TIP3    H2 3529   5.830   3.686   0.492 -1.0071 -1.2917  1.5858
 1175TIP3   OH2 3530   2.092   1.554   0.125 -0.3548 -0.2218 -0.2795
 1175TIP3    H1 3531   2.117   1.501   0.201  0.1465  0.8195  0.3072
 1175TIP3    H2 3532   2.018   1.607   0.155  0.0494  0.4293 -0.3932
 1176TIP3   OH2 3533   6.345   3.497   3.453 -0.3967  0.3869  0.6708
 1176TIP3    H1 3534   6.297   3.415   3.463 -0.2595  0.1057 -0.8924
 1176TIP3    H2 3535   6.432   3.472   3.423 -0.6176  1.1299 -0.6541
 1177TIP3   OH2 3536   2.477   4.908   0.244  0.5794 -0.4343  0.4872
 1177TIP3    H1 3537   2.484   4.962   0.165  1.8637 -0.1878  0.7565
 1177TIP3    H2 3538   2.413   4.953   0.298  0.4995 -0.0128  0.0521
 1178TIP3   OH2 3539   4.199   1.537   4.059 -0.1303 -0.3645  0.0966
 1178TIP3    H1 3540   4.233   1.538   3.969 -2.1075 -0.0946 -0.6977
 1178TIP3    H2 3541   4.139   1.462   4.061 -0.5109 -0.0441  1.0250
 1179TIP3   OH2 3542   3.163   2.665   5.187 -0.1660  0.3546  0.7851
 1179TIP3    H1 3543   3.103   2.628   5.122 -0.3479 -0.5062  1.4140
 1179TIP3    H2 3544   3.135   2.756   5.198 -0.4139  0.3762 -0.0064
 1180TIP3   OH2 3545   1.019   4.229   1.229 -0.0124  0.0269  0.5716
 1180TIP3    H1 3546   0.926   4.211   1.247 -0.9330  1.4633 -2.2640
 1180TIP3    H2 3547   1.036   4.184   1.147  1.4651  0.8419  0.4057
 1181TIP3   OH2 3548   3.407   1.315   4.855 -0.0639  0.3186 -0.6376
 1181TIP3    H1 3549   3.422   1.407   4.832  0.6703  0.4400  0.2320
 1181TIP3    H2 3550   3.495   1.279   4.867 -0.3606 -0.0262  0.7188
 1182TIP3   OH2 3551   6.120   5.068   4.588 -0.7778 -0.4370  0.4579
 1182TIP3    H1 3552   6.190   5.133   4.598 -0.9479  0.1237 -1.6575
 1182TIP3    H2 3553   6.105   5.063   4.494 -4.0826 -0.0274  0.8768
 1183TIP3   OH2 3554   6.000   3.328   4.984 -0.2576 -0.4311  0.0114
 1183TIP3    H1 3555   5.988   3.315   5.078  1.5217 -0.2430  0.3012
 1183TIP3    H2 3556   5.951   3.256   4.944 -2.0179  0.1564  0.9963
 1184TIP3   OH2 3557   2.054   0.196   2.164 -0.5668  0.2148 -0.1275
 1184TIP3    H1 3558   2.062   0.151   2.248  0.1986 -1.0838 -0.8751
 1184TIP3    H2 3559   2.125   0.260   2.164  0.4493 -0.8704 -0.4108
 1185TIP3   OH2 3560   0.143   5.824   4.283 -0.3406  0.7004  0.1263
 1185TIP3    H1 3561   0.114   5.854   4.196  0.5033 -0.7023 -0.6834
 1185TIP3    H2 3562   0.232   5.792   4.268  0.5023  2.0629  1.9132
 1186TIP3   OH2 3563   5.711   2.153   0.571  0.2295  0.3939 -0.4398
 1186TIP3    H1 3564   5.762   2.145   0.491  1.1734 -2.1741  0.3452
 1186TIP3    H2 3565   5.625   2.117   0.549  0.2021  0.5037 -0.5148
 1187TIP3   OH2 3566   0.570   5.540   4.870  0.4499  0.0759 -0.1189
 1187TIP3    H1 3567   0.480   5.563   4.846 -0.0729 -0.5302  1.1588
 1187TIP3    H2 3568   0.575   5.445   4.858  0.1810 -0.2578  1.9152
 1188TIP3   OH2 3569   3.124   2.513   4.762  0.3143 -0.2171 -0.4726
 1188TIP3    H1 3570   3.208   2.476   4.789 -0.6104 -1.6599  0.6657
 1188TIP3    H2 3571   3.106   2.473   4.677  0.1007 -1.1162 -0.0188
 1189TIP3   OH2 3572   4.054   4.534   2.381  0.7150  0.1065  0.1969
 1189TIP3    H1 3573   3.984   4.497   2.327  1.1995  0.4880 -0.7207
 1189TIP3    H2 3574   4.079   4.463   2.440 -1.0718  0.2510  1.2032
 1190TIP3   OH2 3575   2.691   3.396   2.163  0.4244  0.0847 -0.3122
 1190TIP3    H1 3576   2.720   3.410   2.072 -0.1950  0.6983 -0.4190
 1190TIP3    H2 3577   2.723   3.473   2.210 -0.7697  0.6435 -0.3782
 1191TIP3   OH2 3578   1.432   0.040   1.958 -0.5620  0.3908  0.1720
 1191TIP3    H1 3579   1.428  -0.049   1.924 -0.2461  1.1463 -2.0033
 1191TIP3    H2 3580   1.342   0.071   1.956 -0.6139  0.2619  0.5173
 1192TIP3   OH2 3581   5.197   2.100   1.663  0.9457  0.2816 -0.0483
 1192TIP3    H1 3582   5.173   2.050   1.585  1.7101  0.2930 -0.2947
 1192TIP3    H2 3583   5.272   2.053   1.700  0.4856  0.1709  0.7868
 1193TIP3   OH2 3584   5.707   5.059   4.904 -0.0339  0.6674  0.6058
 1193TIP3    H1 3585   5.752   5.038   4.986  0.7341  0.8328  0.2355
 1193TIP3    H2 3586   5.776   5.090   4.846  0.0523 -2.3296 -1.1499
 1194TIP3   OH2 3587   5.264   2.085   0.925  0.1015 -0.5150 -0.2121
 1194TIP3    H1 3588   5.253   2.046   1.011 -0.3880 -0.8441 -0.4149
 1194TIP3    H2 3589   5.321   2.024   0.878  0.8553 -0.0361  0.0613
 1195TIP3   OH2 3590   4.306   1.352   2.111  0.0537  0.1719 -0.2446
 1195TIP3    H1 3591   4.399   1.334   2.098  0.2182  2.1646 -2.6756
 1195TIP3    H2 3592   4.261   1.297   2.047 -0.1456  1.2960 -1.1190
 1196TIP3   OH2 3593   0.509   0.347   3.596  0.1762  0.4513 -0.3577
 1196TIP3    H1 3594   0.588   0.344   3.542 -1.2088 -0.5994 -2.4672
 1196TIP3    H2 3595   0.481   0.256   3.602 -1.2040  0.8676 -0.1635
 1197TIP3   OH2 3596   0.995   3.395   2.444 -0.1628 -0.2357  0.1548
 1197TIP3    H1 3597   1.068   3.429   2.495 -0.0604  0.1487 -0.2454
 1197TIP3    H2 3598   1.031   3.321   2.396 -0.1504 -0.3285  0.3078
 1198TIP3   OH2 3599   6.275   2.764   1.150 -0.0503  0.1545 -0.6751
 1198TIP3    H1 3600   6.326   2.745   1.228 -1.1885  2.5893  0.7946
 1198TIP3    H2 3601   6.337   2.752   1.078  0.9403 -2.5070  0.5057
 1199TIP3   OH2 3602   0.440   3.865   0.723  0.3209 -0.0261  0.5385
 1199TIP3    H1 3603   0.497   3.803   0.676  0.7270 -0.0444  1.0499
 1199TIP3    H2 3604   0.488   3.948   0.720  0.3184 -0.0136  0.8636
 1200TIP3   OH2 3605   2.411   5.674   1.850 -0.3163 -0.1249 -0.5962
 1200TIP3    H1 3606   2.478   5.732   1.814 -0.4617  1.1519  1.0563
 1200TIP3    H2 3607   2.436   5.587   1.821  0.9356  0.5590 -1.6595
 1201TIP3   OH2 3608   0.114   4.410   1.254 -0.2191  0.7186 -0.0141
 1201TIP3    H1 3609   0.046   4.445   1.196 -1.6293  0.0996  1.2010
 1201TIP3    H2 3610   0.066   4.376   1.330  1.3468 -0.9093  0.3177
 1202TIP3   OH2 3611   3.343   3.634   3.960  0.7035 -0.6362  0.1195
 1202TIP3    H1 3612   3.408   3.700   3.934  1.5210 -0.5245  2.2723
 1202TIP3    H2 3613   3.386   3.584   4.029 -1.7491 -0.0452  2.2300
 1203TIP3   OH2 3614   3.795   3.346   0.991 -0.5576  0.4524 -0.0385
 1203TIP3    H1 3615   3.849   3.267   1.002 -1.6332 -0.2049  0.6299
 1203TIP3    H2 3616   3.851   3.405   0.940  0.4177 -0.5843 -0.2267
 1204TIP3   OH2 3617   0.321   1.646   3.167 -0.6816  0.0537 -0.4909
 1204TIP3    H1 3618   0.269   1.667   3.245 -0.7413 -0.6691 -0.3229
 1204TIP3    H2 3619   0.277   1.693   3.096 -3.7182 -3.0967 -1.0120
 1205TIP3   OH2 3620   0.082   0.632   2.666 -0.7040  0.0832  0.3371
 1205TIP3    H1 3621   0.130   0.574   2.607 -0.6894  0.6728 -0.2381
 1205TIP3    H2 3622   0.008   0.663   2.615 -0.8285  0.4076  0.7055
 1206TIP3   OH2 3623   1.750   4.315   3.630 -0.0520  0.0181 -0.3617
 1206TIP3    H1 3624   1.793   4.401   3.629 -0.9231  0.4740  0.2301
 1206TIP3    H2 3625   1.725   4.301   3.539 -1.0364  0.9886 -0.2602
 1207TIP3   OH2 3626   3.638   4.848   5.083 -0.7133 -0.3664 -0.4564
 1207TIP3    H1 3627   3.673   4.925   5.128  0.2707 -1.5491  0.9033
 1207TIP3    H2 3628   3.616   4.786   5.153 -2.6752 -0.8847 -1.4362
 1208TIP3   OH2 3629   3.371   4.387   4.167 -0.0788  0.5302 -0.0308
 1208TIP3    H1 3630   3.425   4.317   4.204 -1.0331  1.3372  3.2659
 1208TIP3    H2 3631   3.414   4.468   4.195 -0.6074  1.2308 -1.1724
 1209TIP3   OH2 3632   5.236   2.879   1.239  0.2875  0.0092 -0.1433
 1209TIP3    H1 3633   5.187   2.836   1.309  3.4198 -1.8424  1.1038
 1209TIP3    H2 3634   5.296   2.938   1.284  0.3611  1.0539 -1.5229
 1210TIP3   OH2 3635   3.170   1.393   1.992 -0.6298  0.3579  0.5876
 1210TIP3    H1 3636   3.219   1.446   2.055 -0.6962  0.7762  0.2947
 1210TIP3    H2 3637   3.236   1.364   1.929 -1.0231  2.6240 -0.9836
 1211TIP3   OH2 3638   5.868   6.002   5.024  0.2731 -0.2353 -0.4356
 1211TIP3    H1 3639   5.886   5.909   5.009  0.5284 -0.2532 -0.0132
 1211TIP3    H2 3640   5.902   6.046   4.946 -1.7813 -0.7044 -1.6626
 1212TIP3   OH2 3641   4.715   5.484   0.297  0.1564 -0.2122 -0.1227
 1212TIP3    H1 3642   4.708   5.563   0.245  1.5274 -0.6571 -1.0152
 1212TIP3    H2 3643   4.695   5.512   0.386 -0.3553  0.9254 -0.5850
 1213TIP3   OH2 3644   4.840   3.383   3.399  0.5040  0.3445 -0.2685
 1213TIP3    H1 3645   4.859   3.354   3.309  3.1218  1.3231 -0.1265
 1213TIP3    H2 3646   4.843   3.478   3.394 -1.7197  0.5014  0.4598
 1214TIP3   OH2 3647   4.642   2.007   4.606 -0.1305  0.0227 -0.3672
 1214TIP3    H1 3648   4.658   1.916   4.629  0.8371 -0.1183 -1.4995
 1214TIP3    H2 3649   4.707   2.057   4.655 -0.2596  0.0520 -0.2236
 1215TIP3   OH2 3650   4.985   0.447   4.573  0.3301  0.0910  0.0908
 1215TIP3    H1 3651   5.021   0.445   4.662 -0.1095  1.7264  0.3334
 1215TIP3    H2 3652   4.923   0.374   4.571 -0.0573  0.3611  1.3078
 1216TIP3   OH2 3653   5.769   5.910   0.262  0.1823 -0.5127 -0.2158
 1216TIP3    H1 3654   5.805   5.998   0.247 -1.0965  0.2132  0.7627
 1216TIP3    H2 3655   5.795   5.889   0.352 -1.5602 -0.0829  0.4163
 1217TIP3   OH2 3656   0.286   3.278   2.708 -0.2115 -0.3508  0.5299
 1217TIP3    H1 3657   0.313   3.303   2.796 -1.3955  0.3453  0.7189
 1217TIP3    H2 3658   0.294   3.183   2.706 -0.1012 -0.3643  1.3629
 1218TIP3   OH2 3659   4.097   5.883   2.732  0.6642  0.4551  0.6147
 1218TIP3    H1 3660   4.112   5.933   2.812 -0.0002  1.9029 -0.1188
 1218TIP3    H2 3661   4.176   5.896   2.680  0.0040  1.8243 -0.0949
 1219TIP3   OH2 3662   3.009   2.815   4.668  0.3849 -0.5414 -0.2286
 1219TIP3    H1 3663   3.045   2.727   4.668  0.5117 -0.5063  1.1720
 1219TIP3    H2 3664   2.989   2.833   4.759 -0.4038  0.5785 -0.6005
 1220TIP3   OH2 3665   1.282   4.762   0.554 -0.6417  0.3518  0.2108
 1220TIP3    H1 3666   1.311   4.683   0.599 -1.4022 -1.3273 -2.0726
 1220TIP3    H2 3667   1.187   4.762   0.562 -0.6714  0.8400 -0.0879
 1221TIP3   OH2 3668   0.691   2.421   1.372 -0.3720  0.2649 -0.1845
 1221TIP3    H1 3669   0.630   2.354   1.341 -0.6979 -0.1006  1.1684
 1221TIP3    H2 3670   0.643   2.504   1.361 -1.7260 -0.1165  2.0821
 1222TIP3   OH2 3671   3.267   5.320   3.059  0.3843  0.4064 -0.3081
 1222TIP3    H1 3672   3.212   5.357   2.990  1.7244 -0.8173 -2.1353
 1222TIP3    H2 3673   3.294   5.235   3.026  0.3376 -0.6678  2.1778
 1223TIP3   OH2 3674   5.386   1.113   0.971 -0.0420  0.2358  0.3796
 1223TIP3    H1 3675   5.369   1.152   1.057 -0.2100 -0.2414  0.5643
 1223TIP3    H2 3676   5.355   1.178   0.909 -1.5766 -0.1519  0.6969
 1224TIP3   OH2 3677   3.535   0.589   4.394  0.0430 -0.4532  0.6791
 1224TIP3    H1 3678   3.501   0.590   4.484 -1.5784 -1.4644  0.1293
 1224TIP3    H2 3679   3.474   0.643   4.345 -0.1094 -1.3345 -0.1258
 1225TIP3   OH2 3680   6.222   1.976   4.402  0.1247 -0.0065 -0.3021
 1225TIP3    H1 3681   6.223   1.998   4.309  0.2959 -0.2648 -0.3613
 1225TIP3    H2 3682   6.166   1.898   4.408  1.5117 -1.0546 -0.4327
 1226TIP3   OH2 3683   3.422   1.093   0.062  0.2010  0.3326 -0.2001
 1226TIP3    H1 3684   3.367   1.156   0.015  1.0183 -2.1366 -5.2344
 1226TIP3    H2 3685   3.363   1.051   0.124 -1.6581  2.5410 -0.3393
 1227TIP3   OH2 3686   5.624   5.820   4.138  0.0965  0.6201 -0.2263
 1227TIP3    H1 3687   5.684   5.750   4.162 -1.8157 -0.8901  0.3635
 1227TIP3    H2 3688   5.639   5.888   4.204  1.5614  0.5458 -0.4599
 1228TIP3   OH2 3689   0.621   1.462   2.036 -0.6262  0.4369  0.0452
 1228TIP3    H1 3690   0.687   1.498   1.976 -1.0851 -0.5305 -1.0705
 1228TIP3    H2 3691   0.672   1.412   2.099 -0.2715 -0.5480 -0.9815
 1229TIP3   OH2 3692   2.571   1.260   0.467  0.0289 -0.4204  0.6846
 1229TIP3    H1 3693   2.624   1.338   0.484  0.9320 -1.2521  1.8554
 1229TIP3    H2 3694   2.485   1.282   0.502 -0.7423  1.2783 -2.0284
 1230TIP3   OH2 3695   5.772   5.480   2.292  0.0063  0.2474 -0.1971
 1230TIP3    H1 3696   5.711   5.411   2.320  1.6012 -1.0449  0.2159
 1230TIP3    H2 3697   5.789   5.530   2.372  0.1261  0.0997 -0.1300
 1231TIP3   OH2 3698   4.294   5.693   2.376  0.1306 -0.1303 -0.4335
 1231TIP3    H1 3699   4.326   5.699   2.286  0.4425  0.5247 -0.2812
 1231TIP3    H2 3700   4.242   5.772   2.389  2.4955  1.2956  0.8972
 1232TIP3   OH2 3701   0.788   3.589   3.644 -0.2521  0.4827  0.0486
 1232TIP3    H1 3702   0.881   3.608   3.653 -0.2280  0.1087  0.7569
 1232TIP3    H2 3703   0.782   3.535   3.565  0.6927 -2.6768  1.9494
 1233TIP3   OH2 3704   5.443   4.587   2.097 -0.1531 -0.2348  0.4543
 1233TIP3    H1 3705   5.418   4.673   2.063 -1.7442 -1.0991 -0.7279
 1233TIP3    H2 3706   5.493   4.546   2.026 -0.3067 -0.6683  0.5889
 1234TIP3   OH2 3707   5.567   5.738   3.872  0.0878 -0.1080  0.6928
 1234TIP3    H1 3708   5.564   5.767   3.963  0.4887  0.2926  0.5845
 1234TIP3    H2 3709   5.542   5.815   3.821 -1.6863 -0.7644  0.5208
 1235TIP3   OH2 3710   5.593   4.532   4.210  0.5947  0.1939 -0.1993
 1235TIP3    H1 3711   5.663   4.582   4.168  0.9800 -0.4970 -0.3887
 1235TIP3    H2 3712   5.560   4.590   4.279 -1.3333  2.1684 -2.5705
 1236TIP3   OH2 3713   1.465   3.876   2.559 -0.1898 -0.1209 -0.8366
 1236TIP3    H1 3714   1.491   3.802   2.505 -0.6692 -0.4859 -0.5833
 1236TIP3    H2 3715   1.462   3.840   2.648  0.0953  0.3392 -0.6423
 1237TIP3   OH2 3716   0.028   2.908   2.042 -0.4079 -0.3464  0.2342
 1237TIP3    H1 3717   0.055   2.973   1.977 -1.1449 -0.7438 -0.4888
 1237TIP3    H2 3718   0.008   2.830   1.990 -3.7370  0.1483  0.5848
 1238TIP3   OH2 3719   2.327   5.709   4.659 -0.3716  0.1809  0.1052
 1238TIP3    H1 3720   2.400   5.647   4.652 -0.3923  0.2961 -1.4099
 1238TIP3    H2 3721   2.352   5.767   4.732  0.2527 -0.8019  0.6884
 1239TIP3   OH2 3722   5.922   3.446   3.874  0.2992  0.6772  0.3419
 1239TIP3    H1 3723   5.848   3.395   3.840 -0.6182  1.7640  0.6205
 1239TIP3    H2 3724   5.976   3.383   3.920  0.7498 -0.5649 -1.7504
 1240TIP3   OH2 3725   4.685   5.400   2.249  0.1258  0.0230 -0.4164
 1240TIP3    H1 3726   4.754   5.432   2.191 -0.0410 -0.5681 -0.9510
 1240TIP3    H2 3727   4.604   5.418   2.203  0.0049 -0.6864 -0.4959
 1241TIP3   OH2 3728   3.432   1.996   1.840  0.1865  0.6065  0.6099
 1241TIP3    H1 3729   3.430   1.923   1.779  0.9115  1.4913 -0.5220
 1241TIP3    H2 3730   3.355   2.049   1.817  0.0602  0.5809  0.9556
 1242TIP3   OH2 3731   1.940   2.256   2.963  0.3199  0.1516 -0.7732
 1242TIP3    H1 3732   1.866   2.230   3.018 -0.0491 -0.7211 -1.6441
 1242TIP3    H2 3733   1.939   2.351   2.965  0.7161  0.1618  1.2297
 1243TIP3   OH2 3734   0.048   3.660   0.258 -0.1030 -0.9881  0.3365
 1243TIP3    H1 3735   0.016   3.750   0.245  1.6809 -0.5060 -1.1060
 1243TIP3    H2 3736   0.103   3.665   0.337  1.6136 -0.3007 -0.8518
 1244TIP3   OH2 3737   5.615   5.652   2.798  0.6137 -0.2141  0.3682
 1244TIP3    H1 3738   5.606   5.736   2.753  1.4278  0.8215  2.0545
 1244TIP3    H2 3739   5.536   5.604   2.775  0.6310  0.5679 -1.4984
 1245TIP3   OH2 3740   3.352   1.179   2.101  0.0512  0.1483 -0.1534
 1245TIP3    H1 3741   3.324   1.209   2.188 -0.2088  1.1432 -0.5664
 1245TIP3    H2 3742   3.441   1.145   2.115 -0.2715 -0.3745  0.6342
 1246TIP3   OH2 3743   4.554   4.345   3.482  0.0285 -0.0813  0.5116
 1246TIP3    H1 3744   4.482   4.308   3.431  0.0594  0.1515  0.2969
 1246TIP3    H2 3745   4.607   4.270   3.507  1.1966 -0.0382 -1.6017
 1247TIP3   OH2 3746   2.645   2.407   3.998  0.3504 -0.1367  1.1094
 1247TIP3    H1 3747   2.577   2.461   3.958  1.4257  1.0120  0.7695
 1247TIP3    H2 3748   2.671   2.346   3.930 -0.3066 -0.5597  1.2315
 1248TIP3   OH2 3749   2.706   5.063   0.508  0.2891 -0.2790  0.0238
 1248TIP3    H1 3750   2.711   5.114   0.428  2.6098  1.8219  1.3455
 1248TIP3    H2 3751   2.645   5.111   0.564  0.2830 -0.5440  0.2454
 1249TIP3   OH2 3752   3.933   2.300   4.749 -0.7426  0.0208 -0.2272
 1249TIP3    H1 3753   3.975   2.377   4.787  0.1149 -0.4936 -0.1121
 1249TIP3    H2 3754   3.950   2.230   4.811  0.5199 -0.7969 -1.4288
 1250TIP3   OH2 3755   0.697   2.720   3.918  0.1626  0.5994  0.4235
 1250TIP3    H1 3756   0.656   2.803   3.942 -0.5773  0.2851  0.2875
 1250TIP3    H2 3757   0.695   2.720   3.822 -0.4145  0.1618  0.4252
 1251TIP3   OH2 3758   3.257   3.246   2.839  0.6377  0.0659  0.5579
 1251TIP3    H1 3759   3.176   3.258   2.888  0.8084  0.1672  0.8150
 1251TIP3    H2 3760   3.236   3.179   2.773 -0.0635  1.1023 -0.3007
 1252TIP3   OH2 3761   5.637   1.344   4.085 -1.3596 -0.1632  0.4302
 1252TIP3    H1 3762   5.636   1.251   4.060  1.6499 -0.0973 -0.2947
 1252TIP3    H2 3763   5.603   1.390   4.009  1.4527 -0.4491 -1.1394
 1253TIP3   OH2 3764   1.810   2.896   2.448  0.5156 -0.2127 -0.1684
 1253TIP3    H1 3765   1.861   2.884   2.528 -0.3316 -2.1689  0.1470
 1253TIP3    H2 3766   1.873   2.884   2.377  0.6113 -2.3613  0.2125
 1254TIP3   OH2 3767   4.653   3.548   0.296  0.3335 -0.1626 -0.2017
 1254TIP3    H1 3768   4.715   3.478   0.275  0.3424 -0.4716  0.7913
 1254TIP3    H2 3769   4.695   3.628   0.264  0.7922 -0.4889 -0.4182
 1255TIP3   OH2 3770   0.645   4.154   0.603  0.7090  0.4799  0.0775
 1255TIP3    H1 3771   0.674   4.143   0.693  0.1487  1.0864  0.3374
 1255TIP3    H2 3772   0.550   4.145   0.607  0.6816  0.5125 -0.4481
 1256TIP3   OH2 3773   4.981   2.964   3.732  0.0979 -0.0721 -0.4190
 1256TIP3    H1 3774   4.918   3.011   3.678 -1.2808 -0.3560  0.8651
 1256TIP3    H2 3775   4.939   2.880   3.751  0.9934 -0.4008  0.2151
 1257TIP3   OH2 3776   6.260   4.463   4.386 -0.8454 -0.4722 -0.6355
 1257TIP3    H1 3777   6.188   4.510   4.344  0.0134  0.2862 -1.2860
 1257TIP3    H2 3778   6.329   4.528   4.396  0.5754 -1.6970 -2.0239
 1258TIP3   OH2 3779   4.188   1.623   0.044 -0.5420 -0.3756  0.2859
 1258TIP3    H1 3780   4.106   1.670   0.054 -0.3312  0.0057  0.2301
 1258TIP3    H2 3781   4.163   1.530   0.048 -0.9306 -0.2612  0.5880
 1259TIP3   OH2 3782   0.309   1.434   1.245 -0.3215 -0.3556  0.2574
 1259TIP3    H1 3783   0.267   1.436   1.331 -0.3025  1.0219  0.2527
 1259TIP3    H2 3784   0.353   1.519   1.238  0.1531 -0.6848 -0.8776
 1260TIP3   OH2 3785   2.332   3.704   0.755 -0.0774  0.2921  0.2428
 1260TIP3    H1 3786   2.278   3.781   0.737  2.4742  2.2338  0.3147
 1260TIP3    H2 3787   2.337   3.658   0.671 -2.1157 -0.1970  0.3451
 1261TIP3   OH2 3788   5.740   1.952   3.838 -0.2700 -0.3804  0.1620
 1261TIP3    H1 3789   5.661   1.975   3.889 -1.7882  3.0045 -3.2063
 1261TIP3    H2 3790   5.725   1.862   3.809 -0.5241 -1.4997  3.3568
 1262TIP3   OH2 3791   4.679   3.856   1.305  0.4853 -0.1582 -0.3486
 1262TIP3    H1 3792   4.673   3.763   1.280 -0.5372  0.3484 -2.2248
 1262TIP3    H2 3793   4.712   3.855   1.394  1.1250 -2.3132 -0.5483
 1263TIP3   OH2 3794   4.148   2.120   2.343  0.1722 -0.0307 -0.2862
 1263TIP3    H1 3795   4.125   2.192   2.285  0.2692 -0.9229 -1.4685
 1263TIP3    H2 3796   4.243   2.118   2.344  0.1707 -0.0552 -0.1475
 1264TIP3   OH2 3797   3.125   3.885   4.017 -0.0766 -0.4293 -0.3876
 1264TIP3    H1 3798   3.089   3.797   4.014  1.5474 -1.2768  2.0748
 1264TIP3    H2 3799   3.053   3.940   4.046 -0.0620 -1.7365  2.4349
 1265TIP3   OH2 3800   3.436   0.504   3.324 -0.0111  0.1393 -0.2399
 1265TIP3    H1 3801   3.378   0.557   3.270 -0.0673 -0.4332 -0.7532
 1265TIP3    H2 3802   3.396   0.505   3.411 -0.1040  0.7821 -0.2832
 1266TIP3   OH2 3803   0.360   4.118   0.584  0.6053 -0.0657  0.0263
 1266TIP3    H1 3804   0.312   4.143   0.663  1.1362 -1.5219  0.8614
 1266TIP3    H2 3805   0.343   4.024   0.575 -0.0784  0.2204 -2.0622
 1267TIP3   OH2 3806   3.740   0.650   1.355  0.0156 -0.6804  0.4157
 1267TIP3    H1 3807   3.731   0.654   1.260 -1.4346 -1.6986  0.4763
 1267TIP3    H2 3808   3.657   0.686   1.388  0.7028  0.1296  1.3113
 1268TIP3   OH2 3809   5.707   3.770   4.807  0.1649 -0.0829 -0.9740
 1268TIP3    H1 3810   5.761   3.706   4.853  1.3117  2.3034  1.2137
 1268TIP3    H2 3811   5.618   3.734   4.812  1.1068 -2.9838 -2.6834
 1269TIP3   OH2 3812   1.998   2.413   4.938 -0.2435 -0.4198 -0.3195
 1269TIP3    H1 3813   2.061   2.341   4.928  0.5582  0.1561  0.4358
 1269TIP3    H2 3814   2.047   2.481   4.985 -1.9830 -0.6814  2.0621
 1270TIP3   OH2 3815   2.050   1.538   3.222  0.3056  0.0883 -0.3385
 1270TIP3    H1 3816   2.144   1.526   3.207  0.3721  2.1708 -2.0152
 1270TIP3    H2 3817   2.045   1.598   3.297  0.3034 -0.3409  0.0047
 1271TIP3   OH2 3818   6.180   0.667   4.796 -0.9042  0.4517 -0.0305
 1271TIP3    H1 3819   6.129   0.649   4.874 -2.5780  0.9599 -0.9573
 1271TIP3    H2 3820   6.147   0.752   4.765  0.3777  0.7058 -0.7683
 1272TIP3   OH2 3821   2.106   1.094   5.101 -0.7454  0.5084 -0.0949
 1272TIP3    H1 3822   2.078   1.112   5.011 -1.3108  1.5389  0.2605
 1272TIP3    H2 3823   2.201   1.099   5.098 -0.5403 -2.2840 -1.1758
 1273TIP3   OH2 3824   5.807   0.433   4.012  0.1737 -0.1313  0.2949
 1273TIP3    H1 3825   5.789   0.360   3.952  0.3788  2.0400 -2.6531
 1273TIP3    H2 3826   5.858   0.393   4.083 -0.5775 -3.0101 -0.6262
 1274TIP3   OH2 3827   3.254   5.633   1.349  0.5902 -0.1880 -0.2131
 1274TIP3    H1 3828   3.325   5.689   1.318  0.6318 -0.4100 -0.5201
 1274TIP3    H2 3829   3.228   5.672   1.433 -0.1031  0.9339 -0.9068
 1275TIP3   OH2 3830   2.715   5.197   3.713  0.0143 -0.5130 -0.3823
 1275TIP3    H1 3831   2.636   5.201   3.767 -0.6420  0.6262 -1.3762
 1275TIP3    H2 3832   2.693   5.136   3.643  0.7827 -1.8118  0.4784
 1276TIP3   OH2 3833   3.670   1.136   2.063  0.0580  0.1227 -0.1422
 1276TIP3    H1 3834   3.669   1.232   2.064 -1.7875  0.1842 -1.9810
 1276TIP3    H2 3835   3.695   1.113   1.973  1.8619 -1.1932  0.6282
 1277TIP3   OH2 3836   4.555   3.583   2.999 -0.5695 -0.0650 -0.2532
 1277TIP3    H1 3837   4.631   3.622   2.956 -1.0681  0.7445 -0.4189
 1277TIP3    H2 3838   4.533   3.507   2.944  1.8782 -2.1192  1.3961
 1278TIP3   OH2 3839   6.129   3.248   0.471 -0.1980 -0.4993 -0.1334
 1278TIP3    H1 3840   6.180   3.264   0.550 -0.1758 -0.6885 -0.1100
 1278TIP3    H2 3841   6.102   3.335   0.442 -0.6712 -0.4668  0.3854
 1279TIP3   OH2 3842   2.400   5.334   2.812  0.0346  0.1899  0.2763
 1279TIP3    H1 3843   2.392   5.426   2.790 -1.0069 -0.3442 -1.8596
 1279TIP3    H2 3844   2.475   5.303   2.761  0.1924 -0.2303  0.7435
 1280TIP3   OH2 3845   1.182   4.807   4.384 -0.4499 -0.9519  0.1653
 1280TIP3    H1 3846   1.098   4.851   4.373 -1.0700 -1.7231  1.5240
 1280TIP3    H2 3847   1.186   4.785   4.477  0.8290 -1.7850 -0.0474
 1281TIP3   OH2 3848   1.268   0.067   2.385  0.0301  0.2686 -0.0290
 1281TIP3    H1 3849   1.341   0.130   2.389  0.6235 -0.3260 -1.1614
 1281TIP3    H2 3850   1.239   0.060   2.476 -0.2917  2.4498  0.0988
 1282TIP3   OH2 3851   5.840   4.707   1.585 -0.2273  0.2005 -0.3432
 1282TIP3    H1 3852   5.934   4.713   1.605 -0.0570 -1.1578 -0.6485
 1282TIP3    H2 3853   5.835   4.714   1.490 -0.4331  0.2680 -0.3279
 1283TIP3   OH2 3854   4.815   1.735   3.817  0.7886 -0.1517  0.3347
 1283TIP3    H1 3855   4.847   1.689   3.895 -1.5633 -1.4592  0.6170
 1283TIP3    H2 3856   4.724   1.755   3.837 -0.3306 -1.7438 -2.5212
 1284TIP3   OH2 3857   2.684   5.533   2.780  0.0507  0.3722  0.3211
 1284TIP3    H1 3858   2.589   5.539   2.784  0.0052  0.9433 -1.1389
 1284TIP3    H2 3859   2.702   5.451   2.734  0.2497  0.6855 -0.1615
 1285TIP3   OH2 3860   1.494   0.060   1.448  0.1386  0.1144 -0.2108
 1285TIP3    H1 3861   1.488   0.148   1.485 -0.1218 -0.0585  0.1625
 1285TIP3    H2 3862   1.461   0.003   1.517  1.2488 -0.3722 -0.0660
 1286TIP3   OH2 3863   2.259   0.409   1.850 -0.4010  0.3762 -0.0758
 1286TIP3    H1 3864   2.311   0.332   1.826 -0.8131 -0.2107  0.8388
 1286TIP3    H2 3865   2.297   0.480   1.799  0.4423 -0.2973 -0.4220
 1287TIP3   OH2 3866   2.037   5.151   2.494 -0.4614 -0.3841  0.0933
 1287TIP3    H1 3867   2.079   5.072   2.458  0.5619 -0.0276  0.4917
 1287TIP3    H2 3868   2.087   5.172   2.572  0.0963  1.4211 -0.7162
 1288TIP3   OH2 3869   4.007   0.062   2.692 -0.8265  0.3010 -0.8469
 1288TIP3    H1 3870   4.017   0.130   2.625 -0.0356  0.2338 -0.8030
 1288TIP3    H2 3871   3.920   0.026   2.676 -1.4088  1.5592 -0.6453
 1289TIP3   OH2 3872   0.665   0.211   1.119 -0.4300 -0.3587  0.0170
 1289TIP3    H1 3873   0.608   0.267   1.172 -0.3243  1.1937 -1.4175
 1289TIP3    H2 3874   0.708   0.153   1.182 -1.4006  0.4141  1.4393
 1290TIP3   OH2 3875   2.526   4.365   3.891  0.1525  0.1345 -0.3633
 1290TIP3    H1 3876   2.591   4.412   3.942 -0.1433  1.0210 -0.7798
 1290TIP3    H2 3877   2.506   4.287   3.943  0.4312  0.6190  0.4812
 1291TIP3   OH2 3878   5.878   2.459   2.403 -0.2078  1.1507 -0.4888
 1291TIP3    H1 3879   5.943   2.529   2.400 -0.5479  1.4392 -1.8077
 1291TIP3    H2 3880   5.890   2.413   2.320 -0.7781  0.3663 -0.1427
 1292TIP3   OH2 3881   5.919   2.083   2.015 -0.5118  0.4868 -0.5866
 1292TIP3    H1 3882   5.852   2.145   1.988 -2.8498 -1.3198  0.6714
 1292TIP3    H2 3883   5.928   2.096   2.110  1.7608  1.3944 -0.8631
 1293TIP3   OH2 3884   2.610   5.537   1.416  0.5956  0.3954 -0.0362
 1293TIP3    H1 3885   2.612   5.632   1.430 -0.4517  0.5319 -0.7572
 1293TIP3    H2 3886   2.623   5.526   1.322  0.2241 -0.1559 -0.0242
 1294TIP3   OH2 3887   3.456   3.336   4.103  0.2681  0.2014  0.0480
 1294TIP3    H1 3888   3.412   3.298   4.179  0.3072  1.7251  0.8679
 1294TIP3    H2 3889   3.501   3.414   4.137  3.0865 -0.8822 -0.8630
 1295TIP3   OH2 3890   4.025   3.545   4.999 -0.1917  0.3197 -0.2361
 1295TIP3    H1 3891   4.060   3.627   5.033 -2.0679  0.3456  1.8441
 1295TIP3    H2 3892   4.101   3.499   4.963  1.2658  1.9807  0.6123
 1296TIP3   OH2 3893   6.163   3.484   4.089 -0.4388  0.4424 -0.3578
 1296TIP3    H1 3894   6.178   3.444   4.003 -0.0186 -1.6099  0.6153
 1296TIP3    H2 3895   6.107   3.422   4.135  2.6760 -0.6546  2.3004
 1297TIP3   OH2 3896   0.416   5.242   2.189  0.0180  0.2503  0.6684
 1297TIP3    H1 3897   0.450   5.191   2.263 -1.6677 -1.3331  0.4091
 1297TIP3    H2 3898   0.368   5.179   2.135  0.0439  1.6313 -1.0756
 1298TIP3   OH2 3899   3.127   4.738   4.714  0.7460 -0.3509  0.4112
 1298TIP3    H1 3900   3.084   4.788   4.645 -0.3835  0.2812  1.5112
 1298TIP3    H2 3901   3.111   4.647   4.691 -1.1465 -0.1457  0.6868
 1299TIP3   OH2 3902   3.677   3.928   1.543  0.3814 -0.4193 -0.7291
 1299TIP3    H1 3903   3.645   3.848   1.500  0.6167 -1.0270  0.1810
 1299TIP3    H2 3904   3.718   3.896   1.623  0.4718  0.6292 -0.3476
 1300TIP3   OH2 3905   4.313   3.288   2.586 -0.6219  0.2481  0.6382
 1300TIP3    H1 3906   4.256   3.355   2.549 -0.3859  0.1463  0.0832
 1300TIP3    H2 3907   4.260   3.208   2.588 -0.3947  0.0682 -0.2089
 1301TIP3   OH2 3908   2.705   2.784   1.969  0.1908 -0.0270  0.4016
 1301TIP3    H1 3909   2.666   2.800   2.054 -2.0946 -1.6902 -0.2394
 1301TIP3    H2 3910   2.655   2.838   1.908  1.2196  0.4750 -0.0259
 1302TIP3   OH2 3911   3.896   3.286   2.988  0.3044  0.5932  1.0139
 1302TIP3    H1 3912   3.951   3.250   2.919 -0.9347 -0.2125  0.4032
 1302TIP3    H2 3913   3.929   3.247   3.068 -1.4245 -2.6301  0.3206
 1303TIP3   OH2 3914   1.047   1.896   2.825 -0.2911 -0.4721  0.3295
 1303TIP3    H1 3915   1.131   1.859   2.797 -0.1137 -0.5931  0.9978
 1303TIP3    H2 3916   0.996   1.905   2.745  0.5733  0.1385 -0.1615
 1304TIP3   OH2 3917   4.135   4.572   0.802  0.1355  0.2197  0.0453
 1304TIP3    H1 3918   4.085   4.490   0.806  0.7569 -0.2315 -0.8820
 1304TIP3    H2 3919   4.172   4.582   0.889  1.5227 -1.4760 -0.2794
 1305TIP3   OH2 3920   0.576   0.076   0.393  0.0548 -0.2767 -0.0142
 1305TIP3    H1 3921   0.554   0.140   0.462 -1.3105 -0.3838 -0.3223
 1305TIP3    H2 3922   0.560  -0.009   0.434 -0.9939 -0.3347 -0.5259
 1306TIP3   OH2 3923   4.266   1.256   4.281  0.0851  0.5973 -0.0332
 1306TIP3    H1 3924   4.295   1.204   4.206  0.7591  1.0226 -0.0834
 1306TIP3    H2 3925   4.342   1.256   4.340  0.4498  2.2639 -0.4481
 1307TIP3   OH2 3926   2.931   4.168   0.255  0.2674  0.1846 -0.2254
 1307TIP3    H1 3927   2.963   4.244   0.305 -1.5418  0.3172  0.8038
 1307TIP3    H2 3928   2.862   4.203   0.199 -0.4265 -0.6397  0.0933
 1308TIP3   OH2 3929   0.478   5.148   1.738 -0.1737  0.4414  0.5964
 1308TIP3    H1 3930   0.573   5.157   1.747 -0.0542  0.1017 -0.2443
 1308TIP3    H2 3931   0.466   5.064   1.694 -0.8528  0.5807  0.5132
 1309TIP3   OH2 3932   1.023   2.255   3.473 -0.0896 -0.1701 -0.3722
 1309TIP3    H1 3933   1.046   2.170   3.438  0.4712  0.5830 -1.9377
 1309TIP3    H2 3934   0.971   2.236   3.551  1.3993 -1.9286  0.2828
 1310TIP3   OH2 3935   1.401   5.618   1.021 -0.1862 -0.0272  0.0576
 1310TIP3    H1 3936   1.449   5.542   1.052  0.7920  0.5240 -0.0577
 1310TIP3    H2 3937   1.457   5.692   1.043 -1.3090  0.7163  0.5639
 1311TIP3   OH2 3938   0.352   3.069   4.481  0.0499  0.5270  0.0025
 1311TIP3    H1 3939   0.331   3.145   4.428 -1.5435 -1.0324 -1.7560
 1311TIP3    H2 3940   0.269   3.045   4.522  0.1123 -1.1884 -0.7972
 1312TIP3   OH2 3941   3.988   3.257   0.238  0.4803 -0.3811 -0.4226
 1312TIP3    H1 3942   4.061   3.285   0.183  1.4534 -1.4801  0.2796
 1312TIP3    H2 3943   3.982   3.325   0.305  1.5773 -0.8163  0.1421
 1313TIP3   OH2 3944   4.653   4.102   4.990 -0.3112  0.0701  0.3258
 1313TIP3    H1 3945   4.749   4.098   4.992 -0.2738 -1.7949 -1.7226
 1313TIP3    H2 3946   4.626   4.073   5.077  0.9768  0.1201  0.7635
 1314TIP3   OH2 3947   3.825   1.860   2.902  0.7340 -0.2789  0.1581
 1314TIP3    H1 3948   3.843   1.790   2.839  0.3078 -0.7796  0.5780
 1314TIP3    H2 3949   3.793   1.814   2.980  1.9539  0.2510  1.0130
 1315TIP3   OH2 3950   0.929   5.623   4.657 -0.0024  0.3439  0.0514
 1315TIP3    H1 3951   0.992   5.694   4.646 -1.0475  1.5248  1.3832
 1315TIP3    H2 3952   0.967   5.550   4.608  2.6298  0.8512  1.1784
 1316TIP3   OH2 3953   3.427   0.444   3.007 -0.6372 -0.2304 -0.1065
 1316TIP3    H1 3954   3.333   0.450   3.021 -0.8642 -0.3494 -1.4376
 1316TIP3    H2 3955   3.449   0.522   2.956  0.2921  0.6560  1.5635
 1317TIP3   OH2 3956   0.588   1.419   4.470 -0.1263  0.4490 -0.0738
 1317TIP3    H1 3957   0.623   1.467   4.396 -0.8766  1.2324  0.0741
 1317TIP3    H2 3958   0.495   1.409   4.451 -0.3748  0.8605  0.8610
 1318TIP3   OH2 3959   1.059   2.712   2.690 -0.1637 -0.6534 -0.0814
 1318TIP3    H1 3960   1.077   2.796   2.734 -1.0020 -1.0147  0.9849
 1318TIP3    H2 3961   0.981   2.729   2.637  0.4291 -0.4202 -0.9141
 1319TIP3   OH2 3962   3.592   1.385   1.933 -0.8570 -0.2744  0.5277
 1319TIP3    H1 3963   3.525   1.423   1.876 -1.2646 -0.6149  0.7685
 1319TIP3    H2 3964   3.672   1.432   1.911 -0.8169 -0.9814 -0.9271
 1320TIP3   OH2 3965   0.336   1.396   2.767  0.4403 -0.3149 -0.4071
 1320TIP3    H1 3966   0.408   1.386   2.705  0.3432 -1.8797 -0.3110
 1320TIP3    H2 3967   0.319   1.490   2.769  1.4399 -0.0802 -1.6064
 1321TIP3   OH2 3968   3.090   5.030   4.213 -0.1643 -0.2583 -0.0930
 1321TIP3    H1 3969   3.106   5.119   4.182  2.6406 -1.0353 -1.2065
 1321TIP3    H2 3970   3.088   5.037   4.308  0.5372  0.9441 -0.1524
 1322TIP3   OH2 3971   3.671   0.674   3.495  0.4374 -0.8324 -0.1838
 1322TIP3    H1 3972   3.726   0.752   3.505  0.1620 -0.6614 -0.0086
 1322TIP3    H2 3973   3.583   0.703   3.517  0.2870 -1.1280 -0.3825
 1323TIP3   OH2 3974   2.567   5.794   3.117 -0.2331 -0.0115 -0.6871
 1323TIP3    H1 3975   2.478   5.760   3.108 -0.4258  0.4740 -0.6535
 1323TIP3    H2 3976   2.558   5.888   3.105 -0.4022  0.7149  3.4406
 1324TIP3   OH2 3977   2.638   2.548   4.317  0.2953 -0.2112 -0.7067
 1324TIP3    H1 3978   2.553   2.554   4.362  1.0224 -2.3103  1.1518
 1324TIP3    H2 3979   2.616   2.531   4.226 -1.3307 -1.5096 -0.1214
 1325TIP3   OH2 3980   4.878   4.252   1.251 -0.4908 -0.5754 -0.5613
 1325TIP3    H1 3981   4.908   4.181   1.194 -0.0120 -0.6929 -0.1705
 1325TIP3    H2 3982   4.808   4.214   1.303 -1.8646 -0.1019 -1.9831
 1326TIP3   OH2 3983   6.327   1.674   0.697 -0.2018  0.2757  0.2414
 1326TIP3    H1 3984   6.422   1.673   0.713 -0.4303  0.2922  1.6910
 1326TIP3    H2 3985   6.309   1.590   0.654  0.0098 -1.2815  2.9807
 1327TIP3   OH2 3986   5.022   0.124   4.397 -0.6835  0.4595  0.2956
 1327TIP3    H1 3987   4.999   0.187   4.464  0.6823  1.9518 -0.5774
 1327TIP3    H2 3988   4.978   0.156   4.317  0.8904  0.9551 -0.3998
 1328TIP3   OH2 3989   2.577   0.550   4.473  0.6834 -0.5442  0.0159
 1328TIP3    H1 3990   2.567   0.637   4.434  1.3363 -0.0678  0.8725
 1328TIP3    H2 3991   2.491   0.531   4.511  0.4091 -0.4764 -0.5608
 1329TIP3   OH2 3992   3.915   1.394   3.782 -0.1655 -0.4132  0.2380
 1329TIP3    H1 3993   3.826   1.428   3.775  0.6059  1.6161 -0.7407
 1329TIP3    H2 3994   3.967   1.470   3.809  1.4700 -1.2120 -0.4998
 1330TIP3   OH2 3995   2.043   3.708   1.440  0.4449  0.1731  0.3375
 1330TIP3    H1 3996   2.111   3.653   1.400 -0.3281  0.0596 -0.8827
 1330TIP3    H2 3997   2.090   3.784   1.475  1.3089 -0.3925  0.4352
 1331TIP3   OH2 3998   1.256   2.293   0.289  0.5706 -0.0061 -0.3469
 1331TIP3    H1 3999   1.350   2.301   0.304  0.9170  1.9598 -2.9409
 1331TIP3    H2 4000   1.217   2.371   0.328  0.2134 -0.0747 -0.5509
 1332TIP3   OH2 4001   4.999   1.773   4.876 -0.1722 -0.4451  0.0885
 1332TIP3    H1 4002   4.962   1.685   4.877 -0.3319 -0.3797  0.0278
 1332TIP3    H2 4003   5.077   1.767   4.930  1.5212 -1.3350 -2.3192
 1333TIP3   OH2 4004   0.745   2.696   2.030  0.1939  0.1656  0.1086
 1333TIP3    H1 4005   0.686   2.769   2.050  0.2813  0.4702 -0.7311
 1333TIP3    H2 4006   0.737   2.683   1.936  0.2925 -0.8174  0.2256
 1334TIP3   OH2 4007   4.984   3.367   4.014 -0.1624 -0.1879  0.0848
 1334TIP3    H1 4008   5.075   3.383   3.989 -0.3053  0.7587  0.1075
 1334TIP3    H2 4009   4.967   3.432   4.083 -0.7587 -0.5603  0.2930
 1335TIP3   OH2 4010   0.942   0.823   4.638  0.0563  0.1226  0.0934
 1335TIP3    H1 4011   0.916   0.785   4.722 -1.5964  1.5640  0.2946
 1335TIP3    H2 4012   0.901   0.767   4.572  0.8430 -0.6531  0.2507
 1336TIP3   OH2 4013   5.020   1.237   1.986 -0.0350  0.1018  0.1827
 1336TIP3    H1 4014   4.987   1.229   1.896  2.2290 -2.1364 -0.5875
 1336TIP3    H2 4015   5.026   1.146   2.016  0.2817  0.7623  2.2119
 1337TIP3   OH2 4016   4.046   4.514   2.012 -0.7015  0.0640 -0.2508
 1337TIP3    H1 4017   3.978   4.580   2.030 -0.8035 -0.1831  0.2616
 1337TIP3    H2 4018   4.088   4.546   1.932 -0.6829  0.8121  0.0452
 1338TIP3   OH2 4019   3.832   0.993   3.804 -0.1959 -0.4268  0.3569
 1338TIP3    H1 4020   3.849   0.908   3.845  0.7367 -0.4861 -0.1213
 1338TIP3    H2 4021   3.772   0.974   3.732 -2.2933 -0.2457  1.9561
 1339TIP3   OH2 4022   1.529   1.872   2.724 -0.2361 -0.0201 -0.0439
 1339TIP3    H1 4023   1.583   1.797   2.750  1.1035  0.4017 -1.4226
 1339TIP3    H2 4024   1.514   1.859   2.630 -1.6963  0.4184  0.1092
 1340TIP3   OH2 4025   0.598   2.996   2.588 -0.6596 -0.5278 -0.6108
 1340TIP3    H1 4026   0.686   2.995   2.627 -1.3477 -2.2471  1.0175
 1340TIP3    H2 4027   0.579   2.905   2.568 -2.0671 -0.1659 -1.0365
 1341TIP3   OH2 4028   5.568   1.091   3.178  0.1462 -0.6871 -0.5682
 1341TIP3    H1 4029   5.521   1.022   3.225  0.5408 -0.9742 -0.5952
 1341TIP3    H2 4030   5.651   1.052   3.154  0.0488 -0.4592 -1.2996
 1342TIP3   OH2 4031   4.720   2.330   4.057 -0.5817 -0.1670 -0.3248
 1342TIP3    H1 4032   4.692   2.251   4.011 -0.6219  0.2842 -1.0991
 1342TIP3    H2 4033   4.801   2.356   4.013 -0.9232  0.5939 -0.5257
 1343TIP3   OH2 4034   2.848   2.989   1.766  0.1172  0.0857 -0.1360
 1343TIP3    H1 4035   2.840   2.896   1.788  1.2142 -0.0488 -0.2401
 1343TIP3    H2 4036   2.885   2.989   1.677  0.6681  0.6232  0.0889
 1344TIP3   OH2 4037   1.185   2.480   3.369 -0.1063 -0.3954  0.2419
 1344TIP3    H1 4038   1.280   2.481   3.380 -0.3735  0.8502  3.4716
 1344TIP3    H2 4039   1.154   2.411   3.427 -1.1677 -1.9238 -1.9968
 1345TIP3   OH2 4040   1.459   4.508   0.247 -0.0840  0.1360 -0.4824
 1345TIP3    H1 4041   1.457   4.461   0.164 -0.7525  0.2097 -0.5148
 1345TIP3    H2 4042   1.490   4.596   0.224 -0.6898  0.2903 -0.7305
 1346TIP3   OH2 4043   3.566   3.118   2.426 -0.3025 -0.0892 -0.1736
 1346TIP3    H1 4044   3.530   3.029   2.430  0.6995 -0.4730  1.3218
 1346TIP3    H2 4045   3.653   3.107   2.388 -0.3954  0.3395 -0.5130
 1347TIP3   OH2 4046   1.126   3.087   4.290  0.1317  0.4485 -0.4991
 1347TIP3    H1 4047   1.187   3.145   4.335  0.7719 -0.2171 -0.4946
 1347TIP3    H2 4048   1.090   3.141   4.220  0.7371  0.8404 -0.5180
 1348TIP3   OH2 4049   4.300   3.994   0.795 -0.3759  0.4262 -0.4942
 1348TIP3    H1 4050   4.315   3.996   0.701 -0.1315  0.3504 -0.4566
 1348TIP3    H2 4051   4.257   4.078   0.814  2.3363  1.8961 -0.2204
 1349TIP3   OH2 4052   2.943   4.580   4.081  0.4454 -0.3982 -0.0686
 1349TIP3    H1 4053   2.995   4.655   4.110 -0.8999  0.6287 -0.2340
 1349TIP3    H2 4054   2.934   4.591   3.987 -0.9684  0.0523  0.0928
 1350TIP3   OH2 4055   5.469   2.347   4.393  0.4885 -0.0347  0.3595
 1350TIP3    H1 4056   5.526   2.332   4.468  0.6006  1.0342  0.4998
 1350TIP3    H2 4057   5.458   2.260   4.354  2.4016 -0.2454  0.2024
 1351TIP3   OH2 4058   0.427   5.616   1.180 -0.2111  0.5534  0.4981
 1351TIP3    H1 4059   0.472   5.532   1.190  1.9957  1.7151  0.8979
 1351TIP3    H2 4060   0.337   5.598   1.208  0.0793 -1.7629  0.1254
 1352TIP3   OH2 4061   0.863   1.815   3.845  0.5435  0.4505 -0.4983
 1352TIP3    H1 4062   0.786   1.779   3.800  1.2150 -0.8799 -0.6149
 1352TIP3    H2 4063   0.917   1.739   3.867  0.6524  1.1146  1.8540
 1353TIP3   OH2 4064   3.421   2.040   1.536  0.4958  0.1555 -0.4076
 1353TIP3    H1 4065   3.431   2.126   1.578  1.2124  0.8387 -1.8891
 1353TIP3    H2 4066   3.494   2.036   1.474 -0.6442 -0.6906 -1.7352
 1354TIP3   OH2 4067   5.818   0.057   0.355  0.1773  0.6635  0.0820
 1354TIP3    H1 4068   5.795   0.145   0.325 -1.6945 -1.0152 -4.3470
 1354TIP3    H2 4069   5.754   0.037   0.423 -0.2389  2.2383  0.1914
 1355TIP3   OH2 4070   3.441   5.654   1.004 -0.0992  0.1331 -0.0395
 1355TIP3    H1 4071   3.505   5.698   0.948 -2.1849  1.0395 -1.8669
 1355TIP3    H2 4072   3.467   5.562   1.004  2.4986  0.7765  1.2325
 1356TIP3   OH2 4073   5.069   3.916   3.281 -0.5690  0.0419 -0.0561
 1356TIP3    H1 4074   4.977   3.906   3.257 -0.4543  0.3232 -0.6355
 1356TIP3    H2 4075   5.109   3.833   3.255 -0.3690  0.4903 -1.2530
 1357TIP3   OH2 4076   3.436   1.514   2.157 -0.1508  0.2379 -0.0433
 1357TIP3    H1 4077   3.493   1.442   2.132 -0.8298 -0.4192  0.2678
 1357TIP3    H2 4078   3.459   1.534   2.248  0.8049  1.1743 -0.4643
 1358TIP3   OH2 4079   5.171   2.739   1.487  0.4901 -0.4272 -0.2329
 1358TIP3    H1 4080   5.079   2.753   1.465  0.8794 -0.6731 -2.1969
 1358TIP3    H2 4081   5.187   2.797   1.561 -0.4701  2.0398 -1.8359
 1359TIP3   OH2 4082   4.854   4.705   4.613  0.1275  0.5966  0.0562
 1359TIP3    H1 4083   4.921   4.732   4.551 -0.4216 -0.2136 -0.9273
 1359TIP3    H2 4084   4.771   4.723   4.568 -0.2769 -1.8334 -0.3230
 1360TIP3   OH2 4085   4.938   2.131   3.521  0.3328 -0.0698 -0.4319
 1360TIP3    H1 4086   4.927   2.220   3.488  1.0550  0.1357 -0.1514
 1360TIP3    H2 4087   5.029   2.108   3.499  0.5702 -0.2375  0.6434
 1361TIP3   OH2 4088   5.244   1.949   3.580 -0.4883  0.1274  0.0242
 1361TIP3    H1 4089   5.296   1.965   3.501  0.2796  0.5183  0.5869
 1361TIP3    H2 4090   5.179   1.884   3.554 -1.0639  1.1772 -1.2582
 1362TIP3   OH2 4091   2.920   0.490   4.277 -0.5715  0.6019 -0.0935
 1362TIP3    H1 4092   2.858   0.431   4.320 -0.4635 -0.5982 -1.4928
 1362TIP3    H2 4093   2.866   0.549   4.225 -0.6186  0.7370  0.1098
 1363TIP3   OH2 4094   2.967   2.113   4.902 -0.2702  0.1714 -0.2509
 1363TIP3    H1 4095   3.034   2.148   4.844 -0.1502 -1.4514 -1.1796
 1363TIP3    H2 4096   2.905   2.185   4.914  1.1402  1.3966 -0.1324
 1364TIP3   OH2 4097   6.321   2.203   3.736  0.1592 -0.1724  0.0991
 1364TIP3    H1 4098   6.250   2.251   3.777  0.1750  0.4334 -0.5765
 1364TIP3    H2 4099   6.306   2.211   3.642 -0.7420 -2.8352 -0.0743
 1365TIP3   OH2 4100   0.997   3.867   4.738  0.0678  0.3434  0.5740
 1365TIP3    H1 4101   0.986   3.773   4.755 -1.8929  0.8590  2.4935
 1365TIP3    H2 4102   1.033   3.903   4.819  0.4197  1.3360  0.0006
 1366TIP3   OH2 4103   5.213   3.557   4.362  0.4682  0.2703  0.2546
 1366TIP3    H1 4104   5.244   3.588   4.447  1.2986 -1.1188  0.4855
 1366TIP3    H2 4105   5.162   3.479   4.381 -1.9045  1.5849 -0.2880
 1367TIP3   OH2 4106   3.954   4.799   0.852  0.0573  0.3023  0.3052
 1367TIP3    H1 4107   4.022   4.735   0.834 -2.6285 -2.2230 -1.6555
 1367TIP3    H2 4108   3.944   4.798   0.948  1.8935 -0.1156  0.5210
 1368TIP3   OH2 4109   5.956   3.291   3.549  0.1534 -0.5186  0.0257
 1368TIP3    H1 4110   5.982   3.229   3.481 -1.6021 -2.3097  0.9058
 1368TIP3    H2 4111   5.864   3.310   3.530 -0.3189 -0.9261  1.7441
 1369TIP3   OH2 4112   5.445   2.593   2.650  0.4295  0.1282  0.3407
 1369TIP3    H1 4113   5.386   2.666   2.633 -0.8751 -0.6158  1.4808
 1369TIP3    H2 4114   5.430   2.532   2.577  1.0975  0.7051 -0.3002
 1370TIP3   OH2 4115   4.022   5.304   3.213  0.0547  0.1174  0.1820
 1370TIP3    H1 4116   4.056   5.283   3.126 -2.1473  0.9564 -0.9412
 1370TIP3    H2 4117   3.934   5.336   3.198 -1.0175 -1.2184  2.8856
 1371TIP3   OH2 4118   0.310   3.605   1.236  0.0532  0.3875  0.1141
 1371TIP3    H1 4119   0.362   3.672   1.190  0.7564  0.5436  1.1152
 1371TIP3    H2 4120   0.373   3.536   1.256 -0.4086 -0.0153  0.1931
 1372TIP3   OH2 4121   3.053   2.406   4.534 -0.0231 -0.2544 -0.0652
 1372TIP3    H1 4122   3.066   2.456   4.454 -1.2918 -1.6299 -1.1949
 1372TIP3    H2 4123   2.958   2.405   4.547  0.1063 -0.7768  0.9966
 1373TIP3   OH2 4124   4.060   1.022   1.243  0.1671 -0.3847  0.1537
 1373TIP3    H1 4125   4.116   0.978   1.307 -0.0013 -2.5007 -1.0542
 1373TIP3    H2 4126   3.984   1.051   1.293  1.2820  0.4865  1.3934
 1374TIP3   OH2 4127   3.080   2.991   2.919 -0.8526  0.2185 -0.4452
 1374TIP3    H1 4128   3.015   3.013   2.986 -0.8842  0.5222 -0.5758
 1374TIP3    H2 4129   3.141   2.932   2.964  0.7034  2.5522  0.7017
 1375TIP3   OH2 4130   0.987   1.417   1.662  0.4634  0.0318 -0.0076
 1375TIP3    H1 4131   0.920   1.483   1.679 -0.0144 -0.7649  1.3806
 1375TIP3    H2 4132   1.066   1.453   1.703  0.4537  0.1800 -0.1156
 1376TIP3   OH2 4133   4.431   3.172   2.019 -0.1612 -0.4666 -0.4550
 1376TIP3    H1 4134   4.408   3.115   1.945  0.4030 -0.4524 -0.6442
 1376TIP3    H2 4135   4.353   3.228   2.030 -0.6246 -1.1082 -0.4158
 1377TIP3   OH2 4136   2.810   4.539   2.315  0.2608  0.0318 -0.1503
 1377TIP3    H1 4137   2.827   4.448   2.290 -0.3561 -0.2588  0.4427
 1377TIP3    H2 4138   2.715   4.542   2.330  0.2568  0.8094 -0.2926
 1378TIP3   OH2 4139   0.457   1.880   2.212  0.3453 -0.0451  0.2154
 1378TIP3    H1 4140   0.551   1.870   2.231  0.3645 -0.5386 -0.1306
 1378TIP3    H2 4141   0.439   1.971   2.234  0.9088  0.0564  0.2930
 1379TIP3   OH2 4142   2.762   1.264   4.726 -0.4728  0.7357 -0.1175
 1379TIP3    H1 4143   2.758   1.317   4.646 -0.0102  2.8419  1.1688
 1379TIP3    H2 4144   2.673   1.231   4.737 -0.8794  1.5599 -0.7983
 1380TIP3   OH2 4145   1.250   0.533   0.302 -0.0077  0.6038 -0.3688
 1380TIP3    H1 4146   1.175   0.489   0.342 -0.1297  1.4627  0.3829
 1380TIP3    H2 4147   1.243   0.623   0.332  1.8176  0.5166  0.4720
 1381TIP3   OH2 4148   5.930   2.332   1.619 -0.8412  0.0463  0.9414
 1381TIP3    H1 4149   5.951   2.418   1.656  0.0906 -0.1981  1.0104
 1381TIP3    H2 4150   5.835   2.329   1.617 -0.8842  1.1095  0.8829
 1382TIP3   OH2 4151   3.730   5.108   2.849  0.4586  0.3343 -0.4140
 1382TIP3    H1 4152   3.734   5.014   2.831  0.2128  0.1977  0.2173
 1382TIP3    H2 4153   3.638   5.132   2.838  0.5788  0.5718 -0.9124
 1383TIP3   OH2 4154   0.345   2.312   1.463  0.4612 -0.5698  0.4524
 1383TIP3    H1 4155   0.401   2.278   1.394 -0.2177 -2.1957  0.6349
 1383TIP3    H2 4156   0.383   2.396   1.487  1.6755 -0.7528 -0.7357
 1384TIP3   OH2 4157   1.316   5.877   2.807 -0.2576  0.2608 -0.3421
 1384TIP3    H1 4158   1.324   5.782   2.812 -0.3586  0.3234  1.8287
 1384TIP3    H2 4159   1.382   5.910   2.868  0.5706  1.6504 -1.9145
 1385TIP3   OH2 4160   5.823   1.521   3.921  1.4192 -0.1857 -0.3026
 1385TIP3    H1 4161   5.830   1.500   4.014 -0.0798 -2.0007 -0.5606
 1385TIP3    H2 4162   5.844   1.440   3.876  0.9432  0.3400 -1.5252
 1386TIP3   OH2 4163   1.153   2.439   3.871  0.3434  0.2052  0.2861
 1386TIP3    H1 4164   1.221   2.497   3.907 -0.2212  0.0775  1.6315
 1386TIP3    H2 4165   1.201   2.372   3.823  0.9875  2.3398 -2.2583
 1387TIP3   OH2 4166   6.012   1.018   1.682  0.2908  0.3010  0.1323
 1387TIP3    H1 4167   5.944   1.023   1.750  2.1543  0.7362  2.0915
 1387TIP3    H2 4168   5.976   0.960   1.615 -1.2312 -1.0502  2.0175
 1388TIP3   OH2 4169   5.365   2.331   0.010  0.1874  0.4797 -0.3240
 1388TIP3    H1 4170   5.285   2.306   0.058  0.5387 -1.3021 -0.5925
 1388TIP3    H2 4171   5.433   2.332   0.077 -0.1095  2.5338  0.0058
 1389TIP3   OH2 4172   4.102   5.606   5.148 -0.6772 -0.0537 -0.4990
 1389TIP3    H1 4173   4.100   5.702   5.145  0.3970 -0.0295 -0.6198
 1389TIP3    H2 4174   4.154   5.580   5.072  1.5246 -0.5962  1.0939
 1390TIP3   OH2 4175   0.617   2.540   1.098  0.0389  0.2290 -0.2331
 1390TIP3    H1 4176   0.706   2.545   1.064  0.7141  1.1522  1.5350
 1390TIP3    H2 4177   0.616   2.603   1.171 -2.2355  0.7007 -0.6023
 1391TIP3   OH2 4178   0.036   1.950   3.765  0.0841 -0.1829 -1.0019
 1391TIP3    H1 4179   0.084   1.937   3.847  0.6412 -1.7459 -1.5232
 1391TIP3    H2 4180   0.014   2.043   3.764 -0.5535 -0.2476  1.2442
 1392TIP3   OH2 4181   1.028   4.754   5.148  0.3277  0.4852 -0.1952
 1392TIP3    H1 4182   1.019   4.846   5.172 -1.0775 -0.2619  2.4516
 1392TIP3    H2 4183   0.938   4.723   5.138  0.7865 -0.5560 -1.4249
 1393TIP3   OH2 4184   1.884   1.885   1.558  0.2134  0.3327 -0.3284
 1393TIP3    H1 4185   1.900   1.967   1.605  1.7474  0.6784 -1.3727
 1393TIP3    H2 4186   1.915   1.902   1.469  0.5460 -1.3781 -0.5735
 1394TIP3   OH2 4187   5.425   5.506   1.202 -0.0627  0.3906  0.1099
 1394TIP3    H1 4188   5.457   5.418   1.222  1.3226  1.0620  1.0127
 1394TIP3    H2 4189   5.473   5.531   1.123 -0.3568  0.3920 -0.0689
 1395TIP3   OH2 4190   1.925   5.458   3.779  0.3160  0.0765  0.1718
 1395TIP3    H1 4191   1.934   5.376   3.731  1.3980  0.1205  0.2747
 1395TIP3    H2 4192   1.948   5.437   3.869  0.0371  0.3698  0.3137
 1396TIP3   OH2 4193   0.898   3.766   3.349 -0.2549 -0.0240  0.5107
 1396TIP3    H1 4194   0.904   3.746   3.442  1.1049  0.7331  0.5995
 1396TIP3    H2 4195   0.978   3.730   3.311 -0.9216 -0.5725 -0.4230
 1397TIP3   OH2 4196   5.465   0.877   1.804  0.1177 -0.0743 -0.1465
 1397TIP3    H1 4197   5.403   0.944   1.832 -1.1913 -1.5033  0.5698
 1397TIP3    H2 4198   5.538   0.884   1.865  0.8609  1.8230 -1.1737
 1398TIP3   OH2 4199   1.081   0.112   2.184  0.0772 -0.2707 -0.0001
 1398TIP3    H1 4200   1.121   0.075   2.105  1.1568  2.0399 -0.6169
 1398TIP3    H2 4201   1.147   0.097   2.253 -0.2682 -1.0502  0.1725
 1399TIP3   OH2 4202   2.561   0.462   1.556 -0.5353  0.4952  0.6233
 1399TIP3    H1 4203   2.535   0.466   1.648 -0.2996  0.4942  0.6919
 1399TIP3    H2 4204   2.553   0.552   1.525  0.0173  0.6184  0.8252
 1400TIP3   OH2 4205   5.399   5.739   1.522 -0.0562  0.2101 -0.3705
 1400TIP3    H1 4206   5.429   5.674   1.585  0.6224  1.1855  0.3392
 1400TIP3    H2 4207   5.314   5.706   1.492 -0.0091 -0.6812  0.4378
 1401TIP3   OH2 4208   1.896   4.598   3.350 -0.4671  0.4049 -0.0993
 1401TIP3    H1 4209   1.842   4.590   3.271  1.1732  0.3453 -1.2638
 1401TIP3    H2 4210   1.902   4.509   3.383  0.5177  0.0707 -1.1075
 1402TIP3   OH2 4211   5.024   5.442   1.355  0.2804 -0.0273  0.1114
 1402TIP3    H1 4212   5.042   5.358   1.312  1.5131  0.6684 -0.8385
 1402TIP3    H2 4213   5.097   5.498   1.328  0.1719  0.9828  1.7564
 1403TIP3   OH2 4214   1.544   3.371   2.350 -0.1229 -0.3381  0.2119
 1403TIP3    H1 4215   1.451   3.393   2.349 -0.0350  0.0525  0.5327
 1403TIP3    H2 4216   1.573   3.393   2.438  0.4229  0.1412 -0.0856
 1404TIP3   OH2 4217   4.276   4.958   2.371 -0.2043 -0.0965  0.3724
 1404TIP3    H1 4218   4.256   4.872   2.334  2.5092 -0.4201 -0.5262
 1404TIP3    H2 4219   4.326   4.940   2.450 -0.1580  0.6710  0.5269
 1405TIP3   OH2 4220   1.778   1.056   0.051  0.0806 -0.0303  0.0811
 1405TIP3    H1 4221   1.748   1.077   0.140 -0.3386 -1.0734  0.2003
 1405TIP3    H2 4222   1.767   1.138   0.003 -2.9401 -0.2543  0.1517
 1406TIP3   OH2 4223   0.633   5.131   1.330 -0.0525 -0.6553  0.0834
 1406TIP3    H1 4224   0.674   5.163   1.410  0.1467 -0.9496  0.0977
 1406TIP3    H2 4225   0.682   5.174   1.259 -0.1842 -0.4499  0.1138
 1407TIP3   OH2 4226   3.718   2.186   2.042  0.0339 -0.0745 -0.3142
 1407TIP3    H1 4227   3.694   2.251   1.975 -2.9838 -0.4534  0.2569
 1407TIP3    H2 4228   3.742   2.238   2.118  1.9755  0.3481 -1.1707
 1408TIP3   OH2 4229   3.851   5.491   0.114  0.5469 -0.4435 -0.3857
 1408TIP3    H1 4230   3.857   5.525   0.024  0.1924 -0.8187 -0.5547
 1408TIP3    H2 4231   3.875   5.566   0.169 -0.5996  0.2154 -0.7359
 1409TIP3   OH2 4232   0.780   1.045   1.679 -0.3500  0.7719 -0.0128
 1409TIP3    H1 4233   0.768   0.953   1.700 -1.0810  0.8020 -0.2570
 1409TIP3    H2 4234   0.803   1.086   1.762  1.9436  0.0693 -0.2432
 1410TIP3   OH2 4235   4.397   1.081   0.435  0.3498  0.1400 -0.1502
 1410TIP3    H1 4236   4.416   1.092   0.342 -1.7480  1.0020 -0.5433
 1410TIP3    H2 4237   4.305   1.105   0.443  0.5972  0.5114  2.2428
 1411TIP3   OH2 4238   2.863   4.039   1.998 -0.3836 -0.3857 -0.5274
 1411TIP3    H1 4239   2.800   4.100   1.959 -1.5330 -1.7694 -0.9110
 1411TIP3    H2 4240   2.929   4.095   2.038 -0.7086  1.1107 -1.9867
 1412TIP3   OH2 4241   3.904   2.847   4.849  0.1476 -0.5295 -0.3441
 1412TIP3    H1 4242   3.909   2.799   4.766  0.6712 -1.1037  0.0107
 1412TIP3    H2 4243   3.994   2.844   4.883 -0.1703 -0.7291  0.4852
 1413TIP3   OH2 4244   3.163   1.112   0.580  0.2764  0.3255  0.3947
 1413TIP3    H1 4245   3.143   1.104   0.487  0.6671  0.7780  0.2698
 1413TIP3    H2 4246   3.099   1.056   0.623 -1.1190  1.5593 -0.0023
 1414TIP3   OH2 4247   2.396   2.224   1.793 -0.2842 -0.8706 -0.0550
 1414TIP3    H1 4248   2.337   2.166   1.841  0.2498 -1.3917 -0.0286
 1414TIP3    H2 4249   2.348   2.307   1.789  0.1016 -0.4443  2.3982
 1415TIP3   OH2 4250   5.765   0.365   2.827 -0.2529  0.6265 -0.2981
 1415TIP3    H1 4251   5.854   0.332   2.817 -0.3481  0.2784 -0.0432
 1415TIP3    H2 4252   5.715   0.289   2.856 -1.2175  0.0756 -3.0847
 1416TIP3   OH2 4253   1.570   0.614   0.363  0.0053  0.1089  0.1390
 1416TIP3    H1 4254   1.629   0.540   0.373 -0.1222 -0.0262 -0.0983
 1416TIP3    H2 4255   1.579   0.664   0.444 -1.0754 -1.0062  0.9801
 1417TIP3   OH2 4256   5.260   1.788   0.360 -0.6689  0.3074 -0.4116
 1417TIP3    H1 4257   5.348   1.812   0.329 -0.0397 -1.5338 -0.1681
 1417TIP3    H2 4258   5.205   1.862   0.334  0.6892  0.8895 -1.8439
 1418TIP3   OH2 4259   0.336   5.105   3.749  0.2518 -0.2496 -0.1412
 1418TIP3    H1 4260   0.420   5.129   3.787  0.3693  1.0765 -1.1599
 1418TIP3    H2 4261   0.323   5.013   3.773  2.1730 -0.5837 -0.2929
 1419TIP3   OH2 4262   2.248   2.867   4.625  0.7635  0.7482  0.1415
 1419TIP3    H1 4263   2.169   2.888   4.675 -0.1849 -0.0965 -0.9473
 1419TIP3    H2 4264   2.319   2.913   4.671 -0.4064  1.8263  0.9200
 1420TIP3   OH2 4265   5.062   1.947   0.782  0.5129 -0.0516  0.4084
 1420TIP3    H1 4266   5.090   2.023   0.834  1.2241 -0.5021  0.6938
 1420TIP3    H2 4267   4.980   1.976   0.741 -0.7087 -0.0669  2.6804
 1421TIP3   OH2 4268   0.969   6.017   0.501 -0.3297 -0.3200 -0.0528
 1421TIP3    H1 4269   1.014   6.026   0.585 -0.2609  1.0703 -0.2098
 1421TIP3    H2 4270   0.960   5.923   0.488 -0.9796 -0.5541  1.8573
 1422TIP3   OH2 4271   2.785   0.762   2.227 -0.1215 -0.1884  0.1631
 1422TIP3    H1 4272   2.804   0.764   2.321  1.7754 -0.6540 -0.1653
 1422TIP3    H2 4273   2.788   0.854   2.200 -2.2991  0.1208  0.8029
 1423TIP3   OH2 4274   0.608   2.956   4.789 -0.6967 -0.1754  0.0564
 1423TIP3    H1 4275   0.692   2.951   4.742  0.0071 -0.8997  1.3126
 1423TIP3    H2 4276   0.562   3.030   4.750  0.3535 -0.0289 -0.9496
 1424TIP3   OH2 4277   2.446   5.202   1.583 -0.4182 -0.6059  0.0369
 1424TIP3    H1 4278   2.490   5.189   1.499 -0.9478 -1.9497 -0.0617
 1424TIP3    H2 4279   2.472   5.126   1.635 -1.5386 -0.7265  0.4425
 1425TIP3   OH2 4280   4.361   3.729   0.469  0.1064 -0.1797  0.6421
 1425TIP3    H1 4281   4.345   3.648   0.517  0.2518 -0.3355  0.4262
 1425TIP3    H2 4282   4.369   3.703   0.378  1.1133 -0.0567  0.6801
 1426TIP3   OH2 4283   2.289   4.957   2.140  0.0838 -0.0169 -0.5044
 1426TIP3    H1 4284   2.382   4.935   2.148  0.1936  0.5122 -0.2976
 1426TIP3    H2 4285   2.268   4.939   2.048  0.3986 -0.1115 -0.5602
 1427TIP3   OH2 4286   4.327   2.013   2.032 -0.0095  0.4773 -0.2775
 1427TIP3    H1 4287   4.355   1.965   2.110 -1.3037  1.9272  1.1454
 1427TIP3    H2 4288   4.368   2.099   2.041  1.0250  0.2154 -1.9949
 1428TIP3   OH2 4289   3.561   3.174   0.691 -0.4644 -0.0878 -0.7787
 1428TIP3    H1 4290   3.625   3.197   0.623  0.9776  2.0057  1.1649
 1428TIP3    H2 4291   3.479   3.213   0.660  0.3897  1.6892 -0.8850
 1429TIP3   OH2 4292   5.424   3.885   4.345  0.0096  0.3349 -0.3650
 1429TIP3    H1 4293   5.381   3.950   4.289  0.6283  0.9948 -0.0876
 1429TIP3    H2 4294   5.508   3.925   4.368 -0.4112  0.2841  1.3948
 1430TIP3   OH2 4295   2.512   3.569   1.877 -0.4023 -0.6067 -0.0153
 1430TIP3    H1 4296   2.567   3.494   1.852 -1.3717 -0.8560 -1.5447
 1430TIP3    H2 4297   2.554   3.644   1.835 -0.6249 -0.6262 -0.2718
 1431TIP3   OH2 4298   2.629   2.468   3.533 -0.7796 -0.2120 -0.1330
 1431TIP3    H1 4299   2.597   2.380   3.553  0.0903  0.0561  3.0186
 1431TIP3    H2 4300   2.717   2.455   3.499 -0.8791 -0.5746 -0.2538
 1432TIP3   OH2 4301   3.089   3.171   2.113 -0.6890 -0.2777 -0.5447
 1432TIP3    H1 4302   3.170   3.139   2.152 -0.5339  0.1071 -0.5460
 1432TIP3    H2 4303   3.023   3.105   2.137 -0.8438  0.4789  1.3458
 1433TIP3   OH2 4304   3.537   0.281   4.052 -0.6244 -0.0896  0.2903
 1433TIP3    H1 4305   3.528   0.268   4.147 -1.0619  0.2346  0.2961
 1433TIP3    H2 4306   3.451   0.312   4.024 -0.8032 -1.1193 -0.3762
 1434TIP3   OH2 4307   4.523   1.611   3.635  0.1866  0.2238 -0.2580
 1434TIP3    H1 4308   4.444   1.665   3.634  0.0683  0.0590  0.1139
 1434TIP3    H2 4309   4.568   1.634   3.554  0.3291  1.1704  0.0681
 1435TIP3   OH2 4310   4.062   3.849   3.126  0.1612  0.5478 -0.5397
 1435TIP3    H1 4311   3.972   3.826   3.147  0.1199  1.1259 -0.0714
 1435TIP3    H2 4312   4.096   3.890   3.205  1.1150 -0.4428 -0.4014
 1436TIP3   OH2 4313   0.517   5.059   3.096 -0.4869 -0.0898 -0.0511
 1436TIP3    H1 4314   0.425   5.068   3.071 -0.3908  1.7363  0.1026
 1436TIP3    H2 4315   0.566   5.077   3.015 -0.2409 -1.5407 -0.2536
 1437TIP3   OH2 4316   1.241   0.998   0.864  0.0615  0.4434  0.5014
 1437TIP3    H1 4317   1.227   1.092   0.878  0.7434  0.6294  0.0168
 1437TIP3    H2 4318   1.297   0.971   0.936 -0.5561  0.2937  0.9278
 1438TIP3   OH2 4319   3.441   0.023   5.094 -0.5742  0.0825 -0.1481
 1438TIP3    H1 4320   3.395   0.045   5.174 -2.8264  1.3650 -1.6699
 1438TIP3    H2 4321   3.461   0.108   5.054 -0.3609 -0.5232 -1.3846
 1439TIP3   OH2 4322   1.970   2.766   5.051  0.3103 -0.4605 -0.1209
 1439TIP3    H1 4323   2.001   2.736   5.136  1.8515 -1.0432 -0.8535
 1439TIP3    H2 4324   2.011   2.852   5.039 -0.3758 -0.1128 -0.0375
 1440TIP3   OH2 4325   2.592   0.115   2.279  0.4359 -0.6775 -0.1093
 1440TIP3    H1 4326   2.525   0.152   2.221 -0.2832 -0.3179  0.9296
 1440TIP3    H2 4327   2.667   0.174   2.268  0.0249 -0.1317 -0.0696
 1441TIP3   OH2 4328   3.077   1.647   0.350 -1.0781 -0.1727 -0.4527
 1441TIP3    H1 4329   3.085   1.708   0.424 -2.1636 -1.0206  0.3980
 1441TIP3    H2 4330   3.116   1.694   0.276  1.5573  0.0977  0.9604
 1442TIP3   OH2 4331   1.173   4.785   3.025  0.3250  0.5249 -0.4623
 1442TIP3    H1 4332   1.194   4.809   3.115 -1.0018 -1.9183  0.5966
 1442TIP3    H2 4333   1.240   4.722   3.001  3.0398  3.8783 -2.7634
 1443TIP3   OH2 4334   4.512   5.499   5.146  0.6027 -0.3822 -0.4768
 1443TIP3    H1 4335   4.464   5.512   5.228 -0.9675 -2.9661 -0.8860
 1443TIP3    H2 4336   4.554   5.583   5.129  0.0424  0.5753  2.3651
 1444TIP3   OH2 4337   1.743   4.166   1.977 -0.1357  0.1908 -0.2562
 1444TIP3    H1 4338   1.649   4.165   1.994  0.2398 -2.1572  2.5321
 1444TIP3    H2 4339   1.754   4.112   1.899 -1.0551  0.4823 -0.6092
 1445TIP3   OH2 4340   5.108   4.303   0.940 -0.0584 -0.2722  0.2470
 1445TIP3    H1 4341   5.122   4.209   0.935 -0.7303 -0.3778  0.2733
 1445TIP3    H2 4342   5.196   4.341   0.936  0.1215 -0.7949 -2.1088
 1446TIP3   OH2 4343   1.023   5.716   1.060 -0.1828 -0.0989 -0.1255
 1446TIP3    H1 4344   1.045   5.794   1.110  0.1376  0.6124 -1.3341
 1446TIP3    H2 4345   0.960   5.669   1.115  1.7571 -0.4750  1.9065
 1447TIP3   OH2 4346   4.716   1.458   1.195  0.6626 -0.5302 -0.0247
 1447TIP3    H1 4347   4.767   1.399   1.251  3.0675  1.2511 -0.1680
 1447TIP3    H2 4348   4.741   1.433   1.106  0.4851 -0.3158 -0.1349
 1448TIP3   OH2 4349   3.386   5.517   0.169 -0.5116 -0.1138 -0.8623
 1448TIP3    H1 4350   3.393   5.436   0.118  0.9144  1.5462 -3.5265
 1448TIP3    H2 4351   3.455   5.510   0.235 -0.0193 -0.8097 -1.4427
 1449TIP3   OH2 4352   1.151   4.309   4.388  0.0483  0.8120  0.1860
 1449TIP3    H1 4353   1.121   4.256   4.461  0.3200  2.6906  1.7545
 1449TIP3    H2 4354   1.103   4.391   4.396 -1.3862  0.4279 -2.9580
 1450TIP3   OH2 4355   5.051   1.697   0.927 -0.1020  0.1648  0.2023
 1450TIP3    H1 4356   5.021   1.722   1.015 -2.1327  1.1506 -0.7125
 1450TIP3    H2 4357   5.035   1.774   0.873  4.4149  0.9517 -0.4728
 1451TIP3   OH2 4358   0.345   4.937   4.930 -0.5587 -0.5270  0.1981
 1451TIP3    H1 4359   0.284   4.982   4.988 -2.0295 -1.0280 -0.8845
 1451TIP3    H2 4360   0.321   4.967   4.842  0.8106 -0.6936 -0.2596
 1452TIP3   OH2 4361   5.887   4.748   0.893 -0.4394  0.0335  0.1607
 1452TIP3    H1 4362   5.978   4.726   0.874  0.0162  1.8347  0.0977
 1452TIP3    H2 4363   5.869   4.703   0.976  0.9182  0.6543  0.8241
 1453TIP3   OH2 4364   3.449   5.406   3.808 -0.2920  0.4456  0.2206
 1453TIP3    H1 4365   3.483   5.316   3.809 -0.0738  0.5357  0.8668
 1453TIP3    H2 4366   3.517   5.459   3.849 -0.6179  0.8388  0.2647
 1454TIP3   OH2 4367   2.928   2.464   3.775 -0.5852  0.2478 -0.3441
 1454TIP3    H1 4368   2.853   2.416   3.812  0.4115  0.6312  2.4627
 1454TIP3    H2 4369   2.892   2.550   3.752 -1.4300 -0.2846 -1.0637
 1455TIP3   OH2 4370   4.294   5.018   2.870  0.1889  0.4015  1.0126
 1455TIP3    H1 4371   4.324   5.109   2.858 -2.4898  1.2653  0.1609
 1455TIP3    H2 4372   4.207   5.027   2.909  0.2393 -1.8818  1.7759
 1456TIP3   OH2 4373   5.840   4.534   1.123  0.0930 -0.0558 -0.0569
 1456TIP3    H1 4374   5.928   4.499   1.107  0.4227  0.0355  1.4104
 1456TIP3    H2 4375   5.781   4.471   1.082  0.7871 -0.8352  0.1268
 1457TIP3   OH2 4376   5.492   5.208   3.013 -0.3527 -0.4009  0.1197
 1457TIP3    H1 4377   5.509   5.240   2.925  0.2858  1.0392  0.7231
 1457TIP3    H2 4378   5.580   5.197   3.051 -0.6236 -0.3447  0.7754
 1458TIP3   OH2 4379   3.165   5.563   1.908  0.2304 -0.1055  0.1690
 1458TIP3    H1 4380   3.112   5.615   1.968  1.2156 -0.2120  1.1727
 1458TIP3    H2 4381   3.117   5.480   1.899  0.7058 -0.5978  1.8777
 1459TIP3   OH2 4382   4.352   3.940   3.259  1.1788 -0.2634  0.1058
 1459TIP3    H1 4383   4.356   3.912   3.168  0.7812 -1.8305  0.5473
 1459TIP3    H2 4384   4.390   3.868   3.308 -1.4359 -0.8715  1.4314
 1460TIP3   OH2 4385   1.138   1.505   0.666  0.3433 -0.3603 -0.1765
 1460TIP3    H1 4386   1.227   1.528   0.640  0.2993  0.4584  0.3723
 1460TIP3    H2 4387   1.150   1.453   0.746  0.3038  0.4336  0.3579
 1461TIP3   OH2 4388   3.634   4.808   1.639 -0.3125 -0.2279  0.3725
 1461TIP3    H1 4389   3.705   4.745   1.652 -0.1275  0.3039  2.2191
 1461TIP3    H2 4390   3.602   4.790   1.551  2.4330 -0.1577 -0.7480
 1462TIP3   OH2 4391   1.702   5.694   2.905 -1.0313 -0.0660  0.0753
 1462TIP3    H1 4392   1.704   5.788   2.925 -1.5429 -0.2978  1.2299
 1462TIP3    H2 4393   1.763   5.655   2.968 -0.8629 -0.5250 -0.3677
 1463TIP3   OH2 4394   1.701   2.093   4.551  0.3283 -0.0465 -0.1851
 1463TIP3    H1 4395   1.665   2.171   4.508 -1.5123 -0.5200  0.3978
 1463TIP3    H2 4396   1.713   2.120   4.643  0.4312 -0.2299 -0.1442
 1464TIP3   OH2 4397   3.840   0.326   2.254 -0.3358  0.1392 -0.1373
 1464TIP3    H1 4398   3.884   0.407   2.280 -0.4412  0.9271 -2.2718
 1464TIP3    H2 4399   3.876   0.259   2.314  1.6412  1.2681  0.0214
 1465TIP3   OH2 4400   4.125   5.320   2.697 -0.3785 -0.2724 -0.6763
 1465TIP3    H1 4401   4.136   5.290   2.607  0.6046  1.0919 -1.0374
 1465TIP3    H2 4402   4.210   5.356   2.721 -0.8539  0.0911  0.5340
 1466TIP3   OH2 4403   5.650   0.420   3.455  0.3150  0.3623 -0.1966
 1466TIP3    H1 4404   5.614   0.459   3.534  0.4968  0.6612 -0.2602
 1466TIP3    H2 4405   5.724   0.476   3.432 -0.4102  0.9322 -1.2093
 1467TIP3   OH2 4406   2.185   0.732   0.160 -0.1992 -0.2231 -0.1335
 1467TIP3    H1 4407   2.236   0.798   0.207 -1.0521 -0.1556  0.7286
 1467TIP3    H2 4408   2.248   0.690   0.102  0.1984  1.8961 -1.3244
 1468TIP3   OH2 4409   4.975   4.395   0.147  0.4514  0.1001  0.3758
 1468TIP3    H1 4410   4.910   4.464   0.134 -0.6144 -0.8217  0.7011
 1468TIP3    H2 4411   5.058   4.442   0.155 -0.3795  1.4346  1.6479
 1469TIP3   OH2 4412   0.310   4.296   1.801 -0.0357  0.0220 -0.1614
 1469TIP3    H1 4413   0.254   4.218   1.811  0.3723 -0.0679  2.0282
 1469TIP3    H2 4414   0.261   4.366   1.845  1.8639 -0.2635  2.6638
 1470TIP3   OH2 4415   3.178   4.489   1.638 -0.4144 -0.6745 -0.5393
 1470TIP3    H1 4416   3.166   4.479   1.543  0.4866  1.3708 -0.9128
 1470TIP3    H2 4417   3.090   4.503   1.672 -0.5977  0.0767 -1.2934
 1471TIP3   OH2 4418   0.216   0.816   3.322 -0.5291  0.6103  0.0499
 1471TIP3    H1 4419   0.269   0.738   3.333  0.7680  1.6255  1.4611
 1471TIP3    H2 4420   0.175   0.831   3.407  0.1536  2.0814  0.1535
 1472TIP3   OH2 4421   4.706   0.257   0.365  0.2088 -0.0500  0.1484
 1472TIP3    H1 4422   4.668   0.339   0.333  0.1970 -0.6797 -1.5617
 1472TIP3    H2 4423   4.656   0.237   0.444 -0.1851  1.2824  0.2596
 1473TIP3   OH2 4424   0.709   5.649   2.799 -0.0401 -0.7477 -0.0309
 1473TIP3    H1 4425   0.657   5.594   2.858 -1.3780  1.0907  0.6037
 1473TIP3    H2 4426   0.685   5.619   2.711 -0.9040 -1.0735  0.2972
 1474TIP3   OH2 4427   0.420   1.168   1.613 -0.6616  0.2727  0.1607
 1474TIP3    H1 4428   0.498   1.177   1.667 -0.8206  0.1698  0.4078
 1474TIP3    H2 4429   0.451   1.182   1.524 -0.1072 -1.1195  0.1165
 1475TIP3   OH2 4430   6.274   0.837   4.293 -0.2694 -0.1235  0.3010
 1475TIP3    H1 4431   6.254   0.755   4.339  1.0410  0.1757  1.4595
 1475TIP3    H2 4432   6.361   0.823   4.256 -0.6281  0.2446 -0.7135
 1476TIP3   OH2 4433   4.198   3.616   1.183  0.0435 -0.0983  0.5625
 1476TIP3    H1 4434   4.163   3.549   1.242  0.7087 -1.6217 -0.7168
 1476TIP3    H2 4435   4.245   3.567   1.116 -0.4167  1.6054 -1.0762
 1477TIP3   OH2 4436   4.305   4.076   2.589 -0.2110  0.0202 -0.3569
 1477TIP3    H1 4437   4.279   3.987   2.612 -1.5857  0.0212 -1.7114
 1477TIP3    H2 4438   4.330   4.116   2.672 -0.2176 -1.4051  0.3727
 1478TIP3   OH2 4439   5.434   0.964   4.347 -0.5491  0.6587  0.6208
 1478TIP3    H1 4440   5.344   0.968   4.378 -0.1772  0.2685  1.7967
 1478TIP3    H2 4441   5.427   0.954   4.252 -1.7583 -1.1275  0.8630
 1479TIP3   OH2 4442   5.240   3.650   0.636  0.1924  0.4366  0.0718
 1479TIP3    H1 4443   5.246   3.674   0.543 -1.6948  1.4480  0.1684
 1479TIP3    H2 4444   5.319   3.688   0.675  0.8458  0.2913 -1.0442
 1480TIP3   OH2 4445   1.134   4.170   2.924  0.6470  0.2765  0.3226
 1480TIP3    H1 4446   1.094   4.193   3.008 -0.5912 -2.0847  0.4838
 1480TIP3    H2 4447   1.073   4.107   2.886  1.3964  0.9699 -2.1874
 1481TIP3   OH2 4448   5.385   5.922   4.995 -0.5238 -0.5202 -0.1504
 1481TIP3    H1 4449   5.323   5.872   5.048 -0.9601  0.6063  0.4203
 1481TIP3    H2 4450   5.332   5.990   4.953  0.1550 -0.1882 -0.4878
 1482TIP3   OH2 4451   5.952   1.216   4.282 -0.6761  0.1003  0.3889
 1482TIP3    H1 4452   5.888   1.283   4.308 -1.4121 -1.1360  1.8743
 1482TIP3    H2 4453   5.969   1.235   4.190 -2.6003  0.9581  0.1564
 1483TIP3   OH2 4454   2.475   1.464   4.407  0.4676 -0.1473 -0.2097
 1483TIP3    H1 4455   2.473   1.397   4.339  0.8977 -0.7910  0.4031
 1483TIP3    H2 4456   2.430   1.539   4.367  1.7574 -0.0844 -1.6441
 1484TIP3   OH2 4457   5.773   0.677   4.667 -0.7307  0.6132  0.3127
 1484TIP3    H1 4458   5.803   0.748   4.610  0.5035  0.0935  0.2747
 1484TIP3    H2 4459   5.742   0.720   4.746  0.8944  1.1842  0.6830
 1485TIP3   OH2 4460   2.708   3.043   2.823 -0.5305 -0.1865  0.7968
 1485TIP3    H1 4461   2.760   3.112   2.865  0.9868 -0.1236 -1.0504
 1485TIP3    H2 4462   2.674   3.084   2.743  0.0349 -1.4363 -0.1166
 1486TIP3   OH2 4463   2.540   4.113   0.561  0.1635 -0.0538  0.2526
 1486TIP3    H1 4464   2.587   4.060   0.497  2.3574  2.5074 -0.4745
 1486TIP3    H2 4465   2.608   4.145   0.620 -1.3742  0.1595  1.9908
 1487TIP3   OH2 4466   2.207   3.111   4.278 -0.4024 -0.3485  0.0139
 1487TIP3    H1 4467   2.148   3.153   4.215  1.1233  1.2920 -0.4239
 1487TIP3    H2 4468   2.155   3.041   4.317 -1.8771 -0.4958 -2.0225
 1488TIP3   OH2 4469   2.262   1.166   0.756  0.4937  0.0580 -0.1161
 1488TIP3    H1 4470   2.279   1.216   0.836  0.8318 -0.7694  0.3528
 1488TIP3    H2 4471   2.291   1.223   0.685 -1.2077  1.4296  0.2268
 1489TIP3   OH2 4472   4.786   0.487   1.880 -0.2859 -0.0193 -0.4679
 1489TIP3    H1 4473   4.783   0.397   1.912 -0.8811  0.5271  1.0970
 1489TIP3    H2 4474   4.879   0.510   1.882 -0.2865 -0.0524  0.7948
 1490TIP3   OH2 4475   6.322   2.128   1.746  0.3216 -0.0422  0.0304
 1490TIP3    H1 4476   6.374   2.174   1.681  3.1051 -1.0107  1.3732
 1490TIP3    H2 4477   6.320   2.037   1.716 -3.2886  0.4071 -1.5072
 1491TIP3   OH2 4478   4.724   1.139   5.181 -0.5274 -0.0585  0.5608
 1491TIP3    H1 4479   4.763   1.201   5.119 -0.7516  0.6263  1.1015
 1491TIP3    H2 4480   4.783   1.139   5.256 -0.1253 -1.0758  0.2621
 1492TIP3   OH2 4481   5.671   4.466   3.008  0.8321 -0.4436  0.1267
 1492TIP3    H1 4482   5.745   4.497   3.060  0.4760  2.6304 -0.9794
 1492TIP3    H2 4483   5.626   4.404   3.065  3.3300 -1.2168  1.4215
 1493TIP3   OH2 4484   4.105   5.772   0.542 -0.8654  0.0385 -0.0742
 1493TIP3    H1 4485   4.130   5.845   0.598 -1.3124 -0.3949  0.7126
 1493TIP3    H2 4486   4.099   5.697   0.602 -0.0347 -0.7340 -0.9156
 1494TIP3   OH2 4487   2.069   5.354   1.478 -0.1846  0.5302 -0.2460
 1494TIP3    H1 4488   2.134   5.424   1.482  0.0440  0.3332 -0.4777
 1494TIP3    H2 4489   2.047   5.337   1.570  0.9147 -0.1616 -0.0933
 1495TIP3   OH2 4490   4.580   3.174   1.569  0.6644  0.3004  0.1582
 1495TIP3    H1 4491   4.535   3.141   1.491  0.2893 -0.5068  0.7088
 1495TIP3    H2 4492   4.529   3.250   1.596  0.4675  0.2457 -0.0581
 1496TIP3   OH2 4493   2.322   1.063   3.201  0.0074 -0.0437  0.2875
 1496TIP3    H1 4494   2.370   1.016   3.133  2.7900  4.1703 -1.0511
 1496TIP3    H2 4495   2.234   1.024   3.199  1.0602 -2.7696 -2.8759
 1497TIP3   OH2 4496   1.578   3.005   1.736 -0.2877 -0.2823 -0.0640
 1497TIP3    H1 4497   1.512   3.025   1.669  0.2182  0.7715 -0.2697
 1497TIP3    H2 4498   1.660   2.997   1.688 -0.0521 -0.3315  0.3417
 1498TIP3   OH2 4499   6.286   6.019   4.321  0.2853 -0.3469 -0.4057
 1498TIP3    H1 4500   6.369   5.985   4.287  1.0523  0.6831  0.4050
 1498TIP3    H2 4501   6.244   5.942   4.361  1.5041 -0.5823  0.4539
 1499TIP3   OH2 4502   5.672   0.810   2.797  0.7374 -0.4358  0.8371
 1499TIP3    H1 4503   5.579   0.831   2.802  0.7605 -0.6446  2.6034
 1499TIP3    H2 4504   5.695   0.826   2.705 -0.8137  0.5238  0.5787
 1500TIP3   OH2 4505   6.339   1.962   2.466  0.2571  0.5877  0.3221
 1500TIP3    H1 4506   6.260   2.016   2.466  0.9095  1.6218  1.9184
 1500TIP3    H2 4507   6.388   1.991   2.389 -1.0836 -0.3987 -0.9679
 1501TIP3   OH2 4508   1.915   5.901   2.331  0.0093 -0.6566  0.2331
 1501TIP3    H1 4509   2.003   5.891   2.297  0.9103 -1.3085  2.5357
 1501TIP3    H2 4510   1.913   5.845   2.409 -2.8783 -1.7247 -0.4792
 1502TIP3   OH2 4511   6.258   0.268   4.603 -0.3884  0.3718 -0.4556
 1502TIP3    H1 4512   6.225   0.338   4.547  0.3786 -0.3335 -1.8328
 1502TIP3    H2 4513   6.352   0.261   4.582 -0.4254 -1.0093 -0.3076
 1503TIP3   OH2 4514   3.453   5.239   2.836  0.5304  0.1621  0.5884
 1503TIP3    H1 4515   3.397   5.255   2.761 -0.9694 -0.7695  1.4608
 1503TIP3    H2 4516   3.488   5.325   2.859 -0.8094  0.8318  0.2125
 1504TIP3   OH2 4517   4.990   4.673   4.856  0.2273  0.2776  0.2542
 1504TIP3    H1 4518   4.977   4.648   4.765 -1.5515 -2.9652  1.2155
 1504TIP3    H2 4519   4.901   4.686   4.890  0.7747  0.3675  1.7410
 1505TIP3   OH2 4520   5.879   5.455   0.099 -0.4787 -0.8812 -0.7011
 1505TIP3    H1 4521   5.932   5.426   0.173  0.5572  1.1239 -0.5831
 1505TIP3    H2 4522   5.795   5.412   0.112  0.1939 -1.8705  0.7192
 1506TIP3   OH2 4523   6.175   4.283   3.910  0.1976 -0.4062  0.0997
 1506TIP3    H1 4524   6.236   4.320   3.973  2.0991 -0.2188 -1.7273
 1506TIP3    H2 4525   6.122   4.221   3.961  1.6488 -0.2985  1.8443
 1507TIP3   OH2 4526   0.607   3.389   0.537  0.5598  0.0322  0.1196
 1507TIP3    H1 4527   0.606   3.482   0.560 -1.2717  0.6591 -2.0496
 1507TIP3    H2 4528   0.540   3.349   0.593  1.0201  0.1101  0.7278
 1508TIP3   OH2 4529   1.278   1.499   1.638 -0.0707 -0.2467 -0.8684
 1508TIP3    H1 4530   1.293   1.419   1.687  0.5437  0.9201  0.9575
 1508TIP3    H2 4531   1.321   1.484   1.553  2.1184 -0.9841  0.2910
 1509TIP3   OH2 4532   4.231   1.983   3.908  0.1715 -0.1113 -0.6458
 1509TIP3    H1 4533   4.242   1.953   3.817  1.2025 -0.3073 -0.4589
 1509TIP3    H2 4534   4.291   1.929   3.959 -0.7546 -0.3343  0.2357
 1510TIP3   OH2 4535   5.736   0.278   2.214 -0.1699  0.0157 -0.0054
 1510TIP3    H1 4536   5.769   0.189   2.215 -1.0030 -0.3316 -1.2995
 1510TIP3    H2 4537   5.668   0.280   2.281  1.7051  0.4766  1.9959
 1511TIP3   OH2 4538   5.659   1.746   5.116  0.2438 -0.0943 -0.1936
 1511TIP3    H1 4539   5.669   1.719   5.024  2.0169 -1.4490  0.3374
 1511TIP3    H2 4540   5.703   1.678   5.166 -0.8137  0.5376  1.7135
 1512TIP3   OH2 4541   4.371   1.608   0.461 -0.1536 -0.4765  0.7221
 1512TIP3    H1 4542   4.322   1.690   0.453 -0.3203 -0.6915 -0.6074
 1512TIP3    H2 4543   4.320   1.544   0.410  0.4253 -1.1978  1.0351
 1513TIP3   OH2 4544   1.794   1.437   5.178  0.4184  0.0591  0.0952
 1513TIP3    H1 4545   1.757   1.350   5.185  0.8900 -0.1224  0.3743
 1513TIP3    H2 4546   1.744   1.479   5.109  0.3939 -0.5401 -0.2583
 1514TIP3   OH2 4547   5.255   2.468   1.087 -0.1195 -0.0431  0.3069
 1514TIP3    H1 4548   5.334   2.521   1.100  1.0144 -0.9614 -2.2368
 1514TIP3    H2 4549   5.192   2.503   1.151  2.4382  0.4100  2.8104
 1515TIP3   OH2 4550   0.433   2.104   2.773 -0.3859  0.3739  0.0938
 1515TIP3    H1 4551   0.517   2.085   2.733 -0.7573  0.1159 -0.5688
 1515TIP3    H2 4552   0.446   2.086   2.866  0.4428  0.8665  0.0845
 1516TIP3   OH2 4553   4.604   5.872   1.061  0.4256  0.9473  0.6886
 1516TIP3    H1 4554   4.568   5.876   1.150 -0.2019 -1.3538  0.5889
 1516TIP3    H2 4555   4.688   5.917   1.068  0.4727  0.6844  2.4887
 1517TIP3   OH2 4556   2.909   0.518   3.741  0.6314  0.6460  0.3056
 1517TIP3    H1 4557   2.878   0.588   3.798 -1.2850  0.2036 -0.1288
 1517TIP3    H2 4558   2.927   0.445   3.800 -1.3359  0.1910  0.4072
 1518TIP3   OH2 4559   4.900   1.330   2.400  0.0405 -0.0458  0.3894
 1518TIP3    H1 4560   4.950   1.264   2.352 -1.1784  0.5266 -1.7903
 1518TIP3    H2 4561   4.966   1.390   2.434  0.9529 -0.0855 -1.2028
 1519TIP3   OH2 4562   1.780   2.291   5.014 -0.3239  0.3485  0.1028
 1519TIP3    H1 4563   1.842   2.346   4.965  0.7430 -1.9077 -1.2187
 1519TIP3    H2 4564   1.827   2.269   5.095 -0.8444  1.4901  0.7448
 1520TIP3   OH2 4565   1.589   5.699   4.504  0.2907 -0.1245  0.4388
 1520TIP3    H1 4566   1.673   5.735   4.536  0.7942 -1.2944  0.4760
 1520TIP3    H2 4567   1.607   5.606   4.491 -0.6692 -0.1548 -0.7372
 1521TIP3   OH2 4568   5.352   5.780   2.407 -0.3682  0.4781  0.5555
 1521TIP3    H1 4569   5.391   5.793   2.321 -0.2957 -0.2225  0.4791
 1521TIP3    H2 4570   5.280   5.844   2.411 -0.4876  0.3873 -0.0914
 1522TIP3   OH2 4571   2.618   2.433   1.925 -0.1506 -0.3876 -0.4119
 1522TIP3    H1 4572   2.641   2.461   1.837 -0.5864  1.5168  0.0412
 1522TIP3    H2 4573   2.687   2.469   1.981 -2.0300  2.1681  0.4898
 1523TIP3   OH2 4574   4.629   5.059   2.313 -0.3397  0.3223 -0.2175
 1523TIP3    H1 4575   4.612   5.057   2.218 -0.8415 -1.4831 -0.1211
 1523TIP3    H2 4576   4.655   4.970   2.335 -1.4800  0.3913  1.5803
 1524TIP3   OH2 4577   5.020   2.537   1.263 -0.5077 -0.2469  0.0850
 1524TIP3    H1 4578   4.993   2.588   1.187  0.2005 -1.0668 -0.7262
 1524TIP3    H2 4579   4.997   2.593   1.338 -0.6689  0.8225 -0.7376
 1525TIP3   OH2 4580   2.664   2.188   1.401  0.2672  0.1321 -0.3530
 1525TIP3    H1 4581   2.744   2.228   1.365  0.0534  0.3342 -0.6045
 1525TIP3    H2 4582   2.660   2.220   1.491 -0.4749  1.5638 -0.8582
 1526TIP3   OH2 4583   0.656   1.170   4.413 -0.0520 -0.0245  0.1737
 1526TIP3    H1 4584   0.625   1.260   4.412  2.0542  0.7397  0.3914
 1526TIP3    H2 4585   0.699   1.160   4.498  1.6274 -0.5208 -0.6933
 1527TIP3   OH2 4586   2.779   1.714   1.688  0.3101  0.3498 -0.2390
 1527TIP3    H1 4587   2.864   1.721   1.731 -0.1403 -0.7480  0.8952
 1527TIP3    H2 4588   2.761   1.620   1.685 -0.7101  0.5417 -0.7742
 1528TIP3   OH2 4589   2.821   3.773   4.943  0.5671 -0.3452 -0.0140
 1528TIP3    H1 4590   2.771   3.766   4.861  0.8139  0.2754 -0.2213
 1528TIP3    H2 4591   2.821   3.866   4.963  0.0455 -0.5484  0.9916
 1529TIP3   OH2 4592   1.200   3.391   4.085  0.3350 -0.7378  0.1373
 1529TIP3    H1 4593   1.137   3.327   4.117  1.4779 -3.4527 -2.5325
 1529TIP3    H2 4594   1.150   3.445   4.024 -0.1401 -0.5477  0.6820
 1530TIP3   OH2 4595   1.243   2.040   2.398  0.6615  0.0707  0.2533
 1530TIP3    H1 4596   1.240   2.110   2.463  0.2312 -0.0335  0.3532
 1530TIP3    H2 4597   1.276   2.082   2.319 -2.2358  1.1224 -0.5516
 1531TIP3   OH2 4598   2.719   4.530   1.212 -0.3805  0.1542  0.0415
 1531TIP3    H1 4599   2.776   4.456   1.194  0.7935  0.5293  1.9978
 1531TIP3    H2 4600   2.757   4.573   1.288 -1.5063  2.2805 -0.4873
 1532TIP3   OH2 4601   0.875   5.751   3.425 -0.3241  0.2953 -0.0468
 1532TIP3    H1 4602   0.948   5.776   3.370 -0.8846 -0.2313 -1.0535
 1532TIP3    H2 4603   0.885   5.803   3.505  0.7125  0.7714 -0.4853
 1533TIP3   OH2 4604   3.260   4.276   0.420 -0.4121  0.3061 -0.4498
 1533TIP3    H1 4605   3.173   4.307   0.396 -2.0307 -0.6417  3.4157
 1533TIP3    H2 4606   3.289   4.336   0.489  0.7472 -0.9480  0.2074
 1534TIP3   OH2 4607   4.066   1.988   1.918 -0.1491  0.0535 -0.2713
 1534TIP3    H1 4608   4.030   2.075   1.903  1.2439  0.7467  0.2126
 1534TIP3    H2 4609   4.143   2.003   1.974  0.9328 -1.3231 -1.3000
 1535TIP3   OH2 4610   1.424   2.972   3.244  0.1140 -0.1114 -0.2047
 1535TIP3    H1 4611   1.435   2.980   3.338  0.2510  0.1934 -0.2472
 1535TIP3    H2 4612   1.507   3.002   3.207 -0.0224 -0.0068 -0.4323
 1536TIP3   OH2 4613   1.232   2.422   4.664 -0.0918  0.0509  0.4222
 1536TIP3    H1 4614   1.153   2.397   4.712 -0.1405 -0.6594 -0.0198
 1536TIP3    H2 4615   1.259   2.343   4.618  0.9903  0.2281  0.7072
 1537TIP3   OH2 4616   4.565   2.319   1.216  0.3438  0.5304  0.3597
 1537TIP3    H1 4617   4.476   2.338   1.246  0.8635 -0.1617  2.6262
 1537TIP3    H2 4618   4.620   2.378   1.267  1.2876 -0.4820  0.5619
 1538TIP3   OH2 4619   2.046   3.466   3.014 -0.2953 -0.4540  0.3669
 1538TIP3    H1 4620   2.029   3.559   3.026  1.1273  0.0503 -1.0660
 1538TIP3    H2 4621   2.141   3.457   3.027 -0.2677 -1.5214 -0.3978
 1539TIP3   OH2 4622   3.988   4.159   1.976  0.5870 -0.0592 -0.3847
 1539TIP3    H1 4623   3.905   4.192   1.941  0.1900 -1.5376 -0.9472
 1539TIP3    H2 4624   4.054   4.221   1.946 -0.3005  1.1466  0.0782
 1540TIP3   OH2 4625   4.657   0.400   4.720  0.5492  0.0058 -0.2667
 1540TIP3    H1 4626   4.564   0.379   4.716  0.7474 -0.9932 -0.0612
 1540TIP3    H2 4627   4.699   0.334   4.664  1.2854 -0.7576  1.1052
 1541TIP3   OH2 4628   3.215   1.274   2.349 -0.2790 -0.6002  0.2309
 1541TIP3    H1 4629   3.153   1.345   2.363 -0.8975 -0.5710 -2.2528
 1541TIP3    H2 4630   3.161   1.195   2.343  0.0906 -0.8095 -0.3524
 1542TIP3   OH2 4631   1.441   5.775   2.513 -0.2517  0.1499 -0.2032
 1542TIP3    H1 4632   1.425   5.747   2.422  1.3574 -0.2838 -0.3870
 1542TIP3    H2 4633   1.359   5.756   2.558 -0.7357 -0.6084 -1.3383
 1543TIP3   OH2 4634   5.089   5.823   4.446 -0.1467  0.1412 -0.2615
 1543TIP3    H1 4635   5.080   5.773   4.527 -0.9363  0.4896 -0.1292
 1543TIP3    H2 4636   5.138   5.901   4.471  2.2004 -1.0874 -0.7047
 1544TIP3   OH2 4637   3.861   1.372   0.109 -0.1293 -0.1717 -0.6014
 1544TIP3    H1 4638   3.823   1.286   0.090 -0.2228 -0.5847  1.2593
 1544TIP3    H2 4639   3.809   1.405   0.183  0.1726  1.3211 -1.0234
 1545TIP3   OH2 4640   1.740   3.648   4.743  0.6709  0.1297  0.7104
 1545TIP3    H1 4641   1.703   3.737   4.745 -1.3230 -0.6713  1.6054
 1545TIP3    H2 4642   1.690   3.603   4.676  2.2822 -0.1306 -0.3872
 1546TIP3   OH2 4643   3.993   0.812   3.442  0.0721  0.2133 -0.2117
 1546TIP3    H1 4644   4.044   0.886   3.474  2.4025 -1.0553 -0.7207
 1546TIP3    H2 4645   4.050   0.770   3.377 -0.5488 -2.7394  0.9733
 1547TIP3   OH2 4646   2.228   3.400   3.992 -1.0617 -1.1459 -0.1936
 1547TIP3    H1 4647   2.197   3.462   4.057 -1.3096 -1.1043 -0.3514
 1547TIP3    H2 4648   2.210   3.442   3.908  1.3355 -0.1676 -0.2988
 1548TIP3   OH2 4649   1.530   0.213   5.158  0.1480  0.2776 -0.2221
 1548TIP3    H1 4650   1.504   0.278   5.093  1.4731  0.2113 -0.8639
 1548TIP3    H2 4651   1.564   0.140   5.106 -1.0694 -0.8320  0.4964
 1549TIP3   OH2 4652   6.046   0.606   4.488  0.6926  0.0102 -0.0660
 1549TIP3    H1 4653   6.062   0.571   4.575 -0.8473 -1.0288 -0.1664
 1549TIP3    H2 4654   6.017   0.697   4.503 -0.3690 -0.4173  0.5908
 1550TIP3   OH2 4655   5.588   5.503   4.410  0.5066 -0.0528 -0.5003
 1550TIP3    H1 4656   5.493   5.492   4.401  0.3484  0.0311  0.9128
 1550TIP3    H2 4657   5.617   5.531   4.323 -1.2340  3.1779 -0.2000
 1551TIP3   OH2 4658   5.884   3.080   4.402  0.4496 -0.1813  0.3618
 1551TIP3    H1 4659   5.885   2.993   4.441 -0.2261 -0.4469 -0.1835
 1551TIP3    H2 4660   5.913   3.066   4.312  0.8623  0.2412  0.4286
 1552TIP3   OH2 4661   5.875   0.651   2.121 -0.4611  0.1975 -0.4213
 1552TIP3    H1 4662   5.904   0.742   2.118  1.0567 -0.1582  1.5930
 1552TIP3    H2 4663   5.824   0.645   2.202  2.0393 -1.3736  1.1542
 1553TIP3   OH2 4664   2.476   0.833   2.663  0.1570  0.4076  0.1414
 1553TIP3    H1 4665   2.419   0.898   2.622  0.2494  0.1474 -0.4061
 1553TIP3    H2 4666   2.469   0.756   2.607 -1.2883 -0.6717  1.6968
 1554TIP3   OH2 4667   1.386   1.466   4.063 -0.0594 -0.0138 -0.1600
 1554TIP3    H1 4668   1.295   1.456   4.089 -0.0444  2.5863  1.1421
 1554TIP3    H2 4669   1.430   1.389   4.100 -1.5878 -1.0749 -0.4483
 1555TIP3   OH2 4670   4.315   4.538   1.013  0.5114 -0.6184  0.5364
 1555TIP3    H1 4671   4.385   4.475   0.996  0.7479  0.0758 -1.2313
 1555TIP3    H2 4672   4.314   4.546   1.109  1.3325 -2.3052  0.7269
 1556TIP3   OH2 4673   2.393   2.349   0.993  0.0476 -0.1201  0.0672
 1556TIP3    H1 4674   2.452   2.301   1.051  0.6707  0.0777 -0.3923
 1556TIP3    H2 4675   2.306   2.323   1.021  0.2779  1.0613  2.0681
 1557TIP3   OH2 4676   1.767   5.934   0.604 -0.5175  0.2540  0.8040
 1557TIP3    H1 4677   1.700   5.889   0.552  0.2712  0.5570 -0.4869
 1557TIP3    H2 4678   1.833   5.867   0.620 -0.3618  0.3867  0.7118
 1558TIP3   OH2 4679   4.194   4.068   4.651 -0.5438 -0.1273  0.1133
 1558TIP3    H1 4680   4.271   4.078   4.706 -0.3126  0.9398 -0.3646
 1558TIP3    H2 4681   4.191   3.975   4.630  0.7173 -0.1717  0.0156
 1559TIP3   OH2 4682   0.150   1.232   1.519 -0.0756 -0.1833  0.3422
 1559TIP3    H1 4683   0.225   1.175   1.535  0.0908 -0.3850 -1.0445
 1559TIP3    H2 4684   0.084   1.202   1.582 -0.1418 -2.2110 -0.5951
 1560TIP3   OH2 4685   3.959   1.071   4.921  0.4222 -0.1022 -0.3233
 1560TIP3    H1 4686   4.018   1.091   4.848 -1.6848  1.1865 -1.8111
 1560TIP3    H2 4687   3.964   0.976   4.930  0.8711 -0.2894 -2.0965
 1561TIP3   OH2 4688   5.298   1.395   1.594  0.1386 -0.2499  0.1102
 1561TIP3    H1 4689   5.310   1.301   1.584 -0.1095 -0.2278 -0.4808
 1561TIP3    H2 4690   5.265   1.424   1.508  0.2302  0.3741  0.2790
 1562TIP3   OH2 4691   1.155   3.257   3.832 -0.1250 -0.1250 -0.0471
 1562TIP3    H1 4692   1.236   3.223   3.870 -0.3007 -1.1428 -0.5473
 1562TIP3    H2 4693   1.094   3.265   3.905  0.1329 -0.2446  0.1792
 1563TIP3   OH2 4694   6.078   2.604   1.939  0.0316  0.1022  1.1425
 1563TIP3    H1 4695   6.029   2.673   1.983 -0.7266  0.4162 -0.1214
 1563TIP3    H2 4696   6.044   2.604   1.849  2.2803  0.2478  0.2248
 1564TIP3   OH2 4697   5.208   0.809   0.257  0.2118  0.1720  0.2275
 1564TIP3    H1 4698   5.297   0.835   0.281  0.5608 -1.3296  0.6636
 1564TIP3    H2 4699   5.155   0.887   0.275  1.2819  0.7708  0.9049
 1565TIP3   OH2 4700   2.418   3.550   2.776  0.1973  0.3926 -0.1686
 1565TIP3    H1 4701   2.501   3.593   2.798  0.4078 -0.1230  0.0551
 1565TIP3    H2 4702   2.430   3.459   2.804 -1.0923  0.6977  1.5959
 1566TIP3   OH2 4703   0.337   2.256   1.725 -0.1451 -0.0858  0.0763
 1566TIP3    H1 4704   0.305   2.166   1.723  2.4174 -1.0843 -0.1286
 1566TIP3    H2 4705   0.335   2.284   1.633  0.3449 -0.4862 -0.0685
 1567TIP3   OH2 4706   0.807   2.887   1.710 -0.2329 -0.6107  0.3612
 1567TIP3    H1 4707   0.759   2.820   1.662 -0.3698 -0.6085  0.4935
 1567TIP3    H2 4708   0.743   2.958   1.722  0.3030  0.1412 -0.9895
 1568TIP3   OH2 4709   0.170   0.410   0.755 -0.5072 -0.5901 -0.0143
 1568TIP3    H1 4710   0.169   0.469   0.680  1.0764  2.4843  2.1200
 1568TIP3    H2 4711   0.263   0.390   0.768 -0.8238 -1.6977  0.7079
 1569TIP3   OH2 4712   0.575   2.403   3.345  0.0254  0.1616  0.5359
 1569TIP3    H1 4713   0.592   2.309   3.353 -1.0851 -0.0579  0.3703
 1569TIP3    H2 4714   0.598   2.423   3.254 -2.7458 -0.6238 -0.4201
 1570TIP3   OH2 4715   3.629   1.412   4.064 -0.1261  0.3983 -0.1859
 1570TIP3    H1 4716   3.619   1.453   3.979  0.7369 -0.1088 -0.5474
 1570TIP3    H2 4717   3.647   1.320   4.045  0.5049  0.3593  0.5183
 1571TIP3   OH2 4718   1.607   5.034   3.928  0.4068 -0.3323 -0.1574
 1571TIP3    H1 4719   1.644   5.061   3.844  0.8326 -1.2199 -0.2564
 1571TIP3    H2 4720   1.681   5.032   3.988  0.1222  0.1897  0.2234
 1572TIP3   OH2 4721   1.852   4.429   3.141 -0.5368  0.0028 -0.4734
 1572TIP3    H1 4722   1.896   4.354   3.101  1.1637  0.9244 -0.4097
 1572TIP3    H2 4723   1.840   4.491   3.069  0.0866  0.5620 -0.1085
 1573TIP3   OH2 4724   1.267   4.975   2.840  0.3835 -0.1661 -0.1055
 1573TIP3    H1 4725   1.233   4.925   2.914 -0.2527 -2.1187 -1.6074
 1573TIP3    H2 4726   1.231   5.063   2.851 -2.8968 -1.3744 -0.0660
 1574TIP3   OH2 4727   6.106   5.039   2.888  0.0719  0.1715 -0.0721
 1574TIP3    H1 4728   6.131   4.954   2.851 -1.3837 -1.0798  1.6285
 1574TIP3    H2 4729   6.011   5.044   2.874  0.1740  1.6462 -0.3635
 1575TIP3   OH2 4730   0.925   5.327   4.807 -0.7865  0.1276  0.2578
 1575TIP3    H1 4731   0.974   5.246   4.792 -2.0136 -0.6757  0.4413
 1575TIP3    H2 4732   0.991   5.391   4.834  0.0635 -1.1091  1.1752
 1576TIP3   OH2 4733   4.546   1.969   1.093  0.3812  0.4853 -0.4314
 1576TIP3    H1 4734   4.528   1.879   1.120  1.4691  0.2683 -0.3628
 1576TIP3    H2 4735   4.465   2.017   1.109 -0.0852 -0.4037 -0.1098
 1577TIP3   OH2 4736   1.193   3.487   1.895  0.5830  0.4788  0.5418
 1577TIP3    H1 4737   1.248   3.411   1.876 -0.9500 -0.5343 -0.0699
 1577TIP3    H2 4738   1.204   3.544   1.819 -0.2030 -0.3443 -0.2160
 1578TIP3   OH2 4739   3.300   3.659   3.260 -0.0263  0.4114  0.4925
 1578TIP3    H1 4740   3.319   3.752   3.275 -0.1121  0.5606 -0.2864
 1578TIP3    H2 4741   3.361   3.633   3.191 -0.8814  0.2319 -0.2160
 1579TIP3   OH2 4742   5.888   2.765   0.572 -0.0889  0.3338  0.9151
 1579TIP3    H1 4743   5.923   2.797   0.655 -0.0071 -1.0143  1.4328
 1579TIP3    H2 4744   5.854   2.677   0.593  0.0434 -0.0789 -0.5049
 1580TIP3   OH2 4745   3.048   5.732   0.863  0.4850  0.1236 -0.1747
 1580TIP3    H1 4746   2.972   5.778   0.899  0.9687  0.1446  0.8372
 1580TIP3    H2 4747   3.065   5.661   0.925 -1.4476 -2.7461 -2.6389
 1581TIP3   OH2 4748   3.856   2.635   1.174  0.7799 -0.0221  0.0807
 1581TIP3    H1 4749   3.892   2.694   1.241  2.0068  0.1917 -0.7325
 1581TIP3    H2 4750   3.859   2.687   1.093  1.3973 -1.0179 -0.5501
 1582TIP3   OH2 4751   3.502   0.432   2.363  0.2389  0.2289  0.5178
 1582TIP3    H1 4752   3.590   0.427   2.327 -1.1697 -1.3786 -3.2150
 1582TIP3    H2 4753   3.473   0.341   2.368 -1.3186  0.7369  1.3901
 1583TIP3   OH2 4754   1.911   3.258   2.464  0.4026  0.5435  0.0827
 1583TIP3    H1 4755   1.951   3.172   2.481 -0.4234  0.3969  1.3578
 1583TIP3    H2 4756   1.975   3.321   2.497  0.5695  0.3870  0.0616
 1584TIP3   OH2 4757   3.078   5.173   5.052  0.5466  0.1595  0.0457
 1584TIP3    H1 4758   3.129   5.199   5.128 -0.1040  0.6468  0.3143
 1584TIP3    H2 4759   3.024   5.100   5.083 -0.5001  1.0472  0.3486
 1585TIP3   OH2 4760   3.611   2.537   2.229  0.1041 -0.0337  0.0862
 1585TIP3    H1 4761   3.566   2.481   2.166  1.8870  0.2184 -1.4677
 1585TIP3    H2 4762   3.671   2.478   2.275  0.1648  0.1287  0.2150
 1586TIP3   OH2 4763   4.897   5.121   0.982 -0.3273 -0.3131  0.1220
 1586TIP3    H1 4764   4.837   5.049   0.964 -0.2464 -0.3429 -0.0246
 1586TIP3    H2 4765   4.984   5.087   0.961 -0.1448 -0.5976  1.2678
 1587TIP3   OH2 4766   2.382   1.229   1.336  0.0881  0.3812 -0.1592
 1587TIP3    H1 4767   2.294   1.209   1.304  0.1035  0.6653 -0.3750
 1587TIP3    H2 4768   2.440   1.209   1.263  0.5095 -2.3916  0.7817
 1588TIP3   OH2 4769   5.080   0.268   3.628 -0.0044  0.1255 -0.2878
 1588TIP3    H1 4770   5.153   0.319   3.663  0.6852 -0.8777 -0.2172
 1588TIP3    H2 4771   5.061   0.308   3.543 -0.0169  0.9973  0.1260
 1589TIP3   OH2 4772   2.456   0.970   1.495 -0.0883 -0.0898  0.4291
 1589TIP3    H1 4773   2.407   1.041   1.455  0.0365 -0.1765  0.1172
 1589TIP3    H2 4774   2.548   0.991   1.479  0.0398  0.5681  1.8473
 1590TIP3   OH2 4775   1.859   5.704   2.545 -0.3597  0.1605  0.2287
 1590TIP3    H1 4776   1.937   5.722   2.597 -0.1294  1.1351 -0.4245
 1590TIP3    H2 4777   1.824   5.622   2.581  1.1727 -0.5083  0.2826
 1591TIP3   OH2 4778   3.055   3.940   0.603  0.3155  0.0449 -0.1259
 1591TIP3    H1 4779   3.102   4.007   0.653  0.0270  1.0107 -1.1049
 1591TIP3    H2 4780   2.975   3.984   0.574  0.0979 -0.7473 -0.7574
 1592TIP3   OH2 4781   6.295   1.319   2.289 -0.2965 -0.0326  0.1909
 1592TIP3    H1 4782   6.354   1.370   2.234  1.0567 -0.9789  0.7085
 1592TIP3    H2 4783   6.338   1.315   2.374 -0.4108 -1.8933  0.2082
 1593TIP3   OH2 4784   4.333   0.948   2.394 -0.4765  0.1653 -0.1965
 1593TIP3    H1 4785   4.359   0.881   2.330 -0.3780 -0.1481  0.1633
 1593TIP3    H2 4786   4.386   0.929   2.471  0.3436  1.3331 -0.4460
 1594TIP3   OH2 4787   0.031   4.689   3.187 -0.1671 -0.0068  0.6667
 1594TIP3    H1 4788   0.108   4.636   3.207 -0.2264 -0.0916  0.6715
 1594TIP3    H2 4789  -0.018   4.691   3.269  1.0859  2.1781  1.4424
 1595TIP3   OH2 4790   5.132   2.884   3.375 -0.2020  0.5180 -0.5870
 1595TIP3    H1 4791   5.126   2.887   3.279 -1.8856  0.9857 -0.5024
 1595TIP3    H2 4792   5.107   2.972   3.403 -0.0971  0.2734  0.3009
 1596TIP3   OH2 4793   0.741   4.870   3.629 -0.2783 -0.1333  0.7885
 1596TIP3    H1 4794   0.807   4.887   3.562 -0.0982  0.1871  1.0489
 1596TIP3    H2 4795   0.682   4.945   3.625 -0.8553 -0.5959  0.2944
 1597TIP3   OH2 4796   5.664   1.394   0.928 -0.2548  0.2638  0.0518
 1597TIP3    H1 4797   5.726   1.346   0.982  1.1592  1.6723 -0.2226
 1597TIP3    H2 4798   5.618   1.452   0.989 -0.6719 -0.1590  0.1368
 1598TIP3   OH2 4799   4.036   5.740   3.475  0.0716  0.2190 -0.5339
 1598TIP3    H1 4800   4.068   5.663   3.428  1.0152  1.3755 -1.8553
 1598TIP3    H2 4801   4.006   5.800   3.407  0.3135  1.4366  0.3803
 1599TIP3   OH2 4802   4.152   4.067   3.933  0.9024 -0.2286 -0.5198
 1599TIP3    H1 4803   4.148   3.972   3.928 -0.0424 -0.1509 -1.7270
 1599TIP3    H2 4804   4.196   4.094   3.852  0.2248  0.4011 -0.6893
 1600TIP3   OH2 4805   1.633   0.167   0.249  0.9422 -0.1957 -0.0382
 1600TIP3    H1 4806   1.650   0.260   0.236 -0.7653  0.4403  1.9244
 1600TIP3    H2 4807   1.665   0.148   0.337  3.3881 -2.0938 -1.1873
 1601TIP3   OH2 4808   3.031   3.345   0.949 -0.0767 -0.6492  0.0760
 1601TIP3    H1 4809   3.020   3.250   0.939  1.2428 -0.7646 -0.6245
 1601TIP3    H2 4810   2.950   3.382   0.915  0.2536 -1.4764 -1.7933
 1602TIP3   OH2 4811   4.835   1.491   5.121 -0.0096 -0.0993  0.5515
 1602TIP3    H1 4812   4.915   1.520   5.164  1.0349  1.4932 -2.2476
 1602TIP3    H2 4813   4.765   1.535   5.169  1.0566  1.3899  0.8060
 1603TIP3   OH2 4814   0.633   5.112   2.851  0.0051 -0.3363 -0.0111
 1603TIP3    H1 4815   0.722   5.079   2.839  0.1903  0.1889 -0.0968
 1603TIP3    H2 4816   0.578   5.050   2.804  0.4461  0.0810 -1.1000
 1604TIP3   OH2 4817   4.639   1.515   1.859  0.2441  0.3988  0.2967
 1604TIP3    H1 4818   4.568   1.454   1.876  1.3172 -1.1080 -0.4505
 1604TIP3    H2 4819   4.709   1.488   1.920  0.7332  0.8687 -0.0459
 1605TIP3   OH2 4820   5.748   0.123   0.733 -0.2519  0.2077 -0.1647
 1605TIP3    H1 4821   5.712   0.048   0.686  1.1945 -0.3032 -0.5161
 1605TIP3    H2 4822   5.755   0.192   0.667  1.4569 -0.4025 -0.6836
 1606TIP3   OH2 4823   6.040   5.023   0.382 -0.4777 -0.2777 -0.2739
 1606TIP3    H1 4824   6.061   4.978   0.464  1.6422 -0.9397 -1.1104
 1606TIP3    H2 4825   6.002   4.956   0.326  0.9725 -0.6282 -0.8800
 1607TIP3   OH2 4826   5.777   0.316   1.930 -0.0408 -0.0910  0.0032
 1607TIP3    H1 4827   5.765   0.303   2.024 -0.6406 -1.2981 -0.2156
 1607TIP3    H2 4828   5.708   0.263   1.890 -1.8798  2.9057 -1.0954
 1608TIP3   OH2 4829   1.325   2.242   3.818  0.3942 -0.2052  0.6898
 1608TIP3    H1 4830   1.393   2.191   3.864 -0.8289 -2.0545  0.5432
 1608TIP3    H2 4831   1.291   2.182   3.752 -0.1577  1.3123 -0.4405
 1609TIP3   OH2 4832   2.641   5.730   0.873 -0.2601  0.2427  0.6082
 1609TIP3    H1 4833   2.692   5.757   0.797 -0.7511 -0.0188  0.1809
 1609TIP3    H2 4834   2.631   5.635   0.863  0.0314  0.1386  1.2241
 1610TIP3   OH2 4835   2.215   4.930   2.465  0.0856 -0.0592 -0.3430
 1610TIP3    H1 4836   2.227   4.874   2.389  1.4733  0.0141 -0.2008
 1610TIP3    H2 4837   2.298   4.926   2.511 -0.3198  0.8808  0.5090
 1611TIP3   OH2 4838   4.636   2.373   4.536 -0.1770 -0.7894 -0.1850
 1611TIP3    H1 4839   4.730   2.359   4.546 -0.1436 -0.9079 -0.6320
 1611TIP3    H2 4840   4.628   2.464   4.509 -0.2355 -0.6075  0.4175
 1612TIP3   OH2 4841   2.490   5.457   0.770  0.3484 -0.6271  0.0671
 1612TIP3    H1 4842   2.413   5.425   0.817 -0.1788 -0.9367 -0.9768
 1612TIP3    H2 4843   2.460   5.536   0.725  0.8472 -0.3284  0.2525
 1613TIP3   OH2 4844   3.774   2.763   4.617 -0.9323 -0.2575  0.5955
 1613TIP3    H1 4845   3.775   2.734   4.526  0.1436  0.5618  0.3320
 1613TIP3    H2 4846   3.736   2.690   4.665 -0.5673 -1.1019 -0.3743
 1614TIP3   OH2 4847   4.505   5.356   0.148  0.3282 -0.4670  0.1873
 1614TIP3    H1 4848   4.584   5.389   0.191  0.0625 -1.6989  1.7051
 1614TIP3    H2 4849   4.482   5.277   0.197 -1.4483 -0.5261 -0.6591
 1615TIP3   OH2 4850   3.541   1.801   0.469 -0.2780  0.3549  0.0531
 1615TIP3    H1 4851   3.554   1.708   0.489 -3.3873 -0.0148  0.7905
 1615TIP3    H2 4852   3.556   1.807   0.374  0.2703 -0.8045  0.0408
 1616TIP3   OH2 4853   4.989   4.073   5.003 -0.1790  0.2005  0.2033
 1616TIP3    H1 4854   4.982   4.168   4.994  1.1814  0.3148  0.1684
 1616TIP3    H2 4855   5.067   4.060   5.057  0.3545 -0.9184 -0.7904
 1617TIP3   OH2 4856   2.309   1.383   2.168 -0.2539 -0.4512  0.5954
 1617TIP3    H1 4857   2.381   1.335   2.128 -0.8368 -1.4101  0.6582
 1617TIP3    H2 4858   2.303   1.349   2.257 -0.3226  0.1478  0.8278
 1618TIP3   OH2 4859   6.215   2.549   2.650 -0.1051  0.3656  0.2309
 1618TIP3    H1 4860   6.155   2.491   2.602  0.3994  0.3409 -0.3715
 1618TIP3    H2 4861   6.252   2.493   2.718  0.9455 -0.2464 -0.8106
 1619TIP3   OH2 4862   5.445   3.722   2.422 -0.0737  0.2272  1.0150
 1619TIP3    H1 4863   5.387   3.777   2.475 -0.5092  0.6078  0.1600
 1619TIP3    H2 4864   5.517   3.780   2.398  0.0940  0.0710  1.1419
 1620TIP3   OH2 4865   2.222   1.085   4.685 -0.0122 -0.1947 -0.0822
 1620TIP3    H1 4866   2.214   1.169   4.641  1.4586 -0.9266 -1.8851
 1620TIP3    H2 4867   2.316   1.069   4.689 -0.2647 -1.9911 -0.2858
 1621TIP3   OH2 4868   0.751   5.909   1.707 -0.7740 -0.1615 -0.4418
 1621TIP3    H1 4869   0.834   5.912   1.658 -1.5067 -0.5010 -1.7367
 1621TIP3    H2 4870   0.766   5.844   1.775  0.1787  0.1119 -0.3773
 1622TIP3   OH2 4871   4.434   1.919   0.796  0.5476 -0.2030  0.2995
 1622TIP3    H1 4872   4.393   1.873   0.870 -0.8289  0.5222  0.0156
 1622TIP3    H2 4873   4.467   1.849   0.739 -1.8409 -0.8967 -0.3164
 1623TIP3   OH2 4874   3.913   2.363   2.727 -0.0990  0.5482  0.7002
 1623TIP3    H1 4875   3.890   2.279   2.767 -0.5615 -0.6886 -1.9238
 1623TIP3    H2 4876   3.908   2.426   2.799 -0.6608 -1.4995  2.5743
 1624TIP3   OH2 4877   0.414   4.069   4.922  0.2748  0.0746 -0.4220
 1624TIP3    H1 4878   0.457   4.154   4.916  3.2325 -1.2521 -0.0249
 1624TIP3    H2 4879   0.450   4.019   4.849 -0.4437 -1.2010  0.0671
 1625TIP3   OH2 4880   2.256   3.731   4.322  0.1039 -1.2641  0.1067
 1625TIP3    H1 4881   2.316   3.660   4.298 -1.9863 -3.3786  0.7353
 1625TIP3    H2 4882   2.206   3.696   4.397 -2.3848  0.0328 -0.8194
 1626TIP3   OH2 4883   3.594   4.156   3.049 -0.6505  0.0660 -0.0288
 1626TIP3    H1 4884   3.567   4.064   3.042 -1.0740  0.1276  0.7200
 1626TIP3    H2 4885   3.600   4.173   3.143 -0.4444  0.7717 -0.1612
 1627TIP3   OH2 4886   1.502   1.756   0.177 -0.2475  0.1894 -0.1994
 1627TIP3    H1 4887   1.586   1.799   0.192 -0.8712  1.4422 -0.1553
 1627TIP3    H2 4888   1.447   1.784   0.250  0.0715 -2.8874  1.4162
 1628TIP3   OH2 4889   3.329   5.347   2.619  0.2474  0.8534 -0.5499
 1628TIP3    H1 4890   3.271   5.317   2.549 -0.8141  0.0142  0.6383
 1628TIP3    H2 4891   3.389   5.408   2.576  0.9239 -1.1020 -2.5966
 1629TIP3   OH2 4892   5.094   1.436   1.294 -0.4043  0.1571  0.4812
 1629TIP3    H1 4893   5.071   1.405   1.207 -0.6824  1.0913  0.2097
 1629TIP3    H2 4894   5.149   1.513   1.279  0.7187 -0.4892  1.1372
 1630TIP3   OH2 4895   2.796   1.560   4.177 -0.1186  0.1258  0.7013
 1630TIP3    H1 4896   2.703   1.538   4.177  0.1513 -1.1613 -0.5545
 1630TIP3    H2 4897   2.800   1.650   4.210 -1.9544  0.7823 -0.7151
 1631TIP3   OH2 4898   2.353   3.625   1.064 -0.5813 -0.2139  0.7174
 1631TIP3    H1 4899   2.260   3.647   1.074 -0.1611  1.6420  0.9258
 1631TIP3    H2 4900   2.358   3.581   0.979 -1.3987  1.4243 -0.2178
 1632TIP3   OH2 4901   0.919   3.014   2.643  0.0220  0.1729 -0.4476
 1632TIP3    H1 4902   0.951   3.043   2.558 -0.4987 -1.0618 -1.1049
 1632TIP3    H2 4903   0.869   3.088   2.677 -1.3866  0.0582 -2.1182
 1633TIP3   OH2 4904   5.460  -0.007   4.358 -0.3246 -0.0762  0.6355
 1633TIP3    H1 4905   5.500  -0.050   4.434 -0.0437 -0.9243  0.0271
 1633TIP3    H2 4906   5.476   0.086   4.371  1.7051 -0.3695  0.5147
 1634TIP3   OH2 4907   0.545   0.725   0.909 -0.1422 -0.3728  0.3708
 1634TIP3    H1 4908   0.617   0.786   0.894 -0.3134 -0.2107  0.2084
 1634TIP3    H2 4909   0.514   0.703   0.822  0.6012 -1.5189  0.3667
 1635TIP3   OH2 4910   5.398   1.740   4.029  0.5053 -0.3920  0.3409
 1635TIP3    H1 4911   5.309   1.726   3.996  0.3735 -0.0911  0.5669
 1635TIP3    H2 4912   5.453   1.690   3.968  0.1729 -0.6996  0.2837
 1636TIP3   OH2 4913   0.555   4.270   1.954 -0.0507 -0.2744  0.0336
 1636TIP3    H1 4914   0.586   4.351   1.994 -0.2455 -0.2853  0.2062
 1636TIP3    H2 4915   0.478   4.296   1.903  0.2115 -0.2564 -0.3554
 1637TIP3   OH2 4916   4.076   5.427   3.595  0.1943 -0.4746  0.2372
 1637TIP3    H1 4917   4.111   5.424   3.505  0.7609 -2.5362  0.4828
 1637TIP3    H2 4918   4.001   5.369   3.593 -0.8045  0.7546  0.7399
 1638TIP3   OH2 4919   4.621   1.826   3.225  0.2669  0.0109  0.1760
 1638TIP3    H1 4920   4.545   1.881   3.206 -0.1226  0.2433  2.1454
 1638TIP3    H2 4921   4.666   1.871   3.296  1.3228 -0.9764  0.1696
 1639TIP3   OH2 4922   3.096   2.545   1.676 -0.2406 -0.1438 -0.1277
 1639TIP3    H1 4923   3.032   2.579   1.739  0.4007  1.5339 -0.3305
 1639TIP3    H2 4924   3.043   2.512   1.603 -0.9144  0.0753  0.2541
 1640TIP3   OH2 4925   4.885   5.182   1.337 -0.2678  0.1974 -0.0345
 1640TIP3    H1 4926   4.947   5.174   1.264 -0.4515  0.7900 -0.2629
 1640TIP3    H2 4927   4.800   5.194   1.295 -0.3240  0.9010  0.2754
 1641TIP3   OH2 4928   1.856   4.153   0.876 -0.4306  0.0971  0.3410
 1641TIP3    H1 4929   1.800   4.231   0.878 -0.2632  0.4428 -2.8668
 1641TIP3    H2 4930   1.804   4.085   0.920 -2.2624  1.0749 -0.2112
 1642TIP3   OH2 4931   5.584   4.275   2.574 -0.1101  0.1999  0.2829
 1642TIP3    H1 4932   5.525   4.202   2.591 -0.0312  0.7180  3.3292
 1642TIP3    H2 4933   5.672   4.241   2.592 -0.1163  1.1066  2.2555
 1643TIP3   OH2 4934   2.083   5.045   3.028  0.1805 -0.3993 -0.3966
 1643TIP3    H1 4935   2.162   5.098   3.028  0.6886 -1.0991  1.2926
 1643TIP3    H2 4936   2.033   5.076   2.952  0.8383  1.8724  0.0355
 1644TIP3   OH2 4937   3.224   5.685   2.940  0.7014  0.1290 -0.6604
 1644TIP3    H1 4938   3.161   5.648   2.877  0.5611  1.2376 -1.1991
 1644TIP3    H2 4939   3.170   5.737   3.000  1.0830  1.0475 -1.0935
 1645TIP3   OH2 4940   6.361   2.618   1.644 -0.0614  0.0092 -0.1786
 1645TIP3    H1 4941   6.376   2.668   1.564  1.4025  1.8571  1.1749
 1645TIP3    H2 4942   6.289   2.559   1.622 -1.3055  2.0994 -2.1499
 1646TIP3   OH2 4943   0.617   1.395   2.380 -0.2742  0.1023  0.4470
 1646TIP3    H1 4944   0.656   1.341   2.311 -1.7413  0.6177 -0.8395
 1646TIP3    H2 4945   0.528   1.361   2.391 -0.6188  1.0874  0.8901
 1647TIP3   OH2 4946   6.093   1.652   4.089  0.1238  0.5296 -0.3953
 1647TIP3    H1 4947   6.163   1.696   4.041  1.7138  0.5834  1.8201
 1647TIP3    H2 4948   6.015   1.705   4.072  0.9036  1.2992 -1.7732
 1648TIP3   OH2 4949   1.665   3.967   1.764 -0.2200  0.2358  0.0205
 1648TIP3    H1 4950   1.601   3.930   1.825 -2.7500  2.7501 -0.8690
 1648TIP3    H2 4951   1.647   3.922   1.681 -1.1542  1.1814 -0.3129
 1649TIP3   OH2 4952   1.862   0.770   4.108  0.3874 -0.3341 -0.0028
 1649TIP3    H1 4953   1.848   0.732   4.022 -1.4207 -0.5056  0.3230
 1649TIP3    H2 4954   1.813   0.853   4.106  1.0534  0.0796  0.5653
 1650TIP3   OH2 4955   0.194   4.157   0.133  0.2280  0.2190 -1.0402
 1650TIP3    H1 4956   0.174   4.124   0.046 -0.0216 -1.0902 -0.5134
 1650TIP3    H2 4957   0.245   4.237   0.118 -0.5493  0.4962 -2.3748
 1651TIP3   OH2 4958   3.861   3.583   0.466 -0.3326 -0.1065  0.5098
 1651TIP3    H1 4959   3.769   3.563   0.452 -0.8500  1.4738  1.3341
 1651TIP3    H2 4960   3.875   3.570   0.560 -0.0662  0.8910  0.6203
 1652TIP3   OH2 4961   3.341   2.336   2.919 -0.2568  0.1870  0.0216
 1652TIP3    H1 4962   3.301   2.368   3.000 -0.6285 -0.1213 -0.0412
 1652TIP3    H2 4963   3.332   2.241   2.923  1.0591  0.0431  0.3231
 1653TIP3   OH2 4964   2.754   2.509   2.568 -0.2493 -0.7540 -0.2179
 1653TIP3    H1 4965   2.815   2.451   2.523  1.2472  1.1067 -0.7238
 1653TIP3    H2 4966   2.795   2.595   2.563 -1.7998  0.1587  1.5524
 1654TIP3   OH2 4967   5.965   2.511   3.571 -0.3047 -0.0650  0.3911
 1654TIP3    H1 4968   5.955   2.424   3.530  0.7931  0.6632 -1.5797
 1654TIP3    H2 4969   5.876   2.539   3.590 -0.6879 -1.5741  1.0012
 1655TIP3   OH2 4970   1.431   4.736   2.757 -0.0960 -0.2588 -0.0478
 1655TIP3    H1 4971   1.438   4.766   2.666  0.5888 -1.2213 -0.3324
 1655TIP3    H2 4972   1.454   4.812   2.810  1.4492 -0.2151 -0.7352
 1656TIP3   OH2 4973   4.846   5.393   2.650 -0.5347  0.0972  0.4243
 1656TIP3    H1 4974   4.904   5.453   2.603 -1.2166 -0.1873 -0.8190
 1656TIP3    H2 4975   4.896   5.367   2.727  1.2001 -0.4920 -0.8290
 1657TIP3   OH2 4976   2.223   0.966   3.627 -0.2149  0.0158  0.3881
 1657TIP3    H1 4977   2.155   0.961   3.695 -0.6755 -1.3645 -0.1474
 1657TIP3    H2 4978   2.180   0.937   3.547  1.0249 -0.9816  0.0510
 1658TIP3   OH2 4979   1.840   3.121   0.213  0.1611 -0.2300  0.2897
 1658TIP3    H1 4980   1.836   3.169   0.130  2.3224 -0.5137 -0.0562
 1658TIP3    H2 4981   1.797   3.179   0.276 -0.4598  0.5289 -0.7927
 1659TIP3   OH2 4982   0.176   4.938   1.786  0.4277 -0.3605  0.1623
 1659TIP3    H1 4983   0.193   4.845   1.797  1.8024 -0.1219  0.2115
 1659TIP3    H2 4984   0.234   4.981   1.849 -1.8526  0.4803  1.8301
 1660TIP3   OH2 4985   2.228   0.883   4.483 -0.1698 -0.6135  0.2803
 1660TIP3    H1 4986   2.156   0.896   4.421 -0.6367 -2.2361  0.4312
 1660TIP3    H2 4987   2.205   0.938   4.558 -0.3045  0.2968 -0.4107
 1661TIP3   OH2 4988   3.703   1.986   0.199 -0.0106 -0.0610 -0.0413
 1661TIP3    H1 4989   3.733   2.058   0.254 -0.0199  0.1830 -0.3473
 1661TIP3    H2 4990   3.610   2.003   0.184 -0.1559 -0.4700  0.3843
 1662TIP3   OH2 4991   4.664   3.279   1.165 -0.4822 -0.1705 -0.1948
 1662TIP3    H1 4992   4.695   3.276   1.074 -1.4083  0.4944 -0.5436
 1662TIP3    H2 4993   4.744   3.285   1.217  0.1649 -2.3080 -0.8403
 1663TIP3   OH2 4994   6.236   1.916   4.712 -0.4931 -0.3404  0.1365
 1663TIP3    H1 4995   6.273   1.837   4.672 -1.6372 -0.5463 -0.5710
 1663TIP3    H2 4996   6.201   1.966   4.638 -0.0604  0.6892  0.6108
 1664TIP3   OH2 4997   5.483   1.045   1.298  0.5478 -0.2672 -0.4078
 1664TIP3    H1 4998   5.532   1.004   1.370 -0.1409 -2.4782 -1.1070
 1664TIP3    H2 4999   5.397   1.063   1.334  0.1945 -1.3999 -0.6509
 1665TIP3   OH2 5000   4.612   4.332   0.446 -0.0477  0.2093  0.7653
 1665TIP3    H1 5001   4.700   4.360   0.472  0.0864  2.9139 -2.0097
 1665TIP3    H2 5002   4.557   4.353   0.522  1.2879  1.1533  1.5228
 1666TIP3   OH2 5003   2.196   3.417   2.067 -0.6725 -0.0745  0.3035
 1666TIP3    H1 5004   2.249   3.494   2.046 -1.3812  0.4682  0.4513
 1666TIP3    H2 5005   2.246   3.371   2.134 -1.7302  2.0335  2.7012
 1667TIP3   OH2 5006   1.204   1.322   5.082  0.2591 -0.1906 -0.0531
 1667TIP3    H1 5007   1.154   1.393   5.123  1.2065  1.2515 -1.3092
 1667TIP3    H2 5008   1.294   1.354   5.081  0.6875 -1.3934 -0.7249
 1668TIP3   OH2 5009   5.712   2.049   0.991 -0.3208  0.2128  0.0800
 1668TIP3    H1 5010   5.635   2.030   1.044  0.7307 -0.2792  1.5007
 1668TIP3    H2 5011   5.785   2.009   1.040  0.6933 -0.3450 -1.7954
 1669TIP3   OH2 5012   4.795   2.039   0.968 -0.6030 -0.0058 -0.0575
 1669TIP3    H1 5013   4.812   2.044   0.874 -0.3533  2.0175  0.0479
 1669TIP3    H2 5014   4.712   1.992   0.975 -2.5487  2.8821 -1.6077
 1670TIP3   OH2 5015   4.264   4.006   1.696 -0.8437  0.4824  0.5132
 1670TIP3    H1 5016   4.290   3.973   1.783 -0.7858 -0.2627  0.2241
 1670TIP3    H2 5017   4.168   4.004   1.699 -0.8475 -0.4065  0.2609
 1671TIP3   OH2 5018   3.803   2.053   1.768  0.1508  0.1740 -0.0209
 1671TIP3    H1 5019   3.872   2.017   1.713  0.2770 -0.6526  0.6508
 1671TIP3    H2 5020   3.764   2.123   1.716  1.0345  0.1893 -0.6796
 1672TIP3   OH2 5021   1.060   1.608   2.175 -0.4858 -0.7203 -0.0176
 1672TIP3    H1 5022   0.984   1.567   2.217 -1.0718  0.6353  0.3087
 1672TIP3    H2 5023   1.079   1.684   2.230 -1.9903  1.8102 -2.7005
 1673TIP3   OH2 5024   1.754   0.861   2.897 -0.1069  0.0215  0.6540
 1673TIP3    H1 5025   1.778   0.863   2.990 -0.9643  0.5595  0.8724
 1673TIP3    H2 5026   1.767   0.770   2.871 -1.3634 -0.4995  1.7148
 1674TIP3   OH2 5027   4.512   2.798   2.832  0.5785  0.4768  0.0615
 1674TIP3    H1 5028   4.459   2.726   2.797  1.9761 -0.0102 -1.1588
 1674TIP3    H2 5029   4.588   2.755   2.870  0.1670  1.1680  1.8036
 1675TIP3   OH2 5030   4.907   5.660   2.282  0.1289 -0.4161  0.3961
 1675TIP3    H1 5031   4.870   5.626   2.201 -1.4561  0.0319  0.8946
 1675TIP3    H2 5032   4.980   5.715   2.254 -1.6085  1.3434 -0.9260
 1676TIP3   OH2 5033   0.942   3.488   3.156  0.6079  0.3720  0.4749
 1676TIP3    H1 5034   1.016   3.427   3.159 -0.2510 -0.6884  2.8840
 1676TIP3    H2 5035   0.983   3.574   3.156  1.8403 -0.1736 -0.5037
 1677TIP3   OH2 5036   4.479   3.693   5.144  0.8362  0.1838 -0.4301
 1677TIP3    H1 5037   4.574   3.695   5.156  0.7883  1.9921 -0.0882
 1677TIP3    H2 5038   4.467   3.703   5.050  1.0100  3.3937 -0.2321
 1678TIP3   OH2 5039   2.655   5.662   4.168  0.0426  0.8211 -0.2129
 1678TIP3    H1 5040   2.724   5.618   4.217 -0.6674 -0.0622  0.0286
 1678TIP3    H2 5041   2.700   5.709   4.099  1.0542  1.9021  1.1407
 1679TIP3   OH2 5042   4.835   3.793   4.708 -0.4388  0.3782 -0.0825
 1679TIP3    H1 5043   4.756   3.762   4.750  0.5100 -1.9196  0.1265
 1679TIP3    H2 5044   4.905   3.773   4.770  0.5285  0.6094 -1.0612
 1680TIP3   OH2 5045   3.815   4.869   3.939  0.0472  0.1190  0.1665
 1680TIP3    H1 5046   3.838   4.924   4.013  0.1699 -1.1580  1.0984
 1680TIP3    H2 5047   3.847   4.918   3.862  0.6550  1.0642  0.9958
 1681TIP3   OH2 5048   4.383   2.686   0.802 -0.6133  0.3984 -0.1870
 1681TIP3    H1 5049   4.312   2.750   0.798 -1.8102 -0.7561  1.3530
 1681TIP3    H2 5050   4.388   2.660   0.894  0.8803 -0.5917 -0.4997
 1682TIP3   OH2 5051   1.444   4.363   4.214  0.0929  0.3849 -0.5741
 1682TIP3    H1 5052   1.422   4.277   4.249  0.3263  0.7960  0.6550
 1682TIP3    H2 5053   1.412   4.424   4.281 -1.4964  1.3450 -2.1346
 1683TIP3   OH2 5054   3.975   5.387   4.509  0.0739 -0.1478  0.5810
 1683TIP3    H1 5055   3.933   5.458   4.557 -0.4582 -0.8196  1.1220
 1683TIP3    H2 5056   4.022   5.336   4.576 -0.2230 -0.7755  0.3159
 1684TIP3   OH2 5057   5.069   3.763   2.723 -0.0979 -0.5312 -0.3468
 1684TIP3    H1 5058   4.983   3.804   2.736 -0.4071 -0.9460 -1.0102
 1684TIP3    H2 5059   5.062   3.677   2.764  0.2879 -0.2449  0.3380
 1685TIP3   OH2 5060   0.835   4.918   4.609 -0.1794 -0.3735 -0.2927
 1685TIP3    H1 5061   0.911   4.950   4.658 -0.1639  0.9821 -1.1394
 1685TIP3    H2 5062   0.760   4.962   4.651 -0.2798 -0.1032 -0.7462
 1686TIP3   OH2 5063   0.644   1.071   4.875  0.2971 -0.0657  0.4702
 1686TIP3    H1 5064   0.577   1.027   4.822  0.2131  0.3457  0.2322
 1686TIP3    H2 5065   0.593   1.126   4.935  0.4295  1.5360 -0.8125
 1687TIP3   OH2 5066   4.024   0.759   4.518  0.0856 -0.0039 -0.4634
 1687TIP3    H1 5067   4.065   0.693   4.462 -0.9512 -0.3739 -0.8124
 1687TIP3    H2 5068   3.959   0.802   4.462 -0.6771 -0.0973  0.3241
 1688TIP3   OH2 5069   1.000   5.757   0.436  0.1499 -0.0379 -0.1378
 1688TIP3    H1 5070   1.038   5.680   0.479 -0.6270  0.4160  1.4600
 1688TIP3    H2 5071   1.009   5.739   0.342  1.0492 -1.5289  0.1925
 1689TIP3   OH2 5072   3.531   1.717   3.929  0.3203  0.0717  0.4814
 1689TIP3    H1 5073   3.524   1.810   3.908  1.7367  0.1620  0.3596
 1689TIP3    H2 5074   3.472   1.704   4.004 -0.9112  0.7738 -0.3282
 1690TIP3   OH2 5075   1.386   2.846   5.088  0.4204 -0.2240 -0.1562
 1690TIP3    H1 5076   1.325   2.822   5.019  2.5641 -1.9782 -1.5516
 1690TIP3    H2 5077   1.338   2.829   5.169 -1.6151  0.4271 -1.1472
 1691TIP3   OH2 5078   0.828   3.776   1.385  0.1659 -0.3861 -0.3122
 1691TIP3    H1 5079   0.787   3.718   1.321  0.2797  0.2651 -0.9836
 1691TIP3    H2 5080   0.761   3.841   1.405  0.6076  0.2505 -0.8566
 1692TIP3   OH2 5081   3.270   4.028   2.236  0.1484  0.0761  0.3001
 1692TIP3    H1 5082   3.210   3.982   2.295  0.1703 -0.1400  0.1526
 1692TIP3    H2 5083   3.251   3.993   2.149  0.7047 -0.2229  0.2966
 1693TIP3   OH2 5084   0.166   3.394   4.798  0.3549 -0.3939  0.3827
 1693TIP3    H1 5085   0.072   3.378   4.787  0.1182  0.2636  1.3912
 1693TIP3    H2 5086   0.199   3.315   4.842  0.6736 -1.5052 -1.7028
 1694TIP3   OH2 5087   2.546   2.424   4.937  0.4140 -0.2766  0.5892
 1694TIP3    H1 5088   2.496   2.501   4.964 -0.1710  0.5426 -2.4351
 1694TIP3    H2 5089   2.505   2.351   4.981 -1.5332  0.7349  0.5526
 1695TIP3   OH2 5090   5.871   3.522   1.053 -0.2956  0.5385  0.0596
 1695TIP3    H1 5091   5.842   3.498   0.965  1.8832  1.9799 -1.1437
 1695TIP3    H2 5092   5.947   3.578   1.038  0.3798  0.4920  2.8972
 1696TIP3   OH2 5093   0.892   5.572   2.469  0.0775  0.0732  0.1461
 1696TIP3    H1 5094   0.917   5.658   2.501  2.3870  0.0321 -1.3051
 1696TIP3    H2 5095   0.818   5.589   2.410  2.6303  1.7118 -2.8992
 1697TIP3   OH2 5096   4.479   3.179   0.812  0.5669 -0.0251  0.0804
 1697TIP3    H1 5097   4.544   3.118   0.847 -1.3643 -2.5682 -0.4703
 1697TIP3    H2 5098   4.447   3.137   0.733 -1.1823  1.5030 -0.0937
 1698TIP3   OH2 5099   2.295   3.312   0.805 -0.2233 -0.1784 -0.1593
 1698TIP3    H1 5100   2.333   3.234   0.765  1.2410  1.0061 -1.1991
 1698TIP3    H2 5101   2.370   3.361   0.838 -0.9183  1.6993 -1.2281
 1699TIP3   OH2 5102   0.825   0.119   0.914 -0.5362 -0.4819 -0.0294
 1699TIP3    H1 5103   0.821   0.184   0.985  2.1812  1.3210 -1.3411
 1699TIP3    H2 5104   0.753   0.143   0.856 -0.4680  0.4655  0.2480
 1700TIP3   OH2 5105   5.707   5.306   1.629 -0.2872  0.0952 -0.5595
 1700TIP3    H1 5106   5.686   5.229   1.576 -0.4500  0.3410 -0.8479
 1700TIP3    H2 5107   5.771   5.273   1.694 -0.8524 -0.4309 -0.2607
 1701TIP3   OH2 5108   5.020   3.788   0.427 -0.5920  0.6422 -0.0662
 1701TIP3    H1 5109   5.016   3.812   0.520 -1.2613  0.0094  0.0818
 1701TIP3    H2 5110   5.016   3.871   0.380  0.5977  1.0263  0.4823
 1702TIP3   OH2 5111   4.863   1.203   3.144  0.2060  0.2007 -0.1797
 1702TIP3    H1 5112   4.835   1.243   3.227 -0.1264 -0.3693 -0.0121
 1702TIP3    H2 5113   4.848   1.109   3.156  1.5517 -0.0547 -0.3541
 1703TIP3   OH2 5114   2.127   1.958   0.663  0.1412 -0.2468  0.8090
 1703TIP3    H1 5115   2.122   1.907   0.744  1.2766  1.0530  1.7615
 1703TIP3    H2 5116   2.221   1.974   0.651 -0.0834  0.3582 -0.2672
 1704TIP3   OH2 5117   4.194   3.125   4.235 -0.2203 -0.6102 -0.3736
 1704TIP3    H1 5118   4.144   3.134   4.154 -1.0423 -0.5960  0.1219
 1704TIP3    H2 5119   4.222   3.034   4.236  1.3123 -0.1798 -1.5243
 1705TIP3   OH2 5120   2.830   0.536   0.571 -0.5790 -0.3410 -0.5139
 1705TIP3    H1 5121   2.866   0.625   0.565 -0.5332 -0.3169  0.0646
 1705TIP3    H2 5122   2.744   0.548   0.610 -0.3694 -0.5954  0.0369
 1706TIP3   OH2 5123   1.564   4.267   4.459  0.3731  0.7459 -0.0048
 1706TIP3    H1 5124   1.502   4.202   4.427  0.0085  1.3415 -0.5472
 1706TIP3    H2 5125   1.638   4.261   4.399 -0.3574  1.9392 -1.0893
 1707TIP3   OH2 5126   5.323   1.297   1.184  0.4224 -1.2498  0.9135
 1707TIP3    H1 5127   5.391   1.275   1.247  2.6320  1.5370 -0.2684
 1707TIP3    H2 5128   5.271   1.365   1.228 -1.6382 -3.1996  1.7214
 1708TIP3   OH2 5129   4.395   0.909   2.089  0.3466 -0.0141 -0.3644
 1708TIP3    H1 5130   4.409   0.997   2.125  2.1431  0.8436 -2.9446
 1708TIP3    H2 5131   4.337   0.923   2.015  0.3447 -1.0802 -0.5698
 1709TIP3   OH2 5132   1.740   0.396   0.434 -0.4948 -0.6192  0.0591
 1709TIP3    H1 5133   1.835   0.402   0.440 -0.5912  1.2999  0.6540
 1709TIP3    H2 5134   1.714   0.338   0.506  0.1795 -0.5053  0.3992
 1710TIP3   OH2 5135   0.674   4.553   2.925  0.3496  0.9033 -0.8348
 1710TIP3    H1 5136   0.639   4.532   3.011 -0.2691  2.0127 -0.8114
 1710TIP3    H2 5137   0.757   4.598   2.943  0.3148  0.9623 -0.8217
 1711TIP3   OH2 5138   4.929   2.122   3.186  0.1240 -0.4581  0.0330
 1711TIP3    H1 5139   4.995   2.091   3.248  1.1883  0.7987 -0.4185
 1711TIP3    H2 5140   4.930   2.057   3.116 -0.0923 -1.1561  0.6685
 1712TIP3   OH2 5141   6.179   2.749   0.407 -0.3021 -0.7609  0.0579
 1712TIP3    H1 5142   6.095   2.746   0.453 -1.0200  0.8515 -1.0787
 1712TIP3    H2 5143   6.244   2.750   0.477 -1.3343  0.6244  1.0565
 1713TIP3   OH2 5144   1.673   0.155   4.038 -0.0660  0.2374  0.0639
 1713TIP3    H1 5145   1.761   0.154   4.075  0.1341  1.6637 -0.2925
 1713TIP3    H2 5146   1.616   0.173   4.113  0.0377  0.2083  0.1501
 1714TIP3   OH2 5147   1.056   5.160   4.542  0.2889  0.5256 -0.1206
 1714TIP3    H1 5148   1.023   5.095   4.480  0.1948  0.6894 -0.2419
 1714TIP3    H2 5149   1.065   5.111   4.624  1.4161  0.0367 -0.5059
 1715TIP3   OH2 5150   5.690   1.356   3.248  0.2564  0.1616 -0.4432
 1715TIP3    H1 5151   5.609   1.402   3.226 -1.4930 -1.3417  2.2804
 1715TIP3    H2 5152   5.663   1.266   3.265  2.4413 -0.3335  0.8399
 1716TIP3   OH2 5153   0.961   2.298   2.566  0.1325 -0.5309  0.1594
 1716TIP3    H1 5154   1.009   2.357   2.508 -1.2400  1.4360  0.9384
 1716TIP3    H2 5155   1.026   2.232   2.592  1.9553  1.0901 -0.0851
 1717TIP3   OH2 5156   2.265   3.276   3.357 -0.3922 -0.3589 -0.1536
 1717TIP3    H1 5157   2.198   3.341   3.379 -0.9709 -0.7806 -0.6237
 1717TIP3    H2 5158   2.247   3.254   3.266 -0.3207 -1.3154  0.0609
 1718TIP3   OH2 5159   0.867   2.046   2.086 -0.0978  0.0661 -0.3593
 1718TIP3    H1 5160   0.838   2.013   2.171 -0.3958  1.9176  0.3193
 1718TIP3    H2 5161   0.868   1.970   2.029 -0.6891 -1.0771  1.0967
 1719TIP3   OH2 5162   1.805   1.054   1.752 -0.0654 -0.0242 -0.1361
 1719TIP3    H1 5163   1.712   1.036   1.768 -0.2921  1.6378  0.6719
 1719TIP3    H2 5164   1.847   1.038   1.836 -0.1962  2.3905  0.4712
 1720TIP3   OH2 5165   4.378   0.883   4.298  0.0851 -0.1346  0.2325
 1720TIP3    H1 5166   4.421   0.828   4.232  0.1651 -0.2051  0.3430
 1720TIP3    H2 5167   4.360   0.824   4.371 -1.3100 -0.3993 -0.2861
 1721TIP3   OH2 5168   3.500   2.937   4.928 -0.2914  0.1377 -0.1645
 1721TIP3    H1 5169   3.484   2.843   4.937 -2.6743  0.5632  0.5472
 1721TIP3    H2 5170   3.445   2.978   4.995  0.6014  2.0732 -0.5384
 1722TIP3   OH2 5171   2.865   0.877   4.609 -0.4109  0.6074  0.1223
 1722TIP3    H1 5172   2.898   0.864   4.698  0.7291  1.8468 -0.0868
 1722TIP3    H2 5173   2.815   0.958   4.613 -0.2906  0.7105 -0.3822
 1723TIP3   OH2 5174   0.940   1.645   1.275 -0.2656  0.0420  0.1584
 1723TIP3    H1 5175   0.870   1.654   1.339  0.1958 -1.4041  0.9225
 1723TIP3    H2 5176   0.986   1.565   1.300  0.1644 -0.3845 -1.7684
 1724TIP3   OH2 5177   6.081   0.534   1.196 -0.1123 -0.2615 -0.1733
 1724TIP3    H1 5178   6.062   0.551   1.103  0.2287 -0.8394 -0.3552
 1724TIP3    H2 5179   6.173   0.557   1.207 -0.5625  1.3716  0.4235
 1725TIP3   OH2 5180   3.566   3.830   1.993 -0.0732  0.1522 -0.2549
 1725TIP3    H1 5181   3.661   3.829   1.996 -0.0813  0.2497  0.0412
 1725TIP3    H2 5182   3.544   3.894   1.925  0.0887 -0.9048 -1.3430
 1726TIP3   OH2 5183   4.921   2.919   4.767  0.2331 -1.0071 -0.6258
 1726TIP3    H1 5184   4.980   2.987   4.800 -0.8445 -0.6051  0.5401
 1726TIP3    H2 5185   4.976   2.865   4.710  1.4279  0.0593 -0.5256
 1727TIP3   OH2 5186   2.570   0.900   3.198 -0.1359  0.0614  0.5813
 1727TIP3    H1 5187   2.556   0.811   3.231  0.5847  0.1870  1.2538
 1727TIP3    H2 5188   2.664   0.907   3.186  0.0369  1.3213  2.2782
 1728TIP3   OH2 5189   0.803   4.265   2.167  0.3724 -0.5255 -0.1521
 1728TIP3    H1 5190   0.813   4.345   2.115  0.9728 -0.7315 -0.3515
 1728TIP3    H2 5191   0.709   4.262   2.187  0.0572 -0.6542 -1.5555
 1729TIP3   OH2 5192   0.393   0.860   2.515  0.8102 -0.5544 -0.1405
 1729TIP3    H1 5193   0.326   0.810   2.562  0.5451  0.3343  0.4552
 1729TIP3    H2 5194   0.469   0.859   2.572  0.0584  1.6805  1.0154
 1730TIP3   OH2 5195   3.816   1.884   4.886  0.9560 -0.1164 -0.7552
 1730TIP3    H1 5196   3.735   1.860   4.841  0.5255  1.0140 -0.6039
 1730TIP3    H2 5197   3.884   1.832   4.843  0.0466 -1.7485 -0.3182
 1731TIP3   OH2 5198   4.703   2.551   0.466 -0.4941  0.4590  0.3294
 1731TIP3    H1 5199   4.689   2.542   0.561  1.2035  1.3757  0.7057
 1731TIP3    H2 5200   4.636   2.613   0.438 -1.2234 -0.0667  0.8485
 1732TIP3   OH2 5201   0.135   4.190   4.934  0.5100 -0.0738 -0.2955
 1732TIP3    H1 5202   0.218   4.149   4.911  0.9909  1.4317 -1.4207
 1732TIP3    H2 5203   0.081   4.119   4.969  2.4727 -0.9576  1.0825
 1733TIP3   OH2 5204   4.232   2.986   0.032 -0.0340  0.8467  0.5786
 1733TIP3    H1 5205   4.272   2.988   0.119  1.7101  0.4913 -0.1711
 1733TIP3    H2 5206   4.151   2.937   0.044  1.5472 -1.7834  1.5229
 1734TIP3   OH2 5207   3.805   2.177   0.368  0.0003 -0.1692  0.1597
 1734TIP3    H1 5208   3.752   2.232   0.427  0.1638  0.0573  0.0989
 1734TIP3    H2 5209   3.855   2.240   0.316 -0.7180 -0.3316 -0.7691
 1735TIP3   OH2 5210   5.985   1.064   3.465 -0.0075  0.3094  0.6875
 1735TIP3    H1 5211   5.895   1.097   3.471  0.3572  1.2090  1.6224
 1735TIP3    H2 5212   5.982   0.979   3.507 -0.9488 -0.9038 -1.6528
 1736TIP3   OH2 5213   3.182   1.554   1.500  0.1322 -0.5099 -0.3528
 1736TIP3    H1 5214   3.136   1.530   1.581  0.7998 -0.9949 -0.1065
 1736TIP3    H2 5215   3.200   1.470   1.457 -2.3777 -0.1832 -2.2649
 1737TIP3   OH2 5216   3.494   2.591   3.580  0.2174  0.4520  0.4766
 1737TIP3    H1 5217   3.411   2.587   3.531  0.4120 -0.6591  0.2141
 1737TIP3    H2 5218   3.467   2.598   3.671 -0.1652  0.5538  0.3601
 1738TIP3   OH2 5219   3.439   4.129   5.133  0.2006  0.3791  0.1273
 1738TIP3    H1 5220   3.416   4.221   5.129  1.8654  0.9339  1.6903
 1738TIP3    H2 5221   3.534   4.128   5.149  0.3433 -1.6121 -0.5058
 1739TIP3   OH2 5222   3.346   4.781   1.899 -0.1973 -0.4317 -0.0556
 1739TIP3    H1 5223   3.335   4.765   1.993 -0.1726 -2.1081 -0.3017
 1739TIP3    H2 5224   3.293   4.858   1.881 -0.8389 -0.5577  1.1895
 1740TIP3   OH2 5225   4.476   3.139   1.297  0.5510  0.3571  0.3327
 1740TIP3    H1 5226   4.400   3.194   1.318  0.9458  1.1812 -0.3313
 1740TIP3    H2 5227   4.522   3.188   1.228  1.1959 -0.5645  0.0966
 1741TIP3   OH2 5228   0.818   3.175   1.885 -0.2858 -0.5008  0.5790
 1741TIP3    H1 5229   0.827   3.267   1.858 -0.6572 -0.1772  1.5041
 1741TIP3    H2 5230   0.731   3.150   1.854 -0.7808 -0.0778  1.5570
 1742TIP3   OH2 5231   5.751   4.837   1.978 -0.1736  0.2759 -0.4271
 1742TIP3    H1 5232   5.826   4.893   1.996 -0.0689 -0.2759  0.9829
 1742TIP3    H2 5233   5.783   4.771   1.916  0.1196  0.8442 -0.8857
 1743TIP3   OH2 5234   3.098   2.188   2.305 -0.2028 -0.1772  0.0386
 1743TIP3    H1 5235   3.127   2.218   2.218 -0.4520 -2.2852 -0.8367
 1743TIP3    H2 5236   3.161   2.227   2.366 -0.1533  1.5482 -1.0324
 1744TIP3   OH2 5237   2.568   3.865   4.392 -0.3514 -0.3285 -0.0224
 1744TIP3    H1 5238   2.518   3.891   4.315 -0.9348 -2.5692 -0.4689
 1744TIP3    H2 5239   2.518   3.899   4.466 -0.2367  1.1055 -0.5733
 1745TIP3   OH2 5240   2.258   3.328   5.156 -0.0024 -0.5781 -0.4541
 1745TIP3    H1 5241   2.312   3.255   5.127  0.0688 -1.4412  1.6967
 1745TIP3    H2 5242   2.169   3.301   5.137  0.1057 -0.5905 -0.9659
 1746TIP3   OH2 5243   0.710   4.946   3.906 -0.4623 -0.3154  0.0299
 1746TIP3    H1 5244   0.685   5.025   3.858  0.5240  1.6575  2.5483
 1746TIP3    H2 5245   0.721   4.879   3.838 -2.1730  1.4467 -2.1193
 1747TIP3   OH2 5246   4.516   0.188   0.593  0.3054  0.4335 -0.1640
 1747TIP3    H1 5247   4.563   0.130   0.654 -0.6957 -0.0938  0.1213
 1747TIP3    H2 5248   4.424   0.166   0.605  0.0404  0.8272 -1.3727
 1748TIP3   OH2 5249   3.801   4.353   1.781  0.0029  0.5734 -0.3828
 1748TIP3    H1 5250   3.815   4.446   1.765 -1.0125  0.7079 -0.6070
 1748TIP3    H2 5251   3.780   4.317   1.695  1.4116 -0.0783 -0.4785
 1749TIP3   OH2 5252   4.759   4.111   3.447  0.1641  0.3350  0.5283
 1749TIP3    H1 5253   4.798   4.083   3.529  0.6283  1.0415  0.5657
 1749TIP3    H2 5254   4.830   4.157   3.401  0.0585 -0.4828 -0.4911
 1750TIP3   OH2 5255   4.831   2.026   0.662 -0.6135  0.1940  0.1868
 1750TIP3    H1 5256   4.763   2.088   0.636  1.1780  1.6706 -1.2270
 1750TIP3    H2 5257   4.835   1.963   0.590 -0.6957 -0.0928  0.4293
 1751TIP3   OH2 5258   5.875   5.825   4.563 -0.4953  0.1589  0.0236
 1751TIP3    H1 5259   5.817   5.792   4.631 -0.1024  2.4165  1.5426
 1751TIP3    H2 5260   5.854   5.918   4.555  0.5646  0.2928 -1.8300
 1752TIP3   OH2 5261   5.284   5.308   4.038 -0.3428  0.1994 -0.2347
 1752TIP3    H1 5262   5.199   5.264   4.040 -0.8173  1.1148  0.7270
 1752TIP3    H2 5263   5.263   5.400   4.020  0.4882  0.3380 -0.5474
 1753TIP3   OH2 5264   3.964   5.029   0.626 -0.1237 -0.4646  0.1444
 1753TIP3    H1 5265   4.060   5.036   0.632 -0.0177 -1.8174  0.4073
 1753TIP3    H2 5266   3.937   5.006   0.715 -0.8328  1.0968  0.3586
 1754TIP3   OH2 5267   3.906   2.039   0.637  0.5607 -0.6519 -0.0382
 1754TIP3    H1 5268   3.999   2.062   0.643  0.2645  0.4034  0.8433
 1754TIP3    H2 5269   3.878   2.074   0.553  0.7459 -0.1229  0.1164
 1755TIP3   OH2 5270   3.344   1.092   1.422  0.4842 -0.4843  0.1296
 1755TIP3    H1 5271   3.413   1.072   1.359 -0.8331 -2.8482 -0.7022
 1755TIP3    H2 5272   3.285   1.017   1.416 -2.8806  1.9886 -0.1616
 1756TIP3   OH2 5273   5.365   3.300   1.637 -0.3080  0.6381 -0.0209
 1756TIP3    H1 5274   5.388   3.222   1.688 -0.8212 -0.5960 -1.5873
 1756TIP3    H2 5275   5.357   3.370   1.702  1.2514 -0.3473  1.3132
 1757TIP3   OH2 5276   4.287   1.082   2.640  0.4128 -0.5553  0.7779
 1757TIP3    H1 5277   4.380   1.059   2.640  0.8771  1.1734  1.1261
 1757TIP3    H2 5278   4.250   1.033   2.566  1.9325 -0.0182 -0.3894
 1758TIP3   OH2 5279   6.090   6.005   3.629  0.0633  0.1432 -0.4006
 1758TIP3    H1 5280   6.179   5.982   3.602 -0.1645 -0.2994 -0.7782
 1758TIP3    H2 5281   6.039   5.926   3.615 -1.0705  1.2225 -3.2237
 1759TIP3   OH2 5282   5.355   4.792   2.348 -0.0734  0.2539  0.2658
 1759TIP3    H1 5283   5.365   4.864   2.284 -0.7800 -1.4822 -1.9274
 1759TIP3    H2 5284   5.272   4.811   2.392  0.8669  1.9708  1.3834
 1760TIP3   OH2 5285   1.851   2.526   3.026 -0.2576 -0.4025  0.3984
 1760TIP3    H1 5286   1.756   2.533   3.033 -0.2475 -0.9168  1.2108
 1760TIP3    H2 5287   1.871   2.549   2.935 -1.4587 -3.1160 -0.6670
 1761TIP3   OH2 5288   2.248   1.849   3.979  0.1652  0.1712  0.2601
 1761TIP3    H1 5289   2.224   1.921   3.920  0.2862  0.2457  0.2998
 1761TIP3    H2 5290   2.165   1.823   4.020  0.2822  1.0860  1.1328
 1762TIP3   OH2 5291   0.116   0.796   5.118 -0.2850 -0.2161 -0.2088
 1762TIP3    H1 5292   0.036   0.746   5.104 -1.8787  1.4784  1.9689
 1762TIP3    H2 5293   0.099   0.880   5.075  0.7358 -0.1685 -0.5400
 1763TIP3   OH2 5294   0.335   0.750   2.237 -0.0085  0.4460 -0.9415
 1763TIP3    H1 5295   0.261   0.795   2.197  0.2881  1.6925 -0.1335
 1763TIP3    H2 5296   0.342   0.789   2.324 -0.1357 -1.6085  0.0589
 1764TIP3   OH2 5297   3.181   5.166   2.216 -0.0782  0.2872  0.1750
 1764TIP3    H1 5298   3.259   5.183   2.268  0.5839  0.7844 -0.9261
 1764TIP3    H2 5299   3.211   5.172   2.125 -0.7743 -2.4063 -0.3212
 1765TIP3   OH2 5300   0.355   5.974   0.450 -0.2175 -0.3749  0.5717
 1765TIP3    H1 5301   0.448   5.979   0.426 -0.8386  0.7512 -1.8510
 1765TIP3    H2 5302   0.350   5.898   0.509  2.4604  0.4703  2.0843
 1766TIP3   OH2 5303   0.387   4.526   0.645  0.0684 -0.6438  0.0273
 1766TIP3    H1 5304   0.302   4.558   0.615  0.1535 -1.7172 -1.4827
 1766TIP3    H2 5305   0.437   4.511   0.565  1.5820 -0.3266  0.8755
 1767TIP3   OH2 5306   2.960   4.919   4.816  0.1474 -0.4306  0.0762
 1767TIP3    H1 5307   3.020   4.994   4.805  2.0561 -1.8716  0.1263
 1767TIP3    H2 5308   3.013   4.843   4.795 -2.6465 -1.6765 -3.5103
 1768TIP3   OH2 5309   1.364   1.706   4.570 -0.2574 -0.4478 -0.2854
 1768TIP3    H1 5310   1.296   1.736   4.630  0.2341  0.1438 -0.0206
 1768TIP3    H2 5311   1.439   1.762   4.588  0.3403 -1.1678 -0.5064
 1769TIP3   OH2 5312   3.138   2.874   2.313 -0.0823  0.5377  0.3419
 1769TIP3    H1 5313   3.183   2.959   2.312 -1.5077  1.3676  1.8348
 1769TIP3    H2 5314   3.054   2.892   2.354 -0.5949 -1.5491  0.3212
 1770TIP3   OH2 5315   5.379   4.360   4.547 -0.3494  0.7596  0.2994
 1770TIP3    H1 5316   5.470   4.357   4.517  0.0959 -2.4026  1.5693
 1770TIP3    H2 5317   5.337   4.285   4.504 -1.3113 -0.0991  2.5849
 1771TIP3   OH2 5318   5.111   3.057   1.527 -0.3496  0.3946 -0.4019
 1771TIP3    H1 5319   5.128   3.150   1.543 -0.1624  0.5674 -1.5533
 1771TIP3    H2 5320   5.055   3.031   1.600 -0.5368  1.4457 -0.1422
 1772TIP3   OH2 5321   5.340   0.754   0.570 -0.1670 -0.2722  0.3172
 1772TIP3    H1 5322   5.317   0.826   0.629 -1.6587  0.1368 -0.6994
 1772TIP3    H2 5323   5.290   0.679   0.604  0.9236 -0.7005  1.0236
 1773TIP3   OH2 5324   4.752   4.734   2.146 -0.1302 -0.8580  0.0255
 1773TIP3    H1 5325   4.664   4.709   2.122 -0.0291 -0.6119 -0.6190
 1773TIP3    H2 5326   4.755   4.725   2.241 -1.1635  0.1205  0.1668
 1774TIP3   OH2 5327   5.624   4.249   4.203 -0.0531 -0.3413 -0.1347
 1774TIP3    H1 5328   5.611   4.212   4.290 -0.8384 -0.1665 -0.1627
 1774TIP3    H2 5329   5.629   4.343   4.218 -0.0073 -0.3248 -0.2526
 1775TIP3   OH2 5330   0.897   3.515   1.429  1.0485 -0.2405 -0.0814
 1775TIP3    H1 5331   0.888   3.610   1.422  0.6104 -0.2684  0.0964
 1775TIP3    H2 5332   0.978   3.503   1.480  1.4778  0.0219 -0.6865
 1776TIP3   OH2 5333   3.391   2.749   2.740 -0.0898  0.3749  0.2395
 1776TIP3    H1 5334   3.348   2.712   2.816  0.9447  1.0269  1.1737
 1776TIP3    H2 5335   3.484   2.733   2.755  0.0582 -1.2021 -1.8210
 1777TIP3   OH2 5336   2.493   5.323   3.417 -0.2045  0.3293 -0.2476
 1777TIP3    H1 5337   2.563   5.261   3.395  0.1625 -0.3018  2.3963
 1777TIP3    H2 5338   2.506   5.395   3.356  3.0067  0.3923  0.3250
 1778TIP3   OH2 5339   4.248   3.247   1.651 -0.7740 -0.2804  0.4469
 1778TIP3    H1 5340   4.218   3.212   1.567  0.0559  0.6060 -0.2526
 1778TIP3    H2 5341   4.210   3.189   1.717 -2.6304 -0.1492 -0.4608
 1779TIP3   OH2 5342   4.122   3.547   0.278 -0.5957  0.7222  0.9979
 1779TIP3    H1 5343   4.094   3.554   0.370  0.4962  0.6310  1.3582
 1779TIP3    H2 5344   4.217   3.534   0.284 -0.8015 -1.9857 -0.0324
 1780TIP3   OH2 5345   4.773   3.965   4.517 -0.3529 -0.0058 -0.2600
 1780TIP3    H1 5346   4.687   3.944   4.482 -0.7312  0.9214  0.0911
 1780TIP3    H2 5347   4.783   3.906   4.592 -0.7509 -0.0112 -0.2101
 1781TIP3   OH2 5348   6.098   4.461   1.088 -0.3012 -0.2130 -0.6628
 1781TIP3    H1 5349   6.150   4.419   1.157 -1.8465 -1.4521 -0.1887
 1781TIP3    H2 5350   6.162   4.498   1.028  1.1018 -1.1012  0.2434
 1782TIP3   OH2 5351   4.750   4.818   3.916 -0.2791 -0.1884  0.3663
 1782TIP3    H1 5352   4.694   4.810   3.839  1.3537  0.1035 -0.9095
 1782TIP3    H2 5353   4.702   4.774   3.986 -1.5167 -1.0247 -0.9634
 1783TIP3   OH2 5354   1.121   4.394   1.575 -0.3042  0.2496  0.2552
 1783TIP3    H1 5355   1.061   4.319   1.576 -1.1785  0.9206 -0.3555
 1783TIP3    H2 5356   1.161   4.393   1.662 -0.4632 -0.7811  0.3399
 1784TIP3   OH2 5357   2.795   0.879   1.620  0.7278  0.2845 -0.0171
 1784TIP3    H1 5358   2.729   0.910   1.683  1.1583  2.3909 -0.4979
 1784TIP3    H2 5359   2.752   0.885   1.535  1.9613  3.5816 -0.5896
 1785TIP3   OH2 5360   4.035   3.811   0.629 -0.0766 -0.0416  0.1498
 1785TIP3    H1 5361   4.081   3.802   0.545  0.4491 -0.3596  0.4607
 1785TIP3    H2 5362   4.047   3.727   0.672 -0.9243 -0.1111  0.2649
 1786TIP3   OH2 5363   6.161   2.200   5.115 -0.6129  0.2195 -0.6397
 1786TIP3    H1 5364   6.179   2.154   5.033 -0.9799 -2.7059  0.7848
 1786TIP3    H2 5365   6.098   2.144   5.160  2.1688 -0.2480  3.1749
 1787TIP3   OH2 5366   3.063   1.185   3.104  0.1039  0.0026 -0.1965
 1787TIP3    H1 5367   3.150   1.226   3.103  0.3885 -0.5984 -0.9994
 1787TIP3    H2 5368   3.014   1.232   3.037  0.3269 -0.7172 -0.8830
 1788TIP3   OH2 5369   5.721   3.454   2.266 -0.3295 -0.0767  0.2729
 1788TIP3    H1 5370   5.722   3.401   2.187 -0.4451  1.0885 -0.5408
 1788TIP3    H2 5371   5.641   3.506   2.259  0.4826  1.2237  0.3096
 1789TIP3   OH2 5372   4.166   2.722   1.876 -0.0541 -0.5431 -0.3937
 1789TIP3    H1 5373   4.184   2.630   1.891 -2.6885 -0.9134  0.9484
 1789TIP3    H2 5374   4.114   2.724   1.796  0.9615 -0.0669 -1.0676
 1790TIP3   OH2 5375   6.283   5.050   1.418 -0.1397  0.0325 -0.1234
 1790TIP3    H1 5376   6.333   5.091   1.489  1.2562 -0.5172 -0.7534
 1790TIP3    H2 5377   6.283   5.116   1.348 -0.2757  0.0254 -0.1287
 1791TIP3   OH2 5378   2.294   2.118   3.420  0.4087 -0.2398 -0.2801
 1791TIP3    H1 5379   2.370   2.076   3.379  0.5805  2.6656 -3.3701
 1791TIP3    H2 5380   2.230   2.124   3.349 -1.5316  0.1843  1.4242
 1792TIP3   OH2 5381   4.806   2.457   1.058 -0.0572 -0.6009  0.1134
 1792TIP3    H1 5382   4.847   2.412   1.132  1.4008  0.9404  0.3033
 1792TIP3    H2 5383   4.859   2.432   0.983 -0.3505 -0.6213 -0.0878
 1793TIP3   OH2 5384   1.860   2.156   1.653 -0.1306 -0.1839  0.1226
 1793TIP3    H1 5385   1.887   2.230   1.707 -2.4931  0.6562  0.2301
 1793TIP3    H2 5386   1.849   2.193   1.566 -1.6725 -0.2955  0.2515
 1794TIP3   OH2 5387   0.722   5.177   2.268 -0.3365  0.0295  0.2166
 1794TIP3    H1 5388   0.653   5.111   2.272 -0.5245  0.2611  1.6367
 1794TIP3    H2 5389   0.736   5.202   2.360 -0.7041  2.3806 -0.3014
 1795TIP3   OH2 5390   0.224   4.742   2.618 -0.3038  0.6272 -0.6145
 1795TIP3    H1 5391   0.129   4.739   2.620 -0.2738 -0.2920  0.5501
 1795TIP3    H2 5392   0.248   4.790   2.697  0.2116  0.3644 -0.6058
 1796TIP3   OH2 5393   1.293   0.059   3.261 -0.0203 -0.2699 -0.3276
 1796TIP3    H1 5394   1.236   0.016   3.325 -0.4495  0.9396  0.1128
 1796TIP3    H2 5395   1.312  -0.010   3.197 -0.0309 -1.3541  0.7904
 1797TIP3   OH2 5396   0.544   5.313   2.680  0.1628 -0.1879  0.0621
 1797TIP3    H1 5397   0.463   5.346   2.720  0.2469 -1.2886  1.2096
 1797TIP3    H2 5398   0.576   5.248   2.742  0.8005 -1.3295 -1.4135
 1798TIP3   OH2 5399   1.181   5.209   4.924 -0.0159 -0.4175  0.2222
 1798TIP3    H1 5400   1.274   5.221   4.906 -0.5292  0.9370 -1.8256
 1798TIP3    H2 5401   1.172   5.230   5.017  1.6914 -0.5137  0.4417
 1799TIP3   OH2 5402   4.376   4.487   2.376  0.3312 -0.2632 -0.1126
 1799TIP3    H1 5403   4.402   4.565   2.424 -0.3090 -0.4906  0.6252
 1799TIP3    H2 5404   4.290   4.464   2.413 -0.0400 -0.6101 -1.1634
 1800TIP3   OH2 5405   4.848   1.455   2.000 -0.0348 -0.1804  0.1607
 1800TIP3    H1 5406   4.903   1.377   1.998  1.9234  1.1265 -1.9873
 1800TIP3    H2 5407   4.878   1.507   1.925 -1.5894  2.4083  1.2231
 1801TIP3   OH2 5408   5.251   4.595   1.194 -0.3383 -0.6790  0.6059
 1801TIP3    H1 5409   5.280   4.680   1.229  0.8044 -0.8308  0.0574
 1801TIP3    H2 5410   5.234   4.542   1.272  2.8953 -1.2613  1.0442
 1802TIP3   OH2 5411   2.103   1.630   2.642 -0.1464  0.1297 -0.0853
 1802TIP3    H1 5412   2.167   1.648   2.572  0.6184 -0.5338  0.4317
 1802TIP3    H2 5413   2.031   1.585   2.597 -0.1305  0.6257 -0.6262
 1803TIP3   OH2 5414   4.345   4.542   3.939 -0.3071  0.0493  0.7187
 1803TIP3    H1 5415   4.417   4.495   3.897 -0.6540  0.8991 -0.8923
 1803TIP3    H2 5416   4.272   4.533   3.878 -1.6996 -1.0454  2.4491
 1804TIP3   OH2 5417   5.636   3.536   4.217  0.1364 -0.1258  0.1498
 1804TIP3    H1 5418   5.655   3.443   4.204 -0.3181 -0.4319  1.5392
 1804TIP3    H2 5419   5.544   3.545   4.194 -0.0616 -0.2072  0.9047
 1805TIP3   OH2 5420   3.942   4.616   3.766 -0.2118 -0.3645  0.8050
 1805TIP3    H1 5421   3.912   4.611   3.857 -0.7830 -1.0552  0.5889
 1805TIP3    H2 5422   3.867   4.586   3.715 -1.1405  3.1048 -0.1726
 1806TIP3   OH2 5423   2.620   5.694   5.103 -0.0518  0.4022 -0.0374
 1806TIP3    H1 5424   2.661   5.778   5.082 -0.2641  0.7825  1.0198
 1806TIP3    H2 5425   2.532   5.717   5.132  0.2555 -0.0731  1.3448
 1807TIP3   OH2 5426   3.543   5.878   0.634 -0.7579  0.4861 -0.5161
 1807TIP3    H1 5427   3.539   5.849   0.543  0.3802  0.5060 -0.5855
 1807TIP3    H2 5428   3.459   5.850   0.671 -2.1113  2.1901 -2.0472
 1808TIP3   OH2 5429   3.094   3.383   1.763  0.1650 -0.0167  0.0359
 1808TIP3    H1 5430   3.038   3.318   1.805  1.7002 -0.7379  1.0457
 1808TIP3    H2 5431   3.070   3.466   1.804 -0.7787 -0.1693 -0.1986
 1809TIP3   OH2 5432   4.950   4.965   3.075  0.0873  0.1297 -0.3796
 1809TIP3    H1 5433   5.004   4.999   3.147 -0.6721  0.7062 -0.0622
 1809TIP3    H2 5434   4.862   4.999   3.094 -0.3904 -0.8104 -0.8671
 1810TIP3   OH2 5435   5.811   5.089   4.414  0.4264 -0.1068  0.0896
 1810TIP3    H1 5436   5.859   5.164   4.449 -0.4138  1.0204 -1.0938
 1810TIP3    H2 5437   5.759   5.057   4.487  0.6332  0.5962  0.5482
 1811TIP3   OH2 5438   2.846   0.473   0.179  0.2324  0.0904 -0.5007
 1811TIP3    H1 5439   2.893   0.435   0.253  1.7729  0.5730 -1.1753
 1811TIP3    H2 5440   2.913   0.480   0.110 -0.9624  0.3949 -1.6581
 1812TIP3   OH2 5441   0.732   0.916   0.926 -0.1368 -0.1508 -0.1434
 1812TIP3    H1 5442   0.814   0.899   0.881  0.5417  0.4340  0.8452
 1812TIP3    H2 5443   0.675   0.953   0.859  0.4181 -0.5091 -0.8197
 1813TIP3   OH2 5444   6.300   2.290   4.831  0.2527 -0.3590 -0.0636
 1813TIP3    H1 5445   6.296   2.308   4.737 -1.9823  0.0447  0.0585
 1813TIP3    H2 5446   6.332   2.200   4.837 -0.3472 -0.6676 -1.2630
 1814TIP3   OH2 5447   1.716   2.177   3.101 -0.4137  0.6501 -0.0813
 1814TIP3    H1 5448   1.727   2.206   3.192  0.6623  0.9618 -0.2870
 1814TIP3    H2 5449   1.726   2.082   3.105  0.5077  0.7404  0.0270
 1815TIP3   OH2 5450   0.122   4.694   5.039  0.5829  0.4607 -0.4622
 1815TIP3    H1 5451   0.063   4.675   5.112  0.5676  3.3356  0.4055
 1815TIP3    H2 5452   0.188   4.625   5.044 -1.5393 -1.7039 -0.2478
 1816TIP3   OH2 5453   1.971   5.386   1.016 -0.1665 -0.0136  0.2620
 1816TIP3    H1 5454   1.888   5.419   0.981 -0.3429 -0.9093 -0.2055
 1816TIP3    H2 5455   1.950   5.362   1.107 -0.7583 -1.3326 -0.1906
 1817TIP3   OH2 5456   3.478   2.339   3.786  0.1867  0.2467 -0.7192
 1817TIP3    H1 5457   3.417   2.304   3.722  0.7026 -1.6774 -0.2059
 1817TIP3    H2 5458   3.439   2.423   3.813 -0.5890  0.5654 -2.6850
 1818TIP3   OH2 5459   1.998   4.528   2.338 -0.3749  0.4389 -0.2806
 1818TIP3    H1 5460   2.091   4.546   2.320  0.0768 -0.0131  1.4435
 1818TIP3    H2 5461   1.979   4.449   2.287  1.6899 -2.5865  3.1380
 1819TIP3   OH2 5462   5.439   3.754   4.629 -0.0477  0.0207 -0.2590
 1819TIP3    H1 5463   5.429   3.795   4.543  0.9146 -0.6420 -0.7082
 1819TIP3    H2 5464   5.363   3.784   4.679  0.4790  2.1738 -0.6275
 1820TIP3   OH2 5465   1.388   0.001   4.409 -0.2787  0.1667 -0.4909
 1820TIP3    H1 5466   1.386   0.064   4.337  0.5411  1.1542  0.3189
 1820TIP3    H2 5467   1.376   0.054   4.487 -0.4917 -0.8141  0.1539
 1821TIP3   OH2 5468   3.337   1.870   2.093  0.5093 -0.3415  0.2542
 1821TIP3    H1 5469   3.425   1.835   2.077  0.2439 -0.4239 -1.1300
 1821TIP3    H2 5470   3.330   1.946   2.035  0.5964  1.3019  2.2577
 1822TIP3   OH2 5471   1.576   0.134   1.040  0.3199 -0.0865  0.4307
 1822TIP3    H1 5472   1.617   0.212   1.001  0.6231 -0.8976 -0.9315
 1822TIP3    H2 5473   1.636   0.107   1.109  0.8309  0.1893  0.1010
 1823TIP3   OH2 5474   5.608   5.930   5.128 -0.1471 -0.1500 -0.0392
 1823TIP3    H1 5475   5.685   5.983   5.108  1.3979 -1.8732  0.9019
 1823TIP3    H2 5476   5.537   5.968   5.077  1.4227  1.2901 -1.2390
 1824TIP3   OH2 5477   4.089   0.635   3.988  0.5149 -0.3455 -0.5381
 1824TIP3    H1 5478   4.143   0.695   4.040  0.0036 -0.7072  0.4426
 1824TIP3    H2 5479   4.104   0.549   4.027 -0.5249 -0.5005 -0.4435
 1825TIP3   OH2 5480   3.424   0.181   2.371  0.3145 -0.2887 -0.2250
 1825TIP3    H1 5481   3.435   0.142   2.458 -1.8841  1.8340  1.1296
 1825TIP3    H2 5482   3.334   0.214   2.371  0.9455  1.6838 -2.5291
 1826TIP3   OH2 5483   4.644   0.200   2.691 -0.2301  0.2835  0.4835
 1826TIP3    H1 5484   4.717   0.161   2.643  0.1408  0.4248  0.9162
 1826TIP3    H2 5485   4.591   0.126   2.719 -0.8649  0.2440 -0.7841
 1827TIP3   OH2 5486   3.980   3.187   1.145  0.0908  0.2523  0.9517
 1827TIP3    H1 5487   3.959   3.279   1.158  0.4033  0.3090  1.0562
 1827TIP3    H2 5488   3.959   3.146   1.229 -2.7763 -0.2947  0.1018
 1828TIP3   OH2 5489   0.567   3.405   0.247  0.6701 -0.1785 -0.1339
 1828TIP3    H1 5490   0.548   3.321   0.204  2.9512 -1.0300  0.4068
 1828TIP3    H2 5491   0.585   3.382   0.338 -0.4071  1.1603  0.4635
 1829TIP3   OH2 5492   0.415   5.000   3.986  0.2882  0.2208  0.1322
 1829TIP3    H1 5493   0.391   4.908   3.997  0.5641  0.0358 -0.7055
 1829TIP3    H2 5494   0.507   5.004   4.015 -0.3518  0.7018  2.2752
 1830TIP3   OH2 5495   4.803   3.275   1.706 -0.2030 -0.2708  0.4487
 1830TIP3    H1 5496   4.809   3.232   1.791 -1.7142  0.4457  0.9507
 1830TIP3    H2 5497   4.745   3.219   1.654  2.6624 -2.0784 -1.0679
 1831TIP3   OH2 5498   0.236   5.486   1.772  0.2078 -0.0511 -0.0670
 1831TIP3    H1 5499   0.168   5.456   1.832  0.0210 -1.1588 -0.7927
 1831TIP3    H2 5500   0.209   5.573   1.745  0.0902  0.2944  1.1396
 1832TIP3   OH2 5501   1.133   5.139   0.587  0.5301  0.6992 -0.1074
 1832TIP3    H1 5502   1.201   5.138   0.519  0.1046  0.8631 -0.5444
 1832TIP3    H2 5503   1.175   5.099   0.663  1.4014  1.5966 -0.0856
 1833TIP3   OH2 5504   3.668   0.302   3.403  0.2767  0.3053 -0.1534
 1833TIP3    H1 5505   3.653   0.396   3.413  1.8151  0.8677 -2.5674
 1833TIP3    H2 5506   3.755   0.287   3.440  0.8124  0.1917 -1.4279
 1834TIP3   OH2 5507   1.464   0.318   2.038 -0.5492 -0.4244  0.2867
 1834TIP3    H1 5508   1.393   0.323   1.974  1.0055  1.4295 -1.4239
 1834TIP3    H2 5509   1.484   0.224   2.045  0.4042 -0.6534 -3.4338
 1835TIP3   OH2 5510   6.188   1.295   1.937 -0.0551  0.1275  0.8210
 1835TIP3    H1 5511   6.221   1.234   1.871 -0.4930  2.8650 -2.1701
 1835TIP3    H2 5512   6.145   1.240   2.002 -1.2387 -2.7174 -2.1359
 1836TIP3   OH2 5513   0.327   1.383   0.804  0.4647  0.0600  0.2288
 1836TIP3    H1 5514   0.302   1.291   0.817 -0.3076  0.2383  0.0446
 1836TIP3    H2 5515   0.292   1.405   0.718  0.3667  0.6144  0.4107
 1837TIP3   OH2 5516   0.465   5.474   0.252  0.5049  0.3370 -0.2890
 1837TIP3    H1 5517   0.400   5.543   0.267  0.1176  0.0149 -0.4679
 1837TIP3    H2 5518   0.476   5.472   0.157 -1.0693 -1.2710 -0.4847
 1838TIP3   OH2 5519   5.727   2.754   1.051  0.1303  0.3034  0.5607
 1838TIP3    H1 5520   5.681   2.776   1.132 -0.7706 -1.2874  0.5104
 1838TIP3    H2 5521   5.764   2.667   1.067 -0.8665 -0.4560 -1.0619
 1839TIP3   OH2 5522   2.697   0.054   0.732 -0.2427 -0.0081 -0.4842
 1839TIP3    H1 5523   2.604   0.035   0.748 -1.1600  2.0706 -2.7708
 1839TIP3    H2 5524   2.738  -0.032   0.723 -2.3822 -0.9952 -1.5191
 1840TIP3   OH2 5525   2.508   5.084   3.875 -0.4952 -0.1388  0.2253
 1840TIP3    H1 5526   2.429   5.074   3.928 -1.8033  2.4100 -1.1083
 1840TIP3    H2 5527   2.499   5.019   3.805 -1.8086  0.6226 -0.3391
 1841TIP3   OH2 5528   6.039   5.165   2.433 -0.1262  0.0735 -0.0120
 1841TIP3    H1 5529   6.091   5.096   2.474 -1.8986 -1.0417  0.5078
 1841TIP3    H2 5530   6.048   5.150   2.339  0.6132  0.0132  0.0636
 1842TIP3   OH2 5531   2.491   1.688   3.906 -0.0146  0.3243  0.1487
 1842TIP3    H1 5532   2.482   1.598   3.937  2.1483  0.4267  1.2586
 1842TIP3    H2 5533   2.425   1.737   3.955  0.6084 -0.2266  1.6003
 1843TIP3   OH2 5534   5.273   2.004   1.178  0.3686  0.0553  0.3846
 1843TIP3    H1 5535   5.352   1.957   1.207 -0.3862 -0.5873  1.4774
 1843TIP3    H2 5536   5.262   2.074   1.242 -0.3707 -0.3294  0.6846
 1844TIP3   OH2 5537   2.329   5.786   3.335  0.1268 -0.5403  0.4850
 1844TIP3    H1 5538   2.272   5.755   3.405 -1.4503  0.2755 -0.3880
 1844TIP3    H2 5539   2.318   5.722   3.265 -0.2158 -0.0534  0.0841
 1845TIP3   OH2 5540   4.402   3.621   1.478 -0.1614 -0.4067 -0.1634
 1845TIP3    H1 5541   4.327   3.670   1.443  1.7972  1.9883 -1.2983
 1845TIP3    H2 5542   4.474   3.641   1.418  1.8619 -1.0410  1.9209
 1846TIP3   OH2 5543   0.903   0.745   1.289 -0.1972 -0.1577  0.2436
 1846TIP3    H1 5544   0.987   0.706   1.263  0.1822  0.5241  0.4236
 1846TIP3    H2 5545   0.838   0.699   1.236  0.4844  0.6528 -1.3772
 1847TIP3   OH2 5546   3.120   3.948   4.680 -0.4726 -0.3440 -0.8107
 1847TIP3    H1 5547   3.155   3.955   4.769  0.7310  1.9688 -1.3911
 1847TIP3    H2 5548   3.026   3.930   4.693 -0.0357 -1.7864  0.8443
 1848TIP3   OH2 5549   5.388   2.247   4.720  0.0494 -0.6350  0.2008
 1848TIP3    H1 5550   5.324   2.200   4.666 -2.7969  0.1136  2.6214
 1848TIP3    H2 5551   5.403   2.189   4.795  1.3599 -0.2681  0.2486
 1849TIP3   OH2 5552   0.906   2.782   5.020 -0.1111  0.2449  0.3046
 1849TIP3    H1 5553   0.835   2.845   5.037 -1.8667 -1.0330 -1.7573
 1849TIP3    H2 5554   0.864   2.696   5.028  1.2766 -0.5632 -0.7394
 1850TIP3   OH2 5555   4.664   1.763   2.032  0.0011  0.0974 -0.5480
 1850TIP3    H1 5556   4.657   1.755   1.937  0.2146  2.0507 -0.7727
 1850TIP3    H2 5557   4.724   1.837   2.046 -2.7706  2.2799  0.9929
 1851TIP3   OH2 5558   3.949   2.866   1.338 -0.1794  0.7653  0.3460
 1851TIP3    H1 5559   3.949   2.816   1.420 -0.9405  1.2530  0.6562
 1851TIP3    H2 5560   3.922   2.954   1.364 -1.9271  0.5627 -0.6208
 1852TIP3   OH2 5561   3.963   0.301   3.930  0.2257 -0.2410 -0.3477
 1852TIP3    H1 5562   4.042   0.349   3.953 -1.5637  2.2639  1.0826
 1852TIP3    H2 5563   3.994   0.215   3.903  3.4948  0.9942 -0.9926
 1853TIP3   OH2 5564   5.818   2.184   3.735  0.1254  0.3483  0.1492
 1853TIP3    H1 5565   5.797   2.092   3.754  1.8448  0.0256  0.6658
 1853TIP3    H2 5566   5.756   2.234   3.788  0.6560 -0.5518  1.6964
 1854TIP3   OH2 5567   4.171   3.485   2.422 -0.4271  0.1995  0.7780
 1854TIP3    H1 5568   4.094   3.514   2.470  0.1036  1.0249  1.1446
 1854TIP3    H2 5569   4.203   3.563   2.377 -1.0194 -0.5819 -1.1133
 1855TIP3   OH2 5570   1.431   5.752   0.240 -0.1722 -0.6707  0.4219
 1855TIP3    H1 5571   1.426   5.721   0.331 -0.4362  0.9770  1.0000
 1855TIP3    H2 5572   1.518   5.724   0.210  0.3966 -0.2167  1.5813
 1856TIP3   OH2 5573   5.568   3.546   1.018 -0.3991 -0.2678 -1.0087
 1856TIP3    H1 5574   5.656   3.529   1.050 -0.1398  0.2254 -1.4450
 1856TIP3    H2 5575   5.567   3.508   0.930 -0.5732 -0.1401 -1.0619
 1857TIP3   OH2 5576   4.005   2.271   1.635 -0.5462 -0.3520 -0.2283
 1857TIP3    H1 5577   4.057   2.202   1.593  0.4256 -1.1061  2.0578
 1857TIP3    H2 5578   4.051   2.352   1.613 -0.9418 -0.5108 -1.8213
 1858TIP3   OH2 5579   2.517   2.167   2.626  0.4857  0.2944  0.1607
 1858TIP3    H1 5580   2.575   2.161   2.551 -1.5198  0.1816 -1.4585
 1858TIP3    H2 5581   2.552   2.104   2.689  2.7026  1.0245 -0.2602
 1859TIP3   OH2 5582   1.179   5.800   4.654 -0.0965 -0.2392 -0.4340
 1859TIP3    H1 5583   1.258   5.826   4.607  0.6778 -1.1011  0.3507
 1859TIP3    H2 5584   1.203   5.808   4.747 -0.3203 -2.2059 -0.1683
 1860TIP3   OH2 5585   3.808   1.813   1.335 -0.0190  0.5530 -0.0155
 1860TIP3    H1 5586   3.828   1.843   1.246 -0.5600 -0.8539 -0.6479
 1860TIP3    H2 5587   3.838   1.723   1.337 -0.6813  0.3418  0.9999
 1861TIP3   OH2 5588   5.240   2.078   3.066  0.3507  0.2015 -0.2257
 1861TIP3    H1 5589   5.266   1.986   3.066  0.2821  0.1832 -0.5038
 1861TIP3    H2 5590   5.174   2.085   2.997  0.5357  0.5130 -0.3743
 1862TIP3   OH2 5591   5.352   4.402   3.592  0.2281  0.3105 -0.0140
 1862TIP3    H1 5592   5.408   4.405   3.669  2.1450 -3.7651 -0.9433
 1862TIP3    H2 5593   5.300   4.323   3.603 -0.1830  0.1608 -2.3845
 1863TIP3   OH2 5594   0.622   3.237   4.939  0.4613  1.0169  0.0879
 1863TIP3    H1 5595   0.604   3.310   4.879  1.7549  0.3563 -1.1418
 1863TIP3    H2 5596   0.537   3.196   4.952  0.1921  0.9758 -1.5672
 1864TIP3   OH2 5597   4.038   0.591   0.637  0.5609 -0.1462  0.1971
 1864TIP3    H1 5598   3.978   0.541   0.693  0.9669 -0.9616 -0.0706
 1864TIP3    H2 5599   4.048   0.536   0.559  2.5386 -0.6081  0.7029
 1865TIP3   OH2 5600   5.922   5.435   5.020 -0.0573 -0.0104  0.0514
 1865TIP3    H1 5601   6.015   5.429   4.997  0.0095 -0.6734  0.4515
 1865TIP3    H2 5602   5.879   5.374   4.960 -0.0565 -0.7098  0.7413
 1866TIP3   OH2 5603   2.215   2.593   1.480 -0.1724 -0.2591  0.0738
 1866TIP3    H1 5604   2.146   2.635   1.531  0.0950  0.9643 -0.5365
 1866TIP3    H2 5605   2.247   2.662   1.422  0.0621 -1.4057 -1.2033
 1867TIP3   OH2 5606   3.455   1.488   2.785 -0.3543  0.4834  0.5141
 1867TIP3    H1 5607   3.477   1.412   2.839 -1.6229 -0.4985 -0.2718
 1867TIP3    H2 5608   3.402   1.451   2.713 -2.6088  2.3258  1.1164
 1868TIP3   OH2 5609   0.980   3.684   1.094  0.1309 -0.0231 -0.3437
 1868TIP3    H1 5610   0.939   3.728   1.020 -0.0946  0.3506 -0.0038
 1868TIP3    H2 5611   0.906   3.650   1.145  0.1171  2.0786  1.1558
 1869TIP3   OH2 5612   1.577   5.216   1.074  0.3847 -0.5929  0.4360
 1869TIP3    H1 5613   1.583   5.300   1.120  0.9458 -0.3101 -0.1426
 1869TIP3    H2 5614   1.612   5.152   1.136 -2.6565 -0.8901  2.0436
 1870TIP3   OH2 5615   0.134   0.671   3.064 -0.5433 -0.5234 -0.2510
 1870TIP3    H1 5616   0.205   0.607   3.073  0.1141  0.1521 -0.5242
 1870TIP3    H2 5617   0.160   0.743   3.121 -0.6718  0.0164 -0.8641
 1871TIP3   OH2 5618   3.895   4.969   3.354 -0.0515 -0.4869 -0.0797
 1871TIP3    H1 5619   3.898   5.016   3.271  3.5311  1.5238  0.9610
 1871TIP3    H2 5620   3.820   5.007   3.400 -0.1685  0.7057 -1.1920
 1872TIP3   OH2 5621   6.168   0.228   0.284  0.6085 -0.6820 -0.6296
 1872TIP3    H1 5622   6.130   0.145   0.313 -1.4893  0.0606 -1.0827
 1872TIP3    H2 5623   6.220   0.258   0.359 -1.8743 -0.4835  1.1059
 1873TIP3   OH2 5624   6.283   2.366   2.374 -0.2880  0.4648  0.1158
 1873TIP3    H1 5625   6.245   2.384   2.288 -1.3461 -1.8096  0.0453
 1873TIP3    H2 5626   6.339   2.442   2.392  0.0835  0.9252 -2.6276
 1874TIP3   OH2 5627   1.051   2.141   2.907 -0.3975 -0.6033  0.0597
 1874TIP3    H1 5628   1.147   2.146   2.910 -0.3158 -1.3176 -0.8464
 1874TIP3    H2 5629   1.033   2.056   2.867 -1.3992 -0.1797 -0.4255
 1875TIP3   OH2 5630   1.421   4.174   2.894 -0.2362 -0.3269 -0.8150
 1875TIP3    H1 5631   1.329   4.186   2.917  0.0652  0.1134  0.1743
 1875TIP3    H2 5632   1.467   4.246   2.936  0.9110 -1.9566  0.9053
 1876TIP3   OH2 5633   5.242   5.074   4.687  0.0873 -1.0624 -0.1508
 1876TIP3    H1 5634   5.315   5.117   4.642 -1.0591 -1.1320 -2.2265
 1876TIP3    H2 5635   5.182   5.049   4.617 -2.1757 -0.5767  1.4743
 1877TIP3   OH2 5636   4.592   5.193   4.553  0.6488 -0.2664 -0.0161
 1877TIP3    H1 5637   4.567   5.156   4.637  1.1237  1.1791  0.7930
 1877TIP3    H2 5638   4.676   5.235   4.569  1.1541 -0.6772 -1.4266
 1878TIP3   OH2 5639   5.738   0.897   0.293 -0.8178 -0.1351 -0.1488
 1878TIP3    H1 5640   5.665   0.847   0.329 -1.3753  0.2606 -0.6996
 1878TIP3    H2 5641   5.705   0.931   0.210  0.2775 -0.6196 -0.8033
 1879TIP3   OH2 5642   1.541   3.828   4.927  0.1813 -0.5091 -0.7325
 1879TIP3    H1 5643   1.634   3.805   4.933  0.0028 -0.9059  0.9516
 1879TIP3    H2 5644   1.540   3.924   4.925  0.6141 -0.5028 -0.7612
 1880TIP3   OH2 5645   1.148   5.149   1.063  0.5742 -0.8411  0.5761
 1880TIP3    H1 5646   1.094   5.212   1.111  0.1542  0.9842 -2.0480
 1880TIP3    H2 5647   1.086   5.084   1.031  0.4234 -0.6059  0.3787
 1881TIP3   OH2 5648   1.565   0.911   3.451 -0.0214  0.5166 -0.0914
 1881TIP3    H1 5649   1.600   0.845   3.391 -0.2370  0.2475  0.0811
 1881TIP3    H2 5650   1.566   0.869   3.537  1.4241  1.3090  0.3240
 1882TIP3   OH2 5651   2.923   3.331   0.414 -0.4023 -0.1097 -0.2729
 1882TIP3    H1 5652   2.888   3.350   0.327 -0.3512  2.6159  0.2227
 1882TIP3    H2 5653   3.014   3.308   0.398 -0.2485  0.8742 -0.9445
 1883TIP3   OH2 5654   4.367   0.512   5.024 -0.7325  0.1477 -0.0576
 1883TIP3    H1 5655   4.452   0.517   4.981 -0.3468  1.5255  0.8104
 1883TIP3    H2 5656   4.340   0.604   5.036 -0.8581 -0.1653  2.5224
 1884TIP3   OH2 5657   1.671   3.716   3.752 -0.7309 -0.7728 -0.3281
 1884TIP3    H1 5658   1.734   3.675   3.811  1.2444 -0.6736 -2.2356
 1884TIP3    H2 5659   1.625   3.779   3.807 -0.6726 -2.3039  1.6159
 1885TIP3   OH2 5660   0.585   4.692   3.763 -0.1623  0.4083  0.4283
 1885TIP3    H1 5661   0.627   4.720   3.682  0.2387  2.9075  1.3949
 1885TIP3    H2 5662   0.656   4.650   3.812 -0.0223  0.2366  0.0814
 1886TIP3   OH2 5663   0.155   2.181   5.164  0.2104  0.4039 -0.1019
 1886TIP3    H1 5664   0.101   2.103   5.150  0.7137  0.1427 -0.6383
 1886TIP3    H2 5665   0.152   2.227   5.080  0.2577  0.7440  0.0819
 1887TIP3   OH2 5666   0.955   1.112   2.047  0.9532 -0.5825  0.0312
 1887TIP3    H1 5667   1.041   1.153   2.042  1.1153 -1.1248 -2.5132
 1887TIP3    H2 5668   0.971   1.028   2.089  1.4754 -0.2918  0.4322
 1888TIP3   OH2 5669   5.642   1.760   0.969 -0.0581  0.0139  0.0314
 1888TIP3    H1 5670   5.601   1.683   1.009 -0.0951 -0.7743 -1.4506
 1888TIP3    H2 5671   5.575   1.796   0.910  1.5481 -1.9637 -3.3129
 1889TIP3   OH2 5672   1.243   0.221   1.854 -0.6478  0.3700  0.4163
 1889TIP3    H1 5673   1.158   0.265   1.863 -0.4543  1.2908 -1.5969
 1889TIP3    H2 5674   1.236   0.175   1.770  0.3783 -0.6790  0.8882
 1890TIP3   OH2 5675   1.709   1.521   1.003  0.4735  0.0134  0.1402
 1890TIP3    H1 5676   1.778   1.550   0.945  1.5656  1.1979  1.9338
 1890TIP3    H2 5677   1.721   1.426   1.009  0.8520 -0.0154 -0.8886
 1891TIP3   OH2 5678   2.916   0.870   3.514 -0.0834 -0.0874  0.0036
 1891TIP3    H1 5679   3.002   0.852   3.477  0.3413 -0.5381  1.1834
 1891TIP3    H2 5680   2.880   0.784   3.536 -0.2214  0.1730  0.8431
 1892TIP3   OH2 5681   6.079   4.205   4.276 -0.1396  0.1445 -0.0653
 1892TIP3    H1 5682   6.121   4.121   4.255 -0.1280  0.3573 -0.9466
 1892TIP3    H2 5683   6.025   4.187   4.352 -0.7599 -0.8643 -0.7223
 1893TIP3   OH2 5684   2.424   1.264   0.131 -0.2413  0.2672 -0.4056
 1893TIP3    H1 5685   2.499   1.300   0.083  0.4248 -0.1734  0.2807
 1893TIP3    H2 5686   2.448   1.173   0.147 -1.5429 -0.2895 -1.4075
 1894TIP3   OH2 5687   3.332   3.576   2.033  0.5958  0.3877  0.1116
 1894TIP3    H1 5688   3.326   3.657   1.982 -0.5505 -0.3547 -0.9935
 1894TIP3    H2 5689   3.331   3.605   2.125 -4.6372  1.5601  0.0010
 1895TIP3   OH2 5690   3.146   4.748   3.848 -0.1434 -0.5915 -0.3783
 1895TIP3    H1 5691   3.094   4.715   3.775  0.0966 -1.0718 -0.3382
 1895TIP3    H2 5692   3.210   4.679   3.864 -1.8398 -1.7254  2.0237
 1896TIP3   OH2 5693   3.871   2.545   3.779  0.6043  0.2845  0.4582
 1896TIP3    H1 5694   3.948   2.534   3.835  0.3411  1.3915  1.0587
 1896TIP3    H2 5695   3.893   2.618   3.722 -0.2243  1.0190  1.0530
 1897TIP3   OH2 5696   5.297   5.015   1.937  0.2076 -0.4119 -0.1850
 1897TIP3    H1 5697   5.331   5.060   2.015 -0.4059 -1.2106  0.5629
 1897TIP3    H2 5698   5.339   5.060   1.864  0.1834  0.9017  0.5651
 1898TIP3   OH2 5699   0.859   2.171   4.635  0.1043  0.1109  0.2961
 1898TIP3    H1 5700   0.892   2.254   4.670 -2.2468  0.9529  0.7454
 1898TIP3    H2 5701   0.843   2.188   4.543  0.5814 -0.1842  0.1560
 1899TIP3   OH2 5702   5.243   5.665   0.924  0.5176  0.5938 -0.2502
 1899TIP3    H1 5703   5.308   5.731   0.898 -0.4797  2.9357  2.5475
 1899TIP3    H2 5704   5.166   5.685   0.871  0.5999  0.9453 -0.2434
 1900TIP3   OH2 5705   4.203   3.799   2.655 -0.3514 -0.0732  0.0437
 1900TIP3    H1 5706   4.146   3.836   2.723  0.5715 -0.3395  1.0008
 1900TIP3    H2 5707   4.263   3.742   2.704  2.2608  1.9729 -0.5684
 1901TIP3   OH2 5708   3.346   1.661   4.146 -0.1653 -0.6938  0.1383
 1901TIP3    H1 5709   3.252   1.669   4.163 -0.3954 -0.0447 -1.2855
 1901TIP3    H2 5710   3.369   1.575   4.179 -1.1697 -0.6971  0.8828
 1902TIP3   OH2 5711   1.876   2.014   4.824 -0.2116  0.2302 -0.4340
 1902TIP3    H1 5712   1.820   2.092   4.820 -1.1482 -0.4052 -0.2263
 1902TIP3    H2 5713   1.930   2.027   4.901  0.4645  1.2005 -1.0587
 1903TIP3   OH2 5714   2.497   3.432   3.117  0.2099  0.6436 -0.4888
 1903TIP3    H1 5715   2.544   3.513   3.137  0.6120  0.8682 -2.1366
 1903TIP3    H2 5716   2.502   3.425   3.021 -2.5822  0.3561 -0.7070
 1904TIP3   OH2 5717   1.936   0.218   1.890 -0.3299 -0.2732 -0.6103
 1904TIP3    H1 5718   1.922   0.307   1.857 -1.4530 -0.0154  0.4727
 1904TIP3    H2 5719   1.960   0.230   1.982 -1.5170 -1.0995 -0.1687
 1905TIP3   OH2 5720   0.614   3.380   2.006 -0.3255  0.5392  0.2890
 1905TIP3    H1 5721   0.690   3.340   2.048 -0.5628  0.4641  0.6603
 1905TIP3    H2 5722   0.586   3.317   1.940 -0.1698  0.4864  0.2754
 1906TIP3   OH2 5723   2.120   0.907   3.389 -0.3167 -0.1620  0.0195
 1906TIP3    H1 5724   2.045   0.942   3.341 -1.6912 -2.0262  0.6834
 1906TIP3    H2 5725   2.157   0.840   3.332 -1.4022 -1.7535  1.0967
 1907TIP3   OH2 5726   1.201   3.567   1.219  0.4371 -0.1969 -0.3395
 1907TIP3    H1 5727   1.225   3.654   1.250  0.9243 -0.3730 -0.2169
 1907TIP3    H2 5728   1.120   3.581   1.169  1.4913  0.6129 -1.8915
 1908TIP3   OH2 5729   5.381   0.816   5.014  0.4675  0.7115 -0.0383
 1908TIP3    H1 5730   5.326   0.738   5.009  1.0790  0.3310 -2.5703
 1908TIP3    H2 5731   5.375   0.845   5.105 -1.1530 -1.2730  0.5542
 1909TIP3   OH2 5732   3.972   2.120   4.942  0.3622  0.4332  0.3201
 1909TIP3    H1 5733   4.054   2.089   4.979  0.9313 -0.9101 -1.9079
 1909TIP3    H2 5734   3.918   2.041   4.933 -0.7649  1.1246  0.6797
 1910TIP3   OH2 5735   1.584   2.458   2.640 -0.2530 -0.1149 -0.3787
 1910TIP3    H1 5736   1.526   2.458   2.717  0.3280 -0.7840  0.0790
 1910TIP3    H2 5737   1.626   2.372   2.643 -1.5410 -0.8741 -2.4618
 1911TIP3   OH2 5738   2.521   2.104   0.272  0.0831  0.1898  0.1461
 1911TIP3    H1 5739   2.576   2.170   0.233  0.8996 -0.7827 -0.3898
 1911TIP3    H2 5740   2.455   2.153   0.321  1.0658  1.3750  0.3157
 1912TIP3   OH2 5741   4.701   4.577   3.540 -0.6667  0.1681 -0.4928
 1912TIP3    H1 5742   4.647   4.500   3.522 -0.8347 -0.0226  0.7442
 1912TIP3    H2 5743   4.789   4.542   3.551 -0.3594  0.4181 -2.0018
 1913TIP3   OH2 5744   4.033   0.037   3.838  0.3824  0.5083  0.2894
 1913TIP3    H1 5745   4.078  -0.035   3.882  0.8166  0.8915  0.4883
 1913TIP3    H2 5746   4.065   0.035   3.748  0.7760  0.7548  0.4205
 1914TIP3   OH2 5747   2.501   1.061   4.200  0.1844  0.2764 -0.3531
 1914TIP3    H1 5748   2.582   1.108   4.180  0.6890 -0.7980 -0.9889
 1914TIP3    H2 5749   2.521   0.970   4.178 -2.2023  0.3866 -3.7001
 1915TIP3   OH2 5750   3.452   2.437   2.676  0.0494 -0.5651  0.1594
 1915TIP3    H1 5751   3.435   2.374   2.745 -0.2579 -0.1423  0.4750
 1915TIP3    H2 5752   3.369   2.483   2.665  0.4224  0.1537  0.3138
 1916TIP3   OH2 5753   4.791   4.177   3.142  0.0790 -0.9144 -0.9017
 1916TIP3    H1 5754   4.715   4.224   3.178 -0.0605  0.4583 -2.7898
 1916TIP3    H2 5755   4.834   4.242   3.086  3.5280 -1.1756  1.1866
 1917TIP3   OH2 5756   5.710   5.158   3.421  0.1875  0.1027  0.2451
 1917TIP3    H1 5757   5.768   5.129   3.492 -0.7560  0.3943  1.1535
 1917TIP3    H2 5758   5.624   5.164   3.462 -0.6047 -0.8387 -1.2037
 1918TIP3   OH2 5759   5.079   4.616   3.826 -0.0507 -0.5860  0.4419
 1918TIP3    H1 5760   5.169   4.597   3.850 -0.3453 -1.1539  1.1417
 1918TIP3    H2 5761   5.068   4.709   3.844  0.4078 -0.5050  0.3035
 1919TIP3   OH2 5762   1.685   3.876   3.439  0.7013  0.1439  0.1420
 1919TIP3    H1 5763   1.657   3.790   3.471  0.4014  0.7902  1.6980
 1919TIP3    H2 5764   1.773   3.860   3.403  0.0498 -1.0856 -1.0024
 1920TIP3   OH2 5765   5.377   0.075   2.419  0.2216  0.0415  0.2162
 1920TIP3    H1 5766   5.404   0.022   2.344 -1.4292  1.9085 -1.8389
 1920TIP3    H2 5767   5.306   0.025   2.459  1.1470 -0.9914  0.6167
 1921TIP3   OH2 5768   2.031   3.428   3.472 -0.3220 -0.1304 -0.3575
 1921TIP3    H1 5769   2.028   3.341   3.512 -1.5113  0.4193  0.8109
 1921TIP3    H2 5770   1.945   3.439   3.433  0.5261 -0.3033 -2.3930
 1922TIP3   OH2 5771   5.125   0.595   3.380  0.0554 -0.1012  0.2805
 1922TIP3    H1 5772   5.081   0.512   3.367 -0.4009  0.0504  0.8068
 1922TIP3    H2 5773   5.080   0.656   3.323  0.4593 -0.2323 -0.1857
 1923TIP3   OH2 5774   0.201   4.199   1.125  0.2542 -0.2530  0.4079
 1923TIP3    H1 5775   0.130   4.179   1.064  1.6066  0.3762 -1.4968
 1923TIP3    H2 5776   0.169   4.273   1.177 -0.5118 -0.0058 -0.3932
 1924TIP3   OH2 5777   2.238   2.658   1.923  0.1414  0.7372 -0.6046
 1924TIP3    H1 5778   2.143   2.647   1.921  0.2608 -0.4440 -0.5662
 1924TIP3    H2 5779   2.251   2.752   1.934 -1.0156  1.0063 -1.2937
 1925TIP3   OH2 5780   0.573   3.716   1.550 -0.8130  0.2705 -0.1277
 1925TIP3    H1 5781   0.536   3.797   1.516 -2.1261 -0.2719 -0.0346
 1925TIP3    H2 5782   0.621   3.742   1.629 -0.0939  1.1287 -0.8290
 1926TIP3   OH2 5783   2.762   1.910   4.075  0.4528  0.3169 -0.0322
 1926TIP3    H1 5784   2.702   1.984   4.087 -0.6313 -0.7011  1.0772
 1926TIP3    H2 5785   2.812   1.932   3.996 -0.8319  1.5574 -0.5427
 1927TIP3   OH2 5786   1.719   4.661   3.064  0.5619  0.3466  0.4124
 1927TIP3    H1 5787   1.724   4.753   3.037  0.2872 -0.7812 -4.1222
 1927TIP3    H2 5788   1.647   4.659   3.127 -1.1289  2.9162 -1.2352
 1928TIP3   OH2 5789   2.010   5.284   3.312 -0.3756  0.9758 -0.6405
 1928TIP3    H1 5790   2.007   5.378   3.298  1.2792  1.0173 -0.8754
 1928TIP3    H2 5791   2.078   5.271   3.378  0.0628 -0.0957 -1.2680
 1929TIP3   OH2 5792   4.884   4.596   0.703  0.5077 -0.3836 -0.4779
 1929TIP3    H1 5793   4.968   4.574   0.663  0.2315 -0.0917 -1.2322
 1929TIP3    H2 5794   4.854   4.513   0.740  1.0046 -0.5495 -0.4353
 1930TIP3   OH2 5795   5.569   5.822   3.470  0.0497  0.0276  0.2202
 1930TIP3    H1 5796   5.656   5.807   3.433 -0.4152 -1.1085 -0.4828
 1930TIP3    H2 5797   5.538   5.734   3.492 -1.2122  0.3471 -0.2194
 1931TIP3   OH2 5798   4.469   5.099   3.120  0.3406  0.0772 -0.5044
 1931TIP3    H1 5799   4.413   5.100   3.198  0.3196  1.5564 -0.5019
 1931TIP3    H2 5800   4.432   5.030   3.065 -0.4011 -0.1614  0.2666
 1932TIP3   OH2 5801   0.151   5.351   4.748  0.5615 -0.2083  0.1381
 1932TIP3    H1 5802   0.076   5.292   4.745  0.7286 -0.4088 -0.3638
 1932TIP3    H2 5803   0.187   5.341   4.836  1.1459 -1.5760 -0.2289
 1933TIP3   OH2 5804   2.185   5.893   2.254 -0.0214 -0.2107  0.0966
 1933TIP3    H1 5805   2.157   5.946   2.179  0.7559 -0.1643 -0.1719
 1933TIP3    H2 5806   2.205   5.807   2.216  0.5661 -0.1285  0.2125
 1934TIP3   OH2 5807   5.813   3.880   4.101 -0.1507  0.3673  0.2701
 1934TIP3    H1 5808   5.823   3.808   4.164 -0.4951 -0.1421 -0.2472
 1934TIP3    H2 5809   5.835   3.841   4.016 -0.7943  0.7482 -0.0799
 1935TIP3   OH2 5810   4.402   2.953   2.463 -0.4593  0.0462 -0.1231
 1935TIP3    H1 5811   4.471   3.003   2.420  0.2149 -0.3303  0.5008
 1935TIP3    H2 5812   4.327   2.959   2.404 -0.1117  1.0370 -0.4870
 1936TIP3   OH2 5813   4.863   4.650   1.660 -0.3820 -0.0182  0.4379
 1936TIP3    H1 5814   4.946   4.689   1.687  0.3904  0.9400 -2.8362
 1936TIP3    H2 5815   4.888   4.577   1.604 -1.7798 -0.2387  0.0625
 1937TIP3   OH2 5816   1.775   1.458   3.247  0.1715  0.2796  0.2715
 1937TIP3    H1 5817   1.862   1.478   3.282 -0.0570 -0.3787  1.2698
 1937TIP3    H2 5818   1.731   1.410   3.317 -1.1241  0.8794 -0.0930
 1938TIP3   OH2 5819   2.996   4.147   5.109  0.8147  0.3705 -0.4664
 1938TIP3    H1 5820   3.012   4.057   5.138  1.5686  0.7494  0.3433
 1938TIP3    H2 5821   3.005   4.199   5.189  0.6498  1.1964 -0.9784
 1939TIP3   OH2 5822   3.850   4.819   2.822 -0.4304 -0.2283 -0.3878
 1939TIP3    H1 5823   3.944   4.829   2.814 -0.4813  1.2287  0.3300
 1939TIP3    H2 5824   3.831   4.731   2.791  1.3203 -1.0209  0.6642
 1940TIP3   OH2 5825   2.506   0.124   3.235 -0.2686 -0.6768  0.4348
 1940TIP3    H1 5826   2.446   0.191   3.201 -1.9764 -1.7965  1.1044
 1940TIP3    H2 5827   2.592   0.150   3.202 -1.1190  0.9505 -0.6478
 1941TIP3   OH2 5828   5.237   3.669   3.321  0.8232  0.2701  0.2126
 1941TIP3    H1 5829   5.213   3.714   3.402  0.9829  0.9656 -0.1197
 1941TIP3    H2 5830   5.274   3.585   3.350 -0.3130 -0.0496  0.8061
 1942TIP3   OH2 5831   1.900   0.488   0.845 -0.0540  0.4794 -0.2986
 1942TIP3    H1 5832   1.933   0.506   0.757 -0.8431  0.6572 -0.5661
 1942TIP3    H2 5833   1.889   0.574   0.885  2.1851  0.3707  0.7207
 1943TIP3   OH2 5834   5.568   3.015   1.020  0.1232 -0.7510  0.3442
 1943TIP3    H1 5835   5.621   2.935   1.023 -0.3027 -1.1041 -0.9608
 1943TIP3    H2 5836   5.513   3.004   0.943  0.2434  0.9214 -0.0075
 1944TIP3   OH2 5837   6.201   4.958   2.532  0.0813  0.2054 -0.4433
 1944TIP3    H1 5838   6.230   4.928   2.446  0.7915  1.7098 -0.7602
 1944TIP3    H2 5839   6.180   4.878   2.579  0.7750 -0.7119 -1.6334
 1945TIP3   OH2 5840   1.425   4.783   1.608 -0.5927  0.0078 -0.2497
 1945TIP3    H1 5841   1.489   4.713   1.617  0.5462  1.0483  0.0573
 1945TIP3    H2 5842   1.342   4.743   1.632  0.5266 -0.3817  3.5066
 1946TIP3   OH2 5843   0.263   5.308   0.899 -0.0438 -0.2003 -0.4019
 1946TIP3    H1 5844   0.334   5.317   0.962 -0.2235 -1.2043 -0.0413
 1946TIP3    H2 5845   0.187   5.347   0.942 -0.0001 -0.2373 -0.2926
 1947TIP3   OH2 5846   1.768   5.177   0.840 -0.0403  0.1100  0.4544
 1947TIP3    H1 5847   1.839   5.154   0.899 -0.8982  2.2917  2.4878
 1947TIP3    H2 5848   1.707   5.104   0.847  1.0347 -0.8399  0.2282
 1948TIP3   OH2 5849   4.953   1.193   1.713  0.3152 -0.2934 -0.3309
 1948TIP3    H1 5850   4.948   1.246   1.634 -1.1301  0.8607  0.4724
 1948TIP3    H2 5851   4.985   1.108   1.684  0.1102  0.2010 -2.0915
 1949TIP3   OH2 5852   5.005   4.043   2.898 -0.4491  0.0704 -0.0882
 1949TIP3    H1 5853   5.056   4.058   2.978 -0.4852 -1.2387  0.2061
 1949TIP3    H2 5854   4.914   4.038   2.927 -0.6979  1.7188 -0.5208
 1950TIP3   OH2 5855   3.643   1.526   3.756  0.2134 -0.2541  1.1993
 1950TIP3    H1 5856   3.609   1.596   3.812  0.8294 -0.0982  1.3823
 1950TIP3    H2 5857   3.565   1.485   3.718 -0.1273  1.4049  0.0120
 1951TIP3   OH2 5858   6.142   3.001   1.173  0.2789  0.4867  0.0150
 1951TIP3    H1 5859   6.101   3.027   1.091 -2.2813 -2.5883  0.1301
 1951TIP3    H2 5860   6.184   2.917   1.154 -0.1662 -0.1781  1.7414
 1952TIP3   OH2 5861   2.564   3.837   3.987  0.0651  0.3793 -0.0042
 1952TIP3    H1 5862   2.551   3.858   3.894 -0.8779  0.2466  0.0899
 1952TIP3    H2 5863   2.559   3.921   4.032  1.9643  0.6416 -0.1979
 1953TIP3   OH2 5864   2.478   1.100   2.844  0.2651 -0.4252 -0.3615
 1953TIP3    H1 5865   2.489   1.193   2.864 -1.0210 -0.1456 -0.8700
 1953TIP3    H2 5866   2.549   1.080   2.784  1.1520 -0.0334  0.5254
 1954TIP3   OH2 5867   2.302   0.392  -0.030  0.1033 -0.1795  0.7796
 1954TIP3    H1 5868   2.235   0.355   0.028  0.7543 -0.4372  1.3806
 1954TIP3    H2 5869   2.354   0.449   0.027 -0.4460  1.1204  0.0189
 1955TIP3   OH2 5870   4.538   5.047   1.768 -0.0711  0.3660  0.2519
 1955TIP3    H1 5871   4.587   5.060   1.687 -2.8861 -0.6253 -1.7800
 1955TIP3    H2 5872   4.555   5.126   1.819  2.0953  0.8652 -1.0822
 1956TIP3   OH2 5873   0.180   5.804   3.381  0.1993 -0.3332 -0.2121
 1956TIP3    H1 5874   0.103   5.751   3.400 -0.0283 -0.2387 -0.8318
 1956TIP3    H2 5875   0.161   5.844   3.296  1.1565 -0.7430 -0.6406
 1957TIP3   OH2 5876   2.256   0.799   3.904 -0.1559 -0.2413  0.1138
 1957TIP3    H1 5877   2.279   0.892   3.897 -1.3150  0.1893  1.4001
 1957TIP3    H2 5878   2.199   0.783   3.828 -1.3305  0.5893  0.7744
 1958TIP3   OH2 5879   2.604   5.903   0.365  0.5805  0.2814  0.1112
 1958TIP3    H1 5880   2.537   5.867   0.423 -1.0140  0.2829 -1.6156
 1958TIP3    H2 5881   2.596   5.998   0.374 -0.6343  0.3218 -1.0712
 1959TIP3   OH2 5882   4.507   2.754   0.311  0.1648 -0.5758  0.3144
 1959TIP3    H1 5883   4.443   2.825   0.315 -0.6626 -1.3649  1.9004
 1959TIP3    H2 5884   4.536   2.753   0.220 -1.6781  0.1524 -0.3291
 1960TIP3   OH2 5885   3.099   3.796   0.845  0.5340  0.3493  0.6705
 1960TIP3    H1 5886   3.104   3.817   0.752  0.7969  1.9089  1.0089
 1960TIP3    H2 5887   3.189   3.775   0.870  0.5272  0.3186  0.6702
 1961TIP3   OH2 5888   4.632   2.565   3.679  0.2918 -0.0123 -0.2279
 1961TIP3    H1 5889   4.612   2.484   3.725  1.3595 -1.3217 -1.9072
 1961TIP3    H2 5890   4.550   2.589   3.635 -0.2133  0.2203  0.8198
 1962TIP3   OH2 5891   5.685   2.476   2.686  0.2293 -0.4783  0.5240
 1962TIP3    H1 5892   5.706   2.517   2.770 -0.1105  1.2412 -0.1782
 1962TIP3    H2 5893   5.614   2.530   2.650  1.3064 -0.3040 -1.4924
 1963TIP3   OH2 5894   2.486   3.506   3.787 -0.2763  0.2944  0.4631
 1963TIP3    H1 5895   2.446   3.435   3.736  0.8526 -0.0955  0.0907
 1963TIP3    H2 5896   2.460   3.586   3.741  2.2799 -0.1215 -1.9785
 1964TIP3   OH2 5897   1.309   0.465   0.821  0.1707  0.7668 -0.4740
 1964TIP3    H1 5898   1.247   0.454   0.749 -0.9831  0.0896  0.5841
 1964TIP3    H2 5899   1.332   0.558   0.820 -1.1271  1.0929 -0.6812
 1965TIP3   OH2 5900   4.789   0.623   4.838  0.4114  0.3548  0.1510
 1965TIP3    H1 5901   4.750   0.545   4.798 -0.4900  0.5332  0.6553
 1965TIP3    H2 5902   4.814   0.596   4.926 -1.2501  0.9891  0.8593
 1966TIP3   OH2 5903   0.242   1.097   0.823 -0.3844 -0.1465 -0.3057
 1966TIP3    H1 5904   0.238   1.023   0.762  1.6393  0.1203 -0.8582
 1966TIP3    H2 5905   0.315   1.075   0.882  0.1914  1.3334 -0.4255
 1967TIP3   OH2 5906   0.675   5.659   4.509  0.0863 -0.4880  0.2199
 1967TIP3    H1 5907   0.646   5.618   4.427  0.0288 -0.9727  0.4761
 1967TIP3    H2 5908   0.742   5.599   4.543  2.2227  1.1283 -0.8882
 1968TIP3   OH2 5909   0.313   0.654   4.745 -0.0288  0.2792 -0.5401
 1968TIP3    H1 5910   0.230   0.690   4.777  0.2224  0.2451  0.1633
 1968TIP3    H2 5911   0.344   0.599   4.817  1.0934  1.0648 -0.3978
 1969TIP3   OH2 5912   5.607   0.683   0.847 -0.2434  0.1646  0.2770
 1969TIP3    H1 5913   5.552   0.622   0.799  1.5761 -3.7666  2.6466
 1969TIP3    H2 5914   5.547   0.725   0.910 -1.2179 -0.9376  0.1166
 1970TIP3   OH2 5915   2.965   0.432   2.469 -0.0592 -0.3915 -0.1234
 1970TIP3    H1 5916   3.056   0.451   2.493 -0.4755 -0.8524  2.0426
 1970TIP3    H2 5917   2.946   0.349   2.513 -1.6488 -0.0987 -0.2106
 1971TIP3   OH2 5918   2.644   5.366   4.435  0.0340  0.1033  0.3271
 1971TIP3    H1 5919   2.689   5.432   4.382 -1.8626  1.7003  0.6074
 1971TIP3    H2 5920   2.702   5.352   4.510  1.7128 -0.5853 -1.0147
 1972TIP3   OH2 5921   2.090   2.453   0.757 -0.0497 -0.3606  0.4138
 1972TIP3    H1 5922   2.029   2.481   0.826 -1.7334 -2.0530 -0.3078
 1972TIP3    H2 5923   2.083   2.358   0.755  1.3174 -0.4821 -0.9187
 1973TIP3   OH2 5924   3.072   4.198   1.220 -0.5603  0.0179  0.3746
 1973TIP3    H1 5925   2.983   4.231   1.209 -0.6113 -0.5522 -1.2045
 1973TIP3    H2 5926   3.087   4.142   1.144  1.6150  1.1308 -0.1072
 1974TIP3   OH2 5927   1.409   0.466   0.521 -0.2423 -0.4184 -0.3061
 1974TIP3    H1 5928   1.435   0.490   0.432  1.0193  0.6151  0.3169
 1974TIP3    H2 5929   1.325   0.420   0.509  0.0514 -0.5820 -2.0414
 1975TIP3   OH2 5930   2.372   3.038   1.616 -0.1860  0.2745  0.0275
 1975TIP3    H1 5931   2.445   3.086   1.655 -0.0121  0.4210 -0.4664
 1975TIP3    H2 5932   2.300   3.101   1.613 -0.5942 -0.0998  1.2454
 1976TIP3   OH2 5933   2.378   0.925   1.769  0.3790  0.1904  0.0484
 1976TIP3    H1 5934   2.378   1.010   1.813 -2.7118  0.1300  0.3905
 1976TIP3    H2 5935   2.373   0.946   1.676 -0.2538  0.3911  0.1263
 1977TIP3   OH2 5936   0.374   1.852   1.941  0.0040  0.7341 -0.4654
 1977TIP3    H1 5937   0.349   1.944   1.947 -1.4898  0.2448  1.3629
 1977TIP3    H2 5938   0.413   1.832   2.026 -0.5193 -0.5527 -0.5106
 1978TIP3   OH2 5939   6.212   0.815   2.171 -0.3580  0.6412 -0.6802
 1978TIP3    H1 5940   6.231   0.726   2.141 -0.0405  0.2779  0.5407
 1978TIP3    H2 5941   6.267   0.871   2.115  0.3674 -0.0276 -0.6568
 1979TIP3   OH2 5942   2.262   5.121   0.648  0.4192 -0.3875  0.4160
 1979TIP3    H1 5943   2.184   5.167   0.678  0.4436 -0.4311  0.5470
 1979TIP3    H2 5944   2.306   5.183   0.590 -0.3797 -0.8239 -0.6917
 1980TIP3   OH2 5945   4.938   1.364   1.504  0.3078 -0.3024 -0.0223
 1980TIP3    H1 5946   4.973   1.386   1.418  2.7000  0.4118  1.0427
 1980TIP3    H2 5947   4.864   1.423   1.516  0.3241  0.0139 -1.3495
 1981TIP3   OH2 5948   2.191   1.888   1.455  0.1133 -0.3292  0.9426
 1981TIP3    H1 5949   2.208   1.831   1.530 -1.3727 -0.5915  1.1173
 1981TIP3    H2 5950   2.193   1.976   1.491  0.2969 -0.3982  1.1040
 1982TIP3   OH2 5951   1.856   1.376   4.171 -0.2447  0.1805 -0.2904
 1982TIP3    H1 5952   1.879   1.317   4.099  0.5119 -0.5937  0.5624
 1982TIP3    H2 5953   1.789   1.328   4.220  0.6304 -0.1585  0.6117
 1983TIP3   OH2 5954   4.721   3.746   1.969  0.0681  0.1503 -0.3353
 1983TIP3    H1 5955   4.735   3.653   1.986  0.1621 -0.0625 -1.5539
 1983TIP3    H2 5956   4.795   3.789   2.013  1.3815 -0.5404 -1.7753
 1984TIP3   OH2 5957   5.524   5.918   1.727  0.1600 -0.4575  0.4868
 1984TIP3    H1 5958   5.480   5.875   1.654 -0.5299  0.7612  0.1666
 1984TIP3    H2 5959   5.608   5.872   1.734 -0.8138 -2.2938  0.6178
 1985TIP3   OH2 5960   5.516   1.877   3.211  0.4755  0.4346  0.0630
 1985TIP3    H1 5961   5.601   1.865   3.166 -0.4610 -0.6014 -1.5528
 1985TIP3    H2 5962   5.538   1.874   3.304  2.1206 -0.8301 -0.2963
 1986TIP3   OH2 5963   4.908   3.854   1.470  0.2702 -0.0630  0.1754
 1986TIP3    H1 5964   4.928   3.810   1.387  0.0554 -1.0775  0.6427
 1986TIP3    H2 5965   4.994   3.872   1.509  0.3733 -1.2203  0.5432
 1987TIP3   OH2 5966   1.243   2.158   1.656 -0.8850 -0.6926  0.0632
 1987TIP3    H1 5967   1.203   2.165   1.742 -0.4116 -5.0448  0.8654
 1987TIP3    H2 5968   1.176   2.117   1.602 -0.0748 -1.0033 -0.7318
 1988TIP3   OH2 5969   5.486   4.061   3.578 -0.1546 -0.4835 -0.5929
 1988TIP3    H1 5970   5.467   4.036   3.669 -0.6947 -1.5750 -0.9942
 1988TIP3    H2 5971   5.577   4.037   3.565  0.1577  0.3910 -0.1154
 1989TIP3   OH2 5972   5.832   5.143   1.828  0.1910 -0.0408  0.1800
 1989TIP3    H1 5973   5.742   5.112   1.836 -0.4697  1.3983 -1.0627
 1989TIP3    H2 5974   5.885   5.063   1.826 -1.3264 -1.0998 -2.0365
 1990TIP3   OH2 5975   1.637   0.442   0.154  0.2644 -0.0078 -0.6371
 1990TIP3    H1 5976   1.680   0.493   0.086  0.1747 -0.3972 -0.9879
 1990TIP3    H2 5977   1.597   0.507   0.212  2.1164  0.4047  0.2362
 1991TIP3   OH2 5978   3.680   2.609   2.760 -0.2361 -0.8767  0.1922
 1991TIP3    H1 5979   3.773   2.625   2.744 -0.7152  2.3210 -0.1793
 1991TIP3    H2 5980   3.649   2.569   2.678  0.1224  1.9027 -1.4470
 1992TIP3   OH2 5981   1.096   1.921   4.236  0.3362 -0.2380 -0.7604
 1992TIP3    H1 5982   1.150   1.842   4.232  0.2818 -0.3034 -0.2712
 1992TIP3    H2 5983   1.006   1.889   4.231  0.1551 -0.4925  2.1287
 1993TIP3   OH2 5984   6.043   2.437   0.710  0.2632 -0.1960 -0.3124
 1993TIP3    H1 5985   6.085   2.516   0.745  0.4326  0.6054 -2.1913
 1993TIP3    H2 5986   6.107   2.367   0.724  1.7789  0.7622 -1.9686
 1994TIP3   OH2 5987   4.875   4.261   1.658  0.3740  0.2760  0.6930
 1994TIP3    H1 5988   4.869   4.170   1.686  1.2453  0.1153  0.3665
 1994TIP3    H2 5989   4.839   4.311   1.732 -0.2494 -0.3277  0.8081
 1995TIP3   OH2 5990   2.265   5.575   5.058 -0.1971 -0.4454  0.1912
 1995TIP3    H1 5991   2.328   5.523   5.009  0.4215  1.3421 -1.0368
 1995TIP3    H2 5992   2.303   5.663   5.058 -0.8048 -0.1145  2.8394
 1996TIP3   OH2 5993   5.589   3.305   3.606 -0.4501 -0.5128 -0.0353
 1996TIP3    H1 5994   5.587   3.363   3.682  0.5609  0.2180 -0.5490
 1996TIP3    H2 5995   5.520   3.241   3.624 -0.0727 -0.5143  1.6103
 1997TIP3   OH2 5996   6.064   5.180   0.079  0.4495  0.0939  0.1398
 1997TIP3    H1 5997   6.138   5.234   0.050  1.4621 -0.8687  0.8261
 1997TIP3    H2 5998   6.034   5.222   0.160  0.0223  0.6615 -0.2998
 1998TIP3   OH2 5999   5.018   0.361   0.745 -0.5745  0.0368 -0.1810
 1998TIP3    H1 6000   5.013   0.269   0.771 -2.3672  0.4259  1.0703
 1998TIP3    H2 6001   4.931   0.382   0.711 -0.6656  1.5989  0.8762
 1999TIP3   OH2 6002   0.927   1.881   2.594  0.3478  0.0252  0.1989
 1999TIP3    H1 6003   0.987   1.836   2.535 -0.3624  0.6344 -1.0216
 1999TIP3    H2 6004   0.851   1.902   2.540  0.0170  1.3345  1.1146
 2000TIP3   OH2 6005   5.356   4.893   3.105  0.3048  0.0664  0.0032
 2000TIP3    H1 6006   5.332   4.818   3.160 -0.3818  0.4064  0.1837
 2000TIP3    H2 6007   5.399   4.854   3.028  1.0711 -0.4308  0.6604
 2001TIP3   OH2 6008   0.769   4.756   1.595 -0.8275 -0.9056  0.0449
 2001TIP3    H1 6009   0.767   4.663   1.616  0.3025 -1.0990 -0.6569
 2001TIP3    H2 6010   0.758   4.799   1.680 -0.8041 -1.6758  0.4487
 2002TIP3   OH2 6011   6.267   0.566   3.369  0.1680 -0.0900 -0.0500
 2002TIP3    H1 6012   6.277   0.543   3.277  1.7864  2.0538 -0.4839
 2002TIP3    H2 6013   6.337   0.520   3.414  0.5151  0.2984 -0.1885
 2003TIP3   OH2 6014   4.816   1.382   3.909 -0.0893  0.3097  0.6065
 2003TIP3    H1 6015   4.817   1.344   3.997  0.2984  1.4543  1.1226
 2003TIP3    H2 6016   4.734   1.431   3.905  0.0594  0.5522  0.4760
 2004TIP3   OH2 6017   1.694   4.757   2.248 -0.0295 -0.1989 -0.3443
 2004TIP3    H1 6018   1.659   4.723   2.166  2.6600 -3.1489 -0.4625
 2004TIP3    H2 6019   1.788   4.739   2.244  0.0783 -1.9232  3.9134
 2005TIP3   OH2 6020   0.567   3.001   3.643  0.5943 -0.7620  0.7488
 2005TIP3    H1 6021   0.493   2.946   3.619 -0.6128  1.2696 -0.4771
 2005TIP3    H2 6022   0.548   3.028   3.733  0.0968 -0.6729  0.6205
 2006TIP3   OH2 6023   1.304   4.221   2.176 -0.6647 -0.3875 -0.6471
 2006TIP3    H1 6024   1.217   4.199   2.210 -1.2138  1.5677 -0.6831
 2006TIP3    H2 6025   1.359   4.226   2.254 -0.3428 -2.3765 -0.6800
 2007TIP3   OH2 6026   1.424   5.267   4.775 -0.2443 -0.4215  0.2446
 2007TIP3    H1 6027   1.506   5.316   4.775  0.0769 -0.9446  0.4019
 2007TIP3    H2 6028   1.355   5.334   4.769  0.1022  0.1896  2.3729
 2008TIP3   OH2 6029   0.996   0.616   4.302  0.2468  0.3219  0.2745
 2008TIP3    H1 6030   0.901   0.620   4.309  0.0334 -2.0191 -0.1803
 2008TIP3    H2 6031   1.017   0.659   4.219 -0.7049 -1.0504 -0.7320
 2009TIP3   OH2 6032   5.044   3.389   0.759 -0.2111 -0.0500 -0.5116
 2009TIP3    H1 6033   5.062   3.323   0.692  1.5975  2.0104 -2.1974
 2009TIP3    H2 6034   5.036   3.339   0.841 -1.3440 -2.5373 -2.0401
 2010TIP3   OH2 6035   1.643   5.439   4.479  0.2189 -0.9784  0.3783
 2010TIP3    H1 6036   1.724   5.442   4.427  1.3875 -0.7379  2.1142
 2010TIP3    H2 6037   1.589   5.374   4.436  0.4718  0.2890 -2.0153
 2011TIP3   OH2 6038   0.670   0.319   4.388  0.0006 -0.0646  0.2270
 2011TIP3    H1 6039   0.749   0.298   4.438 -0.0426  0.1188  0.3718
 2011TIP3    H2 6040   0.608   0.352   4.453 -0.2202 -0.2710  0.1262
 2012TIP3   OH2 6041   1.511   5.678   3.296  0.5806  0.0848 -0.0442
 2012TIP3    H1 6042   1.533   5.660   3.388  3.1046 -0.4404 -0.6892
 2012TIP3    H2 6043   1.490   5.772   3.295 -2.8544 -0.5062  1.5726
 2013TIP3   OH2 6044   6.326   4.664   3.930  0.6259  0.1720 -0.4419
 2013TIP3    H1 6045   6.327   4.607   4.007  2.6506  1.9743  0.9929
 2013TIP3    H2 6046   6.326   4.605   3.855  0.4964 -1.6603  0.9487
 2014TIP3   OH2 6047   0.103   5.261   1.527 -0.3921  0.3257 -0.2886
 2014TIP3    H1 6048   0.187   5.225   1.500 -1.5996 -2.0249 -1.3243
 2014TIP3    H2 6049   0.124   5.328   1.591  2.2558  0.0268 -0.7331
 2015TIP3   OH2 6050   4.827   2.819   0.309  0.0468 -0.6396  0.4559
 2015TIP3    H1 6051   4.739   2.780   0.311 -0.1847 -0.1247  0.5936
 2015TIP3    H2 6052   4.873   2.772   0.240 -0.1423 -1.3276  0.7896
 2016TIP3   OH2 6053   3.496   5.862   4.563  0.2277  0.5594  0.2131
 2016TIP3    H1 6054   3.508   5.768   4.578 -2.8955  0.0692  0.4589
 2016TIP3    H2 6055   3.458   5.895   4.645  2.0595  2.2677  0.4432
 2017TIP3   OH2 6056   5.245   2.786   2.618 -0.2063 -0.0522  0.8793
 2017TIP3    H1 6057   5.214   2.719   2.679  0.4137  0.4801  1.7974
 2017TIP3    H2 6058   5.207   2.867   2.650 -0.4280  0.1420  0.1476
 2018TIP3   OH2 6059   2.433   4.479   3.457 -0.2104 -0.2911  0.3689
 2018TIP3    H1 6060   2.528   4.470   3.450 -0.1493  0.2241  0.5293
 2018TIP3    H2 6061   2.411   4.434   3.538 -0.2098 -1.1541 -0.1012
 2019TIP3   OH2 6062   2.582   5.915   4.278  0.4508  0.0681 -0.5575
 2019TIP3    H1 6063   2.491   5.892   4.295  1.0305 -1.7812  0.3151
 2019TIP3    H2 6064   2.613   5.848   4.217  1.1354  0.9008 -1.1400
 2020TIP3   OH2 6065   0.465   5.321   1.148 -0.1199  0.0058 -0.2095
 2020TIP3    H1 6066   0.390   5.337   1.205 -1.0698  0.1071 -1.4322
 2020TIP3    H2 6067   0.451   5.233   1.115 -1.0763  0.8778 -2.3388
 2021TIP3   OH2 6068   2.139   2.970   5.007  0.1828  0.0531 -0.0091
 2021TIP3    H1 6069   2.144   3.047   4.950 -1.2396 -0.1724 -0.5029
 2021TIP3    H2 6070   2.188   2.903   4.961 -1.2796 -0.2428 -1.2306
 2022TIP3   OH2 6071   1.272   5.765   3.658  0.5264  0.6110  0.1183
 2022TIP3    H1 6072   1.356   5.789   3.619  0.6926 -0.3646 -0.1414
 2022TIP3    H2 6073   1.292   5.746   3.749  0.9365 -1.3756 -0.3468
 2023TIP3   OH2 6074   1.554   1.910   0.817 -0.4700 -0.3213 -0.3852
 2023TIP3    H1 6075   1.607   1.839   0.853 -0.6081  0.6337  1.8068
 2023TIP3    H2 6076   1.464   1.886   0.837 -0.6123 -0.1647 -0.8261
 2024TIP3   OH2 6077   4.527   1.242   2.027  0.2965 -0.2402  0.4924
 2024TIP3    H1 6078   4.547   1.215   1.937  3.2246  1.8842  0.3547
 2024TIP3    H2 6079   4.583   1.187   2.081  0.9520  0.6666  0.7438
 2025TIP3   OH2 6080   4.455   1.231   4.548 -0.0411 -0.5853  0.3669
 2025TIP3    H1 6081   4.387   1.271   4.601 -0.6209 -0.9551 -0.0832
 2025TIP3    H2 6082   4.494   1.164   4.604  1.4124  1.0120  1.3822
 2026TIP3   OH2 6083   2.217   2.816   1.047 -0.0443 -0.3228 -0.3913
 2026TIP3    H1 6084   2.150   2.781   1.106  0.7860 -0.1479  0.7026
 2026TIP3    H2 6085   2.295   2.764   1.067  0.2938 -0.1422 -1.2310
 2027TIP3   OH2 6086   6.078   5.910   0.841 -0.2413  0.4460  0.4477
 2027TIP3    H1 6087   6.135   5.900   0.917  2.7324  2.9205 -1.2431
 2027TIP3    H2 6088   6.072   6.004   0.826  2.1003  0.1553 -4.1685
 2028TIP3   OH2 6089   6.173   5.758   1.463 -0.0063  0.0346 -0.0078
 2028TIP3    H1 6090   6.136   5.843   1.486  1.5517  0.4830  0.9136
 2028TIP3    H2 6091   6.129   5.696   1.521 -1.9520 -0.0183 -1.4142
 2029TIP3   OH2 6092   5.903   3.724   3.560 -0.1550 -0.5054  0.2339
 2029TIP3    H1 6093   5.877   3.642   3.602  2.0548 -0.7230  1.3244
 2029TIP3    H2 6094   5.983   3.702   3.513 -1.0204  0.4273 -1.7665
 2030TIP3   OH2 6095   3.579   2.586   1.654 -0.5618  0.1602  0.4635
 2030TIP3    H1 6096   3.538   2.591   1.568 -0.6485 -1.1465  0.4035
 2030TIP3    H2 6097   3.673   2.591   1.637 -0.6277  1.8414  0.4827
 2031TIP3   OH2 6098   1.063   5.977   2.849 -0.1419  0.0616 -0.6685
 2031TIP3    H1 6099   1.048   5.883   2.858 -0.9894  0.4005  2.9341
 2031TIP3    H2 6100   1.157   5.986   2.838  0.0390 -1.1930 -0.2901
 2032TIP3   OH2 6101   4.703   1.890   4.334  0.0220 -0.3221  0.3005
 2032TIP3    H1 6102   4.695   1.935   4.418  0.0210 -0.1476  0.2060
 2032TIP3    H2 6103   4.776   1.933   4.290 -0.3938  0.0156 -0.0607
 2033TIP3   OH2 6104   6.066   4.076   2.414 -0.0831 -0.2010  0.5824
 2033TIP3    H1 6105   6.127   4.132   2.462 -0.8928 -0.1503  1.5825
 2033TIP3    H2 6106   6.123   4.018   2.362  0.7852  0.5108  0.7112
 2034TIP3   OH2 6107   2.670   3.520   3.442 -0.5077  0.4994 -0.1435
 2034TIP3    H1 6108   2.611   3.561   3.506 -1.7111  0.1014 -0.9659
 2034TIP3    H2 6109   2.726   3.463   3.494 -0.7390  1.0009  0.6749
 2035TIP3   OH2 6110   2.618   3.272   3.717 -0.1039 -0.2253  0.4293
 2035TIP3    H1 6111   2.587   3.270   3.626  0.9632 -1.2649  0.0568
 2035TIP3    H2 6112   2.601   3.361   3.746 -1.2671 -0.1194 -0.5058
 2036TIP3   OH2 6113   3.010   0.301   3.898 -0.1019 -0.2736 -0.2204
 2036TIP3    H1 6114   2.988   0.213   3.929 -0.5781 -0.9500 -2.3295
 2036TIP3    H2 6115   3.035   0.289   3.807  1.2083  1.6163 -0.1687
 2037TIP3   OH2 6116   3.629   3.563   3.971  0.2069 -0.2139  0.4274
 2037TIP3    H1 6117   3.668   3.623   3.908  1.8626 -0.9011  0.7357
 2037TIP3    H2 6118   3.620   3.480   3.923 -0.2747 -0.2399  0.5575
 2038TIP3   OH2 6119   0.565   1.108   2.656  0.4774 -0.5437 -0.5155
 2038TIP3    H1 6120   0.473   1.087   2.639  0.7179 -2.8424  0.6566
 2038TIP3    H2 6121   0.565   1.202   2.674 -1.7697 -0.6276  0.2431
 2039TIP3   OH2 6122   2.314   1.232   4.328  0.4969  0.0746 -0.6500
 2039TIP3    H1 6123   2.390   1.183   4.297  0.1136  0.4031 -2.2054
 2039TIP3    H2 6124   2.239   1.182   4.298  0.0642 -0.5371  1.3606
 2040TIP3   OH2 6125   2.246   5.041   0.316  0.3853  0.0702  0.1398
 2040TIP3    H1 6126   2.268   5.115   0.373 -1.1095 -0.8608  2.0596
 2040TIP3    H2 6127   2.151   5.037   0.317  0.3382 -0.4788 -1.8664
 2041TIP3   OH2 6128   0.652   3.452   1.529  0.0431  0.2136 -0.5733
 2041TIP3    H1 6129   0.622   3.542   1.516 -1.9985 -0.4976 -1.1313
 2041TIP3    H2 6130   0.742   3.451   1.495 -0.2755  1.7700 -1.5259
 2042TIP3   OH2 6131   4.756   4.965   4.890 -0.0467 -0.1014  0.1457
 2042TIP3    H1 6132   4.750   5.060   4.875  1.5317  0.2008  1.2017
 2042TIP3    H2 6133   4.688   4.928   4.835 -0.0764  1.5849 -1.0322
 2043TIP3   OH2 6134   6.208   3.536   2.775 -0.3689  0.2532 -0.2788
 2043TIP3    H1 6135   6.185   3.443   2.770  2.3588 -0.4562 -1.7698
 2043TIP3    H2 6136   6.199   3.558   2.867 -1.0941 -1.4905  0.1049
 2044TIP3   OH2 6137   5.847   0.871   5.166  0.5958 -0.0193  0.3159
 2044TIP3    H1 6138   5.803   0.956   5.175  0.0208 -0.3326  0.5186
 2044TIP3    H2 6139   5.796   0.812   5.220  1.7139 -0.2484  1.1428
 2045TIP3   OH2 6140   6.049   1.823   1.602  0.4561 -0.1818  0.1610
 2045TIP3    H1 6141   6.011   1.878   1.671  2.5497  0.7876  0.6292
 2045TIP3    H2 6142   6.046   1.878   1.523 -0.5196 -0.7028 -0.1766
 2046TIP3   OH2 6143   2.938   2.893   0.312  0.3909 -0.0828  0.2674
 2046TIP3    H1 6144   2.862   2.913   0.367 -0.9340  0.3435 -1.6101
 2046TIP3    H2 6145   2.905   2.830   0.248  1.8873 -0.5784 -0.0362
 2047TIP3   OH2 6146   0.594   3.887   1.227 -0.2704  0.2614 -0.4568
 2047TIP3    H1 6147   0.499   3.900   1.230 -0.4820 -1.2305  1.9583
 2047TIP3    H2 6148   0.606   3.810   1.172 -0.4487  0.5000 -0.8340
 2048TIP3   OH2 6149   1.060   0.374   3.283 -0.0041  0.1745 -0.7129
 2048TIP3    H1 6150   1.034   0.282   3.289 -0.2808  0.3264  0.6672
 2048TIP3    H2 6151   1.101   0.382   3.197  0.7293 -1.4330 -0.5441
 2049TIP3   OH2 6152   5.346   4.519   2.647 -0.5455  0.1527 -0.1902
 2049TIP3    H1 6153   5.380   4.486   2.564 -2.6421 -2.1005 -0.2731
 2049TIP3    H2 6154   5.257   4.550   2.627 -1.3376 -1.0036  1.2518
 2050TIP3   OH2 6155   6.098   2.218   3.242  0.4568 -0.4170 -0.5160
 2050TIP3    H1 6156   6.154   2.141   3.256 -0.4882 -0.9864  0.3163
 2050TIP3    H2 6157   6.071   2.212   3.151  0.8001 -0.7983 -0.5955
 2051TIP3   OH2 6158   1.668   5.876   2.192  0.0497  0.0453  0.1687
 2051TIP3    H1 6159   1.745   5.875   2.249 -0.0082 -0.0034  0.2472
 2051TIP3    H2 6160   1.609   5.939   2.234 -0.8639 -1.5094  1.3296
 2052TIP3   OH2 6161   0.562   4.474   4.001  0.3656  0.1926  0.0287
 2052TIP3    H1 6162   0.633   4.538   3.999  1.2152 -0.4981  2.8895
 2052TIP3    H2 6163   0.534   4.473   4.093 -2.0409 -0.9835 -0.6455
 2053TIP3   OH2 6164   1.682   5.360   4.739 -0.0179  0.1462 -0.2123
 2053TIP3    H1 6165   1.655   5.402   4.657  1.9420  0.5724 -0.6870
 2053TIP3    H2 6166   1.699   5.433   4.799 -1.8062 -0.1665  0.7630
 2054TIP3   OH2 6167   4.998   3.504   2.758  0.1260 -0.0955 -0.2873
 2054TIP3    H1 6168   5.054   3.429   2.776  1.2051  0.9366  0.8751
 2054TIP3    H2 6169   4.909   3.469   2.762  0.6167 -1.3729 -0.0936
 2055TIP3   OH2 6170   3.230   4.118   0.739 -0.1185  0.1722  0.0767
 2055TIP3    H1 6171   3.213   4.212   0.737  0.3787  0.3106  1.3386
 2055TIP3    H2 6172   3.325   4.111   0.734 -0.2160 -0.3547 -1.6533
 2056TIP3   OH2 6173   5.821   0.488   4.906  0.1124 -0.3025  0.0347
 2056TIP3    H1 6174   5.805   0.563   4.849  0.5256 -1.6358 -1.9379
 2056TIP3    H2 6175   5.739   0.475   4.952 -0.2663  0.7750 -0.3106
 2057TIP3   OH2 6176   2.076   5.158   4.832  0.9021 -0.1322  0.3349
 2057TIP3    H1 6177   2.155   5.119   4.794 -0.7337 -1.6066 -1.8303
 2057TIP3    H2 6178   2.027   5.192   4.757 -1.0567 -0.3288  1.4357
 2058TIP3   OH2 6179   6.122   2.495   0.998 -0.4295  0.5445  0.4351
 2058TIP3    H1 6180   6.152   2.558   0.931  0.3140  1.4594  1.5763
 2058TIP3    H2 6181   6.027   2.495   0.991 -0.3398  0.0211 -1.1397
 2059TIP3   OH2 6182   4.164   3.536   0.567  0.0640 -0.2535  0.0212
 2059TIP3    H1 6183   4.187   3.445   0.549 -0.4276 -0.9510  2.5331
 2059TIP3    H2 6184   4.123   3.533   0.654  0.2951  2.4011  0.2845
 2060TIP3   OH2 6185   4.813   1.614   4.354  0.0558  0.0892  0.5763
 2060TIP3    H1 6186   4.797   1.708   4.347 -1.4218 -0.0838  1.2645
 2060TIP3    H2 6187   4.737   1.580   4.402  0.0174 -1.6181 -0.6221
 2061TIP3   OH2 6188   5.135   5.130   0.357 -0.0778  0.6850  0.4228
 2061TIP3    H1 6189   5.105   5.040   0.350  0.7944  0.2958  1.4429
 2061TIP3    H2 6190   5.068   5.181   0.312 -0.4147 -0.4944 -0.4571
 2062TIP3   OH2 6191   3.882   5.296   2.298 -0.5546 -0.1111 -0.3007
 2062TIP3    H1 6192   3.890   5.390   2.311 -1.4086 -0.2935  2.0146
 2062TIP3    H2 6193   3.967   5.260   2.323  0.0923  0.0661 -2.0945
 2063TIP3   OH2 6194   3.752   4.637   4.325 -0.2317 -0.1989 -0.0840
 2063TIP3    H1 6195   3.742   4.696   4.400 -0.3103  0.1021 -0.3319
 2063TIP3    H2 6196   3.837   4.596   4.338  1.1678  2.1089 -1.4209
 2064TIP3   OH2 6197   6.075   2.515   3.049 -0.2558 -0.0492  0.3681
 2064TIP3    H1 6198   6.080   2.519   3.145 -0.9787  0.7374  0.3942
 2064TIP3    H2 6199   5.985   2.485   3.032  0.0862 -0.8430 -0.0633
 2065TIP3   OH2 6200   3.239   4.378   2.424  0.2219 -0.1457 -0.3422
 2065TIP3    H1 6201   3.150   4.344   2.428  0.7251 -1.5121 -0.0904
 2065TIP3    H2 6202   3.261   4.378   2.331  0.1612 -0.3600 -0.3567
 2066TIP3   OH2 6203   0.195   3.434   0.395 -0.4636  0.1974  0.5067
 2066TIP3    H1 6204   0.116   3.448   0.343  0.8678  2.6530 -1.0250
 2066TIP3    H2 6205   0.251   3.380   0.340  0.1177  1.0339  0.2640
 2067TIP3   OH2 6206   2.004   5.935   1.190  0.9852 -0.0600 -0.4882
 2067TIP3    H1 6207   2.091   5.896   1.193  1.4434  0.8742 -1.1349
 2067TIP3    H2 6208   1.982   5.952   1.282  1.7255  0.2298 -0.3602
 2068TIP3   OH2 6209   2.928   2.778   4.304  0.1354  0.5531  0.1647
 2068TIP3    H1 6210   2.972   2.861   4.322  0.2261  0.2358  1.4986
 2068TIP3    H2 6211   2.861   2.800   4.239 -1.5947  2.2468  2.3606
 2069TIP3   OH2 6212   5.750   4.599   3.911 -0.4788 -0.2199  0.2211
 2069TIP3    H1 6213   5.737   4.674   3.969 -1.9754  0.2670 -0.6879
 2069TIP3    H2 6214   5.807   4.632   3.841  0.3366 -0.4676  0.7503
 2070TIP3   OH2 6215   1.404   0.948   0.630  0.1741  0.0895  0.2019
 2070TIP3    H1 6216   1.362   0.973   0.713 -0.0451 -0.9872  0.4254
 2070TIP3    H2 6217   1.457   0.872   0.653  2.6901  1.6642  0.0472
 2071TIP3   OH2 6218   2.497   0.560   3.119  0.1661 -0.1048 -0.1083
 2071TIP3    H1 6219   2.505   0.472   3.084 -2.9800 -0.9827  1.0451
 2071TIP3    H2 6220   2.545   0.557   3.202 -0.3832 -0.9327  0.1925
 2072TIP3   OH2 6221   6.218   4.661   2.000  0.3011 -0.4880  0.4984
 2072TIP3    H1 6222   6.221   4.708   2.083 -1.1421 -2.1922  1.5974
 2072TIP3    H2 6223   6.202   4.729   1.934 -0.9383  0.6549  1.9130
 2073TIP3   OH2 6224   0.572   5.648   3.673  0.1587 -0.6658  0.1316
 2073TIP3    H1 6225   0.514   5.577   3.701  2.3316 -1.9344  1.7070
 2073TIP3    H2 6226   0.615   5.677   3.754  0.5164  1.3577 -0.7325
 2074TIP3   OH2 6227   3.696   2.405   3.946  0.1751 -0.3678 -0.0838
 2074TIP3    H1 6228   3.764   2.448   3.895 -0.4467  1.4668  0.5465
 2074TIP3    H2 6229   3.621   2.399   3.887  0.3958 -1.0173 -0.3071
 2075TIP3   OH2 6230   1.298   3.469   0.338  0.0972 -0.3428  0.5267
 2075TIP3    H1 6231   1.362   3.507   0.398 -0.2939  2.0867 -0.4701
 2075TIP3    H2 6232   1.341   3.390   0.304  1.6203 -0.0099  1.5736
 2076TIP3   OH2 6233   1.471   5.327   1.352 -0.2881 -0.5570 -0.4717
 2076TIP3    H1 6234   1.438   5.269   1.420 -0.2033 -0.1000 -0.0334
 2076TIP3    H2 6235   1.393   5.365   1.312 -0.3618  1.4451  1.3584
 2077TIP3   OH2 6236   3.845   0.737   3.994 -0.2636 -0.5472 -0.3526
 2077TIP3    H1 6237   3.938   0.718   3.980  0.1894  2.3992 -2.2871
 2077TIP3    H2 6238   3.800   0.664   3.953  1.2145 -1.2475 -0.8217
 2078TIP3   OH2 6239   5.954   4.493   2.673 -0.1047 -0.4357 -0.2245
 2078TIP3    H1 6240   5.898   4.469   2.599  2.1062 -2.9014 -1.2698
 2078TIP3    H2 6241   6.034   4.526   2.632  0.3395  0.2358  1.1494
 2079TIP3   OH2 6242   3.999   1.774   3.484 -0.2893  0.2986  0.6465
 2079TIP3    H1 6243   3.934   1.823   3.534  0.7645  2.5176 -0.0228
 2079TIP3    H2 6244   4.078   1.776   3.538 -0.3397 -1.1365  0.8154
 2080TIP3   OH2 6245   4.149   5.510   3.341  0.0107  0.0641 -0.7891
 2080TIP3    H1 6246   4.219   5.528   3.278 -0.1814  0.8521 -0.7765
 2080TIP3    H2 6247   4.099   5.439   3.300  0.3498  0.0315 -1.1632
 2081TIP3   OH2 6248   2.239   2.873   3.936  0.4085  0.5726 -0.4307
 2081TIP3    H1 6249   2.208   2.964   3.935 -0.0976  0.4100 -0.0780
 2081TIP3    H2 6250   2.332   2.879   3.916  0.3340  1.1535 -0.6155
 2082TIP3   OH2 6251   1.939   0.588   3.276 -0.3227  0.3066  0.8227
 2082TIP3    H1 6252   2.000   0.605   3.347 -1.6158  2.0388  1.5788
 2082TIP3    H2 6253   1.876   0.525   3.312  0.6080 -0.9994  0.2448
 2083TIP3   OH2 6254   0.069   0.620   0.144 -0.0356  0.2797 -0.7191
 2083TIP3    H1 6255   0.115   0.543   0.111 -0.1775 -0.4906  0.7955
 2083TIP3    H2 6256   0.087   0.620   0.238 -2.4362  0.4092 -0.1962
 2084TIP3   OH2 6257   0.189   1.699   5.217 -0.2011 -0.2544  0.0784
 2084TIP3    H1 6258   0.190   1.607   5.193  2.5333 -0.2808 -0.1082
 2084TIP3    H2 6259   0.193   1.746   5.133  1.2736 -0.1149  0.1860
 2085TIP3   OH2 6260   5.724   5.779   1.561 -0.1768  0.3867  0.2829
 2085TIP3    H1 6261   5.814   5.782   1.592  0.8019  3.8583 -2.2200
 2085TIP3    H2 6262   5.728   5.728   1.481 -0.8684 -0.9916  1.0977
 2086TIP3   OH2 6263   5.305   3.255   4.702  0.3511 -0.4771 -0.2259
 2086TIP3    H1 6264   5.230   3.232   4.756 -0.1162 -1.4754 -1.2514
 2086TIP3    H2 6265   5.266   3.280   4.618  0.8782  3.1519  0.4487
 2087TIP3   OH2 6266   3.730   3.998   0.502  0.3499 -0.3462  0.0845
 2087TIP3    H1 6267   3.804   4.058   0.495  1.4733 -1.5506  1.2759
 2087TIP3    H2 6268   3.737   3.941   0.426  1.3004 -1.1341  0.7376
 2088TIP3   OH2 6269   1.118   5.441   3.995  0.4282 -0.1593 -0.0065
 2088TIP3    H1 6270   1.096   5.434   4.088 -0.1913 -1.0639 -0.2079
 2088TIP3    H2 6271   1.212   5.458   3.994  0.4754 -0.3083  0.7739
 2089TIP3   OH2 6272   4.129   0.424   5.086 -0.5674  0.4781 -0.1158
 2089TIP3    H1 6273   4.219   0.437   5.057 -1.2398  3.8168 -1.1277
 2089TIP3    H2 6274   4.085   0.386   5.010 -0.2777 -0.1165  0.0051
 2090TIP3   OH2 6275   5.535   1.050   0.527  0.2130  0.4672 -0.2436
 2090TIP3    H1 6276   5.619   1.080   0.561 -0.2883  0.6792  0.8543
 2090TIP3    H2 6277   5.500   0.993   0.596 -0.0195 -0.5853 -1.1903
 2091TIP3   OH2 6278   5.038   2.761   4.562  0.4062 -0.4829  0.0078
 2091TIP3    H1 6279   5.131   2.741   4.553  0.1844 -0.8481 -1.9238
 2091TIP3    H2 6280   4.999   2.731   4.479 -1.6276 -1.4436  1.2270
 2092TIP3   OH2 6281   4.947   0.895   1.578 -1.0884 -0.4773 -0.2412
 2092TIP3    H1 6282   4.868   0.929   1.620 -0.2399 -0.0249  1.0407
 2092TIP3    H2 6283   4.925   0.891   1.485 -1.7090  2.2677 -0.2800
 2093TIP3   OH2 6284   3.338   0.947   3.724 -0.7775  0.1313 -0.2473
 2093TIP3    H1 6285   3.264   0.928   3.782 -0.0209  0.3124  0.8141
 2093TIP3    H2 6286   3.330   1.040   3.704 -1.3130 -0.0378 -0.8362
 2094TIP3   OH2 6287   1.123   3.695   2.337  0.6045 -0.0824  0.5872
 2094TIP3    H1 6288   1.119   3.768   2.399  0.1122  0.2850  0.1308
 2094TIP3    H2 6289   1.192   3.720   2.275  2.6785 -1.4398  2.1924
 2095TIP3   OH2 6290   1.246   5.687   1.507 -0.5327 -0.1486  0.0540
 2095TIP3    H1 6291   1.219   5.770   1.468 -0.3724 -0.6663 -1.1805
 2095TIP3    H2 6292   1.237   5.622   1.437  0.2226 -1.0121  0.7254
 2096TIP3   OH2 6293   1.737   3.266   2.666 -0.2439  0.5163 -0.1253
 2096TIP3    H1 6294   1.804   3.273   2.598 -0.5029  0.7374 -0.3640
 2096TIP3    H2 6295   1.702   3.355   2.675 -0.7951  0.3237 -0.3050
 2097TIP3   OH2 6296   1.001   3.192   4.084  0.0435 -0.0732  0.1691
 2097TIP3    H1 6297   0.974   3.121   4.025  0.3864  0.5941 -0.8109
 2097TIP3    H2 6298   0.925   3.250   4.088  0.4729  0.5615 -0.6762
 2098TIP3   OH2 6299   5.160   5.041   0.911 -0.0847  0.0993  0.1727
 2098TIP3    H1 6300   5.242   5.079   0.943  0.3477 -0.9465  0.3441
 2098TIP3    H2 6301   5.172   4.946   0.920 -1.1406 -0.0874 -0.2252
 2099TIP3   OH2 6302   0.952   2.750   3.034 -0.0937  0.1990 -0.5311
 2099TIP3    H1 6303   0.896   2.683   3.073  1.4013 -0.8926 -0.1239
 2099TIP3    H2 6304   0.978   2.805   3.108  0.7724 -0.3883 -0.3784
 2100TIP3   OH2 6305   5.781   3.055   1.540  0.0659 -0.4112  0.0669
 2100TIP3    H1 6306   5.766   3.147   1.561  0.4401 -0.3984  0.2961
 2100TIP3    H2 6307   5.857   3.057   1.481  1.0482 -0.6718  1.2747
 2101TIP3   OH2 6308   3.284   4.323   2.172 -0.1811 -0.3559  0.3851
 2101TIP3    H1 6309   3.365   4.363   2.141 -0.6180  0.1299 -0.1655
 2101TIP3    H2 6310   3.310   4.236   2.202  0.1505 -1.3209 -2.3297
 2102TIP3   OH2 6311   2.289   2.418   3.658 -0.0552 -0.4272  0.0238
 2102TIP3    H1 6312   2.202   2.409   3.620  0.6114 -0.1319 -1.6289
 2102TIP3    H2 6313   2.326   2.496   3.617  0.7363 -0.1317  1.2367
 2103TIP3   OH2 6314   1.433   0.844   0.170  0.5911 -0.1613 -0.5569
 2103TIP3    H1 6315   1.507   0.789   0.194  0.3061  0.1286  1.1176
 2103TIP3    H2 6316   1.439   0.919   0.230 -0.7999  0.0757 -0.6862
 2104TIP3   OH2 6317   1.489   2.428   2.911  0.1828  0.4406  0.1096
 2104TIP3    H1 6318   1.454   2.514   2.891  0.4238  0.4420 -0.3205
 2104TIP3    H2 6319   1.534   2.439   2.995 -1.1323  0.3488  0.8449
 2105TIP3   OH2 6320   3.576   5.086   4.486  0.0311 -0.2683 -0.8997
 2105TIP3    H1 6321   3.598   5.176   4.466 -0.8554 -0.2525 -1.8417
 2105TIP3    H2 6322   3.509   5.062   4.423 -1.9823 -0.6243  1.2328
 2106TIP3   OH2 6323   2.258   5.078   1.843  0.1895  0.0335  0.2314
 2106TIP3    H1 6324   2.251   5.071   1.748  0.9078 -0.1953  0.1872
 2106TIP3    H2 6325   2.261   4.987   1.873 -1.1537  0.0789  0.5793
 2107TIP3   OH2 6326   1.415   4.518   1.224 -0.0165 -0.5272 -0.2682
 2107TIP3    H1 6327   1.400   4.613   1.220  0.0883 -0.4523  0.8946
 2107TIP3    H2 6328   1.506   4.510   1.254 -0.9066 -0.9818  2.5056
 2108TIP3   OH2 6329   2.451   3.318   2.132  0.6378  0.8049 -0.2506
 2108TIP3    H1 6330   2.540   3.351   2.129  1.0590 -0.2822 -0.0550
 2108TIP3    H2 6331   2.456   3.230   2.094 -0.4908  1.0193 -0.9573
 2109TIP3   OH2 6332   3.049   0.782   1.662 -0.0079 -0.1921  0.0856
 2109TIP3    H1 6333   3.036   0.744   1.749 -0.4516  0.6385  0.3952
 2109TIP3    H2 6334   2.963   0.814   1.636  0.0630 -0.6843 -0.7871
 2110TIP3   OH2 6335   2.953   4.360   4.920 -0.5328  0.0740 -0.2807
 2110TIP3    H1 6336   2.977   4.274   4.955 -2.6571 -0.0463  1.0703
 2110TIP3    H2 6337   3.018   4.420   4.956  0.7480 -0.8666 -0.9125
 2111TIP3   OH2 6338   3.571   4.741   3.511  0.7476  0.1556  0.0303
 2111TIP3    H1 6339   3.540   4.772   3.426  1.0818 -2.2495 -1.0506
 2111TIP3    H2 6340   3.492   4.709   3.555  1.0015 -2.1886 -1.0502
 2112TIP3   OH2 6341   5.172   2.128   4.620  0.2221  0.6374  0.2788
 2112TIP3    H1 6342   5.080   2.105   4.608  0.3366  0.9301 -1.5135
 2112TIP3    H2 6343   5.208   2.125   4.531  2.2428 -0.7407  1.0836
 2113TIP3   OH2 6344   1.930   3.730   0.292  0.0148  0.0865  0.0988
 2113TIP3    H1 6345   1.997   3.694   0.349  1.4170  0.1373 -1.4520
 2113TIP3    H2 6346   1.957   3.821   0.277 -0.7093  0.2760 -0.1017
 2114TIP3   OH2 6347   3.631   3.035   0.178  0.0100  0.1695 -0.1288
 2114TIP3    H1 6348   3.644   3.095   0.105  0.6284 -1.0733 -1.0744
 2114TIP3    H2 6349   3.715   3.034   0.224  0.2673 -0.5462 -0.5870
 2115TIP3   OH2 6350   1.176   3.248   2.235  0.1063 -0.6866  0.4678
 2115TIP3    H1 6351   1.259   3.201   2.229  0.1248 -0.7002  0.8252
 2115TIP3    H2 6352   1.114   3.194   2.186 -0.0633 -1.5074  1.5659
 2116TIP3   OH2 6353   3.435   3.636   2.860 -0.0521 -0.1848 -0.1318
 2116TIP3    H1 6354   3.449   3.567   2.925 -0.2977 -0.3064 -0.2059
 2116TIP3    H2 6355   3.391   3.592   2.787  0.6856 -0.1631 -0.6038
 2117TIP3   OH2 6356   5.767   6.015   2.651  0.2087  0.2090 -0.4937
 2117TIP3    H1 6357   5.684   5.983   2.686  0.1514  1.8074  0.9427
 2117TIP3    H2 6358   5.834   5.966   2.699  0.1114  0.1699 -0.3993
 2118TIP3   OH2 6359   4.537   0.257   1.124 -0.1868  0.4049  0.2465
 2118TIP3    H1 6360   4.499   0.302   1.048  0.2600 -0.8862 -0.7917
 2118TIP3    H2 6361   4.631   0.268   1.114 -0.1505  1.9169  1.7443
 2119TIP3   OH2 6362   4.419   1.204   1.021  0.2056 -0.0407 -0.0194
 2119TIP3    H1 6363   4.464   1.156   0.952 -1.0407  0.2137 -1.0443
 2119TIP3    H2 6364   4.405   1.139   1.090 -0.2338 -0.8139 -0.8143
 2120TIP3   OH2 6365   0.274   3.750   3.322  0.3558 -0.1840  0.5060
 2120TIP3    H1 6366   0.345   3.799   3.280 -1.4476  2.1332 -0.0043
 2120TIP3    H2 6367   0.301   3.744   3.413  1.4349  0.1889  0.2364
 2121TIP3   OH2 6368   5.503   1.555   1.365  0.0822 -0.5864  0.7750
 2121TIP3    H1 6369   5.599   1.555   1.371  0.1240 -0.0699  0.1754
 2121TIP3    H2 6370   5.474   1.519   1.449  0.8043 -0.8916  0.9037
 2122TIP3   OH2 6371   3.194   0.575   2.201 -0.2661  0.0144 -0.1758
 2122TIP3    H1 6372   3.273   0.603   2.246  0.0610  0.6941 -1.1355
 2122TIP3    H2 6373   3.195   0.480   2.208  0.9864 -0.0329 -0.7168
 2123TIP3   OH2 6374   4.470   5.168   2.548 -0.3922  0.2704 -0.0456
 2123TIP3    H1 6375   4.422   5.242   2.511 -1.3402 -0.7766 -0.9809
 2123TIP3    H2 6376   4.523   5.135   2.476  1.8251  1.3988  0.9666
 2124TIP3   OH2 6377   5.692   1.095   2.468 -0.2557  0.3105  0.3590
 2124TIP3    H1 6378   5.745   1.154   2.521 -0.4132  0.5078  0.2983
 2124TIP3    H2 6379   5.603   1.108   2.499 -0.3982  0.6914 -0.1950
 2125TIP3   OH2 6380   5.831   1.867   2.414  0.2940 -0.2193 -0.1414
 2125TIP3    H1 6381   5.865   1.790   2.370  0.6535 -0.0105 -0.2319
 2125TIP3    H2 6382   5.812   1.838   2.503  0.0895 -0.4992 -0.2747
 2126TIP3   OH2 6383   0.475   0.505   0.077 -0.0393  0.2894  0.4442
 2126TIP3    H1 6384   0.549   0.566   0.072 -0.4907  1.0176  1.9845
 2126TIP3    H2 6385   0.421   0.528   0.002  0.6224  0.6600  0.0638
 2127TIP3   OH2 6386   6.319   3.476   2.352  0.4202  0.8211 -0.5372
 2127TIP3    H1 6387   6.279   3.551   2.308 -0.6104  0.8601  0.4378
 2127TIP3    H2 6388   6.409   3.505   2.371 -0.0645  1.9489  0.1319
 2128TIP3   OH2 6389   3.416   3.903   3.934  0.0433  0.1208 -0.1979
 2128TIP3    H1 6390   3.461   3.912   4.017 -0.0210 -0.6234 -0.0724
 2128TIP3    H2 6391   3.323   3.895   3.957 -0.0903  0.9969 -0.4121
 2129TIP3   OH2 6392   0.552   1.845   2.601 -0.1916 -0.1119 -0.3733
 2129TIP3    H1 6393   0.461   1.869   2.582 -0.4604  0.0327  0.9593
 2129TIP3    H2 6394   0.594   1.838   2.515 -1.7695 -1.4393 -1.0906
 2130TIP3   OH2 6395   5.482   5.930   1.353 -0.0692 -0.0375  0.0720
 2130TIP3    H1 6396   5.575   5.932   1.375  0.2599 -0.2651 -1.1822
 2130TIP3    H2 6397   5.442   5.876   1.421  0.2885  1.9871  2.0142
 2131TIP3   OH2 6398   2.735   2.642   5.070 -0.2806 -0.0536  0.0509
 2131TIP3    H1 6399   2.647   2.620   5.102 -0.1779  0.3183  0.6051
 2131TIP3    H2 6400   2.763   2.564   5.023 -0.6806 -0.3915  0.3593
 2132TIP3   OH2 6401   2.817   5.523   2.028 -0.5075  0.0878 -0.4707
 2132TIP3    H1 6402   2.738   5.499   2.076  0.6388 -1.0409  0.9053
 2132TIP3    H2 6403   2.866   5.442   2.020  1.6068  1.1617  0.7696
 2133TIP3   OH2 6404   3.527   1.018   3.169 -0.2993  0.3690 -0.3027
 2133TIP3    H1 6405   3.499   1.003   3.078 -2.2124 -1.0860  0.4473
 2133TIP3    H2 6406   3.586   0.945   3.188 -1.3114 -0.3772  0.1171
 2134TIP3   OH2 6407   1.799   0.745   4.555 -0.6093 -0.0147  0.4236
 2134TIP3    H1 6408   1.744   0.689   4.610 -1.2723  0.2335  0.0300
 2134TIP3    H2 6409   1.784   0.833   4.589 -1.0827  0.1474 -0.2032
 2135TIP3   OH2 6410   1.376   5.140   4.503 -0.0896 -0.0937  0.1182
 2135TIP3    H1 6411   1.283   5.135   4.524 -0.2188  0.1515 -0.3722
 2135TIP3    H2 6412   1.416   5.181   4.579 -0.3170 -0.5896  0.5101
 2136TIP3   OH2 6413   4.481   5.032   1.118 -0.4915 -0.3866 -0.1027
 2136TIP3    H1 6414   4.507   4.947   1.153 -0.4023 -0.6398 -0.7551
 2136TIP3    H2 6415   4.447   5.012   1.030 -1.2249  0.1546  0.0531
 2137TIP3   OH2 6416   5.030   1.067   2.625  0.4892 -0.1869  0.0153
 2137TIP3    H1 6417   5.004   0.988   2.673  2.6510  0.1400  1.9152
 2137TIP3    H2 6418   5.103   1.039   2.570 -0.3915 -0.0057 -1.3074
 2138TIP3   OH2 6419   0.515   3.104   5.217  0.4194  0.0922 -0.1613
 2138TIP3    H1 6420   0.439   3.050   5.196  1.0062 -0.2810 -1.4785
 2138TIP3    H2 6421   0.584   3.070   5.159  1.7439  0.0603  1.3749
 2139TIP3   OH2 6422   5.957   0.495   3.405 -0.0664 -0.1980  0.1644
 2139TIP3    H1 6423   5.949   0.508   3.310 -0.2783 -0.1655  0.1880
 2139TIP3    H2 6424   6.014   0.418   3.413  0.9943  0.5418  0.0235
 2140TIP3   OH2 6425   1.705   2.626   5.046  0.4960  0.4635 -0.1326
 2140TIP3    H1 6426   1.667   2.710   5.021 -0.8028 -0.6165 -2.0258
 2140TIP3    H2 6427   1.800   2.640   5.044  0.3688  1.3222 -2.6993
 2141TIP3   OH2 6428   3.922   0.159   2.434  0.0670 -0.4427 -0.1857
 2141TIP3    H1 6429   3.971   0.087   2.393  0.6389 -1.6590  2.3958
 2141TIP3    H2 6430   3.858   0.115   2.490 -0.5949  1.1038  0.3203
 2142TIP3   OH2 6431   1.718   1.964   1.976  0.4022  0.1553  0.6892
 2142TIP3    H1 6432   1.728   1.885   2.029  1.5933 -1.7167 -2.0951
 2142TIP3    H2 6433   1.805   1.979   1.939 -0.9266 -0.5368 -3.1171
 2143TIP3   OH2 6434   4.776   0.160   5.197  0.2581 -0.0645  0.5687
 2143TIP3    H1 6435   4.733   0.237   5.160  0.4792  1.2766  2.9143
 2143TIP3    H2 6436   4.850   0.144   5.138  0.3474  1.6935  0.1370
 2144TIP3   OH2 6437   1.055   0.415   4.773  0.3393  0.4586  0.5400
 2144TIP3    H1 6438   1.140   0.459   4.774  0.7168 -0.2423  0.1469
 2144TIP3    H2 6439   1.044   0.384   4.683  0.9157 -1.7643  1.1628
 2145TIP3   OH2 6440   3.663   3.758   4.424 -0.6759 -0.2735 -0.0221
 2145TIP3    H1 6441   3.702   3.678   4.458 -1.4609 -0.5641  0.2104
 2145TIP3    H2 6442   3.709   3.829   4.470 -1.8233 -0.6512  1.8244
 2146TIP3   OH2 6443   2.118   5.424   4.442  0.0053 -0.4330  0.5189
 2146TIP3    H1 6444   2.097   5.460   4.528  0.1721  0.2456  0.2847
 2146TIP3    H2 6445   2.213   5.411   4.445  0.2422  0.9507 -0.0418
 2147TIP3   OH2 6446   0.931   0.360   1.190 -0.6581  0.4360 -0.0126
 2147TIP3    H1 6447   1.002   0.373   1.127 -0.5573  0.0190  0.0113
 2147TIP3    H2 6448   0.860   0.417   1.159 -1.2529 -1.0138 -1.4906
 2148TIP3   OH2 6449   4.740   4.242   0.189  0.0607 -0.1649  0.7752
 2148TIP3    H1 6450   4.708   4.288   0.266  0.6256  1.1183  0.2850
 2148TIP3    H2 6451   4.834   4.260   0.188  0.2324 -1.0485  0.3690
 2149TIP3   OH2 6452   5.736   2.654   4.820  0.7457  0.2483 -0.1990
 2149TIP3    H1 6453   5.819   2.699   4.838  1.2762 -1.0729  0.8674
 2149TIP3    H2 6454   5.744   2.571   4.866 -0.7615 -0.3557 -0.9632
 2150TIP3   OH2 6455   3.006   2.496   5.005 -0.3189 -0.3267 -0.1442
 2150TIP3    H1 6456   3.057   2.498   4.924 -1.8627  0.2974 -1.1462
 2150TIP3    H2 6457   2.937   2.432   4.988 -0.9523  0.1774  0.4899
 2151TIP3   OH2 6458   4.783   0.082   2.478 -0.3096  0.3557  0.2639
 2151TIP3    H1 6459   4.760  -0.010   2.474  0.4815  0.0178  2.3504
 2151TIP3    H2 6460   4.851   0.093   2.412 -0.4740 -0.5180 -0.0593
 2152TIP3   OH2 6461   6.065   1.923   2.650 -0.1232  0.2063 -0.6388
 2152TIP3    H1 6462   6.054   1.876   2.568  0.0104 -0.6877 -0.1507
 2152TIP3    H2 6463   6.008   2.000   2.642 -1.2465 -0.6486 -0.9637
 2153TIP3   OH2 6464   4.796   4.001   1.700  0.1987 -0.1101 -0.2485
 2153TIP3    H1 6465   4.732   3.934   1.726 -2.2691  1.9650 -0.5466
 2153TIP3    H2 6466   4.804   3.989   1.605  1.1054 -1.0441 -0.0659
 2154TIP3   OH2 6467   0.903   1.832   3.261  0.1826  0.1401 -0.2463
 2154TIP3    H1 6468   0.859   1.760   3.307 -0.9164  0.3193 -0.9627
 2154TIP3    H2 6469   0.952   1.878   3.329  1.0246 -1.3459  0.2067
 2155TIP3   OH2 6470   5.031   2.286   1.351  0.0284  0.5412  0.0729
 2155TIP3    H1 6471   5.051   2.372   1.316  0.3881 -0.1609 -1.5250
 2155TIP3    H2 6472   4.950   2.261   1.307 -0.2529  0.1924  0.7756
 2156TIP3   OH2 6473   3.875   6.015   0.760 -0.8744  0.0324 -0.5624
 2156TIP3    H1 6474   3.900   5.934   0.805 -1.1278  0.5463  0.5543
 2156TIP3    H2 6475   3.781   6.023   0.776 -0.3258  2.2329  2.3086
 2157TIP3   OH2 6476   4.208   1.289   3.381  0.6190  0.4023  0.0156
 2157TIP3    H1 6477   4.182   1.381   3.382 -1.6175 -0.1492 -0.7439
 2157TIP3    H2 6478   4.216   1.267   3.288 -0.7297 -0.5796  0.0849
 2158TIP3   OH2 6479   1.541   2.135   2.555  0.1397  0.6566  0.4283
 2158TIP3    H1 6480   1.614   2.126   2.617 -0.2487  0.4535  0.8626
 2158TIP3    H2 6481   1.463   2.115   2.607 -0.1278 -0.2997 -0.3253
 2159TIP3   OH2 6482   5.632   4.289   4.477  0.1034 -0.0570  0.2160
 2159TIP3    H1 6483   5.660   4.380   4.481 -0.8621  0.2694 -0.3235
 2159TIP3    H2 6484   5.712   4.239   4.497  0.1937  0.9241  2.6750
 2160TIP3   OH2 6485   1.273   3.704   4.879  0.4898  0.0735  0.4863
 2160TIP3    H1 6486   1.358   3.745   4.863  0.3760  0.5704  1.0953
 2160TIP3    H2 6487   1.276   3.621   4.832  1.0088  0.4545 -0.1552
 2161TIP3   OH2 6488   0.687   0.323   4.858  0.0781  0.0258  0.2404
 2161TIP3    H1 6489   0.692   0.418   4.851 -0.4070  0.1145  0.9553
 2161TIP3    H2 6490   0.719   0.290   4.774  1.5304  0.7764  0.4651
 2162TIP3   OH2 6491   6.170   3.926   0.849  0.7782 -0.6292 -0.0168
 2162TIP3    H1 6492   6.158   3.943   0.756 -0.4677 -1.1585  0.0293
 2162TIP3    H2 6493   6.226   3.997   0.880 -0.4686  0.6972 -0.7430
 2163TIP3   OH2 6494   2.669   1.620   4.989 -0.0463 -0.3828 -0.0082
 2163TIP3    H1 6495   2.611   1.552   4.956  0.1294 -0.9305  0.8009
 2163TIP3    H2 6496   2.668   1.687   4.920 -2.1314 -0.0683  0.2568
 2164TIP3   OH2 6497   2.638   2.735   3.334  0.2317 -0.3345 -0.2675
 2164TIP3    H1 6498   2.588   2.653   3.330  0.6679 -0.6276  0.0919
 2164TIP3    H2 6499   2.729   2.706   3.346  0.6746  0.1428 -2.1937
 2165TIP3   OH2 6500   4.617   0.879   3.506  0.2591  0.1521 -0.6276
 2165TIP3    H1 6501   4.664   0.796   3.513  2.0666  1.2541  2.0448
 2165TIP3    H2 6502   4.525   0.855   3.509  0.6592 -1.7309  4.1112
 2166TIP3   OH2 6503   3.420   2.049   3.273  0.2929 -0.4493 -0.1294
 2166TIP3    H1 6504   3.445   2.123   3.329 -2.3409 -0.9447  1.8934
 2166TIP3    H2 6505   3.337   2.075   3.233 -0.3157 -2.0017  0.0496
 2167TIP3   OH2 6506   5.521   3.892   2.784 -0.6173 -0.1161 -0.0318
 2167TIP3    H1 6507   5.475   3.970   2.811 -1.5821 -0.5880 -0.2790
 2167TIP3    H2 6508   5.452   3.829   2.762  0.0602 -0.0236 -2.7937
 2168TIP3   OH2 6509   0.852   4.036   2.584 -0.2589  0.0847  0.4626
 2168TIP3    H1 6510   0.871   4.026   2.677  0.6108  0.4949  0.3303
 2168TIP3    H2 6511   0.937   4.034   2.541 -0.6845 -0.7500 -0.4003
 2169TIP3   OH2 6512   0.806   3.096   3.478  0.0591 -0.1876 -0.5038
 2169TIP3    H1 6513   0.724   3.059   3.510 -0.2258 -0.0964 -1.1170
 2169TIP3    H2 6514   0.858   3.110   3.557 -0.4132 -0.4874 -0.1321
 2170TIP3   OH2 6515   0.744   0.753   1.713  0.3061  0.6263 -0.0039
 2170TIP3    H1 6516   0.702   0.711   1.788  1.0618  0.4158  0.3010
 2170TIP3    H2 6517   0.695   0.719   1.637 -0.4610  0.8460  0.3779
 2171TIP3   OH2 6518   4.651   0.651   0.604  0.3059 -0.6017 -1.1814
 2171TIP3    H1 6519   4.564   0.671   0.640  1.1714 -0.1573  0.7680
 2171TIP3    H2 6520   4.635   0.642   0.510 -1.5670  1.2080 -1.1263
 2172TIP3   OH2 6521   2.428   3.976   3.463  0.5428 -0.1498  0.5992
 2172TIP3    H1 6522   2.509   3.981   3.412  1.5350 -1.8695  1.8812
 2172TIP3    H2 6523   2.456   3.981   3.554 -1.0211  1.1668  1.0560
 2173TIP3   OH2 6524   1.057   0.984   4.865  0.2677  0.2695 -0.3652
 2173TIP3    H1 6525   1.097   1.009   4.949 -0.4024  0.3231 -0.0480
 2173TIP3    H2 6526   1.131   0.974   4.805  0.8454 -0.6952  0.4665
 2174TIP3   OH2 6527   2.258   1.334   0.996 -0.1132 -0.0523  0.4550
 2174TIP3    H1 6528   2.168   1.366   0.990  0.3033  1.3873  1.5382
 2174TIP3    H2 6529   2.311   1.413   1.009  1.4909 -0.7055 -1.5956
 2175TIP3   OH2 6530   5.712   3.136   3.845 -0.2234 -0.4751 -0.2573
 2175TIP3    H1 6531   5.646   3.091   3.897  1.0129 -1.1923  0.7676
 2175TIP3    H2 6532   5.664   3.176   3.773 -2.1471  1.3602  1.9031
 2176TIP3   OH2 6533   4.673   3.035   0.455  0.0256 -0.1196  0.3890
 2176TIP3    H1 6534   4.695   2.959   0.401 -1.1001 -0.2561  0.0818
 2176TIP3    H2 6535   4.590   3.010   0.496 -0.2931  0.9003  0.3783
 2177TIP3   OH2 6536   0.309   3.544   0.926 -0.0152 -0.3319  0.6875
 2177TIP3    H1 6537   0.261   3.461   0.940 -0.5634 -0.3754 -1.1943
 2177TIP3    H2 6538   0.240   3.609   0.912  0.4035 -0.2630 -1.3876
 2178TIP3   OH2 6539   4.255   1.288   3.070 -0.7640 -0.2822 -0.1934
 2178TIP3    H1 6540   4.309   1.214   3.096  0.2718  0.9961  1.4685
 2178TIP3    H2 6541   4.314   1.363   3.070 -2.1691  0.8783  0.0813
 2179TIP3   OH2 6542   2.386   5.893   1.996 -0.1813  0.2259  0.5299
 2179TIP3    H1 6543   2.353   5.809   1.965 -0.0114  0.5883 -0.6870
 2179TIP3    H2 6544   2.308   5.941   2.024 -0.3136 -0.1870  0.8937
 2180TIP3   OH2 6545   4.115   3.405   3.614  0.6953 -0.1959  0.5043
 2180TIP3    H1 6546   4.038   3.371   3.660  0.1853  0.8529  0.4576
 2180TIP3    H2 6547   4.187   3.350   3.644  0.0897 -0.5868  1.2806
 2181TIP3   OH2 6548   0.586   1.568   3.212 -0.2338 -0.0388 -0.2773
 2181TIP3    H1 6549   0.491   1.555   3.205 -0.0596 -1.0416 -0.9452
 2181TIP3    H2 6550   0.619   1.548   3.125  0.7643 -1.1820  0.3454
 2182TIP3   OH2 6551   6.136   1.165   1.310 -0.1279 -0.8182 -0.1244
 2182TIP3    H1 6552   6.048   1.148   1.276 -1.1042 -0.1855  1.8799
 2182TIP3    H2 6553   6.135   1.259   1.329  1.5496 -0.4920 -1.4875
 2183TIP3   OH2 6554   2.048   0.261   5.179 -0.0803  0.4264  0.0545
 2183TIP3    H1 6555   2.026   0.239   5.089  1.5113  0.7263 -0.4438
 2183TIP3    H2 6556   2.067   0.176   5.220  0.6398  0.3957 -0.3230
 2184TIP3   OH2 6557   5.647   4.905   1.254  0.5529  0.1122 -0.1730
 2184TIP3    H1 6558   5.742   4.905   1.260  0.7366 -3.3251 -0.7991
 2184TIP3    H2 6559   5.628   4.868   1.168 -1.2699 -1.3263  0.7640
 2185TIP3   OH2 6560   0.864   5.509   3.085  0.2374 -0.5327  0.1468
 2185TIP3    H1 6561   0.825   5.556   3.159  0.2949 -0.0048 -0.1488
 2185TIP3    H2 6562   0.958   5.512   3.102  0.1961 -1.3240  0.5772
 2186TIP3   OH2 6563   4.158   0.894   3.766 -0.6296 -0.1234  0.5143
 2186TIP3    H1 6564   4.160   0.909   3.860  0.2258  1.7311  0.2371
 2186TIP3    H2 6565   4.229   0.831   3.750 -0.4411 -0.0454  1.0289
 2187TIP3   OH2 6566   3.834   0.902   0.032 -0.4046 -0.4995  0.0892
 2187TIP3    H1 6567   3.859   0.810   0.022 -0.2994 -0.3721 -0.9213
 2187TIP3    H2 6568   3.797   0.926  -0.053  0.6668  0.7311 -0.0588
 2188TIP3   OH2 6569   2.057   2.096   3.570 -0.2546 -0.1432  0.3730
 2188TIP3    H1 6570   2.062   2.189   3.546 -0.3794 -0.5329 -1.2393
 2188TIP3    H2 6571   2.131   2.055   3.525  0.4570 -0.6825  1.9436
 2189TIP3   OH2 6572   2.935   1.314   3.292  0.0418 -0.3170 -0.2082
 2189TIP3    H1 6573   2.960   1.251   3.225 -0.3439  0.1888 -0.8433
 2189TIP3    H2 6574   2.880   1.264   3.353  1.3563 -1.0699  0.4045
 2190TIP3   OH2 6575   3.566   5.623   4.702 -0.2611  0.6819  0.2187
 2190TIP3    H1 6576   3.558   5.656   4.792 -0.4953  2.3993 -0.3884
 2190TIP3    H2 6577   3.651   5.578   4.700 -0.1957  0.7431  1.2716
 2191TIP3   OH2 6578   5.714   1.869   2.133  0.1267  0.1632 -0.4146
 2191TIP3    H1 6579   5.625   1.874   2.167 -0.0885  2.6258 -1.1813
 2191TIP3    H2 6580   5.758   1.806   2.191 -1.8971 -0.5760  0.4014
 2192TIP3   OH2 6581   6.117   3.781   0.306  0.1820  0.6232 -0.1855
 2192TIP3    H1 6582   6.108   3.789   0.400 -0.6693  0.8938 -0.2835
 2192TIP3    H2 6583   6.181   3.847   0.281 -1.1804  2.0447 -0.0523
 2193TIP3   OH2 6584   3.266   5.291   4.615  0.2399  0.1148  0.6215
 2193TIP3    H1 6585   3.314   5.370   4.640 -0.1569  0.0698  1.5720
 2193TIP3    H2 6586   3.259   5.297   4.520  2.3105  0.0078  0.4236
 2194TIP3   OH2 6587   5.288   1.247   4.511  0.3047  0.9609 -0.0289
 2194TIP3    H1 6588   5.308   1.236   4.418  1.7093 -0.7246  0.4133
 2194TIP3    H2 6589   5.193   1.240   4.516  0.2840  0.0795 -1.2406
 2195TIP3   OH2 6590   0.100   1.901   3.498 -0.0980 -0.0682 -0.3378
 2195TIP3    H1 6591   0.091   1.937   3.586 -0.0695 -0.5527 -0.1383
 2195TIP3    H2 6592   0.191   1.873   3.492  0.1574  0.8347 -0.8549
 2196TIP3   OH2 6593   5.110   2.182   1.912  0.1666 -0.4201 -0.5205
 2196TIP3    H1 6594   5.131   2.185   1.819  0.0346  0.6596 -0.5207
 2196TIP3    H2 6595   5.015   2.170   1.914  0.2215 -0.8960 -0.5129
 2197TIP3   OH2 6596   4.930   4.445   1.457  0.1375 -0.8095  0.0597
 2197TIP3    H1 6597   4.924   4.381   1.527  0.7342 -0.8014  0.1187
 2197TIP3    H2 6598   4.934   4.393   1.377 -0.5007 -0.8191  0.0254
 2198TIP3   OH2 6599   2.738   2.680   3.686  0.2089 -0.2558 -0.4356
 2198TIP3    H1 6600   2.724   2.620   3.613 -0.2092  0.9497 -1.3833
 2198TIP3    H2 6601   2.715   2.766   3.651  0.8083  0.4698  0.8728
 2199TIP3   OH2 6602   5.945   2.044   1.742  0.5423  0.8608  0.5584
 2199TIP3    H1 6603   5.930   2.138   1.728 -0.0344  1.0154  1.9937
 2199TIP3    H2 6604   5.957   2.036   1.837 -1.6933 -0.8048  0.7777
 2200TIP3   OH2 6605   1.756   2.141   1.360  0.2019  0.1539  0.0622
 2200TIP3    H1 6606   1.748   2.098   1.275  2.9925  0.2822 -0.3543
 2200TIP3    H2 6607   1.699   2.217   1.354  0.0695 -0.0426 -1.5613
 2201TIP3   OH2 6608   4.089   0.805   2.642 -0.5531 -0.1621 -0.1236
 2201TIP3    H1 6609   4.019   0.772   2.699 -0.1080  1.1310  1.2497
 2201TIP3    H2 6610   4.090   0.899   2.658  2.3776 -0.2695  0.9801
 2202TIP3   OH2 6611   4.103   1.838   0.244 -0.0934  0.5514  0.5174
 2202TIP3    H1 6612   4.188   1.833   0.202  0.9206  2.5305  2.1798
 2202TIP3    H2 6613   4.096   1.929   0.274 -1.7882 -0.1445  2.4382
 2203TIP3   OH2 6614   4.565   5.316   3.350 -0.7796 -0.3827 -0.0900
 2203TIP3    H1 6615   4.505   5.284   3.282 -0.1033 -1.6795 -0.1210
 2203TIP3    H2 6616   4.514   5.315   3.430 -0.9597 -0.9897 -0.2044
 2204TIP3   OH2 6617   3.329   3.923   2.983  0.2244  0.1978  0.4254
 2204TIP3    H1 6618   3.338   3.982   2.909  1.6424 -1.2380 -0.6261
 2204TIP3    H2 6619   3.245   3.879   2.968  0.3009  0.2217 -0.1041
 2205TIP3   OH2 6620   6.257   0.625   5.094  0.0571 -0.2375  0.6202
 2205TIP3    H1 6621   6.240   0.575   5.174 -0.6422  1.0220  1.2835
 2205TIP3    H2 6622   6.172   0.661   5.070  0.1228 -1.1547 -1.0960
 2206TIP3   OH2 6623   2.203   0.413   2.947  0.3662  0.3012  0.5421
 2206TIP3    H1 6624   2.252   0.453   2.876  0.7272 -0.4955  0.3292
 2206TIP3    H2 6625   2.132   0.475   2.965  0.4011  0.6216 -0.3589
 2207TIP3   OH2 6626   4.650   5.732   3.429  0.2234  0.1134 -0.2694
 2207TIP3    H1 6627   4.694   5.657   3.388  1.7748 -0.3651  2.1060
 2207TIP3    H2 6628   4.573   5.694   3.472  0.3005  0.1205 -0.1283
 2208TIP3   OH2 6629   0.393   5.263   4.271 -0.5017 -0.2556  0.5618
 2208TIP3    H1 6630   0.365   5.214   4.348  2.0454 -0.2705  1.5996
 2208TIP3    H2 6631   0.376   5.354   4.293 -1.1893 -0.3600  0.4814
 2209TIP3   OH2 6632   0.522   0.242   1.504  0.1236  0.3250 -0.3459
 2209TIP3    H1 6633   0.542   0.199   1.587  0.6041  0.0139 -0.6171
 2209TIP3    H2 6634   0.597   0.299   1.487  0.8455 -0.8718 -1.3850
 2210TIP3   OH2 6635   0.312   4.177   3.299  0.2217  0.1609  0.6748
 2210TIP3    H1 6636   0.248   4.152   3.233  0.9564  0.9774 -0.3902
 2210TIP3    H2 6637   0.305   4.109   3.366  1.5907 -2.5036 -1.6575
 2211TIP3   OH2 6638   3.262   2.607   0.180 -0.1028  0.0368 -0.4514
 2211TIP3    H1 6639   3.228   2.666   0.113  0.3095 -0.0916 -0.7744
 2211TIP3    H2 6640   3.325   2.659   0.229 -2.2222  0.9364  1.4983
 2212TIP3   OH2 6641   4.749   2.670   2.883 -0.8485  0.2615  0.2938
 2212TIP3    H1 6642   4.788   2.608   2.822  0.1572  0.1159  1.0463
 2212TIP3    H2 6643   4.795   2.653   2.966 -0.1733  2.3697  0.3918
 2213TIP3   OH2 6644   4.087   5.542   1.036 -0.2709  0.6344 -0.2158
 2213TIP3    H1 6645   3.993   5.533   1.018 -0.4861  0.7194  0.7861
 2213TIP3    H2 6646   4.107   5.470   1.095  0.3624  0.4527 -0.6487
 2214TIP3   OH2 6647   5.274   2.362   3.080  0.0308 -0.2475  0.6171
 2214TIP3    H1 6648   5.275   2.383   2.987  0.9524  1.7784  1.0103
 2214TIP3    H2 6649   5.272   2.267   3.084  1.5755 -0.4373 -1.4968
 2215TIP3   OH2 6650   4.529   5.618   0.961  0.1488 -0.1848 -0.4686
 2215TIP3    H1 6651   4.548   5.712   0.966 -0.9781  0.0853 -1.0199
 2215TIP3    H2 6652   4.535   5.597   0.868 -0.4616 -0.4682 -0.4461
 2216TIP3   OH2 6653   5.692   1.541   2.921  0.5182  0.1947  0.4489
 2216TIP3    H1 6654   5.611   1.549   2.972  0.4246 -1.5861  0.6396
 2216TIP3    H2 6655   5.708   1.447   2.916  2.5053  0.5018  0.2749
 2217TIP3   OH2 6656   6.370   0.060   4.427  0.3262  0.8724 -0.0874
 2217TIP3    H1 6657   6.373   0.000   4.502 -1.0585 -1.3952 -1.7356
 2217TIP3    H2 6658   6.285   0.105   4.435  0.7531  1.6189  0.3812
 2218TIP3   OH2 6659   5.909   4.016   0.957 -0.1703 -0.0394  0.6776
 2218TIP3    H1 6660   6.000   3.998   0.931  0.1333  1.9330  0.2233
 2218TIP3    H2 6661   5.902   3.977   1.044  0.7188 -1.2747  0.2384
 2219TIP3   OH2 6662   4.506   5.776   2.149  0.1236  0.5282  0.3762
 2219TIP3    H1 6663   4.570   5.760   2.219  0.6343 -0.5501 -0.3095
 2219TIP3    H2 6664   4.549   5.838   2.090  0.6470 -0.3647 -0.2002
 2220TIP3   OH2 6665   3.165   2.928   0.453 -0.3919  0.4231 -0.4058
 2220TIP3    H1 6666   3.075   2.925   0.421 -0.4860 -0.0895 -0.1069
 2220TIP3    H2 6667   3.174   2.849   0.507  0.9156 -0.7776 -2.2538
 2221TIP3   OH2 6668   2.404   1.820   0.457 -0.1766 -0.2438  0.5560
 2221TIP3    H1 6669   2.321   1.856   0.426 -0.1942 -0.9528 -0.2733
 2221TIP3    H2 6670   2.379   1.748   0.515 -0.1413 -0.1403  0.6999
 2222TIP3   OH2 6671   2.988   5.829   1.740  0.2486  0.2520 -0.0938
 2222TIP3    H1 6672   3.038   5.911   1.739  0.7607 -0.0617 -0.5141
 2222TIP3    H2 6673   2.924   5.840   1.670 -0.2758  0.6447  0.4299
 2223TIP3   OH2 6674   2.215   2.299   4.084 -0.7105  0.2913  0.1895
 2223TIP3    H1 6675   2.126   2.264   4.083 -0.2529 -0.9026 -0.1009
 2223TIP3    H2 6676   2.269   2.229   4.047  0.6654  0.1176  2.3575
 2224TIP3   OH2 6677   1.350   3.953   3.980  0.5677 -0.4219 -0.2053
 2224TIP3    H1 6678   1.336   3.898   4.058  2.1623  0.7225  0.9256
 2224TIP3    H2 6679   1.445   3.961   3.972  0.4170  0.1107 -1.8452
 2225TIP3   OH2 6680   1.582   4.423   1.842  0.2385  0.6284 -0.0084
 2225TIP3    H1 6681   1.557   4.357   1.906  0.1316 -0.3842 -1.0574
 2225TIP3    H2 6682   1.652   4.473   1.885  0.1919 -0.0392  0.8715
 2226TIP3   OH2 6683   3.758  -0.012   1.404  0.0835 -0.4424  0.4290
 2226TIP3    H1 6684   3.742   0.073   1.445 -1.6977 -0.6032  0.1536
 2226TIP3    H2 6685   3.853  -0.018   1.398  0.2705  2.1676 -0.8534
 2227TIP3   OH2 6686   2.961   0.738   1.951 -0.8558 -0.4655 -0.1092
 2227TIP3    H1 6687   3.024   0.665   1.945 -0.7377 -0.3813  0.1211
 2227TIP3    H2 6688   2.997   0.796   2.018 -0.8558 -0.1020 -0.4205
 2228TIP3   OH2 6689   3.745   1.527   2.796 -0.0170  0.9327  0.5296
 2228TIP3    H1 6690   3.808   1.594   2.771  0.1770  0.0166 -1.6167
 2228TIP3    H2 6691   3.668   1.545   2.742 -0.9362  0.9209  1.7819
 2229TIP3   OH2 6692   1.180   5.416   2.156  0.3534 -0.0785  0.2365
 2229TIP3    H1 6693   1.193   5.508   2.180  0.6316  0.0847 -0.5180
 2229TIP3    H2 6694   1.117   5.383   2.221  2.7170 -0.2988  2.6158
 2230TIP3   OH2 6695   1.281   4.030   5.137  0.2314 -0.3179 -0.2273
 2230TIP3    H1 6696   1.281   4.103   5.076  0.8206 -0.0826  0.0532
 2230TIP3    H2 6697   1.352   4.049   5.198 -0.3055 -0.5808  0.4924
 2231TIP3   OH2 6698   2.488   2.780   3.898  0.3039 -0.1205  0.2540
 2231TIP3    H1 6699   2.581   2.761   3.890  0.3998  0.6517 -0.6844
 2231TIP3    H2 6700   2.446   2.694   3.906  1.1001 -0.4629  0.8220
 2232TIP3   OH2 6701   6.145   1.499   0.121 -0.1214  0.2469 -0.1100
 2232TIP3    H1 6702   6.199   1.536   0.191 -1.6431 -0.0239  1.2494
 2232TIP3    H2 6703   6.184   1.413   0.104  0.7169  0.6265 -0.1490
 2233TIP3   OH2 6704   2.387   4.337   3.674  0.6740  0.0172  0.1507
 2233TIP3    H1 6705   2.430   4.354   3.757  0.3963  1.9557 -0.0717
 2233TIP3    H2 6706   2.296   4.316   3.697  0.4516  1.1175  0.3255
 2234TIP3   OH2 6707   5.154   0.635   5.002  0.3092  0.0779  0.0914
 2234TIP3    H1 6708   5.101   0.680   5.068 -1.1714  0.3291 -1.1915
 2234TIP3    H2 6709   5.144   0.689   4.923  1.5859 -0.4985 -0.4972
 2235TIP3   OH2 6710   1.831   2.883   3.291  0.3224 -0.1200  0.2281
 2235TIP3    H1 6711   1.878   2.868   3.209  1.6712 -2.5695  1.3443
 2235TIP3    H2 6712   1.896   2.870   3.359 -0.7327  2.0170  1.7534
 2236TIP3   OH2 6713   4.416   2.372   3.249  0.2394  0.5307  0.2209
 2236TIP3    H1 6714   4.493   2.429   3.256 -1.6426  3.1646  0.9393
 2236TIP3    H2 6715   4.408   2.332   3.336 -0.7416  2.5139  1.1198
 2237TIP3   OH2 6716   1.083   5.419   4.544 -0.7378 -0.3601 -0.0475
 2237TIP3    H1 6717   1.075   5.324   4.544  0.9995 -0.5512  0.6715
 2237TIP3    H2 6718   1.141   5.438   4.618 -2.5236  1.4273  0.9893
 2238TIP3   OH2 6719   4.392   5.443   1.869 -0.4836  0.0861 -0.1412
 2238TIP3    H1 6720   4.459   5.402   1.814 -0.8732 -0.1267 -0.4650
 2238TIP3    H2 6721   4.315   5.388   1.856 -0.9847  0.8652 -0.5118
 2239TIP3   OH2 6722   3.134   5.460   3.809 -0.1203 -0.3312  0.8089
 2239TIP3    H1 6723   3.105   5.513   3.884  0.4685  0.5345  0.4324
 2239TIP3    H2 6724   3.222   5.492   3.789 -0.6098  0.0743 -0.8319
 2240TIP3   OH2 6725   3.571   0.453   0.745 -0.6601  0.1919 -0.3801
 2240TIP3    H1 6726   3.556   0.526   0.685 -0.9458 -1.4035 -2.3402
 2240TIP3    H2 6727   3.660   0.466   0.777  0.0383  0.3235 -2.2829
 2241TIP3   OH2 6728   1.608   5.086   4.881  0.0189 -0.5606 -0.3909
 2241TIP3    H1 6729   1.664   5.043   4.816 -0.7208 -0.9327 -0.7899
 2241TIP3    H2 6730   1.551   5.143   4.831  0.0950 -0.1117  0.0245
 2242TIP3   OH2 6731   2.040   0.615   3.031  0.4756 -0.4645  0.2401
 2242TIP3    H1 6732   2.055   0.709   3.019  1.1783 -0.7776 -1.6712
 2242TIP3    H2 6733   2.011   0.607   3.122  2.8899  1.2977  1.2736
 2243TIP3   OH2 6734   1.949   4.330   3.995 -0.4244  0.5850 -0.1552
 2243TIP3    H1 6735   1.980   4.420   3.982 -0.3548  0.5017 -0.5798
 2243TIP3    H2 6736   1.907   4.331   4.081  0.2668  0.8333  0.1819
 2244TIP3   OH2 6737   1.501   3.226   5.033 -0.2003 -0.4535  0.5413
 2244TIP3    H1 6738   1.422   3.280   5.031  1.2454  1.9804  2.5207
 2244TIP3    H2 6739   1.491   3.172   5.111 -0.5422 -1.2402 -0.0397
 2245TIP3   OH2 6740   0.074   1.174   5.189  0.3339 -0.5063  0.4321
 2245TIP3    H1 6741   0.094   1.128   5.107  0.1396  0.5680 -0.2361
 2245TIP3    H2 6742   0.078   1.267   5.166 -1.1091 -0.1912  1.3027
 2246TIP3   OH2 6743   5.490   2.493   0.704 -0.2187  0.5257  0.3666
 2246TIP3    H1 6744   5.468   2.431   0.772  0.4004 -0.6234 -0.4382
 2246TIP3    H2 6745   5.467   2.579   0.740 -0.7673 -0.1363  1.6294
 2247TIP3   OH2 6746   2.084   4.029   3.520  0.3107 -0.2937 -0.2212
 2247TIP3    H1 6747   2.115   4.104   3.572 -1.6313  0.5136 -0.1423
 2247TIP3    H2 6748   2.015   3.990   3.574  2.0394 -2.8995  0.2491
 2248TIP3   OH2 6749   2.628   1.860   0.297 -0.0872 -0.2356  0.8218
 2248TIP3    H1 6750   2.602   1.950   0.278  0.6103 -0.2235 -0.1068
 2248TIP3    H2 6751   2.565   1.831   0.363 -0.3380  0.9149  1.1041
 2249TIP3   OH2 6752   0.965   5.335   0.582 -0.6127  0.1309 -0.3184
 2249TIP3    H1 6753   1.033   5.267   0.584 -0.9343 -0.1875 -0.0334
 2249TIP3    H2 6754   1.012   5.416   0.602 -0.5664 -0.3076  1.5418
 2250TIP3   OH2 6755   3.775   4.594   2.679  0.0167  0.5815  0.2664
 2250TIP3    H1 6756   3.720   4.623   2.607  0.2034  1.4438  0.4645
 2250TIP3    H2 6757   3.825   4.521   2.643 -0.0611  0.8516 -0.3990
 2251TIP3   OH2 6758   0.959   5.819   0.799 -0.0030 -0.1891  0.6853
 2251TIP3    H1 6759   0.873   5.851   0.825 -0.7003 -0.9324 -0.5821
 2251TIP3    H2 6760   0.996   5.782   0.879 -1.5457 -1.3086  0.9342
 2252TIP3   OH2 6761   2.785   1.191   1.259 -0.1912  0.1600  0.4014
 2252TIP3    H1 6762   2.844   1.169   1.331 -0.9737 -0.9741  0.7141
 2252TIP3    H2 6763   2.824   1.270   1.220  1.9327 -0.9547  0.1257
 2253TIP3   OH2 6764   3.579   3.715   3.360  0.4835  0.0052  0.3375
 2253TIP3    H1 6765   3.660   3.678   3.324 -0.9121 -1.0761 -1.9844
 2253TIP3    H2 6766   3.553   3.782   3.297 -1.9618 -1.8154 -0.8040
 2254TIP3   OH2 6767   1.248   4.830   3.291 -0.0291 -0.0153  0.0649
 2254TIP3    H1 6768   1.261   4.815   3.385  0.7381  2.9417  0.5338
 2254TIP3    H2 6769   1.262   4.924   3.280  0.6705 -0.3955 -3.1592
 2255TIP3   OH2 6770   6.283   4.002   4.838 -0.6652 -0.0022  0.2779
 2255TIP3    H1 6771   6.269   4.087   4.796 -2.2951 -0.1875  0.3689
 2255TIP3    H2 6772   6.302   3.942   4.765  1.0977  0.5336  0.2723
 2256TIP3   OH2 6773   4.274   5.878   4.629 -0.3401 -0.2215  0.6216
 2256TIP3    H1 6774   4.335   5.804   4.624  0.9309  0.7987  0.8251
 2256TIP3    H2 6775   4.288   5.915   4.716 -1.7928 -0.3956  0.9625
 2257TIP3   OH2 6776   4.660   1.747   1.457  0.7279  0.0931  0.4389
 2257TIP3    H1 6777   4.665   1.841   1.441 -0.7599  0.0335 -0.5505
 2257TIP3    H2 6778   4.603   1.713   1.387  1.1789 -1.5311  0.8107
 2258TIP3   OH2 6779   3.751   2.137   2.837 -0.5714 -0.1631  0.8550
 2258TIP3    H1 6780   3.660   2.107   2.828 -0.0028 -1.4099 -1.4279
 2258TIP3    H2 6781   3.796   2.062   2.875  0.6721 -2.2658 -4.0189
 2259TIP3   OH2 6782   4.240   4.156   1.462  0.7565  0.0476  0.6015
 2259TIP3    H1 6783   4.240   4.151   1.558 -0.1104 -1.6278  0.5568
 2259TIP3    H2 6784   4.157   4.198   1.440 -0.4155 -2.1296  0.5694
 2260TIP3   OH2 6785   0.244   5.391   2.495 -0.0065 -0.6535 -0.1057
 2260TIP3    H1 6786   0.234   5.464   2.434 -0.7497  0.6706  1.5347
 2260TIP3    H2 6787   0.279   5.431   2.575  1.3853 -2.4058  0.2293
 2261TIP3   OH2 6788   1.488   5.936   3.565  0.4590 -0.0829 -0.1314
 2261TIP3    H1 6789   1.533   5.950   3.648  1.4184  0.0797 -0.6535
 2261TIP3    H2 6790   1.558   5.939   3.500 -0.3562  0.4125 -1.0068
 2262TIP3   OH2 6791   5.713   2.027   2.874 -0.4353 -0.2539  0.0745
 2262TIP3    H1 6792   5.665   2.109   2.862  1.7878  1.1876  0.4605
 2262TIP3    H2 6793   5.763   2.017   2.793 -0.1388 -0.8409  0.3301
 2263TIP3   OH2 6794   4.878   5.922   0.644  0.0915  0.3473  0.0496
 2263TIP3    H1 6795   4.834   5.903   0.726  0.0547  2.0774  0.4735
 2263TIP3    H2 6796   4.905   6.014   0.652  1.5067  0.0914 -1.2212
 2264TIP3   OH2 6797   1.867   5.696   1.754 -0.1130 -0.1041 -0.0134
 2264TIP3    H1 6798   1.936   5.754   1.786  0.7392 -0.5050 -1.0613
 2264TIP3    H2 6799   1.792   5.715   1.810  1.0649 -0.2362  1.6992
 2265TIP3   OH2 6800   1.879   4.454   0.768 -0.1715  0.2028  0.4869
 2265TIP3    H1 6801   1.938   4.487   0.700  0.7703 -1.0428  0.6644
 2265TIP3    H2 6802   1.802   4.424   0.720  0.9574 -1.7463 -0.2079
 2266TIP3   OH2 6803   5.863   1.471   0.735  0.0540  0.5641  0.6116
 2266TIP3    H1 6804   5.904   1.388   0.712  0.5669  0.4237  1.9165
 2266TIP3    H2 6805   5.793   1.447   0.796 -1.0077  0.9456 -0.4199
 2267TIP3   OH2 6806   5.682   1.177   4.769  0.0488 -0.0622  0.2915
 2267TIP3    H1 6807   5.747   1.221   4.823  0.6313 -1.2446  0.5866
 2267TIP3    H2 6808   5.694   1.084   4.788 -1.4257 -0.3348  0.0012
 2268TIP3   OH2 6809   4.543   1.318   0.744 -0.0572  0.0729 -0.4854
 2268TIP3    H1 6810   4.595   1.240   0.724 -1.7687 -1.8474  1.9057
 2268TIP3    H2 6811   4.594   1.366   0.809 -0.5436 -0.9879  0.7046
 2269TIP3   OH2 6812   2.825   5.384   4.104 -0.4095 -0.2165  0.0240
 2269TIP3    H1 6813   2.830   5.323   4.030 -1.1655 -0.3677  0.0898
 2269TIP3    H2 6814   2.842   5.470   4.065  1.4948 -0.5299  0.0651
 2270TIP3   OH2 6815   2.788   1.438   1.522 -0.1316 -0.3512  0.2106
 2270TIP3    H1 6816   2.697   1.411   1.511  0.2689 -0.8032 -2.6390
 2270TIP3    H2 6817   2.824   1.376   1.585 -1.0508 -2.0840 -0.9024
 2271TIP3   OH2 6818   3.745   2.862   4.198 -0.3181  0.1095  0.1884
 2271TIP3    H1 6819   3.784   2.776   4.215  0.4203  0.0565 -1.5226
 2271TIP3    H2 6820   3.805   2.924   4.240 -0.6740 -0.1829  1.1435
 2272TIP3   OH2 6821   0.586   5.784   1.377  0.3929 -0.1961  0.1731
 2272TIP3    H1 6822   0.629   5.870   1.383  1.9888 -0.9677  0.3844
 2272TIP3    H2 6823   0.575   5.770   1.283 -1.4607  0.9416  0.1607
 2273TIP3   OH2 6824   5.125   0.879   4.372 -0.9533 -0.5479 -0.6684
 2273TIP3    H1 6825   5.062   0.857   4.441 -0.0317 -2.7262 -0.4628
 2273TIP3    H2 6826   5.093   0.834   4.294  0.5391 -2.0746 -0.4509
 2274TIP3   OH2 6827   1.828   1.883   3.430 -0.5533  0.4398  0.0080
 2274TIP3    H1 6828   1.923   1.873   3.418 -0.3214  1.9735  0.4334
 2274TIP3    H2 6829   1.801   1.801   3.471  0.6048  0.0289 -0.0106
 2275TIP3   OH2 6830   5.391   3.470   2.552  0.1185  0.7380  0.0572
 2275TIP3    H1 6831   5.419   3.557   2.523 -0.8493  0.5355 -1.6442
 2275TIP3    H2 6832   5.445   3.451   2.629  0.4263  2.7831  0.3929
 2276TIP3   OH2 6833   1.422   2.687   3.328  0.5448  0.2820 -0.0190
 2276TIP3    H1 6834   1.383   2.708   3.413  2.2251 -0.5465  1.0251
 2276TIP3    H2 6835   1.425   2.771   3.282  2.3362  1.4375  1.9758
 2277TIP3   OH2 6836   6.086   3.302   2.343  0.1661 -0.1386 -1.0333
 2277TIP3    H1 6837   6.173   3.336   2.321  0.6667  0.3853  1.4893
 2277TIP3    H2 6838   6.036   3.379   2.369 -0.9503 -0.4894 -2.0528
 2278TIP3   OH2 6839   2.078   0.271   3.338  0.0529  0.1092 -0.0100
 2278TIP3    H1 6840   2.016   0.212   3.293 -1.3707  1.4990  0.0268
 2278TIP3    H2 6841   2.157   0.267   3.284 -0.7024 -0.3044 -1.1478
 2279TIP3   OH2 6842   0.235   5.935   0.214 -0.0182  0.3116 -0.3899
 2279TIP3    H1 6843   0.285   5.940   0.295 -0.7356 -1.3702  0.1997
 2279TIP3    H2 6844   0.160   5.994   0.229 -0.8674 -0.9880  0.7509
 2280TIP3   OH2 6845   1.591   4.310   0.918 -0.1027 -0.0888  0.2546
 2280TIP3    H1 6846   1.514   4.296   0.864 -0.0291  0.0872  0.1012
 2280TIP3    H2 6847   1.582   4.400   0.949  1.2240  0.7910 -1.7079
 2281TIP3   OH2 6848   4.210   3.368   2.169 -0.3630  0.2495 -0.0274
 2281TIP3    H1 6849   4.305   3.369   2.182 -0.4195 -0.6353  0.4787
 2281TIP3    H2 6850   4.173   3.382   2.257 -0.7076 -1.1115  0.0562
 2282TIP3   OH2 6851   2.626   5.458   1.101  0.1519  0.1853  0.5594
 2282TIP3    H1 6852   2.597   5.440   1.012  0.9107  1.6269 -0.0141
 2282TIP3    H2 6853   2.704   5.513   1.090 -0.0480  0.8365  2.1085
 2283TIP3   OH2 6854   5.452   1.093   2.628 -0.2800 -0.0240 -0.0243
 2283TIP3    H1 6855   5.438   1.149   2.705 -0.5644 -0.9463  0.6128
 2283TIP3    H2 6856   5.419   1.144   2.555  2.6944  2.1414 -0.0235
 2284TIP3   OH2 6857   1.765   2.436   4.122 -0.3004  0.5862  0.2943
 2284TIP3    H1 6858   1.818   2.358   4.109  0.7590  1.5483 -1.6676
 2284TIP3    H2 6859   1.705   2.436   4.047  1.3518  2.8387 -1.1777
 2285TIP3   OH2 6860   5.747   3.503   3.525  0.2733  0.2034 -0.2586
 2285TIP3    H1 6861   5.696   3.427   3.555  0.1980  0.5171  0.4301
 2285TIP3    H2 6862   5.684   3.575   3.525  0.0105  0.0104 -2.2052
 2286TIP3   OH2 6863   2.504   0.948   3.619  0.1431  0.4040  0.3285
 2286TIP3    H1 6864   2.408   0.954   3.619  0.0172 -0.5508  2.2351
 2286TIP3    H2 6865   2.534   1.035   3.596 -1.1987  0.7824 -0.0832
 2287TIP3   OH2 6866   6.107   4.175   1.514  0.2616 -0.1568 -0.2328
 2287TIP3    H1 6867   6.172   4.109   1.535 -1.3117 -1.6742  0.0377
 2287TIP3    H2 6868   6.031   4.126   1.484  0.2408  1.6443 -3.6003
 2288TIP3   OH2 6869   5.650   5.234   2.735 -0.1233 -0.1962 -0.0723
 2288TIP3    H1 6870   5.724   5.248   2.676 -0.4261 -0.5180 -0.5283
 2288TIP3    H2 6871   5.586   5.300   2.708 -0.3443 -0.4800 -0.2354
 2289TIP3   OH2 6872   0.020   3.270   2.563  0.2549  0.2287  0.5439
 2289TIP3    H1 6873   0.116   3.273   2.556  0.2008  0.8743 -0.0215
 2289TIP3    H2 6874  -0.011   3.318   2.486 -0.5261 -0.0312  0.6913
 2290TIP3   OH2 6875   1.465   2.620   4.918 -0.1461  0.3642 -0.5410
 2290TIP3    H1 6876   1.547   2.592   4.959  0.2029  2.4848  0.3442
 2290TIP3    H2 6877   1.482   2.708   4.886 -1.7699  0.4394 -1.3310
 2291TIP3   OH2 6878   5.814   2.004   3.420 -0.3058 -0.4630  0.6616
 2291TIP3    H1 6879   5.852   1.950   3.490  0.5542  0.6239  1.0670
 2291TIP3    H2 6880   5.867   1.984   3.343 -0.1350 -0.3677  0.7540
 2292TIP3   OH2 6881   2.241   5.079   3.256 -0.4683 -0.0676  0.2165
 2292TIP3    H1 6882   2.280   5.150   3.205 -2.3092  0.9562  0.1201
 2292TIP3    H2 6883   2.148   5.082   3.234 -0.5082 -3.1134 -0.4484
 2293TIP3   OH2 6884   5.879   1.595   1.116  0.3987  0.0126 -0.5181
 2293TIP3    H1 6885   5.830   1.658   1.063  0.6192  1.1353  0.5650
 2293TIP3    H2 6886   5.925   1.540   1.051 -0.0953  0.7148 -1.4948
 2294TIP3   OH2 6887   2.946   3.501   2.506 -0.0978 -0.6584 -0.0201
 2294TIP3    H1 6888   2.965   3.491   2.413 -0.9274 -1.4785 -0.1187
 2294TIP3    H2 6889   3.000   3.575   2.534 -0.8547  0.4838 -1.4550
 2295TIP3   OH2 6890   1.209   5.134   2.324  0.0094  0.0585 -0.0703
 2295TIP3    H1 6891   1.176   5.221   2.301 -0.0826  0.2817  0.8883
 2295TIP3    H2 6892   1.194   5.126   2.418  1.4473 -0.3672  0.1530
 2296TIP3   OH2 6893   0.845   3.434   3.426  0.2015 -0.0279 -0.2412
 2296TIP3    H1 6894   0.940   3.425   3.422  0.3763  1.7069 -1.1340
 2296TIP3    H2 6895   0.813   3.396   3.344  0.0369 -1.3395  0.4184
 2297TIP3   OH2 6896   3.943   5.867   2.490  0.3779  0.1286 -0.3064
 2297TIP3    H1 6897   4.001   5.824   2.553 -1.2140  0.6725  1.5920
 2297TIP3    H2 6898   3.927   5.954   2.526 -2.6009 -0.4153 -0.0569
 2298TIP3   OH2 6899   2.686   4.801   3.469 -0.0547  0.3405 -0.2049
 2298TIP3    H1 6900   2.732   4.747   3.404  0.5554  1.5342 -0.7994
 2298TIP3    H2 6901   2.732   4.885   3.467 -0.6566  0.7219  1.0748
 2299TIP3   OH2 6902   5.988   1.228   0.617 -0.0400 -0.0378 -0.5401
 2299TIP3    H1 6903   6.050   1.217   0.689  0.9396  3.5385 -0.6284
 2299TIP3    H2 6904   6.036   1.201   0.539  0.2239 -0.4358 -0.2398
 2300TIP3   OH2 6905   4.962   1.675   2.882 -0.1664  0.0177  0.1562
 2300TIP3    H1 6906   4.952   1.721   2.966 -1.3190 -0.3691  0.2509
 2300TIP3    H2 6907   4.973   1.583   2.907  1.6890  0.1396 -0.0522
 2301TIP3   OH2 6908   3.836   5.549   0.962  0.3658  0.6859 -0.8506
 2301TIP3    H1 6909   3.767   5.536   1.027  1.0485 -1.1359 -0.4205
 2301TIP3    H2 6910   3.792   5.535   0.878 -0.0642  0.9286 -0.6742
 2302TIP3   OH2 6911   6.031   4.639   4.274  0.1226  0.0117  0.1755
 2302TIP3    H1 6912   5.969   4.708   4.298  0.2328  0.0832  0.2605
 2302TIP3    H2 6913   5.977   4.568   4.238  0.1593  0.9330 -1.8321
 2303TIP3   OH2 6914   5.055   1.451   4.687 -0.0693  0.2887  0.0036
 2303TIP3    H1 6915   4.983   1.498   4.729  0.4265  1.2765 -0.2032
 2303TIP3    H2 6916   5.061   1.368   4.734 -1.0501  0.3793  0.3092
 2304TIP3   OH2 6917   2.942   0.085   1.074  0.1997 -0.5239 -0.1661
 2304TIP3    H1 6918   2.999   0.109   1.147  0.7985  0.4023 -0.9139
 2304TIP3    H2 6919   2.970  -0.002   1.048  0.5021 -0.5388  0.2131
 2305TIP3   OH2 6920   0.693   1.747   0.655  0.7337  0.3330 -0.3286
 2305TIP3    H1 6921   0.672   1.806   0.582  1.3963  0.6219 -0.2873
 2305TIP3    H2 6922   0.711   1.805   0.729  0.0373  0.0411  0.0838
 2306TIP3   OH2 6923   5.163   2.098   3.334  0.4546 -0.2398 -0.0932
 2306TIP3    H1 6924   5.209   2.160   3.389 -0.3985  0.2315  0.1153
 2306TIP3    H2 6925   5.189   2.120   3.245 -2.6986  3.0625 -0.4460
 2307TIP3   OH2 6926   1.038   1.179   1.107  0.3432 -0.2909 -0.1402
 2307TIP3    H1 6927   1.119   1.158   1.153  0.6717  2.1097  0.4799
 2307TIP3    H2 6928   0.980   1.105   1.126  1.0427 -0.2209  2.7125
 2308TIP3   OH2 6929   0.503   0.172   2.836 -0.1713 -0.0334 -0.6296
 2308TIP3    H1 6930   0.454   0.249   2.862  0.4677  0.2685 -0.3068
 2308TIP3    H2 6931   0.437   0.112   2.801 -0.6706  0.6432 -0.8550
 2309TIP3   OH2 6932   3.724   4.145   4.964 -0.3491  0.4417  0.1825
 2309TIP3    H1 6933   3.808   4.137   4.919 -1.4361  1.6829 -2.2601
 2309TIP3    H2 6934   3.730   4.228   5.012  0.0968  0.0954  0.7444
 2310TIP3   OH2 6935   1.691   2.710   3.441  0.7473  0.3656 -0.4500
 2310TIP3    H1 6936   1.730   2.782   3.391 -0.1486  1.5173  0.4438
 2310TIP3    H2 6937   1.633   2.666   3.378 -0.2655  1.7143 -0.5210
 2311TIP3   OH2 6938   4.458   0.231   0.215 -0.3066  0.6886  0.2042
 2311TIP3    H1 6939   4.551   0.207   0.218 -0.1881  0.9903 -0.5951
 2311TIP3    H2 6940   4.431   0.209   0.126 -1.3004 -0.4352  0.7656
 2312TIP3   OH2 6941   5.080   5.966   2.144  0.5166  0.2215 -0.2073
 2312TIP3    H1 6942   5.102   5.875   2.165 -2.6637 -0.1799  2.2575
 2312TIP3    H2 6943   5.164   6.010   2.136  2.1504 -2.6121  0.1016
 2313TIP3   OH2 6944   3.163   0.875   1.430 -0.6435  0.1210  0.0061
 2313TIP3    H1 6945   3.195   0.791   1.398 -0.2306  0.4759 -0.5298
 2313TIP3    H2 6946   3.119   0.854   1.512 -0.1773 -0.5616  0.0924
 2314TIP3   OH2 6947   6.172   3.390   0.933 -0.6080 -0.2714 -0.3640
 2314TIP3    H1 6948   6.124   3.346   1.003  1.9317 -1.0027  1.0732
 2314TIP3    H2 6949   6.184   3.480   0.964  1.8269 -0.9709  1.0199
 2315TIP3   OH2 6950   1.569   2.854   3.652 -0.7568  0.1320  0.1013
 2315TIP3    H1 6951   1.576   2.792   3.724  0.3054 -0.5686 -0.5703
 2315TIP3    H2 6952   1.620   2.814   3.581  1.9229  2.7815  0.3422
 2316TIP3   OH2 6953   5.445   2.497   2.271  0.1010 -0.3378 -0.2317
 2316TIP3    H1 6954   5.373   2.488   2.208 -0.5982 -0.1836  0.5309
 2316TIP3    H2 6955   5.403   2.491   2.357  0.9067  0.4574  0.2344
 2317TIP3   OH2 6956   0.873   4.337   0.834  0.1960 -0.2542 -0.4856
 2317TIP3    H1 6957   0.847   4.339   0.926 -0.4274 -0.0190 -0.6618
 2317TIP3    H2 6958   0.791   4.337   0.786  0.5219  0.4564 -1.0636
 2318TIP3   OH2 6959   5.395   0.276   0.459 -0.0402 -0.2637 -0.6363
 2318TIP3    H1 6960   5.376   0.240   0.546  0.3786  0.3483 -0.2828
 2318TIP3    H2 6961   5.336   0.350   0.450 -0.6013 -0.7686 -1.1871
 2319TIP3   OH2 6962   5.394   1.320   2.821  0.2780 -0.4454 -0.4300
 2319TIP3    H1 6963   5.415   1.408   2.852  1.3419 -1.2430  1.2238
 2319TIP3    H2 6964   5.299   1.318   2.816  0.1964  0.4889  0.4922
 2320TIP3   OH2 6965   5.793   5.747   3.316  0.0977 -0.2627 -0.0258
 2320TIP3    H1 6966   5.789   5.671   3.375 -1.4982 -0.0546  0.1822
 2320TIP3    H2 6967   5.755   5.716   3.234  0.0090  0.1463 -0.1403
 2321TIP3   OH2 6968   5.708   2.329   1.903 -0.3729  0.3840  0.2681
 2321TIP3    H1 6969   5.713   2.418   1.938 -0.6219  0.5536 -0.1186
 2321TIP3    H2 6970   5.701   2.341   1.808  0.2286 -0.0666  0.1601
 2322TIP3   OH2 6971   2.910   5.376   2.636 -0.0961  0.3394 -0.3543
 2322TIP3    H1 6972   2.975   5.331   2.581  0.9091  1.6206 -0.2578
 2322TIP3    H2 6973   2.826   5.358   2.594  0.6059  1.0237 -2.1502
 2323TIP3   OH2 6974   1.096   0.401   3.864 -0.2817 -0.3589  0.0121
 2323TIP3    H1 6975   1.063   0.458   3.934 -1.0949 -1.1931  0.3241
 2323TIP3    H2 6976   1.187   0.387   3.886  0.1371  1.3516 -0.4315
 2324TIP3   OH2 6977   4.573   2.253   2.575 -0.3351 -0.3424  0.4023
 2324TIP3    H1 6978   4.498   2.248   2.635 -0.2506 -1.4004  0.4453
 2324TIP3    H2 6979   4.534   2.270   2.490 -0.7472 -1.8525  0.2517
 2325TIP3   OH2 6980   0.861   5.689   4.201 -0.0100 -0.4984  0.0612
 2325TIP3    H1 6981   0.872   5.770   4.252  0.6819 -0.2652 -0.4461
 2325TIP3    H2 6982   0.767   5.686   4.183  0.1071  0.8633 -0.9684
 2326TIP3   OH2 6983   5.939   3.530   2.402  0.2224 -0.0254  0.7689
 2326TIP3    H1 6984   5.849   3.508   2.379  0.6738 -0.7179 -0.4607
 2326TIP3    H2 6985   5.932   3.598   2.469 -1.2280  1.4464 -0.7782
 2327TIP3   OH2 6986   3.744   1.609   3.485  0.3242 -0.0711 -0.1305
 2327TIP3    H1 6987   3.763   1.696   3.519 -0.4343 -0.1404  0.4899
 2327TIP3    H2 6988   3.736   1.553   3.562  0.7763 -0.6942 -0.5203
 2328TIP3   OH2 6989   2.794   4.585   0.259 -0.7594 -0.1787  0.4936
 2328TIP3    H1 6990   2.786   4.510   0.317 -0.0916 -0.3801  0.3344
 2328TIP3    H2 6991   2.889   4.599   0.250 -0.8487 -0.1383 -0.5302
 2329TIP3   OH2 6992   4.082   3.486   2.853 -0.0071 -0.1667 -0.3197
 2329TIP3    H1 6993   4.085   3.519   2.943 -0.8078  1.0623 -0.7167
 2329TIP3    H2 6994   4.057   3.394   2.862 -2.4440  0.5191  0.6367
 2330TIP3   OH2 6995  -0.018   1.750   4.041  0.2853 -0.1241  0.0737
 2330TIP3    H1 6996  -0.051   1.739   3.951 -0.6163 -0.0675  0.3844
 2330TIP3    H2 6997   0.072   1.779   4.030  0.1025  0.1446 -0.8245
 2331TIP3   OH2 6998   5.420   1.238   5.179 -0.3582 -0.3075 -0.0001
 2331TIP3    H1 6999   5.400   1.327   5.151  0.8260  0.3624  1.1729
 2331TIP3    H2 7000   5.349   1.216   5.240  0.1640  0.4613  0.9215
 2332TIP3   OH2 7001   4.917   4.378   3.010 -0.0872  0.2887 -0.1508
 2332TIP3    H1 7002   4.881   4.467   3.015 -1.4152 -0.1202 -1.6849
 2332TIP3    H2 7003   4.999   4.383   3.060 -0.0734  2.3907 -0.2726
 2333TIP3   OH2 7004   3.250   0.753   0.103  0.0643  0.5352 -0.3231
 2333TIP3    H1 7005   3.166   0.712   0.086  0.0062 -0.2395  1.6176
 2333TIP3    H2 7006   3.229   0.831   0.154  0.5265  0.3342  0.1773
 2334TIP3   OH2 7007   6.222   5.512   2.695  0.0802 -0.0510 -0.1106
 2334TIP3    H1 7008   6.164   5.487   2.623  0.1428  1.4318 -0.7182
 2334TIP3    H2 7009   6.268   5.431   2.718 -1.0199 -0.8782 -0.7281
 2335TIP3   OH2 7010   3.180   5.224   3.616  0.1584  0.1756  0.0915
 2335TIP3    H1 7011   3.156   5.293   3.553 -0.0413  0.5402  0.5648
 2335TIP3    H2 7012   3.163   5.263   3.702  0.1030 -0.4479  0.3639
 2336TIP3   OH2 7013   0.326   2.316   3.585  0.6467  0.8047  0.2227
 2336TIP3    H1 7014   0.402   2.373   3.596 -0.0998  1.8871 -0.0302
 2336TIP3    H2 7015   0.268   2.339   3.658 -0.3797  1.5792 -0.7868
 2337TIP3   OH2 7016   5.403   4.163   0.076  0.1686 -0.2541  0.2200
 2337TIP3    H1 7017   5.375   4.200   0.159  1.4576 -0.2223  0.6597
 2337TIP3    H2 7018   5.479   4.108   0.097  2.9155  2.5799 -1.2800
 2338TIP3   OH2 7019   2.596   5.121   4.828 -0.3696 -0.9575 -0.1451
 2338TIP3    H1 7020   2.671   5.093   4.881 -0.3841  0.1097  0.4815
 2338TIP3    H2 7021   2.629   5.193   4.775 -1.3232  0.7713  1.4511
 2339TIP3   OH2 7022   2.183   2.194   2.846  0.0502 -0.1025 -0.2641
 2339TIP3    H1 7023   2.224   2.278   2.824 -1.4816  0.1148 -2.5950
 2339TIP3    H2 7024   2.105   2.218   2.897 -0.7554 -0.0365 -1.5060
 2340TIP3   OH2 7025   2.334   3.773   0.187  0.0241  0.0573 -0.2710
 2340TIP3    H1 7026   2.428   3.772   0.172  0.1941  1.3819  0.5349
 2340TIP3    H2 7027   2.296   3.791   0.102  0.5525  0.4452 -0.4282
 2341TIP3   OH2 7028   4.027   0.023   1.493 -0.1169 -0.4188  0.4908
 2341TIP3    H1 7029   4.031  -0.056   1.547  0.0307 -0.4367  0.4532
 2341TIP3    H2 7030   4.047   0.095   1.553 -0.2141 -0.4139  0.5171
 2342TIP3   OH2 7031   5.265   4.254   1.591 -0.2614  0.4720 -0.7171
 2342TIP3    H1 7032   5.274   4.332   1.537 -0.8038  0.7834 -0.3733
 2342TIP3    H2 7033   5.340   4.199   1.568  0.4948  1.3885 -0.4828
 2343TIP3   OH2 7034   5.914   4.841   3.526  0.4722 -0.2737  0.3490
 2343TIP3    H1 7035   5.979   4.789   3.478  0.0280 -1.9856  1.5063
 2343TIP3    H2 7036   5.840   4.781   3.538 -0.6012  1.0539  0.6514
 2344TIP3   OH2 7037   6.289   5.200   4.043  0.1841  0.3250 -0.4953
 2344TIP3    H1 7038   6.260   5.138   4.109 -1.3560 -0.8504 -2.2096
 2344TIP3    H2 7039   6.384   5.189   4.040  0.2882  0.4212  1.4952
 2345TIP3   OH2 7040   4.313   2.284   0.274  0.3011 -0.1439  0.0245
 2345TIP3    H1 7041   4.361   2.365   0.258 -1.1264  0.4263 -1.7732
 2345TIP3    H2 7042   4.348   2.222   0.210  1.1642 -0.8814  1.1795
 2346TIP3   OH2 7043   3.428   4.384   5.150 -0.4267 -0.5088 -0.0659
 2346TIP3    H1 7044   3.466   4.418   5.231  0.2255  1.1732 -1.0188
 2346TIP3    H2 7045   3.466   4.440   5.081  1.2198 -3.5727 -1.8668
 2347TIP3   OH2 7046   2.548   4.671   3.244  0.2341  0.2444 -0.3170
 2347TIP3    H1 7047   2.551   4.690   3.338 -0.0199  0.8656 -0.4249
 2347TIP3    H2 7048   2.632   4.629   3.225 -0.5619 -1.8621  0.5821
 2348TIP3   OH2 7049   4.039   3.549   0.013  0.1224 -0.3262 -0.6363
 2348TIP3    H1 7050   4.087   3.548   0.095 -0.1529  0.0572 -0.4690
 2348TIP3    H2 7051   4.079   3.480  -0.039 -0.3289 -1.2086  0.1724
 2349TIP3   OH2 7052   6.170   3.941   4.294  0.0850  0.7989  0.0747
 2349TIP3    H1 7053   6.154   3.888   4.216  0.9789 -1.3267  1.2531
 2349TIP3    H2 7054   6.265   3.957   4.294  0.2024  0.1904  1.0543
 2350TIP3   OH2 7055   4.454   5.409   0.531  0.0283 -0.7363 -0.1376
 2350TIP3    H1 7056   4.372   5.398   0.484 -0.9036 -1.3433  1.5560
 2350TIP3    H2 7057   4.454   5.500   0.560  1.4984  0.2274 -2.7996
 2351TIP3   OH2 7058   3.559   5.421   3.382 -0.6390  0.1507 -0.4921
 2351TIP3    H1 7059   3.604   5.435   3.298 -0.0787  0.2285 -0.1887
 2351TIP3    H2 7060   3.466   5.421   3.360 -0.4767 -2.2135 -1.5040
 2352TIP3   OH2 7061   3.502   3.584   4.234  0.3875  0.0193  0.4556
 2352TIP3    H1 7062   3.525   3.671   4.203  1.3599  0.1815  1.5527
 2352TIP3    H2 7063   3.434   3.600   4.300 -0.6826 -0.2135 -0.5534
 2353TIP3   OH2 7064   0.977   0.313   2.787 -0.3984 -0.0981 -0.2631
 2353TIP3    H1 7065   0.999   0.249   2.855 -0.3008  0.2055 -0.0067
 2353TIP3    H2 7066   1.016   0.395   2.817 -1.5250  0.3667  0.0190
 2354TIP3   OH2 7067   3.481   1.548   4.700 -0.2737  0.1317  0.1172
 2354TIP3    H1 7068   3.559   1.495   4.710 -0.1741  0.3314  0.3915
 2354TIP3    H2 7069   3.436   1.510   4.624 -0.9130 -1.2370  1.1201
 2355TIP3   OH2 7070   3.892   5.758   4.893 -0.0358 -0.7413 -0.0103
 2355TIP3    H1 7071   3.805   5.766   4.932 -0.4677  0.4382 -1.1489
 2355TIP3    H2 7072   3.889   5.814   4.815  2.2228  0.6038  0.7552
 2356TIP3   OH2 7073   2.372   2.185   3.899 -0.3390  0.1151  0.4283
 2356TIP3    H1 7074   2.450   2.204   3.847  0.0863  1.2017  1.4197
 2356TIP3    H2 7075   2.299   2.197   3.839  0.1522  1.1514  0.0196
 2357TIP3   OH2 7076   0.272   2.734   2.762 -0.0786 -0.0159 -0.0633
 2357TIP3    H1 7077   0.226   2.653   2.741  0.6465  0.4284 -4.0904
 2357TIP3    H2 7078   0.365   2.710   2.759  0.1133  0.6952  0.0914
 2358TIP3   OH2 7079   2.704   1.656   1.063 -0.7321  0.5988 -0.2278
 2358TIP3    H1 7080   2.745   1.656   1.149 -0.1750  2.6778 -0.4403
 2358TIP3    H2 7081   2.700   1.563   1.038 -0.6650 -0.0202  1.8868
 2359TIP3   OH2 7082   0.702   0.839   0.494 -0.0377 -0.5980  0.6346
 2359TIP3    H1 7083   0.695   0.842   0.398  2.7250  0.8835  0.3713
 2359TIP3    H2 7084   0.794   0.815   0.510  0.2674  1.6466  2.8320
 2360TIP3   OH2 7085   6.076   3.685   0.975  0.5565  0.1498  0.1266
 2360TIP3    H1 7086   6.115   3.697   1.062 -0.8425 -0.1412  0.8187
 2360TIP3    H2 7087   6.109   3.759   0.924 -2.1481  3.0515  2.2136
 2361TIP3   OH2 7088   1.815   1.632   2.459  0.4972 -0.2742  0.2789
 2361TIP3    H1 7089   1.850   1.705   2.510  1.5452 -0.6052  0.0390
 2361TIP3    H2 7090   1.783   1.571   2.525 -1.1025  0.7081  0.4807
 2362TIP3   OH2 7091   5.069   4.109   2.019 -0.0115  0.2833  0.1287
 2362TIP3    H1 7092   5.033   4.021   2.006 -1.3835  0.9840 -1.1188
 2362TIP3    H2 7093   5.130   4.121   1.947  0.6392  0.1299  0.6523
 2363TIP3   OH2 7094   3.156   0.528   0.521 -0.6324 -0.4440  0.2639
 2363TIP3    H1 7095   3.244   0.495   0.503 -0.3443 -0.2551  1.2891
 2363TIP3    H2 7096   3.120   0.467   0.586 -0.8957  0.0376  0.5717
 2364TIP3   OH2 7097   3.383   5.376   1.343 -0.4689 -0.2086  0.6451
 2364TIP3    H1 7098   3.314   5.313   1.365 -0.7038  0.5829  2.3742
 2364TIP3    H2 7099   3.347   5.461   1.369  1.0049  0.2546  1.2604
 2365TIP3   OH2 7100   1.978   5.143   4.360  0.0931 -0.0998  0.0026
 2365TIP3    H1 7101   2.033   5.064   4.355  0.5174  0.2607 -1.4310
 2365TIP3    H2 7102   2.037   5.211   4.393  0.3699  0.1411 -0.9520
 2366TIP3   OH2 7103   3.695   3.632   1.447  0.0527  0.0914 -0.3014
 2366TIP3    H1 7104   3.635   3.558   1.450  0.0601  0.1118  1.3305
 2366TIP3    H2 7105   3.748   3.623   1.526  1.5136  0.6563 -1.1573
 2367TIP3   OH2 7106   2.794   5.245   4.639 -0.7692 -0.0191 -0.1242
 2367TIP3    H1 7107   2.811   5.251   4.733 -2.4848  0.2881  0.2003
 2367TIP3    H2 7108   2.881   5.237   4.599 -0.0516 -0.8185  1.5213
 2368TIP3   OH2 7109   5.569   0.374   3.197  0.1967  0.2026  0.3157
 2368TIP3    H1 7110   5.490   0.325   3.219  0.2699  0.5193  1.3353
 2368TIP3    H2 7111   5.622   0.371   3.277  1.9412 -1.3591 -0.8251
 2369TIP3   OH2 7112   2.278   4.159   0.419  0.1848 -0.4182  0.3282
 2369TIP3    H1 7113   2.370   4.164   0.447  1.2433 -1.5078 -2.6049
 2369TIP3    H2 7114   2.259   4.247   0.386  0.4398 -0.4179  0.1808
 2370TIP3   OH2 7115   4.404   5.187   0.343  0.0576 -0.1379  0.0732
 2370TIP3    H1 7116   4.374   5.099   0.365  1.3483 -0.5760  0.1306
 2370TIP3    H2 7117   4.448   5.218   0.422  1.1622 -0.1464 -0.5240
 2371TIP3   OH2 7118   1.979   2.911   4.706  0.1907 -0.5559 -0.2552
 2371TIP3    H1 7119   1.947   2.820   4.706  0.7299 -0.7670  0.8831
 2371TIP3    H2 7120   1.976   2.936   4.799  2.0604 -0.1357 -0.2834
 2372TIP3   OH2 7121   1.915   3.559   2.162  0.1661  0.4325 -0.3138
 2372TIP3    H1 7122   1.978   3.603   2.219  0.1034  0.4547 -0.2613
 2372TIP3    H2 7123   1.946   3.469   2.156 -2.1986 -0.8245  3.3238
 2373TIP3   OH2 7124   0.371   2.108   1.995  0.0908 -0.0715 -0.0909
 2373TIP3    H1 7125   0.335   2.179   1.943 -0.3118  0.6626  1.1626
 2373TIP3    H2 7126   0.428   2.151   2.059  0.5213 -0.9468  0.1310
 2374TIP3   OH2 7127   2.244   4.595   3.233  0.2625 -0.2747  0.2019
 2374TIP3    H1 7128   2.329   4.590   3.276  0.6058 -1.7537 -0.5835
 2374TIP3    H2 7129   2.244   4.522   3.171  0.0137  2.0673 -2.7860
 2375TIP3   OH2 7130   0.780   2.473   4.259 -0.1915  0.6335  0.2843
 2375TIP3    H1 7131   0.870   2.493   4.232  0.3596  0.0550  1.6094
 2375TIP3    H2 7132   0.769   2.518   4.343 -1.1204  0.6502  0.1601
 2376TIP3   OH2 7133   2.448   2.476   4.518  0.0498  0.4093 -0.1766
 2376TIP3    H1 7134   2.444   2.414   4.591 -1.8459  2.0683  1.2441
 2376TIP3    H2 7135   2.387   2.440   4.453 -1.6668  1.0762  0.9761
 2377TIP3   OH2 7136   5.500   3.914   1.875 -0.3955 -0.1734  0.0824
 2377TIP3    H1 7137   5.511   3.926   1.969  0.9260 -1.0655  0.0747
 2377TIP3    H2 7138   5.443   3.837   1.867  0.3786 -0.7701  0.1761
 2378TIP3   OH2 7139   5.088   5.149   2.535 -0.6058 -0.3667  0.2526
 2378TIP3    H1 7140   5.024   5.201   2.486 -2.9897 -1.7641  1.6974
 2378TIP3    H2 7141   5.079   5.179   2.625  2.6034  1.0650  0.2250
 2379TIP3   OH2 7142   1.539   3.753   2.816 -0.2057  0.4350  0.7593
 2379TIP3    H1 7143   1.631   3.729   2.828 -0.1875 -0.0446 -0.2667
 2379TIP3    H2 7144   1.500   3.741   2.903  0.6497  0.4686  1.1673
 2380TIP3   OH2 7145   2.671   2.063   4.814 -0.2729  0.4391 -0.0498
 2380TIP3    H1 7146   2.765   2.044   4.804  0.0603  1.7367  0.3343
 2380TIP3    H2 7147   2.639   1.995   4.873  0.1089 -0.8514 -1.2727
 2381TIP3   OH2 7148   5.701   4.987   0.265 -0.4006 -0.4429  0.0973
 2381TIP3    H1 7149   5.734   5.001   0.176 -0.0245 -1.8946 -0.0264
 2381TIP3    H2 7150   5.620   4.937   0.253  0.2927 -1.7355  0.5810
 2382TIP3   OH2 7151   2.761   3.458   4.608 -0.2304  0.1283  0.1069
 2382TIP3    H1 7152   2.799   3.371   4.596 -1.7285 -0.4782 -0.4543
 2382TIP3    H2 7153   2.835   3.518   4.595  0.4205 -0.9670 -1.6584
 2383TIP3   OH2 7154   1.207   1.231   2.788  0.4100 -0.4585 -0.1006
 2383TIP3    H1 7155   1.220   1.173   2.712  1.2183  0.2351 -0.5114
 2383TIP3    H2 7156   1.198   1.171   2.862  1.1562 -1.1356 -0.5335
 2384TIP3   OH2 7157   2.547   1.175   1.129 -0.7479 -0.0998 -0.2896
 2384TIP3    H1 7158   2.624   1.169   1.185  0.1407 -0.3903 -1.5117
 2384TIP3    H2 7159   2.570   1.240   1.063 -1.8893  0.4577 -0.1755
 2385TIP3   OH2 7160   6.333   3.952   5.112  0.1096  0.5374 -0.3474
 2385TIP3    H1 7161   6.358   3.860   5.105 -2.3854 -0.2838  0.5756
 2385TIP3    H2 7162   6.318   3.979   5.021  2.0466  0.4851 -0.7465
 2386TIP3   OH2 7163   4.616   4.625   3.273 -0.0603  0.0407 -0.1807
 2386TIP3    H1 7164   4.708   4.651   3.261  0.5961 -0.4547  2.8079
 2386TIP3    H2 7165   4.613   4.591   3.363 -2.8745 -1.3751 -0.6986
 2387TIP3   OH2 7166   5.223   4.046   0.772  0.1306 -0.0508 -0.5453
 2387TIP3    H1 7167   5.307   4.000   0.777  1.0052  1.5841  0.8484
 2387TIP3    H2 7168   5.246   4.139   0.781 -1.8190  0.4418 -0.2175
 2388TIP3   OH2 7169   5.691   1.337   1.980 -0.0069  0.4659 -0.4219
 2388TIP3    H1 7170   5.773   1.360   1.937 -0.1312 -0.9713 -1.5070
 2388TIP3    H2 7171   5.714   1.266   2.040 -0.9216 -2.8419 -3.5735
 2389TIP3   OH2 7172   1.373   3.036   1.524 -0.3311 -0.1078  0.1694
 2389TIP3    H1 7173   1.321   3.007   1.600 -0.2596 -0.6811  0.0060
 2389TIP3    H2 7174   1.332   3.118   1.497 -1.2027 -0.5873 -0.0012
 2390TIP3   OH2 7175   1.107   1.355   0.916  0.1010  0.4302  0.1325
 2390TIP3    H1 7176   1.094   1.329   1.007  0.3407 -0.0019  0.0452
 2390TIP3    H2 7177   1.027   1.327   0.872 -1.0543  2.6958  0.6243
 2391TIP3   OH2 7178   2.224   1.316   2.653 -0.1025  0.1189  0.3428
 2391TIP3    H1 7179   2.144   1.309   2.600 -0.7686 -1.7502  1.5149
 2391TIP3    H2 7180   2.292   1.277   2.598 -0.7561 -1.6484  0.7222
 2392TIP3   OH2 7181   3.633   3.842   2.258 -0.2222 -0.4932  0.3197
 2392TIP3    H1 7182   3.581   3.807   2.186 -0.3274  0.2111  0.0448
 2392TIP3    H2 7183   3.723   3.843   2.225 -0.2398 -0.3644  0.2772
 2393TIP3   OH2 7184   0.780   0.455   3.701 -0.1811  0.4600 -0.5355
 2393TIP3    H1 7185   0.792   0.382   3.640  0.4966 -0.3832  0.5712
 2393TIP3    H2 7186   0.818   0.530   3.657 -0.9320  0.1702 -1.7185
 2394TIP3   OH2 7187   5.555   3.307   1.452  0.7696 -0.0565 -0.0400
 2394TIP3    H1 7188   5.478   3.305   1.509  0.0340 -1.2429 -1.0290
 2394TIP3    H2 7189   5.629   3.297   1.512 -0.0726 -4.1914  0.6124
 2395TIP3   OH2 7190   4.080   1.002   0.341 -0.7806 -0.0723 -0.0163
 2395TIP3    H1 7191   4.023   0.925   0.343 -1.3392  0.3263 -0.1699
 2395TIP3    H2 7192   4.072   1.037   0.252  0.1552 -0.3299 -0.2139
 2396TIP3   OH2 7193   3.101   4.109   1.500  0.1113 -0.6375 -0.5073
 2396TIP3    H1 7194   3.119   4.159   1.420  1.1988  1.3661  0.9095
 2396TIP3    H2 7195   3.186   4.100   1.542 -0.6370 -0.4351  1.1096
 2397TIP3   OH2 7196   3.360   0.334   3.679  0.0640 -0.1294  0.4642
 2397TIP3    H1 7197   3.437   0.389   3.667 -0.2288  0.3329  0.6750
 2397TIP3    H2 7198   3.373   0.260   3.619 -0.2631  0.9422 -0.9739
 2398TIP3   OH2 7199   0.825   3.404   1.740  0.0322  0.3911  0.2160
 2398TIP3    H1 7200   0.730   3.418   1.751 -0.2444  0.6252 -2.0595
 2398TIP3    H2 7201   0.865   3.484   1.776 -0.7347  0.9808 -0.1973
 2399TIP3   OH2 7202   0.044   1.693   0.992 -0.3072  0.0116  0.1233
 2399TIP3    H1 7203   0.106   1.759   1.023 -0.4548 -0.2254  0.9491
 2399TIP3    H2 7204   0.028   1.716   0.900 -0.6602  1.3507  0.5041
 2400TIP3   OH2 7205   1.784   2.210   2.704  0.1187  0.2743  0.4241
 2400TIP3    H1 7206   1.865   2.174   2.670 -0.3347 -1.6596  1.2237
 2400TIP3    H2 7207   1.806   2.240   2.792  0.1708  0.5962  0.3012
 2401TIP3   OH2 7208   0.897   0.126   1.606  0.4355 -0.9050  0.0155
 2401TIP3    H1 7209   0.863   0.092   1.524  1.1090 -0.3779 -0.4962
 2401TIP3    H2 7210   0.990   0.141   1.590  0.3640  0.2337  0.5144
 2402TIP3   OH2 7211   2.626   0.730   0.029 -0.3646  0.0578  0.4239
 2402TIP3    H1 7212   2.657   0.701   0.115  1.7031  0.9492  0.0142
 2402TIP3    H2 7213   2.703   0.729  -0.027 -1.6209 -0.2497 -1.3884
 2403TIP3   OH2 7214   0.982   0.155   3.022  0.1478 -0.1146 -0.2078
 2403TIP3    H1 7215   0.889   0.132   3.021 -0.9532  3.4513  2.4022
 2403TIP3    H2 7216   1.016   0.113   3.101  0.1880  0.3522  0.0269
 2404TIP3   OH2 7217   4.194   2.598   4.721  0.3946 -0.5935  0.1102
 2404TIP3    H1 7218   4.151   2.571   4.802 -0.2741  0.3929  0.0937
 2404TIP3    H2 7219   4.287   2.586   4.738  0.2505 -0.5062  0.9808
 2405TIP3   OH2 7220   3.083   5.063   0.717  0.2739 -0.3410  0.0903
 2405TIP3    H1 7221   3.103   4.973   0.740  1.8982 -0.3182 -1.0424
 2405TIP3    H2 7222   3.160   5.093   0.668 -0.8913  1.1454 -0.9472
 2406TIP3   OH2 7223   4.420   1.511   3.178 -0.4923  1.2942  0.3223
 2406TIP3    H1 7224   4.358   1.545   3.243 -0.6399  0.9350  0.3698
 2406TIP3    H2 7225   4.505   1.518   3.222 -0.6367  0.6923  0.7076
 2407TIP3   OH2 7226   1.266   0.654   3.123 -0.1017 -0.0653  0.2086
 2407TIP3    H1 7227   1.201   0.724   3.114  1.0837  1.1387  0.7269
 2407TIP3    H2 7228   1.325   0.668   3.049  0.5628 -0.0535  0.7386
 2408TIP3   OH2 7229   5.065   2.434   0.878 -0.1833 -0.1790 -0.3705
 2408TIP3    H1 7230   5.116   2.393   0.809  1.2764  0.7707  0.1038
 2408TIP3    H2 7231   5.122   2.432   0.955 -0.6636  1.3571  0.0556
 2409TIP3   OH2 7232   3.484   2.481   0.975  0.2334 -0.6577 -0.3702
 2409TIP3    H1 7233   3.556   2.446   1.028 -0.1121 -0.0688  0.4968
 2409TIP3    H2 7234   3.490   2.432   0.893  2.5004  0.3210 -0.8743
 2410TIP3   OH2 7235   4.615   2.072   0.337 -0.6591 -0.2681 -0.0324
 2410TIP3    H1 7236   4.674   2.088   0.264 -0.2532 -0.0212  0.3503
 2410TIP3    H2 7237   4.651   2.123   0.409 -0.2868 -1.5740  0.7310
 2411TIP3   OH2 7238   4.780   1.684   3.562 -0.0362  0.2394 -0.0853
 2411TIP3    H1 7239   4.790   1.768   3.517  0.2567  1.6887  2.4876
 2411TIP3    H2 7240   4.766   1.708   3.654  0.5633 -2.5499  0.8121
 2412TIP3   OH2 7241   4.245   1.504   3.791 -0.1845 -0.2378 -0.1592
 2412TIP3    H1 7242   4.248   1.435   3.725  1.3870  0.0920 -0.4872
 2412TIP3    H2 7243   4.235   1.585   3.740 -1.4086 -0.1549  0.1833
 2413TIP3   OH2 7244   5.321   0.354   1.175  0.1931 -0.1024 -0.2351
 2413TIP3    H1 7245   5.327   0.380   1.266 -1.1439  0.5550 -0.3193
 2413TIP3    H2 7246   5.405   0.310   1.157 -0.4592 -2.4624  1.9746
 2414TIP3   OH2 7247   1.067   3.650   2.622  0.0870  0.8961 -0.6747
 2414TIP3    H1 7248   1.118   3.645   2.703 -1.0907  0.2086  0.0614
 2414TIP3    H2 7249   1.100   3.728   2.577 -0.8996  2.8135  1.6680
 2415TIP3   OH2 7250   3.372   0.406   0.963  0.9492  0.1582 -0.1067
 2415TIP3    H1 7251   3.434   0.392   0.891 -0.1970 -0.1406 -1.0802
 2415TIP3    H2 7252   3.309   0.469   0.928 -1.0034 -1.7733 -0.2869
 2416TIP3   OH2 7253   3.436   2.605   3.851  0.6750  0.3833 -0.5315
 2416TIP3    H1 7254   3.515   2.659   3.847  0.5453  0.6624  0.5023
 2416TIP3    H2 7255   3.412   2.603   3.943 -2.0034  2.4825 -1.0345
 2417TIP3   OH2 7256   6.303   4.379   0.695 -0.1017 -0.4031  0.3727
 2417TIP3    H1 7257   6.225   4.350   0.743 -1.3013  0.1151 -1.1740
 2417TIP3    H2 7258   6.296   4.474   0.692 -0.2256 -0.4296 -1.0432
 2418TIP3   OH2 7259   2.074   5.780   4.415 -0.2366 -0.0614 -0.9012
 2418TIP3    H1 7260   2.082   5.691   4.380 -0.2154  0.0155 -1.0919
 2418TIP3    H2 7261   2.127   5.834   4.356  1.5443 -0.2425  0.4318
 2419TIP3   OH2 7262   0.903   3.665   0.652 -0.5698  0.0142 -0.2507
 2419TIP3    H1 7263   0.988   3.632   0.622 -1.2516 -1.5267 -0.5752
 2419TIP3    H2 7264   0.840   3.627   0.591 -1.5339  0.7479  0.2738
 2420TIP3   OH2 7265   1.643   2.216   4.793  0.0480  0.2174  0.6880
 2420TIP3    H1 7266   1.679   2.259   4.870  0.0072  1.0222  0.2641
 2420TIP3    H2 7267   1.549   2.234   4.797 -0.2849 -1.4170  1.4970
 2421TIP3   OH2 7268   0.549   4.414   4.263  0.2226  0.5341 -0.3723
 2421TIP3    H1 7269   0.641   4.390   4.274  0.2398  1.0124  0.7319
 2421TIP3    H2 7270   0.527   4.459   4.345 -1.3553 -0.7029 -0.0789
 2422TIP3   OH2 7271   5.198   5.627   1.244  0.2570  0.1654 -0.1681
 2422TIP3    H1 7272   5.215   5.715   1.210  0.6016  1.2256  2.4948
 2422TIP3    H2 7273   5.281   5.580   1.234  1.0446  1.1958  1.2063
 2423TIP3   OH2 7274   2.519   1.370   1.554 -0.3886 -0.3174 -0.3482
 2423TIP3    H1 7275   2.459   1.320   1.497 -1.5251 -0.5357  0.9845
 2423TIP3    H2 7276   2.475   1.371   1.639  0.7361  0.9742  0.2457
 2424TIP3   OH2 7277   2.904   3.754   3.388 -0.1262 -0.2727 -0.0251
 2424TIP3    H1 7278   2.869   3.703   3.461 -1.2520  1.7486  0.9313
 2424TIP3    H2 7279   2.987   3.789   3.420 -0.1383 -0.1869 -0.0871
 2425TIP3   OH2 7280   5.373   1.041   0.294 -0.3944 -0.1892  0.0092
 2425TIP3    H1 7281   5.425   1.052   0.374  1.3031  2.4650 -1.3068
 2425TIP3    H2 7282   5.337   1.128   0.278 -0.7063 -0.6601 -2.0917
 2426TIP3   OH2 7283   2.154   0.575   3.491  0.2310 -0.1825 -0.2014
 2426TIP3    H1 7284   2.191   0.493   3.457 -2.2469 -0.7690 -1.7524
 2426TIP3    H2 7285   2.204   0.643   3.448  2.1581 -0.8159  0.9034
 2427TIP3   OH2 7286   3.976   3.155   3.748  0.1246  0.3079 -0.0826
 2427TIP3    H1 7287   4.050   3.099   3.728  0.7325  0.8193  0.6362
 2427TIP3    H2 7288   3.963   3.145   3.843 -1.0078 -0.1060 -0.2648
 2428TIP3   OH2 7289   5.900   4.963   1.073  0.4107 -0.0845  0.1046
 2428TIP3    H1 7290   5.982   4.914   1.080  0.7137  0.3267 -0.4023
 2428TIP3    H2 7291   5.904   5.003   0.986 -0.1436  0.2718  0.2380
 2429TIP3   OH2 7292   4.959   1.643   0.052  0.3792  0.3643  0.3936
 2429TIP3    H1 7293   5.008   1.622   0.132 -1.8685  0.2636  1.8447
 2429TIP3    H2 7294   4.889   1.578   0.050  0.2213  0.5402 -1.5625
 2430TIP3   OH2 7295   5.117   0.710   2.059 -0.0323 -0.2170  0.3559
 2430TIP3    H1 7296   5.107   0.646   1.988  0.0358  0.1526  0.0089
 2430TIP3    H2 7297   5.049   0.687   2.123 -0.0802 -0.5637  0.1796
 2431TIP3   OH2 7298   1.408   1.519   1.062 -0.2033  0.0853  0.0624
 2431TIP3    H1 7299   1.406   1.424   1.047  0.0966  0.1549 -0.4176
 2431TIP3    H2 7300   1.500   1.541   1.069 -0.2972  0.1766  1.3227
 2432TIP3   OH2 7301   3.667   5.416   1.965 -0.3041 -0.0415  0.6334
 2432TIP3    H1 7302   3.741   5.410   1.905 -1.1779 -1.1968 -0.3873
 2432TIP3    H2 7303   3.596   5.452   1.912 -0.8053 -0.1063  1.2494
 2433TIP3   OH2 7304   4.378   1.913   3.124  0.0778  0.6572 -0.1135
 2433TIP3    H1 7305   4.310   1.917   3.058 -0.9947 -0.1174  0.9068
 2433TIP3    H2 7306   4.336   1.942   3.205  1.3643  1.6249  0.2485
 2434TIP3   OH2 7307   2.035   1.914   4.623 -0.2892 -0.3262 -0.4330
 2434TIP3    H1 7308   1.970   1.950   4.683  0.4591  0.2945  0.0310
 2434TIP3    H2 7309   2.021   1.959   4.541  0.0884  0.4346 -0.0927
 2435TIP3   OH2 7310   2.452   1.980   4.106  0.6218  0.5472 -0.1283
 2435TIP3    H1 7311   2.466   2.031   4.027 -0.0150 -0.8634 -1.2045
 2435TIP3    H2 7312   2.368   1.937   4.093 -0.7434  2.1962  2.4389
 2436TIP3   OH2 7313   2.652   0.662   0.295 -0.1100  0.0756  0.0862
 2436TIP3    H1 7314   2.605   0.706   0.366  0.6597 -0.5293  0.9845
 2436TIP3    H2 7315   2.743   0.660   0.324  0.4082  0.7437 -1.3944
 2437TIP3   OH2 7316   3.123   3.454   4.149  0.4219  0.2871  0.1857
 2437TIP3    H1 7317   3.193   3.394   4.177  1.3703  1.5415  0.5910
 2437TIP3    H2 7318   3.070   3.467   4.228 -0.1665 -0.4827 -0.0638
 2438TIP3   OH2 7319   2.202   5.076   1.585 -0.0707 -0.0677  0.1800
 2438TIP3    H1 7320   2.272   5.116   1.534 -0.8561 -0.8920 -1.6425
 2438TIP3    H2 7321   2.180   4.996   1.537 -2.2363  0.1602  0.6764
 2439TIP3   OH2 7322   1.932   0.329   2.619  0.2423  0.3001 -0.1349
 2439TIP3    H1 7323   1.865   0.328   2.687 -0.2038  1.8508 -0.5198
 2439TIP3    H2 7324   1.884   0.334   2.537  0.8152  0.7567 -0.4510
 2440TIP3   OH2 7325   4.667   0.235   1.934  0.1833  0.0419 -0.3942
 2440TIP3    H1 7326   4.578   0.270   1.941  0.4621  0.6250  0.4066
 2440TIP3    H2 7327   4.667   0.160   1.994  0.3369  0.2679 -0.1114
 2441TIP3   OH2 7328   5.425   1.962   1.772 -0.0560  0.0626  0.1583
 2441TIP3    H1 7329   5.399   1.887   1.826  1.5455 -1.0460 -0.5409
 2441TIP3    H2 7330   5.495   2.004   1.822  2.1827 -1.5863 -1.3972
 2442TIP3   OH2 7331   4.619   4.803   2.875 -0.2547  0.4397 -0.3695
 2442TIP3    H1 7332   4.592   4.718   2.842 -1.1476  0.4136  0.3767
 2442TIP3    H2 7333   4.711   4.792   2.899 -0.8362 -0.8886  1.4780
 2443TIP3   OH2 7334   4.595   5.594  -0.021 -0.1680  0.2350  0.5222
 2443TIP3    H1 7335   4.580   5.550   0.062 -2.3939  0.0561  0.0879
 2443TIP3    H2 7336   4.547   5.677  -0.014  1.6023  1.3403  0.2656
 2444TIP3   OH2 7337   2.984   0.737   0.466  0.1413  0.3900 -0.4209
 2444TIP3    H1 7338   3.057   0.678   0.484  1.3400  1.7418 -0.7575
 2444TIP3    H2 7339   2.982   0.746   0.371  0.7823  1.8487 -0.3238
 2445TIP3   OH2 7340   5.675   0.585   2.942 -0.3281 -0.6117 -0.0946
 2445TIP3    H1 7341   5.642   0.644   2.874  1.2747  0.1007 -0.3111
 2445TIP3    H2 7342   5.737   0.528   2.897 -0.7080 -1.4581  0.4160
 2446TIP3   OH2 7343   2.499   2.455   2.636  0.2536 -0.6238  0.0267
 2446TIP3    H1 7344   2.505   2.361   2.618 -0.7953 -0.3057 -2.4714
 2446TIP3    H2 7345   2.586   2.489   2.615  0.9058 -1.1259  1.8189
 2447TIP3   OH2 7346   0.121   5.671   0.568  0.1304 -0.1928 -0.6876
 2447TIP3    H1 7347   0.048   5.722   0.603 -0.2308 -0.0482 -1.6150
 2447TIP3    H2 7348   0.198   5.703   0.614 -0.0187  1.5058 -1.5222
 2448TIP3   OH2 7349   3.981   1.605   4.507  0.0924  0.1251  0.3979
 2448TIP3    H1 7350   4.039   1.608   4.431  0.1454  0.1494  0.4396
 2448TIP3    H2 7351   3.976   1.513   4.530 -1.1690 -0.0880 -0.6033
 2449TIP3   OH2 7352   3.934   0.833   1.057 -0.0457 -0.1955  0.2881
 2449TIP3    H1 7353   3.865   0.798   1.113  0.4372 -0.2679  0.8502
 2449TIP3    H2 7354   3.977   0.900   1.110  2.1047 -2.0223  1.0518
 2450TIP3   OH2 7355   1.941   5.698   4.106  0.1858 -0.3710  0.4394
 2450TIP3    H1 7356   1.976   5.762   4.044 -0.6068 -0.6992 -0.3574
 2450TIP3    H2 7357   2.006   5.627   4.106 -0.9170 -1.4711 -1.8469
 2451TIP3   OH2 7358   3.785   4.921   3.642  0.0076  0.1474 -0.1513
 2451TIP3    H1 7359   3.712   4.873   3.603 -1.0066  1.4936  0.0278
 2451TIP3    H2 7360   3.858   4.859   3.638 -0.5405 -0.4573 -2.3627
 2452TIP3   OH2 7361   0.801   0.803   1.995  0.4646 -0.5073 -0.3614
 2452TIP3    H1 7362   0.878   0.793   2.050  0.7049  1.7954 -0.1920
 2452TIP3    H2 7363   0.834   0.795   1.905  0.4927 -1.7198 -0.2619
 2453TIP3   OH2 7364   3.607   0.744   2.024  0.7055  0.0135 -0.1168
 2453TIP3    H1 7365   3.684   0.794   2.052  0.3301  1.2687 -1.2525
 2453TIP3    H2 7366   3.599   0.763   1.931  0.6631 -2.3656 -0.6552
 2454TIP3   OH2 7367   3.340   2.508   1.823 -0.2164 -0.4185 -0.1689
 2454TIP3    H1 7368   3.371   2.473   1.739 -0.1393  1.6607 -1.0503
 2454TIP3    H2 7369   3.244   2.508   1.815 -0.2609 -1.2888  0.2233
 2455TIP3   OH2 7370   0.745   3.233   3.256  0.0937  0.2195 -0.4406
 2455TIP3    H1 7371   0.786   3.196   3.177 -1.0437  1.1881 -1.5160
 2455TIP3    H2 7372   0.778   3.178   3.328  0.3746 -1.3119 -1.6887
 2456TIP3   OH2 7373   2.683   3.154   2.290 -0.1509 -0.4474 -0.3309
 2456TIP3    H1 7374   2.692   3.243   2.256 -0.0260  0.5251  2.1109
 2456TIP3    H2 7375   2.595   3.128   2.265 -0.2868  0.4574 -0.8383
 2457TIP3   OH2 7376   1.923   2.588   2.778 -0.0987 -0.6699  0.3364
 2457TIP3    H1 7377   2.007   2.599   2.732 -0.1709  1.4695  0.6384
 2457TIP3    H2 7378   1.857   2.588   2.709  0.0458 -1.2202  0.1896
 2458TIP3   OH2 7379   5.319   4.672   3.272  0.4743  0.0363 -0.5928
 2458TIP3    H1 7380   5.378   4.609   3.230  0.5342 -0.3668  0.0784
 2458TIP3    H2 7381   5.252   4.617   3.314  1.0296  0.3639  0.7583
 2459TIP3   OH2 7382   0.286   5.175   3.006  0.7049  0.2807 -0.5821
 2459TIP3    H1 7383   0.310   5.198   2.916  3.5676  0.3919  0.1111
 2459TIP3    H2 7384   0.238   5.251   3.039  0.9305  0.8523 -1.5565
 2460TIP3   OH2 7385   1.880   5.047   4.973  0.5994 -0.5733  0.2126
 2460TIP3    H1 7386   1.926   5.083   4.898 -0.2398  0.9925  0.4099
 2460TIP3    H2 7387   1.788   5.073   4.960  0.8265  2.3575  3.1689
 2461TIP3   OH2 7388   2.844   3.217   4.259 -0.6364 -0.2616  0.1506
 2461TIP3    H1 7389   2.777   3.226   4.191 -0.6143 -1.8314 -0.1179
 2461TIP3    H2 7390   2.795   3.188   4.337 -0.4454 -0.0840  0.3379
 2462TIP3   OH2 7391   1.135   1.934   1.029  0.6762 -0.4622  0.1760
 2462TIP3    H1 7392   1.148   1.841   1.049  1.7159 -0.2515  0.5167
 2462TIP3    H2 7393   1.116   1.974   1.114  0.4410 -0.3247  0.0594
 2463TIP3   OH2 7394   2.821   4.985   2.891 -0.1792  0.3073 -0.6022
 2463TIP3    H1 7395   2.827   4.983   2.987  1.1447  0.7319 -0.6607
 2463TIP3    H2 7396   2.734   4.950   2.872 -0.9656  1.3875  0.8168
 2464TIP3   OH2 7397   2.751   0.697   5.131  0.2152 -0.1719  0.3321
 2464TIP3    H1 7398   2.785   0.786   5.126  0.3843  0.0521  3.3653
 2464TIP3    H2 7399   2.659   0.708   5.156 -0.0341 -0.8632 -0.2546
 2465TIP3   OH2 7400   0.228   5.608   2.323  0.4629 -0.7315  0.3116
 2465TIP3    H1 7401   0.259   5.698   2.337  0.0624 -0.7538  1.4554
 2465TIP3    H2 7402   0.138   5.618   2.292  0.2802 -0.7414  0.8333
 2466TIP3   OH2 7403   5.487   0.836   0.171 -0.4314 -0.4235  0.7329
 2466TIP3    H1 7404   5.451   0.808   0.087 -0.5768 -1.7822  1.2222
 2466TIP3    H2 7405   5.447   0.921   0.187 -1.5642 -0.8185  0.1339
 2467TIP3   OH2 7406   5.335   1.726   1.940 -0.2849 -0.0930  0.2899
 2467TIP3    H1 7407   5.349   1.777   2.020 -0.3581 -0.4313  0.5207
 2467TIP3    H2 7408   5.240   1.719   1.932 -0.2671 -1.1481  0.8761
 2468TIP3   OH2 7409   6.175   0.176   4.290  0.1475 -0.1827 -0.2620
 2468TIP3    H1 7410   6.143   0.221   4.212  0.2782 -2.1980 -1.5726
 2468TIP3    H2 7411   6.242   0.116   4.256  0.6995 -0.6236  1.5145
 2469TIP3   OH2 7412   0.206   3.653   4.803 -0.5084 -0.5471  0.0248
 2469TIP3    H1 7413   0.143   3.676   4.734  0.5715 -1.4250 -1.3137
 2469TIP3    H2 7414   0.193   3.559   4.817  1.7242 -1.2159 -1.6866
 2470TIP3   OH2 7415   5.293   5.309   1.445 -0.1094  0.1802  0.2395
 2470TIP3    H1 7416   5.304   5.215   1.434 -0.1555  0.2828 -0.7385
 2470TIP3    H2 7417   5.329   5.348   1.365  1.0614  1.0764  1.1643
 2471TIP3   OH2 7418   3.523   3.993   1.761  0.1177  0.2059 -0.0481
 2471TIP3    H1 7419   3.531   4.084   1.790 -0.0219  0.0249  0.5632
 2471TIP3    H2 7420   3.601   3.979   1.707  0.3153  0.5849  0.1309
 2472TIP3   OH2 7421   4.297   4.204   3.087 -0.2909  0.1505 -0.1516
 2472TIP3    H1 7422   4.357   4.152   3.140 -0.1250 -0.1362 -0.6100
 2472TIP3    H2 7423   4.210   4.183   3.121 -0.0570  2.2200  1.9775
 2473TIP3   OH2 7424   1.389   5.241   2.143  0.2431 -0.1936  0.9834
 2473TIP3    H1 7425   1.366   5.188   2.219 -0.7682  1.3248  1.7851
 2473TIP3    H2 7426   1.319   5.306   2.137  1.7648  1.4829  0.4849
 2474TIP3   OH2 7427   2.170   3.523   3.760 -0.0955 -0.5328 -0.0349
 2474TIP3    H1 7428   2.204   3.454   3.702 -0.6409  1.0810 -2.4394
 2474TIP3    H2 7429   2.221   3.601   3.737 -1.8422  0.6908  0.0102
 2475TIP3   OH2 7430   3.768   2.506   1.455  0.3944  0.1255 -0.2121
 2475TIP3    H1 7431   3.863   2.496   1.453  0.3274 -0.5055 -1.7656
 2475TIP3    H2 7432   3.738   2.470   1.371 -1.4019 -1.7190  1.1004
 2476TIP3   OH2 7433   1.330   5.319   3.591  0.0157 -0.2528  0.2683
 2476TIP3    H1 7434   1.270   5.245   3.604 -0.5594 -0.2469 -2.0513
 2476TIP3    H2 7435   1.369   5.332   3.678  0.1810 -3.2916  0.7829
 2477TIP3   OH2 7436   0.833   0.630   3.429 -0.5654  0.2888  0.3489
 2477TIP3    H1 7437   0.920   0.608   3.462  0.3356  0.9824 -1.4179
 2477TIP3    H2 7438   0.811   0.712   3.474 -0.0277  0.4190  0.3896
 2478TIP3   OH2 7439   0.595   2.240   3.836  0.3362  0.6542 -0.0648
 2478TIP3    H1 7440   0.645   2.310   3.877 -0.7629  1.8609 -0.7177
 2478TIP3    H2 7441   0.539   2.284   3.772  0.3349 -0.9236 -1.2254
 2479TIP3   OH2 7442   4.713   0.848   1.745  0.3403 -0.3615 -0.0613
 2479TIP3    H1 7443   4.732   0.903   1.821  1.6541  0.0482 -0.6614
 2479TIP3    H2 7444   4.619   0.856   1.732  0.0018 -0.8896  1.8547
 2480TIP3   OH2 7445   0.056   5.309   0.248 -0.1832 -0.2981  0.3039
 2480TIP3    H1 7446   0.029   5.219   0.268  0.7084 -0.6577 -0.0585
 2480TIP3    H2 7447   0.152   5.306   0.250 -0.1433  0.5750 -0.0306
 2481TIP3   OH2 7448   4.493   5.812   2.598 -0.1972  0.0757 -0.3559
 2481TIP3    H1 7449   4.568   5.786   2.545  0.8910  1.9433  0.1815
 2481TIP3    H2 7450   4.424   5.749   2.575  1.8738 -2.5235  0.1011
 2482TIP3   OH2 7451   0.312   4.595   1.286 -0.1177 -0.7702 -0.1576
 2482TIP3    H1 7452   0.234   4.539   1.290 -1.8928  1.5432 -0.0588
 2482TIP3    H2 7453   0.314   4.638   1.371  0.4628  0.1884 -0.6395
 2483TIP3   OH2 7454   1.972   3.639   4.533  0.8836 -0.0500 -0.5591
 2483TIP3    H1 7455   2.051   3.661   4.581  1.2225 -1.2987 -0.5142
 2483TIP3    H2 7456   1.901   3.648   4.596  1.0462  0.5753 -0.4639
 2484TIP3   OH2 7457   4.027   2.130   4.146 -0.3897 -0.3816  0.6202
 2484TIP3    H1 7458   4.036   2.035   4.151 -0.1748 -0.3999  0.0187
 2484TIP3    H2 7459   4.061   2.162   4.229 -0.7490 -0.8474  0.9536
 2485TIP3   OH2 7460   2.101   3.592   0.452  0.2651  0.4816  0.1783
 2485TIP3    H1 7461   2.188   3.562   0.478  0.1488 -0.1142 -0.1176
 2485TIP3    H2 7462   2.070   3.644   0.527  0.4123 -0.2487  0.7568
 2486TIP3   OH2 7463   1.536   3.507   1.825 -0.4006 -0.3188 -0.4042
 2486TIP3    H1 7464   1.534   3.511   1.920 -0.3923  0.1946 -0.4195
 2486TIP3    H2 7465   1.462   3.451   1.801 -0.2477 -0.6567 -0.0898
 2487TIP3   OH2 7466   1.720   2.101   0.765 -0.2275  0.0977  0.7955
 2487TIP3    H1 7467   1.651   2.039   0.789  0.9423 -2.0513 -1.0338
 2487TIP3    H2 7468   1.688   2.144   0.685  1.3851 -2.6718 -1.5081
 2488TIP3   OH2 7469   0.590   5.155   4.666  0.5340 -0.2903 -0.7976
 2488TIP3    H1 7470   0.513   5.194   4.623 -0.0526  0.1117  0.5770
 2488TIP3    H2 7471   0.576   5.061   4.659 -0.9535 -0.2454  0.8729
 2489TIP3   OH2 7472   3.648   3.759   4.741 -0.0733 -0.7123 -0.6665
 2489TIP3    H1 7473   3.633   3.852   4.725  0.7151 -0.4860 -0.1320
 2489TIP3    H2 7474   3.573   3.715   4.699 -0.9676  0.2163 -0.0984
 2490TIP3   OH2 7475   4.950   2.417   4.658 -0.6445  0.4150  0.3196
 2490TIP3    H1 7476   4.945   2.330   4.619 -0.0292 -1.0295  3.1924
 2490TIP3    H2 7477   5.037   2.448   4.636  0.2548 -1.0082  1.6108
 2491TIP3   OH2 7478   1.992   4.340   3.431  0.3924 -0.3735  0.2845
 2491TIP3    H1 7479   1.960   4.263   3.385  2.0977 -0.0503 -1.5838
 2491TIP3    H2 7480   2.085   4.345   3.408  0.4389  1.9904  0.6907
 2492TIP3   OH2 7481   0.170   5.696   3.005 -0.2961 -0.2293 -0.7422
 2492TIP3    H1 7482   0.266   5.701   2.997 -0.0526 -2.7227 -0.2160
 2492TIP3    H2 7483   0.147   5.775   3.054  1.5608  0.1787 -0.4301
 2493TIP3   OH2 7484   6.001   5.290   0.317 -0.2177  0.1944  0.4355
 2493TIP3    H1 7485   6.010   5.195   0.325  0.5408  0.1277 -0.9865
 2493TIP3    H2 7486   6.016   5.323   0.405  0.3787 -0.9449  0.7747
 2494TIP3   OH2 7487   5.671   5.947   2.926 -0.3015  0.5923 -0.0440
 2494TIP3    H1 7488   5.765   5.940   2.911 -0.7865 -0.2726 -3.6937
 2494TIP3    H2 7489   5.652   5.883   2.995  1.5610 -0.4117 -0.4229
 2495TIP3   OH2 7490   1.909   5.108   1.526  0.3522  0.0606 -0.2377
 2495TIP3    H1 7491   1.867   5.188   1.494  1.8607  1.7318  1.6570
 2495TIP3    H2 7492   2.000   5.134   1.543  0.6200 -1.7519  1.4650
 2496TIP3   OH2 7493   5.413   5.145   0.440 -0.0400  0.3766 -0.1402
 2496TIP3    H1 7494   5.321   5.129   0.420  0.0193 -1.1188  0.5759
 2496TIP3    H2 7495   5.461   5.087   0.381  0.2676 -1.2942  1.6475
 2497TIP3   OH2 7496   5.233   3.488   3.974 -0.3377  0.4124  0.1123
 2497TIP3    H1 7497   5.273   3.528   4.051 -0.8755 -1.3691  1.3878
 2497TIP3    H2 7498   5.297   3.421   3.947 -1.0793 -0.3995  0.3309
 2498TIP3   OH2 7499   3.673   2.416   1.153 -0.2087  0.0860 -0.2349
 2498TIP3    H1 7500   3.735   2.489   1.153 -1.2705  1.0050  0.3694
 2498TIP3    H2 7501   3.725   2.341   1.185  0.6094  0.8166  0.1993
 2499TIP3   OH2 7502   4.571   2.280   5.104  0.8391  0.3658 -0.0587
 2499TIP3    H1 7503   4.639   2.231   5.151 -0.6151  0.4407  2.3089
 2499TIP3    H2 7504   4.602   2.371   5.106  1.7805  0.0844 -1.1472
 2500TIP3   OH2 7505   2.262   4.410   0.289 -0.4988 -0.5890  0.5756
 2500TIP3    H1 7506   2.169   4.432   0.285 -0.6030 -0.4919  2.6741
 2500TIP3    H2 7507   2.307   4.495   0.282 -0.4519 -0.7231 -1.6361
 2501TIP3   OH2 7508   4.762   5.714   1.876  0.0908  0.6462  0.5560
 2501TIP3    H1 7509   4.675   5.701   1.837  0.9782 -1.2993 -0.9469
 2501TIP3    H2 7510   4.803   5.780   1.819 -0.2727  1.3608  1.1029
 2502TIP3   OH2 7511   3.174   0.908   3.098 -0.3991 -0.6190 -0.0666
 2502TIP3    H1 7512   3.200   0.997   3.074 -2.2130 -0.1187 -0.3443
 2502TIP3    H2 7513   3.081   0.915   3.120 -0.2631 -2.2128  1.2115
 2503TIP3   OH2 7514   2.711   2.264   3.789  0.1187  0.3980  0.5175
 2503TIP3    H1 7515   2.766   2.187   3.802  2.3771  1.4373 -1.9108
 2503TIP3    H2 7516   2.664   2.246   3.708 -1.0751  0.7039  1.1170
 2504TIP3   OH2 7517   0.159   5.374   3.133  0.5014 -0.1926  0.2948
 2504TIP3    H1 7518   0.073   5.386   3.172 -0.8583 -0.1570 -2.4345
 2504TIP3    H2 7519   0.209   5.450   3.162 -1.3155  1.2967 -0.2576
 2505TIP3   OH2 7520   2.195   5.222   3.507 -0.3999 -0.1140  0.1215
 2505TIP3    H1 7521   2.196   5.134   3.543 -0.5482 -0.0052  0.3906
 2505TIP3    H2 7522   2.284   5.235   3.474 -0.4293 -0.4308 -0.0856
 2506TIP3   OH2 7523   3.450   3.063   2.167  0.7857  0.0279 -0.4066
 2506TIP3    H1 7524   3.406   3.091   2.247  2.5063  1.4114  0.1260
 2506TIP3    H2 7525   3.481   2.975   2.186  0.2114 -0.0895  0.0119
 2507TIP3   OH2 7526   5.351   0.023   1.064  0.1995 -0.1909  0.0216
 2507TIP3    H1 7527   5.309   0.102   1.030  0.2387 -0.3295 -0.3563
 2507TIP3    H2 7528   5.279  -0.034   1.089  0.1551 -0.5185 -0.8344
 2508TIP3   OH2 7529   2.764   3.128   1.044  0.2340 -0.4452  0.1130
 2508TIP3    H1 7530   2.808   3.175   1.114  0.2163  0.0483 -0.2020
 2508TIP3    H2 7531   2.821   3.139   0.968 -0.2201 -0.1559 -0.1915
 2509TIP3   OH2 7532   5.517   1.954   4.754 -0.2862  0.4033 -0.2917
 2509TIP3    H1 7533   5.461   1.998   4.818  0.7288  1.2468  0.0448
 2509TIP3    H2 7534   5.486   1.863   4.754  0.2228  0.1544  2.0413
 2510TIP3   OH2 7535   1.756   2.336   0.453  0.3594 -0.3949 -0.0259
 2510TIP3    H1 7536   1.669   2.350   0.416 -0.1078  0.3397  1.2808
 2510TIP3    H2 7537   1.811   2.405   0.415  0.1036 -0.1804 -0.0069
 2511TIP3   OH2 7538   3.677   4.525   3.158  0.3513 -0.5431 -0.3181
 2511TIP3    H1 7539   3.756   4.518   3.211  0.3264  2.1736  0.2205
 2511TIP3    H2 7540   3.623   4.451   3.185  1.2513 -0.4806  1.8665
 2512TIP3   OH2 7541   0.784   5.320   4.306 -0.1514  0.6520 -0.4749
 2512TIP3    H1 7542   0.879   5.331   4.302  0.0167 -0.7792 -1.2727
 2512TIP3    H2 7543   0.760   5.347   4.394  1.4893 -2.0773  0.9650
 2513TIP3   OH2 7544   2.685   2.080   0.786  0.4847 -0.0446  0.4483
 2513TIP3    H1 7545   2.765   2.081   0.838  1.3052  0.6252 -0.7653
 2513TIP3    H2 7546   2.714   2.054   0.698 -0.6039  0.3563 -0.0555
 2514TIP3   OH2 7547   0.304   4.447   2.365 -0.3948  0.3325 -0.1693
 2514TIP3    H1 7548   0.227   4.459   2.311 -0.6588  0.2234  0.1772
 2514TIP3    H2 7549   0.326   4.535   2.396  0.5488  0.5941 -1.5100
 2515TIP3   OH2 7550   1.974   0.960   0.760 -0.4105 -0.1817  0.4942
 2515TIP3    H1 7551   1.967   0.984   0.667 -0.6548 -0.1034  0.5326
 2515TIP3    H2 7552   2.064   0.928   0.769  0.0480  1.0819  0.5391
 2516TIP3   OH2 7553   3.956   0.712   2.417 -0.2647 -0.0849 -0.3206
 2516TIP3    H1 7554   4.017   0.732   2.488 -0.2320  0.4976 -0.5107
 2516TIP3    H2 7555   3.922   0.797   2.390 -0.4470 -0.3239 -0.8519
 2517TIP3   OH2 7556   3.488   1.067   4.288 -0.5047 -0.3072  0.6518
 2517TIP3    H1 7557   3.564   1.024   4.249 -1.6290  1.0087 -3.6070
 2517TIP3    H2 7558   3.494   1.158   4.256 -3.3620  0.0561  0.9387
 2518TIP3   OH2 7559   3.382   4.721   0.332 -0.0191  0.3593  0.5151
 2518TIP3    H1 7560   3.386   4.788   0.264  1.6805  1.1233  1.2956
 2518TIP3    H2 7561   3.407   4.640   0.288 -3.2976 -0.1206 -0.7288
 2519TIP3   OH2 7562   4.270   4.505   2.806 -0.3062 -0.4313 -0.6727
 2519TIP3    H1 7563   4.280   4.593   2.841 -0.6477 -0.4100 -0.6260
 2519TIP3    H2 7564   4.187   4.474   2.842 -0.4798 -0.5468 -1.1758
 2520TIP3   OH2 7565   2.835   4.030   0.461  0.0921  0.0700  0.0333
 2520TIP3    H1 7566   2.750   4.013   0.420  1.0422 -2.3986 -1.1368
 2520TIP3    H2 7567   2.883   4.082   0.396  0.8100 -1.9529 -1.1523
 2521TIP3   OH2 7568   5.514   3.187   3.061  0.0865  0.1334 -1.0136
 2521TIP3    H1 7569   5.496   3.126   3.132  0.6543  1.3759  0.2603
 2521TIP3    H2 7570   5.431   3.233   3.046  0.5924  1.7279  0.7463
 2522TIP3   OH2 7571   5.548   1.892   1.217  0.3957 -0.2903 -0.4237
 2522TIP3    H1 7572   5.610   1.844   1.162 -0.1695  0.3514 -1.6580
 2522TIP3    H2 7573   5.601   1.931   1.286  1.1257 -1.0816 -0.5291
 2523TIP3   OH2 7574   2.539   0.074   5.163  0.1884  0.0968 -0.1287
 2523TIP3    H1 7575   2.508  -0.016   5.171  0.5140 -0.0115 -0.0479
 2523TIP3    H2 7576   2.633   0.065   5.147  0.4657  0.4549  1.2222
 2524TIP3   OH2 7577   6.110   4.671   4.895  0.2352 -0.2381 -0.6379
 2524TIP3    H1 7578   6.140   4.761   4.905  0.8802 -0.5054 -0.1123
 2524TIP3    H2 7579   6.084   4.644   4.983 -1.3953 -0.0817 -1.0331
 2525TIP3   OH2 7580   3.346   1.721   0.152 -0.0377 -0.0683 -0.2367
 2525TIP3    H1 7581   3.374   1.718   0.061 -0.5190 -1.0759 -0.3641
 2525TIP3    H2 7582   3.306   1.808   0.162 -1.9809 -0.7450 -1.5998
 2526TIP3   OH2 7583   5.011   2.863   3.111 -0.0553  0.3399 -0.0767
 2526TIP3    H1 7584   4.988   2.777   3.075  1.0739 -1.1041  2.4122
 2526TIP3    H2 7585   4.933   2.891   3.158 -0.6295  1.0256 -1.3676
 2527TIP3   OH2 7586   5.897   3.045   3.286  0.6586 -0.4312  0.3665
 2527TIP3    H1 7587   5.951   3.057   3.208  0.5141 -0.5092  0.2526
 2527TIP3    H2 7588   5.841   3.124   3.289 -0.1825 -0.9792 -0.2954
 2528TIP3   OH2 7589   2.853   2.446   4.196  0.1466 -0.1188  0.6522
 2528TIP3    H1 7590   2.794   2.407   4.132  0.9931 -1.8720  0.8874
 2528TIP3    H2 7591   2.797   2.471   4.269 -0.5546  0.0678  0.0649
 2529TIP3   OH2 7592   3.333   0.275   3.236 -0.2765  0.0502 -0.1156
 2529TIP3    H1 7593   3.382   0.356   3.221 -0.4354  0.4591  1.4495
 2529TIP3    H2 7594   3.374   0.236   3.313 -2.5856  0.6009  1.5002
 2530TIP3   OH2 7595   3.645   0.518   1.627 -0.0401 -0.0906 -0.0761
 2530TIP3    H1 7596   3.556   0.486   1.637 -0.0707 -0.2121 -0.7197
 2530TIP3    H2 7597   3.636   0.608   1.596  0.0410 -0.6672 -1.9157
 2531TIP3   OH2 7598   5.535   5.869   2.670  0.1788  0.4980 -0.4410
 2531TIP3    H1 7599   5.524   5.846   2.578 -1.5557  1.3061 -0.4680
 2531TIP3    H2 7600   5.462   5.928   2.689  0.8407  0.8110  1.3041
 2532TIP3   OH2 7601   4.551   1.597   2.410  0.5207  0.4798  0.2444
 2532TIP3    H1 7602   4.646   1.598   2.400  0.3848  0.2959 -1.4267
 2532TIP3    H2 7603   4.535   1.550   2.492  1.8406 -1.0004 -0.2996
 2533TIP3   OH2 7604   1.776   0.294   4.607 -0.5994  0.1748 -0.1264
 2533TIP3    H1 7605   1.747   0.250   4.527  1.8916 -1.2896 -0.3039
 2533TIP3    H2 7606   1.837   0.362   4.576 -0.9671  0.7776  0.4445
 2534TIP3   OH2 7607   4.564   2.262   4.839  0.3473 -0.1210  0.3839
 2534TIP3    H1 7608   4.581   2.284   4.930  0.9311 -2.0488  0.7879
 2534TIP3    H2 7609   4.532   2.171   4.841  1.0904 -0.4707 -1.3805
 2535TIP3   OH2 7610   1.611   1.666   1.509 -0.0831  0.0466  0.1133
 2535TIP3    H1 7611   1.650   1.655   1.423  0.0183  1.1827 -0.0045
 2535TIP3    H2 7612   1.551   1.740   1.499  0.0278  0.2752  1.0342
 2536TIP3   OH2 7613   3.391   0.009   1.410 -0.2395 -0.0722  0.1474
 2536TIP3    H1 7614   3.449   0.006   1.485 -1.2119 -0.2741  0.9115
 2536TIP3    H2 7615   3.422   0.084   1.358  0.1294  0.3698  0.9967
 2537TIP3   OH2 7616   6.041   2.686   1.234  0.4752 -0.1880 -0.1130
 2537TIP3    H1 7617   6.017   2.623   1.167  0.1232  0.7463 -0.8859
 2537TIP3    H2 7618   6.132   2.708   1.215 -0.4625  2.3982 -2.2866
 2538TIP3   OH2 7619   5.162   3.032   3.923 -0.2457  0.3531 -0.3588
 2538TIP3    H1 7620   5.246   3.047   3.879 -0.2944 -2.5992 -1.6720
 2538TIP3    H2 7621   5.098   3.028   3.853 -0.9805 -0.4343  0.3373
 2539TIP3   OH2 7622   1.849   0.484   1.828  0.4284 -0.2615  0.0613
 2539TIP3    H1 7623   1.822   0.493   1.919  0.3285 -2.8477  0.3672
 2539TIP3    H2 7624   1.769   0.501   1.777  0.5711  1.5512  0.4002
 2540TIP3   OH2 7625   0.364   0.807   1.144 -0.2649  0.0835  0.0320
 2540TIP3    H1 7626   0.413   0.854   1.076 -0.7719  0.5312 -0.0208
 2540TIP3    H2 7627   0.289   0.770   1.098  1.7371 -3.6452 -0.7257
 2541TIP3   OH2 7628   4.999   1.968   5.148 -0.1673  0.0446 -0.2578
 2541TIP3    H1 7629   5.070   1.913   5.113 -1.1963 -0.6654 -1.3137
 2541TIP3    H2 7630   5.003   2.048   5.094 -0.3612 -0.1262 -0.5277
 2542TIP3   OH2 7631   3.757   3.151   3.549  0.4667  0.7898  0.0571
 2542TIP3    H1 7632   3.702   3.087   3.594 -1.7843  1.6522 -1.3017
 2542TIP3    H2 7633   3.847   3.127   3.572 -0.2077 -3.2219 -0.8707
 2543TIP3   OH2 7634   5.921   5.531   0.784  0.5804  0.2010 -1.1343
 2543TIP3    H1 7635   5.838   5.519   0.830  1.0086  0.5281 -0.2535
 2543TIP3    H2 7636   5.908   5.611   0.733  1.3646  2.1505  1.4796
 2544TIP3   OH2 7637   2.718   0.421   5.075  0.4646  0.4310  0.2168
 2544TIP3    H1 7638   2.713   0.515   5.055 -1.6628  0.0110 -1.6943
 2544TIP3    H2 7639   2.640   0.404   5.128  0.5894 -0.3305  0.1625
 2545TIP3   OH2 7640   6.306   1.047   2.494 -0.1653  0.4479  0.1582
 2545TIP3    H1 7641   6.302   1.142   2.503  0.5077  0.4290  0.7498
 2545TIP3    H2 7642   6.340   1.017   2.579 -1.9995 -0.4509  0.6184
 2546TIP3   OH2 7643   5.039   5.258   3.400 -0.1078  0.2369 -0.1569
 2546TIP3    H1 7644   5.035   5.167   3.373  0.8889  0.4279 -1.0337
 2546TIP3    H2 7645   5.125   5.267   3.442  0.1469  0.9395 -0.8013
 2547TIP3   OH2 7646   3.078   0.619   2.796 -0.6579  0.1530  0.5409
 2547TIP3    H1 7647   3.136   0.573   2.735 -0.9178 -1.3844  1.4031
 2547TIP3    H2 7648   3.095   0.578   2.880 -1.5314  1.0885  1.1998
 2548TIP3   OH2 7649   0.553   2.777   2.421 -0.4692  0.7878 -0.0079
 2548TIP3    H1 7650   0.489   2.715   2.386  1.5752 -0.5568 -1.5495
 2548TIP3    H2 7651   0.589   2.734   2.498 -0.5872  1.0669  0.2091
 2549TIP3   OH2 7652   4.635   1.043   2.979  0.7512  0.0045  0.0705
 2549TIP3    H1 7653   4.646   1.048   2.884 -0.7432 -2.7851 -0.3492
 2549TIP3    H2 7654   4.721   1.016   3.011  0.6441 -1.4202 -0.7875
 2550TIP3   OH2 7655   5.456   4.638   1.711 -0.2578 -0.1398 -0.2258
 2550TIP3    H1 7656   5.400   4.672   1.780 -1.9859 -0.6422 -1.3077
 2550TIP3    H2 7657   5.521   4.584   1.756 -1.7209 -0.9617  0.9801
 2551TIP3   OH2 7658   4.821   0.381   3.703 -0.0188  0.5338  0.1448
 2551TIP3    H1 7659   4.903   0.343   3.672  0.0413 -0.3334  1.2732
 2551TIP3    H2 7660   4.755   0.314   3.686 -0.2293  0.6279  0.5519
 2552TIP3   OH2 7661   0.750   5.368   4.580 -0.2479 -0.4127  0.1629
 2552TIP3    H1 7662   0.680   5.306   4.600 -0.2714 -0.6220 -0.5420
 2552TIP3    H2 7663   0.807   5.365   4.657 -0.6462 -0.7564  0.4487
 2553TIP3   OH2 7664   3.872   1.053   5.191  0.2090  0.1364  0.6150
 2553TIP3    H1 7665   3.859   0.960   5.206  1.1346 -0.2978 -1.0460
 2553TIP3    H2 7666   3.953   1.059   5.141  0.8123  1.9420  1.6865
 2554TIP3   OH2 7667   5.308   5.043   2.864 -0.2591 -0.3698  0.1577
 2554TIP3    H1 7668   5.334   5.071   2.951 -0.2902  2.1685 -0.5755
 2554TIP3    H2 7669   5.217   5.016   2.874  0.2533 -1.8113  1.2116
 2555TIP3   OH2 7670   3.535   5.173   1.934  0.2021  0.6838  0.6280
 2555TIP3    H1 7671   3.467   5.175   2.001 -1.6984  2.6183 -1.1570
 2555TIP3    H2 7672   3.575   5.260   1.938  0.3339  0.6911 -0.4397
 2556TIP3   OH2 7673   3.100   5.382   0.897  0.6124  0.1465 -0.1604
 2556TIP3    H1 7674   3.151   5.301   0.905 -0.2233 -0.3069  0.9120
 2556TIP3    H2 7675   3.134   5.439   0.966 -1.4463 -0.8402  1.8112
 2557TIP3   OH2 7676   3.910   2.682   2.586 -0.3781  0.2173 -0.8032
 2557TIP3    H1 7677   3.944   2.609   2.533  1.2439  1.4036 -1.4888
 2557TIP3    H2 7678   3.866   2.738   2.522 -2.8937 -0.8055 -0.0663
 2558TIP3   OH2 7679   5.332   1.412   3.988  0.4460 -0.2248 -0.2891
 2558TIP3    H1 7680   5.331   1.357   3.911 -0.6703 -0.1570 -0.3512
 2558TIP3    H2 7681   5.278   1.488   3.964  1.6506  0.7294 -0.0866
 2559TIP3   OH2 7682   2.995   1.118   4.744 -0.0439 -0.0969 -0.3104
 2559TIP3    H1 7683   2.978   1.034   4.788 -1.4463  0.6725  0.6830
 2559TIP3    H2 7684   2.912   1.165   4.749  0.9109  1.6700 -0.1638
 2560TIP3   OH2 7685   0.252   1.932   1.244 -0.5321  0.1777 -0.2969
 2560TIP3    H1 7686   0.179   1.995   1.246 -0.2189  0.5268  0.0585
 2560TIP3    H2 7687   0.282   1.934   1.153  1.5708  2.9732  0.3205
 2561TIP3   OH2 7688   0.184   1.637   1.965 -0.1788  0.4915 -0.4317
 2561TIP3    H1 7689   0.124   1.689   1.912 -1.3067  0.4578  0.7589
 2561TIP3    H2 7690   0.257   1.696   1.983 -0.9767  1.3525  0.0758
 2562TIP3   OH2 7691   6.181   0.087   1.491  0.0653 -0.1210 -0.1815
 2562TIP3    H1 7692   6.213   0.111   1.578 -0.3276  0.5952 -0.2221
 2562TIP3    H2 7693   6.227   0.148   1.432 -1.2855  0.8676 -0.2480
 2563TIP3   OH2 7694   1.160   1.152   3.799 -0.1730 -0.2939  0.6951
 2563TIP3    H1 7695   1.225   1.160   3.869  0.6420  1.2006 -0.1958
 2563TIP3    H2 7696   1.159   1.238   3.757 -1.4355 -0.8391 -0.4482
 2564TIP3   OH2 7697   3.132   1.107   5.040  0.3203  0.6451  0.6478
 2564TIP3    H1 7698   3.204   1.135   5.096 -0.9512  0.7338  2.2946
 2564TIP3    H2 7699   3.053   1.133   5.087 -0.8354  1.8015 -1.7274
 2565TIP3   OH2 7700   2.965   4.371   3.014 -0.5950 -0.2029  0.2421
 2565TIP3    H1 7701   2.873   4.366   3.043 -0.8882  0.3781 -0.5612
 2565TIP3    H2 7702   2.980   4.288   2.970  0.1897 -1.5868  2.9068
 2566TIP3   OH2 7703   6.056   4.404   1.723 -0.3228 -0.1578 -0.0634
 2566TIP3    H1 7704   6.057   4.315   1.689  0.3834  0.0876 -0.6998
 2566TIP3    H2 7705   6.145   4.437   1.709 -0.8807  1.0593 -0.9403
 2567TIP3   OH2 7706   2.074   2.929   3.393  0.0018  0.1473 -0.1921
 2567TIP3    H1 7707   2.120   2.891   3.318  0.5794 -0.3135  0.3758
 2567TIP3    H2 7708   2.138   2.925   3.464 -1.3973 -1.9539  1.0475
 2568TIP3   OH2 7709   6.266   2.315   3.466 -0.1844  0.5234  0.4136
 2568TIP3    H1 7710   6.225   2.233   3.437  0.5459  0.7034 -1.2839
 2568TIP3    H2 7711   6.280   2.364   3.385  1.2159  1.4658  1.1854
 2569TIP3   OH2 7712   0.245   3.934   3.870 -0.7492 -0.1961  0.2613
 2569TIP3    H1 7713   0.225   4.027   3.878 -1.6039 -0.4078  0.7700
 2569TIP3    H2 7714   0.166   3.890   3.902  0.8940 -1.1000  3.5726
 2570TIP3   OH2 7715   0.223   5.349   4.992  0.2322  0.0157 -0.3372
 2570TIP3    H1 7716   0.239   5.441   5.014 -1.7855  0.8508 -2.0437
 2570TIP3    H2 7717   0.305   5.305   5.013  1.6440  2.4010 -0.4928
 2571TIP3   OH2 7718   3.738   2.220   0.792 -0.0413 -0.2069  0.1736
 2571TIP3    H1 7719   3.773   2.299   0.750  1.9699 -1.2201 -0.1956
 2571TIP3    H2 7720   3.797   2.150   0.764 -0.5045 -1.4846  2.1805
 2572TIP3   OH2 7721   2.192   0.981   2.481  0.3123  0.0280 -0.1869
 2572TIP3    H1 7722   2.239   1.058   2.447  0.7083 -0.5021 -0.8604
 2572TIP3    H2 7723   2.168   1.006   2.570 -0.3644  1.2855 -0.6935
 2573TIP3   OH2 7724   4.370   5.283   0.938  0.0190 -0.3770 -0.0223
 2573TIP3    H1 7725   4.465   5.281   0.927 -0.0350  0.6761 -0.9252
 2573TIP3    H2 7726   4.356   5.338   1.016  0.1371  0.7231 -0.7426
 2574TIP3   OH2 7727   6.228   5.802   0.627 -0.0176  0.3220 -0.5769
 2574TIP3    H1 7728   6.169   5.811   0.701 -0.2311 -0.3212 -0.6680
 2574TIP3    H2 7729   6.170   5.785   0.552  0.1722  1.2136 -0.9471
 2575TIP3   OH2 7730   0.781   0.301   3.492  0.0652 -0.2421 -0.5815
 2575TIP3    H1 7731   0.799   0.207   3.494  0.2389 -0.1993 -0.0337
 2575TIP3    H2 7732   0.849   0.337   3.436  0.0608 -0.4286 -0.7088
 2576TIP3   OH2 7733   4.218   1.514   4.352 -0.3469 -0.2822 -0.3156
 2576TIP3    H1 7734   4.233   1.560   4.269  5.2240 -0.6244  0.0944
 2576TIP3    H2 7735   4.222   1.421   4.328  1.3629 -0.3809  0.2142
 2577TIP3   OH2 7736   4.062   1.086   3.166 -0.3180 -0.4564 -0.1318
 2577TIP3    H1 7737   4.003   1.123   3.232  0.9688 -0.0906  0.8580
 2577TIP3    H2 7738   4.072   1.156   3.101 -0.1761 -0.1333  0.2304
 2578TIP3   OH2 7739   1.430   2.173   1.128  0.2493  0.5571  0.5460
 2578TIP3    H1 7740   1.520   2.147   1.109  0.6184  2.2635 -0.2108
 2578TIP3    H2 7741   1.402   2.113   1.198  1.7576 -0.3610  0.4135
 2579TIP3   OH2 7742   0.972   4.872   2.510  0.0744  0.6583 -0.3675
 2579TIP3    H1 7743   1.015   4.811   2.570 -1.1699 -1.1745 -1.2741
 2579TIP3    H2 7744   1.045   4.916   2.465  1.0457  1.9226  2.1966
 2580TIP3   OH2 7745   0.196   0.203   2.549  0.1803  0.4426 -0.5026
 2580TIP3    H1 7746   0.234   0.291   2.559  0.1110  0.4107  0.1225
 2580TIP3    H2 7747   0.145   0.207   2.468  0.7260  0.7775 -0.8351
 2581TIP3   OH2 7748   4.908   4.392   4.609  0.2713 -0.4600  0.3036
 2581TIP3    H1 7749   4.840   4.356   4.666  0.6605 -0.9264  0.4758
 2581TIP3    H2 7750   4.874   4.477   4.582 -0.0420 -0.3570  1.0072
 2582TIP3   OH2 7751   5.787   4.683   0.503  0.2609  0.3138  0.1983
 2582TIP3    H1 7752   5.785   4.647   0.414 -1.1077 -0.2972  0.4637
 2582TIP3    H2 7753   5.700   4.719   0.517  0.6130  0.8553  1.1264
 2583TIP3   OH2 7754   3.486   1.191   3.365 -0.0638 -0.0644 -0.5372
 2583TIP3    H1 7755   3.520   1.267   3.318  0.5474  0.0829  0.1280
 2583TIP3    H2 7756   3.499   1.118   3.306  2.3038 -0.1723  0.0477
 2584TIP3   OH2 7757   0.572   0.549   4.215 -0.4903  0.3992  0.4891
 2584TIP3    H1 7758   0.620   0.488   4.272 -1.8484 -0.6412  0.5744
 2584TIP3    H2 7759   0.526   0.607   4.276 -1.6924 -0.5136  0.4836
 2585TIP3   OH2 7760   5.265   1.330   0.824  0.4028 -0.1956  0.4705
 2585TIP3    H1 7761   5.177   1.346   0.789  0.7721  0.8580 -0.0083
 2585TIP3    H2 7762   5.304   1.417   0.831  1.5039 -0.6777  0.4154
 2586TIP3   OH2 7763   0.417   3.841   2.347  0.3091 -0.0349 -0.4640
 2586TIP3    H1 7764   0.468   3.761   2.363 -0.9211 -0.9325 -0.8342
 2586TIP3    H2 7765   0.482   3.911   2.342  1.4334 -1.0362 -0.2816
 2587TIP3   OH2 7766   2.442   0.509   0.192  0.8325  0.0744  0.0279
 2587TIP3    H1 7767   2.479   0.587   0.233  1.4474  0.1118 -0.5787
 2587TIP3    H2 7768   2.480   0.436   0.241  0.5225  0.1395  0.3750
 2588TIP3   OH2 7769   3.986   3.313   4.445  0.1640  0.5281  0.4281
 2588TIP3    H1 7770   4.065   3.260   4.454 -0.5193 -0.7859 -0.8853
 2588TIP3    H2 7771   3.927   3.280   4.512  0.5182  1.1366  1.0480
 2589TIP3   OH2 7772   1.796   1.176   2.222 -0.1725 -0.1921 -0.2753
 2589TIP3    H1 7773   1.762   1.108   2.280 -1.3325  2.0749  1.8736
 2589TIP3    H2 7774   1.882   1.145   2.196 -0.3620 -2.1164  1.2269
 2590TIP3   OH2 7775   3.392   3.374   0.224  0.3177 -0.0059  0.0636
 2590TIP3    H1 7776   3.484   3.396   0.214  0.8391 -1.5662  1.0807
 2590TIP3    H2 7777   3.372   3.394   0.316 -0.8093  1.7424 -0.4985
 2591TIP3   OH2 7778   3.404   1.383   5.145 -0.4294  0.5686  0.2597
 2591TIP3    H1 7779   3.320   1.417   5.116 -0.9245 -1.3836 -0.7973
 2591TIP3    H2 7780   3.384   1.296   5.180  1.2393 -0.3004 -0.8089
 2592TIP3   OH2 7781   5.102   3.505   2.464  0.0349 -0.0136 -0.0239
 2592TIP3    H1 7782   5.031   3.550   2.510  1.1663 -0.3946  2.2207
 2592TIP3    H2 7783   5.178   3.513   2.522  1.0117 -2.4045 -0.8435
 2593TIP3   OH2 7784   1.666   0.401   1.595 -0.0178  0.4690 -0.1734
 2593TIP3    H1 7785   1.613   0.329   1.629  0.4600  0.0251 -0.3595
 2593TIP3    H2 7786   1.682   0.378   1.504  0.6493  0.5020 -0.0692
 2594TIP3   OH2 7787   2.284   3.463   0.172  0.3670 -0.2281  0.1222
 2594TIP3    H1 7788   2.373   3.442   0.200 -0.1359 -0.6810  1.4682
 2594TIP3    H2 7789   2.282   3.558   0.165  1.4293 -0.3033 -1.6551
 2595TIP3   OH2 7790   5.910   5.092   4.728  0.0055 -0.0276  0.0913
 2595TIP3    H1 7791   5.885   5.181   4.705 -0.5335  0.3064  1.8198
 2595TIP3    H2 7792   5.994   5.079   4.684 -1.1975  0.2819 -2.4923
 2596TIP3   OH2 7793   2.046   2.683   3.982 -0.0064 -0.1638 -0.3620
 2596TIP3    H1 7794   2.126   2.735   3.972 -0.5792  0.9556  0.6475
 2596TIP3    H2 7795   2.038   2.669   4.077 -1.0881 -0.1354 -0.4383
 2597TIP3   OH2 7796   6.300   3.966   0.201  0.1014  0.1102  0.3084
 2597TIP3    H1 7797   6.302   3.979   0.106 -0.7120  1.1882  0.4217
 2597TIP3    H2 7798   6.361   4.031   0.236  0.9220 -0.7431  0.4958
 2598TIP3   OH2 7799   1.930   0.703   2.076 -0.2112 -0.1545  0.4653
 2598TIP3    H1 7800   1.932   0.610   2.098  0.6943  0.3890  3.1120
 2598TIP3    H2 7801   1.847   0.735   2.112 -0.9098 -0.0477 -1.1622
 2599TIP3   OH2 7802   2.534   2.267   4.688  0.2376 -0.0869 -0.1029
 2599TIP3    H1 7803   2.575   2.342   4.730  1.5868  0.5039 -2.3313
 2599TIP3    H2 7804   2.571   2.191   4.732  0.1837  0.4966  0.9915
 2600TIP3   OH2 7805   3.128   0.233   4.957  0.2935 -0.1303  0.0135
 2600TIP3    H1 7806   3.117   0.137   4.954 -1.1913 -0.0133  0.8289
 2600TIP3    H2 7807   3.137   0.253   5.050  1.7818  0.4325 -0.2276
 2601TIP3   OH2 7808   2.787   2.435   2.185 -0.5580 -0.1562 -0.5750
 2601TIP3    H1 7809   2.722   2.495   2.220  0.8797  1.2413 -0.2094
 2601TIP3    H2 7810   2.844   2.414   2.259  0.4186  0.0026 -1.2650
 2602TIP3   OH2 7811   0.968   4.079   1.012 -0.0068 -0.1775 -0.3411
 2602TIP3    H1 7812   1.013   4.000   0.982 -3.2089 -3.5130  2.6630
 2602TIP3    H2 7813   0.898   4.093   0.949 -0.5927 -0.9393  0.1347
 2603TIP3   OH2 7814   3.814   0.303   5.101 -0.5429  0.5874 -0.2369
 2603TIP3    H1 7815   3.811   0.267   5.190 -2.0288 -0.4563 -0.6660
 2603TIP3    H2 7816   3.840   0.394   5.113  1.6868 -0.1439  1.0376
 2604TIP3   OH2 7817   0.039   3.865   4.587 -0.5471  0.9436 -0.5248
 2604TIP3    H1 7818   0.004   3.781   4.559  0.0616  0.0914  1.1449
 2604TIP3    H2 7819   0.064   3.909   4.506  0.3169 -1.0125 -1.3868
 2605TIP3   OH2 7820   2.078   1.095   0.084 -0.2628 -0.5898  0.4954
 2605TIP3    H1 7821   2.102   1.129  -0.002  0.3768  0.3382  1.0224
 2605TIP3    H2 7822   1.984   1.113   0.092  0.1748  1.7351  1.0242
 2606TIP3   OH2 7823   0.458   4.766   3.094 -0.1326 -0.5761  0.2626
 2606TIP3    H1 7824   0.515   4.696   3.126  0.6813 -0.3946 -0.7177
 2606TIP3    H2 7825   0.510   4.846   3.105 -0.1282 -0.4221 -0.7528
 2607TIP3   OH2 7826   2.512   1.829   4.876 -0.7429  0.3515  0.0176
 2607TIP3    H1 7827   2.441   1.887   4.850 -1.4108 -0.5369 -0.1790
 2607TIP3    H2 7828   2.478   1.783   4.953 -0.5734 -0.4172 -0.3559
 2608TIP3   OH2 7829   1.771   2.775   0.282 -0.1623 -0.1317  0.0315
 2608TIP3    H1 7830   1.858   2.812   0.264 -0.5176  0.5080 -0.4048
 2608TIP3    H2 7831   1.727   2.842   0.334 -1.1509  0.5263 -1.5580
 2609TIP3   OH2 7832   0.909   2.219   1.513  0.0496 -0.2224  0.2925
 2609TIP3    H1 7833   0.853   2.142   1.507  0.8193 -0.6583 -3.0258
 2609TIP3    H2 7834   0.883   2.261   1.595 -2.6363 -2.2504  0.6125
 2610TIP3   OH2 7835   5.207   3.691   0.933  0.4709 -0.0057  0.0053
 2610TIP3    H1 7836   5.159   3.671   1.013  1.0258  0.8569  0.5690
 2610TIP3    H2 7837   5.290   3.729   0.963  1.0074 -0.3659 -0.9635
 2611TIP3   OH2 7838   0.951   0.401   1.606 -0.2148 -0.1474  0.0807
 2611TIP3    H1 7839   0.925   0.312   1.628  0.4355 -0.4360 -0.2940
 2611TIP3    H2 7840   0.884   0.431   1.545 -0.8186 -0.1225  0.7358
 2612TIP3   OH2 7841   5.236   4.095   5.157  0.2558  0.1793  0.9998
 2612TIP3    H1 7842   5.288   4.173   5.176  0.7408 -0.3260  1.8342
 2612TIP3    H2 7843   5.223   4.054   5.243 -1.1513  0.0520  0.7593
 2613TIP3   OH2 7844   3.633   1.156   4.624 -0.7087 -0.1103 -0.2909
 2613TIP3    H1 7845   3.687   1.084   4.595 -0.2381 -0.1315  0.6053
 2613TIP3    H2 7846   3.614   1.206   4.544  0.1685 -0.4086 -0.6961
 2614TIP3   OH2 7847   0.903   2.718  -0.011 -0.2884  0.1736 -0.3828
 2614TIP3    H1 7848   0.877   2.793  -0.063 -0.5854 -0.0883 -0.6128
 2614TIP3    H2 7849   0.898   2.748   0.080 -0.0275  0.5467 -0.4919
 2615TIP3   OH2 7850   3.744   5.165   1.001  0.3684 -0.4907 -0.1521
 2615TIP3    H1 7851   3.687   5.126   1.067 -0.1839 -0.2277 -0.4612
 2615TIP3    H2 7852   3.724   5.259   1.005  1.7257 -0.2174  0.6259
 2616TIP3   OH2 7853   3.487   4.136   0.621 -0.5063 -0.4188  0.5494
 2616TIP3    H1 7854   3.480   4.197   0.548 -2.4141 -0.6398  0.4911
 2616TIP3    H2 7855   3.536   4.062   0.586  1.0272  0.6373  0.3510
 2617TIP3   OH2 7856   4.812   0.282   1.096  0.2231 -0.5272  0.0860
 2617TIP3    H1 7857   4.881   0.343   1.124 -0.2614  0.1405 -0.1268
 2617TIP3    H2 7858   4.856   0.198   1.086  0.6501 -0.5183  1.6801
 2618TIP3   OH2 7859   4.084   4.390   3.657  0.2014 -0.5323  0.2549
 2618TIP3    H1 7860   4.014   4.344   3.610  0.0912  0.7804 -0.9333
 2618TIP3    H2 7861   4.045   4.472   3.685  1.3938  0.5140 -0.9943
 2619TIP3   OH2 7862   2.362   5.808   5.176 -0.2244 -0.1245 -0.0636
 2619TIP3    H1 7863   2.378   5.840   5.264  1.2693  0.2697 -0.4398
 2619TIP3    H2 7864   2.308   5.875   5.135 -0.0351  0.2064  0.2276
 2620TIP3   OH2 7865   4.896   0.025   3.636 -0.3293 -0.8132  0.4383
 2620TIP3    H1 7866   4.815   0.046   3.589 -1.1158  1.5347  2.6145
 2620TIP3    H2 7867   4.951   0.103   3.626  0.6175 -1.3813  1.0680
 2621TIP3   OH2 7868   2.560   3.577   0.824 -0.0989  0.4639 -0.0809
 2621TIP3    H1 7869   2.479   3.584   0.775  1.0622  0.4255 -2.1372
 2621TIP3    H2 7870   2.591   3.667   0.835  0.0133  0.4301 -0.1085
 2622TIP3   OH2 7871   4.406   4.866   0.910  0.5270 -0.1880 -0.2246
 2622TIP3    H1 7872   4.422   4.772   0.903  0.5905 -0.0948 -1.5856
 2622TIP3    H2 7873   4.374   4.892   0.824  2.4016  1.3710 -0.5345
 2623TIP3   OH2 7874   4.985   5.779   1.325 -0.4759 -0.9859 -0.1053
 2623TIP3    H1 7875   4.940   5.820   1.251 -1.1036 -0.7363  0.3980
 2623TIP3    H2 7876   5.053   5.726   1.286  0.4308  0.6101 -0.7828
 2624TIP3   OH2 7877   4.241   2.440   2.515  0.4554 -0.9146  0.2443
 2624TIP3    H1 7878   4.266   2.388   2.591 -0.4407 -1.5865  0.0866
 2624TIP3    H2 7879   4.238   2.530   2.548  0.2330 -1.1809  0.9655
 2625TIP3   OH2 7880   1.226   2.802   0.244 -0.0174  0.0687  0.3353
 2625TIP3    H1 7881   1.188   2.848   0.319 -0.3645  2.4813 -1.1984
 2625TIP3    H2 7882   1.159   2.738   0.219 -0.4323  0.1046  1.3141
 2626TIP3   OH2 7883   0.158   1.414   3.164  0.3989  0.0845  0.5756
 2626TIP3    H1 7884   0.170   1.344   3.100 -1.1073  1.4400 -1.2829
 2626TIP3    H2 7885   0.192   1.492   3.122 -0.4204  0.9868  1.5234
 2627TIP3   OH2 7886   2.477   4.280   5.082 -0.3099 -0.3226 -0.7956
 2627TIP3    H1 7887   2.551   4.246   5.131  0.0749 -0.2117 -1.2899
 2627TIP3    H2 7888   2.516   4.324   5.006 -0.6647  2.5662  0.5491
 2628TIP3   OH2 7889   3.721   2.270   1.620 -0.4018 -0.5490  0.5493
 2628TIP3    H1 7890   3.814   2.271   1.643 -0.3254 -1.4988  0.3327
 2628TIP3    H2 7891   3.707   2.351   1.571  0.1185  0.0101  1.3129
 2629TIP3   OH2 7892   2.147   5.518   4.706  0.4173 -0.5788 -0.4378
 2629TIP3    H1 7893   2.211   5.588   4.723 -0.6638  0.3051  0.1463
 2629TIP3    H2 7894   2.177   5.445   4.760  0.3789  0.1684  0.6141
 2630TIP3   OH2 7895   1.832   1.737   4.765 -0.1608  0.0908  0.4383
 2630TIP3    H1 7896   1.743   1.734   4.730  0.6711 -2.0545 -1.8041
 2630TIP3    H2 7897   1.846   1.828   4.789 -2.8259  0.5465  0.5860
 2631TIP3   OH2 7898   4.728   0.302   2.979  0.0950 -0.2562 -1.2846
 2631TIP3    H1 7899   4.787   0.377   2.973 -1.3242  0.8754 -1.5003
 2631TIP3    H2 7900   4.685   0.299   2.893 -0.6656 -0.6352 -0.8955
 2632TIP3   OH2 7901   5.908   4.234   4.645 -0.2366  0.3807 -0.3929
 2632TIP3    H1 7902   5.891   4.146   4.679 -1.9362  1.1572  0.9228
 2632TIP3    H2 7903   5.977   4.269   4.700 -0.8482  0.5230  0.2933
 2633TIP3   OH2 7904   0.411   0.807   0.323 -0.0242  0.0574  0.4922
 2633TIP3    H1 7905   0.408   0.742   0.393  0.1102 -0.3294  0.1411
 2633TIP3    H2 7906   0.422   0.890   0.368  0.3870 -0.2246  0.9184
 2634TIP3   OH2 7907   4.049   0.288   1.615  0.6784  0.9169  0.2741
 2634TIP3    H1 7908   4.110   0.346   1.661  0.0110  0.7586  1.3896
 2634TIP3    H2 7909   3.980   0.347   1.582  0.4025  0.8616  0.7420
 2635TIP3   OH2 7910   6.116   1.440   1.286  0.4285 -0.3395  0.7797
 2635TIP3    H1 7911   6.047   1.433   1.220  0.7325  1.2838  0.2642
 2635TIP3    H2 7912   6.139   1.533   1.288  0.7851 -0.4199  2.8123
 2636TIP3   OH2 7913   4.018   3.444   1.300 -0.1673  0.3868  0.4223
 2636TIP3    H1 7914   4.026   3.430   1.394  0.9831  0.3843  0.3377
 2636TIP3    H2 7915   3.953   3.513   1.291 -0.2662  0.4045  1.2221
 2637TIP3   OH2 7916   0.171   0.424   2.039 -0.3594 -0.2840  0.0330
 2637TIP3    H1 7917   0.101   0.445   1.977 -0.9841  1.7002  1.3343
 2637TIP3    H2 7918   0.249   0.415   1.985 -0.9147  1.2451 -1.0766
 2638TIP3   OH2 7919   2.247   4.783   4.818 -0.6530 -1.0398 -0.3461
 2638TIP3    H1 7920   2.158   4.770   4.785 -0.3439 -2.8160 -0.5818
 2638TIP3    H2 7921   2.275   4.865   4.780 -2.1426 -0.5035 -0.3661
 2639TIP3   OH2 7922   3.827   1.509   1.367  0.3364 -0.0635 -0.2691
 2639TIP3    H1 7923   3.831   1.461   1.285 -1.4147  2.5819 -2.0537
 2639TIP3    H2 7924   3.735   1.504   1.394  0.7931 -0.5088  1.3206
 2640TIP3   OH2 7925   2.456   5.302   5.059 -0.0586  0.0620  0.0260
 2640TIP3    H1 7926   2.362   5.283   5.060 -0.7445  2.7200 -1.5635
 2640TIP3    H2 7927   2.480   5.298   4.966  1.6928 -1.5364  0.4861
 2641TIP3   OH2 7928   5.770   1.842   3.132  0.2202  0.0149  0.7289
 2641TIP3    H1 7929   5.796   1.782   3.062 -1.1881  0.7799 -0.5188
 2641TIP3    H2 7930   5.851   1.862   3.179  1.7526  1.4319 -2.2418
 2642TIP3   OH2 7931   2.568  -0.008   4.031 -0.3615  0.1904 -0.0564
 2642TIP3    H1 7932   2.549   0.086   4.038 -3.4653 -0.3909  0.8873
 2642TIP3    H2 7933   2.514  -0.037   3.958 -0.1109 -1.0125  0.2208
 2643TIP3   OH2 7934   6.264   2.391   0.272 -0.0675 -0.5232 -0.2493
 2643TIP3    H1 7935   6.342   2.354   0.232 -0.6233 -1.3252 -0.6161
 2643TIP3    H2 7936   6.200   2.320   0.271 -0.0750 -0.6358  2.2051
 2644TIP3   OH2 7937   1.816   2.172   3.370 -0.0142 -0.1454  0.2302
 2644TIP3    H1 7938   1.763   2.211   3.440 -1.4332  0.1806 -0.9843
 2644TIP3    H2 7939   1.814   2.078   3.389  0.2295  0.0029  1.0321
 2645TIP3   OH2 7940   3.736   4.221   1.541 -0.2200 -0.0448  0.6190
 2645TIP3    H1 7941   3.675   4.272   1.488  2.0768  0.8580 -1.3715
 2645TIP3    H2 7942   3.714   4.130   1.522  0.2916  0.2436 -1.7670
 2646TIP3   OH2 7943   4.505   1.956   4.876  0.0304  0.0325  0.0434
 2646TIP3    H1 7944   4.431   1.898   4.858 -1.1432  0.9712  1.5674
 2646TIP3    H2 7945   4.576   1.897   4.901 -0.6346 -0.8264 -0.0332
 2647TIP3   OH2 7946   1.843   2.526   1.371  0.0589 -0.3656  0.0388
 2647TIP3    H1 7947   1.874   2.600   1.319 -0.4793 -1.0661 -1.3420
 2647TIP3    H2 7948   1.750   2.521   1.353  0.0541 -1.2578  0.2572
 2648TIP3   OH2 7949   3.255   1.422   0.493  0.5305 -0.4617 -0.1314
 2648TIP3    H1 7950   3.269   1.367   0.415 -0.7406  0.8721 -1.3535
 2648TIP3    H2 7951   3.235   1.508   0.458 -0.4741  0.0909  1.6909
 2649TIP3   OH2 7952   2.717   0.952   1.376  0.3968  0.0684  0.0529
 2649TIP3    H1 7953   2.733   1.025   1.316  0.4418  0.2247  0.2583
 2649TIP3    H2 7954   2.743   0.874   1.325 -0.2286  0.1343 -0.3845
 2650TIP3   OH2 7955   4.489   4.137   1.787 -0.0861 -0.2878  0.4237
 2650TIP3    H1 7956   4.405   4.111   1.749 -0.3914 -1.5045  1.8188
 2650TIP3    H2 7957   4.539   4.055   1.790  0.3104 -0.0142  1.6067
 2651TIP3   OH2 7958   4.360   4.229   2.812 -0.0008  0.2095 -0.0334
 2651TIP3    H1 7959   4.321   4.317   2.807  3.1134  1.7207  0.2367
 2651TIP3    H2 7960   4.359   4.208   2.905 -0.4733  0.0731 -0.0658
 2652TIP3   OH2 7961   0.529   5.705   1.671  0.4406 -0.1562  0.3628
 2652TIP3    H1 7962   0.591   5.777   1.682 -0.4424  1.0537 -1.9406
 2652TIP3    H2 7963   0.532   5.684   1.578 -0.7794 -1.7845  0.6447
 2653TIP3   OH2 7964   3.281   3.641   4.426  0.7359 -0.1108 -0.0776
 2653TIP3    H1 7965   3.253   3.719   4.379 -0.1782  1.2642  2.5296
 2653TIP3    H2 7966   3.237   3.568   4.382  2.0903  0.6798 -2.9504
 2654TIP3   OH2 7967   4.149   2.337   2.182 -0.6135 -0.6396 -0.4313
 2654TIP3    H1 7968   4.130   2.290   2.101  1.4671  2.7410 -3.1662
 2654TIP3    H2 7969   4.102   2.420   2.172  0.2850  0.1539  1.4989
 2655TIP3   OH2 7970   5.877   1.697   4.757 -0.3905  0.0351 -0.3425
 2655TIP3    H1 7971   5.815   1.650   4.813  1.1097 -0.5346  0.8949
 2655TIP3    H2 7972   5.854   1.789   4.769 -0.9356 -0.1560  0.1500
 2656TIP3   OH2 7973   0.565   3.912   4.739 -0.1476 -0.0415  0.0428
 2656TIP3    H1 7974   0.640   3.920   4.797  1.1403 -1.0554 -1.3815
 2656TIP3    H2 7975   0.600   3.931   4.652 -2.3807  3.2863 -0.3050
 2657TIP3   OH2 7976   3.799   3.229   5.057  0.1952  0.4229  0.2068
 2657TIP3    H1 7977   3.835   3.290   4.993 -0.0796  0.5518  0.1758
 2657TIP3    H2 7978   3.705   3.243   5.054 -0.0382 -1.0709 -0.9250
 2658TIP3   OH2 7979   2.821   0.332   1.173  0.1218 -0.1203 -0.2919
 2658TIP3    H1 7980   2.805   0.257   1.116  0.9065 -1.0154  0.6488
 2658TIP3    H2 7981   2.898   0.308   1.224 -0.2552  0.8899  0.7874
 2659TIP3   OH2 7982   3.665   2.738   0.907  0.0679 -0.3178  0.3782
 2659TIP3    H1 7983   3.573   2.753   0.888  0.4330 -0.5584 -2.0223
 2659TIP3    H2 7984   3.672   2.643   0.917  0.1606 -0.4145 -0.4548
 2660TIP3   OH2 7985   2.117   1.025   2.166 -0.4634  0.2286 -0.0195
 2660TIP3    H1 7986   2.208   1.001   2.183 -0.5572  0.4382  0.7837
 2660TIP3    H2 7987   2.066   0.972   2.228 -0.9394 -0.3237 -0.8523
 2661TIP3   OH2 7988   4.183   3.776   4.711  0.2052  0.0978 -0.2992
 2661TIP3    H1 7989   4.171   3.681   4.713 -0.7989  0.2172 -0.3647
 2661TIP3    H2 7990   4.190   3.801   4.803  1.3329 -0.1287 -0.3048
 2662TIP3   OH2 7991   0.507   4.979   2.645 -0.3438  0.0377 -0.2352
 2662TIP3    H1 7992   0.572   4.909   2.638  0.6674  0.9361 -0.0401
 2662TIP3    H2 7993   0.525   5.036   2.570 -1.5851 -0.2347 -0.7712
 2663TIP3   OH2 7994   5.340   5.961   3.775  0.2489  0.8302 -0.3764
 2663TIP3    H1 7995   5.301   5.968   3.862 -0.9803  0.8443 -0.8997
 2663TIP3    H2 7996   5.433   5.979   3.788  0.3267 -0.4329  1.1288
 2664TIP3   OH2 7997   1.189   0.944   4.609  0.0702 -0.1360  0.2094
 2664TIP3    H1 7998   1.260   0.884   4.586  0.3720  1.2923 -3.0584
 2664TIP3    H2 7999   1.109   0.893   4.596  0.3556 -0.2021 -1.4229
 2665TIP3   OH2 8000   1.075   5.582   0.665 -0.4665 -0.2985  0.6005
 2665TIP3    H1 8001   1.132   5.553   0.737  0.3217 -0.5557 -0.1092
 2665TIP3    H2 8002   1.025   5.654   0.702  1.7202  1.2591  0.7054
 2666TIP3   OH2 8003   0.412   1.912   0.452  0.4461 -0.4496  0.4669
 2666TIP3    H1 8004   0.331   1.862   0.457 -0.6348  1.3373  2.6320
 2666TIP3    H2 8005   0.475   1.853   0.410 -1.4198 -2.6255  0.5736
 2667TIP3   OH2 8006   5.106   1.583   0.271  0.4713 -0.3452  0.0652
 2667TIP3    H1 8007   5.108   1.499   0.317 -2.1610  0.1828  1.3217
 2667TIP3    H2 8008   5.154   1.642   0.329  0.1480 -0.4297  0.4194
 2668TIP3   OH2 8009   4.155   5.006   3.512 -0.8918  0.4643  0.7678
 2668TIP3    H1 8010   4.142   4.979   3.603 -1.0254 -2.4458 -0.0199
 2668TIP3    H2 8011   4.070   4.992   3.471 -0.2725 -0.4231 -0.2621
 2669TIP3   OH2 8012   1.613   3.794   4.332 -0.2918 -0.4350  0.2954
 2669TIP3    H1 8013   1.692   3.804   4.279 -0.4074  1.2651  0.3739
 2669TIP3    H2 8014   1.614   3.869   4.391 -2.2958  0.0375 -0.1735
 2670TIP3   OH2 8015   2.029   2.864   1.434 -0.3152 -0.0751  0.4626
 2670TIP3    H1 8016   2.092   2.925   1.395  1.2552 -2.0207 -0.1582
 2670TIP3    H2 8017   2.057   2.855   1.525 -0.1430 -0.4063  0.3746
 2671TIP3   OH2 8018   2.515   2.756   1.435 -0.1572 -0.2379  0.2456
 2671TIP3    H1 8019   2.490   2.844   1.407 -4.1693 -1.4756 -0.7390
 2671TIP3    H2 8020   2.564   2.720   1.361  1.2682  0.9998  0.5463
 2672TIP3   OH2 8021   2.210   0.953   1.378 -0.3489  0.1678  0.3821
 2672TIP3    H1 8022   2.182   0.877   1.428 -1.2352  2.2958  3.4456
 2672TIP3    H2 8023   2.134   0.976   1.324  0.1949 -1.4658 -1.1654
 2673TIP3   OH2 8024   2.359   5.822   4.022  0.1417 -0.4278 -0.1671
 2673TIP3    H1 8025   2.404   5.892   3.973 -0.2369  0.4088  0.6481
 2673TIP3    H2 8026   2.380   5.742   3.973  0.4585  0.2668 -1.2168
 2674TIP3   OH2 8027   1.604   0.426   3.966 -0.2478  0.5701  0.1754
 2674TIP3    H1 8028   1.638   0.339   3.986 -1.1938  0.4616  1.3976
 2674TIP3    H2 8029   1.545   0.411   3.892 -1.2055 -0.0273  1.0325
 2675TIP3   OH2 8030   4.020   2.331   0.201  0.5275  0.5277 -0.1592
 2675TIP3    H1 8031   4.030   2.264   0.133 -0.8369 -0.1816  0.3012
 2675TIP3    H2 8032   4.107   2.340   0.239  0.6488 -1.3201  0.0657
 2676TIP3   OH2 8033   0.417   2.740   4.731 -0.4163  0.6823  0.5643
 2676TIP3    H1 8034   0.480   2.812   4.736  0.1907  0.3629 -1.6536
 2676TIP3    H2 8035   0.332   2.783   4.737 -0.0975  1.7739 -1.5901
 2677TIP3   OH2 8036   2.402   3.699   2.549 -0.0850  0.4519  0.4004
 2677TIP3    H1 8037   2.397   3.634   2.619 -0.3471  0.3198  0.2576
 2677TIP3    H2 8038   2.485   3.680   2.505 -0.4866 -0.2432 -0.0866
 2678TIP3   OH2 8039   1.582   4.539   3.541  0.2278 -0.6718  0.0954
 2678TIP3    H1 8040   1.564   4.550   3.635 -1.5652  0.0763 -0.2799
 2678TIP3    H2 8041   1.607   4.627   3.512  1.7009 -1.0925  0.0130
 2679TIP3   OH2 8042   3.733   5.794   3.523  0.3029 -0.0087  0.2168
 2679TIP3    H1 8043   3.697   5.714   3.561  1.4118  0.4004  2.2873
 2679TIP3    H2 8044   3.739   5.775   3.429 -2.6720 -1.0506  0.1213
 2680TIP3   OH2 8045   3.710   1.153   3.988  0.5792  0.0260  0.1319
 2680TIP3    H1 8046   3.695   1.086   4.055 -1.5505  0.9617  0.6832
 2680TIP3    H2 8047   3.743   1.106   3.913  0.0972 -1.5004  0.8441
 2681TIP3   OH2 8048   4.273   5.816   4.263 -0.0683 -0.7069 -0.4707
 2681TIP3    H1 8049   4.216   5.807   4.187  0.5733  0.3717 -1.1105
 2681TIP3    H2 8050   4.256   5.905   4.295  1.5734 -0.1682 -0.9812
 2682TIP3   OH2 8051   0.401   0.113   3.136  0.1873 -0.1389 -0.4137
 2682TIP3    H1 8052   0.328   0.109   3.074  0.5232  1.9750 -1.0513
 2682TIP3    H2 8053   0.466   0.052   3.102 -0.7751 -1.1104 -0.5355
 2683TIP3   OH2 8054   0.923   4.675   0.253 -0.3378  0.1738 -0.8277
 2683TIP3    H1 8055   0.903   4.734   0.325 -0.6742 -1.8609  0.8408
 2683TIP3    H2 8056   1.016   4.656   0.261 -0.4177 -0.2201 -0.7763
 2684TIP3   OH2 8057   5.161   4.639   2.113 -0.1533 -0.0606  0.1297
 2684TIP3    H1 8058   5.079   4.591   2.128  0.3429 -1.6484 -1.8371
 2684TIP3    H2 8059   5.226   4.595   2.167 -0.2695  0.2015  0.4858
 2685TIP3   OH2 8060   4.217   5.298   2.214 -0.5257 -0.0642 -0.0971
 2685TIP3    H1 8061   4.162   5.294   2.136  1.5769 -2.2073 -1.6050
 2685TIP3    H2 8062   4.280   5.368   2.196  0.3829 -1.0023 -0.6959
 2686TIP3   OH2 8063   2.791   3.119   4.568 -0.1392 -0.1817 -0.6074
 2686TIP3    H1 8064   2.722   3.064   4.532 -0.3719 -0.9022  0.8965
 2686TIP3    H2 8065   2.808   3.083   4.655  3.1005 -0.9202 -1.4238
 2687TIP3   OH2 8066   1.045   3.692   3.628  0.3955  0.1983  1.1245
 2687TIP3    H1 8067   1.032   3.786   3.645  1.2976  0.7648 -1.0416
 2687TIP3    H2 8068   1.138   3.683   3.611  0.1564 -0.9038  0.2878
 2688TIP3   OH2 8069   3.321   4.414   1.101  0.2289 -0.2228 -0.1918
 2688TIP3    H1 8070   3.339   4.333   1.148 -0.1395 -1.4345 -2.0053
 2688TIP3    H2 8071   3.226   4.413   1.086  0.4501 -0.4806 -1.8640
 2689TIP3   OH2 8072   2.052   5.978   0.303  0.2268  0.2586 -0.1499
 2689TIP3    H1 8073   2.084   6.026   0.379  0.6792  0.8249 -0.6871
 2689TIP3    H2 8074   2.130   5.940   0.263 -0.2709 -2.2615  1.1254
 2690TIP3   OH2 8075   0.192   4.714   0.947  0.2486  0.0179  0.1839
 2690TIP3    H1 8076   0.138   4.725   1.026  0.9148  0.2721  0.6172
 2690TIP3    H2 8077   0.281   4.734   0.977  0.6453 -0.8187 -0.4171
 2691TIP3   OH2 8078   0.813   2.496   2.773  0.0254 -0.3070 -0.4436
 2691TIP3    H1 8079   0.837   2.500   2.865 -0.1212  0.1812 -0.4265
 2691TIP3    H2 8080   0.855   2.572   2.733 -0.8644  0.1442 -0.5532
 2692TIP3   OH2 8081   0.202   3.599   2.400  0.3703 -0.7671  0.5518
 2692TIP3    H1 8082   0.234   3.526   2.346 -0.1118 -0.8006  0.3056
 2692TIP3    H2 8083   0.275   3.661   2.402  0.5824 -1.0036  0.3009
 2693TIP3   OH2 8084   2.928   2.360   1.959 -0.3517 -0.8934 -0.8044
 2693TIP3    H1 8085   2.867   2.389   2.026  1.6024  0.6019  0.4494
 2693TIP3    H2 8086   2.921   2.426   1.890 -0.0984 -0.6649 -0.6142
 2694TIP3   OH2 8087   2.247   1.338   4.576 -0.9458  0.5968  0.2380
 2694TIP3    H1 8088   2.270   1.426   4.607 -0.9901  1.2259 -1.4428
 2694TIP3    H2 8089   2.295   1.327   4.494 -0.0437 -1.4169  0.9552
 2695TIP3   OH2 8090   6.200   2.901   4.017 -0.3990 -0.2822  0.2125
 2695TIP3    H1 8091   6.274   2.933   4.068 -0.1500 -1.8237  0.8804
 2695TIP3    H2 8092   6.208   2.806   4.020 -2.4131 -0.4994  0.3123
 2696TIP3   OH2 8093   1.983   1.501   3.528  0.8830 -0.0874  0.3305
 2696TIP3    H1 8094   2.008   1.411   3.507  2.5722  0.3719  0.2438
 2696TIP3    H2 8095   2.066   1.548   3.532  0.0975  1.2580  1.3859
 2697TIP3   OH2 8096   2.256   2.712   0.783  0.2019  0.9780  0.6858
 2697TIP3    H1 8097   2.211   2.740   0.863 -0.3558  0.4752  0.5496
 2697TIP3    H2 8098   2.209   2.634   0.755  1.7250 -0.0950  1.0372
 2698TIP3   OH2 8099   1.508   4.686   3.240 -0.0902 -0.3813 -0.0100
 2698TIP3    H1 8100   1.555   4.736   3.307  2.3425 -0.6591 -1.4121
 2698TIP3    H2 8101   1.426   4.735   3.228  1.4694  2.4221 -0.1725
 2699TIP3   OH2 8102   5.489   3.374   0.481 -0.5324  0.4278 -0.6282
 2699TIP3    H1 8103   5.481   3.465   0.454 -1.7220  0.8701  1.0382
 2699TIP3    H2 8104   5.416   3.330   0.438  1.7405 -0.4842 -3.9032
 2700TIP3   OH2 8105   3.776   2.856   5.112 -0.0540 -0.0785 -0.0888
 2700TIP3    H1 8106   3.803   2.865   5.021 -0.4678 -0.8500 -0.2987
 2700TIP3    H2 8107   3.818   2.929   5.157  3.7132 -2.0660 -0.0605
 2701TIP3   OH2 8108   1.962   3.572   5.121 -0.4080 -0.6992 -0.1237
 2701TIP3    H1 8109   2.050   3.597   5.150 -0.1413 -0.1446 -1.3501
 2701TIP3    H2 8110   1.945   3.490   5.166  0.5903 -0.6332  0.4186
 2702TIP3   OH2 8111   5.103   1.334   2.691  0.1602  0.3739  0.2389
 2702TIP3    H1 8112   5.049   1.257   2.671 -0.9601  1.6200 -1.8557
 2702TIP3    H2 8113   5.055   1.380   2.760 -1.1436  1.0707 -1.0732
 2703TIP3   OH2 8114   1.833   5.648   1.172  0.7584  0.1292  0.4198
 2703TIP3    H1 8115   1.897   5.579   1.183  1.4386  0.6060 -0.4264
 2703TIP3    H2 8116   1.852   5.711   1.242  2.7097  1.3694 -1.1146
 2704TIP3   OH2 8117   2.032   5.336   0.706 -1.1536 -0.8615  0.6038
 2704TIP3    H1 8118   2.039   5.343   0.801 -1.2258  0.0070  0.5532
 2704TIP3    H2 8119   1.940   5.318   0.690 -1.7591  1.8386  0.5859
 2705TIP3   OH2 8120   3.373   2.403   4.745 -0.7823  0.0062  0.5659
 2705TIP3    H1 8121   3.412   2.401   4.657 -0.0154  1.6980  0.8148
 2705TIP3    H2 8122   3.429   2.346   4.798 -1.0657 -0.7772  0.0336
 2706TIP3   OH2 8123   1.311   5.976   0.406  0.5717 -0.1423  0.0532
 2706TIP3    H1 8124   1.361   5.901   0.438 -0.0793 -0.4664  0.3345
 2706TIP3    H2 8125   1.298   6.030   0.483 -0.3920 -0.5734  0.2049
 2707TIP3   OH2 8126   2.643   0.707   3.613  0.2239  0.0821 -0.1158
 2707TIP3    H1 8127   2.585   0.783   3.623 -0.8701 -0.7703  0.1167
 2707TIP3    H2 8128   2.696   0.708   3.692 -0.6899 -0.1490  0.5061
 2708TIP3   OH2 8129   2.911   0.452   2.107  0.4132  0.0285  0.2343
 2708TIP3    H1 8130   2.943   0.529   2.155  0.5401  1.1954 -1.6102
 2708TIP3    H2 8131   2.831   0.482   2.064  1.0701 -0.4863 -1.4405
 2709TIP3   OH2 8132   1.481   1.904   0.558  0.3138 -0.6512 -0.4278
 2709TIP3    H1 8133   1.480   2.000   0.556 -1.1565 -0.6522 -0.4931
 2709TIP3    H2 8134   1.518   1.883   0.644  0.0576 -0.0171 -0.1532
 2710TIP3   OH2 8135   4.477   2.009   1.787 -0.3578  0.4161 -0.1701
 2710TIP3    H1 8136   4.420   2.010   1.864  0.1602 -0.2998  0.2280
 2710TIP3    H2 8137   4.516   1.922   1.787  1.6216  1.2454  0.2286
 2711TIP3   OH2 8138   3.690   1.210   2.477 -0.2757  0.1753  0.3041
 2711TIP3    H1 8139   3.774   1.253   2.491 -0.6700  0.7903  0.8074
 2711TIP3    H2 8140   3.628   1.282   2.463 -0.4369 -0.2876 -1.7969
 2712TIP3   OH2 8141   2.951   1.553   2.628  0.3674  0.3205 -0.0307
 2712TIP3    H1 8142   2.976   1.466   2.598 -1.6368 -0.7980  1.3097
 2712TIP3    H2 8143   2.963   1.609   2.551  2.5787 -0.9003 -0.6691
 2713TIP3   OH2 8144   0.570   0.747   3.960 -0.3486 -0.2297 -0.0365
 2713TIP3    H1 8145   0.558   0.837   3.931  0.8841 -0.7816 -2.4522
 2713TIP3    H2 8146   0.543   0.693   3.885  0.2616 -1.8362  0.8407
 2714TIP3   OH2 8147   1.383   5.876   4.444  0.1972  0.2895  0.1445
 2714TIP3    H1 8148   1.365   5.883   4.350  1.3065  0.7911 -0.0546
 2714TIP3    H2 8149   1.457   5.816   4.450 -0.0927 -0.0122  0.7271
 2715TIP3   OH2 8150   4.135   5.045   3.877  0.2557  1.1097 -0.4862
 2715TIP3    H1 8151   4.219   5.080   3.848  0.9993 -0.6978 -0.6171
 2715TIP3    H2 8152   4.138   4.952   3.855 -1.7137  0.9618 -0.3243
 2716TIP3   OH2 8153   1.080   1.960   3.446 -0.3682 -0.1893  0.3700
 2716TIP3    H1 8154   1.142   2.009   3.500 -0.0958  0.5427 -0.5671
 2716TIP3    H2 8155   1.135   1.897   3.399  0.0744  1.8416 -2.0470
 2717TIP3   OH2 8156   3.537   5.389   1.123 -0.0762  0.2520 -0.0010
 2717TIP3    H1 8157   3.475   5.367   1.193  0.3203 -0.1896  0.2249
 2717TIP3    H2 8158   3.606   5.439   1.167 -0.2305  0.6659 -0.2319
 2718TIP3   OH2 8159   2.145   1.423   4.188 -0.2901  0.5816 -0.5431
 2718TIP3    H1 8160   2.185   1.351   4.236 -0.0777  0.1339 -1.3655
 2718TIP3    H2 8161   2.051   1.411   4.200 -0.2251  1.0562  0.5722
 2719TIP3   OH2 8162   4.360   0.079   3.562  0.1097 -0.0458 -0.6855
 2719TIP3    H1 8163   4.273   0.116   3.573  0.2399  0.0050  0.2007
 2719TIP3    H2 8164   4.374   0.081   3.467 -0.5419  0.6556 -0.7826
 2720TIP3   OH2 8165   1.643   0.141   4.435  0.2000  0.0855  0.1848
 2720TIP3    H1 8166   1.660   0.207   4.368  0.3128  0.2837  0.4058
 2720TIP3    H2 8167   1.575   0.085   4.398 -0.5150  0.8419  0.3525
 2721TIP3   OH2 8168   3.244   0.055   0.720 -0.3743 -0.1052 -0.1522
 2721TIP3    H1 8169   3.222   0.098   0.802  1.7686 -1.2700  1.1169
 2721TIP3    H2 8170   3.234  -0.038   0.737  1.7635 -0.4795 -0.5976
 2722TIP3   OH2 8171   4.729   3.462   2.729 -0.6263  0.9740 -0.2847
 2722TIP3    H1 8172   4.685   3.377   2.726 -0.2408  0.7304  0.5734
 2722TIP3    H2 8173   4.721   3.497   2.641  0.3448 -0.5266 -0.9967
 2723TIP3   OH2 8174   3.367   4.574   3.888 -0.4837 -0.5822 -0.2657
 2723TIP3    H1 8175   3.357   4.544   3.978  0.3684  2.1249  0.8377
 2723TIP3    H2 8176   3.461   4.568   3.871 -0.4940  0.0138 -0.5538
 2724TIP3   OH2 8177   0.418   4.458   3.728  0.2827  0.2008  0.2804
 2724TIP3    H1 8178   0.468   4.538   3.741  0.4498  0.9423 -3.7899
 2724TIP3    H2 8179   0.410   4.449   3.633 -5.9706 -0.6972  0.4369
 2725TIP3   OH2 8180   1.593   1.205   2.042 -0.0144  0.9457 -0.0041
 2725TIP3    H1 8181   1.616   1.277   1.982  0.1875  0.9765  0.1096
 2725TIP3    H2 8182   1.675   1.186   2.088 -0.1989  1.0010  0.3468
 2726TIP3   OH2 8183   2.818   4.741   2.637  0.2553  0.6490 -0.1972
 2726TIP3    H1 8184   2.724   4.754   2.625  0.4458  0.8317 -1.6390
 2726TIP3    H2 8185   2.824   4.689   2.717 -1.0775  0.5546 -0.1239
 2727TIP3   OH2 8186   3.057   0.281   4.681  0.8902 -0.0694 -0.0188
 2727TIP3    H1 8187   2.964   0.298   4.668  1.0677 -0.7029 -2.8727
 2727TIP3    H2 8188   3.065   0.256   4.773 -1.5818  0.8298  0.5176
 2728TIP3   OH2 8189   5.628   5.099   1.469 -0.8471  0.1412  0.1135
 2728TIP3    H1 8190   5.716   5.063   1.458 -0.5623  0.6444  0.6524
 2728TIP3    H2 8191   5.570   5.024   1.460 -0.4308 -0.0543 -1.1348
 2729TIP3   OH2 8192   3.408   4.585   2.567 -0.2999  0.7335  0.2310
 2729TIP3    H1 8193   3.443   4.533   2.640  0.1126 -0.5176 -0.8116
 2729TIP3    H2 8194   3.355   4.522   2.517  1.9172  0.7003 -2.2586
 2730TIP3   OH2 8195   4.119   4.819   3.735  0.0172 -0.2113  0.2224
 2730TIP3    H1 8196   4.186   4.782   3.678 -0.8762 -1.2720 -0.1776
 2730TIP3    H2 8197   4.055   4.748   3.746 -0.1127  0.1518  2.0909
 2731TIP3   OH2 8198   4.437   2.201   4.108 -0.2857 -0.0716  0.6087
 2731TIP3    H1 8199   4.478   2.278   4.148 -0.4784  0.4794 -0.2378
 2731TIP3    H2 8200   4.345   2.226   4.098 -0.5534 -0.7750  1.1917
 2732TIP3   OH2 8201   2.101   4.071   4.549  0.2247  0.7593 -0.0797
 2732TIP3    H1 8202   2.021   4.019   4.548  1.1671 -0.7430 -0.6169
 2732TIP3    H2 8203   2.071   4.161   4.533 -1.3675  0.2814  0.0322
 2733TIP3   OH2 8204   4.594   0.377   3.922 -0.0548  0.0837  0.4143
 2733TIP3    H1 8205   4.539   0.324   3.864  0.7716 -0.3337 -0.0058
 2733TIP3    H2 8206   4.661   0.316   3.953  1.0874  0.9356 -0.3072
 2734TIP3   OH2 8207   5.104   5.222   1.198 -0.3382 -0.3418 -0.0913
 2734TIP3    H1 8208   5.108   5.233   1.103 -0.5015  0.6019  0.0021
 2734TIP3    H2 8209   5.174   5.160   1.218  0.0804 -0.0947 -0.7644
 2735TIP3   OH2 8210   3.639   5.597   4.388  0.3588  0.6281 -0.7105
 2735TIP3    H1 8211   3.681   5.611   4.303  0.4917  0.8383 -0.6129
 2735TIP3    H2 8212   3.706   5.625   4.452  0.1552  0.7465 -0.5476
 2736TIP3   OH2 8213   1.292   4.533   3.597  0.2280 -0.1651  0.0567
 2736TIP3    H1 8214   1.285   4.439   3.579 -2.3061 -0.0983  0.3403
 2736TIP3    H2 8215   1.344   4.538   3.677 -0.5975 -1.4543  0.7186
 2737TIP3   OH2 8216   4.471   1.013   5.057  0.0625  0.2162 -0.1224
 2737TIP3    H1 8217   4.561   1.019   5.088 -0.6552  1.7280  1.8163
 2737TIP3    H2 8218   4.473   0.940   4.994  2.6218  0.2629 -0.2133
 2738TIP3   OH2 8219   1.706   1.251   3.455  0.0280 -0.2116 -0.1735
 2738TIP3    H1 8220   1.619   1.213   3.445 -0.8939  1.4012  1.1258
 2738TIP3    H2 8221   1.743   1.206   3.531 -0.6969  0.7819  0.8005
 2739TIP3   OH2 8222   2.461   2.592   1.071 -0.1157  0.5670  0.1787
 2739TIP3    H1 8223   2.493   2.624   0.987  1.3419 -0.0448  0.4543
 2739TIP3    H2 8224   2.423   2.506   1.051  0.4223  0.3276  0.1634
 2740TIP3   OH2 8225   0.607   0.752   1.248  0.0786 -0.1931 -0.3021
 2740TIP3    H1 8226   0.517   0.734   1.222  0.6512  0.4811 -3.0287
 2740TIP3    H2 8227   0.600   0.822   1.313 -1.2944  1.4192 -2.0885
 2741TIP3   OH2 8228   4.872   4.693   1.151 -0.3379 -0.1362 -0.1697
 2741TIP3    H1 8229   4.881   4.721   1.060 -0.2497  0.1010 -0.0902
 2741TIP3    H2 8230   4.847   4.601   1.146 -0.4634 -0.0878 -0.4360
 2742TIP3   OH2 8231   1.264   1.037   5.128  0.2700 -0.1530  0.1242
 2742TIP3    H1 8232   1.331   1.047   5.197  1.6661 -0.4400 -1.1326
 2742TIP3    H2 8233   1.239   1.127   5.106  1.3934  0.0356 -0.4499
 2743TIP3   OH2 8234   3.025   3.451   2.228  0.3721  0.0431 -0.1082
 2743TIP3    H1 8235   2.992   3.508   2.158  0.6365  0.6428  0.2538
 2743TIP3    H2 8236   3.012   3.363   2.194  2.2990  0.3351 -1.7649
 2744TIP3   OH2 8237   1.341   3.040   0.435 -0.1163  0.0609  0.2130
 2744TIP3    H1 8238   1.351   3.124   0.479  2.9410 -0.7591  1.3176
 2744TIP3    H2 8239   1.249   3.017   0.448 -0.9149  2.8872  0.3839
 2745TIP3   OH2 8240   4.526   3.867   2.705 -0.9272 -0.1095  0.7533
 2745TIP3    H1 8241   4.489   3.782   2.683 -0.4840 -0.1645  0.1923
 2745TIP3    H2 8242   4.545   3.908   2.620 -0.1909  0.1237  1.0232
 2746TIP3   OH2 8243   0.947   3.968   3.618  0.3852 -0.3382 -0.5724
 2746TIP3    H1 8244   0.976   4.055   3.645  1.7224 -0.6943 -0.8293
 2746TIP3    H2 8245   0.869   3.952   3.672 -0.0418  1.1133 -0.7110
 2747TIP3   OH2 8246   0.649   0.449   3.952  0.1640 -0.0452 -0.2696
 2747TIP3    H1 8247   0.640   0.535   3.993 -0.4675 -0.5726  0.7510
 2747TIP3    H2 8248   0.708   0.464   3.878 -0.6821  1.4437 -0.6870
 2748TIP3   OH2 8249   0.489   0.083   3.658 -0.1422  0.1213  0.0888
 2748TIP3    H1 8250   0.413   0.070   3.601  0.1000  1.6120 -0.6024
 2748TIP3    H2 8251   0.562   0.047   3.608 -0.2846 -0.7624  0.4988
 2749TIP3   OH2 8252   1.911   5.397   1.719  0.6556 -0.3791  0.0419
 2749TIP3    H1 8253   1.922   5.492   1.723 -0.4067 -0.1511 -1.5733
 2749TIP3    H2 8254   1.819   5.384   1.699  0.3068 -1.8670  2.2412
 2750TIP3   OH2 8255   5.890   2.667   4.261 -0.2818  0.2305 -0.2360
 2750TIP3    H1 8256   5.951   2.605   4.221 -0.1279 -0.9008  1.6499
 2750TIP3    H2 8257   5.868   2.728   4.190  0.5318 -1.2333 -1.8123
 2751TIP3   OH2 8258   5.580   4.246   1.882  0.0731  0.7110 -0.1061
 2751TIP3    H1 8259   5.552   4.216   1.796 -1.1510  0.4478  0.3613
 2751TIP3    H2 8260   5.675   4.256   1.874  0.0293  0.3391 -1.3692
 2752TIP3   OH2 8261   3.372   3.786   0.550 -0.4545 -0.2435 -0.0072
 2752TIP3    H1 8262   3.334   3.870   0.526  0.1232  0.1134  0.2962
 2752TIP3    H2 8263   3.418   3.803   0.632  0.1502 -0.7098 -0.2349
 2753TIP3   OH2 8264   0.475   3.456   3.163 -0.5783  0.6516 -0.1880
 2753TIP3    H1 8265   0.431   3.531   3.205 -0.7093  0.1174  0.6580
 2753TIP3    H2 8266   0.566   3.483   3.155 -0.2887  0.3157  1.6030
 2754TIP3   OH2 8267   1.014   3.774   4.048 -1.0366  0.2767  0.1398
 2754TIP3    H1 8268   1.057   3.711   3.990 -0.1754  1.8334 -0.9788
 2754TIP3    H2 8269   1.029   3.739   4.136  0.0799 -0.6906 -0.4034
 2755TIP3   OH2 8270   1.251   3.671   1.700  1.0310  0.5106 -0.1131
 2755TIP3    H1 8271   1.305   3.629   1.633 -0.9564 -3.0760  0.2813
 2755TIP3    H2 8272   1.176   3.705   1.652  1.1543  0.8342 -0.0766
 2756TIP3   OH2 8273   1.730   0.070   1.275 -0.4298  0.2506 -0.2594
 2756TIP3    H1 8274   1.655   0.062   1.334 -0.7239 -1.0846 -0.7785
 2756TIP3    H2 8275   1.806   0.075   1.333 -0.8181  0.2625  0.2566
 2757TIP3   OH2 8276   6.129   0.258   3.422  0.0796 -0.1754  0.4171
 2757TIP3    H1 8277   6.162   0.236   3.509 -1.2387  0.0425  1.0034
 2757TIP3    H2 8278   6.084   0.179   3.393 -1.4720  0.4669  0.9481
 2758TIP3   OH2 8279   2.214   2.542   5.062 -0.2643 -0.3986  0.1188
 2758TIP3    H1 8280   2.214   2.637   5.072 -0.5191 -0.3258 -0.5489
 2758TIP3    H2 8281   2.301   2.514   5.093  0.2610  0.1750 -0.8100
 2759TIP3   OH2 8282   3.950  -0.034   2.968  0.0016  0.3676 -0.6370
 2759TIP3    H1 8283   3.921   0.037   3.025 -2.2002 -0.5705 -0.5031
 2759TIP3    H2 8284   3.989   0.010   2.893 -1.2944  1.7283 -0.5532
 2760TIP3   OH2 8285   3.239   4.844   2.752 -0.2287  0.2584 -0.7247
 2760TIP3    H1 8286   3.172   4.910   2.736  0.7304  1.2854 -0.5642
 2760TIP3    H2 8287   3.318   4.878   2.710  0.4704 -0.4138  0.0028
 2761TIP3   OH2 8288   5.241   0.291   0.075  0.7016 -0.5804  0.0900
 2761TIP3    H1 8289   5.182   0.225   0.110 -2.1551  0.4504 -2.3347
 2761TIP3    H2 8290   5.324   0.245   0.062 -0.0711 -2.6392  1.8685
 2762TIP3   OH2 8291   5.360   5.465   4.929  0.2787  0.1409  0.0236
 2762TIP3    H1 8292   5.312   5.502   5.004 -0.5214 -1.5663  0.3898
 2762TIP3    H2 8293   5.385   5.542   4.877  1.1382  1.4188  2.1869
 2763TIP3   OH2 8294   4.610   3.673   4.065 -0.1447 -0.1454  0.0980
 2763TIP3    H1 8295   4.567   3.698   4.147 -0.2805  1.9152 -0.5478
 2763TIP3    H2 8296   4.693   3.721   4.066  0.1243 -0.5695 -0.7168
 2764TIP3   OH2 8297   4.160   4.629   3.071  0.3153 -0.1701 -0.4732
 2764TIP3    H1 8298   4.170   4.694   3.141  0.8178 -0.3255 -0.3975
 2764TIP3    H2 8299   4.208   4.553   3.103  0.9535 -0.0748 -1.1953
 2765TIP3   OH2 8300   1.762   5.474   2.165  0.3347 -0.2987  0.3455
 2765TIP3    H1 8301   1.699   5.467   2.238  0.9054 -1.2681  0.7682
 2765TIP3    H2 8302   1.828   5.408   2.185  0.6014 -0.4447 -0.9701
 2766TIP3   OH2 8303   4.706   5.298   5.159  0.2517 -0.0304  0.0853
 2766TIP3    H1 8304   4.757   5.312   5.079 -1.0783 -1.8155 -1.1327
 2766TIP3    H2 8305   4.651   5.377   5.166 -0.2762 -0.2543 -1.2918
 2767TIP3   OH2 8306   4.692   1.519   0.894  0.4447 -0.0544 -0.1879
 2767TIP3    H1 8307   4.753   1.519   0.820  0.1122 -3.0744 -0.5831
 2767TIP3    H2 8308   4.616   1.569   0.862  1.3464  0.9238 -0.8810
 2768TIP3   OH2 8309   2.994   4.962   2.697  0.3223  0.7622 -0.1779
 2768TIP3    H1 8310   2.947   4.888   2.657  0.8739  0.0998  0.3884
 2768TIP3    H2 8311   2.937   4.990   2.769 -0.0895  1.1754 -0.6523
 2769TIP3   OH2 8312   3.007   5.079   3.101 -0.0699  0.2316  0.2732
 2769TIP3    H1 8313   3.086   5.089   3.049  0.0512 -0.1382  0.3859
 2769TIP3    H2 8314   3.000   4.985   3.118  0.3699  0.4213  1.6591
 2770TIP3   OH2 8315   5.627   2.952   2.869  0.3807 -0.7678  0.3538
 2770TIP3    H1 8316   5.649   3.035   2.913  0.0544  0.0591 -0.9839
 2770TIP3    H2 8317   5.532   2.946   2.876  0.2562 -0.3273 -0.6975
 2771TIP3   OH2 8318   5.623   3.440   3.835  0.3905  0.1267 -0.0572
 2771TIP3    H1 8319   5.570   3.374   3.881  1.9841 -1.2143 -0.0440
 2771TIP3    H2 8320   5.621   3.516   3.893 -1.9345  0.3365 -0.3269
 2772TIP3   OH2 8321   6.272   0.535   4.383 -0.0211  0.1047  0.9458
 2772TIP3    H1 8322   6.185   0.567   4.405 -0.3722 -1.3068  1.7824
 2772TIP3    H2 8323   6.270   0.521   4.289 -1.0054 -0.7324  1.0774
 2773TIP3   OH2 8324   3.973   1.753   2.016 -0.6205  0.4363  0.4456
 2773TIP3    H1 8325   4.007   1.835   1.981 -1.7622  0.2342 -1.2530
 2773TIP3    H2 8326   4.051   1.706   2.045  0.1963  1.4667 -0.0000
 2774TIP3   OH2 8327   6.121   0.933   4.772 -0.2931 -0.2938 -0.2962
 2774TIP3    H1 8328   6.154   1.008   4.822 -1.1124  0.1511 -0.4160
 2774TIP3    H2 8329   6.148   0.951   4.682  1.3569 -1.1910 -0.0306
 2775TIP3   OH2 8330   5.530   5.222   3.630 -0.1306 -0.0330  0.1152
 2775TIP3    H1 8331   5.531   5.181   3.717 -1.7868 -0.3661 -0.0001
 2775TIP3    H2 8332   5.565   5.310   3.646 -1.0333  0.1459  1.2557
 2776TIP3   OH2 8333   6.102   1.597   3.574  0.3958 -0.6902  0.1453
 2776TIP3    H1 8334   6.131   1.570   3.487  0.1748  1.0376 -0.4992
 2776TIP3    H2 8335   6.037   1.532   3.600 -0.0118 -0.8545 -1.2573
 2777TIP3   OH2 8336   1.700   5.712   3.972  0.0460 -0.2433 -0.2144
 2777TIP3    H1 8337   1.780   5.703   4.025 -1.0345  1.8931  1.9627
 2777TIP3    H2 8338   1.638   5.756   4.030 -3.1423 -2.7276 -1.4333
 2778TIP3   OH2 8339   0.608   4.207   3.201  0.2358  0.0535  0.9468
 2778TIP3    H1 8340   0.630   4.115   3.217 -0.4518 -0.4399 -0.6969
 2778TIP3    H2 8341   0.513   4.211   3.209  0.1985  0.4681  0.3941
 2779TIP3   OH2 8342   3.161   4.064   1.003  1.0265  0.6138 -0.1101
 2779TIP3    H1 8343   3.207   3.981   1.016 -0.7956 -0.5975 -0.9924
 2779TIP3    H2 8344   3.186   4.093   0.915 -0.3712 -0.4069 -0.8735
 2780TIP3   OH2 8345   4.106   3.032   3.221 -0.4124 -0.0680 -0.5006
 2780TIP3    H1 8346   4.148   3.032   3.307 -0.1806  1.2560 -0.5948
 2780TIP3    H2 8347   4.151   3.101   3.172 -1.7236  0.3917 -1.0963
 2781TIP3   OH2 8348   1.267   4.927   2.559  0.3320 -0.2225 -0.0126
 2781TIP3    H1 8349   1.352   4.954   2.523  0.3501  0.2738  0.3957
 2781TIP3    H2 8350   1.266   4.962   2.648 -0.6500  0.5224 -0.2901
 2782TIP3   OH2 8351   4.207   2.165   4.410 -0.5250 -0.4680  0.1514
 2782TIP3    H1 8352   4.146   2.136   4.479 -0.7514  0.5709  0.4030
 2782TIP3    H2 8353   4.293   2.162   4.452 -0.7239  0.7129  0.6851
 2783TIP3   OH2 8354   0.610   3.998   2.006 -0.1236 -0.2926 -0.2131
 2783TIP3    H1 8355   0.544   3.959   2.065  1.8007 -1.0669  1.5520
 2783TIP3    H2 8356   0.596   4.092   2.014 -0.6525 -0.4235  0.6133
 2784TIP3   OH2 8357   5.881   2.278   3.448  0.3796  0.1554 -0.3167
 2784TIP3    H1 8358   5.844   2.205   3.499  1.9522 -0.9331 -0.6847
 2784TIP3    H2 8359   5.937   2.236   3.383  4.4482  1.7035  1.8618
 2785TIP3   OH2 8360   3.187   1.239   1.194 -0.3377  0.6137 -0.5983
 2785TIP3    H1 8361   3.138   1.216   1.273  2.3149  1.4101  1.4678
 2785TIP3    H2 8362   3.146   1.189   1.124 -4.1477  1.4140  0.8329
 2786TIP3   OH2 8363   1.404   0.293   0.119 -0.2609 -0.5703 -0.1565
 2786TIP3    H1 8364   1.484   0.339   0.145 -0.6005 -0.3020  0.4277
 2786TIP3    H2 8365   1.364   0.350   0.053 -0.0942 -0.5909 -0.2770
 2787TIP3   OH2 8366   1.570   2.508   3.147 -0.3541 -0.1206 -0.0902
 2787TIP3    H1 8367   1.504   2.563   3.188  0.2130 -0.0185  0.7004
 2787TIP3    H2 8368   1.578   2.432   3.205  0.7431  0.2188  0.2218
 2788TIP3   OH2 8369   1.729   1.775   3.806 -0.2133 -0.0802 -0.0271
 2788TIP3    H1 8370   1.798   1.733   3.857  0.3129 -1.0695 -1.4822
 2788TIP3    H2 8371   1.652   1.718   3.817 -0.6328  0.6774  1.0798
 2789TIP3   OH2 8372   2.057   3.639   4.789  0.0254  0.0596 -0.2917
 2789TIP3    H1 8373   2.095   3.721   4.756  0.6221  0.2916  0.9192
 2789TIP3    H2 8374   2.122   3.572   4.768  0.4539  0.2241  0.4937
 2790TIP3   OH2 8375   2.674   3.737   1.376  0.0185 -0.2215  0.3736
 2790TIP3    H1 8376   2.756   3.780   1.402 -1.9475  3.4087  1.1605
 2790TIP3    H2 8377   2.688   3.712   1.284  1.9774  0.2729  0.4917
 2791TIP3   OH2 8378   1.940   4.047   0.327  0.0549  0.5128  0.4519
 2791TIP3    H1 8379   1.881   4.039   0.402 -0.9175 -1.0271 -0.4081
 2791TIP3    H2 8380   2.024   4.013   0.358 -0.5287 -0.7797  0.6740
 2792TIP3   OH2 8381   5.399   1.029   4.039 -0.0624 -0.6294  0.4409
 2792TIP3    H1 8382   5.347   0.969   3.985  1.0035 -0.6466 -0.6091
 2792TIP3    H2 8383   5.342   1.104   4.052 -1.4773 -1.8726  1.8847
 2793TIP3   OH2 8384   2.211   1.379   4.983  0.2164 -0.1220 -0.2670
 2793TIP3    H1 8385   2.166   1.461   4.963  0.5662 -0.0287 -0.6781
 2793TIP3    H2 8386   2.148   1.311   4.959 -0.2563  0.0181  0.5070
 2794TIP3   OH2 8387   5.020   0.984   4.003  0.1527  0.2134  0.1276
 2794TIP3    H1 8388   4.950   0.951   3.946  0.0863 -0.0357  0.3515
 2794TIP3    H2 8389   5.083   0.912   4.008  0.0756  0.1696  0.5081
 2795TIP3   OH2 8390   6.243   5.351   3.244  0.1725  0.3445  0.1611
 2795TIP3    H1 8391   6.196   5.409   3.185  1.0185  0.5385 -0.3445
 2795TIP3    H2 8392   6.203   5.265   3.232  0.2882  0.3996 -0.6314
 2796TIP3   OH2 8393   4.843   1.518   4.845  0.0673 -0.2811  0.2810
 2796TIP3    H1 8394   4.821   1.512   4.938 -0.0430 -1.4698  0.1951
 2796TIP3    H2 8395   4.822   1.431   4.810 -0.6666  0.3996 -1.0264
 2797TIP3   OH2 8396   1.977   1.410   4.792  0.2924  0.1038  0.3805
 2797TIP3    H1 8397   2.003   1.482   4.734  0.5076 -1.0301 -0.9764
 2797TIP3    H2 8398   1.881   1.408   4.786  0.3741 -2.3385 -3.0288
 2798TIP3   OH2 8399   4.698   1.625   2.836 -0.5295  0.2200  0.2770
 2798TIP3    H1 8400   4.740   1.541   2.854 -0.7117 -0.5498 -2.3737
 2798TIP3    H2 8401   4.770   1.688   2.831 -0.3288  0.1206  1.6340
 2799TIP3   OH2 8402   4.456   2.298   3.793 -0.1280 -1.1033  0.1024
 2799TIP3    H1 8403   4.496   2.212   3.789 -1.1048 -1.5622 -0.1998
 2799TIP3    H2 8404   4.443   2.315   3.887 -0.1789 -1.4062  0.1502
 2800TIP3   OH2 8405   2.192   5.267   5.065  0.6449  0.2570  0.5049
 2800TIP3    H1 8406   2.107   5.298   5.098  0.1180 -1.1811  0.6000
 2800TIP3    H2 8407   2.170   5.223   4.983  1.4969  1.0065 -0.1290
 2801TIP3   OH2 8408   2.753   5.796   4.490  0.1375  0.0619 -0.3702
 2801TIP3    H1 8409   2.802   5.849   4.554  0.6055 -0.0186 -0.6611
 2801TIP3    H2 8410   2.706   5.861   4.437  0.9427  0.2181 -0.9175
 2802TIP3   OH2 8411   3.038   0.222   1.315 -0.5516 -0.5353 -0.2158
 2802TIP3    H1 8412   3.103   0.279   1.273 -1.1834 -0.7809 -1.5714
 2802TIP3    H2 8413   3.050   0.238   1.409  0.4814  0.4986 -0.4939
 2803TIP3   OH2 8414   3.686   1.249   4.938  0.4932  0.0708  0.6265
 2803TIP3    H1 8415   3.766   1.196   4.933  0.8944  0.6731  0.4710
 2803TIP3    H2 8416   3.716   1.332   4.976 -0.2793 -0.1166  1.7042
 2804TIP3   OH2 8417   0.350   1.485   4.099 -0.5808  0.3920 -0.2835
 2804TIP3    H1 8418   0.345   1.544   4.023  0.3771  0.5360 -0.2475
 2804TIP3    H2 8419   0.435   1.442   4.090 -1.3328 -1.1301 -0.3908
 2805TIP3   OH2 8420   1.009   4.184   4.119  0.2949  0.2366 -0.2733
 2805TIP3    H1 8421   1.105   4.184   4.116  0.3514  2.2247  0.2440
 2805TIP3    H2 8422   0.985   4.098   4.086  2.3122 -1.1292  1.4905
 2806TIP3   OH2 8423   0.304   3.661   4.119 -0.5050 -0.7419 -0.2455
 2806TIP3    H1 8424   0.312   3.674   4.025 -1.5220  0.3783 -0.1989
 2806TIP3    H2 8425   0.226   3.606   4.130 -0.4825 -0.7365 -0.0510
 2807TIP3   OH2 8426   3.760   1.600   1.999  0.0121 -0.4043 -0.4260
 2807TIP3    H1 8427   3.835   1.660   1.991 -0.0411 -0.5124 -2.0758
 2807TIP3    H2 8428   3.787   1.537   2.065  0.6948  0.5376  0.2238
 2808TIP3   OH2 8429   2.412   5.076   1.128  0.1445 -0.5621 -0.3590
 2808TIP3    H1 8430   2.478   5.073   1.197  0.1429 -1.1049 -0.3702
 2808TIP3    H2 8431   2.369   5.160   1.139  1.8414  0.4798 -1.2948
 2809TIP3   OH2 8432   0.666   2.538   4.707 -0.1676 -0.3589  0.1411
 2809TIP3    H1 8433   0.628   2.451   4.716 -1.2109  0.0683  0.0221
 2809TIP3    H2 8434   0.591   2.596   4.691  0.5175  0.5398  0.0675
 2810TIP3   OH2 8435   2.541   3.573   4.084  0.0104 -0.0138 -0.1591
 2810TIP3    H1 8436   2.543   3.668   4.077 -1.1075  0.0863  0.5447
 2810TIP3    H2 8437   2.565   3.541   3.997  0.7708  0.8959 -0.2935
 2811TIP3   OH2 8438   5.920   0.093   2.581  0.0291  0.0940 -0.2970
 2811TIP3    H1 8439   5.935   0.152   2.507  0.9657 -0.5921 -0.6790
 2811TIP3    H2 8440   5.949   0.142   2.657  0.5568  0.2326 -0.5806
 2812TIP3   OH2 8441   0.030   5.139   3.345  0.4317 -0.1945  0.2404
 2812TIP3    H1 8442   0.106   5.127   3.287  0.5341 -1.3678  0.5852
 2812TIP3    H2 8443   0.009   5.232   3.339  0.7887 -0.1817 -1.2535
 2813TIP3   OH2 8444   0.533   5.931   4.797 -0.4482  0.2142  1.3237
 2813TIP3    H1 8445   0.596   5.859   4.792 -0.4065  0.3075 -1.6093
 2813TIP3    H2 8446   0.452   5.890   4.825 -0.2999 -0.9504  0.1772
 2814TIP3   OH2 8447   4.919   3.517   1.461  0.5428 -0.3052 -0.3326
 2814TIP3    H1 8448   4.932   3.533   1.555 -1.0626 -0.1069 -0.1116
 2814TIP3    H2 8449   4.978   3.579   1.418  0.0451  0.8365  0.5537
 2815TIP3   OH2 8450   2.194   4.181   3.285 -0.2251  0.7475 -0.0206
 2815TIP3    H1 8451   2.207   4.124   3.209  1.5477  2.0363 -0.7723
 2815TIP3    H2 8452   2.187   4.121   3.359 -0.8894 -0.5083 -1.0642
 2816TIP3   OH2 8453   3.648   1.894   2.153 -0.3399 -0.8986 -0.0430
 2816TIP3    H1 8454   3.662   1.939   2.236 -0.7624 -2.2787  0.8117
 2816TIP3    H2 8455   3.699   1.813   2.161 -1.7186 -1.8465 -0.4213
 2817TIP3   OH2 8456   3.714   4.186   0.819 -0.1094  0.2084 -0.0727
 2817TIP3    H1 8457   3.671   4.229   0.745  0.0014  1.0746  0.3511
 2817TIP3    H2 8458   3.654   4.200   0.892  0.2555  0.2385  0.2221
 2818TIP3   OH2 8459   1.081   5.028   4.766 -0.7888  0.3348 -0.0356
 2818TIP3    H1 8460   1.119   5.094   4.824 -1.8784 -0.3531  1.5471
 2818TIP3    H2 8461   1.112   4.944   4.801 -1.4459 -0.1010 -0.4752
 2819TIP3   OH2 8462   2.121   2.183   0.462  0.1862 -0.2461  0.1766
 2819TIP3    H1 8463   2.050   2.138   0.415  0.5399 -1.7503  1.0271
 2819TIP3    H2 8464   2.139   2.127   0.538  0.5327  1.4457  1.3968
 2820TIP3   OH2 8465   4.903   3.049   1.109 -0.8954  0.1549 -0.2819
 2820TIP3    H1 8466   4.832   3.022   1.167 -1.8804  1.6970 -0.7087
 2820TIP3    H2 8467   4.932   3.133   1.144 -0.6723  0.5220 -1.3196
 2821TIP3   OH2 8468   5.842   3.564   4.905  0.0425  0.4481 -0.3598
 2821TIP3    H1 8469   5.917   3.522   4.946 -0.1855  0.0635 -0.3272
 2821TIP3    H2 8470   5.777   3.494   4.897 -0.3731  0.8180 -0.2343
 2822TIP3   OH2 8471   1.999   4.294   0.183 -0.2327  0.0600  0.2051
 2822TIP3    H1 8472   1.953   4.227   0.233 -0.5657  0.0174 -0.1487
 2822TIP3    H2 8473   2.079   4.251   0.152 -1.5918 -1.0025 -2.1176
 2823TIP3   OH2 8474   5.216   3.152   1.143  0.1468 -0.2079 -0.3743
 2823TIP3    H1 8475   5.211   3.057   1.131 -1.0412 -0.2924  0.6299
 2823TIP3    H2 8476   5.292   3.165   1.200 -1.0138 -0.7996  1.4062
 2824TIP3   OH2 8477   2.488   3.011   3.714  0.3396  0.0269 -0.8626
 2824TIP3    H1 8478   2.529   2.952   3.777 -0.4033  0.7643  0.3522
 2824TIP3    H2 8479   2.553   3.080   3.700 -0.2569  0.9846  0.7616
 2825TIP3   OH2 8480   5.303   0.859   3.012  0.2611  0.1486  0.2742
 2825TIP3    H1 8481   5.347   0.842   2.928 -0.8030 -3.4465  0.2966
 2825TIP3    H2 8482   5.374   0.878   3.073  1.1367  1.7389 -1.1462
 2826TIP3   OH2 8483   1.445   2.302   1.888  0.0682 -0.3171 -0.2415
 2826TIP3    H1 8484   1.510   2.291   1.957 -0.4921 -1.7255  0.1148
 2826TIP3    H2 8485   1.424   2.212   1.861  1.6852  0.1708 -3.6208
 2827TIP3   OH2 8486   5.187   5.865   3.221 -0.4917 -0.5257  0.0970
 2827TIP3    H1 8487   5.182   5.861   3.125 -1.9728 -0.9636  0.1669
 2827TIP3    H2 8488   5.251   5.798   3.245  0.1351 -0.1885 -0.5888
 2828TIP3   OH2 8489   1.204   2.537   5.047  0.1541  0.0239  0.3375
 2828TIP3    H1 8490   1.185   2.473   4.979 -1.4265  0.2736  0.5205
 2828TIP3    H2 8491   1.287   2.578   5.019 -0.3249 -0.0629 -1.2862
 2829TIP3   OH2 8492   2.346   0.134   2.949 -0.1424  0.0432  0.4954
 2829TIP3    H1 8493   2.265   0.170   2.913 -0.2236 -0.3357  0.2948
 2829TIP3    H2 8494   2.405   0.209   2.956  0.6734 -0.1821 -2.5663
 2830TIP3   OH2 8495   1.150   5.121   3.659  0.4004 -0.3673 -0.0552
 2830TIP3    H1 8496   1.092   5.167   3.719 -1.1020  0.4998 -2.0519
 2830TIP3    H2 8497   1.138   5.028   3.681 -0.5867 -0.1083  0.5778
 2831TIP3   OH2 8498   2.720   3.556   1.127  0.2816  0.5440 -0.0489
 2831TIP3    H1 8499   2.787   3.623   1.114 -1.5009  1.9847 -2.9020
 2831TIP3    H2 8500   2.692   3.533   1.038 -0.7104 -2.4731  0.9197
 2832TIP3   OH2 8501   3.049   4.185   3.795 -0.4505 -0.2547 -0.1888
 2832TIP3    H1 8502   3.098   4.189   3.877 -0.7139 -0.6887 -0.0048
 2832TIP3    H2 8503   2.976   4.126   3.814 -0.4108 -0.4978 -0.7907
 2833TIP3   OH2 8504   4.529   0.523   0.361 -0.7826 -0.1615  0.0119
 2833TIP3    H1 8505   4.463   0.547   0.426 -1.0731  0.3341 -0.4653
 2833TIP3    H2 8506   4.502   0.437   0.329 -0.9379 -0.1655  0.1521
 2834TIP3   OH2 8507   0.558   4.572   2.690  0.1590  0.7950  0.6013
 2834TIP3    H1 8508   0.627   4.558   2.625 -1.0215 -1.9939 -0.1843
 2834TIP3    H2 8509   0.602   4.563   2.774  0.8222 -1.0025  0.1119
 2835TIP3   OH2 8510   2.412   5.388   2.446 -0.5705 -0.1639 -0.1377
 2835TIP3    H1 8511   2.361   5.468   2.438 -0.9933 -0.2676  1.2401
 2835TIP3    H2 8512   2.363   5.323   2.395 -0.2102  0.4382 -1.2777
 2836TIP3   OH2 8513   0.606   1.830   0.162  0.0919 -0.2569  0.2238
 2836TIP3    H1 8514   0.698   1.808   0.151 -0.0236 -0.8525  0.4034
 2836TIP3    H2 8515   0.600   1.923   0.137  0.9670  0.1514  1.4714
 2837TIP3   OH2 8516   4.811   5.792   0.265 -0.5972 -0.0241  0.1882
 2837TIP3    H1 8517   4.885   5.750   0.222 -1.4783 -0.7793 -0.6209
 2837TIP3    H2 8518   4.807   5.880   0.227 -0.8971 -0.4252 -0.7259
 2838TIP3   OH2 8519   0.427   0.957   4.411 -0.3844 -0.6243 -0.0553
 2838TIP3    H1 8520   0.363   0.986   4.476  0.2102 -0.7983  0.6226
 2838TIP3    H2 8521   0.507   1.005   4.432 -0.2439 -0.5241 -0.7934
 2839TIP3   OH2 8522   2.094   5.841   3.909  0.4910  0.0313  0.4708
 2839TIP3    H1 8523   2.113   5.793   3.829 -0.7341 -0.1153  0.2510
 2839TIP3    H2 8524   2.172   5.830   3.963  0.6540 -1.2973 -0.0158
 2840TIP3   OH2 8525   6.112   3.761   4.057  0.3965 -0.2745 -0.1419
 2840TIP3    H1 8526   6.124   3.667   4.071  0.4385 -0.5183 -1.7287
 2840TIP3    H2 8527   6.029   3.768   4.010  0.8946  0.4073 -0.9243
 2841TIP3   OH2 8528   5.755   1.046   1.746  0.3019  1.5316  0.0619
 2841TIP3    H1 8529   5.675   1.099   1.753 -1.1613 -0.4389 -0.5328
 2841TIP3    H2 8530   5.739   0.972   1.805  1.2992  0.6611 -0.7254
 2842TIP3   OH2 8531   5.734   3.934   3.472 -0.5345 -0.2495  0.1403
 2842TIP3    H1 8532   5.750   3.849   3.513 -0.6610 -0.0476  0.6074
 2842TIP3    H2 8533   5.686   3.913   3.392 -1.5944 -0.5302  0.8266
 2843TIP3   OH2 8534   0.635   2.731   3.235  0.1966  0.1912  0.1947
 2843TIP3    H1 8535   0.695   2.757   3.305 -0.5780 -0.2547  1.0561
 2843TIP3    H2 8536   0.679   2.659   3.190  0.0925 -0.5016  1.1711
 2844TIP3   OH2 8537   2.852   0.622   3.133  0.7394 -0.2754  0.1660
 2844TIP3    H1 8538   2.866   0.717   3.133  0.6684 -0.2507 -0.8316
 2844TIP3    H2 8539   2.836   0.601   3.041 -0.4157 -1.0896  0.5337
 2845TIP3   OH2 8540   2.820   1.804   3.360 -0.0354  0.7564  0.7249
 2845TIP3    H1 8541   2.861   1.727   3.320 -0.5588  1.6774 -1.7921
 2845TIP3    H2 8542   2.887   1.873   3.353 -0.4075  1.1242  0.7360
 2846TIP3   OH2 8543   0.749   1.707   1.483 -0.3088  0.6624  0.1504
 2846TIP3    H1 8544   0.809   1.706   1.557 -1.3380 -1.3172  1.0407
 2846TIP3    H2 8545   0.686   1.638   1.502 -2.1827  1.8543 -1.3141
 2847TIP3   OH2 8546   2.402   2.513   3.905 -0.1490  0.0329  0.5701
 2847TIP3    H1 8547   2.369   2.465   3.829  0.2504 -0.3789  0.6487
 2847TIP3    H2 8548   2.330   2.509   3.969 -0.8784  1.2595 -0.1452
 2848TIP3   OH2 8549   4.838   2.955   2.909  0.9216 -0.1491 -0.2491
 2848TIP3    H1 8550   4.845   2.951   3.005  1.3417  0.4810 -0.2414
 2848TIP3    H2 8551   4.809   2.868   2.883  1.1546 -0.4394  0.4268
 2849TIP3   OH2 8552   4.517   3.918   3.541  0.2451  0.1534 -0.4161
 2849TIP3    H1 8553   4.540   3.895   3.631 -1.7603  0.3128  0.1997
 2849TIP3    H2 8554   4.566   3.998   3.523  1.4390 -0.4374  0.1567
 2850TIP3   OH2 8555   3.715   2.755   3.410  0.4928 -0.3325 -0.1468
 2850TIP3    H1 8556   3.634   2.714   3.442  0.2043  0.4039  0.0949
 2850TIP3    H2 8557   3.707   2.752   3.315 -1.7824  3.3091 -0.2833
 2851TIP3   OH2 8558   3.657   3.803   3.040 -0.1323  0.4177 -0.1131
 2851TIP3    H1 8559   3.722   3.793   2.970  0.4740 -1.1776  0.6173
 2851TIP3    H2 8560   3.574   3.777   3.000  0.3358 -1.2609 -0.0777
 2852TIP3   OH2 8561   4.023   4.206   4.870 -0.1114  0.0244 -0.8138
 2852TIP3    H1 8562   4.047   4.184   4.779  0.3498 -1.7454 -0.3082
 2852TIP3    H2 8563   4.106   4.201   4.918 -0.1917  1.8306 -0.4103
 2853TIP3   OH2 8564   3.450   2.707   0.363 -0.3378  0.0491  0.6321
 2853TIP3    H1 8565   3.510   2.633   0.350  0.8871  0.8979  1.3201
 2853TIP3    H2 8566   3.472   2.741   0.449 -1.0035  1.1251  0.3932
 2854TIP3   OH2 8567   1.497   1.947   1.826  0.2358 -0.5866 -0.4566
 2854TIP3    H1 8568   1.581   1.946   1.871  0.0579 -2.6096 -0.0510
 2854TIP3    H2 8569   1.516   1.913   1.739  0.0777  0.4984 -0.9333
 2855TIP3   OH2 8570   0.850   1.199   3.493 -0.4072  0.0161  0.1185
 2855TIP3    H1 8571   0.913   1.269   3.476  1.4645 -1.2837  1.1998
 2855TIP3    H2 8572   0.839   1.200   3.588 -1.5399 -0.2112  0.0021
 2856TIP3   OH2 8573   2.191   1.309   0.272  0.3710 -0.1473 -0.6115
 2856TIP3    H1 8574   2.275   1.289   0.231 -0.2281 -0.4991 -1.6994
 2856TIP3    H2 8575   2.142   1.227   0.266 -0.8300  0.6325 -1.9368
 2857TIP3   OH2 8576   5.572   3.648   1.628 -0.0264 -0.2158 -0.0955
 2857TIP3    H1 8577   5.616   3.594   1.693 -0.4284 -1.2076 -0.6393
 2857TIP3    H2 8578   5.479   3.646   1.653 -0.1000 -0.0981 -0.3493
 2858TIP3   OH2 8579   0.079   4.010   4.336  0.2838 -0.2546  0.2876
 2858TIP3    H1 8580   0.053   4.087   4.386  0.9287  0.3184 -0.2452
 2858TIP3    H2 8581   0.163   4.033   4.298  0.0628 -0.8870 -0.6133
 2859TIP3   OH2 8582   0.520   5.105   0.026  0.3371 -0.3317 -0.0962
 2859TIP3    H1 8583   0.590   5.162   0.057  1.5320 -0.3225 -2.6315
 2859TIP3    H2 8584   0.557   5.017   0.030  0.1143 -0.4412 -0.4144
 2860TIP3   OH2 8585   3.368   0.998   4.891 -0.3607 -0.2084 -0.3824
 2860TIP3    H1 8586   3.327   0.955   4.965  0.9758  0.0974  0.5687
 2860TIP3    H2 8587   3.399   0.927   4.835 -0.6383 -0.4482 -0.2309
 2861TIP3   OH2 8588   1.793   4.548   4.364  1.2559 -0.1899 -0.8113
 2861TIP3    H1 8589   1.771   4.621   4.306 -0.6930  0.8142  1.0480
 2861TIP3    H2 8590   1.777   4.470   4.312 -0.5560  0.6696 -1.6386
 2862TIP3   OH2 8591   1.611   5.547   5.175  0.3532 -0.0410  0.8724
 2862TIP3    H1 8592   1.517   5.563   5.176  0.3347  0.3004 -1.1899
 2862TIP3    H2 8593   1.620   5.454   5.196 -0.5597 -0.3542 -0.0271
 2863TIP3   OH2 8594   2.732   1.899   1.490 -0.6628 -0.1204 -0.3702
 2863TIP3    H1 8595   2.658   1.959   1.496 -0.4583  0.0008  1.5606
 2863TIP3    H2 8596   2.733   1.853   1.574  1.2763 -0.3119 -0.4433
 2864TIP3   OH2 8597   3.648   3.127   1.929  0.4480 -0.4239  0.4479
 2864TIP3    H1 8598   3.601   3.095   2.006 -0.9221  1.0540  0.2853
 2864TIP3    H2 8599   3.633   3.221   1.930  1.2587 -0.2552 -1.0761
 2865TIP3   OH2 8600   4.139   5.350   1.206  0.8054  1.1562  0.3100
 2865TIP3    H1 8601   4.145   5.357   1.301  1.1840  1.6143  0.2579
 2865TIP3    H2 8602   4.102   5.264   1.190  0.8984  1.0112  0.8689
 2866TIP3   OH2 8603   2.262   0.893   0.713  0.0092 -0.2776  0.7136
 2866TIP3    H1 8604   2.254   0.987   0.726  1.3339 -0.2803  1.7008
 2866TIP3    H2 8605   2.253   0.881   0.618  0.9009  0.9603  0.4503
 2867TIP3   OH2 8606   2.726   1.429   4.526 -0.1458 -0.3073 -0.8406
 2867TIP3    H1 8607   2.770   1.513   4.510  0.5027 -0.3515  0.5966
 2867TIP3    H2 8608   2.636   1.444   4.499 -0.3944  1.3368  0.7533
 2868TIP3   OH2 8609   5.583   0.601   4.006  0.3020 -0.2163  0.6154
 2868TIP3    H1 8610   5.668   0.557   4.004 -0.0478 -0.8935  0.4262
 2868TIP3    H2 8611   5.594   0.680   3.953  0.2347 -1.3547 -1.1416
 2869TIP3   OH2 8612   1.139   3.904   0.856 -0.4804  0.2135  0.2841
 2869TIP3    H1 8613   1.206   3.854   0.810 -0.9524 -0.9280  0.7998
 2869TIP3    H2 8614   1.180   3.989   0.873  0.8025 -0.4247  0.5099
 2870TIP3   OH2 8615   3.089   4.436   4.302 -0.5128 -0.5409  0.5881
 2870TIP3    H1 8616   3.167   4.399   4.259 -0.1428 -0.9074  1.5368
 2870TIP3    H2 8617   3.030   4.459   4.230  1.6416  2.5723 -0.3837
 2871TIP3   OH2 8618   0.937   2.905   4.288 -0.0284 -0.2344  0.3427
 2871TIP3    H1 8619   0.987   2.982   4.315 -2.0210  1.1539  0.2007
 2871TIP3    H2 8620   0.954   2.896   4.195  0.8299 -0.4609  0.5130
 2872TIP3   OH2 8621   5.398   5.957   1.953  0.1191  0.1237  0.2421
 2872TIP3    H1 8622   5.317   5.985   1.911 -0.3541 -0.6770  0.5914
 2872TIP3    H2 8623   5.448   5.915   1.883 -0.0236  0.1011  0.1533
 2873TIP3   OH2 8624   3.583   4.848   2.822 -0.0631  0.0756 -0.0648
 2873TIP3    H1 8625   3.545   4.773   2.867 -1.2465  1.1996  0.8902
 2873TIP3    H2 8626   3.676   4.843   2.843 -0.4613  0.1452  1.9915
 2874TIP3   OH2 8627   5.073   4.916   4.938 -0.1483  0.3000 -0.2043
 2874TIP3    H1 8628   5.082   4.837   4.885  1.2589  0.0357  0.3666
 2874TIP3    H2 8629   4.986   4.909   4.976 -1.6311  0.9890 -3.1687
 2875TIP3   OH2 8630   2.682   0.918   3.843  0.4656 -0.7554  0.5469
 2875TIP3    H1 8631   2.763   0.968   3.830  0.5657 -0.7377  1.2139
 2875TIP3    H2 8632   2.623   0.950   3.775  0.5862  0.1532  0.8561
 2876TIP3   OH2 8633   1.327   1.464   2.864 -0.7712 -0.1760  0.1938
 2876TIP3    H1 8634   1.262   1.417   2.812 -1.2376 -0.6712  1.2063
 2876TIP3    H2 8635   1.304   1.445   2.955  1.3171 -1.1223  0.5842
 2877TIP3   OH2 8636   2.437   4.313   1.320 -0.1372  0.1905  0.2883
 2877TIP3    H1 8637   2.349   4.336   1.291 -0.3920  0.2797  1.1262
 2877TIP3    H2 8638   2.463   4.240   1.263 -1.1715 -0.5640  0.7602
 2878TIP3   OH2 8639   3.251   0.650   1.273 -0.8126 -0.2891 -0.0397
 2878TIP3    H1 8640   3.223   0.561   1.293 -1.4550 -0.3978 -1.3542
 2878TIP3    H2 8641   3.183   0.685   1.216  0.5085  0.3067 -1.3139
 2879TIP3   OH2 8642   0.012   3.629   0.675 -0.2101  0.3401  0.0260
 2879TIP3    H1 8643   0.041   3.664   0.591  1.2482 -0.2928  0.2336
 2879TIP3    H2 8644   0.052   3.686   0.740  0.2609 -0.3182  0.3219
 2880TIP3   OH2 8645   1.407   2.348   4.195 -0.3539  0.4982 -0.1960
 2880TIP3    H1 8646   1.353   2.288   4.247  1.5107  0.5713  1.9876
 2880TIP3    H2 8647   1.456   2.291   4.136 -0.0485  0.0455  0.4794
 2881TIP3   OH2 8648   5.731   0.770   1.668 -0.4030  0.0226 -0.7058
 2881TIP3    H1 8649   5.740   0.722   1.751 -0.1905 -0.4935 -1.0218
 2881TIP3    H2 8650   5.820   0.777   1.634 -0.4377  0.6414 -0.6636
 2882TIP3   OH2 8651   0.039   1.941   1.521  0.1634  0.6366  0.3351
 2882TIP3    H1 8652   0.024   1.902   1.435  0.6411 -0.4395  0.7225
 2882TIP3    H2 8653  -0.013   2.021   1.520 -0.7202  0.0797 -0.5458
 2883TIP3   OH2 8654   1.102   2.192   1.898  0.0673  0.3844  0.2227
 2883TIP3    H1 8655   1.024   2.140   1.915 -0.7127  1.1211 -0.9420
 2883TIP3    H2 8656   1.164   2.167   1.967 -0.8913 -0.8116  0.6755
 2884TIP3   OH2 8657   2.411   2.698   2.457  0.2899 -0.7578  0.1359
 2884TIP3    H1 8658   2.432   2.690   2.550  0.8463 -0.8863  0.0068
 2884TIP3    H2 8659   2.347   2.629   2.440 -1.2417  0.4410  0.8134
 2885TIP3   OH2 8660   2.298   3.691   1.998 -0.1406  0.7565 -0.2400
 2885TIP3    H1 8661   2.261   3.739   1.924 -2.4149 -0.3965  0.0857
 2885TIP3    H2 8662   2.384   3.662   1.967 -0.8925  0.5940 -2.3224
 2886TIP3   OH2 8663   4.596   5.318   1.728 -0.3879 -0.2391  0.1145
 2886TIP3    H1 8664   4.680   5.278   1.704 -1.5934 -3.8249  1.2166
 2886TIP3    H2 8665   4.544   5.312   1.648 -1.0082 -2.3288  0.6304
 2887TIP3   OH2 8666   3.789  -0.006   4.885  0.0182  0.1637  0.0521
 2887TIP3    H1 8667   3.882   0.009   4.868  0.3649 -1.7484  0.1048
 2887TIP3    H2 8668   3.747   0.005   4.800  0.2019  1.3887  0.0912
 2888TIP3   OH2 8669   1.845   2.553   2.255 -0.1354  0.0930  0.1416
 2888TIP3    H1 8670   1.899   2.511   2.189 -2.3027 -0.3560 -1.4611
 2888TIP3    H2 8671   1.828   2.484   2.320 -0.6759 -0.4557 -0.5683
 2889TIP3   OH2 8672   4.484   4.197   3.939 -0.3287  0.1674  0.2743
 2889TIP3    H1 8673   4.523   4.114   3.912 -2.3122 -0.5977 -0.4340
 2889TIP3    H2 8674   4.449   4.234   3.858  0.9426  1.9630  0.5060
 2890TIP3   OH2 8675   6.239   2.041   3.411 -0.0685 -0.3597  0.1031
 2890TIP3    H1 8676   6.165   2.015   3.467  0.1029  0.3241  0.6637
 2890TIP3    H2 8677   6.305   1.974   3.427  0.4838  0.5092  1.7715
 2891TIP3   OH2 8678   3.269   2.636   2.328 -0.3541 -0.5480  0.0098
 2891TIP3    H1 8679   3.219   2.712   2.298  1.5426  0.6504 -0.2352
 2891TIP3    H2 8680   3.305   2.598   2.248  0.4640 -0.4339  0.3222
 2892TIP3   OH2 8681   5.835   1.725   1.904  0.6628  0.6292 -0.3821
 2892TIP3    H1 8682   5.770   1.671   1.859  1.5114 -0.3890 -0.4109
 2892TIP3    H2 8683   5.783   1.782   1.961 -0.2629 -0.0532 -0.5229
 2893TIP3   OH2 8684   1.408   4.939   4.319  0.3372 -0.7183 -0.4135
 2893TIP3    H1 8685   1.324   4.898   4.342  1.2498 -1.1333  2.6018
 2893TIP3    H2 8686   1.401   5.028   4.352  0.2706  0.0376 -2.3275
 2894TIP3   OH2 8687   1.906   1.632   3.978  0.3590 -0.0562 -0.2194
 2894TIP3    H1 8688   1.980   1.578   3.953 -0.2606 -0.2092 -1.8454
 2894TIP3    H2 8689   1.852   1.575   4.033  1.6907  0.2488  1.4868
 2895TIP3   OH2 8690   4.430   2.726   4.546 -0.3852 -0.4843  0.1615
 2895TIP3    H1 8691   4.465   2.809   4.514 -0.2623 -0.9448 -0.9465
 2895TIP3    H2 8692   4.337   2.742   4.560 -0.1902  0.0874  0.8287
 2896TIP3   OH2 8693   5.954   0.881   2.043  0.5236  0.4642  0.1664
 2896TIP3    H1 8694   5.966   0.976   2.046  2.5270  0.2210  2.0878
 2896TIP3    H2 8695   6.043   0.845   2.040 -0.1750 -1.3795  0.1944
 2897TIP3   OH2 8696   5.902   3.298   2.606  0.1836  0.4621 -0.3751
 2897TIP3    H1 8697   5.939   3.369   2.553  0.4715 -0.4424 -1.4160
 2897TIP3    H2 8698   5.950   3.220   2.579 -0.9842 -0.3580 -0.1652
 2898TIP3   OH2 8699   0.097   4.735   0.388  0.1208 -0.3468 -0.6032
 2898TIP3    H1 8700   0.104   4.724   0.483  0.5516 -0.8787 -0.6893
 2898TIP3    H2 8701   0.004   4.719   0.369 -0.1802  0.7855 -0.1566
 2899TIP3   OH2 8702   3.096   3.199   4.602 -0.4526  0.4575  0.2876
 2899TIP3    H1 8703   3.117   3.180   4.693 -0.1056  0.0089  0.1130
 2899TIP3    H2 8704   3.011   3.157   4.588  0.3124 -1.0295 -0.1012
 2900TIP3   OH2 8705   4.996   2.668   5.195 -0.4270  0.0924 -0.3563
 2900TIP3    H1 8706   4.990   2.760   5.221  1.0034  0.4761 -1.2615
 2900TIP3    H2 8707   5.000   2.670   5.100  0.2300 -0.8498 -0.3645
 2901TIP3   OH2 8708   5.958   2.155   2.979 -0.3769  0.3270  0.6639
 2901TIP3    H1 8709   5.984   2.178   2.889  0.8419 -2.4640  0.1995
 2901TIP3    H2 8710   5.867   2.127   2.971  0.1430 -1.3022 -0.0608
 2902TIP3   OH2 8711   4.198   2.770   3.866  0.1672 -0.0663  0.1517
 2902TIP3    H1 8712   4.249   2.780   3.946 -0.2261  0.9294  0.2925
 2902TIP3    H2 8713   4.120   2.721   3.893 -0.2193  0.7243  0.5030
 2903TIP3   OH2 8714   3.690   0.961   4.861 -0.5418  0.5627 -0.5944
 2903TIP3    H1 8715   3.656   1.039   4.817 -0.9995  1.6923  1.5828
 2903TIP3    H2 8716   3.765   0.993   4.911  0.0055 -0.6586 -0.6190
 2904TIP3   OH2 8717   2.334   3.230   0.450 -0.4861  0.3182 -0.0132
 2904TIP3    H1 8718   2.401   3.163   0.435 -0.4645  0.2664  0.3211
 2904TIP3    H2 8719   2.252   3.187   0.428 -0.4368  0.3012 -0.1687
 2905TIP3   OH2 8720   0.506   2.966   3.900  0.6864 -0.3423 -1.1408
 2905TIP3    H1 8721   0.450   3.042   3.917  0.5400 -0.3469 -1.6140
 2905TIP3    H2 8722   0.450   2.891   3.918  1.0496 -0.3460  0.0627
 2906TIP3   OH2 8723   1.463   4.392   3.351  0.1696 -0.4795  0.5436
 2906TIP3    H1 8724   1.498   4.441   3.425 -1.7271 -1.1698  1.9645
 2906TIP3    H2 8725   1.412   4.321   3.390  1.8926 -2.9928 -1.4439
 2907TIP3   OH2 8726   1.861   5.969   0.957 -0.1273  0.5198  0.0411
 2907TIP3    H1 8727   1.929   5.957   1.023  0.9311  0.2035 -1.0692
 2907TIP3    H2 8728   1.852   5.883   0.916  0.6661  1.1223 -1.5265
 2908TIP3   OH2 8729   5.671   3.750   0.777 -0.1744 -0.1483  0.0349
 2908TIP3    H1 8730   5.706   3.734   0.689  0.7592 -0.4395  0.4552
 2908TIP3    H2 8731   5.713   3.685   0.832  1.0694  1.5318  1.1488
 2909TIP3   OH2 8732   3.794   2.161   4.352  0.2648 -0.1703  0.3247
 2909TIP3    H1 8733   3.833   2.076   4.374  0.7912  0.2239  0.9471
 2909TIP3    H2 8734   3.746   2.187   4.431 -2.7451 -1.4032 -0.9338
 2910TIP3   OH2 8735   0.318   1.857   0.966  0.5633 -0.0927 -0.4061
 2910TIP3    H1 8736   0.412   1.873   0.979  0.6736 -0.9436 -0.0903
 2910TIP3    H2 8737   0.287   1.936   0.921  1.3668  0.3301 -0.2541
 2911TIP3   OH2 8738   2.879   2.766   0.989 -0.2112  0.3015 -0.2652
 2911TIP3    H1 8739   2.891   2.742   0.897 -0.0378  1.6189 -0.6077
 2911TIP3    H2 8740   2.968   2.765   1.026 -0.3876 -1.2422  0.1747
 2912TIP3   OH2 8741   1.912   5.395   1.276 -0.3769  0.6948 -0.3836
 2912TIP3    H1 8742   1.842   5.359   1.331  0.4528  0.6789  0.6713
 2912TIP3    H2 8743   1.992   5.382   1.326  0.2735  1.6389 -1.1422
 2913TIP3   OH2 8744   1.306   0.757   1.563 -0.0910 -0.1370 -0.1000
 2913TIP3    H1 8745   1.256   0.687   1.605  1.1611 -0.8063  0.3462
 2913TIP3    H2 8746   1.395   0.721   1.556  0.6526  1.5163  0.4050
 2914TIP3   OH2 8747   2.961   3.838   2.161 -0.1496 -0.6138 -0.0784
 2914TIP3    H1 8748   3.002   3.768   2.111  1.0096 -0.2825  0.3549
 2914TIP3    H2 8749   2.928   3.899   2.095  1.7762  0.0545 -0.4849
 2915TIP3   OH2 8750   3.378   5.917   0.393  0.1326  0.0597  0.3828
 2915TIP3    H1 8751   3.334   5.831   0.394  1.1454 -0.4669  1.7035
 2915TIP3    H2 8752   3.329   5.967   0.328  0.5640 -2.0657 -1.7388
 2916TIP3   OH2 8753   1.476   2.030   3.877 -0.4383  0.8924  0.1628
 2916TIP3    H1 8754   1.553   2.072   3.915  0.1007  1.3779 -1.4154
 2916TIP3    H2 8755   1.457   1.957   3.937  1.2234  0.7813  0.5970
 2917TIP3   OH2 8756   1.206   0.349   1.061  0.2795 -0.3739  0.9008
 2917TIP3    H1 8757   1.273   0.366   0.995 -2.4861  2.4974 -1.4613
 2917TIP3    H2 8758   1.237   0.270   1.106  4.7233  0.2785 -0.5284
 2918TIP3   OH2 8759   4.871   3.616   0.909  0.5729 -0.4328 -0.0567
 2918TIP3    H1 8760   4.789   3.574   0.882 -0.0203  1.0112 -0.6064
 2918TIP3    H2 8761   4.915   3.550   0.963  0.1926 -2.1388 -1.7342
 2919TIP3   OH2 8762   4.188   3.013   1.834  0.1967 -0.1765 -0.1190
 2919TIP3    H1 8763   4.103   3.038   1.799 -0.2393 -1.0969  0.2430
 2919TIP3    H2 8764   4.184   2.917   1.841  1.2209 -0.2233  0.0048
 2920TIP3   OH2 8765   5.771   1.684   3.696  0.0087 -0.4438  0.1783
 2920TIP3    H1 8766   5.807   1.638   3.772  0.2603 -1.7794 -0.7131
 2920TIP3    H2 8767   5.771   1.618   3.626 -0.4719  0.6727 -0.9082
 2921TIP3   OH2 8768   3.417   5.254   2.332  0.7780  0.4571 -0.1424
 2921TIP3    H1 8769   3.496   5.215   2.372  0.7251  0.6990  0.2084
 2921TIP3    H2 8770   3.451   5.324   2.276  0.9597 -0.9068 -1.7826
 2922TIP3   OH2 8771   4.496   4.871   4.992 -0.3219  0.5870  0.0596
 2922TIP3    H1 8772   4.479   4.833   5.078  1.2037  0.5807  0.3836
 2922TIP3    H2 8773   4.501   4.796   4.933  0.1909  0.4676  0.2516
 2923TIP3   OH2 8774   1.891   5.711   0.878 -0.2847  0.0901  0.3230
 2923TIP3    H1 8775   1.835   5.649   0.831 -0.2103  0.5793 -0.4278
 2923TIP3    H2 8776   1.925   5.661   0.952 -1.4936 -0.2977  0.6437
 2924TIP3   OH2 8777   2.569   0.344   0.605 -0.4681 -0.0634 -0.3267
 2924TIP3    H1 8778   2.593   0.331   0.513 -0.6235  0.2334 -0.4113
 2924TIP3    H2 8779   2.482   0.304   0.612 -0.6937  0.3916 -0.4457
 2925TIP3   OH2 8780   1.017   2.837   2.027  0.5389 -0.1010  0.3333
 2925TIP3    H1 8781   0.985   2.876   1.946 -0.6589 -0.8446  0.4177
 2925TIP3    H2 8782   1.074   2.766   1.998  1.1369  0.4400  0.1658
 2926TIP3   OH2 8783   0.849   0.999   1.197  0.5301 -0.2487 -0.1819
 2926TIP3    H1 8784   0.858   0.921   1.252 -0.2826 -1.3842 -1.5864
 2926TIP3    H2 8785   0.771   0.983   1.145 -0.2453  1.9752  0.1766
 2927TIP3   OH2 8786   1.129   2.896   3.709  0.4493 -0.6758  0.4180
 2927TIP3    H1 8787   1.149   2.857   3.794  0.5385 -2.5080 -0.3882
 2927TIP3    H2 8788   1.174   2.839   3.646 -1.7810 -0.9737 -1.0196
 2928TIP3   OH2 8789   2.075   0.070   0.620 -0.2891  0.0560 -0.1669
 2928TIP3    H1 8790   2.107   0.079   0.710  1.8143  1.1701 -0.9619
 2928TIP3    H2 8791   2.057  -0.023   0.610  0.5089 -0.2579  1.0805
 2929TIP3   OH2 8792   2.899   0.773   4.170  0.4129  0.2904  0.6746
 2929TIP3    H1 8793   2.882   0.860   4.205 -1.6135 -0.2806  1.2689
 2929TIP3    H2 8794   2.942   0.726   4.241 -1.2398 -0.0566  1.4888
 2930TIP3   OH2 8795   0.209   5.877   4.559  0.3577  0.8253 -0.2896
 2930TIP3    H1 8796   0.118   5.847   4.549  0.5583 -0.4798  1.4300
 2930TIP3    H2 8797   0.257   5.829   4.490  0.2900 -1.2587  1.0220
 2931TIP3   OH2 8798   0.853   1.998   3.578 -0.1444  0.3434 -0.1873
 2931TIP3    H1 8799   0.878   1.983   3.669 -1.6579 -0.5854  0.1256
 2931TIP3    H2 8800   0.926   1.963   3.526  0.3013 -0.0209  0.6702
 2932TIP3   OH2 8801   5.060   3.908   2.295 -0.0764 -0.0135  0.5454
 2932TIP3    H1 8802   5.115   3.985   2.306  0.3055 -0.4986  2.3296
 2932TIP3    H2 8803   5.104   3.857   2.226  0.0687  0.9977 -0.1205
 2933TIP3   OH2 8804   2.272   5.319   0.428  0.2463 -0.0076  0.1266
 2933TIP3    H1 8805   2.212   5.346   0.359 -0.3529  0.6782  0.8957
 2933TIP3    H2 8806   2.355   5.363   0.407  0.1822 -0.1315 -0.3771
 2934TIP3   OH2 8807   2.000   2.721   1.210  0.2076  0.2475 -1.1836
 2934TIP3    H1 8808   2.019   2.788   1.275  1.8788  1.9759 -3.3083
 2934TIP3    H2 8809   1.907   2.733   1.189 -1.0190 -1.8130  2.3023
 2935TIP3   OH2 8810   3.751   2.065   4.010  0.5415 -0.1075 -0.5915
 2935TIP3    H1 8811   3.817   2.002   3.980 -0.3337 -1.1035 -0.4696
 2935TIP3    H2 8812   3.704   2.091   3.931  0.6830  0.1467 -0.5943
 2936TIP3   OH2 8813   3.328   1.920   4.851 -0.2007 -0.6055  0.2358
 2936TIP3    H1 8814   3.361   1.838   4.888 -0.4180 -0.1786  1.4179
 2936TIP3    H2 8815   3.278   1.960   4.922 -0.7072  0.2094 -0.5608
 2937TIP3   OH2 8816   0.645   3.977   3.345  0.2583 -0.4375  0.1091
 2937TIP3    H1 8817   0.664   3.884   3.355  0.7679 -0.2819  0.6152
 2937TIP3    H2 8818   0.730   4.020   3.351  0.0628  0.0443 -0.4176
 2938TIP3   OH2 8819   3.620   4.735   1.954 -0.2860 -0.2101 -0.0576
 2938TIP3    H1 8820   3.656   4.749   1.866 -0.2878 -1.0634 -0.2036
 2938TIP3    H2 8821   3.538   4.786   1.954  0.2127  0.6154 -0.1925
 2939TIP3   OH2 8822   3.315   2.641   1.121  0.7543 -0.4635 -0.0828
 2939TIP3    H1 8823   3.385   2.691   1.164 -0.4932  1.7434 -0.4377
 2939TIP3    H2 8824   3.361   2.568   1.079  2.9538  1.1706 -0.7429
 2940TIP3   OH2 8825   3.306   5.926   2.082  0.7932 -0.0969 -0.2666
 2940TIP3    H1 8826   3.312   5.846   2.028 -0.2470 -1.0688  0.9951
 2940TIP3    H2 8827   3.229   5.971   2.049  1.4445  0.4705 -1.0541
 2941TIP3   OH2 8828   1.893   2.403   2.026  0.7614 -0.1638 -0.1353
 2941TIP3    H1 8829   1.802   2.417   2.054  0.7245 -0.9927  0.2082
 2941TIP3    H2 8830   1.901   2.451   1.944 -0.1783 -0.5930 -0.4926
 2942TIP3   OH2 8831   4.012   5.224   5.116  0.2770 -0.3470  0.6157
 2942TIP3    H1 8832   4.018   5.260   5.204  0.5691 -1.2495  0.9797
 2942TIP3    H2 8833   4.086   5.262   5.069 -0.8492  1.4854  0.2275
 2943TIP3   OH2 8834   5.946   3.638   1.863 -0.6099 -0.0909  0.0639
 2943TIP3    H1 8835   5.899   3.708   1.910  0.1404 -0.0008  0.7059
 2943TIP3    H2 8836   6.038   3.662   1.871 -0.4486 -0.2848 -1.1553
 2944TIP3   OH2 8837   4.799   3.854   0.241 -0.4158  0.5848 -0.2804
 2944TIP3    H1 8838   4.864   3.805   0.190 -1.6159  0.0612 -1.3637
 2944TIP3    H2 8839   4.850   3.900   0.307  1.1809  1.0163 -1.7487
 2945TIP3   OH2 8840  -0.004   2.029   3.105 -0.3494 -0.4598  0.2616
 2945TIP3    H1 8841  -0.011   1.943   3.145 -1.9986  0.0224  1.1054
 2945TIP3    H2 8842   0.045   2.081   3.169  0.4031 -0.6684 -0.1252
 2946TIP3   OH2 8843   1.207   1.810   3.126  0.2227 -0.1120  0.3268
 2946TIP3    H1 8844   1.128   1.863   3.132 -0.4294 -1.1235  0.9261
 2946TIP3    H2 8845   1.222   1.800   3.032 -1.9694 -2.1828  0.0975
 2947TIP3   OH2 8846   5.200   3.933   4.504  0.2243  0.4182 -0.0178
 2947TIP3    H1 8847   5.265   3.986   4.550  0.5395 -0.7367  0.9196
 2947TIP3    H2 8848   5.245   3.903   4.425 -0.2904  2.3395 -1.0837
 2948TIP3   OH2 8849   3.138   0.755   3.441 -0.2400  0.1254  0.7095
 2948TIP3    H1 8850   3.157   0.736   3.349  0.7227  0.5480  0.8063
 2948TIP3    H2 8851   3.132   0.669   3.483  0.5069 -0.0524  0.4664
 2949TIP3   OH2 8852   2.688   4.308   0.187 -1.1452 -0.3115  0.2311
 2949TIP3    H1 8853   2.709   4.363   0.112  1.4383 -3.0219 -1.2573
 2949TIP3    H2 8854   2.597   4.281   0.173 -1.2176  0.5203 -1.0408
 2950TIP3   OH2 8855   1.261   5.103   4.059  0.5499 -0.8032  0.2938
 2950TIP3    H1 8856   1.298   5.190   4.069 -0.2456 -0.3833 -0.2843
 2950TIP3    H2 8857   1.336   5.046   4.044  0.9359  0.1408 -1.6713
 2951TIP3   OH2 8858   0.997   0.221   3.690  0.5627 -0.0102 -0.5162
 2951TIP3    H1 8859   1.031   0.303   3.724  0.7235 -0.9858  1.8876
 2951TIP3    H2 8860   1.074   0.166   3.676  0.6338  0.7752 -3.9235
 2952TIP3   OH2 8861   1.304   0.772   3.364  0.3822  0.3624 -0.0665
 2952TIP3    H1 8862   1.364   0.845   3.348  0.1928  0.4565 -0.3617
 2952TIP3    H2 8863   1.301   0.725   3.280  0.7049 -0.1376  0.1969
 2953TIP3   OH2 8864   4.417   1.478   5.011  0.5354 -0.4713  0.1191
 2953TIP3    H1 8865   4.369   1.561   5.010  1.5089  0.1056 -0.9623
 2953TIP3    H2 8866   4.433   1.461   5.104 -0.8195 -0.1418  0.4356
 2954TIP3   OH2 8867   2.739   1.799   5.193  0.1988  0.5765 -0.0024
 2954TIP3    H1 8868   2.781   1.884   5.205 -1.6617  1.6242 -0.6310
 2954TIP3    H2 8869   2.739   1.785   5.098  0.4523 -0.1255  0.0904
 2955TIP3   OH2 8870   2.943   3.430   1.485  0.3806  0.1510  0.1217
 2955TIP3    H1 8871   3.015   3.395   1.431 -0.6703 -1.3017 -0.4066
 2955TIP3    H2 8872   2.962   3.523   1.492  1.5516  0.0564 -1.2271
 2956TIP3   OH2 8873   4.398   3.818   3.013 -0.9959 -0.2370  0.2804
 2956TIP3    H1 8874   4.423   3.726   3.024  1.1419 -0.1067 -2.4087
 2956TIP3    H2 8875   4.412   3.836   2.920  0.8771  3.4158  1.0872
 2957TIP3   OH2 8876   5.347   4.468   4.976 -0.5935  0.5987  0.1236
 2957TIP3    H1 8877   5.277   4.504   5.030 -0.3250  1.2026  0.0747
 2957TIP3    H2 8878   5.301   4.428   4.902 -0.9639 -0.2804  0.8184
 2958TIP3   OH2 8879   3.814   1.764   3.215  0.4098  0.2033  0.6066
 2958TIP3    H1 8880   3.815   1.847   3.264  0.5618 -0.7464  2.2791
 2958TIP3    H2 8881   3.825   1.697   3.282  1.7284 -1.1236 -0.8623
 2959TIP3   OH2 8882   5.880   3.960   1.217 -0.0902  0.1013 -0.1463
 2959TIP3    H1 8883   5.871   3.871   1.251 -1.6728  0.6783  1.0975
 2959TIP3    H2 8884   5.884   4.015   1.296  0.6981  1.1461 -0.8882
 2960TIP3   OH2 8885   4.296   4.688   4.484 -0.7344 -0.2786 -0.2568
 2960TIP3    H1 8886   4.271   4.772   4.444 -0.3848  1.2767  2.5836
 2960TIP3    H2 8887   4.213   4.649   4.512 -0.6880  0.9818  1.7981
 2961TIP3   OH2 8888   5.872   1.182   1.214 -0.0010 -0.1764 -0.4598
 2961TIP3    H1 8889   5.810   1.203   1.283 -1.5087 -2.1300 -1.1463
 2961TIP3    H2 8890   5.818   1.149   1.142  1.5125  1.5626 -2.5476
 2962TIP3   OH2 8891   3.505   3.058   1.693 -0.4873 -0.2022 -0.1626
 2962TIP3    H1 8892   3.558   3.089   1.766 -0.2232 -0.6910 -0.1438
 2962TIP3    H2 8893   3.420   3.100   1.706  0.0861  1.1827 -0.6015
 2963TIP3   OH2 8894   6.212   2.099   2.830  0.3688  0.1245  0.5080
 2963TIP3    H1 8895   6.143   2.039   2.802  1.2388 -0.0278 -1.4489
 2963TIP3    H2 8896   6.266   2.048   2.890 -0.3688 -0.2064  0.9015
 2964TIP3   OH2 8897   5.514   1.832   2.839  0.1539  0.4830  0.3696
 2964TIP3    H1 8898   5.600   1.869   2.859  1.1819 -0.7144 -1.4551
 2964TIP3    H2 8899   5.470   1.901   2.790 -0.7704  1.8520  2.9815
 2965TIP3   OH2 8900   4.331   1.783   4.069 -0.4383  0.4533  0.5512
 2965TIP3    H1 8901   4.293   1.801   4.155 -2.9254 -0.2535 -0.3176
 2965TIP3    H2 8902   4.303   1.694   4.048  0.5543  0.4216 -0.7935
 2966TIP3   OH2 8903   3.483   3.362   1.499 -0.5839  0.1018 -0.3152
 2966TIP3    H1 8904   3.417   3.307   1.541 -1.1748  2.8586  2.7616
 2966TIP3    H2 8905   3.434   3.411   1.433 -0.7928 -0.4723 -0.5960
 2967TIP3   OH2 8906   1.827   1.004   4.660  0.3242  0.0799 -0.3455
 2967TIP3    H1 8907   1.871   1.048   4.732 -0.6878  1.5443 -0.5758
 2967TIP3    H2 8908   1.734   1.027   4.670  0.1666  0.4791 -2.1651
 2968TIP3   OH2 8909   2.595   5.828   1.727  0.1311 -0.6929 -0.1340
 2968TIP3    H1 8910   2.567   5.891   1.660  1.1169 -0.1904 -0.0833
 2968TIP3    H2 8911   2.663   5.874   1.776 -0.9688 -0.8267  1.6083
 2969TIP3   OH2 8912   5.900   2.014   0.059  0.2076  0.0167  0.4687
 2969TIP3    H1 8913   5.887   2.031   0.152  1.0665  0.9118  0.4385
 2969TIP3    H2 8914   5.915   1.919   0.055  0.3155 -0.0127  1.2565
 2970TIP3   OH2 8915   5.209   2.604   0.031  0.0857 -0.0505 -0.4496
 2970TIP3    H1 8916   5.240   2.570   0.115  0.8752 -0.6448 -0.9699
 2970TIP3    H2 8917   5.263   2.682   0.016  1.1208 -0.8702 -1.1719
 2971TIP3   OH2 8918   1.554   2.143   3.524 -0.0455  0.5721  0.0737
 2971TIP3    H1 8919   1.594   2.107   3.603  0.9607  1.1498 -0.1467
 2971TIP3    H2 8920   1.489   2.078   3.498 -0.5253  0.4617  1.4689
 2972TIP3   OH2 8921   3.748   3.251   0.501 -0.0327  0.7919 -0.1077
 2972TIP3    H1 8922   3.729   3.340   0.469  0.8317  1.0052 -0.0356
 2972TIP3    H2 8923   3.829   3.259   0.550 -0.1504  0.0247  0.2311
 2973TIP3   OH2 8924   1.900   3.373   4.804  0.3701  0.1655  0.4817
 2973TIP3    H1 8925   1.912   3.378   4.709 -0.1804  0.1865  0.4075
 2973TIP3    H2 8926   1.876   3.281   4.820  0.7170  0.1018  0.6314
 2974TIP3   OH2 8927   1.852   5.081   3.368  0.0437  0.5114  0.0668
 2974TIP3    H1 8928   1.888   5.158   3.325  0.3123  0.2502 -0.1906
 2974TIP3    H2 8929   1.772   5.111   3.410  0.4543  1.0585  0.4682
 2975TIP3   OH2 8930   2.728   4.682   1.656 -0.3543  0.0505 -0.1815
 2975TIP3    H1 8931   2.678   4.643   1.584 -0.2517 -1.2296  0.4145
 2975TIP3    H2 8932   2.773   4.608   1.697  1.3240  1.0467 -0.1344
 2976TIP3   OH2 8933   1.477   3.087   4.198  0.5362 -0.4589 -0.1843
 2976TIP3    H1 8934   1.569   3.058   4.196  0.4197 -0.8577  0.1082
 2976TIP3    H2 8935   1.427   3.006   4.212  0.1274 -0.2652 -0.5137
 2977TIP3   OH2 8936   1.732   4.070   1.400 -0.0948 -0.0079  0.3335
 2977TIP3    H1 8937   1.673   4.077   1.325  1.1784  0.1447 -0.6852
 2977TIP3    H2 8938   1.740   3.976   1.416  0.0787 -0.0716 -0.1074
 2978TIP3   OH2 8939   2.016   0.305   0.441  0.4674 -0.1587  0.2173
 2978TIP3    H1 8940   2.073   0.294   0.366  1.3619 -0.5550  0.9413
 2978TIP3    H2 8941   2.030   0.227   0.494 -0.0129  0.1979  0.8870
 2979TIP3   OH2 8942   2.795   1.041   2.207 -0.4728 -0.1988 -0.3409
 2979TIP3    H1 8943   2.855   1.101   2.162  0.9391 -0.4681  1.0862
 2979TIP3    H2 8944   2.709   1.082   2.197  0.3429  1.7083 -0.0268
 2980TIP3   OH2 8945   2.506   1.419   4.928 -0.0500  0.1114 -0.4318
 2980TIP3    H1 8946   2.538   1.366   5.000  0.5335  0.4319 -0.4481
 2980TIP3    H2 8947   2.411   1.422   4.940 -0.0845 -0.8950 -0.4104
 2981TIP3   OH2 8948   0.145   0.160   3.546 -0.7632 -0.1795 -0.3011
 2981TIP3    H1 8949   0.160   0.250   3.517  1.4246 -0.7047 -0.9736
 2981TIP3    H2 8950   0.202   0.107   3.491  0.7924 -1.6151  2.4521
 2982TIP3   OH2 8951   1.523   2.285   5.185 -0.3936 -0.1087 -0.4899
 2982TIP3    H1 8952   1.525   2.202   5.137 -1.4261  0.2768 -1.2444
 2982TIP3    H2 8953   1.590   2.339   5.143  0.2640 -0.5353 -0.0130
 2983TIP3   OH2 8954   1.146   2.593   2.942  0.0969 -0.0120  0.0970
 2983TIP3    H1 8955   1.083   2.659   2.972 -0.3374 -0.3718 -0.0030
 2983TIP3    H2 8956   1.177   2.626   2.858 -0.7863 -0.3599 -0.3764
 2984TIP3   OH2 8957   4.902   4.354   4.912 -0.0378 -0.0638 -0.0992
 2984TIP3    H1 8958   4.952   4.434   4.897  1.5528 -1.2675 -1.6511
 2984TIP3    H2 8959   4.822   4.366   4.861 -0.6382  1.2162  1.0829
 2985TIP3   OH2 8960   3.171   3.375   4.411 -0.2211 -0.0641 -0.1306
 2985TIP3    H1 8961   3.116   3.338   4.481 -1.2771  0.0891 -0.8511
 2985TIP3    H2 8962   3.260   3.365   4.444 -0.6701 -0.2218  1.1335
 2986TIP3   OH2 8963   0.397   5.668   1.966  0.1014 -0.2543 -0.3356
 2986TIP3    H1 8964   0.392   5.595   2.029  2.8461 -0.3584 -0.1268
 2986TIP3    H2 8965   0.344   5.737   2.006  0.7296 -0.7574  1.4714
 2987TIP3   OH2 8966   0.476   3.914   1.752 -0.1511  0.2362  0.3115
 2987TIP3    H1 8967   0.408   3.854   1.783  0.0257 -0.4995 -0.6625
 2987TIP3    H2 8968   0.532   3.929   1.828  0.9079 -2.3789  0.1419
 2988TIP3   OH2 8969   0.110   5.637   4.678  0.5500  0.3589  0.1484
 2988TIP3    H1 8970   0.100   5.544   4.659  0.9110  0.3057  0.2277
 2988TIP3    H2 8971   0.204   5.653   4.676  0.4173  1.2012 -2.1266
 2989TIP3   OH2 8972   3.585   2.818   1.845 -0.5056  0.1587  0.0544
 2989TIP3    H1 8973   3.584   2.730   1.806 -0.7798 -0.1192  0.6686
 2989TIP3    H2 8974   3.542   2.873   1.779 -1.9469 -0.5034  0.3829
 2990TIP3   OH2 8975   0.717   4.047   0.893 -0.1729 -0.5514 -0.0695
 2990TIP3    H1 8976   0.662   4.092   0.957 -0.1954 -0.9143  0.1739
 2990TIP3    H2 8977   0.726   3.958   0.928  1.1297 -0.3067  0.2392
 2991TIP3   OH2 8978   0.912   0.607   3.158 -0.2907  0.2212 -0.4624
 2991TIP3    H1 8979   0.916   0.606   3.254  0.2076 -0.6412 -0.4758
 2991TIP3    H2 8980   0.972   0.537   3.131  0.2793  1.0690 -1.4336
 2992TIP3   OH2 8981   3.049   5.812   3.909 -0.3011  0.3942  0.3381
 2992TIP3    H1 8982   3.135   5.776   3.886 -0.1827  1.8934 -1.8812
 2992TIP3    H2 8983   3.064   5.906   3.917 -2.0395  0.9885 -2.2292
 2993TIP3   OH2 8984   5.126   1.431   0.508 -1.0933  0.5022 -0.3698
 2993TIP3    H1 8985   5.215   1.397   0.523 -0.3826  2.3141 -0.1523
 2993TIP3    H2 8986   5.069   1.355   0.520  0.4371 -0.7919 -0.8294
 2994TIP3   OH2 8987  -0.002   3.701   2.596 -0.4921 -0.1263 -0.0539
 2994TIP3    H1 8988   0.049   3.656   2.529 -1.5179  1.2098 -1.8042
 2994TIP3    H2 8989  -0.018   3.634   2.662  0.3331 -1.5744 -1.2561
 2995TIP3   OH2 8990   4.090   1.705   0.777  0.2915 -0.2555 -0.3354
 2995TIP3    H1 8991   4.139   1.724   0.697  0.0689  1.4988 -0.0950
 2995TIP3    H2 8992   4.037   1.628   0.755  0.2739  0.1669 -1.8582
 2996TIP3   OH2 8993   3.437   0.490   4.635  1.3368  0.0982 -0.0201
 2996TIP3    H1 8994   3.519   0.441   4.640  0.5816 -1.3577 -1.1067
 2996TIP3    H2 8995   3.426   0.528   4.722  2.3113 -1.1138  0.6617
 2997TIP3   OH2 8996   0.463   1.038   0.982  0.2962  0.6254 -0.1541
 2997TIP3    H1 8997   0.467   1.121   1.028 -1.4873  0.1985  0.8639
 2997TIP3    H2 8998   0.516   0.978   1.035 -1.4594  0.2252  1.2776
 2998TIP3   OH2 8999   3.627   2.467   0.351 -0.1677 -0.2929  0.2878
 2998TIP3    H1 9000   3.698   2.504   0.299  0.9375 -1.4169  0.9561
 2998TIP3    H2 9001   3.647   2.492   0.441 -1.2299  0.3201  0.3760
 2999TIP3   OH2 9002   6.177   1.832   2.964  0.6081 -0.3804 -0.0332
 2999TIP3    H1 9003   6.222   1.853   2.883 -0.8806  2.1027 -0.3298
 2999TIP3    H2 9004   6.247   1.826   3.029  1.6773 -0.7247 -1.1794
 3000TIP3   OH2 9005   2.513   4.193   4.096 -0.1574  0.1999  0.2518
 3000TIP3    H1 9006   2.486   4.118   4.150  1.2534 -1.0355 -0.6791
 3000TIP3    H2 9007   2.605   4.177   4.077 -0.3426  1.1268 -1.6688
 3001TIP3   OH2 9008   1.159   2.038   3.706 -0.1869 -0.0687 -0.6414
 3001TIP3    H1 9009   1.114   2.039   3.790 -0.8094  0.9677 -0.9784
 3001TIP3    H2 9010   1.229   1.974   3.718  0.6662  1.1058  1.1618
 3002TIP3   OH2 9011   2.889   2.984   2.155 -0.3467  0.8548  0.0183
 3002TIP3    H1 9012   2.865   2.895   2.180  2.0720  0.7889  2.6121
 3002TIP3    H2 9013   2.816   3.038   2.183 -1.8863 -0.2309 -1.6596
 3003TIP3   OH2 9014   0.410   5.862   2.365 -0.2260 -0.4884  0.2376
 3003TIP3    H1 9015   0.421   5.943   2.315  2.5191 -1.3117 -0.6132
 3003TIP3    H2 9016   0.418   5.890   2.456  1.4800  0.1477 -0.0668
 3004TIP3   OH2 9017   4.983   2.274   0.436 -0.4706  0.0860 -0.0214
 3004TIP3    H1 9018   4.889   2.255   0.440 -0.3101 -0.6004  0.6982
 3004TIP3    H2 9019   5.006   2.258   0.344 -0.6294 -1.9365  0.2422
 3005TIP3   OH2 9020   1.685   5.248   2.440  0.7918  0.4536  0.1283
 3005TIP3    H1 9021   1.748   5.278   2.505  0.7400  0.8856 -0.0199
 3005TIP3    H2 9022   1.637   5.326   2.414  1.1520  0.3790 -0.7971
 3006TIP3   OH2 9023   5.787   4.240   3.486 -0.1191 -0.0641  0.1516
 3006TIP3    H1 9024   5.866   4.251   3.540 -0.5652  0.0832  0.7823
 3006TIP3    H2 9025   5.779   4.145   3.476  0.5139 -0.0592 -0.4887
 3007TIP3   OH2 9026   4.161   3.002   2.294 -0.2139 -0.5503  0.7054
 3007TIP3    H1 9027   4.144   2.922   2.244 -0.4289 -0.0566 -0.0206
 3007TIP3    H2 9028   4.112   3.070   2.248  1.0913  0.2793  0.4835
 3008TIP3   OH2 9029   1.612   1.213   2.528  0.4931 -0.3526 -0.5916
 3008TIP3    H1 9030   1.601   1.271   2.603 -1.8888 -1.1813 -0.2220
 3008TIP3    H2 9031   1.567   1.257   2.456 -1.1858 -1.5635 -0.3529
 3009TIP3   OH2 9032   2.891   3.429   0.169  0.2794 -0.1140 -0.1683
 3009TIP3    H1 9033   2.938   3.506   0.202  1.8805 -0.9969 -0.2817
 3009TIP3    H2 9034   2.827   3.465   0.108 -1.4364  1.3961  2.3378
 3010TIP3   OH2 9035   3.598   4.262   0.383 -0.1521 -0.1721  1.0446
 3010TIP3    H1 9036   3.681   4.227   0.352 -0.5726 -1.0696  0.9018
 3010TIP3    H2 9037   3.579   4.335   0.323 -0.9088 -1.8154 -0.8578
 3011TIP3   OH2 9038   2.594   1.485   2.029  0.3385 -0.6907  0.0515
 3011TIP3    H1 9039   2.514   1.532   2.009 -0.7361 -1.6711  1.7769
 3011TIP3    H2 9040   2.610   1.502   2.122  1.5997 -1.2960 -0.0231
 3012TIP3   OH2 9041   1.398   2.496   3.625  0.5530  0.1765 -0.0025
 3012TIP3    H1 9042   1.356   2.421   3.668 -0.5785 -0.7483 -2.5184
 3012TIP3    H2 9043   1.482   2.462   3.594  0.0569 -0.0798 -1.1078
 3013TIP3   OH2 9044   0.284   1.142   2.538 -0.4482  0.6063 -0.2068
 3013TIP3    H1 9045   0.257   1.224   2.497  0.2851  0.3865 -1.1719
 3013TIP3    H2 9046   0.308   1.085   2.465 -0.0811 -0.1594  0.4841
 3014TIP3   OH2 9047   5.529   4.443   3.793  1.0749  0.0125 -0.5830
 3014TIP3    H1 9048   5.609   4.487   3.819  0.1083  2.8013 -1.9681
 3014TIP3    H2 9049   5.537   4.354   3.829  3.7906  0.8382  1.0812
 3015TIP3   OH2 9050   2.508   2.990   4.731  0.0103  0.2131 -0.5288
 3015TIP3    H1 9051   2.574   2.944   4.679 -0.8603 -0.9113 -0.6847
 3015TIP3    H2 9052   2.555   3.064   4.770  1.2415 -0.3017 -0.9859
 3016TIP3   OH2 9053   2.787   2.131   0.041 -0.4200  0.5899  0.1676
 3016TIP3    H1 9054   2.707   2.175   0.013 -0.2187 -0.1033 -1.6525
 3016TIP3    H2 9055   2.810   2.172   0.124 -1.3911  2.4048 -0.4107
 3017TIP3   OH2 9056   2.101   1.609   4.636  0.5391  0.2230 -0.5804
 3017TIP3    H1 9057   2.082   1.652   4.552  0.2307 -0.4433 -0.8578
 3017TIP3    H2 9058   2.093   1.679   4.700 -0.9012  0.4046 -0.9205
 3018TIP3   OH2 9059   0.348   4.026   5.217  0.4261  0.1809 -0.0787
 3018TIP3    H1 9060   0.441   4.019   5.235  1.0145  2.6494 -1.7279
 3018TIP3    H2 9061   0.341   4.023   5.121 -1.1489  0.3394 -0.0022
 3019TIP3   OH2 9062   4.321   3.987   0.530 -0.7373  0.1835 -0.5112
 3019TIP3    H1 9063   4.291   4.038   0.455 -0.9446  0.3459 -0.3169
 3019TIP3    H2 9064   4.330   3.898   0.496  2.7035  0.8550 -1.7180
 3020TIP3   OH2 9065   4.798   1.178   3.720  0.2440 -0.1138  0.0932
 3020TIP3    H1 9066   4.793   1.215   3.809  1.7609 -1.2497  0.6847
 3020TIP3    H2 9067   4.833   1.090   3.732  1.4646  0.0699 -1.7251
 3021TIP3   OH2 9068   0.150   2.448   4.078  0.4107  0.4186  0.1112
 3021TIP3    H1 9069   0.094   2.372   4.092  0.7348  0.1994  0.2439
 3021TIP3    H2 9070   0.181   2.439   3.987 -0.3047  0.9031 -0.1837
 3022TIP3   OH2 9071   1.979   5.587   0.577 -0.2284 -0.1202 -0.1439
 3022TIP3    H1 9072   1.981   5.498   0.611  0.9873  0.0027  0.1283
 3022TIP3    H2 9073   1.968   5.577   0.482 -1.3047 -0.5145  0.0093
 3023TIP3   OH2 9074   3.118   3.711   2.707 -0.8217 -0.4944 -0.0613
 3023TIP3    H1 9075   3.184   3.650   2.673 -0.4769  0.1742 -0.6382
 3023TIP3    H2 9076   3.141   3.795   2.667  0.5256  0.7397  2.9964
 3024TIP3   OH2 9077   0.135   3.309   1.007 -0.1464 -0.3060 -0.7718
 3024TIP3    H1 9078   0.078   3.261   1.066  0.5429 -1.0180 -0.6642
 3024TIP3    H2 9079   0.205   3.247   0.986  0.6014  0.5478 -0.8673
 3025TIP3   OH2 9080   3.190   2.268   2.008  0.0843 -0.0232  0.4766
 3025TIP3    H1 9081   3.095   2.284   2.009 -0.0745 -0.8142 -0.4249
 3025TIP3    H2 9082   3.208   2.239   1.918  0.9391 -1.3246  1.0416
 3026TIP3   OH2 9083   4.885   1.931   2.108  0.1114 -0.3753  0.2599
 3026TIP3    H1 9084   4.931   1.852   2.080  1.6163  0.9335 -1.1500
 3026TIP3    H2 9085   4.948   2.002   2.094 -2.1108  1.4637 -1.2946
 3027TIP3   OH2 9086   0.335   0.472   4.949  0.0118  0.2666 -0.4653
 3027TIP3    H1 9087   0.248   0.452   4.914  0.1378 -0.7345 -0.2415
 3027TIP3    H2 9088   0.338   0.424   5.032  1.5977 -1.5789 -1.5239
 3028TIP3   OH2 9089   3.350   4.855   4.306 -0.4528  0.1531 -0.8294
 3028TIP3    H1 9090   3.291   4.819   4.239  2.1313 -3.4630 -1.4786
 3028TIP3    H2 9091   3.293   4.870   4.382 -2.5481 -1.0924 -2.0488
 3029TIP3   OH2 9092   5.802   4.428   2.452  0.4966  0.5490 -0.2236
 3029TIP3    H1 9093   5.720   4.402   2.494  0.3037  1.0924 -0.2459
 3029TIP3    H2 9094   5.811   4.369   2.377  0.2484  0.3315 -0.0814
 3030TIP3   OH2 9095   6.132   2.134   2.401  0.1602 -0.0464 -0.4007
 3030TIP3    H1 9096   6.058   2.115   2.343 -0.5433  1.4440 -0.0529
 3030TIP3    H2 9097   6.158   2.223   2.379  2.3880 -0.8027 -1.0216
 3031TIP3   OH2 9098   0.126   1.788   0.152  0.3522 -0.3069  0.1823
 3031TIP3    H1 9099   0.049   1.736   0.132 -0.1192  0.3429  0.2617
 3031TIP3    H2 9100   0.169   1.801   0.068 -0.4620  0.6092 -0.1203
 3032TIP3   OH2 9101   5.369   1.564   0.136  0.2728  0.0815 -0.0886
 3032TIP3    H1 9102   5.357   1.630   0.068  0.8262  1.7279  1.3411
 3032TIP3    H2 9103   5.297   1.578   0.197  1.4505  0.7147  1.2371
 3033TIP3   OH2 9104   4.249   5.620   2.708  0.2981 -0.0368 -0.0841
 3033TIP3    H1 9105   4.216   5.709   2.717  1.2047  0.1890  1.2499
 3033TIP3    H2 9106   4.226   5.595   2.618 -0.5267  1.2948 -0.2730
 3034TIP3   OH2 9107   3.898   3.003   0.242 -0.1463  0.0973  0.6732
 3034TIP3    H1 9108   3.945   3.082   0.270  0.2766 -0.1712  0.7314
 3034TIP3    H2 9109   3.953   2.931   0.271  0.4057 -0.1954 -1.0114
 3035TIP3   OH2 9110   1.871   4.285   4.721 -0.1374  0.3417  0.4032
 3035TIP3    H1 9111   1.792   4.338   4.732 -0.5356 -0.1216 -0.0952
 3035TIP3    H2 9112   1.879   4.237   4.804 -1.7037 -1.3057 -0.3140
 3036TIP3   OH2 9113   2.710   1.002   1.932 -0.0863  0.0996  0.5502
 3036TIP3    H1 9114   2.714   1.097   1.922  1.3450  0.1037  0.8661
 3036TIP3    H2 9115   2.796   0.971   1.902 -0.5081 -1.0948  0.5040
 3037TIP3   OH2 9116   4.786   0.475   4.323  0.9718  0.2264  0.8022
 3037TIP3    H1 9117   4.820   0.406   4.266 -1.0919 -0.0534 -0.1662
 3037TIP3    H2 9118   4.855   0.489   4.387  2.8976 -0.2926 -1.0392
 3038TIP3   OH2 9119   1.567   1.954   1.546 -0.2841  0.4330  0.1153
 3038TIP3    H1 9120   1.657   1.945   1.516  0.2906  1.3060  1.4704
 3038TIP3    H2 9121   1.558   2.047   1.567 -1.1350  0.1553  1.0588
 3039TIP3   OH2 9122   3.138   2.174   4.665 -0.3055 -0.1402 -0.4151
 3039TIP3    H1 9123   3.094   2.254   4.636  1.2390  1.9517  2.4065
 3039TIP3    H2 9124   3.228   2.185   4.636 -0.2217 -1.1817 -0.5617
 3040TIP3   OH2 9125   2.170   0.393   2.566 -0.3158 -0.0751  0.2274
 3040TIP3    H1 9126   2.221   0.441   2.631  1.2829 -0.1457 -0.9312
 3040TIP3    H2 9127   2.082   0.386   2.605  0.8112 -0.9480  2.8109
 3041TIP3   OH2 9128   1.202   3.102   5.121  0.3473 -0.6877 -0.1642
 3041TIP3    H1 9129   1.269   3.056   5.172 -1.5240 -1.5394  1.6505
 3041TIP3    H2 9130   1.153   3.033   5.078 -2.4537 -0.5683  2.5266
 3042TIP3   OH2 9131   2.269   2.467   2.411 -0.0470 -0.0582  0.0576
 3042TIP3    H1 9132   2.285   2.374   2.429 -0.2067 -0.1500 -0.2636
 3042TIP3    H2 9133   2.269   2.473   2.315 -2.0875 -0.0957  0.0223
 3043TIP3   OH2 9134   6.280   3.439   3.844  0.2219 -0.0214  0.3309
 3043TIP3    H1 9135   6.205   3.471   3.794 -0.2542 -3.4268 -1.4428
 3043TIP3    H2 9136   6.355   3.485   3.807 -0.6500  1.1197 -0.0716
 3044TIP3   OH2 9137   1.862   3.752   2.671  0.1814  0.3758 -0.1293
 3044TIP3    H1 9138   1.846   3.825   2.612  0.6947  1.2121  0.7477
 3044TIP3    H2 9139   1.908   3.790   2.746  1.2372 -0.9887 -0.0385
 3045TIP3   OH2 9140   0.102   4.648   4.355  0.1555 -0.0798 -0.2664
 3045TIP3    H1 9141   0.168   4.617   4.294 -0.5085 -0.7624 -0.6422
 3045TIP3    H2 9142   0.085   4.738   4.328  0.3104 -0.1777 -0.6978
 3046TIP3   OH2 9143   0.227   0.811   3.637  0.2497 -0.3082  0.2115
 3046TIP3    H1 9144   0.227   0.784   3.729  0.8124  0.6050  0.4903
 3046TIP3    H2 9145   0.257   0.902   3.638  1.3928 -0.6269 -0.9546
 3047TIP3   OH2 9146   6.002   0.213   2.818  0.7580 -0.1205 -0.1306
 3047TIP3    H1 9147   5.986   0.190   2.909  0.7652 -0.9031 -0.3272
 3047TIP3    H2 9148   6.086   0.172   2.797 -0.3905 -2.0514 -1.2125
 3048TIP3   OH2 9149   3.599   0.833   2.500  0.1691 -0.3458  0.4780
 3048TIP3    H1 9150   3.624   0.875   2.418 -1.0214 -1.0389 -0.2763
 3048TIP3    H2 9151   3.658   0.870   2.565 -0.1904  1.7774 -0.3070
 3049TIP3   OH2 9152   5.957   5.908   2.892 -0.4254 -0.8669  0.6346
 3049TIP3    H1 9153   6.024   5.970   2.921 -0.2990 -0.3738 -0.6619
 3049TIP3    H2 9154   5.991   5.822   2.917  0.3708 -0.5714  0.5939
 3050TIP3   OH2 9155   3.395   4.627   1.685  0.2641  0.1111  0.3829
 3050TIP3    H1 9156   3.390   4.686   1.760 -0.3327  1.3182 -0.5649
 3050TIP3    H2 9157   3.322   4.566   1.698  0.3496  0.1200  0.9364
 3051TIP3   OH2 9158   3.793   3.396   2.000 -0.1795  0.2823 -0.1630
 3051TIP3    H1 9159   3.780   3.398   2.094  0.3816 -2.0768  0.0313
 3051TIP3    H2 9160   3.723   3.452   1.965 -1.7893 -0.5529  1.5471
 3052TIP3   OH2 9161   5.051   3.247   3.228  0.3027  0.6011 -0.1200
 3052TIP3    H1 9162   5.102   3.249   3.309 -0.2850 -0.1353  0.2669
 3052TIP3    H2 9163   5.071   3.331   3.186  1.5114  0.5102  0.2221
 3053TIP3   OH2 9164   0.518   3.427   3.673 -0.1969  0.1965 -0.1867
 3053TIP3    H1 9165   0.537   3.422   3.580  1.1771  0.3755  0.0618
 3053TIP3    H2 9166   0.584   3.371   3.714 -0.3705  0.6402  0.7202
 3054TIP3   OH2 9167   3.265   4.525   3.605  0.0506 -0.2562 -0.3618
 3054TIP3    H1 9168   3.291   4.499   3.694  0.2544  0.1222 -0.3074
 3054TIP3    H2 9169   3.180   4.482   3.592  0.2075 -0.6452 -0.1394
 3055TIP3   OH2 9170   2.716   0.474   0.820  0.0174  0.4550 -0.1384
 3055TIP3    H1 9171   2.654   0.442   0.754 -0.2527  0.6921  0.0002
 3055TIP3    H2 9172   2.777   0.401   0.832  1.8708  1.3711 -2.8317
 3056TIP3   OH2 9173   4.590   3.352   4.915 -0.3057 -0.3182 -0.1236
 3056TIP3    H1 9174   4.671   3.303   4.928  0.0589  0.3112  0.0132
 3056TIP3    H2 9175   4.532   3.321   4.985  0.2054  0.0399  0.4646
 3057TIP3   OH2 9176   3.367   3.170   1.132 -0.0024 -0.2184  0.4608
 3057TIP3    H1 9177   3.320   3.227   1.072  0.3114  0.2385  0.6393
 3057TIP3    H2 9178   3.452   3.154   1.089 -0.0918 -0.5645  0.4056
 3058TIP3   OH2 9179   1.830   2.497   4.466 -0.0146  0.3521  0.4179
 3058TIP3    H1 9180   1.751   2.460   4.426 -0.7207  1.1686  1.0186
 3058TIP3    H2 9181   1.900   2.436   4.442 -1.0236 -1.0450  0.8615
 3059TIP3   OH2 9182   2.958   3.005   0.006  0.3682 -0.0257 -0.0198
 3059TIP3    H1 9183   2.895   3.022   0.076  0.4674 -2.1697  0.6747
 3059TIP3    H2 9184   2.994   3.091  -0.016  1.1333  0.6393  3.3213
 3060TIP3   OH2 9185   4.993   5.688   0.787 -0.0970 -0.5715  0.6355
 3060TIP3    H1 9186   4.922   5.636   0.825 -0.8383  0.0046  0.0769
 3060TIP3    H2 9187   4.974   5.690   0.693  0.8359 -0.6653  0.4400
 3061TIP3   OH2 9188   1.279   5.027   1.289  0.0881 -0.4070  0.3440
 3061TIP3    H1 9189   1.241   5.072   1.365 -0.1923 -1.0903  0.6159
 3061TIP3    H2 9190   1.230   5.061   1.215  0.5928  0.5174  0.4231
 3062TIP3   OH2 9191   6.283   5.523   0.724 -0.0300 -0.2481  0.3484
 3062TIP3    H1 9192   6.323   5.595   0.773  2.1788 -1.2863  0.2325
 3062TIP3    H2 9193   6.189   5.536   0.733  0.2698  2.8105  0.0365
 3063TIP3   OH2 9194   0.295   5.085   0.494  0.7301 -0.1229 -0.0444
 3063TIP3    H1 9195   0.357   5.020   0.459  2.3160  1.2381  0.0846
 3063TIP3    H2 9196   0.230   5.095   0.425  1.9374  0.0493 -1.2096
 3064TIP3   OH2 9197   4.454   1.104   3.169 -0.2524 -0.1930 -0.1113
 3064TIP3    H1 9198   4.424   1.014   3.156  0.1734 -0.5021  1.0078
 3064TIP3    H2 9199   4.533   1.111   3.115 -0.7317 -0.2374 -0.8299
 3065TIP3   OH2 9200   0.803   4.962   3.193  0.0990  0.1084  0.1755
 3065TIP3    H1 9201   0.833   4.872   3.181  0.9530  0.4225 -0.1723
 3065TIP3    H2 9202   0.711   4.961   3.168  0.7019 -0.1946 -2.2927
 3066TIP3   OH2 9203   1.950   5.285   2.250 -0.3077  0.4076  0.2119
 3066TIP3    H1 9204   1.957   5.231   2.328 -0.4695 -2.0195 -1.3595
 3066TIP3    H2 9205   1.918   5.226   2.182  0.1937  2.3165 -1.8128
 3067TIP3   OH2 9206   3.006   0.455   1.788  0.0082  0.2301  0.2893
 3067TIP3    H1 9207   3.079   0.466   1.849  0.4804 -2.1805  0.2700
 3067TIP3    H2 9208   2.928   0.454   1.843  0.3423 -0.8570  0.7688
 3068TIP3   OH2 9209   4.369   0.164   3.024 -0.1181  0.0442 -0.0113
 3068TIP3    H1 9210   4.451   0.131   2.988  0.0360  0.5819 -0.1479
 3068TIP3    H2 9211   4.307   0.161   2.951  0.3732  1.7969 -0.5304
 3069TIP3   OH2 9212   5.435   4.936   0.244 -0.2113  0.0628 -0.2930
 3069TIP3    H1 9213   5.428   4.844   0.271 -0.4303 -0.2917 -1.5223
 3069TIP3    H2 9214   5.389   4.941   0.161  0.6960  1.0618 -0.7684
 3070TIP3   OH2 9215   1.832   4.230   1.607 -0.3089  0.0957  0.0321
 3070TIP3    H1 9216   1.780   4.237   1.687  2.1998  0.3457  1.7655
 3070TIP3    H2 9217   1.782   4.171   1.551 -1.9492 -0.4628  1.9688
 3071TIP3   OH2 9218   1.044   5.691   1.797  0.0167 -0.1347 -0.2858
 3071TIP3    H1 9219   0.985   5.702   1.872  0.5853  1.5221 -0.0149
 3071TIP3    H2 9220   1.035   5.600   1.772 -0.5794 -0.6114  1.4922
 3072TIP3   OH2 9221   3.759   2.964   0.816  0.5005  0.0628 -0.4775
 3072TIP3    H1 9222   3.716   2.890   0.859  0.1658  1.7164  2.3242
 3072TIP3    H2 9223   3.687   3.021   0.788  0.7725  0.7989  0.2867
 3073TIP3   OH2 9224   0.798   4.539   2.276 -0.5609  0.1584  0.3875
 3073TIP3    H1 9225   0.774   4.512   2.365 -1.7879  0.2966  0.1155
 3073TIP3    H2 9226   0.893   4.550   2.279 -0.5395 -0.2103  1.5791
 3074TIP3   OH2 9227   5.921   0.506   1.399  0.1640  0.5367 -0.0446
 3074TIP3    H1 9228   5.929   0.419   1.439  0.3234  1.0205  1.0329
 3074TIP3    H2 9229   5.974   0.501   1.320 -0.7716 -0.6903 -0.6271
 3075TIP3   OH2 9230   5.396   2.119   4.946 -0.1702  0.1514  0.5645
 3075TIP3    H1 9231   5.336   2.188   4.974  1.2417  1.5344  0.3720
 3075TIP3    H2 9232   5.410   2.066   5.025 -1.2624  0.0838  0.7217
 3076TIP3   OH2 9233   0.925   5.409   0.949 -0.6970 -1.0459  0.5139
 3076TIP3    H1 9234   0.954   5.394   1.039 -0.8122  1.6995  1.0774
 3076TIP3    H2 9235   1.003   5.397   0.896  0.3014  0.9341  1.4342
 3077TIP3   OH2 9236   0.494   3.377   1.300  0.3063  0.5763  0.1829
 3077TIP3    H1 9237   0.523   3.381   1.391  1.7744  1.7433 -0.3010
 3077TIP3    H2 9238   0.499   3.284   1.277 -1.6379  0.0327  1.7291
 3078TIP3   OH2 9239   0.070   0.038   0.458  0.0651 -0.0309  0.2628
 3078TIP3    H1 9240   0.053   0.129   0.432 -2.7787 -0.2518  1.0388
 3078TIP3    H2 9241   0.023   0.027   0.541  1.6162 -1.8121  0.9682
 3079TIP3   OH2 9242   3.130   4.469   1.363 -0.4126 -0.3609 -0.6317
 3079TIP3    H1 9243   3.110   4.448   1.271  0.3992  3.2981 -1.8025
 3079TIP3    H2 9244   3.059   4.528   1.389  0.3498  0.0773  0.4904
 3080TIP3   OH2 9245   5.673   1.075   4.021  0.1165 -0.2728 -0.2339
 3080TIP3    H1 9246   5.718   1.037   4.096  0.2577  1.5882  0.6773
 3080TIP3    H2 9247   5.587   1.031   4.020  0.7718 -1.5971 -0.1030
 3081TIP3   OH2 9248   3.992   2.123   2.999 -0.3568  0.9782 -0.2749
 3081TIP3    H1 9249   4.027   2.183   3.064 -3.6903  0.2173  2.5645
 3081TIP3    H2 9250   4.000   2.036   3.039 -0.2042  0.1326 -2.0375
 3082TIP3   OH2 9251   3.433   2.051   0.163  0.1840  0.1270  0.0478
 3082TIP3    H1 9252   3.361   2.061   0.100  0.2936 -0.2053 -0.1318
 3082TIP3    H2 9253   3.467   2.140   0.174 -0.9820  0.4790  1.0183
 3083TIP3   OH2 9254   0.634   4.530   2.035 -0.1638  0.0000 -0.1916
 3083TIP3    H1 9255   0.680   4.569   2.110 -2.2723  1.5717  0.3859
 3083TIP3    H2 9256   0.691   4.547   1.960 -0.0589  2.5219  0.3652
 3084TIP3   OH2 9257   0.357   1.807   3.504  0.2360  0.7551 -0.3028
 3084TIP3    H1 9258   0.443   1.848   3.512  2.1015 -2.8447  0.2045
 3084TIP3    H2 9259   0.372   1.716   3.528 -3.2872 -0.5951 -2.5089
 3085TIP3   OH2 9260   5.962   4.119   2.022  0.9062  0.1334  0.4205
 3085TIP3    H1 9261   6.015   4.112   1.943 -0.5161 -0.0385 -0.5361
 3085TIP3    H2 9262   5.991   4.047   2.077  0.2759 -1.2046 -0.9476
 3086TIP3   OH2 9263   5.954   5.763   3.588  0.0329 -0.3336  0.5575
 3086TIP3    H1 9264   5.913   5.735   3.670 -2.1306 -2.0506 -1.0228
 3086TIP3    H2 9265   6.001   5.685   3.557  0.1272  0.0483 -0.2732
 3087TIP3   OH2 9266   0.415   4.036   1.507  0.1465 -0.4913 -0.3509
 3087TIP3    H1 9267   0.388   3.987   1.584 -1.0777 -0.1455 -0.5455
 3087TIP3    H2 9268   0.380   3.986   1.433  1.9365 -1.2265 -0.7611
 3088TIP3   OH2 9269   3.895   4.188   3.051  0.3930 -0.1114 -0.6671
 3088TIP3    H1 9270   3.879   4.272   3.007 -3.5453  0.0965  0.7689
 3088TIP3    H2 9271   3.848   4.124   2.999 -1.5055 -0.3972  1.2658
 3089TIP3   OH2 9272   4.583   1.802   0.056 -0.2173  0.2135 -0.2572
 3089TIP3    H1 9273   4.606   1.893   0.037 -0.9484  0.3794 -0.4000
 3089TIP3    H2 9274   4.574   1.762  -0.030  0.6282 -0.1408 -0.1899
 3090TIP3   OH2 9275   4.879   0.982   1.055 -0.2184 -0.1694  0.2961
 3090TIP3    H1 9276   4.957   0.979   1.000 -0.1714  2.8393  0.0361
 3090TIP3    H2 9277   4.809   0.947   1.001  0.2970  0.4464 -0.7881
 3091TIP3   OH2 9278   4.434   0.052   1.265 -0.2542  0.3185 -0.2218
 3091TIP3    H1 9279   4.379   0.104   1.323  1.7281  2.5516 -0.1935
 3091TIP3    H2 9280   4.475   0.116   1.207  1.1169 -1.3900 -1.2474
 3092TIP3   OH2 9281   1.846   0.041   1.523  0.0733  0.5621 -0.3528
 3092TIP3    H1 9282   1.941   0.056   1.530  0.2018  1.2778 -2.6759
 3092TIP3    H2 9283   1.816   0.037   1.613  2.4805 -0.9183  0.4885
 3093TIP3   OH2 9284   3.547   4.096   2.351 -0.2612  0.5813 -0.1635
 3093TIP3    H1 9285   3.453   4.098   2.334 -0.8861  0.4525  2.6413
 3093TIP3    H2 9286   3.575   4.007   2.329 -0.7431  0.6609 -1.1264
 3094TIP3   OH2 9287   1.640   5.237   1.707  0.0523  0.4966  0.7902
 3094TIP3    H1 9288   1.614   5.298   1.638  1.2857 -0.9928 -1.0911
 3094TIP3    H2 9289   1.575   5.249   1.776 -1.3814  1.8683 -0.7234
 3095TIP3   OH2 9290   4.832   3.113   2.202 -0.2536 -0.0060  0.1624
 3095TIP3    H1 9291   4.838   3.029   2.248  0.0796  0.0785  0.2796
 3095TIP3    H2 9292   4.919   3.151   2.212 -0.4280  0.3888  0.1767
 3096TIP3   OH2 9293   3.934   1.637   1.094  0.2019  0.3167 -0.0316
 3096TIP3    H1 9294   4.011   1.660   1.146  1.7812  1.0656 -2.5411
 3096TIP3    H2 9295   3.913   1.547   1.121  0.5199  0.8844  2.2953
 3097TIP3   OH2 9296   2.105   4.254   3.693 -0.5134  0.1007 -0.0628
 3097TIP3    H1 9297   2.042   4.280   3.626 -0.2211 -0.9649 -0.7692
 3097TIP3    H2 9298   2.066   4.284   3.775 -1.5889  0.1134 -0.5604
 3098TIP3   OH2 9299   4.114   2.792   0.789 -0.1736 -0.2737  0.4900
 3098TIP3    H1 9300   4.064   2.854   0.843 -0.7593 -0.7196  0.4720
 3098TIP3    H2 9301   4.093   2.817   0.699 -0.0253 -0.1963  0.4758
 3099TIP3   OH2 9302   2.153   3.830   2.176 -0.4272  0.3146 -0.1864
 3099TIP3    H1 9303   2.064   3.793   2.170  0.2494 -1.5146  0.1444
 3099TIP3    H2 9304   2.209   3.763   2.136  0.8895  1.0342  0.3970
 3100TIP3   OH2 9305   3.665   5.253   1.461 -0.2673  0.0544  0.2537
 3100TIP3    H1 9306   3.584   5.292   1.429 -0.6767 -0.6259  0.4641
 3100TIP3    H2 9307   3.639   5.171   1.501  0.2416  0.7827  2.2074
 3101TIP3   OH2 9308   1.262   2.528   2.623 -0.6905  0.2348  0.2377
 3101TIP3    H1 9309   1.190   2.586   2.650  0.5908  1.8924  0.2514
 3101TIP3    H2 9310   1.338   2.560   2.670  0.1796 -1.1928 -0.1347
 3102TIP3   OH2 9311   1.664   0.365   4.257  0.6641  0.0130  0.1368
 3102TIP3    H1 9312   1.638   0.402   4.173  0.2760  0.3164  0.3865
 3102TIP3    H2 9313   1.704   0.438   4.304 -0.1280  0.1335  0.6425
 3103TIP3   OH2 9314   0.731   5.324   1.171  0.3276 -0.4992 -0.3156
 3103TIP3    H1 9315   0.639   5.349   1.178  0.5095  0.2794 -0.6288
 3103TIP3    H2 9316   0.736   5.273   1.090 -0.0018 -1.3759  0.2063
 3104TIP3   OH2 9317   5.450   3.332   4.312 -0.1346 -0.2781  0.0813
 3104TIP3    H1 9318   5.437   3.264   4.378  0.8819 -0.9615 -0.4124
 3104TIP3    H2 9319   5.361   3.366   4.297 -0.4447 -0.3505  1.5109
 3105TIP3   OH2 9320   0.575   2.484   3.639  0.2621  0.6990  0.1550
 3105TIP3    H1 9321   0.644   2.546   3.664  0.0799  0.7239  0.6188
 3105TIP3    H2 9322   0.597   2.458   3.550  0.3065  1.4879 -0.0789
 3106TIP3   OH2 9323   3.865   5.699   4.178  0.3533 -0.3711  0.0664
 3106TIP3    H1 9324   3.937   5.651   4.219  1.9832  2.8211  1.3565
 3106TIP3    H2 9325   3.903   5.785   4.157 -2.5801  0.7739 -1.0577
 3107TIP3   OH2 9326   2.921   5.342   3.521  0.4922 -0.1419 -0.2950
 3107TIP3    H1 9327   2.935   5.310   3.431 -2.2936  0.4887 -1.0581
 3107TIP3    H2 9328   2.883   5.267   3.567 -1.0295  0.4035 -0.5895
 3108TIP3   OH2 9329   0.692   1.839   4.885  0.1873 -0.4436  0.1409
 3108TIP3    H1 9330   0.624   1.772   4.890 -0.7039  0.4056 -0.3344
 3108TIP3    H2 9331   0.672   1.889   4.806  1.7297 -0.5503 -0.3524
 3109TIP3   OH2 9332   2.967   4.235   2.442 -0.4984 -0.1781 -0.2179
 3109TIP3    H1 9333   2.988   4.142   2.444  3.5643  0.5277 -0.4917
 3109TIP3    H2 9334   2.963   4.261   2.533  0.2303 -0.3172 -0.1406
 3110TIP3   OH2 9335   4.105   2.820   4.585  0.0097  0.2550  0.0216
 3110TIP3    H1 9336   4.036   2.786   4.528  0.5677  0.9992 -1.1482
 3110TIP3    H2 9337   4.136   2.743   4.633 -1.0019 -0.2531 -0.1209
 3111TIP3   OH2 9338   0.380   4.270   2.629 -0.2083 -1.1860  0.4786
 3111TIP3    H1 9339   0.361   4.316   2.547 -0.1187 -2.4868 -0.2907
 3111TIP3    H2 9340   0.475   4.274   2.636 -0.2592 -0.4610  0.9050
 3112TIP3   OH2 9341   0.916   4.024   4.515 -1.0580 -0.0010 -0.1271
 3112TIP3    H1 9342   0.934   4.025   4.609 -1.1530 -0.9104 -0.0893
 3112TIP3    H2 9343   0.896   4.115   4.493  1.1552  0.6517  0.3103
 3113TIP3   OH2 9344   5.387   1.748   3.745 -0.1872  0.2548 -0.0196
 3113TIP3    H1 9345   5.433   1.716   3.668  1.1845 -1.8563  1.5448
 3113TIP3    H2 9346   5.325   1.812   3.712  1.0914  0.2240 -2.7166
 3114TIP3   OH2 9347   4.443   2.375   2.312 -0.3842  0.0447  0.0728
 3114TIP3    H1 9348   4.349   2.363   2.302 -0.2199  0.1655 -2.2531
 3114TIP3    H2 9349   4.453   2.469   2.328 -0.6613  0.0416  0.2635
 3115TIP3   OH2 9350   5.283   3.875   2.586 -0.2228  0.1724 -0.0457
 3115TIP3    H1 9351   5.273   3.970   2.579 -0.9282  0.0850 -0.3719
 3115TIP3    H2 9352   5.196   3.845   2.615 -0.3243 -0.4676 -0.9787
 3116TIP3   OH2 9353   4.374   2.282   1.768 -0.1931 -0.5159  0.4110
 3116TIP3    H1 9354   4.391   2.247   1.681  0.7254  2.8712 -0.9233
 3116TIP3    H2 9355   4.413   2.217   1.828  2.5219 -1.1869 -1.8660
 3117TIP3   OH2 9356   3.438   3.180   4.789  0.1650 -0.3906  0.6932
 3117TIP3    H1 9357   3.485   3.100   4.813  1.4057 -0.5568 -1.9332
 3117TIP3    H2 9358   3.484   3.250   4.835  1.8765 -0.7644 -0.3572
 3118TIP3   OH2 9359   1.296   1.390   0.412 -0.5599 -0.4098  0.5195
 3118TIP3    H1 9360   1.216   1.443   0.408 -0.2788 -0.0467 -1.2485
 3118TIP3    H2 9361   1.366   1.451   0.391  0.0220 -1.0238  0.6512
 3119TIP3   OH2 9362   5.622   3.542   5.186  0.1359 -0.5204  0.4121
 3119TIP3    H1 9363   5.688   3.611   5.192 -0.6076  0.2898 -0.5173
 3119TIP3    H2 9364   5.538   3.587   5.190 -0.3660 -1.3670 -0.1863
 3120TIP3   OH2 9365   3.193   0.627   0.885 -0.5269  0.1456  0.3961
 3120TIP3    H1 9366   3.111   0.589   0.916 -2.0798  1.1825 -2.0905
 3120TIP3    H2 9367   3.171   0.719   0.867  0.3939 -0.1157 -2.6505
 3121TIP3   OH2 9368   1.955   4.941   0.688 -0.3578 -0.4101 -0.1442
 3121TIP3    H1 9369   2.038   4.900   0.663  0.0925  0.0481  0.5902
 3121TIP3    H2 9370   1.958   4.947   0.783 -1.0509 -0.0013 -0.1404
 3122TIP3   OH2 9371   5.061   4.564   1.842  0.2630  0.0813 -0.4452
 3122TIP3    H1 9372   5.118   4.594   1.913 -0.3511 -1.6632  0.8415
 3122TIP3    H2 9373   5.111   4.582   1.763  2.1022 -0.2792  0.5660
 3123TIP3   OH2 9374   3.911   3.414   3.855 -0.3126 -0.1932 -0.4910
 3123TIP3    H1 9375   3.876   3.502   3.843 -1.3834 -0.5805 -0.2881
 3123TIP3    H2 9376   3.847   3.356   3.812  0.6890 -0.8342 -1.1869
 3124TIP3   OH2 9377   5.678   0.135   3.425  0.0240 -0.4755 -0.5344
 3124TIP3    H1 9378   5.637   0.221   3.426  0.1109 -0.4387  0.1884
 3124TIP3    H2 9379   5.613   0.077   3.385 -0.5151 -0.3099  0.0860
 3125TIP3   OH2 9380   4.645   4.460   0.895  0.4069  0.1378 -0.0640
 3125TIP3    H1 9381   4.655   4.376   0.850  1.5891  0.2309  0.0055
 3125TIP3    H2 9382   4.710   4.457   0.965 -0.1306  0.7687  0.4701
 3126TIP3   OH2 9383   2.886   3.698   0.985  0.4370 -0.2451  0.0827
 3126TIP3    H1 9384   2.862   3.619   0.935 -0.5055  1.0345 -1.6090
 3126TIP3    H2 9385   2.969   3.726   0.946  0.9738 -0.5886  0.9509
 3127TIP3   OH2 9386   3.767   1.742   2.424  0.2970  0.0181 -0.0939
 3127TIP3    H1 9387   3.769   1.830   2.463 -1.4134  0.7130 -1.4126
 3127TIP3    H2 9388   3.855   1.729   2.391  0.3778  1.6651 -0.6497
 3128TIP3   OH2 9389   2.620   3.208   4.887 -0.3825 -0.1920  0.1445
 3128TIP3    H1 9390   2.677   3.285   4.893 -2.6885  1.8168 -1.5321
 3128TIP3    H2 9391   2.563   3.215   4.964 -1.8095  0.9348 -0.9585
 3129TIP3   OH2 9392   1.456   5.253   3.139 -0.0576  0.0738 -0.6261
 3129TIP3    H1 9393   1.549   5.258   3.122 -0.4135  1.6986 -2.3645
 3129TIP3    H2 9394   1.440   5.322   3.204 -0.1570  0.3612 -0.9510
 3130TIP3   OH2 9395   5.607   4.514   1.891  0.3005 -0.2039  0.5585
 3130TIP3    H1 9396   5.612   4.424   1.858  0.8340 -0.7332  2.0274
 3130TIP3    H2 9397   5.699   4.542   1.898  0.1331  1.1035 -1.4852
 3131TIP3   OH2 9398   5.527   2.113   0.317 -0.8612 -0.5430 -0.1253
 3131TIP3    H1 9399   5.487   2.178   0.375 -0.9523  0.1356 -0.9317
 3131TIP3    H2 9400   5.528   2.032   0.368 -0.6911  0.1063  0.9178
 3132TIP3   OH2 9401   3.270   1.346   2.633  0.7970  0.1489 -0.0690
 3132TIP3    H1 9402   3.187   1.336   2.587  1.2054 -1.1892 -0.5660
 3132TIP3    H2 9403   3.328   1.282   2.591  1.5065 -0.3343  1.5565
 3133TIP3   OH2 9404   0.248   0.015   0.867 -0.1999  0.5824  0.0478
 3133TIP3    H1 9405   0.283  -0.045   0.933  2.8069 -1.7248 -3.3112
 3133TIP3    H2 9406   0.307   0.090   0.870 -0.3821  0.7174  0.3041
 3134TIP3   OH2 9407   3.027   2.049   4.439  0.0903 -0.3374  0.0329
 3134TIP3    H1 9408   2.936   2.052   4.468  0.0134  2.7526 -0.2707
 3134TIP3    H2 9409   3.078   2.067   4.518  0.3966 -0.8091 -0.0510
 3135TIP3   OH2 9410   1.030   1.424   2.406  0.4214  0.3900  0.3185
 3135TIP3    H1 9411   1.014   1.352   2.467  1.6869 -0.3118 -0.1489
 3135TIP3    H2 9412   0.974   1.495   2.438  1.5838  0.3054  2.7781
 3136TIP3   OH2 9413   0.759   4.356   1.089  0.0103  0.1175 -0.1074
 3136TIP3    H1 9414   0.791   4.288   1.148 -0.8847 -0.3653 -0.1545
 3136TIP3    H2 9415   0.672   4.325   1.062  0.2565  0.4955 -1.4053
 3137TIP3   OH2 9416   1.218   2.660   1.471 -0.1229 -0.0790  0.3345
 3137TIP3    H1 9417   1.140   2.713   1.456 -1.1725 -1.4386  0.7531
 3137TIP3    H2 9418   1.186   2.570   1.468  1.4239 -0.6628  0.6199
 3138TIP3   OH2 9419   2.374   3.057   2.302  0.3600 -0.0051 -0.0411
 3138TIP3    H1 9420   2.329   3.033   2.383  0.2538 -0.3117 -0.1893
 3138TIP3    H2 9421   2.310   3.041   2.233  1.0137 -1.3864 -0.3531
 3139TIP3   OH2 9422   2.479   4.870   1.644  0.5006  0.2654  0.3120
 3139TIP3    H1 9423   2.408   4.806   1.649  0.1462  0.6534  0.2474
 3139TIP3    H2 9424   2.536   4.848   1.718  0.1783  0.1196  0.5193
 3140TIP3   OH2 9425   6.065   2.228   0.982 -0.0250  0.0008  0.3220
 3140TIP3    H1 9426   6.146   2.197   0.941 -0.3754 -0.5703  0.0589
 3140TIP3    H2 9427   6.075   2.323   0.984 -0.0346  0.0560 -1.1804
 3141TIP3   OH2 9428   4.623   2.712   0.062  0.4852  0.1909 -0.4880
 3141TIP3    H1 9429   4.690   2.745   0.003  1.4027 -0.4812  0.1496
 3141TIP3    H2 9430   4.619   2.618   0.044  2.2678 -0.4260  1.8777
 3142TIP3   OH2 9431   1.686   2.799   0.023  0.0488 -0.1946 -0.3352
 3142TIP3    H1 9432   1.699   2.781   0.116  0.4559 -2.0690 -0.7198
 3142TIP3    H2 9433   1.723   2.887   0.010  0.3622 -0.0841  1.1804
 3143TIP3   OH2 9434   5.175   3.535   5.203  0.1977 -0.2437  0.2713
 3143TIP3    H1 9435   5.208   3.555   5.115  0.8395 -0.4951  0.4503
 3143TIP3    H2 9436   5.245   3.486   5.245 -0.9601 -2.0494  0.1959
 3144TIP3   OH2 9437   3.476   4.281   4.614 -0.2310  0.1705 -0.0247
 3144TIP3    H1 9438   3.482   4.311   4.523 -0.2252  0.5114  0.0878
 3144TIP3    H2 9439   3.452   4.359   4.663  0.9579  0.2595  0.4357
 3145TIP3   OH2 9440   2.242   4.379   3.066  0.3939  0.4272  0.2788
 3145TIP3    H1 9441   2.162   4.362   3.018 -0.4706  1.5696  1.2468
 3145TIP3    H2 9442   2.250   4.306   3.128  0.0842  0.3368  0.2104
 3146TIP3   OH2 9443   4.780   1.926   3.429 -0.2877 -0.7644 -0.4905
 3146TIP3    H1 9444   4.854   1.972   3.469 -0.1078  0.4614 -2.1135
 3146TIP3    H2 9445   4.707   1.988   3.437 -0.8419 -1.4877  0.0661
 3147TIP3   OH2 9446   1.123   3.659   3.258  0.4303  0.3184  0.3589
 3147TIP3    H1 9447   1.201   3.656   3.203  1.0139 -1.1896  1.1985
 3147TIP3    H2 9448   1.150   3.617   3.339 -1.3523 -0.5506  0.5427
 3148TIP3   OH2 9449   4.708   1.295   4.155  0.4575  1.3163  0.1540
 3148TIP3    H1 9450   4.637   1.358   4.144 -0.7454 -0.3740 -3.3126
 3148TIP3    H2 9451   4.663   1.212   4.172  1.5279  0.2849 -1.7242
 3149TIP3   OH2 9452   1.398   3.287   0.558  0.0666 -0.0051  0.3454
 3149TIP3    H1 9453   1.459   3.358   0.574 -1.7278  1.5134  0.8586
 3149TIP3    H2 9454   1.398   3.236   0.639 -0.8373  1.2061  1.1381
 3150TIP3   OH2 9455   0.117   1.244   3.820  0.2273  0.6912  0.6246
 3150TIP3    H1 9456   0.127   1.257   3.914 -0.4297  0.4297  0.7351
 3150TIP3    H2 9457   0.023   1.234   3.807  0.4390 -0.9918  0.1648
 3151TIP3   OH2 9458   4.753   2.926   1.670  0.0082  0.1024  0.3623
 3151TIP3    H1 9459   4.714   3.000   1.624 -0.2209 -0.7219 -0.8386
 3151TIP3    H2 9460   4.707   2.849   1.635  0.9158 -0.6818  0.8319
 3152TIP3   OH2 9461   5.537   1.956   0.532  0.4836 -0.2701 -0.4267
 3152TIP3    H1 9462   5.567   1.874   0.494 -0.9795 -0.1032 -2.0422
 3152TIP3    H2 9463   5.449   1.937   0.565  0.4525  0.4456 -0.0670
 3153TIP3   OH2 9464   3.064   3.794   1.884 -0.2586  0.5682 -0.6999
 3153TIP3    H1 9465   3.126   3.797   1.811 -0.6666 -0.2462 -1.0934
 3153TIP3    H2 9466   3.107   3.843   1.954  0.9749 -0.2261 -0.8661
 3154TIP3   OH2 9467   0.626   5.557   4.201  0.3574 -0.0346  0.1998
 3154TIP3    H1 9468   0.566   5.540   4.128 -0.9126  0.1360  1.1710
 3154TIP3    H2 9469   0.665   5.473   4.221  1.0785  0.0072 -0.9823
 3155TIP3   OH2 9470   0.266   3.462   3.492  0.4709 -0.7053  0.0979
 3155TIP3    H1 9471   0.298   3.371   3.492 -0.7250 -1.1438  0.0593
 3155TIP3    H2 9472   0.343   3.514   3.515  0.6474 -1.9174  2.5422
 3156TIP3   OH2 9473   4.067   0.914   2.947  0.0091 -0.2039  0.1795
 3156TIP3    H1 9474   4.040   0.952   3.030 -1.1285 -0.7614  0.0804
 3156TIP3    H2 9475   4.005   0.842   2.932 -0.9329  0.9754 -1.9820
 3157TIP3   OH2 9476   0.176   4.444   4.807  0.1284 -0.5075 -0.1969
 3157TIP3    H1 9477   0.159   4.371   4.747 -0.3495  0.4838 -1.3078
 3157TIP3    H2 9478   0.097   4.449   4.862  0.2385 -0.9277  0.0026
 3158TIP3   OH2 9479   1.062   1.954   0.257  0.4317 -0.5799 -0.0314
 3158TIP3    H1 9480   1.061   1.983   0.348  0.8529  0.2837 -0.2839
 3158TIP3    H2 9481   1.146   1.909   0.247  0.3597 -0.7261  0.0205
 3159TIP3   OH2 9482   3.530   2.995   0.446 -0.8228 -0.4851  0.1987
 3159TIP3    H1 9483   3.563   2.931   0.384 -3.4623 -1.6935 -0.0750
 3159TIP3    H2 9484   3.603   3.056   0.459  0.1788 -0.7875 -3.2245
 3160TIP3   OH2 9485   2.299   0.300   0.843 -0.0393  0.4252 -0.5374
 3160TIP3    H1 9486   2.308   0.225   0.784 -1.8531 -0.2468 -0.0189
 3160TIP3    H2 9487   2.358   0.280   0.916 -1.8550 -1.5081  0.5156
 3161TIP3   OH2 9488   3.085   1.575   4.179 -0.0481  0.8339  0.0579
 3161TIP3    H1 9489   3.040   1.506   4.226 -0.7135  0.8226 -0.5771
 3161TIP3    H2 9490   3.032   1.653   4.194 -0.0291  0.9204 -0.3152
 3162TIP3   OH2 9491   1.223   1.730   0.248  0.2497 -0.6955  0.2586
 3162TIP3    H1 9492   1.288   1.684   0.301 -0.4487 -2.6943 -0.5474
 3162TIP3    H2 9493   1.157   1.664   0.226 -0.5038  0.5287 -1.4457
 3163TIP3   OH2 9494   5.220   0.487   0.610 -0.1799  0.0947  0.7327
 3163TIP3    H1 9495   5.184   0.434   0.538  0.9214 -0.2747  0.4308
 3163TIP3    H2 9496   5.179   0.451   0.689 -0.4950 -0.2908  0.4000
 3164TIP3   OH2 9497   3.849   2.232   1.272 -0.2098 -0.1535  0.3670
 3164TIP3    H1 9498   3.943   2.223   1.255 -0.0967 -0.5918  1.1947
 3164TIP3    H2 9499   3.826   2.154   1.322 -0.6261  0.8296  1.7919
 3165TIP3   OH2 9500   2.798   3.474   3.870  0.0498  0.2882  0.1186
 3165TIP3    H1 9501   2.761   3.397   3.913 -0.4782  0.4309 -0.0774
 3165TIP3    H2 9502   2.857   3.438   3.804  0.5786  0.0645  0.7056
 3166TIP3   OH2 9503   3.230   4.257   1.771 -0.4315 -0.0325  0.2643
 3166TIP3    H1 9504   3.209   4.341   1.731 -1.0158 -0.6242 -0.7170
 3166TIP3    H2 9505   3.320   4.266   1.802  0.6627 -0.0168 -2.5812
 3167TIP3   OH2 9506   1.991   5.860   5.028  0.8774  0.0472 -0.4180
 3167TIP3    H1 9507   1.961   5.899   5.110  1.3530 -0.9585  0.2437
 3167TIP3    H2 9508   2.000   5.935   4.968  1.1978  0.8775  0.6456
 3168TIP3   OH2 9509   3.173   1.122   3.432  0.1680 -0.6058 -0.4276
 3168TIP3    H1 9510   3.235   1.100   3.362  1.2997  1.3781 -0.1169
 3168TIP3    H2 9511   3.088   1.123   3.390  0.7508 -0.1336 -1.6382
 3169TIP3   OH2 9512   6.310   5.496   1.619  0.6478  0.2924 -0.2147
 3169TIP3    H1 9513   6.370   5.498   1.544  1.1540  1.2540  0.2066
 3169TIP3    H2 9514   6.352   5.551   1.685 -0.0433 -0.1315  0.5976
 3170TIP3   OH2 9515   4.497   2.786   4.840 -0.3544  0.4067  0.0533
 3170TIP3    H1 9516   4.473   2.765   4.750 -0.5526 -1.6014  0.5334
 3170TIP3    H2 9517   4.523   2.702   4.878 -0.5871  1.1539  1.9694
 3171TIP3   OH2 9518   6.108   2.576   3.314  0.2586  0.1227 -0.1754
 3171TIP3    H1 9519   6.102   2.545   3.405 -1.3245 -0.5627 -0.4743
 3171TIP3    H2 9520   6.049   2.651   3.310 -2.2932 -1.7527 -1.3057
 3172TIP3   OH2 9521   4.307   2.556   3.074  0.3908 -0.4836  0.0557
 3172TIP3    H1 9522   4.353   2.475   3.094  0.2944 -0.3163  1.0508
 3172TIP3    H2 9523   4.245   2.533   3.005  0.0989 -1.3528  0.5909
 3173TIP3   OH2 9524   0.035   4.971   0.847 -0.1266 -0.1900 -0.2176
 3173TIP3    H1 9525   0.004   4.882   0.835 -0.4068  0.0116 -1.0152
 3173TIP3    H2 9526   0.130   4.966   0.832  0.0421 -0.5480  0.8514
 3174TIP3   OH2 9527   0.716   5.824   1.053 -0.2509 -0.0899 -0.3885
 3174TIP3    H1 9528   0.650   5.802   0.987 -0.5482 -0.7535  0.1179
 3174TIP3    H2 9529   0.735   5.741   1.096  1.0040  0.0795 -0.5997
 3175TIP3   OH2 9530   3.947   5.589   2.610 -0.5732  0.4490  0.0101
 3175TIP3    H1 9531   3.928   5.504   2.648 -0.3439  0.4372  0.0956
 3175TIP3    H2 9532   3.964   5.646   2.685  0.4859  0.2838 -0.0936
 3176TIP3   OH2 9533   2.382   0.861   0.334  0.5077 -0.0614 -0.5495
 3176TIP3    H1 9534   2.360   0.786   0.389 -0.1786 -0.9844 -2.0263
 3176TIP3    H2 9535   2.356   0.937   0.387  0.1019 -0.8965  0.4931
 3177TIP3   OH2 9536   4.749   4.347   5.159  0.3783 -0.1440  0.4296
 3177TIP3    H1 9537   4.750   4.438   5.189  1.2377 -0.6555  2.1123
 3177TIP3    H2 9538   4.795   4.349   5.075  1.4546  0.8196  1.0071
 3178TIP3   OH2 9539   1.498   4.159   2.628 -0.3843 -0.8021 -0.4057
 3178TIP3    H1 9540   1.471   4.157   2.720  1.3949 -1.6347  0.1393
 3178TIP3    H2 9541   1.476   4.072   2.595 -2.6478  0.0486 -1.3208
 3179TIP3   OH2 9542   0.353   5.036   1.975 -0.1185  0.1441  0.3428
 3179TIP3    H1 9543   0.394   4.952   1.995  0.1208  0.0325 -0.5706
 3179TIP3    H2 9544   0.413   5.078   1.913 -1.0347  0.2799 -0.4781
 3180TIP3   OH2 9545   0.324   2.601   0.596 -0.5260 -0.0154 -0.0112
 3180TIP3    H1 9546   0.284   2.549   0.526 -1.1951  0.5848 -0.0781
 3180TIP3    H2 9547   0.307   2.692   0.572 -1.1616  0.1910  1.1584
 3181TIP3   OH2 9548   1.502   1.591   1.759  0.5565 -0.0776  0.2142
 3181TIP3    H1 9549   1.408   1.579   1.754  0.3213  0.7579  1.8283
 3181TIP3    H2 9550   1.529   1.612   1.669 -0.8608  0.1015 -0.1861
 3182TIP3   OH2 9551   5.913   0.780   1.083 -0.1773 -0.5127  0.3598
 3182TIP3    H1 9552   5.999   0.783   1.123  0.4206 -1.6777 -0.7365
 3182TIP3    H2 9553   5.915   0.701   1.028 -1.1074  0.7077 -1.5378
 3183TIP3   OH2 9554   1.451   2.668   2.782  0.3133  0.0210  0.4755
 3183TIP3    H1 9555   1.537   2.708   2.791  0.9318 -1.6272  2.9119
 3183TIP3    H2 9556   1.389   2.740   2.789  1.3969  1.5472 -3.3582
 3184TIP3   OH2 9557   2.941   0.967   0.619 -0.0041 -0.5385 -0.0736
 3184TIP3    H1 9558   2.858   1.015   0.626  1.3754  1.8619  1.0765
 3184TIP3    H2 9559   2.929   0.910   0.542 -2.2698  0.6333 -0.6798
 3185TIP3   OH2 9560   2.813   0.709   3.912  0.8013 -0.1386  0.4850
 3185TIP3    H1 9561   2.733   0.760   3.899 -0.4920 -1.7530  1.7737
 3185TIP3    H2 9562   2.844   0.734   3.999  1.1002 -0.3379  0.4390
 3186TIP3   OH2 9563   3.486   0.753   1.484  0.1933 -0.2218 -0.1035
 3186TIP3    H1 9564   3.450   0.799   1.407 -1.0940 -0.9113  0.0572
 3186TIP3    H2 9565   3.453   0.804   1.559 -0.7066 -1.0076  0.0541
 3187TIP3   OH2 9566   5.968   1.334   1.004 -0.1961  0.4565 -0.4088
 3187TIP3    H1 9567   6.037   1.304   0.946 -0.4115  3.2825 -2.3042
 3187TIP3    H2 9568   5.969   1.271   1.076  1.5234 -1.9728 -2.3789
 3188TIP3   OH2 9569   0.308   0.239   1.684 -0.1360  0.1780 -0.3626
 3188TIP3    H1 9570   0.384   0.232   1.626  0.5226  0.4598  0.4534
 3188TIP3    H2 9571   0.269   0.151   1.682  0.1088  0.0727 -0.9023
 3189TIP3   OH2 9572   2.496   3.628   4.569 -0.2262  0.1977 -0.0406
 3189TIP3    H1 9573   2.516   3.711   4.611  0.4678 -0.1745  0.3743
 3189TIP3    H2 9574   2.581   3.594   4.541 -0.2742 -1.3009  1.5389
 3190TIP3   OH2 9575   3.463   0.181   0.609 -0.0599 -0.1426  0.0449
 3190TIP3    H1 9576   3.386   0.158   0.661  0.4340 -0.3673  0.6936
 3190TIP3    H2 9577   3.477   0.274   0.627  0.2917 -0.2889  0.5808
 3191TIP3   OH2 9578   0.301   1.506   4.991  0.0107 -0.3963  0.1221
 3191TIP3    H1 9579   0.382   1.512   5.042 -0.9044  2.0970  1.4716
 3191TIP3    H2 9580   0.329   1.487   4.902  2.0352 -0.2281  0.6845
 3192TIP3   OH2 9581   4.958   4.678   2.570 -0.0982  0.2534  0.1830
 3192TIP3    H1 9582   4.977   4.626   2.648 -0.7765 -0.1237  0.1080
 3192TIP3    H2 9583   4.925   4.614   2.507  0.5518  0.5363 -0.4557
 3193TIP3   OH2 9584  -0.015   5.895   3.573 -0.3520  0.3549  0.2687
 3193TIP3    H1 9585   0.052   5.929   3.514  0.3821 -0.2840  0.7262
 3193TIP3    H2 9586  -0.010   5.800   3.564 -1.3750  0.2951  0.1269
 3194TIP3   OH2 9587   5.219   1.696   1.247 -0.2641 -0.2856 -0.0935
 3194TIP3    H1 9588   5.305   1.729   1.271 -0.0189 -0.6823 -0.4223
 3194TIP3    H2 9589   5.172   1.774   1.216  0.6807 -0.3899 -1.9155
 3195TIP3   OH2 9590   4.404   0.213   3.820  0.4920  0.5456  0.3765
 3195TIP3    H1 9591   4.401   0.143   3.755 -1.0230 -1.1197  2.1228
 3195TIP3    H2 9592   4.318   0.256   3.813 -0.2305 -0.5290  2.1265
 3196TIP3   OH2 9593   3.857   0.822   2.093  0.7064 -0.1998 -0.0048
 3196TIP3    H1 9594   3.844   0.873   2.173  1.1709 -1.4311  0.8863
 3196TIP3    H2 9595   3.947   0.788   2.101 -0.2484 -2.9025  0.5297
 3197TIP3   OH2 9596   2.111   5.840   1.699 -0.1058  0.1836  0.0915
 3197TIP3    H1 9597   2.124   5.823   1.606 -4.0051 -1.6954 -0.3323
 3197TIP3    H2 9598   2.116   5.754   1.741  3.1483  1.1374  2.0479
 3198TIP3   OH2 9599   2.760   2.801   2.921  0.1986  0.0008  0.5686
 3198TIP3    H1 9600   2.757   2.886   2.876 -0.3139 -1.6791 -2.9215
 3198TIP3    H2 9601   2.668   2.775   2.928  0.4295 -0.9639  0.1129
 3199TIP3   OH2 9602   0.790   0.724   4.131 -0.0005 -0.0566  0.6111
 3199TIP3    H1 9603   0.776   0.807   4.177 -1.5071 -1.0809  2.1487
 3199TIP3    H2 9604   0.711   0.712   4.078  0.5464 -0.1555 -0.1939
 3200TIP3   OH2 9605  -0.006   1.890   2.025 -0.0369 -0.7509  0.7858
 3200TIP3    H1 9606   0.052   1.884   1.949  1.8516 -0.0003  2.1019
 3200TIP3    H2 9607  -0.042   1.978   2.020 -1.6255 -1.4208 -0.3686
 3201TIP3   OH2 9608   0.550   3.649   2.026 -0.4675 -0.2542 -0.2613
 3201TIP3    H1 9609   0.564   3.555   2.032 -0.2941 -0.2438 -0.5045
 3201TIP3    H2 9610   0.638   3.687   2.030 -0.6077 -0.0067  1.4419
 3202TIP3   OH2 9611   2.805   3.892   1.188  0.3301 -0.3939  0.0404
 3202TIP3    H1 9612   2.858   3.888   1.268 -0.4498 -0.2671  0.5765
 3202TIP3    H2 9613   2.859   3.849   1.121  0.6487 -1.2530  0.8275
 3203TIP3   OH2 9614   5.291   0.671   1.784 -0.1840 -0.1428 -0.1259
 3203TIP3    H1 9615   5.359   0.731   1.753  0.6333 -1.2792 -0.5830
 3203TIP3    H2 9616   5.339   0.602   1.830 -1.2377  0.5206  2.1138
 3204TIP3   OH2 9617   0.489   1.883   3.209 -0.3641 -0.1560  0.2412
 3204TIP3    H1 9618   0.510   1.795   3.177 -0.1999  0.6049 -1.9094
 3204TIP3    H2 9619   0.460   1.869   3.299  0.5419 -2.2959  0.2740
 3205TIP3   OH2 9620   0.983   4.826   3.839  0.2171  0.2864  0.3183
 3205TIP3    H1 9621   0.977   4.899   3.901  2.5507  1.5067 -0.7433
 3205TIP3    H2 9622   0.982   4.868   3.753 -0.4148 -1.1574 -0.4199
 3206TIP3   OH2 9623   5.601   2.947   1.942 -0.1171 -0.1661  0.2117
 3206TIP3    H1 9624   5.527   2.957   2.001 -0.4432  0.1927 -0.2475
 3206TIP3    H2 9625   5.678   2.964   1.996 -0.3139 -1.3142  0.8760
 3207TIP3   OH2 9626   3.569   2.033   4.926  0.3797 -0.1473  0.5223
 3207TIP3    H1 9627   3.626   1.957   4.931 -0.2338 -0.5791  1.0918
 3207TIP3    H2 9628   3.485   1.999   4.895  1.0329  0.8217 -2.7371
 3208TIP3   OH2 9629   6.319   1.529   0.319 -0.1231 -0.5698 -0.1650
 3208TIP3    H1 9630   6.388   1.589   0.345 -0.0237  0.1748 -2.0115
 3208TIP3    H2 9631   6.363   1.464   0.264 -0.7168 -0.7430 -0.4397
 3209TIP3   OH2 9632   3.591   4.941   2.276  0.2682 -0.1139  0.0576
 3209TIP3    H1 9633   3.657   4.991   2.228  2.1714 -0.8030  1.7738
 3209TIP3    H2 9634   3.582   4.988   2.359  1.2676 -1.9272  1.2571
 3210TIP3   OH2 9635   1.758   0.907   1.081 -0.2944 -0.3256 -0.0234
 3210TIP3    H1 9636   1.815   0.980   1.056 -1.6895  0.4005 -1.2117
 3210TIP3    H2 9637   1.766   0.903   1.177 -1.8427  2.8830  0.3715
 3211TIP3   OH2 9638   2.096   4.481   4.240 -0.1329  0.9702  0.1255
 3211TIP3    H1 9639   2.071   4.536   4.167 -1.4301 -0.2263 -0.3725
 3211TIP3    H2 9640   2.189   4.499   4.253  0.6727 -0.1484 -3.0932
 3212TIP3   OH2 9641   1.634   1.836   4.599  0.5647 -0.0910  0.0549
 3212TIP3    H1 9642   1.569   1.848   4.530  0.5443 -0.4091  0.0175
 3212TIP3    H2 9643   1.695   1.909   4.587 -0.4936  0.9563  0.9019
 3213TIP3   OH2 9644   3.476   0.987   2.913 -0.4888  0.0915 -0.6130
 3213TIP3    H1 9645   3.565   0.957   2.894 -0.3329  1.0371 -1.5130
 3213TIP3    H2 9646   3.422   0.948   2.844 -1.0760 -1.7729  0.8380
 3214TIP3   OH2 9647   4.219   3.756   2.360 -0.0537  0.9430 -0.4058
 3214TIP3    H1 9648   4.223   3.793   2.448  0.5384  0.3137 -0.1620
 3214TIP3    H2 9649   4.292   3.796   2.313 -2.1857  3.7644 -1.6345
 3215TIP3   OH2 9650   5.021   1.500   3.735 -0.5595 -0.3182  0.1390
 3215TIP3    H1 9651   4.968   1.565   3.687  1.3796  0.8961 -0.5058
 3215TIP3    H2 9652   4.957   1.450   3.785 -2.3266  0.9587 -0.6861
 3216TIP3   OH2 9653   1.193   3.343   3.233  0.2353  0.0256 -0.3632
 3216TIP3    H1 9654   1.144   3.262   3.247  1.0753 -0.9536 -2.5778
 3216TIP3    H2 9655   1.283   3.321   3.257  0.6987 -0.1251 -2.1158
 3217TIP3   OH2 9656   5.839   0.876   2.449  0.0106 -0.2878 -0.3008
 3217TIP3    H1 9657   5.925   0.910   2.428  0.0257 -1.1807 -1.8195
 3217TIP3    H2 9658   5.782   0.953   2.452  0.4191  0.0908 -1.6467
 3218TIP3   OH2 9659   5.780   4.047   2.282  0.5257 -0.4362  0.0925
 3218TIP3    H1 9660   5.872   4.044   2.310  0.6667 -0.5605 -0.3705
 3218TIP3    H2 9661   5.732   4.002   2.352  0.5241  1.4883  1.4255
 3219TIP3   OH2 9662   4.005   3.815   5.180 -0.2495 -0.5568  0.1481
 3219TIP3    H1 9663   3.972   3.902   5.203  0.1131 -0.9025  2.1614
 3219TIP3    H2 9664   4.080   3.832   5.122  0.4684  0.5475  1.3479
 3220TIP3   OH2 9665   1.329   5.603   2.840 -0.0855 -0.2802 -0.5793
 3220TIP3    H1 9666   1.374   5.581   2.921  0.4957 -0.6936 -1.0134
 3220TIP3    H2 9667   1.320   5.520   2.794  0.8417  0.1594 -1.5782
 3221TIP3   OH2 9668   6.017   4.523   3.674  0.1799 -0.7667 -0.4094
 3221TIP3    H1 9669   6.111   4.527   3.656  0.1266 -0.6432 -0.6546
 3221TIP3    H2 9670   5.998   4.430   3.682  0.6555 -0.7453  1.3646
 3222TIP3   OH2 9671   3.269   5.711   3.411  0.1238  0.2895  0.5262
 3222TIP3    H1 9672   3.325   5.675   3.480  0.0074  0.2462  0.5991
 3222TIP3    H2 9673   3.181   5.678   3.432  0.3128 -0.9706 -0.4634
 3223TIP3   OH2 9674   0.044   2.778   5.138  0.8866 -0.0942  0.1015
 3223TIP3    H1 9675   0.122   2.722   5.139 -0.2690 -1.8615 -1.3473
 3223TIP3    H2 9676   0.003   2.761   5.053 -1.9604 -0.5457  1.4412
 3224TIP3   OH2 9677   6.305   5.622   3.175 -0.7553 -0.3992 -0.0968
 3224TIP3    H1 9678   6.227   5.649   3.127 -1.5452 -1.2321  0.6949
 3224TIP3    H2 9679   6.376   5.628   3.110 -1.1767  1.8251 -0.4298
 3225TIP3   OH2 9680   4.852   3.559   0.583 -0.3004  0.2029 -0.1324
 3225TIP3    H1 9681   4.845   3.474   0.539  0.3011  1.3217 -2.5943
 3225TIP3    H2 9682   4.768   3.602   0.564 -0.0852  0.6506 -0.0804
 3226TIP3   OH2 9683   0.354   5.518   3.252  0.3665 -0.3129  0.5707
 3226TIP3    H1 9684   0.398   5.598   3.281 -0.3887  0.1148  0.5825
 3226TIP3    H2 9685   0.420   5.450   3.258  1.0199  0.3106  0.5837
 3227TIP3   OH2 9686   6.337   1.310   2.557 -0.3798 -0.2701 -0.5991
 3227TIP3    H1 9687   6.248   1.320   2.590 -0.6299  0.8715 -1.5534
 3227TIP3    H2 9688   6.375   1.398   2.565 -0.1221 -0.1885 -2.3535
 3228TIP3   OH2 9689   3.482   1.625   2.421  0.1351 -0.3121 -0.5183
 3228TIP3    H1 9690   3.438   1.701   2.459  0.4929 -0.4923  0.2654
 3228TIP3    H2 9691   3.574   1.648   2.418  0.1611 -0.4439 -0.9548
 3229TIP3   OH2 9692   5.692   0.074   1.064  0.0263 -0.1096  0.4685
 3229TIP3    H1 9693   5.725   0.006   1.005  0.8106  0.9912 -0.4000
 3229TIP3    H2 9694   5.620   0.114   1.016 -2.4657 -2.1887  2.1641
 3230TIP3   OH2 9695   1.994   0.425   4.421  0.0796  0.2291 -0.3965
 3230TIP3    H1 9696   1.937   0.493   4.386 -1.8405 -1.2765 -0.3749
 3230TIP3    H2 9697   2.041   0.391   4.345 -0.7146  0.0132 -0.8057
 3231TIP3   OH2 9698   4.554   3.785   3.788 -0.0793  0.5357 -0.0227
 3231TIP3    H1 9699   4.513   3.755   3.869  1.3145 -0.6640  0.2932
 3231TIP3    H2 9700   4.623   3.720   3.770 -1.2851 -0.1210 -2.9955
 3232TIP3   OH2 9701   0.792   2.834   2.835 -0.1887 -0.4136 -0.4229
 3232TIP3    H1 9702   0.835   2.792   2.908 -0.6337 -0.5143 -0.2132
 3232TIP3    H2 9703   0.863   2.862   2.777  0.1653 -0.2935  0.0671
 3233TIP3   OH2 9704   1.019   5.929   1.221 -0.2697  0.0715 -0.0513
 3233TIP3    H1 9705   0.941   5.954   1.270  0.0112  0.4684  0.2047
 3233TIP3    H2 9706   1.083   5.997   1.242  1.4635 -2.2025  2.8479
 3234TIP3   OH2 9707   3.753   0.049   3.785 -0.0022 -0.3124 -0.5695
 3234TIP3    H1 9708   3.841   0.045   3.823  0.4588 -1.4580 -1.6972
 3234TIP3    H2 9709   3.697   0.006   3.850  0.4908 -0.7618 -0.4365
 3235TIP3   OH2 9710   4.938   5.679   1.572 -0.1251  0.3244 -0.0111
 3235TIP3    H1 9711   4.986   5.698   1.491 -1.4759  1.6274 -0.5458
 3235TIP3    H2 9712   4.900   5.593   1.558  0.4803  0.1001 -0.3372
 3236TIP3   OH2 9713   4.970   3.195   2.458 -0.2318  0.4392 -0.2279
 3236TIP3    H1 9714   4.983   3.260   2.388  2.6249  0.5172  0.2826
 3236TIP3    H2 9715   4.879   3.209   2.485 -1.2414  0.9197 -3.3706
 3237TIP3   OH2 9716   0.850   2.295   0.409 -0.0873 -0.1006  0.0597
 3237TIP3    H1 9717   0.797   2.307   0.331 -2.3179 -0.8640  1.3595
 3237TIP3    H2 9718   0.923   2.355   0.398 -1.4522  1.3522 -1.6616
 3238TIP3   OH2 9719   1.628   2.257   2.127 -0.3274 -0.0946  0.7763
 3238TIP3    H1 9720   1.595   2.262   2.217 -0.7867 -1.0930  0.6855
 3238TIP3    H2 9721   1.660   2.167   2.119  0.5563  0.2641  0.2207
 3239TIP3   OH2 9722   1.505   5.386   3.777  0.4605  0.2960 -0.2417
 3239TIP3    H1 9723   1.551   5.307   3.748  0.2097  0.8652 -2.3481
 3239TIP3    H2 9724   1.560   5.421   3.847  0.2349 -2.0743  1.2098
 3240TIP3   OH2 9725   2.312   0.682   4.336  0.4713 -0.1912  0.5108
 3240TIP3    H1 9726   2.285   0.747   4.400 -0.3507 -0.4874  0.4755
 3240TIP3    H2 9727   2.245   0.686   4.267 -0.3098 -1.9348  1.1015
 3241TIP3   OH2 9728   3.040   2.866   3.887  0.0203  0.4758 -0.7146
 3241TIP3    H1 9729   3.086   2.825   3.813 -0.0581 -2.3261  0.6304
 3241TIP3    H2 9730   2.972   2.802   3.910  1.3697  0.1895  3.0271
 3242TIP3   OH2 9731   1.126   4.720   1.581 -0.2009  0.0153  0.1187
 3242TIP3    H1 9732   1.086   4.776   1.515  1.5869  0.3559 -0.7435
 3242TIP3    H2 9733   1.126   4.633   1.542  0.6934  0.1853 -0.3053
 3243TIP3   OH2 9734   2.211   2.738   2.209 -0.5725 -0.0357 -0.3852
 3243TIP3    H1 9735   2.214   2.699   2.121  2.3220 -1.4505  0.2159
 3243TIP3    H2 9736   2.209   2.832   2.193 -2.5731 -0.2869 -1.9178
 3244TIP3   OH2 9737   2.347   0.142   4.702 -0.6551  0.4225 -0.2267
 3244TIP3    H1 9738   2.265   0.138   4.653  0.0831  1.4080 -1.6416
 3244TIP3    H2 9739   2.403   0.077   4.659 -0.3542  0.5266  0.0075
 3245TIP3   OH2 9740   6.023   5.435   4.228 -0.3272  0.1094  0.7635
 3245TIP3    H1 9741   6.096   5.496   4.214 -0.6922  0.6389  1.1371
 3245TIP3    H2 9742   6.020   5.384   4.147  0.3523  0.1904  0.6764
 3246TIP3   OH2 9743   6.265   0.893   1.434 -0.4230  0.6197 -0.1342
 3246TIP3    H1 9744   6.354   0.894   1.398  0.4320  0.5397  1.8417
 3246TIP3    H2 9745   6.227   0.977   1.408 -0.0389  0.3645 -1.5881
 3247TIP3   OH2 9746   4.084   5.288   4.748  0.0392 -0.2241  0.4720
 3247TIP3    H1 9747   4.136   5.305   4.827 -0.9641  2.6060  0.6420
 3247TIP3    H2 9748   4.030   5.212   4.770  0.8061 -0.3690  1.9708
 3248TIP3   OH2 9749   1.302   4.146   1.799 -0.0733 -0.2427  0.4036
 3248TIP3    H1 9750   1.370   4.128   1.864 -0.1066 -1.6545  0.0861
 3248TIP3    H2 9751   1.349   4.182   1.724  0.2289 -0.4392  0.4943
 3249TIP3   OH2 9752   1.178   3.880   2.516  0.0600 -0.0457 -0.1331
 3249TIP3    H1 9753   1.267   3.867   2.548 -1.0760 -1.4415  2.7502
 3249TIP3    H2 9754   1.168   3.975   2.511  1.7122  0.1364 -0.6724
 3250TIP3   OH2 9755   2.706   4.275   0.760  0.3400 -0.2163 -0.2615
 3250TIP3    H1 9756   2.707   4.351   0.818  0.1671  0.3631 -0.9984
 3250TIP3    H2 9757   2.744   4.204   0.812  0.5697  0.3916  0.4111
 3251TIP3   OH2 9758   1.443   2.539   2.396  0.6287  0.1431  0.1027
 3251TIP3    H1 9759   1.367   2.547   2.454  0.5622 -1.9483  0.3815
 3251TIP3    H2 9760   1.516   2.576   2.446  0.0447  0.9382  0.3726
 3252TIP3   OH2 9761   1.909   0.450   2.173 -0.4929 -0.1523  0.0646
 3252TIP3    H1 9762   1.891   0.361   2.203 -2.2145 -0.2218 -1.0505
 3252TIP3    H2 9763   1.955   0.491   2.246 -0.0122 -1.8302  0.7426
 3253TIP3   OH2 9764   2.798   0.070   4.189  0.5058 -0.1134  0.1154
 3253TIP3    H1 9765   2.774   0.160   4.210  0.4859  0.3128 -1.5854
 3253TIP3    H2 9766   2.732   0.042   4.126  0.2960 -1.4650  0.9006
 3254TIP3   OH2 9767   1.445   3.263   0.205 -0.0301 -0.1422  0.4384
 3254TIP3    H1 9768   1.476   3.326   0.140  0.0764 -0.4849  0.1529
 3254TIP3    H2 9769   1.508   3.271   0.277 -0.9676  1.2821  1.1502
 3255TIP3   OH2 9770   0.871   3.445   2.718 -0.4345  0.1646  0.2745
 3255TIP3    H1 9771   0.937   3.480   2.658 -1.8028  0.2840 -1.2419
 3255TIP3    H2 9772   0.854   3.516   2.779  1.5103 -0.2034  1.3352
 3256TIP3   OH2 9773   3.767   3.861   0.761  0.5921  0.3028 -0.2564
 3256TIP3    H1 9774   3.848   3.812   0.770 -0.1808 -0.9297  0.1932
 3256TIP3    H2 9775   3.768   3.891   0.670 -0.1364 -2.8623 -1.4384
 3257TIP3   OH2 9776   1.644   4.382   1.344  0.0941  0.1077 -0.1305
 3257TIP3    H1 9777   1.634   4.289   1.365 -0.3781 -0.0966 -1.2144
 3257TIP3    H2 9778   1.739   4.396   1.339  0.1687 -0.7701 -1.8284
 3258TIP3   OH2 9779   0.444   2.217   4.105  0.2419  0.1192  0.0241
 3258TIP3    H1 9780   0.446   2.231   4.010  0.1741  1.6148  0.2081
 3258TIP3    H2 9781   0.367   2.163   4.120  2.2094 -3.3216 -1.0689
 3259TIP3   OH2 9782   1.906   3.746   0.593  0.5380  0.4167  0.5669
 3259TIP3    H1 9783   1.862   3.830   0.601  2.0743  1.2317  0.7948
 3259TIP3    H2 9784   1.861   3.689   0.656 -0.6125  0.9947  0.2979
 3260TIP3   OH2 9785   3.565   4.625   1.004  0.0279 -0.5202  0.4257
 3260TIP3    H1 9786   3.596   4.687   0.938  0.5117 -0.5003  0.6720
 3260TIP3    H2 9787   3.491   4.670   1.046 -1.6061 -1.3230 -1.4467
 3261TIP3   OH2 9788   3.433   2.467   0.596 -0.2436  0.6103  0.3148
 3261TIP3    H1 9789   3.454   2.550   0.639 -0.3883  0.5135  0.5711
 3261TIP3    H2 9790   3.440   2.402   0.665 -0.2583  0.4236  0.1413
 3262TIP3   OH2 9791   1.507   5.897   4.108  0.0120  0.0499 -0.3550
 3262TIP3    H1 9792   1.468   5.961   4.049 -0.2876 -0.6303 -0.9147
 3262TIP3    H2 9793   1.523   5.945   4.189 -1.2534  0.5509 -0.3815
 3263TIP3   OH2 9794   2.867   2.315   2.424  0.3798 -0.0620 -0.0635
 3263TIP3    H1 9795   2.937   2.249   2.430  0.8736  0.1683 -2.4604
 3263TIP3    H2 9796   2.786   2.264   2.426  0.7183 -0.6390 -0.5009
 3264TIP3   OH2 9797   2.282   4.808   1.888  0.0715  0.0930  0.1472
 3264TIP3    H1 9798   2.287   4.750   1.963  1.3187 -1.0189 -0.7639
 3264TIP3    H2 9799   2.270   4.750   1.812 -0.8813  1.1632 -0.5574
 3265TIP3   OH2 9800   2.469   4.874   3.644 -0.1003 -0.0732 -0.2015
 3265TIP3    H1 9801   2.454   4.790   3.688  0.9173  1.0893  2.6712
 3265TIP3    H2 9802   2.542   4.858   3.585  0.0815 -1.2224  0.3164
 3266TIP3   OH2 9803   4.611   4.498   3.907 -0.0182 -0.0439 -0.6659
 3266TIP3    H1 9804   4.610   4.477   4.000  1.0283  1.0688 -0.3889
 3266TIP3    H2 9805   4.703   4.496   3.882  0.0308  2.6495 -0.9466
 3267TIP3   OH2 9806   3.338   0.828   5.102  0.0211  0.0697  0.0511
 3267TIP3    H1 9807   3.298   0.741   5.107  0.2927 -0.2206 -1.9128
 3267TIP3    H2 9808   3.427   0.812   5.071 -0.3334  1.0945 -1.6407
 3268TIP3   OH2 9809   0.762   0.167   4.167  0.5223  0.0314  0.2246
 3268TIP3    H1 9810   0.854   0.192   4.167  1.0464 -1.6404  1.8525
 3268TIP3    H2 9811   0.730   0.194   4.254  0.7305 -3.3103  1.4597
 3269TIP3   OH2 9812   4.598   1.747   4.132  0.0851  0.1710 -0.1276
 3269TIP3    H1 9813   4.621   1.822   4.187  0.4402 -1.4363  2.0549
 3269TIP3    H2 9814   4.512   1.769   4.095 -0.0305  1.4419  0.8394
 3270TIP3   OH2 9815   5.591   5.482   3.741  0.2585 -0.0073 -0.1795
 3270TIP3    H1 9816   5.604   5.574   3.767 -2.3085  0.3450  0.0979
 3270TIP3    H2 9817   5.555   5.440   3.819 -1.8194 -0.3879 -1.2748
 3271TIP3   OH2 9818   6.255   3.313   4.822  0.1681  0.2725  0.0744
 3271TIP3    H1 9819   6.248   3.314   4.918 -2.0990 -0.6844 -0.0182
 3271TIP3    H2 9820   6.166   3.297   4.792  0.5545  1.9980 -2.2670
 3272TIP3   OH2 9821   2.900   3.825   4.186  0.3385 -0.1541 -0.2873
 3272TIP3    H1 9822   2.877   3.773   4.263 -0.2269  0.4955  0.0002
 3272TIP3    H2 9823   2.896   3.764   4.113 -2.3272 -0.1280 -0.2696
 3273TIP3   OH2 9824   0.050   2.037   4.862 -0.0772 -0.0929  1.0480
 3273TIP3    H1 9825   0.081   1.963   4.915  0.2606 -0.5831  0.1849
 3273TIP3    H2 9826  -0.026   2.002   4.815  0.4045 -0.0624  0.2327
 3274TIP3   OH2 9827   0.952   1.255   2.591 -0.6927 -0.1458 -1.2306
 3274TIP3    H1 9828   0.865   1.230   2.623 -0.1328 -2.0886 -1.0851
 3274TIP3    H2 9829   1.010   1.242   2.666 -0.0407 -0.3742 -1.7649
 3275TIP3   OH2 9830   1.252   2.885   2.821 -0.3325 -0.6990  0.1453
 3275TIP3    H1 9831   1.214   2.931   2.895  2.2433  0.9651  0.5925
 3275TIP3    H2 9832   1.230   2.939   2.745  0.3054 -0.2348  0.2798
 3276TIP3   OH2 9833   5.974   1.494   4.958 -0.1972 -0.0649 -0.2499
 3276TIP3    H1 9834   6.001   1.523   5.045  1.5841 -0.8340 -0.5094
 3276TIP3    H2 9835   6.001   1.564   4.899 -0.7108  0.1138 -0.2755
 3277TIP3   OH2 9836   3.110   2.808   1.119  0.5143 -0.2919  0.6379
 3277TIP3    H1 9837   3.163   2.877   1.159 -0.3545  1.3087 -0.8123
 3277TIP3    H2 9838   3.168   2.733   1.112  2.2684  1.0523  0.0891
 3278TIP3   OH2 9839   0.886   3.918   2.153  0.0145 -0.1870  0.3326
 3278TIP3    H1 9840   0.834   3.958   2.084 -0.9557 -1.3480  0.3575
 3278TIP3    H2 9841   0.913   3.833   2.117  0.5087 -0.2953  0.9372
 3279TIP3   OH2 9842   1.037   5.892   3.592 -0.4290 -0.0447  0.5023
 3279TIP3    H1 9843   1.019   5.973   3.641 -0.6145  0.7481 -0.8366
 3279TIP3    H2 9844   1.123   5.864   3.624 -0.5072  0.4883  1.2291
 3280TIP3   OH2 9845   4.021   3.215   2.558 -0.2505 -0.9560 -0.3302
 3280TIP3    H1 9846   3.938   3.225   2.604 -0.0289  1.6306 -0.3008
 3280TIP3    H2 9847   4.004   3.249   2.470  0.7708 -0.2075 -0.2690
 3281TIP3   OH2 9848   4.242   2.045   0.390 -0.0366 -0.2906  0.0480
 3281TIP3    H1 9849   4.249   2.127   0.342  0.7816  0.6586  1.7042
 3281TIP3    H2 9850   4.311   1.990   0.353  0.2469  0.2293 -0.2033
 3282TIP3   OH2 9851   2.044   3.636   2.386 -0.2846 -0.0520  0.2360
 3282TIP3    H1 9852   2.069   3.552   2.425 -0.0084  0.4737  1.2421
 3282TIP3    H2 9853   2.013   3.688   2.460  0.0717  0.9199 -0.2740
 3283TIP3   OH2 9854   1.995   1.301   4.501  0.4135  0.2791  0.3330
 3283TIP3    H1 9855   1.934   1.353   4.553  1.1374  1.6064 -0.0838
 3283TIP3    H2 9856   2.081   1.324   4.536  0.7569 -0.5795  0.0696
 3284TIP3   OH2 9857   5.829   4.073   2.976  0.2010  0.0514 -0.4676
 3284TIP3    H1 9858   5.799   4.142   3.034  0.9822 -0.3043  0.3922
 3284TIP3    H2 9859   5.896   4.026   3.027  1.0885 -0.1202 -1.7311
 3285TIP3   OH2 9860   0.901   0.726   4.907 -0.3967  0.1005  0.1228
 3285TIP3    H1 9861   0.919   0.820   4.896 -2.4695  0.5726  0.4500
 3285TIP3    H2 9862   0.842   0.722   4.982  1.8231 -1.7629  1.9453
 3286TIP3   OH2 9863   4.393   1.769   4.519 -0.1322  0.2810  0.2153
 3286TIP3    H1 9864   4.484   1.755   4.494 -0.7677 -0.2052 -1.9775
 3286TIP3    H2 9865   4.355   1.820   4.447 -1.5166  0.8218  1.2751
 3287TIP3   OH2 9866   4.605   1.247   1.753 -0.2056  0.0637  0.1159
 3287TIP3    H1 9867   4.593   1.241   1.659  0.8439 -0.9161  0.0170
 3287TIP3    H2 9868   4.684   1.196   1.770 -1.1638 -0.9771  1.6884
 3288TIP3   OH2 9869   5.952   3.172   0.152 -0.1788 -0.5162 -0.1371
 3288TIP3    H1 9870   5.880   3.172   0.216  0.6309 -2.1520  0.8578
 3288TIP3    H2 9871   5.944   3.088   0.108  0.8385 -0.5160 -0.3349
 3289TIP3   OH2 9872   0.321   4.985   4.428 -0.5690 -0.1840 -0.3965
 3289TIP3    H1 9873   0.236   4.978   4.383  0.0024 -0.2591 -1.5133
 3289TIP3    H2 9874   0.377   4.923   4.381  0.2870  0.3593 -0.1023
 3290TIP3   OH2 9875   1.531   3.351   3.021 -0.6871  0.2425  0.0410
 3290TIP3    H1 9876   1.626   3.354   3.015 -0.6502 -0.3071  0.2940
 3290TIP3    H2 9877   1.513   3.333   3.113 -0.9951 -1.0219 -0.2464
 3291TIP3   OH2 9878   5.940   1.475   3.199  0.1462  0.5486  0.3599
 3291TIP3    H1 9879   5.851   1.451   3.225 -0.4309  1.1048 -1.0119
 3291TIP3    H2 9880   5.930   1.518   3.114  1.7171  0.7471  0.2370
 3292TIP3   OH2 9881   3.673   4.823   3.168  0.0189  0.2320  0.1572
 3292TIP3    H1 9882   3.652   4.733   3.192 -0.9071  0.9636  2.4745
 3292TIP3    H2 9883   3.597   4.854   3.119 -0.4296  0.2196  0.8265
 3293TIP3   OH2 9884   1.053   5.445   3.464  0.6013  0.0675  0.3310
 3293TIP3    H1 9885   1.001   5.510   3.512 -0.8840 -1.2791  0.6297
 3293TIP3    H2 9886   1.127   5.427   3.521  1.3751  1.9031 -0.0188
 3294TIP3   OH2 9887   0.938   0.438   0.357  0.1045  0.2008  0.0370
 3294TIP3    H1 9888   0.900   0.351   0.349  2.2646 -0.8117 -0.0808
 3294TIP3    H2 9889   0.882   0.494   0.303 -0.1543 -1.5338 -1.6056
 3295TIP3   OH2 9890   6.171   5.632   1.201 -0.0434  0.6135  0.3729
 3295TIP3    H1 9891   6.168   5.655   1.294  2.1770  0.2954  0.5714
 3295TIP3    H2 9892   6.147   5.539   1.199  0.9294  0.3371  0.7839
 3296TIP3   OH2 9893   0.121   2.264   0.141 -0.1691 -0.1901  0.0590
 3296TIP3    H1 9894   0.110   2.253   0.047  1.3641  0.7759 -0.2635
 3296TIP3    H2 9895   0.168   2.186   0.170  0.8973  0.3077 -0.2955
 3297TIP3   OH2 9896   1.874   1.623   1.912  1.0811  0.4645 -0.4832
 3297TIP3    H1 9897   1.808   1.558   1.890  0.9336  0.8367 -1.1706
 3297TIP3    H2 9898   1.843   1.664   1.992  1.4274 -0.6523  0.2399
 3298TIP3   OH2 9899   6.340   2.677   4.903 -0.0613  0.3892 -0.0887
 3298TIP3    H1 9900   6.289   2.598   4.918 -0.1925  0.5429  0.2914
 3298TIP3    H2 9901   6.415   2.648   4.852  1.1939 -0.4702  2.0859
 3299TIP3   OH2 9902   1.100   0.554   2.827 -0.5297  0.0189 -0.0512
 3299TIP3    H1 9903   1.068   0.628   2.878  0.4977  0.5990 -0.2323
 3299TIP3    H2 9904   1.149   0.594   2.755 -1.9111 -0.7708 -1.4900
 3300TIP3   OH2 9905   4.094   1.510   0.484 -0.5637 -0.5581 -0.3551
 3300TIP3    H1 9906   4.008   1.516   0.526 -0.4185 -0.2457 -0.0925
 3300TIP3    H2 9907   4.155   1.496   0.557 -0.0801  1.8744 -0.2061
 3301TIP3   OH2 9908   0.594   5.495   3.009 -0.5023  0.0376 -0.0204
 3301TIP3    H1 9909   0.556   5.424   3.060 -1.8951  0.7746  0.0258
 3301TIP3    H2 9910   0.670   5.524   3.060 -2.0345  0.9609  1.8458
 3302TIP3   OH2 9911   3.010   2.041   0.386 -0.5181  0.3014  0.2424
 3302TIP3    H1 9912   3.088   2.091   0.409 -0.2594  0.6375 -1.2404
 3302TIP3    H2 9913   3.044   1.964   0.338 -1.0041 -0.4789  1.1200
 3303TIP3   OH2 9914   4.999   3.422   1.046  0.0470 -0.5022 -0.0821
 3303TIP3    H1 9915   4.969   3.355   1.109 -0.7766 -0.8121 -0.7906
 3303TIP3    H2 9916   5.067   3.470   1.094 -0.2388 -1.0261  0.8891
 3304TIP3   OH2 9917   1.495   0.671   0.694 -0.5888  0.1999  0.2495
 3304TIP3    H1 9918   1.533   0.637   0.775  0.7624  0.5328 -0.2130
 3304TIP3    H2 9919   1.471   0.593   0.644 -1.2322 -0.0073  0.8625
 3305TIP3   OH2 9920   5.895   3.367   1.881 -0.0166 -0.3571 -0.5451
 3305TIP3    H1 9921   5.912   3.461   1.880 -0.6896 -0.2070  0.4744
 3305TIP3    H2 9922   5.951   3.333   1.950 -0.8663 -0.4657  0.1064
 3306TIP3   OH2 9923   3.522   4.560   4.642 -0.1837 -0.2645 -0.4608
 3306TIP3    H1 9924   3.541   4.653   4.631 -0.6933 -0.1568 -0.4566
 3306TIP3    H2 9925   3.539   4.522   4.556 -0.5172 -0.0685 -0.6150
 3307TIP3   OH2 9926   4.663   1.085   2.253 -0.0130 -0.0261  0.2084
 3307TIP3    H1 9927   4.643   1.166   2.300 -0.2806 -0.4579  0.8534
 3307TIP3    H2 9928   4.744   1.053   2.293 -0.0934 -0.2547  0.1923
 3308TIP3   OH2 9929   0.314   5.512   4.312 -0.5954  0.1939  0.2296
 3308TIP3    H1 9930   0.364   5.589   4.284 -0.7466  0.4870  0.7430
 3308TIP3    H2 9931   0.231   5.518   4.264 -0.3091 -0.0713 -0.3129
 3309TIP3   OH2 9932   4.278   4.210   0.201 -0.3111  0.0018  0.3495
 3309TIP3    H1 9933   4.207   4.183   0.144 -2.3413  1.1693  2.1949
 3309TIP3    H2 9934   4.344   4.247   0.141 -1.3783 -0.7639 -1.3790
 3310TIP3   OH2 9935   4.855   5.147   0.024  0.8706 -0.0308  0.3508
 3310TIP3    H1 9936   4.778   5.090   0.020  1.8776 -1.5398  1.3679
 3310TIP3    H2 9937   4.848   5.192   0.108  0.6331  0.5484  0.0266
 3311TIP3   OH2 9938   3.632   1.765   1.814  0.2316  0.2095  0.1730
 3311TIP3    H1 9939   3.680   1.773   1.732 -0.3234  1.2483 -0.0790
 3311TIP3    H2 9940   3.658   1.681   1.850  0.4666 -0.2767 -1.0860
 3312TIP3   OH2 9941   3.889   1.962   1.128  0.6440  0.1076 -0.3519
 3312TIP3    H1 9942   3.883   1.915   1.045  0.5971  0.1590 -0.3773
 3312TIP3    H2 9943   3.979   1.995   1.131  0.3800  0.8831 -0.7968
 3313TIP3   OH2 9944   1.610   2.322   4.415 -0.1498  0.0153 -0.5827
 3313TIP3    H1 9945   1.579   2.309   4.325 -1.3619 -0.7496 -0.0787
 3313TIP3    H2 9946   1.537   2.364   4.460 -1.4294 -3.6146  1.1300
 3314TIP3   OH2 9947   2.362   4.847   4.114  0.2581  0.5476  0.5493
 3314TIP3    H1 9948   2.406   4.770   4.079 -0.5002  0.5215 -0.3939
 3314TIP3    H2 9949   2.430   4.895   4.161  0.7380 -0.6958  1.1604
 3315TIP3   OH2 9950   1.442   2.615   2.116 -0.7193 -0.0487 -0.2281
 3315TIP3    H1 9951   1.471   2.598   2.206 -0.4827  1.6320  0.0474
 3315TIP3    H2 9952   1.367   2.557   2.104 -0.7290 -0.3382  1.0551
 3316TIP3   OH2 9953   5.736   5.029   3.190  0.0128  0.0311 -0.1789
 3316TIP3    H1 9954   5.714   5.084   3.265  0.5335  2.5897 -1.7817
 3316TIP3    H2 9955   5.705   4.942   3.215  0.6227  0.6235  3.1730
 3317TIP3   OH2 9956   3.064   2.300   0.619 -0.3826 -0.0432 -0.1146
 3317TIP3    H1 9957   3.127   2.289   0.548  0.1844 -0.4990  0.4427
 3317TIP3    H2 9958   3.102   2.250   0.692 -0.6327  0.9320  0.7018
 3318TIP3   OH2 9959   3.487   1.079   0.669 -0.1139  0.0927 -0.2055
 3318TIP3    H1 9960   3.449   1.101   0.755  0.3202  0.4849 -0.1141
 3318TIP3    H2 9961   3.579   1.060   0.688  0.0503  0.4675 -0.6311
 3319TIP3   OH2 9962   4.815   4.258   2.089  0.1100  0.1506 -0.0487
 3319TIP3    H1 9963   4.787   4.316   2.018  1.0383 -1.1352 -1.5271
 3319TIP3    H2 9964   4.900   4.224   2.060  0.6283 -0.2264  1.8036
 3320TIP3   OH2 9965   2.876   2.070   0.986 -0.3526  0.0836  0.3222
 3320TIP3    H1 9966   2.945   2.120   1.030 -1.2412  1.8374 -0.1880
 3320TIP3    H2 9967   2.812   2.052   1.055 -0.4375  0.4408  0.3427
 3321TIP3   OH2 9968   0.276   2.815   1.824 -0.6384  0.3879 -0.2110
 3321TIP3    H1 9969   0.212   2.752   1.790 -1.9511  0.2961  2.1951
 3321TIP3    H2 9970   0.332   2.762   1.882  2.3891  0.2554 -2.9565
 3322TIP3   OH2 9971   2.133   1.917   0.364 -0.6632 -0.0083 -0.5023
 3322TIP3    H1 9972   2.134   1.946   0.272 -1.9479  0.1573 -0.4858
 3322TIP3    H2 9973   2.047   1.944   0.396 -0.0186  0.4441  0.9276
 3323TIP3   OH2 9974   2.046   5.914   3.126  0.2039 -1.1701  0.0737
 3323TIP3    H1 9975   1.967   5.931   3.075 -0.7828 -2.4821  1.1043
 3323TIP3    H2 9976   2.105   5.868   3.065  1.1225  1.6345 -1.3567
 3324TIP3   OH2 9977   6.287   2.137   2.051  0.0065 -0.1805  0.2634
 3324TIP3    H1 9978   6.361   2.198   2.053  0.4869 -0.7083 -0.9047
 3324TIP3    H2 9979   6.221   2.182   1.999 -0.4198  0.1748  1.0825
 3325TIP3   OH2 9980   1.248   2.718   3.550 -0.2343 -0.4612  0.3252
 3325TIP3    H1 9981   1.278   2.642   3.600 -1.5487 -0.7273  0.7478
 3325TIP3    H2 9982   1.174   2.686   3.499  1.1263 -0.2168 -1.9278
 3326TIP3   OH2 9983   3.456   3.749   5.104  0.0810  0.0057  0.0644
 3326TIP3    H1 9984   3.469   3.789   5.189  1.9894 -2.5820  1.1346
 3326TIP3    H2 9985   3.523   3.789   5.048  0.1210  0.3048  0.3223
 3327TIP3   OH2 9986   5.896   4.985   1.477 -0.1152 -0.4547 -0.0547
 3327TIP3    H1 9987   5.887   4.890   1.478 -0.1628 -0.4613  1.4212
 3327TIP3    H2 9988   5.989   5.000   1.461 -0.1082 -0.7509 -0.2904
 3328TIP3   OH2 9989   1.619   5.483   1.135 -0.2451 -0.1601  0.3907
 3328TIP3    H1 9990   1.587   5.490   1.225  1.2648  1.9328  0.8605
 3328TIP3    H2 9991   1.689   5.548   1.130 -0.0981 -0.4113 -2.2394
 3329TIP3   OH2 9992   1.292   3.027   1.122 -0.0470 -0.3750  0.2027
 3329TIP3    H1 9993   1.235   3.015   1.046  1.3108  1.2368 -1.1451
 3329TIP3    H2 9994   1.283   3.119   1.145  1.5932 -0.2075  0.2834
 3330TIP3   OH2 9995   2.517   1.004   0.099 -0.2622 -0.3594  0.2554
 3330TIP3    H1 9996   2.491   0.970   0.184 -0.3576 -1.4688 -0.2011
 3330TIP3    H2 9997   2.541   0.927   0.048 -1.3588  0.1668 -1.1216
 3331TIP3   OH2 9998   3.292   0.840   0.490  0.0052  0.3861 -0.6488
 3331TIP3    H1 9999   3.295   0.744   0.493 -1.1913  0.3584  0.7049
 3331TIP3    H210000   3.240   0.859   0.412 -0.7068 -0.1167 -0.3129
 3332TIP3   OH210001   2.896   5.838   1.475  0.0389 -0.4531 -0.2120
 3332TIP3    H110002   2.931   5.754   1.447 -0.7703 -1.4824  1.7098
 3332TIP3    H210003   2.804   5.836   1.452 -0.2401 -0.5885  0.8641
 3333TIP3   OH210004   4.849   3.203   4.367 -0.3251  0.4194  0.3742
 3333TIP3    H110005   4.814   3.219   4.280 -0.9321 -0.7491  0.3700
 3333TIP3    H210006   4.810   3.272   4.422 -0.6585  0.6210 -0.1126
 3334TIP3   OH210007   0.512   3.609   2.815 -0.0588  0.4501 -0.0429
 3334TIP3    H110008   0.468   3.578   2.736 -0.1520  0.4370  0.0132
 3334TIP3    H210009   0.594   3.560   2.819  0.2587  0.9322 -0.4893
 3335TIP3   OH210010   0.687   2.157   3.380 -0.6494 -0.4803 -0.1177
 3335TIP3    H110011   0.727   2.138   3.464 -3.3290 -1.3103  1.1009
 3335TIP3    H210012   0.750   2.126   3.315  0.9973 -0.8475  1.5854
 3336TIP3   OH210013   2.637   2.139   2.386 -0.1754  0.1995  0.4140
 3336TIP3    H110014   2.612   2.169   2.298  0.3841 -0.9722 -0.1717
 3336TIP3    H210015   2.620   2.045   2.384 -0.8761  0.2730  1.8320
 3337TIP3   OH210016   6.061   5.520   3.484  0.5443 -0.2614 -0.2636
 3337TIP3    H110017   6.112   5.447   3.449  0.5164  1.0308 -3.3770
 3337TIP3    H210018   5.993   5.479   3.537  1.0367 -2.4361 -1.2004
 3338TIP3   OH210019   0.903   0.025   1.862 -0.3584  0.7744 -0.6862
 3338TIP3    H110020   0.887   0.057   1.773 -1.5500  0.2290 -0.6878
 3338TIP3    H210021   0.873  -0.065   1.861  0.2444  0.5556  0.1013
 3339TIP3   OH210022   2.502   2.529   3.195  0.2589  0.1652  0.0931
 3339TIP3    H110023   2.435   2.474   3.235  2.4444 -1.0709  2.3603
 3339TIP3    H210024   2.545   2.471   3.131 -0.8772  1.0155 -1.5103
 3340TIP3   OH210025   3.865   5.121   4.795  0.5655  0.4651  0.3748
 3340TIP3    H110026   3.842   5.092   4.884 -0.4982  0.0884 -0.0074
 3340TIP3    H210027   3.788   5.100   4.743  1.6929 -0.6215 -0.9349
 3341TIP3   OH210028   3.057   4.477   1.050  0.0835  0.0571  0.0290
 3341TIP3    H110029   3.011   4.560   1.043  0.3777  0.1606 -0.7735
 3341TIP3    H210030   3.087   4.459   0.961  1.4063 -0.1232  0.4956
 3342TIP3   OH210031   6.306   2.309   0.741 -0.5703 -0.5490 -0.2818
 3342TIP3    H110032   6.372   2.364   0.783  0.7084 -2.3868  0.3020
 3342TIP3    H210033   6.357   2.253   0.681 -1.9662 -0.1841 -1.8780
 3343TIP3   OH210034   3.939   2.747   3.593 -1.0709  0.0722 -0.1232
 3343TIP3    H110035   3.974   2.833   3.617 -0.3203 -0.3378  0.2907
 3343TIP3    H210036   3.892   2.762   3.511 -0.2975  0.7311 -0.4562
 3344TIP3   OH210037   0.062   0.448   4.887  0.1646 -0.0360 -0.3343
 3344TIP3    H110038   0.044   0.532   4.929  1.7995  1.7128 -2.8240
 3344TIP3    H210039  -0.015   0.432   4.833 -0.1530 -0.1504  0.1480
 3345TIP3   OH210040   1.326   2.159   4.570  0.4335  0.3558  0.4832
 3345TIP3    H110041   1.370   2.106   4.636 -1.4334  0.2069  1.6981
 3345TIP3    H210042   1.337   2.110   4.488 -0.6670 -1.6465  1.4397
 3346TIP3   OH210043   3.303   5.811   2.323 -0.6010  0.5897 -0.3309
 3346TIP3    H110044   3.316   5.858   2.241  0.3583  0.3000 -0.3489
 3346TIP3    H210045   3.208   5.807   2.333 -0.8652 -1.6513 -2.7521
 3347TIP3   OH210046   1.406   3.035   3.525 -0.3355 -0.3996 -0.3981
 3347TIP3    H110047   1.321   3.001   3.555 -0.9054 -0.1958 -1.7168
 3347TIP3    H210048   1.470   2.977   3.565 -1.1330 -0.9014  0.1772
 3348TIP3   OH210049   4.582   3.659   2.240  0.1850 -0.3733 -0.4798
 3348TIP3    H110050   4.590   3.704   2.156 -2.4835  0.6215 -0.2908
 3348TIP3    H210051   4.585   3.729   2.306  1.1837 -1.0364  0.2142
 3349TIP3   OH210052   2.321   1.818   2.677 -0.1283 -0.1838  0.3509
 3349TIP3    H110053   2.333   1.801   2.583  0.5884  0.4895  0.3089
 3349TIP3    H210054   2.236   1.778   2.698 -0.6490  0.2890 -0.7498
 3350TIP3   OH210055   5.139   5.366   4.733  0.2644  0.1095 -0.1211
 3350TIP3    H110056   5.143   5.274   4.706  1.8035  0.0073  0.3337
 3350TIP3    H210057   5.230   5.389   4.750 -0.2439  1.3366  1.0869
 3351TIP3   OH210058   3.329   1.994   0.418 -0.5769 -0.2757  0.1501
 3351TIP3    H110059   3.375   1.931   0.473 -0.2322 -0.3024 -0.1613
 3351TIP3    H210060   3.381   1.998   0.338 -1.4815 -0.7976 -0.4845
 3352TIP3   OH210061   3.612   2.302   4.859 -0.1539 -1.0259  0.5516
 3352TIP3    H110062   3.663   2.341   4.930 -1.2765  0.3524  0.6305
 3352TIP3    H210063   3.600   2.211   4.886  1.3709 -1.1222  1.0084
 3353TIP3   OH210064   0.212   1.040   2.285  0.1947  0.0692 -0.0040
 3353TIP3    H110065   0.126   0.999   2.290 -1.1624  2.7477  0.3340
 3353TIP3    H210066   0.204   1.106   2.216  1.4879  1.3465  0.9948
 3354TIP3   OH210067   3.082   4.499   4.564 -0.0050 -0.3109  0.6434
 3354TIP3    H110068   3.101   4.484   4.471 -0.2029  1.5372  0.2634
 3354TIP3    H210069   3.034   4.422   4.592  1.7812 -1.8271 -0.2530
 3355TIP3   OH210070   0.513   3.700   1.023  0.3195  0.1389  0.1219
 3355TIP3    H110071   0.440   3.641   1.002 -0.4312  1.6136 -1.7164
 3355TIP3    H210072   0.517   3.760   0.948  3.2645  0.2920  0.3062
 3356TIP3   OH210073   2.745   2.889   4.107  0.6135  0.6902 -0.0242
 3356TIP3    H110074   2.802   2.830   4.056  1.8449  1.4816  0.4071
 3356TIP3    H210075   2.733   2.965   4.051  0.0195  0.5621 -0.0799
 3357TIP3   OH210076   3.741   0.854   2.743  0.3693 -0.2128 -0.4836
 3357TIP3    H110077   3.778   0.774   2.780  0.8961 -0.6521 -1.9015
 3357TIP3    H210078   3.815   0.915   2.738  0.0914  0.1881  0.0498
 3358TIP3   OH210079   4.273   5.588   4.930  0.0588  0.1012  0.6658
 3358TIP3    H110080   4.336   5.659   4.922  0.9427 -0.7811 -0.6405
 3358TIP3    H210081   4.242   5.572   4.841 -0.0015 -1.2467  0.8923
 3359TIP3   OH210082   5.030   1.798   3.481 -0.1799  0.3901 -0.3749
 3359TIP3    H110083   5.054   1.706   3.470  1.7284  1.0441 -2.2159
 3359TIP3    H210084   4.967   1.815   3.410  1.2142  1.0367 -1.4963
 3360TIP3   OH210085   1.810   3.816   4.144  0.0907  1.0314 -0.7188
 3360TIP3    H110086   1.754   3.748   4.106  0.0227  0.2714  0.6846
 3360TIP3    H210087   1.897   3.775   4.147  0.3132  1.4725 -1.0132
 3361TIP3   OH210088   1.465   5.350   2.824 -0.2517 -0.2373  0.7618
 3361TIP3    H110089   1.451   5.339   2.918  0.0547 -0.9151  0.7363
 3361TIP3    H210090   1.516   5.431   2.816  1.5288 -1.2519  1.3469
 3362TIP3   OH210091   5.848   2.872   3.827  0.4396 -0.2535  0.2190
 3362TIP3    H110092   5.764   2.907   3.796 -0.0437 -0.9755  0.6711
 3362TIP3    H210093   5.914   2.921   3.778 -0.2385  0.4946  0.0270
 3363TIP3   OH210094   3.788   0.846   3.072  0.1595 -0.5001  0.4194
 3363TIP3    H110095   3.794   0.915   3.138 -1.0246 -0.2199  0.2654
 3363TIP3    H210096   3.754   0.770   3.120  0.7916 -0.7757  0.4425
 3364TIP3   OH210097   1.861   3.362   4.519  0.2277  0.2799  0.1526
 3364TIP3    H110098   1.831   3.280   4.480 -0.4938  0.1575  0.9358
 3364TIP3    H210099   1.925   3.396   4.457  0.4065 -0.7821 -0.2756
 3365TIP3   OH210100   5.539   0.252   4.371  0.6667 -0.3303 -0.2413
 3365TIP3    H110101   5.549   0.342   4.340  1.0443 -0.1907  0.2692
 3365TIP3    H210102   5.583   0.251   4.457 -1.7588 -0.2741  1.0917
 3366TIP3   OH210103   3.495   3.782   0.785 -0.2904 -0.6776  0.3012
 3366TIP3    H110104   3.580   3.824   0.798  0.2570 -1.9772  1.0663
 3366TIP3    H210105   3.476   3.741   0.869 -1.9170 -0.0114  0.2964
 3367TIP3   OH210106   2.112   2.034   3.837  0.1121  0.3953  0.0155
 3367TIP3    H110107   2.057   2.090   3.891 -0.3774 -0.0313 -0.0284
 3367TIP3    H210108   2.085   2.054   3.747 -0.4800 -0.3254  0.0256
 3368TIP3   OH210109   6.237   1.184   4.948 -0.1202  0.8685 -0.3639
 3368TIP3    H110110   6.322   1.149   4.924 -0.5664 -0.5815  0.0139
 3368TIP3    H210111   6.249   1.218   5.036 -0.3024 -0.9588  0.4227
 3369TIP3   OH210112   4.278   4.017   3.694  0.2099 -1.0204  0.1286
 3369TIP3    H110113   4.312   4.106   3.684  0.2446 -1.2245 -2.0127
 3369TIP3    H210114   4.348   3.960   3.662 -0.5700 -1.6951 -0.4086
 3370TIP3   OH210115   3.527   0.757   0.745  0.4829  0.0240 -0.0096
 3370TIP3    H110116   3.446   0.782   0.700 -0.0384 -1.5419  0.0233
 3370TIP3    H210117   3.504   0.754   0.838  1.0753  1.3769  0.2097
 3371TIP3   OH210118   5.879   6.010   3.372 -0.5975 -0.3893  0.2873
 3371TIP3    H110119   5.845   5.924   3.348 -1.0045  0.5805 -3.2743
 3371TIP3    H210120   5.974   6.000   3.374 -0.6221 -0.8768 -0.5321
 3372TIP3   OH210121   3.460   4.421   3.414  0.3090 -0.3607 -0.3697
 3372TIP3    H110122   3.442   4.514   3.404 -0.2521 -0.0385  2.5506
 3372TIP3    H210123   3.379   4.384   3.449  1.3603 -1.3486  1.1725
 3373TIP3   OH210124   3.156   0.856   0.758  0.2567 -1.1675 -0.1139
 3373TIP3    H110125   3.066   0.875   0.730 -0.0474 -0.2773  1.3903
 3373TIP3    H210126   3.203   0.842   0.676 -0.8800  0.0268 -1.0259
 3374TIP3   OH210127   6.243   3.698   1.821  0.1073 -0.8906 -0.5385
 3374TIP3    H110128   6.265   3.789   1.843 -0.8749 -0.9101  0.5995
 3374TIP3    H210129   6.309   3.646   1.867 -0.6862 -0.8350  0.7009
 3375TIP3   OH210130   2.448   1.115   3.868  0.3599 -0.3173 -0.0521
 3375TIP3    H110131   2.366   1.124   3.917  0.3807  0.8318 -0.2170
 3375TIP3    H210132   2.433   1.162   3.786  1.7387  1.4083  0.6124
 3376TIP3   OH210133   0.546   0.560   1.550 -0.4122 -0.0504 -0.1963
 3376TIP3    H110134   0.627   0.516   1.528 -0.1867  0.4131 -0.3115
 3376TIP3    H210135   0.496   0.561   1.469  1.1168  3.1625 -1.2794
 3377TIP3   OH210136   3.218   1.666   2.222  0.4023 -0.2114 -0.1844
 3377TIP3    H110137   3.269   1.740   2.189  0.4114  0.1217  0.5603
 3377TIP3    H210138   3.271   1.589   2.200  2.0068  0.2105  1.8917
 3378TIP3   OH210139   1.559   3.971   4.561  0.3259  0.1191 -0.3590
 3378TIP3    H110140   1.552   4.066   4.561  0.0370  0.0989 -0.0996
 3378TIP3    H210141   1.470   3.940   4.578  0.7195 -0.1778  1.2955
 3379TIP3   OH210142   6.322   0.330   1.417  0.6575 -0.3615 -0.0384
 3379TIP3    H110143   6.403   0.324   1.366  1.0455  1.2809  0.3241
 3379TIP3    H210144   6.340   0.399   1.481 -1.1067  0.1699 -0.0851
 3380TIP3   OH210145   5.758   0.522   0.403 -0.0059 -0.5534 -0.6604
 3380TIP3    H110146   5.679   0.574   0.386  0.5207 -0.1011 -1.7959
 3380TIP3    H210147   5.796   0.507   0.317  1.8496  0.3538 -0.0528
 3381TIP3   OH210148   4.962   1.472   3.230  0.5850 -0.3439 -0.0652
 3381TIP3    H110149   5.042   1.472   3.284  1.1614 -0.9587 -0.8928
 3381TIP3    H210150   4.901   1.418   3.279  0.6147  0.2440  0.6461
 3382TIP3   OH210151   5.284   3.135   2.560  0.3311  0.2266  0.1809
 3382TIP3    H110152   5.192   3.140   2.534  0.6518  2.2121 -0.8251
 3382TIP3    H210153   5.328   3.093   2.486  0.3951  0.4235  0.1048
 3383TIP3   OH210154   3.358   3.154   4.303  0.3846 -0.4987 -0.5417
 3383TIP3    H110155   3.278   3.133   4.255  0.3825 -2.3727  0.2050
 3383TIP3    H210156   3.338   3.133   4.394  1.4526 -0.1720 -0.2149
 3384TIP3   OH210157   0.818   2.257   1.906  0.0143 -0.3837 -0.2318
 3384TIP3    H110158   0.751   2.263   1.838 -0.8383 -1.3449  0.4751
 3384TIP3    H210159   0.785   2.189   1.965  2.0411 -1.4945 -0.3012
 3385TIP3   OH210160   3.958   1.139   0.557  0.4975 -0.0335  0.4697
 3385TIP3    H110161   4.024   1.119   0.491  0.7472  0.3434  0.6040
 3385TIP3    H210162   4.009   1.158   0.636  0.3467  2.3921  0.0455
 3386TIP3   OH210163   3.337   1.876   0.678  0.5445 -0.0871 -1.0561
 3386TIP3    H110164   3.429   1.863   0.654  0.7582  1.0479 -0.9151
 3386TIP3    H210165   3.325   1.824   0.758  1.1928  0.1113 -0.8231
 3387TIP3   OH210166   5.071   2.144   4.051 -0.2434  0.4137 -0.3862
 3387TIP3    H110167   5.033   2.168   3.966 -0.0010 -2.5799 -1.4814
 3387TIP3    H210168   5.166   2.147   4.037 -0.1957  0.3242 -0.0984
 3388TIP3   OH210169   5.693   5.919   0.566 -0.5260  0.4145  0.1735
 3388TIP3    H110170   5.601   5.905   0.542 -0.4663  1.4064 -0.7179
 3388TIP3    H210171   5.689   5.974   0.644 -0.6884 -0.3727  0.7332
 3389TIP3   OH210172   2.173   4.142   0.991 -0.2261 -0.1989  0.1341
 3389TIP3    H110173   2.259   4.102   0.976 -1.4967 -3.0841 -0.0239
 3389TIP3    H210174   2.134   4.090   1.061 -1.9231  0.9753  0.1253
 3390TIP3   OH210175   2.126   0.355   1.611  0.3425  0.2526 -0.0518
 3390TIP3    H110176   2.050   0.410   1.593 -0.3265 -0.6826 -0.1839
 3390TIP3    H210177   2.169   0.396   1.687 -0.0904  0.9850 -0.1980
 3391TIP3   OH210178   3.599   5.229   0.649  0.1018  0.3758 -0.2015
 3391TIP3    H110179   3.642   5.246   0.565  0.9291  2.5051  0.5906
 3391TIP3    H210180   3.612   5.135   0.663  0.8898  0.1780 -1.9440
 3392TIP3   OH210181   5.307   1.619   0.873  0.3170  0.5761 -0.0721
 3392TIP3    H110182   5.351   1.686   0.821 -0.5969 -0.1298 -1.8279
 3392TIP3    H210183   5.233   1.665   0.914 -0.2592  0.6966 -1.2007
 3393TIP3   OH210184   1.964   2.162   1.017 -0.0032 -0.1677  0.3120
 3393TIP3    H110185   2.040   2.192   1.066  0.9841 -0.8804 -0.7203
 3393TIP3    H210186   1.978   2.194   0.928 -1.4703  0.6192  0.3415
 3394TIP3   OH210187   4.086   5.790   3.186  0.5244  0.5296  0.1018
 3394TIP3    H110188   4.121   5.764   3.100  0.0575 -0.0234  0.0750
 3394TIP3    H210189   4.163   5.817   3.236  1.1505 -1.5279  0.3558
 3395TIP3   OH210190   2.905   2.968   0.658 -0.0255 -0.0524 -0.1114
 3395TIP3    H110191   2.972   2.900   0.651  0.1704  0.0271  0.8840
 3395TIP3    H210192   2.841   2.933   0.720 -0.5267  0.1867 -0.4858
 3396TIP3   OH210193   1.266   3.274   1.302 -0.0882 -0.5558 -0.4650
 3396TIP3    H110194   1.321   3.311   1.371 -0.8703 -1.2028  0.5294
 3396TIP3    H210195   1.224   3.351   1.262  2.8725  0.1663 -2.5330
 3397TIP3   OH210196   1.534   0.541   1.291 -0.8004  0.3379 -0.4095
 3397TIP3    H110197   1.589   0.479   1.339 -1.6523 -0.6738 -0.7037
 3397TIP3    H210198   1.562   0.627   1.321 -1.0839 -0.2533  1.6435
 3398TIP3   OH210199   1.078   2.479   2.372 -0.3820  0.7026  0.1486
 3398TIP3    H110200   1.150   2.512   2.318 -0.3620  1.0996  0.4173
 3398TIP3    H210201   1.030   2.421   2.313 -0.3084  1.0576 -0.2712
 3399TIP3   OH210202   2.858   4.594   2.043 -0.3722 -0.6969 -0.0382
 3399TIP3    H110203   2.788   4.658   2.029  2.1375  2.0375 -1.2745
 3399TIP3    H210204   2.867   4.589   2.138 -0.9871  0.4143  0.0980
 3400TIP3   OH210205   4.653   2.698   1.041 -0.4390 -0.1498  0.1343
 3400TIP3    H110206   4.559   2.681   1.037 -0.3566 -0.5888 -0.0154
 3400TIP3    H210207   4.692   2.611   1.054 -0.0493  0.0179  0.0931
 3401TIP3   OH210208   5.664   1.565   4.926 -0.2487  0.0318 -0.1454
 3401TIP3    H110209   5.701   1.495   4.979 -0.4207 -0.8108 -1.0917
 3401TIP3    H210210   5.578   1.532   4.899 -0.4957  0.7711 -0.2909
 3402TIP3   OH210211   2.882   3.717   1.666  0.0750 -0.0710 -0.0176
 3402TIP3    H110212   2.804   3.734   1.718 -0.4145 -1.5302 -0.2405
 3402TIP3    H210213   2.954   3.714   1.729 -0.1649  0.4286  0.2851
 3403TIP3   OH210214   4.032   1.090   0.076  0.4174 -0.2704 -0.7810
 3403TIP3    H110215   3.947   1.052   0.053 -0.1600  1.0991 -0.9433
 3403TIP3    H210216   4.095   1.031   0.034 -0.5195  0.9820 -4.3485
 3404TIP3   OH210217   0.642   4.567   1.301  0.0653  0.5077  0.0475
 3404TIP3    H110218   0.720   4.557   1.247 -0.6114  0.8725 -1.0207
 3404TIP3    H210219   0.630   4.662   1.308 -0.7876  0.4550 -0.5612
 3405TIP3   OH210220   1.594   0.808   1.340  0.7503  0.3088 -0.7310
 3405TIP3    H110221   1.685   0.833   1.324  0.7647  0.1233 -0.9415
 3405TIP3    H210222   1.593   0.780   1.431  0.3748  2.7252  0.0991
 3406TIP3   OH210223   2.326   3.373   3.612  0.1175  0.1508  0.3777
 3406TIP3    H110224   2.308   3.290   3.568 -1.3923  0.1912  0.8793
 3406TIP3    H210225   2.312   3.439   3.545  0.2643  0.0648  0.2615
 3407TIP3   OH210226   4.573   2.017   2.875 -0.2106 -0.5004 -0.3605
 3407TIP3    H110227   4.654   1.985   2.835 -0.4300 -0.5546 -0.7627
 3407TIP3    H210228   4.513   1.942   2.872 -0.2990 -0.4394 -0.1267
 3408TIP3   OH210229   6.338   1.850   2.735 -0.0859  0.0619  0.0313
 3408TIP3    H110230   6.308   1.902   2.660 -0.8104 -0.0215  0.2628
 3408TIP3    H210231   6.412   1.900   2.770 -1.0977  1.2403  0.5834
 3409TIP3   OH210232   2.878   3.377   3.536  0.0735 -0.2277  0.0039
 3409TIP3    H110233   2.904   3.305   3.593 -0.8231  0.4847  1.3774
 3409TIP3    H210234   2.944   3.445   3.551 -0.0840 -0.0932  0.0974
 3410TIP3   OH210235   2.206   1.891   2.343 -0.0751 -0.2486  0.1539
 3410TIP3    H110236   2.245   1.803   2.346  0.7512 -0.0301 -2.1141
 3410TIP3    H210237   2.255   1.937   2.276 -1.6972  1.3814 -0.0097
 3411TIP3   OH210238   3.871   2.573   0.264  0.2683  0.0911  0.0702
 3411TIP3    H110239   3.834   2.640   0.206 -0.8439 -0.5364  0.0267
 3411TIP3    H210240   3.904   2.506   0.204 -0.2048 -0.2078  0.1383
 3412TIP3   OH210241   3.818   0.469   4.457  0.0371 -0.3859 -0.3503
 3412TIP3    H110242   3.746   0.531   4.467 -1.8476 -2.0071 -2.6838
 3412TIP3    H210243   3.826   0.455   4.363  1.4010 -2.5163  0.0052
 3413TIP3   OH210244   5.643   1.604   1.678 -0.7253 -0.1894 -0.4188
 3413TIP3    H110245   5.712   1.538   1.679 -1.0616 -0.6145  2.2703
 3413TIP3    H210246   5.569   1.562   1.721 -0.8458  1.9817  1.7387
 3414TIP3   OH210247   3.236   3.032   0.739  0.2228 -0.0257  0.0857
 3414TIP3    H110248   3.173   3.009   0.671  1.0894 -0.0169 -0.7332
 3414TIP3    H210249   3.284   3.106   0.703  1.3826 -0.6665  0.2730
 3415TIP3   OH210250   4.791   3.141   3.566 -0.8376 -0.1917 -0.5907
 3415TIP3    H110251   4.696   3.154   3.559 -0.8963 -0.1659  0.1805
 3415TIP3    H210252   4.828   3.226   3.544 -0.9947 -0.1754 -0.8009
 3416TIP3   OH210253   1.073   3.234   2.895  0.5893 -0.4688 -0.0548
 3416TIP3    H110254   1.163   3.266   2.897  0.0671  1.1769 -0.7299
 3416TIP3    H210255   1.032   3.281   2.822 -0.0783 -3.3640 -1.6591
 3417TIP3   OH210256   0.232   4.983   4.690  0.0832  0.4624  0.1063
 3417TIP3    H110257   0.180   4.903   4.698  1.3793 -0.5551 -1.2017
 3417TIP3    H210258   0.263   4.983   4.600 -0.2501  2.6934 -0.0409
 3418TIP3   OH210259   2.564   0.599   3.370 -0.1672 -0.0155 -0.4060
 3418TIP3    H110260   2.554   0.642   3.455 -1.6492 -1.4755  0.2061
 3418TIP3    H210261   2.655   0.567   3.370 -0.4753 -0.9729  1.1325
 3419TIP3   OH210262   0.612   1.876   3.558 -0.3080 -0.3157 -0.7124
 3419TIP3    H110263   0.688   1.929   3.534 -0.7992  0.4075 -0.6824
 3419TIP3    H210264   0.639   1.830   3.637  0.3992 -0.7197 -1.1791
 3420TIP3   OH210265   4.839   0.493   5.081  0.1712  0.1376  0.1118
 3420TIP3    H110266   4.882   0.549   5.145 -1.5308 -0.3015  1.7222
 3420TIP3    H210267   4.896   0.417   5.074  0.4451  0.2400  1.0441
 3421TIP3   OH210268   2.519   4.256   3.227  0.4563 -0.3734 -0.2470
 3421TIP3    H110269   2.458   4.251   3.300 -0.4799 -1.5140 -1.0624
 3421TIP3    H210270   2.512   4.171   3.184  1.1602  0.1741 -1.5133
 3422TIP3   OH210271   5.919   2.775   3.255  0.1562 -0.3458 -0.3533
 3422TIP3    H110272   5.878   2.791   3.169 -0.3474 -0.5412 -0.1578
 3422TIP3    H210273   5.926   2.861   3.295  1.2553 -0.1337 -0.9604
 3423TIP3   OH210274   0.006   5.293   2.382  0.2433  0.1626  0.5244
 3423TIP3    H110275   0.083   5.350   2.379 -0.6941  1.4344 -1.6609
 3423TIP3    H210276  -0.014   5.284   2.475  1.4776  1.9496  1.0193
 3424TIP3   OH210277   4.425   1.865   0.264 -0.4387 -0.0536  0.1725
 3424TIP3    H110278   4.469   1.820   0.192 -0.6913  0.5199 -0.3438
 3424TIP3    H210279   4.494   1.915   0.307 -0.5015  0.5689 -0.4252
 3425TIP3   OH210280   3.394   3.338   4.571 -0.0227 -0.1598 -0.2167
 3425TIP3    H110281   3.466   3.285   4.534  0.3298 -0.5209  0.9442
 3425TIP3    H210282   3.375   3.296   4.655 -1.7596 -0.1991 -0.6033
 3426TIP3   OH210283   3.281   1.221   3.675 -0.1744  0.0030 -0.0668
 3426TIP3    H110284   3.234   1.300   3.702 -0.4367 -0.1964  0.0739
 3426TIP3    H210285   3.225   1.183   3.606  0.5107  0.5343 -0.9424
 3427TIP3   OH210286   3.024   1.843   3.757 -0.0855  0.0283  0.6644
 3427TIP3    H110287   3.103   1.800   3.725  0.8956  1.4862  1.0477
 3427TIP3    H210288   2.954   1.780   3.739  0.7835 -0.3330 -1.8673
 3428TIP3   OH210289   1.479   0.047   0.797  0.2419 -0.1404 -0.0933
 3428TIP3    H110290   1.513   0.123   0.750  2.6838 -1.1323 -0.0963
 3428TIP3    H210291   1.490   0.068   0.890  0.0105 -0.1312 -0.0656
 3429TIP3   OH210292   6.163   2.455   3.778  0.4747 -0.4389  0.4533
 3429TIP3    H110293   6.110   2.395   3.831  1.1861 -2.0659 -0.6197
 3429TIP3    H210294   6.107   2.475   3.703  1.0908 -1.6688 -0.3685
 3430TIP3   OH210295   5.788   5.090   0.525  0.2719 -0.0000 -0.5093
 3430TIP3    H110296   5.727   5.055   0.460  0.0139 -0.3753 -0.0618
 3430TIP3    H210297   5.874   5.078   0.485  0.0728  0.4292 -1.0922
 3431TIP3   OH210298   5.655   4.470   3.392 -0.2854  0.2346 -0.2676
 3431TIP3    H110299   5.681   4.382   3.417 -1.5526 -1.1495 -3.2914
 3431TIP3    H210300   5.716   4.494   3.322 -0.5988  1.3654 -0.1759
 3432TIP3   OH210301   2.511   1.566   4.658 -0.2028  0.1331  0.1907
 3432TIP3    H110302   2.512   1.505   4.732 -0.1732 -0.1994 -0.0773
 3432TIP3    H210303   2.494   1.510   4.582 -0.3022  0.4795 -0.0448
 3433TIP3   OH210304   5.132   4.765   0.671  0.2508 -0.5105 -0.3898
 3433TIP3    H110305   5.183   4.741   0.593 -0.1442 -2.7794 -0.0030
 3433TIP3    H210306   5.192   4.749   0.744 -0.7235 -2.5764  0.0255
 3434TIP3   OH210307   2.761   0.154   1.629  0.4490  0.0757 -0.0154
 3434TIP3    H110308   2.795   0.075   1.671  1.5170 -0.0410 -1.0417
 3434TIP3    H210309   2.742   0.128   1.539 -1.0188  0.5267  0.1211
 3435TIP3   OH210310   3.086   2.524   4.304  0.1487 -0.0217  0.5414
 3435TIP3    H110311   3.071   2.619   4.309  0.9979  0.0952  1.0624
 3435TIP3    H210312   3.007   2.490   4.263 -1.2021  0.6263  2.4544
 3436TIP3   OH210313   2.572   5.167   0.722 -0.0592  0.2274 -0.0896
 3436TIP3    H110314   2.543   5.253   0.751 -2.3278 -0.4990 -0.0231
 3436TIP3    H210315   2.661   5.158   0.757  0.1149  2.3918  0.1356
 3437TIP3   OH210316   4.438   5.128   5.060 -0.3175 -1.0062  0.1433
 3437TIP3    H110317   4.467   5.039   5.038  0.4525 -0.4926 -1.0570
 3437TIP3    H210318   4.515   5.170   5.098 -1.1535 -1.3339  2.2919
 3438TIP3   OH210319   4.242   4.965   4.680  0.1715 -0.3701 -0.3435
 3438TIP3    H110320   4.229   4.968   4.585  3.0615  1.2539 -0.8220
 3438TIP3    H210321   4.337   4.972   4.691 -0.2019  2.4585  2.6816
 3439TIP3   OH210322   5.005   4.482   2.760  0.6725  0.9255 -0.0752
 3439TIP3    H110323   4.968   4.425   2.828 -0.1944  2.9749  1.2764
 3439TIP3    H210324   5.052   4.423   2.701  0.1316 -1.1091  1.4430
 3440TIP3   OH210325   0.699   0.396   1.866  0.6506  0.1948 -0.0249
 3440TIP3    H110326   0.757   0.368   1.937  1.0391 -1.0743 -0.8213
 3440TIP3    H210327   0.756   0.450   1.810 -0.0901  2.7302  1.4958
 3441TIP3   OH210328   3.452   5.026   4.086 -0.2764  0.2929 -0.0833
 3441TIP3    H110329   3.447   4.942   4.042  2.6461 -0.6398  1.1259
 3441TIP3    H210330   3.411   5.012   4.172  2.3549 -0.7387  1.1000
 3442TIP3   OH210331   2.492   4.148   4.772 -0.4409  0.2243 -0.6359
 3442TIP3    H110332   2.577   4.158   4.728  1.5469  0.7782  2.9367
 3442TIP3    H210333   2.446   4.230   4.755  0.2521  0.4252 -1.6110
 3443TIP3   OH210334   2.067   5.790   2.699 -0.5000 -0.0618  0.0621
 3443TIP3    H110335   2.036   5.880   2.685  0.4829  0.2385 -0.2805
 3443TIP3    H210336   2.135   5.798   2.767  1.2844 -0.1631 -1.6116
 3444TIP3   OH210337   3.871   5.758   1.930  0.0756 -0.2920 -0.3850
 3444TIP3    H110338   3.840   5.812   2.003  0.4130  0.1562 -0.5696
 3444TIP3    H210339   3.814   5.782   1.857  0.0145 -0.4254 -0.3806
 3445TIP3   OH210340   0.019   4.188   0.360 -0.4369 -0.4774 -0.3261
 3445TIP3    H110341  -0.020   4.274   0.349  0.0066 -0.0674  1.1132
 3445TIP3    H210342   0.110   4.199   0.334 -0.2053 -0.3282  0.5351
 3446TIP3   OH210343   2.332   5.613   0.237 -0.3819  0.1118 -0.1792
 3446TIP3    H110344   2.260   5.550   0.243 -0.1922 -0.5212 -3.1423
 3446TIP3    H210345   2.411   5.562   0.258 -0.4739 -0.0116 -0.1338
 3447TIP3   OH210346   2.355   1.544   1.385  0.1297 -0.4453  0.1001
 3447TIP3    H110347   2.387   1.474   1.441 -0.2183 -1.3257 -0.7680
 3447TIP3    H210348   2.341   1.618   1.444 -1.3426 -1.6859  1.3828
 3448TIP3   OH210349   0.908   5.782   2.939  0.1066  0.5445  0.4281
 3448TIP3    H110350   0.951   5.726   3.004  0.7016 -1.0287 -1.2177
 3448TIP3    H210351   0.834   5.729   2.908  0.6416  0.6581 -1.1235
 3449TIP3   OH210352   1.024   5.340   1.221 -0.2477 -0.2241 -0.2322
 3449TIP3    H110353   0.929   5.336   1.232 -0.0353 -1.0148  1.8539
 3449TIP3    H210354   1.059   5.296   1.300  1.8426  0.2525 -0.8313
 3450TIP3   OH210355   5.006   2.678   4.894 -0.1356  0.3655 -0.4955
 3450TIP3    H110356   4.952   2.690   4.816  0.9448 -0.0415 -1.3355
 3450TIP3    H210357   5.092   2.654   4.860  0.4006  0.3292  0.8259
 3451TIP3   OH210358   0.563   5.301   3.216 -0.0903  0.0630  0.1114
 3451TIP3    H110359   0.544   5.273   3.306 -1.1700 -1.3596 -0.5188
 3451TIP3    H210360   0.561   5.220   3.165  0.2953  0.8734 -1.2387
 3452TIP3   OH210361   5.851   0.479   3.159 -0.0161 -0.6230  0.2856
 3452TIP3    H110362   5.873   0.439   3.075  1.7864 -1.1339  0.9574
 3452TIP3    H210363   5.769   0.525   3.142  0.7927  0.1134 -2.0117
 3453TIP3   OH210364   4.799   0.918   2.474  0.1512 -0.0747 -0.2364
 3453TIP3    H110365   4.873   0.913   2.413 -0.9425  1.0108 -1.7433
 3453TIP3    H210366   4.749   0.838   2.457  0.1489 -0.0515 -0.3396
 3454TIP3   OH210367   5.776   1.374   4.397 -0.6668  0.0643 -0.7017
 3454TIP3    H110368   5.736   1.453   4.360  1.5128  1.2512 -0.6991
 3454TIP3    H210369   5.705   1.331   4.444 -2.4628  0.8435 -2.5111
 3455TIP3   OH210370   1.935   4.074   3.912 -0.1329  0.3650 -0.0667
 3455TIP3    H110371   1.943   4.165   3.939 -1.3959  0.7977 -1.0522
 3455TIP3    H210372   1.862   4.074   3.851 -0.2653 -1.3499  0.0587
 3456TIP3   OH210373   4.647   0.622   3.404 -0.5521 -0.5866 -0.4646
 3456TIP3    H110374   4.556   0.611   3.433 -0.5730  2.8956  1.3796
 3456TIP3    H210375   4.639   0.670   3.321 -0.3876 -1.5825 -1.0638
 3457TIP3   OH210376   0.239   4.228   3.822  0.2789 -0.2717 -0.6027
 3457TIP3    H110377   0.170   4.210   3.759  0.6711 -0.3537 -1.0170
 3457TIP3    H210378   0.273   4.314   3.798 -1.4566  1.0204  1.2598
 3458TIP3   OH210379   3.341   2.089   2.452  0.2385 -0.4446 -0.0191
 3458TIP3    H110380   3.386   2.164   2.412 -1.7338 -0.0307 -1.6045
 3458TIP3    H210381   3.277   2.128   2.511 -0.6563 -0.8674 -0.6949
 3459TIP3   OH210382   4.394   3.554   0.181  0.2049  0.1072  0.1787
 3459TIP3    H110383   4.388   3.508   0.097  0.3372 -0.7769  0.6448
 3459TIP3    H210384   4.487   3.566   0.195  0.1565  0.9497 -0.1614
 3460TIP3   OH210385   2.797   3.968   2.716  0.2772  0.1078 -0.0541
 3460TIP3    H110386   2.864   3.933   2.657 -0.4238  0.0087 -0.8059
 3460TIP3    H210387   2.720   3.979   2.661 -0.3685  0.0917  0.8319
 3461TIP3   OH210388   4.052   5.509   4.268  0.1700  0.4729 -0.6085
 3461TIP3    H110389   3.996   5.463   4.205 -1.5157 -0.0427  1.1547
 3461TIP3    H210390   4.027   5.472   4.353  1.5808  1.9068  0.4782
 3462TIP3   OH210391   5.608   4.735   4.691 -0.4019 -0.3351  0.8662
 3462TIP3    H110392   5.644   4.646   4.690  0.8298  0.1312 -0.4800
 3462TIP3    H210393   5.628   4.767   4.779 -0.4755 -1.2404  1.2261
 3463TIP3   OH210394   5.110   4.981   4.446  0.0379 -0.4148  0.3967
 3463TIP3    H110395   5.068   4.895   4.447 -0.3160 -0.2403  1.1324
 3463TIP3    H210396   5.065   5.030   4.377  1.0291 -1.1923 -0.8453
 3464TIP3   OH210397   2.366   5.590   4.209 -0.0234 -0.5791  0.1230
 3464TIP3    H110398   2.460   5.602   4.195  0.1233  0.9550  1.9275
 3464TIP3    H210399   2.361   5.525   4.278 -0.2013  0.1504  0.8189
 3465TIP3   OH210400   4.739   1.066   2.699  0.3414  0.3659 -0.3653
 3465TIP3    H110401   4.824   1.106   2.719  0.9794 -1.6113  1.2611
 3465TIP3    H210402   4.750   1.031   2.610  0.9435  0.7805 -0.4645
 3466TIP3   OH210403   3.210   2.190   3.190 -0.3449 -0.4531  0.1352
 3466TIP3    H110404   3.174   2.273   3.222  0.5272  0.5694 -1.4477
 3466TIP3    H210405   3.201   2.194   3.095 -0.2298 -2.1655  0.0159
 3467TIP3   OH210406   3.996   3.683   1.569  0.6918  0.3832  0.9802
 3467TIP3    H110407   4.078   3.727   1.549 -0.0622  1.0991 -0.7751
 3467TIP3    H210408   4.017   3.590   1.568  1.1880  0.4645 -1.1986
 3468TIP3   OH210409   3.123   1.461   3.922 -0.1846 -0.6456 -0.2264
 3468TIP3    H110410   3.030   1.453   3.900 -0.3470  0.8249 -0.1475
 3468TIP3    H210411   3.125   1.515   4.001  0.7929  0.9460 -1.2783
 3469TIP3   OH210412   1.276   3.783   1.400  0.0505 -0.2230 -0.4650
 3469TIP3    H110413   1.200   3.783   1.458  0.1403  0.6408 -0.3354
 3469TIP3    H210414   1.331   3.712   1.433  0.5737  0.8758  1.1713
 3470TIP3   OH210415   1.936   0.948   1.958  0.1687  0.4214  0.3957
 3470TIP3    H110416   1.933   0.853   1.953  0.8433  0.3652  0.9248
 3470TIP3    H210417   2.013   0.967   2.012 -1.0841  1.2144  2.0000
 3471TIP3   OH210418   5.175   3.080   3.033 -0.2285 -0.0214  0.2751
 3471TIP3    H110419   5.140   3.144   3.095  0.4204  0.7213 -0.1132
 3471TIP3    H210420   5.111   3.008   3.034 -0.4208  0.1470  1.5054
 3472TIP3   OH210421   4.135   4.859   1.955 -0.4627 -0.6696  0.4174
 3472TIP3    H110422   4.059   4.883   2.009  0.4458 -1.4151  2.0798
 3472TIP3    H210423   4.208   4.907   1.994  0.5463 -2.5796  1.0205
 3473TIP3   OH210424   1.027   2.338   1.203 -0.5529 -0.4336 -0.5474
 3473TIP3    H110425   1.054   2.259   1.249 -0.8362 -0.2105  0.0053
 3473TIP3    H210426   1.056   2.324   1.112  2.0068  0.0587  0.1109
 3474TIP3   OH210427   5.118   1.231   4.844 -0.2615  0.4118  0.0472
 3474TIP3    H110428   5.079   1.153   4.803 -1.5575  0.6709  0.7346
 3474TIP3    H210429   5.205   1.202   4.871 -1.0332 -1.0985  1.0902
 3475TIP3   OH210430   2.420   0.745   2.934  0.3198 -0.1897 -0.0296
 3475TIP3    H110431   2.484   0.811   2.908  1.5032 -0.6310  1.6121
 3475TIP3    H210432   2.472   0.675   2.974 -1.1390 -0.8819  0.7289
 3476TIP3   OH210433   5.276   5.138   3.190  0.4968  0.6557 -0.3897
 3476TIP3    H110434   5.357   5.173   3.154  0.3978  1.0532 -0.2434
 3476TIP3    H210435   5.286   5.043   3.188 -0.1473  0.5712 -2.9825
 3477TIP3   OH210436   2.641   5.838   1.381 -0.6251  0.0697  0.2167
 3477TIP3    H110437   2.615   5.838   1.289  0.2811 -0.7417 -0.0607
 3477TIP3    H210438   2.573   5.888   1.426  0.8391  3.9694 -1.4218
 3478TIP3   OH210439   4.193   1.169   2.283  0.0174  0.6045 -0.0292
 3478TIP3    H110440   4.236   1.089   2.313  0.0162  0.4902 -0.3252
 3478TIP3    H210441   4.265   1.227   2.259  0.0194  0.2458 -0.9612
 3479TIP3   OH210442   2.739   1.732   3.802  0.3125  0.3271 -0.4083
 3479TIP3    H110443   2.656   1.747   3.847  0.0196 -2.0377 -0.0201
 3479TIP3    H210444   2.734   1.788   3.725 -0.6358  1.9288  0.7597
 3480TIP3   OH210445   4.860   2.350   2.857 -0.4133 -0.0076 -0.3165
 3480TIP3    H110446   4.863   2.255   2.850 -0.3117  0.0141 -0.5957
 3480TIP3    H210447   4.767   2.371   2.864 -0.4442 -0.1183 -0.3980
 3481TIP3   OH210448   5.693   2.600   0.333 -0.5668  0.1674  0.1663
 3481TIP3    H110449   5.672   2.562   0.247 -0.0416  3.7902 -1.7640
 3481TIP3    H210450   5.615   2.650   0.357 -0.6116 -0.6025  1.7466
 3482TIP3   OH210451   2.008   4.556   0.513  0.0339  0.0991  0.5016
 3482TIP3    H110452   2.103   4.567   0.510  0.0189  0.0760 -0.0470
 3482TIP3    H210453   1.973   4.644   0.508 -0.0177  0.0130 -1.3606
 3483TIP3   OH210454   0.141   5.772   1.758 -0.3870 -0.5514  0.7052
 3483TIP3    H110455   0.121   5.817   1.840  1.1400  0.1101  0.7493
 3483TIP3    H210456   0.160   5.842   1.696 -0.9979 -1.0617 -0.0745
 3484TIP3   OH210457   5.356   2.902   2.916 -0.5932 -0.4804 -0.4210
 3484TIP3    H110458   5.279   2.957   2.931 -1.5905 -1.7254 -0.8362
 3484TIP3    H210459   5.373   2.861   3.001  0.8195  1.2265  0.1869
 3485TIP3   OH210460   5.431   1.910   5.118  0.0135 -0.4248 -0.0923
 3485TIP3    H110461   5.504   1.849   5.126 -0.9662 -1.6627 -0.2696
 3485TIP3    H210462   5.432   1.959   5.201  0.7678 -0.7128  0.0796
 3486TIP3   OH210463   5.721   1.499   3.500  0.0853  0.0881 -0.0832
 3486TIP3    H110464   5.716   1.485   3.406 -2.9501  0.7301 -0.1336
 3486TIP3    H210465   5.719   1.411   3.538 -1.9579 -0.1435 -0.6234
 3487TIP3   OH210466   1.478   1.852   2.449 -0.0243  0.0704  0.4262
 3487TIP3    H110467   1.401   1.903   2.426  0.3763  0.6169  0.2792
 3487TIP3    H210468   1.552   1.902   2.413  0.3022 -1.1676 -0.6904
 3488TIP3   OH210469   4.511   5.548   2.780 -0.0686  0.4319  0.3622
 3488TIP3    H110470   4.550   5.564   2.694 -0.4089 -1.3393 -0.1619
 3488TIP3    H210471   4.417   5.542   2.762 -0.0574 -0.9424  0.6652
 3489TIP3   OH210472   1.334   2.945   4.529 -0.1705  0.0465 -0.5181
 3489TIP3    H110473   1.322   3.039   4.514  0.5712  0.1953 -0.2208
 3489TIP3    H210474   1.428   2.931   4.519 -0.0143 -0.3273  1.2944
 3490TIP3   OH210475   2.183   4.124   4.214 -0.5412 -0.6045 -0.1220
 3490TIP3    H110476   2.158   4.162   4.130 -0.7942  0.3438  0.3723
 3490TIP3    H210477   2.135   4.175   4.279  1.9498  0.6980  0.8222
 3491TIP3   OH210478   2.185   3.676   3.457  0.2933  0.2252 -0.7272
 3491TIP3    H110479   2.129   3.599   3.449  0.4156 -0.0741  0.8787
 3491TIP3    H210480   2.123   3.748   3.472  0.2526  0.1557 -0.5552
 3492TIP3   OH210481   3.532   3.226   2.997  0.0337 -0.1568  0.0318
 3492TIP3    H110482   3.602   3.161   3.008 -0.8713 -1.1854 -0.2066
 3492TIP3    H210483   3.515   3.228   2.903  0.6084  1.0403 -0.0674
 3493TIP3   OH210484   0.453   0.057   0.136 -0.0094 -0.0737 -0.3808
 3493TIP3    H110485   0.464   0.083   0.228 -0.3647  0.2594 -0.4281
 3493TIP3    H210486   0.372   0.005   0.135  0.5220 -0.9180 -0.3433
 3494TIP3   OH210487   0.694   0.887   0.216 -0.0864 -0.3630 -0.2339
 3494TIP3    H110488   0.618   0.873   0.159  0.3826 -1.1922 -0.6683
 3494TIP3    H210489   0.766   0.903   0.156  0.6109 -2.2033  0.0529
 3495TIP3   OH210490   3.110   3.108   3.932  0.2201 -0.3059  0.1332
 3495TIP3    H110491   3.068   3.025   3.910 -0.4209 -0.1500  0.7464
 3495TIP3    H210492   3.116   3.108   4.027 -0.5608  0.7168  0.2005
 3496TIP3   OH210493   1.161   0.843   2.781  0.7315 -0.7850 -0.4546
 3496TIP3    H110494   1.160   0.909   2.713 -0.7346  0.2209  0.4844
 3496TIP3    H210495   1.240   0.861   2.832  0.4295  0.1440 -0.3087
 3497TIP3   OH210496   0.658   3.150   0.422 -0.3670 -0.3549 -0.0882
 3497TIP3    H110497   0.642   3.098   0.501  1.5906 -1.6069 -0.4383
 3497TIP3    H210498   0.659   3.241   0.453 -1.6830 -0.6581  0.9257
 3498TIP3   OH210499  -0.021   1.011   0.852 -0.3346 -0.3892 -0.1568
 3498TIP3    H110500  -0.011   1.008   0.948 -1.0977 -1.2294 -0.0891
 3498TIP3    H210501   0.068   1.025   0.820 -0.0014 -0.5255  0.6672
 3499TIP3   OH210502   4.452   2.461   4.244 -0.1641  0.2002  0.2855
 3499TIP3    H110503   4.501   2.512   4.180 -0.2020  0.2431  0.2903
 3499TIP3    H210504   4.490   2.485   4.329 -0.5712  0.6700  0.3425
 3500TIP3   OH210505   5.555   1.564   2.070  0.2989 -0.1664 -0.0944
 3500TIP3    H110506   5.574   1.493   2.009 -1.0530 -0.2379 -0.4702
 3500TIP3    H210507   5.491   1.618   2.024  0.1315  0.4221  0.8058
 3501TIP3   OH210508   6.282   0.680   0.916 -0.5000 -0.1209  0.3478
 3501TIP3    H110509   6.224   0.751   0.947  1.8933  2.1954 -0.1257
 3501TIP3    H210510   6.245   0.655   0.832 -2.3555 -0.6850  1.2706
 3502TIP3   OH210511   5.947   4.765   2.386  0.2141 -0.5466 -0.0682
 3502TIP3    H110512   5.890   4.727   2.319 -0.1198 -1.1424  0.5422
 3502TIP3    H210513   6.028   4.786   2.340 -0.2805 -0.2219 -0.8257
 3503TIP3   OH210514   3.694   3.869   5.029  0.2422  0.9942 -0.1339
 3503TIP3    H110515   3.751   3.937   5.064  1.6716  0.7114 -1.7868
 3503TIP3    H210516   3.664   3.904   4.945 -1.7254  0.9517  0.5009
 3504TIP3   OH210517   5.541   1.004   2.214  0.4470 -0.5500  0.5588
 3504TIP3    H110518   5.512   1.058   2.288  0.3555 -0.5840  0.5487
 3504TIP3    H210519   5.474   0.936   2.207  0.1705 -0.2365  0.1122
 3505TIP3   OH210520   1.768   4.461   2.836  0.0659  0.4700 -0.6190
 3505TIP3    H110521   1.849   4.449   2.788 -0.3023  1.1691 -1.4484
 3505TIP3    H210522   1.772   4.551   2.868  0.3966 -0.0459  0.8668
 3506TIP3   OH210523   5.108   4.318   2.528 -0.1898  0.5241  0.4503
 3506TIP3    H110524   5.094   4.335   2.434  0.5284 -0.1127  0.2232
 3506TIP3    H210525   5.020   4.299   2.561 -0.4088  0.4214 -0.1636
 3507TIP3   OH210526   0.873   3.805   0.884  0.0732 -0.2699  0.1243
 3507TIP3    H110527   0.967   3.822   0.880  0.0529 -0.1456  0.1612
 3507TIP3    H210528   0.853   3.759   0.803  0.7506 -3.2501  1.5214
 3508TIP3   OH210529   0.800   0.091   3.829 -0.5387  0.4085  0.0400
 3508TIP3    H110530   0.767   0.079   3.740  1.0099 -1.6475 -0.3368
 3508TIP3    H210531   0.878   0.145   3.818  0.2282 -0.6895 -0.0027
 3509TIP3   OH210532   2.390   2.056   0.594  0.3883  0.6279  0.5067
 3509TIP3    H110533   2.465   2.098   0.636  0.9714  1.0022 -0.8812
 3509TIP3    H210534   2.426   1.979   0.550 -0.2623  0.1069  0.8533
 3510TIP3   OH210535   6.325   5.882   2.186  1.1703 -0.3158 -0.2315
 3510TIP3    H110536   6.269   5.939   2.133  1.3238 -0.3925 -0.4747
 3510TIP3    H210537   6.308   5.911   2.276  1.8778  0.6864 -0.4032
 3511TIP3   OH210538   1.274   0.559   4.371 -0.0995 -0.1642  0.8546
 3511TIP3    H110539   1.297   0.555   4.464  1.0126 -1.2058  0.5626
 3511TIP3    H210540   1.263   0.652   4.354 -2.4279 -0.0414  2.4843
 3512TIP3   OH210541   1.057   4.208   0.252 -0.0889 -0.4936  0.4334
 3512TIP3    H110542   1.130   4.263   0.282 -0.7096  0.7047 -0.1877
 3512TIP3    H210543   1.029   4.162   0.331  1.7708 -1.5418  0.5582
 3513TIP3   OH210544   5.405   3.801   1.087  0.2338  0.0859  0.1137
 3513TIP3    H110545   5.475   3.738   1.068  0.4970  0.3503  0.1966
 3513TIP3    H210546   5.450   3.877   1.123 -0.1626 -0.0157  0.8425
 3514TIP3   OH210547   3.358   0.697   2.437  0.4008  0.2937 -0.4649
 3514TIP3    H110548   3.414   0.752   2.492 -0.8122 -1.0916  2.3858
 3514TIP3    H210549   3.419   0.638   2.392  1.3814 -0.1223  1.3169
 3515TIP3   OH210550   3.334   3.195   0.523 -0.0813 -0.5491  0.3377
 3515TIP3    H110551   3.259   3.224   0.471  0.0113 -0.5095  0.2242
 3515TIP3    H210552   3.358   3.111   0.485  1.2934  0.4356 -1.0700
 3516TIP3   OH210553   1.500   2.173   0.578 -0.2773  0.3838  0.2147
 3516TIP3    H110554   1.522   2.236   0.510 -1.2638  1.0727  0.5133
 3516TIP3    H210555   1.437   2.219   0.634 -2.4090 -1.4017 -0.5490
 3517TIP3   OH210556   0.988   1.115   4.431 -0.5216 -0.2041 -0.5697
 3517TIP3    H110557   1.059   1.070   4.477  0.3519  1.4927 -0.2133
 3517TIP3    H210558   0.915   1.115   4.494  0.3892  1.3465  0.5353
 3518TIP3   OH210559   0.523   0.520   2.193  0.2644 -0.7548 -0.2188
 3518TIP3    H110560   0.536   0.482   2.106 -0.0671 -2.6319  0.5210
 3518TIP3    H210561   0.457   0.589   2.179 -0.3566 -1.5374 -1.3306
 3519TIP3   OH210562   4.729   1.026   1.981 -0.2653 -0.2754 -0.3032
 3519TIP3    H110563   4.708   1.028   2.074 -0.2033 -1.9339 -0.2337
 3519TIP3    H210564   4.824   1.014   1.978 -0.2222  0.0977 -0.5988
 3520TIP3   OH210565   3.018   1.867   1.882  0.7197 -0.2086  0.0139
 3520TIP3    H110566   2.962   1.943   1.864  1.3291  0.5956  1.3868
 3520TIP3    H210567   3.048   1.880   1.972  4.3329  0.2522 -1.0884
 3521TIP3   OH210568   2.053   4.980   1.266  0.1221  0.4221 -0.0493
 3521TIP3    H110569   1.990   5.027   1.321 -1.4424 -0.5465 -0.9163
 3521TIP3    H210570   2.081   4.906   1.319 -1.1987 -0.3747 -0.3969
 3522TIP3   OH210571   1.616   3.355   4.186 -0.2540 -0.4674 -0.0093
 3522TIP3    H110572   1.648   3.336   4.097 -0.3944  0.6985 -0.3341
 3522TIP3    H210573   1.566   3.278   4.211 -1.1859 -0.3621 -1.4187
 3523TIP3   OH210574   1.506   0.203   1.672 -0.0452 -0.0836  0.4324
 3523TIP3    H110575   1.438   0.214   1.739  0.4204  1.4703  0.6775
 3523TIP3    H210576   1.580   0.165   1.718  0.2990  1.0508  0.8447
 3524TIP3   OH210577   5.573   4.888   2.196  0.1700  0.1509  0.2162
 3524TIP3    H110578   5.620   4.895   2.113  0.4249  0.9044  0.4174
 3524TIP3    H210579   5.562   4.979   2.225 -2.1577  0.0836 -0.2571
 3525TIP3   OH210580   5.909   5.345   2.612 -0.3363 -0.2564  0.3262
 3525TIP3    H110581   5.956   5.296   2.545 -1.1695 -0.0691 -0.4067
 3525TIP3    H210582   5.969   5.346   2.687  1.5748  1.4067 -1.0933
 3526TIP3   OH210583   1.684   1.364   1.849 -0.1495 -0.3132 -0.6917
 3526TIP3    H110584   1.762   1.339   1.799  0.0765  0.5219 -0.7737
 3526TIP3    H210585   1.640   1.429   1.794 -1.2277 -1.1889 -0.9131
 3527TIP3   OH210586   4.174   4.632   1.797  0.1079 -0.2987 -0.0247
 3527TIP3    H110587   4.266   4.610   1.784  0.1884  0.5159 -0.8651
 3527TIP3    H210588   4.175   4.721   1.831 -0.4035  0.0468 -0.8928
 3528TIP3   OH210589   4.094   3.617   4.332  0.3749 -0.3713  0.1747
 3528TIP3    H110590   4.147   3.564   4.392  1.9181 -0.8453 -1.5050
 3528TIP3    H210591   4.040   3.554   4.285  0.9316 -0.2845 -0.5982
 3529TIP3   OH210592   5.421   2.487   0.228 -0.1501 -0.3057 -0.1968
 3529TIP3    H110593   5.444   2.562   0.283 -0.0072  0.2034 -0.9258
 3529TIP3    H210594   5.391   2.420   0.289  1.8727 -0.4798  0.6780
 3530TIP3   OH210595   0.537   0.626   3.697  0.0683  0.1270  0.3133
 3530TIP3    H110596   0.589   0.558   3.654  0.7830  0.8867 -0.0488
 3530TIP3    H210597   0.457   0.631   3.645  0.2506 -0.0529  0.0105
 3531TIP3   OH210598   0.116   3.816   0.506 -0.3502 -0.0373 -0.0212
 3531TIP3    H110599   0.186   3.843   0.446  0.3289 -0.2026  0.6829
 3531TIP3    H210600   0.079   3.898   0.538  0.9753  0.0922  1.2637
 3532TIP3   OH210601   5.774   2.587   1.293  0.2105 -0.2006  0.0786
 3532TIP3    H110602   5.820   2.668   1.270  2.5049 -1.7091 -1.0660
 3532TIP3    H210603   5.844   2.524   1.308 -1.5124 -2.4555 -0.8332
 3533TIP3   OH210604   3.282   5.914   5.152 -0.3020  0.2197  0.0731
 3533TIP3    H110605   3.308   5.999   5.187  0.4652  0.3562 -0.7904
 3533TIP3    H210606   3.353   5.855   5.176  1.0012  0.6238 -2.4255
 3534TIP3   OH210607   0.983   5.308   2.342  0.7281 -0.6038 -0.2940
 3534TIP3    H110608   0.956   5.393   2.377 -0.2941  0.0393 -2.4874
 3534TIP3    H210609   0.921   5.246   2.380 -1.7272  0.3699 -2.4700
 3535TIP3   OH210610   0.079   3.692   5.088  0.4064  0.4391 -0.2075
 3535TIP3    H110611   0.142   3.657   5.026  0.2967  0.4531 -0.3258
 3535TIP3    H210612  -0.002   3.642   5.072  0.2978  0.6329 -0.2641
 3536TIP3   OH210613   2.376   1.404   1.798  0.0382  0.3305  0.3923
 3536TIP3    H110614   2.286   1.431   1.780 -0.1211  0.9762  1.9848
 3536TIP3    H210615   2.418   1.483   1.832  1.5855  0.3758 -1.4866
 3537TIP3   OH210616   4.512   2.190   0.743  0.0655 -0.5142  0.1467
 3537TIP3    H110617   4.489   2.103   0.772  1.8240 -1.5739 -1.3808
 3537TIP3    H210618   4.497   2.247   0.818  0.6229 -2.4329  1.7667
 3538TIP3   OH210619   3.208   1.712   3.095  0.0027  0.3401  0.2737
 3538TIP3    H110620   3.242   1.635   3.141  2.8322  0.7158 -0.9790
 3538TIP3    H210621   3.269   1.782   3.116 -2.0456  2.0907  0.7053
 3539TIP3   OH210622   0.938   3.998   3.924 -0.5280 -0.0521  0.0970
 3539TIP3    H110623   0.965   3.925   3.980  0.7223 -0.9871 -1.6400
 3539TIP3    H210624   0.865   3.964   3.873 -0.5373  0.2182 -0.0755
 3540TIP3   OH210625   1.184   0.501   0.020 -0.6818 -0.1939 -0.1958
 3540TIP3    H110626   1.195   0.565  -0.050 -0.3308 -0.4286 -0.3541
 3540TIP3    H210627   1.250   0.524   0.085  1.0476 -1.8061 -1.2998
 3541TIP3   OH210628   3.383   3.775   3.538  0.2600 -0.3230 -0.1668
 3541TIP3    H110629   3.444   3.823   3.593  0.6418 -1.4158  0.3841
 3541TIP3    H210630   3.438   3.735   3.471  0.1124 -1.0758  0.1598
 3542TIP3   OH210631   4.924   0.719   4.615 -0.2324 -0.8541  0.6116
 3542TIP3    H110632   4.865   0.682   4.680  0.6781 -1.7129  0.9819
 3542TIP3    H210633   4.959   0.643   4.568  0.0884 -0.3283 -0.0233
 3543TIP3   OH210634   4.395   4.923   2.616  0.1633 -0.3073 -0.4779
 3543TIP3    H110635   4.406   5.018   2.610  1.8327 -0.4518 -0.0209
 3543TIP3    H210636   4.371   4.907   2.707  3.3398 -0.5641  0.4260
 3544TIP3   OH210637   3.518   1.917   3.563  0.1964 -0.3051  0.0428
 3544TIP3    H110638   3.489   1.827   3.582 -1.6200  0.7412  2.8707
 3544TIP3    H210639   3.445   1.954   3.512  0.1448  0.0663  0.3881
 3545TIP3   OH210640   3.028   0.590   4.785  0.7938  0.5179 -0.6529
 3545TIP3    H110641   3.073   0.505   4.783  1.0716  0.6670 -0.6577
 3545TIP3    H210642   2.936   0.567   4.796  0.9707  0.2449  0.3071
 3546TIP3   OH210643   5.206   4.933   4.103  0.1008  0.5040 -0.3212
 3546TIP3    H110644   5.189   4.976   4.186 -0.7669  0.3783 -0.4316
 3546TIP3    H210645   5.146   4.859   4.101  0.4200  0.2494 -0.8703
 3547TIP3   OH210646   3.868   5.358   4.112 -0.4994  0.0968  0.1926
 3547TIP3    H110647   3.808   5.286   4.131 -1.0631  0.0437 -1.6307
 3547TIP3    H210648   3.899   5.341   4.023  1.9662  0.3197  0.9233
 3548TIP3   OH210649   0.529   2.660   4.985  0.3168  1.0950  0.1330
 3548TIP3    H110650   0.514   2.591   5.050  0.3723  1.6557  0.7448
 3548TIP3    H210651   0.527   2.614   4.901 -0.3379  0.4510  0.4859
 3549TIP3   OH210652   2.687   2.727   1.203 -0.4472  0.2809 -0.2529
 3549TIP3    H110653   2.707   2.802   1.147 -1.5205  1.7464  1.2372
 3549TIP3    H210654   2.632   2.670   1.149  1.9199 -0.4537 -2.0584
 3550TIP3   OH210655  -0.002   5.750   2.763 -0.7408  0.0066 -0.8701
 3550TIP3    H110656  -0.036   5.665   2.737 -1.6002  0.7866 -2.4938
 3550TIP3    H210657   0.066   5.731   2.828 -2.2924 -1.7723  0.3206
 3551TIP3   OH210658   0.939   4.954   4.381 -0.2254 -0.2861 -0.3319
 3551TIP3    H110659   0.865   4.953   4.321 -0.2748 -0.9264 -0.2633
 3551TIP3    H210660   0.900   4.951   4.468 -0.1056 -1.3691 -0.3088
 3552TIP3   OH210661   0.737   3.756   2.579  0.2021  0.3781 -0.2370
 3552TIP3    H110662   0.778   3.720   2.500 -1.8255 -0.7497 -0.8572
 3552TIP3    H210663   0.750   3.850   2.572  1.8014  0.1383 -0.8622
 3553TIP3   OH210664   1.228   4.494   3.185  0.2514  0.3980 -0.2612
 3553TIP3    H110665   1.307   4.493   3.240  0.1487 -0.2195 -0.1198
 3553TIP3    H210666   1.261   4.498   3.095  0.4191  1.5391 -0.1656
 3554TIP3   OH210667   1.217   5.955   2.124 -0.3147 -0.3636 -0.3289
 3554TIP3    H110668   1.143   6.014   2.137 -0.2465  0.0738 -1.6855
 3554TIP3    H210669   1.290   6.013   2.100 -0.2295 -0.9537 -1.6385
 3555TIP3   OH210670   5.372   1.266   4.238 -0.4838 -0.4895 -0.0507
 3555TIP3    H110671   5.354   1.324   4.164  0.5169 -1.8853 -1.4388
 3555TIP3    H210672   5.304   1.199   4.234 -1.0574  0.0141  0.9580
 3556TIP3   OH210673   3.462   0.871   4.519  0.3265  0.3300 -0.1978
 3556TIP3    H110674   3.388   0.812   4.499 -0.2024  0.5598  1.0061
 3556TIP3    H210675   3.472   0.923   4.440  0.4817 -1.0336 -1.1168
 3557TIP3   OH210676   1.407   1.641   0.457  0.1641  0.1440  0.8292
 3557TIP3    H110677   1.431   1.729   0.485 -0.0617  0.7716 -0.8352
 3557TIP3    H210678   1.474   1.584   0.495  0.6381  1.0948  1.4414
 3558TIP3   OH210679   0.912   6.005   3.974 -0.2866  0.1054 -0.9043
 3558TIP3    H110680   0.875   6.009   4.062 -2.0281 -2.2065 -1.4272
 3558TIP3    H210681   0.975   5.933   3.978 -0.6998 -0.3096 -1.6319
 3559TIP3   OH210682   5.481   4.469   0.467 -0.3370  0.2301  0.8313
 3559TIP3    H110683   5.462   4.496   0.377  1.6352  1.7826  0.7929
 3559TIP3    H210684   5.531   4.388   0.458  0.9137  1.0195  0.4127
 3560TIP3   OH210685   5.265   1.307   3.350  0.4416  0.1847  0.0148
 3560TIP3    H110686   5.263   1.264   3.265 -0.7195  0.5139 -0.1416
 3560TIP3    H210687   5.247   1.237   3.413 -0.0208  0.1797 -0.1225
 3561TIP3   OH210688   1.392   1.004   3.162 -0.3209  0.0169 -0.2762
 3561TIP3    H110689   1.369   1.077   3.220  1.3717  0.0590  0.4069
 3561TIP3    H210690   1.459   1.040   3.104 -1.7924 -0.1025 -2.1383
 3562TIP3   OH210691   2.077   3.671   1.026 -0.0881  0.7587 -0.0013
 3562TIP3    H110692   2.089   3.753   0.979 -2.0357  0.8936 -0.3536
 3562TIP3    H210693   2.005   3.688   1.086 -0.4439 -0.6503  0.0069
 3563TIP3   OH210694   4.710   5.225   4.829 -0.3033 -0.1155 -0.5949
 3563TIP3    H110695   4.636   5.283   4.846  0.0131 -0.3072  1.8656
 3563TIP3    H210696   4.786   5.283   4.824 -0.0622 -0.2005  1.3296
 3564TIP3   OH210697   6.321   2.075   0.959 -0.3768 -0.4087 -0.4647
 3564TIP3    H110698   6.380   2.124   0.901  0.1339 -1.0352 -0.4943
 3564TIP3    H210699   6.346   2.102   1.047  0.9553 -1.7109 -0.4007
 3565TIP3   OH210700   5.293   4.752   1.907 -0.6411 -0.6257 -0.1333
 3565TIP3    H110701   5.254   4.722   1.989 -1.6878  0.4245 -0.2298
 3565TIP3    H210702   5.299   4.847   1.916 -0.2483 -0.5559 -1.0452
 3566TIP3   OH210703   0.074   2.234   2.558  0.3423  0.2899 -0.1930
 3566TIP3    H110704   0.011   2.258   2.490 -0.1589  2.2175  0.8751
 3566TIP3    H210705   0.029   2.167   2.610 -1.0671  1.9125  0.7835
 3567TIP3   OH210706   2.338   5.037   4.722 -0.3592 -0.4210  0.2164
 3567TIP3    H110707   2.428   5.055   4.750 -0.5257 -1.1092  1.2712
 3567TIP3    H210708   2.347   4.994   4.637  0.3480 -0.9536  0.5551
 3568TIP3   OH210709   4.487   3.860   4.901 -0.9457  0.0552  0.2268
 3568TIP3    H110710   4.556   3.927   4.908 -1.5405  0.5769  1.2776
 3568TIP3    H210711   4.534   3.781   4.872  0.1829  0.2628  1.3919
 3569TIP3   OH210712   2.022   1.222   3.464  0.7552 -0.4838 -0.2050
 3569TIP3    H110713   1.998   1.205   3.555  1.3552 -0.1412  0.0278
 3569TIP3    H210714   1.982   1.151   3.415 -0.5139 -0.0639  0.1786
 3570TIP3   OH210715   1.693   3.523   2.569 -0.0868  0.6897  0.4210
 3570TIP3    H110716   1.667   3.583   2.499  1.1787 -0.0768 -0.7627
 3570TIP3    H210717   1.743   3.578   2.629 -0.9540  1.3008  0.6123
 3571TIP3   OH210718   1.040   1.955   1.627  0.3616  0.3949 -0.0705
 3571TIP3    H110719   1.066   1.941   1.718 -3.3314  0.4774  1.1369
 3571TIP3    H210720   1.050   1.869   1.586  1.5776  0.2384  0.4982
 3572TIP3   OH210721   3.351   5.610   4.366  0.3176  0.1037 -0.0421
 3572TIP3    H110722   3.445   5.621   4.351  0.3482 -0.1636 -0.0584
 3572TIP3    H210723   3.335   5.517   4.350  0.0715  0.1226  0.0827
 3573TIP3   OH210724   3.646   4.710   2.459 -0.2043 -0.2482 -0.5048
 3573TIP3    H110725   3.624   4.793   2.417  0.2201 -0.0393 -0.3213
 3573TIP3    H210726   3.563   4.665   2.468 -0.8206  1.1799  1.6247
 3574TIP3   OH210727   4.927   1.378   4.332  0.0840  0.3775 -0.0760
 3574TIP3    H110728   4.902   1.470   4.335 -0.2194  0.3002 -0.2406
 3574TIP3    H210729   4.857   1.335   4.283  0.2510  0.0679 -0.0480
 3575TIP3   OH210730   1.616   1.078   3.005 -0.3900  0.2089 -0.3339
 3575TIP3    H110731   1.683   1.144   3.022 -1.8544  1.9302 -0.8872
 3575TIP3    H210732   1.659   1.015   2.947  1.5703 -0.3141  1.5519
 3576TIP3   OH210733   5.528   2.942   1.584  0.4344  0.0709 -0.4973
 3576TIP3    H110734   5.500   2.927   1.675 -0.9805 -0.5234 -0.9964
 3576TIP3    H210735   5.622   2.959   1.590  0.6149 -1.2083  0.9564
 3577TIP3   OH210736   3.346   0.687   3.153 -0.4766 -0.6445 -0.2750
 3577TIP3    H110737   3.410   0.687   3.082 -1.9899 -3.0341 -1.7996
 3577TIP3    H210738   3.292   0.764   3.137  0.0017 -0.4301 -0.9100
 3578TIP3   OH210739   0.816   3.885   3.096  0.3129  0.6290  0.0125
 3578TIP3    H110740   0.840   3.839   3.176  0.7699 -1.4232 -1.2336
 3578TIP3    H210741   0.724   3.863   3.081  0.3746  0.5662 -0.2905
 3579TIP3   OH210742   1.496   0.926   2.603  0.1472  0.5445 -1.2769
 3579TIP3    H110743   1.415   0.946   2.650  0.9744  0.1463  0.4108
 3579TIP3    H210744   1.541   1.010   2.594 -0.4979  0.7937 -2.3688
 3580TIP3   OH210745   2.740   5.179   1.731 -0.1166 -0.0416  0.9169
 3580TIP3    H110746   2.672   5.164   1.797  0.1909  0.4750  1.3608
 3580TIP3    H210747   2.819   5.195   1.782  0.2072 -0.0221  0.4128
 3581TIP3   OH210748   5.873   4.740   1.324 -0.0564  0.0380 -0.5020
 3581TIP3    H110749   5.960   4.772   1.302  0.3079  0.0124  0.8325
 3581TIP3    H210750   5.861   4.664   1.267  1.5392 -1.0409  0.5135
 3582TIP3   OH210751   3.173   4.481   5.015  0.5106 -0.4578  0.4592
 3582TIP3    H110752   3.170   4.572   4.985  0.2307 -0.7701 -0.4754
 3582TIP3    H210753   3.262   4.452   4.997  0.4565 -0.5212  0.2909
 3583TIP3   OH210754   0.632   0.957   1.458 -0.3228 -0.0969  0.0276
 3583TIP3    H110755   0.587   1.033   1.421  2.9014  0.8924 -2.2703
 3583TIP3    H210756   0.679   0.991   1.534 -0.6934 -0.3508  0.3759
 3584TIP3   OH210757   2.025   4.174   1.353  0.1856  0.0861 -0.3127
 3584TIP3    H110758   1.940   4.164   1.395 -0.9652 -1.8928 -2.8447
 3584TIP3    H210759   2.080   4.107   1.394  0.4007  0.9377  0.8640
 3585TIP3   OH210760   3.561   2.286   3.378  0.3422  0.1503 -0.3974
 3585TIP3    H110761   3.608   2.328   3.451  0.6240 -0.2055 -0.3726
 3585TIP3    H210762   3.629   2.266   3.314  0.1195  0.2916 -0.6775
 3586TIP3   OH210763   2.834   4.622   3.264 -0.2676 -0.8296  0.3113
 3586TIP3    H110764   2.909   4.672   3.232 -0.0972  0.2221  2.2163
 3586TIP3    H210765   2.833   4.543   3.210  0.0965  0.7098 -2.0675
 3587TIP3   OH210766   3.537   3.171   2.707  0.2029  0.8862 -0.8106
 3587TIP3    H110767   3.451   3.148   2.744  1.3834  0.5923  2.0528
 3587TIP3    H210768   3.534   3.140   2.617 -1.8607 -1.3845 -0.0773
 3588TIP3   OH210769   2.051   3.247   2.758  0.0309  0.2824 -0.1521
 3588TIP3    H110770   2.030   3.324   2.811 -0.4304  0.2393 -0.2626
 3588TIP3    H210771   2.145   3.234   2.769  0.0147  0.5404  0.3007
 3589TIP3   OH210772   2.587   3.107   0.283  0.3895  0.1290  0.4324
 3589TIP3    H110773   2.633   3.050   0.344 -0.2198  0.0572  0.8350
 3589TIP3    H210774   2.560   3.049   0.212 -0.0742 -0.0485  0.7542
 3590TIP3   OH210775   1.270   5.847   4.897 -0.1524 -0.7387  0.6115
 3590TIP3    H110776   1.357   5.817   4.871 -0.7997 -1.6684 -0.5696
 3590TIP3    H210777   1.287   5.920   4.957  1.4939  1.8405 -2.6697
 3591TIP3   OH210778   1.513   0.902   0.944  0.2960  0.4559  0.3022
 3591TIP3    H110779   1.593   0.901   0.996  0.6563  0.0342 -0.2532
 3591TIP3    H210780   1.543   0.898   0.854 -0.3334  0.8959  0.0652
 3592TIP3   OH210781   4.272   2.964   3.433 -0.0889 -0.2494 -0.1673
 3592TIP3    H110782   4.349   2.944   3.487 -0.5930  0.6518  0.9401
 3592TIP3    H210783   4.271   2.896   3.365  0.6128 -1.3805  0.9180
 3593TIP3   OH210784   5.999   3.259   4.129 -0.0107 -0.3995  0.0726
 3593TIP3    H110785   5.908   3.256   4.160 -0.0990  2.3993  0.3185
 3593TIP3    H210786   6.007   3.182   4.074 -2.1529 -1.4173  1.0465
 3594TIP3   OH210787   3.231   4.130   3.280  0.3737 -0.1528 -0.3743
 3594TIP3    H110788   3.150   4.133   3.229 -0.5549  2.0923  1.0633
 3594TIP3    H210789   3.288   4.194   3.238  0.7949 -0.5665 -0.4378
 3595TIP3   OH210790   0.969   3.246   4.544 -0.6949 -0.4950 -0.5082
 3595TIP3    H110791   1.022   3.231   4.622  0.2336  0.7613 -0.8718
 3595TIP3    H210792   0.897   3.184   4.552 -0.3802 -0.6948  1.1283
 3596TIP3   OH210793   0.544   1.123   0.040 -0.1247  0.0937  0.2777
 3596TIP3    H110794   0.599   1.139  -0.036  0.3165  0.0626  0.5801
 3596TIP3    H210795   0.515   1.032   0.031 -0.2168  0.1455  0.0601
 3597TIP3   OH210796   5.510   4.872   4.958  0.4744 -0.1446  0.4168
 3597TIP3    H110797   5.549   4.785   4.973  1.7743  0.5201  1.0639
 3597TIP3    H210798   5.585   4.928   4.937 -0.6487  0.1659 -3.4900
 3598TIP3   OH210799   1.285   2.143   2.095  0.6656  0.0417  0.1333
 3598TIP3    H110800   1.331   2.209   2.147  1.1340  1.0000 -1.4536
 3598TIP3    H210801   1.344   2.068   2.095  0.6279 -0.0052  1.0230
 3599TIP3   OH210802   2.369   1.330   3.122  0.3184  0.4191  0.5598
 3599TIP3    H110803   2.459   1.306   3.100  0.3081  0.3922  0.5474
 3599TIP3    H210804   2.325   1.246   3.138 -0.2790  0.2638 -1.6168
 3600TIP3   OH210805   5.966   0.304   2.393 -0.2136  0.0987 -0.2334
 3600TIP3    H110806   6.049   0.318   2.349  1.3774 -1.2983  2.0596
 3600TIP3    H210807   5.902   0.297   2.323  1.9717 -1.0779 -2.2541
 3601TIP3   OH210808   1.401   2.635   0.957 -0.0341 -0.1984  0.3448
 3601TIP3    H110809   1.413   2.541   0.967  1.3869  0.0794  1.6091
 3601TIP3    H210810   1.401   2.650   0.863  0.1612 -1.4124  0.1381
 3602TIP3   OH210811   6.155   4.148   1.838  0.0955  0.6007 -0.1859
 3602TIP3    H110812   6.195   4.092   1.770 -0.6302 -0.3514  0.1444
 3602TIP3    H210813   6.191   4.115   1.920 -1.0336 -0.0106  0.0852
 3603TIP3   OH210814   6.250   5.284   0.562  0.4619 -0.2323  0.5805
 3603TIP3    H110815   6.209   5.276   0.647  1.2999 -0.1158  1.0041
 3603TIP3    H210816   6.250   5.195   0.527 -0.7930 -0.1261  0.2504
 3604TIP3   OH210817   3.873   4.368   2.603  0.1621  0.6052 -0.6590
 3604TIP3    H110818   3.953   4.319   2.583 -0.3500 -1.0523  1.0457
 3604TIP3    H210819   3.804   4.319   2.560 -0.1152  1.1514 -0.8425
 3605TIP3   OH210820   0.655   2.897   0.654 -0.0985  0.4087 -0.0653
 3605TIP3    H110821   0.689   2.812   0.626  0.2286  0.9489 -1.3694
 3605TIP3    H210822   0.699   2.914   0.738  0.0942 -0.5504  0.0314
 3606TIP3   OH210823   0.307   0.251   0.563 -0.1503 -0.5738  0.0437
 3606TIP3    H110824   0.273   0.167   0.592 -2.2808  0.5680  1.1357
 3606TIP3    H210825   0.263   0.268   0.479  3.4021 -2.2926 -2.4538
 3607TIP3   OH210826   1.161   4.965   0.203 -0.1962 -0.5855 -0.2262
 3607TIP3    H110827   1.247   4.932   0.226 -0.6288 -1.0129  0.8309
 3607TIP3    H210828   1.100   4.898   0.234 -1.1307  1.2580  2.2666
 3608TIP3   OH210829   2.257   5.649   2.474  0.1901 -0.2577  0.6270
 3608TIP3    H110830   2.196   5.666   2.545 -0.1962  0.9108  0.0469
 3608TIP3    H210831   2.204   5.613   2.404  0.4817 -0.9198  0.7396
 3609TIP3   OH210832   0.601   2.973   0.195 -0.8909 -0.1961 -0.5337
 3609TIP3    H110833   0.635   3.028   0.266  0.6570 -0.4114 -1.0649
 3609TIP3    H210834   0.575   3.034   0.127 -0.2556 -0.0653 -0.6640
 3610TIP3   OH210835   4.982   0.978   0.273 -0.3328  0.0180  0.1393
 3610TIP3    H110836   4.977   1.026   0.191 -1.1950  0.8392  0.6451
 3610TIP3    H210837   4.964   0.887   0.249  0.2321  0.1103 -0.6799
 3611TIP3   OH210838   0.537   4.222   1.009 -0.0750  0.1480  0.6602
 3611TIP3    H110839   0.472   4.244   0.942  0.1474  1.1302  0.7634
 3611TIP3    H210840   0.495   4.246   1.092 -0.0279 -0.3030  0.8180
 3612TIP3   OH210841   1.954   4.788   0.337  0.4197 -0.2742 -0.3147
 3612TIP3    H110842   2.048   4.768   0.342  0.8492  1.6747  0.1480
 3612TIP3    H210843   1.950   4.882   0.324 -1.4991 -0.1366  0.8333
 3613TIP3   OH210844   1.370   4.825   3.561 -0.4308 -0.4481 -0.1780
 3613TIP3    H110845   1.299   4.835   3.625 -0.7851 -0.0918 -0.6280
 3613TIP3    H210846   1.404   4.737   3.578 -0.3909 -0.2792  0.6360
 3614TIP3   OH210847   0.929   0.911   0.008 -0.6007 -0.4570 -0.5335
 3614TIP3    H110848   0.915   0.824  -0.028  0.2109 -1.9714  2.4913
 3614TIP3    H210849   1.023   0.915   0.029 -0.5370  1.3085 -0.9247
 3615TIP3   OH210850   3.990   5.265   3.844 -0.0505 -0.1441 -0.1307
 3615TIP3    H110851   4.013   5.178   3.875 -0.9589 -1.0478 -1.8244
 3615TIP3    H210852   3.934   5.249   3.768 -0.3239  1.9230 -0.4220
 3616TIP3   OH210853   1.417   1.096   0.361  0.1936 -0.0648  0.1140
 3616TIP3    H110854   1.386   1.055   0.441  1.7822  0.3025  0.9530
 3616TIP3    H210855   1.357   1.169   0.346 -1.6507 -1.6216 -0.4833
 3617TIP3   OH210856   4.007   2.529   3.336 -0.2334 -0.2811 -0.4990
 3617TIP3    H110857   3.981   2.576   3.256  0.7136 -1.0677 -1.2892
 3617TIP3    H210858   3.924   2.514   3.382 -0.5969  1.9464 -0.3018
 3618TIP3   OH210859   3.805   4.722   0.013 -0.5419 -0.2018 -0.0475
 3618TIP3    H110860   3.819   4.672  -0.067 -1.2701 -0.5853  0.0486
 3618TIP3    H210861   3.830   4.663   0.083 -0.1507  0.0415  0.0192
 3619TIP3   OH210862   4.410   5.602   3.475  0.6005  0.0935 -0.0874
 3619TIP3    H110863   4.388   5.521   3.521 -0.3156  0.2868 -0.1573
 3619TIP3    H210864   4.380   5.587   3.385  1.1229  0.2311 -0.2902
 3620TIP3   OH210865   4.147   1.029   3.455 -0.6069  0.0495 -0.2297
 3620TIP3    H110866   4.150   1.047   3.549  2.6248  0.0329 -0.2127
 3620TIP3    H210867   4.156   1.115   3.414  1.2836 -0.1887 -0.4001
 3621TIP3   OH210868   3.993   0.295   3.351  0.5414 -0.0129  0.7941
 3621TIP3    H110869   3.950   0.364   3.401  2.4651  1.9185 -0.1057
 3621TIP3    H210870   4.067   0.337   3.308 -0.8927 -1.4536 -3.7534
 3622TIP3   OH210871   3.563   4.139   4.249  0.1468  0.1725  0.3024
 3622TIP3    H110872   3.615   4.118   4.171  1.0040  0.1959  0.8560
 3622TIP3    H210873   3.576   4.064   4.308 -0.9948 -0.1370  0.1930
 3623TIP3   OH210874   2.580   0.283   4.159 -0.2704 -0.0115 -0.2122
 3623TIP3    H110875   2.586   0.365   4.111 -0.5792  1.0378  1.4486
 3623TIP3    H210876   2.599   0.307   4.250  0.0652 -1.8596  0.2522
 3624TIP3   OH210877   5.959   3.739   2.640 -0.2836 -0.1386 -0.0659
 3624TIP3    H110878   6.053   3.750   2.626 -0.3807  1.2612  0.2839
 3624TIP3    H210879   5.951   3.718   2.733 -0.2550 -1.3921 -0.3247
 3625TIP3   OH210880   3.466   1.781   3.187  0.3271  0.0222  0.6449
 3625TIP3    H110881   3.453   1.872   3.214 -0.9033  0.0829 -0.0419
 3625TIP3    H210882   3.478   1.733   3.269 -0.2275  0.6360  1.1015
 3626TIP3   OH210883   0.360   0.030   2.012  0.1285  0.6077 -0.0741
 3626TIP3    H110884   0.328   0.058   1.927  1.5609 -0.1506 -0.9104
 3626TIP3    H210885   0.450   0.001   1.995  0.0141 -0.7679  1.4518
 3627TIP3   OH210886   3.876   0.026   4.543 -0.2134  0.0587  0.1131
 3627TIP3    H110887   3.945   0.087   4.570 -0.7641 -0.0212  1.8165
 3627TIP3    H210888   3.906  -0.060   4.573 -0.0209 -0.3413 -1.1692
 3628TIP3   OH210889   0.697   4.680   4.985  0.2142 -0.4754  0.0154
 3628TIP3    H110890   0.749   4.749   4.946  1.1226 -1.5757 -0.7742
 3628TIP3    H210891   0.720   4.683   5.078 -0.6792  1.0440  0.2272
 3629TIP3   OH210892   0.006   4.419   4.093  0.0008 -0.0189  0.3642
 3629TIP3    H110893  -0.016   4.396   4.183  1.5265  0.7407  0.9728
 3629TIP3    H210894   0.097   4.390   4.082 -0.2440 -0.3222 -1.0202
 3630TIP3   OH210895   3.630   2.929   3.617  0.0979  0.4206 -0.2329
 3630TIP3    H110896   3.635   2.856   3.679  2.1029  1.4903  0.9785
 3630TIP3    H210897   3.672   2.895   3.538 -0.9033 -0.4022 -0.4252
 3631TIP3   OH210898   4.332   0.649   4.543  0.1321  0.3279  0.2219
 3631TIP3    H110899   4.391   0.621   4.473 -0.0319  0.6396 -0.0427
 3631TIP3    H210900   4.261   0.585   4.541  0.5813 -0.2046  0.7140
 3632TIP3   OH210901   2.679   3.619   4.312 -0.0468 -0.0981 -0.5770
 3632TIP3    H110902   2.642   3.692   4.361  0.8709 -1.7966  3.0213
 3632TIP3    H210903   2.618   3.604   4.240 -1.5402  2.6036 -0.0016
 3633TIP3   OH210904   6.202   1.979   4.128  0.2659 -0.2692  0.2168
 3633TIP3    H110905   6.129   1.961   4.069  0.2812  0.9340 -0.1860
 3633TIP3    H210906   6.256   1.900   4.124 -1.3936 -1.5061  1.1344
 3634TIP3   OH210907   6.154   5.211   1.693 -0.2499 -0.7875  0.2748
 3634TIP3    H110908   6.224   5.237   1.633  0.2788 -1.2448  0.6703
 3634TIP3    H210909   6.187   5.130   1.733 -1.1421 -1.1725  0.2479
 3635TIP3   OH210910   2.771   1.663   1.321 -1.0031 -0.4674  0.1743
 3635TIP3    H110911   2.765   1.724   1.395  1.4294 -1.0309  0.9112
 3635TIP3    H210912   2.793   1.579   1.361  0.2518 -0.8139 -1.1794
 3636TIP3   OH210913   5.060   2.435   2.064  0.4659 -0.2583  0.1266
 3636TIP3    H110914   5.120   2.395   2.001  1.7895  0.4336  0.8828
 3636TIP3    H210915   4.982   2.456   2.014  0.8060 -1.2858 -0.8793
 3637TIP3   OH210916   0.950   3.172   0.026  0.9839  0.2776 -0.0550
 3637TIP3    H110917   0.944   3.080   0.052  1.2036  0.2981  0.0737
 3637TIP3    H210918   1.033   3.202   0.064  0.0027  1.0664  1.5966
 3638TIP3   OH210919   1.700   4.170   0.130 -0.0377 -0.1353 -0.3999
 3638TIP3    H110920   1.730   4.229   0.061 -0.2485  0.2609 -0.1542
 3638TIP3    H210921   1.780   4.133   0.167  0.1991  1.3671  0.6512
 3639TIP3   OH210922   5.966   5.902   2.018 -0.5911 -0.0647  0.1971
 3639TIP3    H110923   5.948   5.986   2.059 -3.2429 -0.9873  1.1218
 3639TIP3    H210924   5.955   5.838   2.088 -1.1604 -1.3687 -1.0322
 3640TIP3   OH210925   6.318   3.595   4.553 -0.2268  0.4971  0.1459
 3640TIP3    H110926   6.343   3.505   4.531  0.5740 -0.1027  3.1358
 3640TIP3    H210927   6.236   3.586   4.601 -0.9272  1.5384 -0.8155
 3641TIP3   OH210928   1.266   4.458   1.813 -0.1607  0.0129  0.0229
 3641TIP3    H110929   1.360   4.474   1.821 -0.3041  1.0211 -0.1712
 3641TIP3    H210930   1.257   4.364   1.826  0.4659  0.3127  4.1167
 3642TIP3   OH210931   2.790   4.267   1.150 -0.0997  0.2293 -0.3463
 3642TIP3    H110932   2.717   4.209   1.172 -1.1977  1.4133 -0.7701
 3642TIP3    H210933   2.812   4.243   1.060 -1.0650  0.9704 -0.7933
 3643TIP3   OH210934   2.495   0.757   5.085 -0.1954  0.6146 -0.5793
 3643TIP3    H110935   2.466   0.674   5.047 -0.8250  0.4039  0.3209
 3643TIP3    H210936   2.436   0.822   5.049  0.1398  0.6416 -1.0910
 3644TIP3   OH210937   0.490   2.321   4.546 -0.0884  0.9495 -0.0759
 3644TIP3    H110938   0.423   2.377   4.505  0.9774  1.8497 -0.6457
 3644TIP3    H210939   0.540   2.287   4.473 -1.5981 -2.0292  0.1336
 3645TIP3   OH210940   0.846   5.864   2.165 -0.0594  0.2996  0.0631
 3645TIP3    H110941   0.751   5.877   2.172  0.1216  1.2761  0.9555
 3645TIP3    H210942   0.879   5.881   2.253  0.8421 -1.0867  0.0124
 3646TIP3   OH210943   2.093   1.571   1.033  0.3577 -0.2356  0.2315
 3646TIP3    H110944   2.016   1.608   0.990  0.6190  0.4900  0.3804
 3646TIP3    H210945   2.064   1.553   1.122 -0.0949 -1.4534 -0.1474
 3647TIP3   OH210946   5.421   4.087   4.696 -0.2182  0.6151  0.6206
 3647TIP3    H110947   5.487   4.024   4.726 -1.2822 -0.6933  0.2975
 3647TIP3    H210948   5.456   4.173   4.723  1.4881 -0.0495  0.6609
 3648TIP3   OH210949   2.606   1.184   3.207  0.6229 -0.2297  0.2029
 3648TIP3    H110950   2.677   1.173   3.271  0.5016 -0.6616  0.2644
 3648TIP3    H210951   2.580   1.095   3.185 -0.0652 -0.0709  0.3613
 3649TIP3   OH210952   2.348   4.556   4.707  0.1590 -0.2096  0.1541
 3649TIP3    H110953   2.321   4.624   4.769  0.3223 -0.6474  0.7125
 3649TIP3    H210954   2.274   4.495   4.704  0.2300 -0.2916  0.0616
 3650TIP3   OH210955   4.689   0.278   1.667  0.1491 -0.2284  0.0824
 3650TIP3    H110956   4.770   0.243   1.631  1.7642  2.0446  1.2475
 3650TIP3    H210957   4.675   0.229   1.748  0.3191 -0.6905 -0.1712
 3651TIP3   OH210958   0.699   0.193   0.685  0.2429 -0.0668  0.3505
 3651TIP3    H110959   0.787   0.185   0.647  0.5681  1.8180  0.6007
 3651TIP3    H210960   0.665   0.275   0.648 -0.9705 -0.2016  1.1253
 3652TIP3   OH210961   4.032   1.279   0.789 -0.5385 -0.0001  0.2110
 3652TIP3    H110962   4.109   1.334   0.780 -1.0643  0.8837  0.9411
 3652TIP3    H210963   4.044   1.235   0.873 -1.2458  0.8307  0.7577
 3653TIP3   OH210964   4.913   1.649   1.520 -0.1687  0.2068  0.0679
 3653TIP3    H110965   4.822   1.670   1.500  0.2195  1.7709 -0.2194
 3653TIP3    H210966   4.960   1.668   1.439  0.4538 -0.2427  0.3234
 3654TIP3   OH210967   0.288   4.567   0.284  0.0030 -0.1714 -0.3233
 3654TIP3    H110968   0.225   4.620   0.332 -2.2175 -1.1297 -2.0198
 3654TIP3    H210969   0.292   4.484   0.333  0.4508  0.0993  0.1146
 3655TIP3   OH210970   4.570   3.796   0.648  0.4257 -0.0193  0.5801
 3655TIP3    H110971   4.591   3.887   0.626  3.1042 -0.2477  1.8976
 3655TIP3    H210972   4.499   3.773   0.587  1.2465  2.2013 -1.3649
 3656TIP3   OH210973   3.550   3.032   4.105 -0.1861 -0.1043  0.0221
 3656TIP3    H110974   3.607   2.968   4.148  0.1048  1.0782  1.4990
 3656TIP3    H210975   3.523   3.091   4.176 -3.2300 -0.5527 -0.6388
 3657TIP3   OH210976   5.912   5.770   0.676 -0.2121  0.0693 -0.0295
 3657TIP3    H110977   5.950   5.831   0.740  0.0341 -0.4267  0.2967
 3657TIP3    H210978   5.844   5.821   0.633  0.9805  1.0697 -0.8165
 3658TIP3   OH210979   1.838   5.871   3.546 -0.2606 -0.0391  0.0279
 3658TIP3    H110980   1.803   5.801   3.601 -0.1156  0.7379  1.1546
 3658TIP3    H210981   1.768   5.891   3.484 -0.1280 -1.4759 -0.6272
 3659TIP3   OH210982   5.645   1.106   1.074  0.2640  0.0515  0.0010
 3659TIP3    H110983   5.586   1.099   0.999  0.8903  0.9922 -0.6042
 3659TIP3    H210984   5.590   1.089   1.150 -0.6471  0.2591 -0.6006
 3660TIP3   OH210985   0.768   5.726   4.848  0.5474  0.3436 -0.4913
 3660TIP3    H110986   0.827   5.706   4.775  2.3627  0.1156  0.9567
 3660TIP3    H210987   0.718   5.645   4.861  2.3624 -0.7079  0.3892
 3661TIP3   OH210988   5.832   0.898   0.841 -0.2159  0.2769 -0.0122
 3661TIP3    H110989   5.746   0.856   0.841 -0.2151  0.2744  0.1788
 3661TIP3    H210990   5.872   0.870   0.923 -0.7427  1.7414  0.7793
 3662TIP3   OH210991   2.938   2.784   1.337  0.1054 -0.2043 -0.1262
 3662TIP3    H110992   2.986   2.772   1.255 -1.5251 -1.7225 -0.9374
 3662TIP3    H210993   2.869   2.846   1.314 -0.4904 -0.8026  0.0085
 3663TIP3   OH210994   0.498   3.188   4.681  0.5365 -0.1159 -0.2641
 3663TIP3    H110995   0.479   3.135   4.604  1.0700  0.4128 -0.7673
 3663TIP3    H210996   0.495   3.279   4.650 -0.4383  0.1683  0.6049
 3664TIP3   OH210997   5.188   0.962   1.375 -0.0405 -0.4685  0.4701
 3664TIP3    H110998   5.097   0.964   1.347 -0.1311  0.7819  0.7782
 3664TIP3    H210999   5.195   0.883   1.429 -0.3301 -1.8632 -1.4202
 3665TIP3   OH211000   4.086   3.156   2.851 -0.3387  0.3145 -0.4096
 3665TIP3    H111001   4.083   3.140   2.756  0.2449  0.4334 -0.4482
 3665TIP3    H211002   4.179   3.154   2.873 -0.4532  0.5976  0.1104
 3666TIP3   OH211003   3.412   0.729   3.561 -0.2986 -0.1004 -0.3446
 3666TIP3    H111004   3.425   0.814   3.603 -1.6638 -0.2374  0.4130
 3666TIP3    H211005   3.317   0.720   3.553 -0.1658 -1.3957 -0.7532
 3667TIP3   OH211006   3.880   5.841   3.902 -0.3034 -0.3328  0.4026
 3667TIP3    H111007   3.845   5.760   3.866 -0.2612 -0.9286  1.6214
 3667TIP3    H211008   3.803   5.891   3.929 -0.3311  0.0653 -0.3878
 3668TIP3   OH211009   3.705   5.189   3.394  0.9863  0.3701 -0.6752
 3668TIP3    H111010   3.700   5.188   3.298 -3.6385 -1.4080 -0.6550
 3668TIP3    H211011   3.636   5.250   3.421  0.7820 -0.7458  1.4983
 3669TIP3   OH211012   2.982   4.243   4.675  0.2436  0.6642  0.5407
 3669TIP3    H111013   2.940   4.300   4.739  0.0553  1.4463 -0.2468
 3669TIP3    H211014   3.052   4.199   4.723 -2.4206 -1.9557  2.3364
 3670TIP3   OH211015   2.803   0.349   4.818  0.6340  0.5121 -0.4586
 3670TIP3    H111016   2.772   0.360   4.908 -2.7630 -0.6118 -1.3165
 3670TIP3    H211017   2.760   0.419   4.770  1.1908  0.1934 -1.4360
 3671TIP3   OH211018   3.883   1.209   3.421  0.2564  0.7556  0.5130
 3671TIP3    H111019   3.879   1.303   3.406 -2.1021  0.7780  0.9294
 3671TIP3    H211020   3.923   1.200   3.507 -0.7339  1.4655  1.0596
 3672TIP3   OH211021   5.272   5.789   2.973  0.0264 -0.2089 -0.3019
 3672TIP3    H111022   5.275   5.701   2.936  0.2794 -0.8857  1.2756
 3672TIP3    H211023   5.232   5.842   2.904 -0.2098 -1.5609 -1.2471
 3673TIP3   OH211024   3.258   3.645   2.276 -0.0034  0.4017 -0.2291
 3673TIP3    H111025   3.213   3.703   2.338 -0.4298 -0.6149  0.4315
 3673TIP3    H211026   3.195   3.576   2.257  0.2656  0.4884 -1.5171
 3674TIP3   OH211027   4.660   0.182   3.590 -0.5195 -0.6757  0.4356
 3674TIP3    H111028   4.567   0.200   3.601 -0.5039  0.3534 -0.8237
 3674TIP3    H211029   4.665   0.126   3.512 -0.0649 -0.3870  0.2510
 3675TIP3   OH211030   4.588   4.536   2.814 -0.0370  0.1062 -0.0584
 3675TIP3    H111031   4.631   4.500   2.736  0.6737 -2.5854  1.4355
 3675TIP3    H211032   4.495   4.520   2.800  0.0450 -0.0232 -0.4813
 3676TIP3   OH211033   0.523   5.032   3.531  0.3837 -0.2044 -0.2081
 3676TIP3    H111034   0.431   5.021   3.553  0.4259 -1.2940 -0.4999
 3676TIP3    H211035   0.527   5.115   3.484 -0.5261 -0.3619 -0.5792
 3677TIP3   OH211036   3.959   2.516   2.118  0.3191  0.3738 -0.2819
 3677TIP3    H111037   3.888   2.507   2.182 -0.9501 -0.5426 -1.7686
 3677TIP3    H211038   3.988   2.606   2.129 -0.5580  0.5528  0.8772
 3678TIP3   OH211039   4.719   0.941   0.358  0.1249  0.2789 -0.5500
 3678TIP3    H111040   4.705   0.856   0.315  1.1395 -0.5991  0.7579
 3678TIP3    H211041   4.814   0.945   0.371  0.2498  2.1546 -1.5730
 3679TIP3   OH211042   1.065   1.829   2.336 -0.3932 -0.3967  0.0685
 3679TIP3    H111043   1.121   1.899   2.372  1.0007 -1.3424 -0.1830
 3679TIP3    H211044   0.981   1.872   2.321 -0.3942  0.5788  2.3801
 3680TIP3   OH211045   4.276   2.574   0.461 -0.6456  0.2677 -0.5218
 3680TIP3    H111046   4.349   2.619   0.420 -0.9603  0.6808 -0.6364
 3680TIP3    H211047   4.317   2.515   0.525 -0.1553 -0.3671 -1.3952
 3681TIP3   OH211048   5.776   3.289   3.234 -0.3196  0.3272 -0.3610
 3681TIP3    H111049   5.715   3.363   3.241  0.3670  0.8647  0.0288
 3681TIP3    H211050   5.835   3.314   3.162 -0.3534 -0.0448 -0.5184
 3682TIP3   OH211051   6.252   0.755   3.888 -0.1277  0.3287 -0.6034
 3682TIP3    H111052   6.180   0.692   3.884 -0.5181  0.7566 -0.4640
 3682TIP3    H211053   6.331   0.702   3.882 -0.4334 -0.2259  0.0981
 3683TIP3   OH211054   4.026   3.781   1.021 -0.0437  0.4575 -0.2503
 3683TIP3    H111055   3.980   3.724   0.960 -1.8603  2.0455 -0.4860
 3683TIP3    H211056   4.060   3.723   1.089 -0.7547 -1.0051 -1.1147
 3684TIP3   OH211057   4.153   0.900   4.048  0.3041 -0.0805 -0.3248
 3684TIP3    H111058   4.074   0.954   4.041 -0.8362 -1.6632 -0.3013
 3684TIP3    H211059   4.198   0.932   4.126 -3.0031 -2.3904  2.8345
 3685TIP3   OH211060   1.728   0.360   2.817 -0.0828  0.4844  0.4636
 3685TIP3    H111061   1.743   0.302   2.892 -1.1424  0.8595  0.9932
 3685TIP3    H211062   1.635   0.349   2.797  0.0508  0.8627 -0.3988
 3686TIP3   OH211063   5.823   0.747   3.690  0.1495  1.0424 -0.0540
 3686TIP3    H111064   5.863   0.677   3.741 -1.4008  0.9048  1.0671
 3686TIP3    H211065   5.875   0.752   3.610 -0.2715 -2.0618 -0.6478
 3687TIP3   OH211066   1.394   4.298   1.610 -0.3098 -0.1950  0.2130
 3687TIP3    H111067   1.339   4.375   1.597  0.5912  0.9528  2.6002
 3687TIP3    H211068   1.378   4.244   1.533 -1.9861  1.7508 -0.9095
 3688TIP3   OH211069   4.108   2.135   2.734 -0.4062 -0.3063 -0.3717
 3688TIP3    H111070   4.045   2.093   2.675 -1.2830 -0.0793  0.3704
 3688TIP3    H211071   4.063   2.135   2.819  0.0277  1.1309 -0.1232
 3689TIP3   OH211072   5.087   2.648   3.498  0.6579  0.1768  0.0913
 3689TIP3    H111073   5.141   2.589   3.446 -0.4121  1.0264 -2.1075
 3689TIP3    H211074   5.085   2.730   3.447 -2.0556  0.4245  0.4333
 3690TIP3   OH211075   4.547   1.330   0.458  0.0076  0.3252 -0.4173
 3690TIP3    H111076   4.504   1.260   0.506 -0.6557  1.7362  1.1321
 3690TIP3    H211077   4.480   1.363   0.398 -0.6133  1.4710  0.8672
 3691TIP3   OH211078   3.332   4.261   3.051 -0.4602  0.5484 -0.3099
 3691TIP3    H111079   3.307   4.288   2.962  2.3296  3.3157 -0.4670
 3691TIP3    H211080   3.417   4.219   3.040 -1.6602 -2.3795  0.7919
 3692TIP3   OH211081   3.706   2.522   4.724 -0.0448 -0.2782 -0.3673
 3692TIP3    H111082   3.773   2.524   4.793 -2.0934 -0.2141  1.7582
 3692TIP3    H211083   3.649   2.449   4.749 -2.4488  1.5056 -0.3361
 3693TIP3   OH211084   3.261   0.360   4.006 -0.3274 -0.7955 -0.1798
 3693TIP3    H111085   3.172   0.361   3.969 -0.7246  1.8295  0.6260
 3693TIP3    H211086   3.251   0.399   4.093  1.4455 -1.6008  0.4226
 3694TIP3   OH211087   6.260   0.601   2.429 -0.3468  0.3319  0.2551
 3694TIP3    H111088   6.170   0.601   2.462  0.0104 -0.5200  1.2824
 3694TIP3    H211089   6.265   0.679   2.374 -1.4612  0.8743  0.8830
 3695TIP3   OH211090   5.089   4.654   0.092  0.5145 -0.5951  0.3298
 3695TIP3    H111091   5.139   4.677   0.014 -0.2503  2.0528  0.5372
 3695TIP3    H211092   5.004   4.696   0.081  0.1123 -0.7931  2.2475
 3696TIP3   OH211093   3.002   4.065   3.132  0.0114 -0.8296  0.1819
 3696TIP3    H111094   3.047   3.990   3.094 -0.8976 -1.7496  0.8799
 3696TIP3    H211095   2.968   4.114   3.057  0.1189 -1.4304 -0.2588
 3697TIP3   OH211096   3.956   5.511   2.935  0.3701 -0.1927  0.3565
 3697TIP3    H111097   3.913   5.447   2.879 -1.1330 -0.5399  1.8003
 3697TIP3    H211098   3.893   5.583   2.942  0.4913 -0.1808  1.5860
 3698TIP3   OH211099   1.537   0.366   4.717 -0.0873  1.0762  0.3798
 3698TIP3    H111100   1.511   0.295   4.775  1.8016  1.5439  1.9045
 3698TIP3    H211101   1.620   0.337   4.678 -1.9698  0.1206 -3.4188
 3699TIP3   OH211102   4.473   1.445   4.170 -0.3940 -0.1590 -0.0849
 3699TIP3    H111103   4.504   1.514   4.111 -2.9864 -1.1444 -2.8980
 3699TIP3    H211104   4.377   1.450   4.163 -0.7140 -2.1838  1.9014
 3700TIP3   OH211105   4.188   2.621   5.136 -0.4993  0.1881  0.3887
 3700TIP3    H111106   4.256   2.656   5.194  0.2524 -0.5006 -0.0546
 3700TIP3    H211107   4.199   2.526   5.140 -1.3888  0.0661  0.2428
 3701TIP3   OH211108   6.385   5.958   2.493 -0.2191 -0.1856  0.4117
 3701TIP3    H111109   6.294   5.983   2.477 -0.0349  0.9976  1.0564
 3701TIP3    H211110   6.379   5.881   2.550 -0.8445  0.9215  1.9156
 3702TIP3   OH211111   4.041   0.287   4.526  0.0030 -0.4055 -0.0458
 3702TIP3    H111112   4.107   0.325   4.583  2.0792 -0.9656 -1.9223
 3702TIP3    H211113   3.976   0.357   4.514  2.3375  1.6990 -1.3008
 3703TIP3   OH211114   1.941   2.660   4.807 -0.2139 -0.1901  0.1619
 3703TIP3    H111115   1.959   2.568   4.824  1.0670  0.0822  0.4101
 3703TIP3    H211116   1.942   2.701   4.894 -4.7855 -0.4929  0.6060
 3704TIP3   OH211117   5.548   3.451   4.787 -0.1346  0.2909  0.1294
 3704TIP3    H111118   5.540   3.478   4.696 -1.6562 -0.4533  0.0165
 3704TIP3    H211119   5.490   3.376   4.795 -0.6259  0.8141  1.9002
 3705TIP3   OH211120   2.041   3.971   1.181 -0.0309  0.2874  0.4600
 3705TIP3    H111121   1.981   3.898   1.167  0.4265  0.0821 -0.4907
 3705TIP3    H211122   1.992   4.031   1.238 -1.7501  0.8472 -1.4734
 3706TIP3   OH211123   3.599   5.928   3.967  0.0720 -0.6527 -0.1153
 3706TIP3    H111124   3.560   6.012   3.990 -0.4586 -0.7295 -0.6935
 3706TIP3    H211125   3.530   5.864   3.984  0.7818 -1.0996  1.2200
 3707TIP3   OH211126   4.400   5.481   1.152 -0.2241  0.7472  0.0785
 3707TIP3    H111127   4.431   5.547   1.089  2.0858 -2.3293 -2.3019
 3707TIP3    H211128   4.305   5.479   1.139  0.0493  1.0101 -2.6089
 3708TIP3   OH211129   3.533   1.112   5.109 -0.7342  0.3005 -0.1435
 3708TIP3    H111130   3.462   1.085   5.051 -0.0953 -1.6370 -0.1028
 3708TIP3    H211131   3.579   1.181   5.061 -0.2590 -1.2148 -1.9577
 3709TIP3   OH211132   2.632   4.760   0.881  0.3911 -0.0507 -0.2500
 3709TIP3    H111133   2.592   4.779   0.966 -0.6971  0.6369 -0.8876
 3709TIP3    H211134   2.629   4.664   0.874 -0.2877 -0.0654  0.1361
 3710TIP3   OH211135   0.399   0.559   3.048  0.1123  0.2262  0.6701
 3710TIP3    H111136   0.488   0.591   3.059  0.3459  0.1304 -0.7554
 3710TIP3    H211137   0.399   0.473   3.089  1.3785 -0.8163 -1.3543
 3711TIP3   OH211138   2.881   2.459   0.068  0.0419 -0.0959  0.2255
 3711TIP3    H111139   2.926   2.516   0.006  1.1234  0.5625  1.5510
 3711TIP3    H211140   2.951   2.429   0.127 -0.4319 -2.9639 -0.5121
 3712TIP3   OH211141   1.045   0.805   4.016 -0.4133  0.1920 -1.1384
 3712TIP3    H111142   0.950   0.794   4.017 -0.3766 -0.3350 -2.1521
 3712TIP3    H211143   1.062   0.854   3.936  0.2866 -1.0209 -1.7554
 3713TIP3   OH211144   3.705   0.716   0.542  0.6460 -0.0549  0.0368
 3713TIP3    H111145   3.689   0.710   0.637  0.6223 -2.3865 -0.0355
 3713TIP3    H211146   3.800   0.714   0.534  0.6484  0.1775  0.0259
 3714TIP3   OH211147   1.836   3.824   4.973  0.1349  0.3494 -0.2363
 3714TIP3    H111148   1.810   3.871   5.052 -0.5783  0.6717 -0.6501
 3714TIP3    H211149   1.917   3.867   4.945 -0.3594  1.1755 -0.4552
 3715TIP3   OH211150   2.517   1.975   3.324  0.4656  0.2555 -0.4103
 3715TIP3    H111151   2.523   1.880   3.316  4.5785  0.0861  2.0489
 3715TIP3    H211152   2.539   2.008   3.237  1.8823 -1.1117 -0.6074
 3716TIP3   OH211153   1.967   1.310   0.750  0.3045  0.1786  0.3535
 3716TIP3    H111154   2.046   1.262   0.775  0.8111  0.9321  0.2413
 3716TIP3    H211155   1.896   1.246   0.760  1.0245 -0.7682 -0.3682
 3717TIP3   OH211156   5.391   5.379   2.799  0.2035 -0.8162  0.3166
 3717TIP3    H111157   5.337   5.434   2.855 -1.0518 -0.2401 -1.3942
 3717TIP3    H211158   5.342   5.297   2.792  0.2024 -0.7755 -0.1690
 3718TIP3   OH211159   3.976   3.405   1.562  0.2215  0.2927 -0.8206
 3718TIP3    H111160   4.023   3.383   1.643  0.3445  1.6843 -0.4935
 3718TIP3    H211161   3.884   3.391   1.584  0.3026 -0.0568 -0.6850
 3719TIP3   OH211162   5.807   3.956   3.777  0.6108 -0.3023  0.0004
 3719TIP3    H111163   5.864   3.921   3.708  0.1422  0.1199 -0.6188
 3719TIP3    H211164   5.860   4.021   3.822  0.6277  0.0932 -0.5759
 3720TIP3   OH211165   3.737   5.514   1.260  0.0009 -0.0844 -0.2357
 3720TIP3    H111166   3.783   5.505   1.344 -1.2666 -1.1627  0.3823
 3720TIP3    H211167   3.718   5.607   1.253 -0.5766 -0.0781  1.0937
 3721TIP3   OH211168   4.885   1.698   4.080 -0.2671  0.0149  0.3677
 3721TIP3    H111169   4.794   1.726   4.079 -0.1961  0.3942  1.8557
 3721TIP3    H211170   4.901   1.671   4.171  0.4466 -2.3145 -0.3686
 3722TIP3   OH211171   3.043   1.066   2.384  0.2100  0.1565 -0.0029
 3722TIP3    H111172   3.052   0.978   2.422  0.1203 -0.3079 -1.0277
 3722TIP3    H211173   2.964   1.060   2.329 -0.7815  1.3656  1.2067
 3723TIP3   OH211174   2.274   2.147   1.518 -0.0634  0.2958  0.1401
 3723TIP3    H111175   2.247   2.213   1.454 -0.8585 -0.7748 -0.6682
 3723TIP3    H211176   2.297   2.198   1.596  2.4676  1.7865 -1.4277
 3724TIP3   OH211177   4.067   5.971   5.036  0.0319  0.2655 -0.4737
 3724TIP3    H111178   4.131   5.931   5.095 -0.0855  0.1882 -0.3987
 3724TIP3    H211179   4.041   5.900   4.977  0.7118  0.5278 -1.1060
 3725TIP3   OH211180   6.327   5.649   3.460  0.3937  0.2589  0.0532
 3725TIP3    H111181   6.338   5.578   3.523 -1.3175  1.9008  2.3955
 3725TIP3    H211182   6.297   5.607   3.380 -0.8068 -1.6396  1.4344
 3726TIP3   OH211183   4.702   2.843   2.599 -0.0224 -0.3560  0.4344
 3726TIP3    H111184   4.673   2.765   2.647  1.7196 -1.3439 -0.0517
 3726TIP3    H211185   4.622   2.895   2.589 -0.8668 -1.1276  2.4756
 3727TIP3   OH211186   4.910   1.995   4.775  0.1770 -0.2727 -0.6885
 3727TIP3    H111187   4.926   1.991   4.681  0.9468  1.3057 -0.6690
 3727TIP3    H211188   4.958   1.921   4.812  1.9662  0.5357 -1.3197
 3728TIP3   OH211189   1.387   2.837   1.943 -0.0376 -0.2645  0.6807
 3728TIP3    H111190   1.378   2.800   1.855  2.0893 -0.3654  0.4690
 3728TIP3    H211191   1.412   2.764   1.998 -0.6048 -0.0495  1.2397
 3729TIP3   OH211192   4.107   5.361   1.474  0.4695  0.0895  0.2569
 3729TIP3    H111193   4.055   5.297   1.522 -1.1578 -0.7186 -2.4116
 3729TIP3    H211194   4.061   5.444   1.488 -1.3831 -0.5258 -1.6345
 3730TIP3   OH211195   4.573   4.685   0.379  0.1643 -0.2480 -0.1384
 3730TIP3    H111196   4.534   4.762   0.339 -1.6830 -0.0494  1.8786
 3730TIP3    H211197   4.503   4.646   0.432  1.3137 -2.7528 -0.2882
 3731TIP3   OH211198   6.208   3.148   3.604 -0.3394  0.3057 -0.8367
 3731TIP3    H111199   6.300   3.125   3.589 -0.2100  0.8342 -0.8588
 3731TIP3    H211200   6.177   3.182   3.520 -0.9920 -1.2752 -1.2722
 3732TIP3   OH211201   0.983   5.929   2.392  0.3392  0.5959 -0.0229
 3732TIP3    H111202   0.926   5.915   2.467  1.1245 -0.6150  0.3875
 3732TIP3    H211203   1.013   6.019   2.401 -0.6793  0.9114  0.3254
 3733TIP3   OH211204   3.257   3.587   0.112 -0.2189  0.5625  0.1515
 3733TIP3    H111205   3.280   3.506   0.157  0.5188  0.9113  0.4151
 3733TIP3    H211206   3.259   3.563   0.019  1.0140  0.5232  0.1770
 3734TIP3   OH211207   3.965   0.163   0.236  0.2085  0.5473 -0.1103
 3734TIP3    H111208   4.026   0.092   0.258 -1.6288 -0.9120  0.5642
 3734TIP3    H211209   3.955   0.211   0.318  0.2349  0.6164 -0.1478
 3735TIP3   OH211210   2.652   5.636   0.552 -0.4395 -0.1862  0.3485
 3735TIP3    H111211   2.716   5.693   0.509 -0.2070 -1.2523 -0.7841
 3735TIP3    H211212   2.705   5.577   0.606 -0.2875 -1.8392 -1.4892
 3736TIP3   OH211213   5.314   2.814   3.602 -0.0831  0.5871  0.0373
 3736TIP3    H111214   5.250   2.814   3.530 -0.2054  1.1006  0.1416
 3736TIP3    H211215   5.318   2.905   3.630 -1.3889  0.1467  1.8775
 3737TIP3   OH211216   3.624   2.244   2.572 -0.1350 -0.4420 -0.5189
 3737TIP3    H111217   3.687   2.192   2.623  2.0999  1.2402 -1.3959
 3737TIP3    H211218   3.623   2.329   2.616 -0.4995  0.0761 -1.5049
 3738TIP3   OH211219   3.897   0.534   3.050 -0.2941  0.0723  0.1465
 3738TIP3    H111220   3.821   0.582   3.082 -1.7873  0.1275 -3.0393
 3738TIP3    H211221   3.878   0.442   3.070 -1.7745 -0.0258 -1.4232
 3739TIP3   OH211222   6.051   3.470   4.401 -0.3687  0.6514 -0.0868
 3739TIP3    H111223   6.138   3.453   4.365 -0.6439  1.5779 -1.2651
 3739TIP3    H211224   6.067   3.503   4.490  0.6193  2.5155 -0.9014
 3740TIP3   OH211225   3.206   5.739   0.270  0.1019  0.6782 -0.1935
 3740TIP3    H111226   3.256   5.670   0.312  0.2692  0.2095 -1.1237
 3740TIP3    H211227   3.233   5.736   0.178 -1.5570  0.4548 -0.7206
 3741TIP3   OH211228   3.164   5.643   2.551  0.3043 -0.1990  0.2115
 3741TIP3    H111229   3.118   5.684   2.624 -0.6134  0.6112 -0.7886
 3741TIP3    H211230   3.111   5.567   2.528  0.1435  0.0086 -0.1186
 3742TIP3   OH211231   3.839   1.057   1.438  0.0801  0.3848  0.0894
 3742TIP3    H111232   3.861   1.133   1.492  0.4711 -0.2955  0.9168
 3742TIP3    H211233   3.759   1.083   1.392  1.3196  2.0410 -1.2322
 3743TIP3   OH211234   6.131   0.244   1.209 -0.4152 -0.5067  0.0420
 3743TIP3    H111235   6.100   0.306   1.143 -0.9838 -1.7214 -0.8684
 3743TIP3    H211236   6.169   0.300   1.278 -1.6338  0.8762 -0.3507
 3744TIP3   OH211237   5.280   1.025   2.059 -0.0199 -0.3577  0.1321
 3744TIP3    H111238   5.322   0.944   2.090 -0.2256 -0.9522 -1.0949
 3744TIP3    H211239   5.338   1.095   2.089  0.8570 -1.0507  0.0940
 3745TIP3   OH211240   0.764   3.883   4.905 -0.2601 -0.4919 -0.0432
 3745TIP3    H111241   0.749   3.794   4.873  1.6606  0.0502 -2.8036
 3745TIP3    H211242   0.833   3.873   4.972 -0.8202 -1.1435  0.4576
 3746TIP3   OH211243   5.384   3.028   0.786 -0.3445 -0.6478  0.0238
 3746TIP3    H111244   5.343   3.100   0.833 -0.3098 -0.5942 -0.0282
 3746TIP3    H211245   5.412   3.066   0.703 -0.4434 -0.7527 -0.0585
 3747TIP3   OH211246   3.151   0.469   3.018 -0.6301 -0.5364  0.5024
 3747TIP3    H111247   3.149   0.490   3.111 -1.3669 -1.7620  0.7805
 3747TIP3    H211248   3.129   0.376   3.013 -2.6389 -0.0485 -1.0314
 3748TIP3   OH211249   2.207   2.584   4.729  0.0138 -0.3461 -0.3978
 3748TIP3    H111250   2.240   2.604   4.641 -0.6349  0.5071 -0.4677
 3748TIP3    H211251   2.112   2.599   4.722 -0.3982 -2.5672 -0.1677
 3749TIP3   OH211252   5.426   4.425   1.110  0.0286  0.4214  0.2924
 3749TIP3    H111253   5.495   4.433   1.176  0.6371 -1.3216 -0.0954
 3749TIP3    H211254   5.368   4.500   1.128  0.7024  0.5685  2.1565
 3750TIP3   OH211255   4.294   5.718   1.610  0.1369  0.2069  0.2545
 3750TIP3    H111256   4.302   5.732   1.516  1.0981  0.3844  0.3459
 3750TIP3    H211257   4.322   5.627   1.624  0.1604  0.2331  0.3855
 3751TIP3   OH211258   3.179   1.832   3.433  0.2291 -0.4894  0.7461
 3751TIP3    H111259   3.187   1.807   3.525  0.2149 -3.0053  0.1223
 3751TIP3    H211260   3.254   1.792   3.390  0.5972  1.1986 -0.2827
 3752TIP3   OH211261   5.544   2.353   3.304  0.4641  0.0393 -0.2597
 3752TIP3    H111262   5.626   2.401   3.290  0.3745  0.6554  1.1908
 3752TIP3    H211263   5.566   2.262   3.282  1.7177  0.0802  0.6893
 3753TIP3   OH211264   5.742   2.292   0.848  0.2689 -0.1947 -0.2620
 3753TIP3    H111265   5.737   2.220   0.911  0.2471 -0.3180 -0.4067
 3753TIP3    H211266   5.652   2.307   0.820  0.4160 -0.9335 -1.1692
 3754TIP3   OH211267   2.725   0.030   3.570 -0.3019 -0.2024 -0.2569
 3754TIP3    H111268   2.665  -0.030   3.614 -0.9057 -0.7624 -1.8027
 3754TIP3    H211269   2.668   0.097   3.533  0.3187  1.0518  0.9559
 3755TIP3   OH211270   2.863   2.620   4.508 -0.3329  0.1906 -0.4168
 3755TIP3    H111271   2.893   2.665   4.429 -0.9024 -1.1917 -1.4486
 3755TIP3    H211272   2.784   2.573   4.481  0.3847 -1.6499  0.5367
 3756TIP3   OH211273   5.598   3.513   3.193  0.4671  0.1718 -0.4337
 3756TIP3    H111274   5.547   3.592   3.176 -0.1588 -0.2836 -0.7212
 3756TIP3    H211275   5.590   3.462   3.112 -2.1986 -1.8342  0.9399
 3757TIP3   OH211276   1.036   5.679   0.176 -0.1948  0.2426 -0.1656
 3757TIP3    H111277   1.008   5.703   0.088  2.6995  2.0352 -0.7130
 3757TIP3    H211278   1.068   5.589   0.168  0.9559  0.7181 -1.2353
 3758TIP3   OH211279   5.551   2.263   2.831  0.2101 -0.4912  0.2408
 3758TIP3    H111280   5.605   2.303   2.763  0.2315 -2.6747 -1.1548
 3758TIP3    H211281   5.464   2.299   2.818  0.1162 -1.1953 -1.2895
 3759TIP3   OH211282   0.127   3.553   1.478 -0.1027 -0.7234 -0.5100
 3759TIP3    H111283   0.161   3.540   1.389 -0.9186  1.0368 -1.1284
 3759TIP3    H211284   0.167   3.483   1.529  2.8397  0.0146 -1.5933
 3760TIP3   OH211285   3.953   1.706   2.716  0.0770 -0.2869 -0.1884
 3760TIP3    H111286   3.991   1.646   2.652 -2.5656 -1.7672 -0.5141
 3760TIP3    H211287   3.957   1.792   2.674 -0.1029 -0.9615 -1.6445
 3761TIP3   OH211288   0.018   1.617   4.814  0.0321 -0.3537  0.5598
 3761TIP3    H111289   0.058   1.530   4.810 -0.0888 -0.4881  1.7360
 3761TIP3    H211290  -0.003   1.638   4.724  2.3550 -0.4687 -0.0796
 3762TIP3   OH211291   1.520   1.582   3.815 -0.0886  0.5109 -0.7153
 3762TIP3    H111292   1.460   1.555   3.884  1.9337  1.4704  1.5697
 3762TIP3    H211293   1.508   1.517   3.746 -2.4862 -0.2728  0.3351
 3763TIP3   OH211294   0.242   4.862   1.458 -0.1816 -0.3038  0.0474
 3763TIP3    H111295   0.262   4.907   1.376  0.7721  1.0342  0.9688
 3763TIP3    H211296   0.310   4.891   1.518 -2.2229  0.7432  2.0275
 3764TIP3   OH211297   5.750   2.638   1.886  0.0480  0.7380  1.1475
 3764TIP3    H111298   5.715   2.706   1.944 -0.3965  2.4086 -0.9736
 3764TIP3    H211299   5.752   2.678   1.799 -2.2414 -2.6152 -0.6761
 3765TIP3   OH211300   5.284   4.854   3.485 -0.4876  0.5767 -0.5589
 3765TIP3    H111301   5.320   4.796   3.552 -0.9078  0.5295 -0.3695
 3765TIP3    H211302   5.284   4.801   3.405  2.2078  1.3724 -1.1709
 3766TIP3   OH211303   6.312   2.221   4.128 -1.1466 -0.0059 -0.2514
 3766TIP3    H111304   6.269   2.137   4.112 -2.4804  0.7422 -0.7695
 3766TIP3    H211305   6.242   2.278   4.160 -0.0666  0.6607  1.0143
 3767TIP3   OH211306   4.584   5.824   4.602 -0.5018 -0.2782 -0.0700
 3767TIP3    H111307   4.561   5.912   4.571 -1.5153 -0.4138  0.2525
 3767TIP3    H211308   4.519   5.767   4.561  0.9264 -1.0667 -1.3060
 3768TIP3   OH211309   0.170   0.635   1.018 -0.0743 -0.6727 -0.7720
 3768TIP3    H111310   0.117   0.583   1.079  1.2745  0.5252  1.5689
 3768TIP3    H211311   0.106   0.680   0.963 -1.4850 -0.1859  1.1689
 3769TIP3   OH211312   3.235   4.231   3.585 -0.6510  0.2671 -0.5786
 3769TIP3    H111313   3.177   4.246   3.511 -1.1530 -0.4006 -0.3294
 3769TIP3    H211314   3.176   4.208   3.657 -0.0435 -1.0083 -0.4696
 3770TIP3   OH211315   4.117   2.939   3.648  0.0983 -0.1234  0.7136
 3770TIP3    H111316   4.178   2.898   3.709 -1.3404 -2.9921  0.3939
 3770TIP3    H211317   4.165   2.944   3.565  0.9112  0.6174  1.2133
 3771TIP3   OH211318   3.750   5.452   1.623 -0.1367  0.1098 -0.0167
 3771TIP3    H111319   3.698   5.391   1.570 -0.4538 -0.1010  0.5181
 3771TIP3    H211320   3.797   5.396   1.685 -0.1397  0.3788  0.2329
 3772TIP3   OH211321   3.024   0.710   4.420 -0.7176 -0.3625  0.6402
 3772TIP3    H111322   2.966   0.720   4.495 -1.0972 -0.8424  0.4206
 3772TIP3    H211323   3.051   0.618   4.423 -3.3902 -1.3743 -1.6750
 3773TIP3   OH211324   2.787   0.113   5.025 -0.2734  0.8343 -0.1490
 3773TIP3    H111325   2.757   0.080   4.941 -0.6778  0.2451  0.2181
 3773TIP3    H211326   2.806   0.205   5.010 -1.0090  0.8970 -0.7176
 3774TIP3   OH211327   4.002   5.308   0.602  0.6232  0.4065  0.1554
 3774TIP3    H111328   3.931   5.301   0.538  1.2888 -0.5055 -0.5024
 3774TIP3    H211329   3.962   5.285   0.686  0.2187 -0.4094 -0.2585
 3775TIP3   OH211330   2.450   1.672   1.900  0.2970  0.0421  0.0530
 3775TIP3    H111331   2.384   1.713   1.956  0.4394 -0.7013  0.7884
 3775TIP3    H211332   2.517   1.739   1.888  0.0023  0.3885  0.3308
 3776TIP3   OH211333   5.647   5.671   0.109 -0.0987 -0.1211  0.1171
 3776TIP3    H111334   5.676   5.663   0.200  2.2280 -1.6849 -0.6606
 3776TIP3    H211335   5.700   5.742   0.073  1.4065 -1.6208 -0.7808
 3777TIP3   OH211336   3.742   5.984   4.515  0.8280  0.5173 -0.2416
 3777TIP3    H111337   3.667   5.925   4.510 -0.0578  1.6235 -0.3804
 3777TIP3    H211338   3.819   5.926   4.517  0.0189 -0.6054 -0.9666
 3778TIP3   OH211339   1.562   4.582   0.959 -0.1815 -0.0074  0.2223
 3778TIP3    H111340   1.638   4.596   1.015  0.2617 -1.3612  0.0113
 3778TIP3    H211341   1.502   4.653   0.981  1.1979  1.1880  0.2666
 3779TIP3   OH211342   3.850   4.158   4.345  0.1920  0.4577 -0.2546
 3779TIP3    H111343   3.910   4.111   4.287 -0.4257 -2.2758  1.1271
 3779TIP3    H211344   3.844   4.102   4.423 -1.9737  2.0428  0.8086
 3780TIP3   OH211345   5.750   1.099   0.694  0.2136 -0.1429 -0.1529
 3780TIP3    H111346   5.831   1.129   0.653  0.5400 -0.5367  0.1930
 3780TIP3    H211347   5.779   1.054   0.773 -0.4127  0.6150  0.5187
 3781TIP3   OH211348   2.986   0.807   1.078 -0.4800  0.2781 -0.0486
 3781TIP3    H111349   2.983   0.723   1.033  0.0602  1.4379 -2.3643
 3781TIP3    H211350   2.945   0.789   1.163  0.6919 -2.5675  0.0357
 3782TIP3   OH211351   2.781   0.409   3.493 -0.4674  0.5075 -0.4008
 3782TIP3    H111352   2.785   0.429   3.586  0.9279  2.0268 -0.7531
 3782TIP3    H211353   2.717   0.338   3.487 -0.1720 -0.0199  1.7664
 3783TIP3   OH211354   5.324   0.691   4.462  0.3028 -0.5564  0.1778
 3783TIP3    H111355   5.410   0.682   4.420  0.2145 -2.1132  0.2995
 3783TIP3    H211356   5.276   0.751   4.405  1.0025 -0.7392 -0.6299
 3784TIP3   OH211357   1.863   4.658   0.130  0.2998  0.0617 -0.3262
 3784TIP3    H111358   1.884   4.703   0.048 -2.6961  1.3050 -0.5592
 3784TIP3    H211359   1.912   4.704   0.197  0.1703  1.2808 -1.0442
 3785TIP3   OH211360   0.412   3.717   4.576  0.5007  0.1397 -0.0502
 3785TIP3    H111361   0.500   3.755   4.574  0.2439  0.8445  0.9166
 3785TIP3    H211362   0.379   3.738   4.664  0.8926 -3.6182  1.1926
 3786TIP3   OH211363   0.553   1.204   1.878 -0.3659 -0.0768  0.0648
 3786TIP3    H111364   0.643   1.236   1.869 -0.8097  1.1732 -0.0310
 3786TIP3    H211365   0.562   1.127   1.935  0.6844  0.4281  0.6277
 3787TIP3   OH211366   6.131   4.779   1.082  0.3768 -0.2967  0.4501
 3787TIP3    H111367   6.126   4.775   0.986 -0.4400 -1.2171  0.5185
 3787TIP3    H211368   6.224   4.767   1.101  0.7841  1.4188 -0.2728
 3788TIP3   OH211369   2.755   5.897   4.984 -0.0837 -0.7863 -0.2790
 3788TIP3    H111370   2.846   5.928   4.979  0.5664 -2.6772 -1.6515
 3788TIP3    H211371   2.705   5.959   4.932  0.5382 -0.1039 -0.0802
 3789TIP3   OH211372   1.686   3.686   3.122  0.0021 -0.5182 -0.1112
 3789TIP3    H111373   1.600   3.678   3.164  0.0536 -1.7425 -0.2145
 3789TIP3    H211374   1.685   3.620   3.053  0.3883  0.6254 -1.2624
 3790TIP3   OH211375   4.023   0.986   1.681  0.6092 -0.4638 -0.1455
 3790TIP3    H111376   3.964   0.969   1.607 -1.1009  0.4919  0.9353
 3790TIP3    H211377   4.061   1.072   1.662  0.8047 -0.5843 -0.3031
 3791TIP3   OH211378   6.122   1.796   2.418  0.0747  0.1515 -0.1672
 3791TIP3    H111379   6.213   1.823   2.422 -0.0031  0.4519 -0.3681
 3791TIP3    H211380   6.092   1.825   2.331 -0.0900 -0.3278 -0.2754
 3792TIP3   OH211381   2.621   0.433  -0.027  0.1108  0.0212 -0.1105
 3792TIP3    H111382   2.678   0.500   0.013  0.5403  0.0735 -0.7960
 3792TIP3    H211383   2.544   0.431   0.030  0.5588  0.3359  0.5301
 3793TIP3   OH211384   4.410   0.048   0.015  0.0672  0.5927  0.4995
 3793TIP3    H111385   4.442   0.006  -0.065  0.4932  1.5589  0.1468
 3793TIP3    H211386   4.413  -0.021   0.081 -3.4726 -1.2225 -0.9964
 3794TIP3   OH211387   0.719   3.718   0.008 -0.4081 -0.0326  0.4191
 3794TIP3    H111388   0.750   3.805   0.032  1.8280 -0.7106  0.2194
 3794TIP3    H211389   0.630   3.732  -0.024 -0.3165  2.0716  0.9351
 3795TIP3   OH211390   5.853   3.237   1.048 -0.2892 -0.2111  0.0088
 3795TIP3    H111391   5.876   3.323   1.084 -1.2016  0.5155 -1.0718
 3795TIP3    H211392   5.771   3.214   1.091  0.0380 -0.6523  0.4232
 3796TIP3   OH211393   2.017   3.821   3.839  0.1105  0.3409 -0.1911
 3796TIP3    H111394   2.112   3.831   3.853  0.2518  1.3673 -1.6369
 3796TIP3    H211395   1.981   3.907   3.860 -0.4379  0.1118 -0.1916
 3797TIP3   OH211396   4.110   4.287   2.491  0.0970 -0.1446  0.3808
 3797TIP3    H111397   4.177   4.225   2.519 -0.2912 -1.2058 -0.9750
 3797TIP3    H211398   4.102   4.274   2.397 -0.1936  1.7854  0.0908
 3798TIP3   OH211399   0.942   5.042   1.283  0.3505 -0.0257 -0.0581
 3798TIP3    H111400   1.018   5.073   1.333 -0.8075  0.6549  1.3510
 3798TIP3    H211401   0.927   4.953   1.315 -0.7039  0.5903  1.2588
 3799TIP3   OH211402   1.943   5.662   4.853 -0.1982 -0.5047  0.1573
 3799TIP3    H111403   2.022   5.624   4.813  0.5153  0.0688  0.9951
 3799TIP3    H211404   1.976   5.713   4.927 -1.2734  0.5527 -0.0722
 3800TIP3   OH211405   3.639   3.565   4.944 -0.0897 -0.1211 -0.4076
 3800TIP3    H111406   3.639   3.626   4.871 -1.2698  0.5987  0.1617
 3800TIP3    H211407   3.685   3.611   5.014 -0.5177 -0.0999 -0.1404
 3801TIP3   OH211408   3.827   3.739   2.809 -0.1869  0.4623 -0.3372
 3801TIP3    H111409   3.898   3.803   2.819  0.7272 -0.5891  0.1303
 3801TIP3    H211410   3.801   3.746   2.717  0.3086  1.0829 -0.4393
 3802TIP3   OH211411   4.719   0.616   1.335  0.5803  0.3532 -0.0146
 3802TIP3    H111412   4.705   0.630   1.428  0.3399 -0.3241  0.0636
 3802TIP3    H211413   4.743   0.523   1.328 -2.9237 -0.6388 -0.9361
 3803TIP3   OH211414   6.003   4.947   1.953  0.1934 -0.1904 -0.5905
 3803TIP3    H111415   6.014   4.977   2.043 -0.6830  2.6214 -1.3100
 3803TIP3    H211416   6.091   4.943   1.917  0.4491  0.2387 -0.0256
 3804TIP3   OH211417   6.208   5.450   4.932 -0.3908  0.3345 -0.3679
 3804TIP3    H111418   6.197   5.543   4.952  0.9666  0.4200  0.0479
 3804TIP3    H211419   6.263   5.417   5.002  1.9223 -0.0482 -2.2551
 3805TIP3   OH211420   4.037   0.054   4.829 -0.4189  0.0377 -0.1847
 3805TIP3    H111421   4.064   0.146   4.837  1.0180 -0.3710  0.0171
 3805TIP3    H211422   4.070   0.027   4.743  2.9054 -1.3859  1.3575
 3806TIP3   OH211423   4.682   0.832   0.951  0.6782 -0.4953  0.3125
 3806TIP3    H111424   4.613   0.795   1.006  1.1765 -0.9516  0.6463
 3806TIP3    H211425   4.710   0.758   0.896  2.0126 -0.7808  1.3116
 3807TIP3   OH211426   3.701   5.471   3.154 -0.2197  0.3921  0.5361
 3807TIP3    H111427   3.760   5.546   3.154 -0.2005  0.4224  2.0874
 3807TIP3    H211428   3.636   5.491   3.087  0.6835  1.0524 -0.1573
 3808TIP3   OH211429   3.754   1.254   0.885 -0.2436  0.4635 -0.2126
 3808TIP3    H111430   3.843   1.276   0.857 -0.0935  0.6254  0.3737
 3808TIP3    H211431   3.722   1.194   0.818  0.1928  0.6524 -0.5960
 3809TIP3   OH211432   2.145   4.888   4.349  0.5524 -0.3452  0.1196
 3809TIP3    H111433   2.121   4.819   4.411 -1.4347 -0.0058 -0.2308
 3809TIP3    H211434   2.195   4.842   4.281  1.0154 -1.0570  0.9164
 3810TIP3   OH211435   4.218   1.405   4.598  0.5557 -0.1804  0.1353
 3810TIP3    H111436   4.138   1.355   4.580 -1.2410  1.7241  2.0678
 3810TIP3    H211437   4.237   1.450   4.516  0.3580 -1.5806 -0.7024
 3811TIP3   OH211438   0.145   3.320   0.033 -0.3963  0.4077  0.5029
 3811TIP3    H111439   0.178   3.276   0.111 -0.0112 -1.5968 -0.6999
 3811TIP3    H211440   0.052   3.335   0.051 -0.4357 -0.5204  1.1513
 3812TIP3   OH211441   3.551   5.509   0.374  0.2083  1.3420 -1.1467
 3812TIP3    H111442   3.619   5.560   0.417  0.2872 -0.9881  1.8177
 3812TIP3    H211443   3.470   5.533   0.421 -0.5083  1.7553 -2.5270
 3813TIP3   OH211444   1.607   3.939   3.921 -0.5315  0.4505  0.2624
 3813TIP3    H111445   1.655   3.947   4.003 -0.1447  0.8427 -0.0003
 3813TIP3    H211446   1.656   3.993   3.859 -1.9203  1.7516  0.2496
 3814TIP3   OH211447   2.683   2.934   0.473  0.3005 -0.7071 -0.1226
 3814TIP3    H111448   2.639   2.852   0.495  0.6744 -1.1883 -1.0884
 3814TIP3    H211449   2.746   2.949   0.544  0.7969 -1.6904 -0.3411
 3815TIP3   OH211450   0.705   5.420   2.129 -0.5005  0.0889  0.4808
 3815TIP3    H111451   0.719   5.337   2.175 -0.1122  0.7079  1.5279
 3815TIP3    H211452   0.669   5.478   2.196 -0.1471  0.9542 -0.0638
 3816TIP3   OH211453   3.865   1.653   3.861 -0.6099 -0.0692  0.2590
 3816TIP3    H111454   3.909   1.735   3.842 -1.1540  0.2311  0.2893
 3816TIP3    H211455   3.792   1.650   3.799 -1.0064 -0.1937  0.7275
 3817TIP3   OH211456   4.438   4.489   1.826 -0.5600 -0.5726  0.3530
 3817TIP3    H111457   4.486   4.434   1.764  0.4710 -1.2377  1.6908
 3817TIP3    H211458   4.475   4.576   1.814 -0.1191 -0.7674  0.2688
 3818TIP3   OH211459   1.858   2.669   3.795 -0.1523  0.3937 -0.3651
 3818TIP3    H111460   1.936   2.659   3.849 -1.0229 -2.2839  0.5865
 3818TIP3    H211461   1.890   2.689   3.708  1.4836  1.2422  0.4066
 3819TIP3   OH211462   2.407   3.571   5.082  0.2875 -0.1819 -0.0234
 3819TIP3    H111463   2.358   3.642   5.041  2.2138  0.1963 -1.8588
 3819TIP3    H211464   2.351   3.494   5.072 -0.3256  0.3905 -1.2185
 3820TIP3   OH211465   4.824   4.234   4.309  0.0404 -0.0758  0.3519
 3820TIP3    H111466   4.898   4.187   4.271  0.2334  0.1543  0.4421
 3820TIP3    H211467   4.764   4.165   4.337  0.0445 -0.2547 -0.0715
 3821TIP3   OH211468   2.255   0.653   1.756 -0.2514 -0.4690 -0.4587
 3821TIP3    H111469   2.172   0.636   1.711 -0.4556 -1.0241  0.1128
 3821TIP3    H211470   2.282   0.739   1.725 -0.8396 -0.4574 -0.9560
 3822TIP3   OH211471   3.936   6.007   3.305  0.1144 -0.1911 -0.1034
 3822TIP3    H111472   4.007   6.020   3.242 -2.0866  0.4930 -2.5947
 3822TIP3    H211473   3.903   5.920   3.286  0.4803 -0.6682  1.3239
 3823TIP3   OH211474   5.487   4.154   0.533  0.0744 -0.0920  0.1017
 3823TIP3    H111475   5.563   4.165   0.476  0.5965 -1.9268  0.3646
 3823TIP3    H211476   5.411   4.172   0.476  0.6226 -0.8358 -0.8902
 3824TIP3   OH211477   5.654   3.547   1.864  0.3470  0.0489 -0.1764
 3824TIP3    H111478   5.705   3.613   1.911  0.2162 -0.7530  1.1589
 3824TIP3    H211479   5.715   3.473   1.853 -0.2948 -0.6532  0.8252
 3825TIP3   OH211480   2.296   2.197   2.476 -0.1262  0.5242 -0.0859
 3825TIP3    H111481   2.368   2.164   2.529 -1.3266 -0.0820  1.2357
 3825TIP3    H211482   2.272   2.124   2.419  1.2820  1.2321 -1.6973
 3826TIP3   OH211483   5.465   2.148   3.668  0.9975  0.9406  0.2273
 3826TIP3    H111484   5.481   2.089   3.742  1.0193 -2.3750 -2.1805
 3826TIP3    H211485   5.373   2.172   3.676  0.4150 -1.1110  0.2691
 3827TIP3   OH211486   5.191   1.045   3.511  0.7639  0.5637  0.1220
 3827TIP3    H111487   5.184   0.960   3.553  1.3091  0.2407 -0.4254
 3827TIP3    H211488   5.115   1.094   3.543  0.7265  0.0561  0.8388
 3828TIP3   OH211489   3.474   2.268   0.791 -0.7181  0.1718 -0.3808
 3828TIP3    H111490   3.406   2.203   0.809 -1.9288  1.0561 -1.5961
 3828TIP3    H211491   3.555   2.218   0.793 -1.3481 -0.8877  1.2412
 3829TIP3   OH211492   5.395   4.124   2.899  0.0794 -0.0375 -0.1230
 3829TIP3    H111493   5.416   4.217   2.903 -0.9631  0.1882  0.6023
 3829TIP3    H211494   5.333   4.110   2.971 -0.9854 -0.9721 -1.1756
 3830TIP3   OH211495   1.061   5.348   1.902 -0.8148 -0.0295 -0.2675
 3830TIP3    H111496   1.102   5.384   1.981 -0.2779  1.6525 -1.2536
 3830TIP3    H211497   1.062   5.253   1.916 -1.0860  0.2202  1.8948
 3831TIP3   OH211498   4.857   0.615   0.848  0.0832  0.1125 -0.3297
 3831TIP3    H111499   4.905   0.647   0.772  0.6755 -1.0952 -0.5000
 3831TIP3    H211500   4.843   0.522   0.830  1.5420 -0.5790  1.6337
 3832TIP3   OH211501   0.407   2.677   4.444 -0.2047 -0.2031  0.1455
 3832TIP3    H111502   0.372   2.673   4.533 -0.2208 -0.2556  0.1365
 3832TIP3    H211503   0.493   2.719   4.454 -0.2997 -0.0113  0.1587
 3833TIP3   OH211504   5.582   1.558   4.225 -0.4388  0.5046  0.5377
 3833TIP3    H111505   5.605   1.471   4.193 -0.5584  0.3455  0.8762
 3833TIP3    H211506   5.486   1.560   4.220 -0.3691  1.4120 -1.5264
 3834TIP3   OH211507   5.338   2.489   3.992  0.4213  0.0592  0.1197
 3834TIP3    H111508   5.391   2.543   3.934  1.7884 -0.5261  0.7817
 3834TIP3    H211509   5.382   2.493   4.077 -1.3735  0.6711  1.0915
 3835TIP3   OH211510   1.265   4.970   0.771 -0.1128 -0.6086 -0.4681
 3835TIP3    H111511   1.263   4.910   0.696  0.0843  1.3140 -2.0818
 3835TIP3    H211512   1.196   4.937   0.829 -0.7252 -1.7868 -1.7853
 3836TIP3   OH211513   6.068   5.427   1.846  0.0521 -0.2861  0.1677
 3836TIP3    H111514   6.054   5.341   1.805  1.6749 -0.2022 -0.6289
 3836TIP3    H211515   6.146   5.462   1.803  0.1056  1.0930  1.3115
 3837TIP3   OH211516   1.502   2.349   0.358  0.2382  0.3433 -0.0265
 3837TIP3    H111517   1.483   2.443   0.357 -1.2602  0.0535 -1.2805
 3837TIP3    H211518   1.527   2.328   0.268  0.8865 -0.4120  0.3134
 3838TIP3   OH211519   4.690   5.831   3.013  0.0248  0.1799  0.3004
 3838TIP3    H111520   4.597   5.855   3.009 -0.7893 -2.5027  1.0270
 3838TIP3    H211521   4.704   5.779   2.934  0.8182  0.2175  0.4108
 3839TIP3   OH211522   0.182   4.000   3.487 -0.0773  0.4235 -0.2967
 3839TIP3    H111523   0.259   4.000   3.545  0.2118  1.1029 -0.6672
 3839TIP3    H211524   0.138   3.918   3.506 -0.9428  1.3636  2.1702
 3840TIP3   OH211525   2.479   3.107   1.967 -0.6820  0.1974  0.0082
 3840TIP3    H111526   2.421   3.032   1.950  0.7391 -0.8452 -0.4808
 3840TIP3    H211527   2.525   3.120   1.884  1.1190 -0.2409  0.8931
 3841TIP3   OH211528   5.912   5.742   2.250 -0.2154 -0.3528 -0.5707
 3841TIP3    H111529   5.835   5.789   2.281  0.1496 -1.4351  2.2321
 3841TIP3    H211530   5.876   5.672   2.194 -1.2050 -0.3729  0.0658
 3842TIP3   OH211531   5.784   1.969   0.301  0.1384  0.1882 -0.3216
 3842TIP3    H111532   5.823   1.938   0.383  0.7068  1.6710  0.0198
 3842TIP3    H211533   5.706   1.915   0.289 -0.0952  0.0942  1.3376
 3843TIP3   OH211534   2.195   3.826   4.646 -0.1100  0.1043 -0.2377
 3843TIP3    H111535   2.162   3.902   4.598  0.1348  1.5213  1.6980
 3843TIP3    H211536   2.290   3.839   4.650  0.0538 -0.8601 -0.7629
 3844TIP3   OH211537   1.620   5.520   1.610 -0.2982  0.4448  0.4150
 3844TIP3    H111538   1.604   5.593   1.551 -0.4008  0.7488  0.8165
 3844TIP3    H211539   1.547   5.521   1.671 -0.9384 -0.7307 -0.2943
 3845TIP3   OH211540   4.210   5.865   2.111 -0.4060  0.4231  0.3920
 3845TIP3    H111541   4.300   5.888   2.131 -0.0061 -1.7040  1.2921
 3845TIP3    H211542   4.207   5.863   2.015  0.6234  0.0595  0.3558
 3846TIP3   OH211543   2.201   3.126   3.840 -0.0248  0.0509 -0.0163
 3846TIP3    H111544   2.268   3.119   3.771  1.7854 -0.8989  1.7256
 3846TIP3    H211545   2.230   3.199   3.894 -0.0554 -0.7124  1.0703
 3847TIP3   OH211546   0.888   4.102   3.389  0.2718  0.0318 -0.2549
 3847TIP3    H111547   0.906   4.046   3.464  0.2998  0.0344 -0.2596
 3847TIP3    H211548   0.938   4.182   3.407  0.2197  0.0608 -0.2409
 3848TIP3   OH211549   2.272   0.753   4.713 -0.7411  0.2919  0.0151
 3848TIP3    H111550   2.223   0.671   4.705  0.1781 -0.4115  1.2406
 3848TIP3    H211551   2.267   0.792   4.625 -1.9425 -0.6216 -0.3601
 3849TIP3   OH211552   2.023   5.835   0.685 -0.4481 -0.0317  0.0075
 3849TIP3    H111553   2.024   5.744   0.656 -0.8406 -0.1782  0.4378
 3849TIP3    H211554   1.983   5.832   0.773 -1.4420  0.6743 -0.3988
 3850TIP3   OH211555   6.129   3.257   2.814 -0.0541  0.0541  0.1858
 3850TIP3    H111556   6.059   3.228   2.755 -1.4060  0.8222  1.3343
 3850TIP3    H211557   6.109   3.214   2.897  2.2997 -1.6847 -0.0545
 3851TIP3   OH211558   5.592   5.665   5.082 -0.0767 -0.2397 -0.3868
 3851TIP3    H111559   5.583   5.755   5.111  2.2785 -0.7894  2.5173
 3851TIP3    H211560   5.634   5.672   4.996 -0.4482  1.4127 -0.4633
 3852TIP3   OH211561   0.113   5.929   3.119  0.1604  0.2166 -0.1233
 3852TIP3    H111562   0.027   5.949   3.083  0.6815 -0.5611 -1.9250
 3852TIP3    H211563   0.172   5.992   3.077  0.5372  0.5493  0.8671
 3853TIP3   OH211564   1.288   1.794   2.792 -0.6810 -0.3894 -0.2306
 3853TIP3    H111565   1.288   1.731   2.720  1.6466  0.1203 -0.7264
 3853TIP3    H211566   1.378   1.826   2.797 -1.3063  1.2861  1.4409
 3854TIP3   OH211567   1.064   1.965   4.609 -0.7083 -0.0819 -0.0173
 3854TIP3    H111568   1.129   2.023   4.568 -0.6214 -0.5752 -0.5866
 3854TIP3    H211569   0.983   2.017   4.609 -0.5758  0.1279 -0.3029
 3855TIP3   OH211570   1.438   0.356   2.741  0.3138  0.3669 -0.3549
 3855TIP3    H111571   1.390   0.393   2.667  0.1634 -0.7764 -0.8536
 3855TIP3    H211572   1.392   0.274   2.760 -0.6570  1.3601  2.0553
 3856TIP3   OH211573   0.304   4.608   4.158 -0.1725 -0.0738  0.3686
 3856TIP3    H111574   0.310   4.513   4.145  2.5606  0.0396  0.2224
 3856TIP3    H211575   0.304   4.644   4.070  0.7011  0.0988  0.4294
 3857TIP3   OH211576   2.551   5.929   3.834  0.3899  0.2028  0.2411
 3857TIP3    H111577   2.526   5.912   3.743 -1.3259 -1.1954  0.9005
 3857TIP3    H211578   2.627   5.874   3.849  1.0591  0.9031 -0.5033
 3858TIP3   OH211579   0.973   4.619   2.657  0.4838  0.2149  0.4125
 3858TIP3    H111580   1.038   4.549   2.668  0.4335  0.1492  0.2890
 3858TIP3    H211581   0.976   4.667   2.740  1.7700  1.1314 -0.1293
 3859TIP3   OH211582   2.882   0.691   2.476 -0.0450 -0.3340 -0.3189
 3859TIP3    H111583   2.906   0.600   2.498  0.1791 -0.2391 -0.1652
 3859TIP3    H211584   2.962   0.741   2.492  0.0053 -0.1970 -0.9702
 3860TIP3   OH211585   1.261   3.462   2.375  0.0513 -0.4356  0.2602
 3860TIP3    H111586   1.234   3.386   2.324  1.6733 -1.0501  0.2529
 3860TIP3    H211587   1.200   3.531   2.350 -0.8221 -1.4518 -0.4964
 3861TIP3   OH211588   5.871   5.789   1.151 -0.5628  0.0495  0.0460
 3861TIP3    H111589   5.928   5.851   1.196 -0.1887  0.0800 -0.4566
 3861TIP3    H211590   5.930   5.717   1.125 -0.8618 -0.1951  0.0329
 3862TIP3   OH211591   1.608   0.684   3.275  0.1114  0.2006  0.0150
 3862TIP3    H111592   1.642   0.621   3.339  1.9841  0.5968 -0.5192
 3862TIP3    H211593   1.557   0.631   3.214  0.7668 -0.6400  0.1759
 3863TIP3   OH211594   1.347   4.126   4.265  0.2576  0.1022  0.4705
 3863TIP3    H111595   1.299   4.043   4.256 -0.3693  0.7239 -3.3714
 3863TIP3    H211596   1.281   4.187   4.298 -0.7977  0.1809 -1.6209
 3864TIP3   OH211597   5.784   4.141   2.691 -0.1905  0.4480  0.0298
 3864TIP3    H111598   5.873   4.119   2.665 -0.5813 -1.4505  0.1603
 3864TIP3    H211599   5.786   4.139   2.787 -0.8319 -1.9422  0.0661
 3865TIP3   OH211600   1.950   2.339   2.455 -0.2367  0.4446  0.1972
 3865TIP3    H111601   2.005   2.387   2.516  0.7877 -1.8423  1.1559
 3865TIP3    H211602   1.950   2.249   2.487 -2.2413 -0.2065 -1.4013
 3866TIP3   OH211603   1.186   1.061   2.986  0.6790  0.3396 -0.0751
 3866TIP3    H111604   1.119   0.999   3.016  1.6257 -0.5957  0.1796
 3866TIP3    H211605   1.268   1.015   3.002  1.3229  0.0471 -3.4795
 3867TIP3   OH211606   3.420   1.851   2.579 -0.5127 -0.3058  0.8918
 3867TIP3    H111607   3.380   1.908   2.513 -0.7528 -2.4536 -0.9406
 3867TIP3    H211608   3.346   1.810   2.624 -0.4694 -1.9721 -0.4254
 3868TIP3   OH211609   2.235   4.113   3.019 -0.2212  0.0839  0.5452
 3868TIP3    H111610   2.298   4.168   2.974  0.2766 -1.3326 -0.5565
 3868TIP3    H211611   2.225   4.036   2.962 -1.9163 -0.3397  1.3517
 3869TIP3   OH211612   5.619   5.292   0.573 -0.2562 -0.2096  0.3560
 3869TIP3    H111613   5.683   5.221   0.566  0.0638  0.2315 -1.8445
 3869TIP3    H211614   5.540   5.258   0.532  0.0125  0.7795 -1.0558
 3870TIP3   OH211615   2.266   4.562   0.637  0.4684  0.1728  0.0240
 3870TIP3    H111616   2.248   4.501   0.709  0.5115 -0.1607 -0.2428
 3870TIP3    H211617   2.361   4.556   0.625  0.4341  0.0736 -0.1951
 3871TIP3   OH211618   2.600   1.200   5.096  0.1188  0.1144  0.1404
 3871TIP3    H111619   2.690   1.202   5.064  0.3985 -2.3981  0.5854
 3871TIP3    H211620   2.609   1.200   5.191 -0.2541 -1.2815  0.1976
 3872TIP3   OH211621   0.605   0.993   2.320  0.2788 -0.3653 -0.1239
 3872TIP3    H111622   0.535   0.983   2.385 -0.3536 -0.3748 -0.7912
 3872TIP3    H211623   0.674   0.934   2.350  0.9173  1.1813  1.7174
 3873TIP3   OH211624   1.380   1.833   3.713 -0.1736  0.7437  0.2591
 3873TIP3    H111625   1.388   1.750   3.761 -2.7106  0.1083 -0.2438
 3873TIP3    H211626   1.409   1.900   3.775  1.8265 -0.4635  0.7193
 3874TIP3   OH211627   4.430   5.922   3.066  0.3162 -0.7023  0.2544
 3874TIP3    H111628   4.362   5.949   3.005 -0.1931  1.5088  1.6970
 3874TIP3    H211629   4.382   5.886   3.141  0.7468 -0.0925  0.8373
 3875TIP3   OH211630   0.109   1.635   3.404 -0.2029  0.5971 -0.3518
 3875TIP3    H111631   0.058   1.700   3.452 -0.5998 -0.3890  0.6065
 3875TIP3    H211632   0.053   1.557   3.402  1.0305 -0.3341  0.2236
 3876TIP3   OH211633   0.587   0.380   0.328 -0.3643 -0.1834  0.1377
 3876TIP3    H111634   0.646   0.312   0.295 -0.6338  0.3669 -1.5965
 3876TIP3    H211635   0.595   0.451   0.265 -0.6139  1.1373  1.5471
 3877TIP3   OH211636   0.121   0.987   3.006  0.0802 -0.1533  0.1379
 3877TIP3    H111637   0.038   0.993   3.054  0.6797 -1.5485  1.4287
 3877TIP3    H211638   0.132   1.073   2.967 -3.3895 -0.6614 -2.5373
 3878TIP3   OH211639   6.171   1.257   0.834 -0.3954 -0.4187  0.2171
 3878TIP3    H111640   6.236   1.309   0.882  0.1962 -1.2440  0.3319
 3878TIP3    H211641   6.212   1.171   0.823 -1.3996 -0.9054  0.1375
 3879TIP3   OH211642   5.599   0.291   3.747  0.5878  0.3366  0.6147
 3879TIP3    H111643   5.695   0.295   3.751  0.7490 -2.1562  3.3584
 3879TIP3    H211644   5.580   0.199   3.730 -1.3978  1.0189 -1.2588
 3880TIP3   OH211645   6.101   1.350   2.672  0.2311 -0.2782  0.3798
 3880TIP3    H111646   6.015   1.308   2.673  0.0325  0.0968  1.5646
 3880TIP3    H211647   6.082   1.442   2.650  0.7252 -0.8523 -2.8202
 3881TIP3   OH211648   3.557   5.685   2.278 -0.4260  0.1524  0.1249
 3881TIP3    H111649   3.610   5.743   2.332 -0.1840  2.2441 -2.1718
 3881TIP3    H211650   3.468   5.720   2.286 -1.3611 -2.3870  2.7125
 3882TIP3   OH211651   5.923   4.403   4.210  0.2558  0.3903  0.0778
 3882TIP3    H111652   5.991   4.336   4.220 -1.7952 -1.6986  0.8242
 3882TIP3    H211653   5.868   4.372   4.139  0.1797  2.1762 -0.6846
 3883TIP3   OH211654   0.966   2.902   3.996  0.0636 -0.7726  0.5751
 3883TIP3    H111655   1.054   2.866   4.012  0.9770  0.9989 -0.2424
 3883TIP3    H211656   0.930   2.847   3.927  1.8977  0.4981 -1.4968
 3884TIP3   OH211657   0.436   2.898   1.585  0.3271  0.4305  0.4911
 3884TIP3    H111658   0.510   2.843   1.560 -0.2582  0.0037 -0.3427
 3884TIP3    H211659   0.359   2.843   1.571 -0.1106  0.5603  2.1958
 3885TIP3   OH211660   5.114   5.643   5.091  0.1575 -0.2067 -0.1452
 3885TIP3    H111661   5.053   5.706   5.053  0.6114 -0.3144 -1.0769
 3885TIP3    H211662   5.187   5.697   5.122  0.7472 -0.3042 -1.3405
 3886TIP3   OH211663   2.260   3.963   0.682 -0.2981 -0.4063  0.3243
 3886TIP3    H111664   2.226   3.982   0.595 -1.0251 -0.7397  0.5239
 3886TIP3    H211665   2.338   4.018   0.690 -0.8850  0.5107 -0.0865
 3887TIP3   OH211666   0.393   5.052   5.170  0.3325  0.1685 -0.5639
 3887TIP3    H111667   0.432   5.138   5.183 -1.0770  0.8707 -0.7360
 3887TIP3    H211668   0.430   5.020   5.088  2.1458 -0.1713  0.3243
 3888TIP3   OH211669   5.280   5.391   2.494  0.4194  0.1352 -0.0188
 3888TIP3    H111670   5.239   5.305   2.488  2.8075 -0.9851 -1.3923
 3888TIP3    H211671   5.334   5.387   2.573  1.2666  0.0075 -0.5926
 3889TIP3   OH211672   5.657   2.871   4.208 -0.1856  0.1421 -0.4843
 3889TIP3    H111673   5.646   2.958   4.169  0.6269  0.5220  0.1053
 3889TIP3    H211674   5.625   2.810   4.141 -1.4569  0.9284 -0.6032
 3890TIP3   OH211675   0.198   2.895   4.708 -0.1462 -0.0948  0.2447
 3890TIP3    H111676   0.155   2.918   4.790  0.2773 -2.6292  1.2596
 3890TIP3    H211677   0.138   2.925   4.640 -1.4976  0.2086  1.5260
 3891TIP3   OH211678   3.679   2.404   1.901 -0.1670  0.3613 -0.1324
 3891TIP3    H111679   3.621   2.451   1.841  0.4710  1.2529 -0.0722
 3891TIP3    H211680   3.767   2.432   1.877  0.2136 -0.5620  0.1295
 3892TIP3   OH211681   5.458   2.699   0.430  0.0454  0.6873  0.3037
 3892TIP3    H111682   5.373   2.737   0.408 -0.1910 -0.2756 -0.5106
 3892TIP3    H211683   5.465   2.710   0.525 -0.9040  0.9508  0.3502
 3893TIP3   OH211684   0.358   3.457   2.199  0.0519 -0.0392  0.4094
 3893TIP3    H111685   0.434   3.482   2.253  1.0677  2.7186 -2.0025
 3893TIP3    H211686   0.392   3.392   2.138  0.4530  0.8601 -0.3689
 3894TIP3   OH211687   5.733   0.520   1.154 -0.0754  0.6085 -0.2284
 3894TIP3    H111688   5.722   0.615   1.162 -1.1108  0.4839 -0.0126
 3894TIP3    H211689   5.764   0.492   1.241 -0.7030  0.6348  0.0096
 3895TIP3   OH211690   0.564   5.493   0.522 -0.3722  0.5392 -0.2905
 3895TIP3    H111691   0.519   5.486   0.438 -0.4554  1.5519 -0.3397
 3895TIP3    H211692   0.613   5.575   0.517 -1.9424  1.6746  1.3745
 3896TIP3   OH211693   3.351   2.600   4.132  0.0372  0.6697  0.3349
 3896TIP3    H111694   3.356   2.688   4.169 -1.8243  0.3831  1.3919
 3896TIP3    H211695   3.263   2.595   4.092  0.0822 -0.7149  0.3403
 3897TIP3   OH211696   5.211   3.940   1.333  0.3910  0.0659  0.0578
 3897TIP3    H111697   5.298   3.971   1.310  0.9449 -1.2181  0.3453
 3897TIP3    H211698   5.162   3.941   1.251  0.6891  0.7171 -0.1159
 3898TIP3   OH211699   2.488   5.429   1.752  0.0044  0.5451  0.2075
 3898TIP3    H111700   2.457   5.378   1.677  1.0660  0.0883  0.0660
 3898TIP3    H211701   2.582   5.439   1.738  0.1008  1.0886  1.1087
 3899TIP3   OH211702   3.373   3.090   3.620  0.5423 -0.2586 -0.6140
 3899TIP3    H111703   3.460   3.051   3.622 -0.1487 -1.8809  0.9900
 3899TIP3    H211704   3.358   3.121   3.709 -0.8348 -0.8291 -0.6183
 3900TIP3   OH211705   6.068   5.492   1.532  0.1430  0.6209  0.5353
 3900TIP3    H111706   6.030   5.410   1.499  0.6385  1.4987 -2.5546
 3900TIP3    H211707   6.151   5.465   1.572  1.0186 -0.3524 -1.7391
 3901TIP3   OH211708   3.132   0.929   3.908 -0.3645  0.3451  0.0404
 3901TIP3    H111709   3.057   0.922   3.849 -2.1105 -0.7443  2.2249
 3901TIP3    H211710   3.095   0.966   3.989  0.8174 -2.3746  2.0177
 3902TIP3   OH211711   2.717   2.830   4.592 -0.1047  0.1130 -0.5112
 3902TIP3    H111712   2.739   2.747   4.549  0.9611  0.6184 -0.9797
 3902TIP3    H211713   2.797   2.855   4.638  0.4233  2.0602 -2.3341
 3903TIP3   OH211714  -0.003   3.246   1.784  0.1876 -0.7830  0.0586
 3903TIP3    H111715  -0.007   3.286   1.871 -1.4229  1.5023 -0.9637
 3903TIP3    H211716   0.041   3.162   1.799 -0.1379 -0.5535  3.0703
 3904TIP3   OH211717   3.754   0.120   1.075 -0.1610 -0.1942 -0.1014
 3904TIP3    H111718   3.821   0.168   1.124  0.7276 -0.2114 -1.2727
 3904TIP3    H211719   3.802   0.068   1.011 -1.0914 -2.5172  0.9328
 3905TIP3   OH211720   0.216   5.198   4.080  0.1912 -0.5092  0.0189
 3905TIP3    H111721   0.277   5.127   4.060  0.4842 -0.2321 -0.0890
 3905TIP3    H211722   0.257   5.246   4.151  0.8658  0.5986 -1.0725
 3906TIP3   OH211723   0.377   3.845   4.326 -0.6994 -0.2426 -0.0038
 3906TIP3    H111724   0.400   3.782   4.394 -1.9574 -1.3099 -0.5209
 3906TIP3    H211725   0.331   3.793   4.260 -0.9934  1.0697 -0.8720
 3907TIP3   OH211726   2.395   5.583   2.754 -0.2460 -0.0873 -0.2456
 3907TIP3    H111727   2.362   5.598   2.842 -0.8849 -0.5294 -0.4016
 3907TIP3    H211728   2.387   5.668   2.710  0.7934  0.3334  0.3359
 3908TIP3   OH211729   3.737   1.018   0.727 -0.2231 -0.1563  0.3091
 3908TIP3    H111730   3.801   1.022   0.655 -2.0772 -0.6458 -1.4643
 3908TIP3    H211731   3.755   0.933   0.769  2.3594  1.0947  1.9934
 3909TIP3   OH211732   3.868   3.674   1.253 -0.1941  0.1521 -0.2171
 3909TIP3    H111733   3.927   3.734   1.299  0.0500 -0.3796  0.1621
 3909TIP3    H211734   3.785   3.679   1.302 -0.3773  0.6631 -0.5676
 3910TIP3   OH211735   2.786   3.964   3.265 -0.3909 -0.5775 -0.4381
 3910TIP3    H111736   2.809   3.887   3.318  0.5015 -0.9145 -1.2964
 3910TIP3    H211737   2.863   4.019   3.268 -1.1966  0.5308  0.5592
 3911TIP3   OH211738   0.113   0.778   2.006 -0.3932  0.7832  0.0664
 3911TIP3    H111739   0.122   0.703   1.947 -0.4824  0.1077  0.8995
 3911TIP3    H211740   0.196   0.825   1.998  0.4039 -0.4368  0.9336
 3912TIP3   OH211741   1.882   4.389   2.124 -0.3258  0.2485  0.0780
 3912TIP3    H111742   1.834   4.306   2.119 -0.8923  0.5239  0.7026
 3912TIP3    H211743   1.838   4.446   2.061  0.1690  0.0322 -0.4729
 3913TIP3   OH211744   4.307   0.797   0.797 -0.1351 -0.0185 -0.6716
 3913TIP3    H111745   4.267   0.815   0.712 -2.5393  0.4258  0.4712
 3913TIP3    H211746   4.378   0.861   0.804 -0.4730  0.5340 -1.9528
 3914TIP3   OH211747   2.450   0.202   1.747  0.2238 -0.2218 -0.5674
 3914TIP3    H111748   2.491   0.137   1.803 -1.1967 -1.3449 -0.7570
 3914TIP3    H211749   2.522   0.257   1.716  1.2140 -0.4881  1.1439
 3915TIP3   OH211750   4.959   2.754   0.544  0.0432 -0.1723  0.3376
 3915TIP3    H111751   4.890   2.742   0.608 -0.5001 -0.7256 -0.3337
 3915TIP3    H211752   4.913   2.771   0.462  0.7303  1.2456  0.2186
 3916TIP3   OH211753   1.034   4.135   2.209  0.5052  0.2088 -0.6249
 3916TIP3    H111754   1.002   4.045   2.217  0.0610  0.1395 -2.7164
 3916TIP3    H211755   0.955   4.187   2.193  0.7335  1.0304  0.7482
 3917TIP3   OH211756   5.443   0.658   3.424  0.2319  0.7487  0.8455
 3917TIP3    H111757   5.440   0.580   3.368  1.0530  0.2620  1.4661
 3917TIP3    H211758   5.484   0.628   3.505  1.2819  2.0086  0.8012
 3918TIP3   OH211759   5.396   3.971   0.331  0.4873  0.3564 -0.0067
 3918TIP3    H111760   5.472   3.958   0.387  0.0365  0.3534  0.6195
 3918TIP3    H211761   5.354   4.049   0.366  0.5457  0.7214 -0.7426
 3919TIP3   OH211762   5.770   4.637   0.210  0.0238  0.6317  0.4590
 3919TIP3    H111763   5.828   4.709   0.188  0.7589 -0.0659  0.0691
 3919TIP3    H211764   5.804   4.562   0.161 -1.2374  0.2193  0.1672
 3920TIP3   OH211765   2.339   3.790   4.908 -0.1696  0.2611 -0.2653
 3920TIP3    H111766   2.257   3.839   4.903  0.2984  1.0164 -0.7555
 3920TIP3    H211767   2.399   3.837   4.850  0.2905 -0.9098 -0.7825
 3921TIP3   OH211768   2.493   3.485   1.281  0.0267 -0.0781  0.5283
 3921TIP3    H111769   2.420   3.494   1.220  0.3419 -0.6545  0.0578
 3921TIP3    H211770   2.571   3.503   1.228  0.4241 -2.0359  0.3676
 3922TIP3   OH211771   2.788   2.295   4.997  0.3215 -0.0849 -0.1358
 3922TIP3    H111772   2.761   2.270   5.085 -0.8448  1.8539  0.1115
 3922TIP3    H211773   2.708   2.325   4.954  0.9979 -0.2667 -1.6072
 3923TIP3   OH211774   0.824   0.209   4.610 -0.0171  0.3352 -0.3368
 3923TIP3    H111775   0.773   0.128   4.612 -0.7554  0.6558  3.6443
 3923TIP3    H211776   0.913   0.181   4.589 -0.6266 -1.1834 -1.0222
 3924TIP3   OH211777   6.040   1.573   2.919 -0.0908  0.0111 -0.2738
 3924TIP3    H111778   6.041   1.586   2.825 -2.2055 -0.2357 -0.3625
 3924TIP3    H211779   6.082   1.652   2.955 -0.4965  0.7430 -1.3635
 3925TIP3   OH211780   5.713   1.153   3.519 -0.1588 -0.0706  0.3025
 3925TIP3    H111781   5.626   1.189   3.535 -0.0594  1.5748 -2.3570
 3925TIP3    H211782   5.698   1.078   3.461  0.1616  0.0569  0.0501
 3926TIP3   OH211783   0.322   3.853   2.090 -0.2965  0.4012 -0.5382
 3926TIP3    H111784   0.324   3.835   2.184 -2.8114  0.2131 -0.4672
 3926TIP3    H211785   0.398   3.806   2.055 -0.7945 -1.7140  1.0502
 3927TIP3   OH211786   1.737   4.811   4.253  0.1652 -0.2870 -0.0903
 3927TIP3    H111787   1.746   4.906   4.240 -1.5366 -0.2168 -1.0100
 3927TIP3    H211788   1.655   4.801   4.301  1.0175 -1.2469  1.2542
 3928TIP3   OH211789   1.027   1.465   4.619 -0.1213  1.1872 -0.0401
 3928TIP3    H111790   1.074   1.515   4.685 -2.2469 -0.1621  2.7378
 3928TIP3    H211791   1.054   1.374   4.634 -1.7573  0.6841  0.0627
 3929TIP3   OH211792   3.902   2.524   1.784  0.8156 -0.3231 -0.7929
 3929TIP3    H111793   3.951   2.549   1.862 -1.8380 -0.8807  1.1675
 3929TIP3    H211794   3.908   2.601   1.727 -1.9113  2.6274  2.4359
 3930TIP3   OH211795   5.284   1.127   1.569  0.5730  0.4600  0.3206
 3930TIP3    H111796   5.244   1.074   1.638 -0.3732  0.7643  0.0261
 3930TIP3    H211797   5.255   1.086   1.487 -2.0354  2.6494  0.0237
 3931TIP3   OH211798   4.878   0.917   3.731  0.3760 -0.0918  0.1150
 3931TIP3    H111799   4.953   0.894   3.676 -0.2404  1.2633 -1.3440
 3931TIP3    H211800   4.806   0.864   3.697 -0.2112  1.3685 -0.9781
 3932TIP3   OH211801   2.297   2.339   4.352  0.3391  0.1280  0.1496
 3932TIP3    H111802   2.342   2.255   4.343 -1.1362 -0.7119  0.2268
 3932TIP3    H211803   2.270   2.362   4.263 -0.5308 -0.2433  0.3026
 3933TIP3   OH211804   2.005   1.728   0.603 -0.1435  0.0526 -0.0048
 3933TIP3    H111805   1.973   1.733   0.513  2.5901  2.5749 -0.9968
 3933TIP3    H211806   2.041   1.814   0.620  1.0144 -0.9019  2.9057
 3934TIP3   OH211807   0.285   2.125   0.980  0.3302 -0.1632 -0.1194
 3934TIP3    H111808   0.286   2.216   1.009 -0.7333  0.0836 -0.7938
 3934TIP3    H211809   0.356   2.119   0.917  0.1631  0.3103 -0.3605
 3935TIP3   OH211810   5.766   3.329   1.650  0.2576  0.6036 -0.0788
 3935TIP3    H111811   5.808   3.308   1.733  1.0677  1.8464 -0.1505
 3935TIP3    H211812   5.837   3.360   1.594 -0.2242 -0.4057 -1.3311
 3936TIP3   OH211813   5.283   2.218   1.375 -0.0929 -0.4130  0.1261
 3936TIP3    H111814   5.297   2.313   1.378  0.1269 -0.2866 -2.7079
 3936TIP3    H211815   5.188   2.208   1.374 -0.1772  0.0197 -2.5704
 3937TIP3   OH211816   3.829   3.095   3.228  0.1389  0.6698 -0.4690
 3937TIP3    H111817   3.908   3.042   3.231 -0.4878 -0.4040 -2.1600
 3937TIP3    H211818   3.775   3.056   3.160  0.4512  4.5679 -3.3195
 3938TIP3   OH211819   3.605   0.934   1.032  0.4212 -0.1336 -0.2684
 3938TIP3    H111820   3.524   0.971   0.996  0.9455 -0.2508 -1.6197
 3938TIP3    H211821   3.673   0.995   1.006  0.9503 -0.7358 -0.3104
 3939TIP3   OH211822   3.427   2.187   4.524  0.0052 -0.4366  0.8296
 3939TIP3    H111823   3.368   2.170   4.450 -1.2092 -0.9783  1.8835
 3939TIP3    H211824   3.468   2.271   4.503 -1.1646 -0.0286  0.0629
 3940TIP3   OH211825   1.392   1.242   1.684 -0.0094 -0.2855  0.4729
 3940TIP3    H111826   1.351   1.160   1.656 -0.5406 -0.0056  0.4313
 3940TIP3    H211827   1.457   1.215   1.749 -0.2978 -0.7225  0.5844
 3941TIP3   OH211828   5.983   2.546   0.319  0.1090 -0.5266 -0.3338
 3941TIP3    H111829   5.893   2.577   0.308  0.0778 -0.3317  0.4360
 3941TIP3    H211830   5.983   2.498   0.402  0.4063 -1.7065 -0.9917
 3942TIP3   OH211831   4.553   3.153   2.334 -0.6030  0.5374  0.2338
 3942TIP3    H111832   4.630   3.120   2.288 -1.1240 -0.4369  0.0475
 3942TIP3    H211833   4.531   3.235   2.289  0.9416  1.3954  0.9619
 3943TIP3   OH211834   2.325   0.551   2.737  0.2913 -0.3759 -0.4121
 3943TIP3    H111835   2.338   0.638   2.775  1.4874 -0.1532 -1.2972
 3943TIP3    H211836   2.397   0.540   2.676 -0.2149 -1.7371 -0.8001
 3944TIP3   OH211837   5.622   2.078   4.361 -0.4544 -0.4851 -0.1550
 3944TIP3    H111838   5.634   1.985   4.345 -1.6663 -0.5741 -0.5886
 3944TIP3    H211839   5.626   2.086   4.457 -1.1382 -1.1029 -0.0675
 3945TIP3   OH211840   2.314   0.317   1.354  0.1820  0.1490 -0.1482
 3945TIP3    H111841   2.408   0.300   1.348  0.0938 -0.3533 -0.1426
 3945TIP3    H211842   2.297   0.322   1.448 -0.2040 -2.1768 -0.0400
 3946TIP3   OH211843   4.230   3.478   0.967  0.5999 -0.4367 -0.0200
 3946TIP3    H111844   4.313   3.515   0.936 -0.2066  2.5174  1.0429
 3946TIP3    H211845   4.166   3.505   0.901 -0.2095  1.2724  1.3866
 3947TIP3   OH211846   4.192   3.543   3.384  0.1767 -0.3304 -0.0015
 3947TIP3    H111847   4.160   3.478   3.446  1.0616 -1.0996 -0.3228
 3947TIP3    H211848   4.249   3.600   3.436 -0.1763 -0.1244  0.1669
 3948TIP3   OH211849   2.796   1.108   3.394  0.2513  0.5339  0.4195
 3948TIP3    H111850   2.799   1.012   3.399  0.5791  0.5114 -0.1373
 3948TIP3    H211851   2.802   1.137   3.485 -2.1430 -0.0187  0.8250
 3949TIP3   OH211852   2.140   0.120   0.239 -0.0004 -0.1629  0.1880
 3949TIP3    H111853   2.090   0.039   0.224  0.2593 -0.3829  0.5007
 3949TIP3    H211854   2.091   0.187   0.192  0.3834 -0.6990 -1.0473
 3950TIP3   OH211855   1.535   3.499   0.036 -0.4046 -0.3704  0.2893
 3950TIP3    H111856   1.472   3.486  -0.035  0.7958 -0.8292 -0.7196
 3950TIP3    H211857   1.499   3.571   0.087 -1.2274  0.0485 -0.8518
 3951TIP3   OH211858   2.363   5.470   1.220  0.2202  0.3778 -0.1977
 3951TIP3    H111859   2.321   5.476   1.135  0.7039 -2.1013 -0.7045
 3951TIP3    H211860   2.450   5.434   1.201  0.1514 -0.7085  1.3722
 3952TIP3   OH211861   0.379   3.103   3.038  0.5625  0.1969 -0.2289
 3952TIP3    H111862   0.468   3.073   3.023 -0.2699 -3.2148  0.8033
 3952TIP3    H211863   0.326   3.023   3.036 -1.6477  1.1078  5.0846
 3953TIP3   OH211864   0.877   2.172   4.098 -0.0345 -0.2847  0.0337
 3953TIP3    H111865   0.792   2.194   4.061 -0.1459 -0.9732 -0.1298
 3953TIP3    H211866   0.931   2.250   4.082 -0.4759 -0.0516 -0.3386
 3954TIP3   OH211867   5.825   5.431   3.965  0.0566 -0.1956 -0.3154
 3954TIP3    H111868   5.901   5.374   3.977  0.8999  0.8077 -0.7301
 3954TIP3    H211869   5.750   5.372   3.969  0.6862 -0.9732  2.2461
 3955TIP3   OH211870   1.191   3.349   3.580 -0.4601 -0.2426  0.9555
 3955TIP3    H111871   1.201   3.319   3.670  0.4346 -0.9445  0.6377
 3955TIP3    H211872   1.168   3.271   3.530 -1.3441  0.2138  0.6293
 3956TIP3   OH211873   0.786   1.021   3.976 -0.1118  0.2590  0.0573
 3956TIP3    H111874   0.697   1.022   3.941 -0.0133 -0.2036 -0.2108
 3956TIP3    H211875   0.776   1.001   4.069 -0.3747  1.4800  0.3039
 3957TIP3   OH211876   1.732   1.618   3.579 -0.1643 -0.2515  0.0296
 3957TIP3    H111877   1.803   1.555   3.567  0.0951  0.1987 -0.9256
 3957TIP3    H211878   1.760   1.672   3.652 -0.5403 -1.4267  1.0830
 3958TIP3   OH211879   4.022   1.175   3.682 -0.1013 -0.1658 -0.5801
 3958TIP3    H111880   3.998   1.103   3.741  3.5792  0.6681  2.3368
 3958TIP3    H211881   3.980   1.252   3.719  1.6276  0.2331  0.7087
 3959TIP3   OH211882   5.232   5.882   1.174 -0.1952 -0.0907 -0.2171
 3959TIP3    H111883   5.307   5.914   1.224  0.6643 -1.6945 -0.4050
 3959TIP3    H211884   5.254   5.902   1.083  0.3727 -1.2338 -0.3400
 3960TIP3   OH211885   2.664   4.562   4.451 -0.1105 -0.1552  0.0153
 3960TIP3    H111886   2.713   4.513   4.384 -0.3107  0.4455 -0.5739
 3960TIP3    H211887   2.631   4.639   4.406  1.6834  1.4818  1.3172
 3961TIP3   OH211888   4.901   1.267   0.067 -0.1618  0.1804  0.2765
 3961TIP3    H111889   4.872   1.348   0.025 -0.0769  0.1406  0.1391
 3961TIP3    H211890   4.839   1.254   0.139 -0.9519 -0.3049 -0.4708
 3962TIP3   OH211891   5.023   5.110   0.702  0.3568 -0.2227  0.0040
 3962TIP3    H111892   5.061   5.194   0.674  1.2506  0.2931  2.5094
 3962TIP3    H211893   5.075   5.085   0.778  0.0558 -3.0591 -0.6307
 3963TIP3   OH211894   5.765   2.134   5.153 -0.3688 -0.2253 -0.0818
 3963TIP3    H111895   5.834   2.199   5.139  0.0056 -0.5052  0.4124
 3963TIP3    H211896   5.698   2.180   5.203 -0.2118 -0.1515  0.0615
 3964TIP3   OH211897   2.650   4.470   0.940 -0.2515  0.3076  0.2429
 3964TIP3    H111898   2.560   4.454   0.911 -0.1330  0.4993 -0.2581
 3964TIP3    H211899   2.646   4.474   1.035 -0.7521  0.1889  0.2248
 3965TIP3   OH211900   6.389   2.679   4.428  0.0063 -0.0537 -0.4364
 3965TIP3    H111901   6.324   2.749   4.436  0.0265 -0.0980  0.1994
 3965TIP3    H211902   6.358   2.611   4.489  0.5731 -0.1345 -0.2370
 3966TIP3   OH211903   3.241   4.829   2.391 -0.7817  0.2508  0.3852
 3966TIP3    H111904   3.293   4.840   2.471 -1.5804  1.4360  0.7776
 3966TIP3    H211905   3.163   4.782   2.419 -1.2496  1.0160  0.4085
 3967TIP3   OH211906   0.447   2.552   1.511  0.5360 -0.0386  1.0818
 3967TIP3    H111907   0.523   2.601   1.479  0.7817 -1.8625 -1.4681
 3967TIP3    H211908   0.372   2.605   1.486  0.8789  0.2277  0.5965
 3968TIP3   OH211909   0.986   2.143   0.643 -1.4603 -0.1403 -1.0127
 3968TIP3    H111910   0.932   2.170   0.569 -0.0350 -1.1529 -2.4737
 3968TIP3    H211911   1.065   2.106   0.604 -0.4229 -0.2501  1.0233
 3969TIP3   OH211912   0.087   3.748   3.106  0.0041 -0.5205 -0.4342
 3969TIP3    H111913   0.130   3.760   3.190 -2.0261  1.5819  0.4437
 3969TIP3    H211914   0.154   3.712   3.049  2.0527 -0.0621  1.5403
 3970TIP3   OH211915   5.470   5.332   2.118  0.3509 -0.1942  0.1674
 3970TIP3    H111916   5.386   5.378   2.126 -1.7561 -3.5004 -0.8436
 3970TIP3    H211917   5.517   5.354   2.199 -1.6177  1.5379  0.9352
 3971TIP3   OH211918   0.873   1.812   0.113 -0.4473  0.0546  0.5039
 3971TIP3    H111919   0.930   1.868   0.165  0.0335 -0.2848  0.3472
 3971TIP3    H211920   0.865   1.855   0.029 -0.0472 -0.1303  0.3708
 3972TIP3   OH211921   1.905   1.054   3.287 -0.5384  0.2178  0.0795
 3972TIP3    H111922   1.860   1.137   3.273 -2.3063 -0.8007 -0.5269
 3972TIP3    H211923   1.859   0.991   3.231  0.9784 -1.1214  0.2409
 3973TIP3   OH211924   2.635   4.194   3.668 -0.0624 -0.2170 -0.3734
 3973TIP3    H111925   2.564   4.257   3.665  0.2406  0.1005 -1.4836
 3973TIP3    H211926   2.713   4.243   3.640  0.6512 -0.4908  1.0591
 3974TIP3   OH211927   1.251   0.398   4.152  0.5219  0.2768  0.2226
 3974TIP3    H111928   1.259   0.438   4.239  3.2085 -1.9860  1.1589
 3974TIP3    H211929   1.267   0.470   4.091  0.3505  1.5689  1.6349
 3975TIP3   OH211930   0.046   4.762   1.198 -0.2821  0.0131  0.5444
 3975TIP3    H111931   0.108   4.754   1.271  1.6144  0.5127 -0.9410
 3975TIP3    H211932   0.022   4.854   1.197  1.0832  0.3898 -0.4933
 3976TIP3   OH211933   4.452   5.086   3.525 -0.8684 -0.0001  0.5019
 3976TIP3    H111934   4.484   5.014   3.471  0.6070  2.0120 -1.5131
 3976TIP3    H211935   4.357   5.089   3.507 -1.0132 -1.6291  0.9235
 3977TIP3   OH211936   2.654   3.641   3.196 -0.5308  0.0775  0.5504
 3977TIP3    H111937   2.654   3.612   3.287 -3.9820  2.1257  1.4023
 3977TIP3    H211938   2.724   3.706   3.191 -0.3546 -0.0009  1.7481
 3978TIP3   OH211939   3.577   0.059   4.631 -0.3148  0.1697  0.3914
 3978TIP3    H111940   3.492   0.056   4.674 -0.8490 -2.1677 -0.7142
 3978TIP3    H211941   3.566   0.008   4.551  1.4056  2.0592 -1.1856
 3979TIP3   OH211942   2.225   2.672   3.316 -0.7304 -0.2220 -0.5553
 3979TIP3    H111943   2.298   2.687   3.377  0.1733  0.5015 -1.7621
 3979TIP3    H211944   2.223   2.577   3.304 -0.4737 -0.3093  0.0756
 3980TIP3   OH211945   3.680   4.320   3.711 -0.2220 -0.0115  0.1027
 3980TIP3    H111946   3.617   4.266   3.663  0.3393 -0.4335 -0.1725
 3980TIP3    H211947   3.712   4.382   3.645  0.7213 -0.7389 -0.1516
 3981TIP3   OH211948   1.280   5.914   0.051  0.4692  0.0912 -0.1604
 3981TIP3    H111949   1.195   5.944   0.085 -0.1116 -0.5331 -1.0313
 3981TIP3    H211950   1.310   5.850   0.115 -0.2926 -0.5726 -0.4516
 3982TIP3   OH211951   2.047   5.791   3.382  0.5146 -0.0947  0.1160
 3982TIP3    H111952   2.042   5.860   3.316 -3.2086 -0.6192 -0.3673
 3982TIP3    H211953   1.988   5.820   3.451  1.5052 -1.2902  1.5381
 3983TIP3   OH211954   2.927   1.672   2.091 -0.1227  0.3832  0.0770
 3983TIP3    H111955   2.955   1.647   2.003 -0.2452  0.3983  0.0325
 3983TIP3    H211956   2.964   1.760   2.104 -0.2335  0.4445 -0.0206
 3984TIP3   OH211957   3.154   1.888   0.977  0.1631  0.9463  0.3312
 3984TIP3    H111958   3.072   1.913   1.020  0.3219  1.1420  0.5268
 3984TIP3    H211959   3.220   1.894   1.046  0.1355 -0.5304  0.5120
 3985TIP3   OH211960   2.753   4.110   4.658 -0.0218 -0.0820 -0.4893
 3985TIP3    H111961   2.845   4.132   4.639 -0.6212  2.4330 -0.8962
 3985TIP3    H211962   2.709   4.117   4.574 -0.6420 -1.0593 -0.2554
 3986TIP3   OH211963   2.802   0.022   2.473  0.0161 -0.1837  0.0665
 3986TIP3    H111964   2.750   0.033   2.394  0.5029 -1.0113 -0.3896
 3986TIP3    H211965   2.741  -0.013   2.538 -0.1162 -0.7116 -0.3284
 3987TIP3   OH211966   3.629   4.551   3.905 -0.1847  0.2799  0.4583
 3987TIP3    H111967   3.687   4.563   3.980 -0.1036  0.0288  0.4379
 3987TIP3    H211968   3.649   4.463   3.873 -2.6170 -1.0105  2.2298
 3988TIP3   OH211969   4.277   1.444   0.770  0.1143  0.0164  0.0381
 3988TIP3    H111970   4.306   1.535   0.772  1.5231 -0.4198  0.5497
 3988TIP3    H211971   4.354   1.395   0.743  1.5266 -1.7267  5.8251
 3989TIP3   OH211972   3.076   5.176   2.533 -0.3827  0.7902 -0.0298
 3989TIP3    H111973   3.042   5.105   2.587 -0.2682  1.0284  0.3646
 3989TIP3    H211974   3.090   5.137   2.447  1.5008 -0.1621  0.6575
 3990TIP3   OH211975   6.130   0.564   2.099  0.1021  0.0283 -0.1067
 3990TIP3    H111976   6.046   0.590   2.060  0.0857 -1.1077 -0.8953
 3990TIP3    H211977   6.167   0.502   2.036  1.6446  0.6682  0.1327
 3991TIP3   OH211978   5.996   2.269   3.906 -0.0457 -0.0022  0.6714
 3991TIP3    H111979   5.929   2.246   3.842  0.9857  1.5644 -1.0662
 3991TIP3    H211980   5.966   2.229   3.988 -2.3539 -0.5184 -0.3527
 3992TIP3   OH211981   5.624   5.267   2.375  0.1690 -0.3425 -0.2776
 3992TIP3    H111982   5.548   5.239   2.426  0.7379 -0.0378  0.7522
 3992TIP3    H211983   5.687   5.196   2.384  1.3314  0.8451  1.7496
 3993TIP3   OH211984   3.632   0.901   4.102  0.0053 -0.4751  0.0497
 3993TIP3    H111985   3.537   0.896   4.091 -0.2823  1.2013  1.3270
 3993TIP3    H211986   3.666   0.828   4.050 -2.0460 -1.9134  0.5833
 3994TIP3   OH211987   3.897   5.328   1.834 -0.4014  0.5641  0.1784
 3994TIP3    H111988   3.936   5.249   1.871 -1.3219  0.5431  1.1459
 3994TIP3    H211989   3.971   5.377   1.798  0.1990 -0.6809 -0.3624
 3995TIP3   OH211990   1.420   3.091   2.226  0.2712 -0.1234  0.4160
 3995TIP3    H111991   1.495   3.050   2.269  0.4250 -0.9420 -0.6088
 3995TIP3    H211992   1.455   3.126   2.144 -0.8547 -2.6199 -1.2532
 3996TIP3   OH211993   1.686   1.314   4.743  0.4892  0.5029  0.2837
 3996TIP3    H111994   1.655   1.226   4.765 -0.0202  0.3249 -1.0416
 3996TIP3    H211995   1.607   1.362   4.722  0.9788 -0.0563 -3.5166
 3997TIP3   OH211996   3.055   1.050   4.137  0.5096  0.4581 -0.3088
 3997TIP3    H111997   3.069   1.050   4.232  0.0318  1.0634 -0.2237
 3997TIP3    H211998   3.112   1.120   4.105  0.6019  0.3153 -0.4525
 3998TIP3   OH211999   5.358   5.668   4.715  0.0707  0.2582  0.7333
 3998TIP3    H112000   5.394   5.709   4.637 -1.1847  1.3245  0.6909
 3998TIP3    H212001   5.270   5.641   4.689  0.2447 -0.9112  1.2915
 3999TIP3   OH212002   2.623   2.214   2.108 -0.0678 -0.0744 -0.6840
 3999TIP3    H112003   2.656   2.304   2.116 -0.4183  0.0087 -0.0943
 3999TIP3    H212004   2.561   2.217   2.036 -1.4866  0.6020  0.5044
 4000TIP3   OH212005   0.645   3.692   4.092  0.4449 -0.1618 -1.0675
 4000TIP3    H112006   0.663   3.622   4.030 -0.9453  0.2927 -2.0205
 4000TIP3    H212007   0.624   3.768   4.038 -0.6879  0.2811 -0.0568
 4001TIP3   OH212008   3.014   3.664   0.245 -0.1240 -0.1157  0.4737
 4001TIP3    H112009   3.011   3.759   0.235 -0.9467 -0.3397 -1.7835
 4001TIP3    H212010   3.088   3.637   0.191  1.1131 -0.6742  2.3498
 4002TIP3   OH212011   5.726   1.211   0.302 -0.1443 -0.9387 -0.0650
 4002TIP3    H112012   5.763   1.167   0.225  1.7232 -0.6195  0.5941
 4002TIP3    H212013   5.718   1.142   0.368  0.4114 -0.7952  0.1618
 4003TIP3   OH212014   3.754   5.642   0.498  0.0490  0.0403 -0.0848
 4003TIP3    H112015   3.816   5.636   0.425  0.2354 -1.0509  0.1537
 4003TIP3    H212016   3.761   5.733   0.527  2.7767 -0.4109  0.9914
 4004TIP3   OH212017   4.914   0.015   1.849  0.2824 -0.4536  0.1314
 4004TIP3    H112018   4.992  -0.005   1.900 -0.3683 -1.0957  0.9177
 4004TIP3    H212019   4.895   0.107   1.868 -0.1826 -0.7875  1.4168
 4005TIP3   OH212020   6.084   1.661   1.823 -0.0918  0.3485  0.2653
 4005TIP3    H112021   5.996   1.687   1.848 -0.6415 -0.8755 -0.3257
 4005TIP3    H212022   6.097   1.700   1.737 -0.4481 -0.3035 -0.0876
 4006TIP3   OH212023   3.817   4.645   0.627 -0.3826 -0.2379 -0.1138
 4006TIP3    H112024   3.746   4.705   0.604 -1.6540 -0.4856  2.6882
 4006TIP3    H212025   3.865   4.690   0.697  1.5644 -0.5699 -1.1644
 4007TIP3   OH212026   0.689   4.773   2.177  0.3791 -0.2393  0.0450
 4007TIP3    H112027   0.716   4.705   2.238  0.8471 -0.4844 -0.4310
 4007TIP3    H212028   0.770   4.800   2.133  0.1967  0.6076  0.2163
 4008TIP3   OH212029   0.801   4.488   1.559 -0.0222 -0.2833 -0.0400
 4008TIP3    H112030   0.753   4.474   1.478 -1.6630  0.5434  0.7191
 4008TIP3    H212031   0.870   4.423   1.559  0.0759 -0.2274 -2.1284
 4009TIP3   OH212032   0.298   1.962   1.636  0.2862 -0.9537 -0.1213
 4009TIP3    H112033   0.364   1.943   1.569  0.1193  0.8375 -0.8317
 4009TIP3    H212034   0.215   1.965   1.589 -0.2046 -2.1512  0.6065
 4010TIP3   OH212035   0.425   2.049   0.762  0.2586 -0.0183 -0.1041
 4010TIP3    H112036   0.358   2.035   0.695  0.9057 -1.1551 -0.5429
 4010TIP3    H212037   0.505   2.068   0.713  0.3158  1.1178  0.4104
 4011TIP3   OH212038   1.443   2.524   4.524  0.1997 -0.3351  0.1439
 4011TIP3    H112039   1.492   2.586   4.578  1.0996 -0.4788 -0.4796
 4011TIP3    H212040   1.368   2.499   4.578  0.8602 -0.1663  1.1621
 4012TIP3   OH212041   3.626   4.742   0.445  0.2139  0.1500  0.5120
 4012TIP3    H112042   3.533   4.738   0.424  0.5454 -0.6527 -0.9244
 4012TIP3    H212043   3.670   4.755   0.361  1.4914 -0.9348  0.9731
 4013TIP3   OH212044   2.277   0.409   3.883 -0.0898  0.7402  0.4708
 4013TIP3    H112045   2.283   0.371   3.796 -3.5278  1.0129 -0.0428
 4013TIP3    H212046   2.235   0.494   3.869 -2.0638  0.1981  2.4217
 4014TIP3   OH212047   1.361  -0.011   3.764  0.1015 -0.5205 -0.1019
 4014TIP3    H112048   1.362   0.014   3.671 -1.2711  0.9034  0.2051
 4014TIP3    H212049   1.445   0.019   3.798  0.2589 -0.2529 -0.7093
 4015TIP3   OH212050   5.970   4.833   0.172  0.1947  0.3415  0.3889
 4015TIP3    H112051   6.064   4.847   0.169  0.2371  0.2816  1.2656
 4015TIP3    H212052   5.934   4.900   0.113  0.8499 -0.4451 -0.9567
 4016TIP3   OH212053   3.598   5.247   0.253 -0.3260  0.2027 -0.5359
 4016TIP3    H112054   3.570   5.329   0.294 -0.9851  0.0962 -0.7666
 4016TIP3    H212055   3.621   5.272   0.163  0.6997  0.3579 -0.2414
 4017TIP3   OH212056   3.751   1.461   1.684 -0.1215 -0.2108 -0.2205
 4017TIP3    H112057   3.756   1.548   1.644 -0.5340  0.1569  0.5190
 4017TIP3    H212058   3.683   1.416   1.634 -0.7777  0.3152  0.1883
 4018TIP3   OH212059   3.961   5.543   2.346  0.0804  0.0697  0.7763
 4018TIP3    H112060   3.971   5.575   2.436  3.1441  0.0164  0.5850
 4018TIP3    H212061   3.960   5.623   2.293 -0.6146  0.0640  0.7732
 4019TIP3   OH212062   2.396   3.101   5.048 -0.1869 -0.2803  0.4453
 4019TIP3    H112063   2.400   3.098   4.952  2.0460  1.3100  0.4254
 4019TIP3    H212064   2.391   3.010   5.075  0.3342 -0.8128 -1.1578
 4020TIP3   OH212065   3.814   0.963   3.312 -0.0329  0.6355 -0.2804
 4020TIP3    H112066   3.883   0.909   3.350 -1.5156 -1.1094  0.0599
 4020TIP3    H212067   3.841   1.053   3.331  1.0640 -0.0603  1.7392
 4021TIP3   OH212068   4.608   0.034   0.799 -0.0434 -0.1992  0.5174
 4021TIP3    H112069   4.661   0.100   0.845  0.1683 -0.3566  0.5022
 4021TIP3    H212070   4.640  -0.050   0.833  1.8274 -0.4678 -1.6298
 4022TIP3   OH212071   1.259   1.369   2.254  0.1709  0.7306  0.0419
 4022TIP3    H112072   1.306   1.441   2.297 -0.0186 -1.2149  3.9350
 4022TIP3    H212073   1.170   1.374   2.288  0.1676 -1.2999  0.4879
 4023TIP3   OH212074   5.333   2.855   0.093 -0.1024 -0.4096  0.2316
 4023TIP3    H112075   5.375   2.936   0.123 -1.5327  1.2192 -1.8353
 4023TIP3    H212076   5.279   2.827   0.167  1.9152 -0.6723  1.6964
 4024TIP3   OH212077   5.031   3.194   0.572  0.3076 -0.1242  0.6457
 4024TIP3    H112078   5.045   3.113   0.622 -0.6963 -1.1838 -0.7218
 4024TIP3    H212079   5.009   3.164   0.484 -2.0091  1.5614  0.5577
 4025TIP3   OH212080   4.154   0.584   1.860  0.0879  0.1856  0.3078
 4025TIP3    H112081   4.128   0.608   1.949 -0.9192  0.1099  0.0492
 4025TIP3    H212082   4.072   0.581   1.811  0.7881  2.4495 -1.1709
 4026TIP3   OH212083   0.942   0.802   2.623 -0.5960  0.4281 -0.0434
 4026TIP3    H112084   1.006   0.791   2.694 -0.6132 -0.2111 -0.1248
 4026TIP3    H212085   0.885   0.872   2.654 -1.1983 -0.5016  1.0239
 4027TIP3   OH212086   5.002   0.998   4.734 -0.6105 -0.2528  0.1063
 4027TIP3    H112087   4.977   0.912   4.701 -0.4682 -0.5165  0.6919
 4027TIP3    H212088   4.984   1.057   4.660  0.2021 -0.9064 -0.6349
 4028TIP3   OH212089   2.782   3.801   2.952 -0.0865 -0.0572  0.4917
 4028TIP3    H112090   2.805   3.865   2.885 -0.6977  0.1560  0.4876
 4028TIP3    H212091   2.687   3.793   2.948 -0.1433  0.0026  1.3622
 4029TIP3   OH212092   5.718   4.330   1.571  0.1891 -0.8553  0.0242
 4029TIP3    H112093   5.801   4.343   1.616 -0.2495  0.4870  0.5037
 4029TIP3    H212094   5.690   4.242   1.595  1.1837 -1.0933  0.3341
 4030TIP3   OH212095   6.338   3.131   2.271 -0.8199  0.2863  0.1478
 4030TIP3    H112096   6.314   3.040   2.250  0.0939  0.5387 -2.4468
 4030TIP3    H212097   6.418   3.123   2.323 -1.0247 -0.3913  0.3718
 4031TIP3   OH212098   0.605   3.708   0.554  0.2280 -0.5590  0.4545
 4031TIP3    H112099   0.658   3.700   0.475  0.4669 -0.9482  0.6502
 4031TIP3    H212100   0.518   3.679   0.528 -0.0595  0.6402 -0.0223
 4032TIP3   OH212101   3.185   2.251   4.282 -0.0630  0.5502 -0.4924
 4032TIP3    H112102   3.110   2.226   4.336  1.0602  0.7193  1.2202
 4032TIP3    H212103   3.203   2.341   4.308  1.2859  0.2106 -0.1912
 4033TIP3   OH212104   6.174   1.185   0.419 -0.1367 -0.1256 -0.3543
 4033TIP3    H112105   6.248   1.148   0.371  0.2836  0.0012  0.1850
 4033TIP3    H212106   6.097   1.147   0.377  0.2542 -0.7972 -0.4747
 4034TIP3   OH212107   2.708   2.927   0.815  0.6672 -0.2900  0.1914
 4034TIP3    H112108   2.644   2.857   0.806  0.2292  0.1593 -0.1999
 4034TIP3    H212109   2.705   2.951   0.908  0.3528 -0.3538  0.1981
 4035TIP3   OH212110   1.767   1.703   2.772 -0.1606  0.0926  0.4233
 4035TIP3    H112111   1.754   1.692   2.866 -0.0412  0.7116  0.5182
 4035TIP3    H212112   1.801   1.619   2.742  1.9593  0.5457  1.3306
 4036TIP3   OH212113   0.412   5.515   2.165  0.5343  0.0420  0.5159
 4036TIP3    H112114   0.345   5.535   2.230  0.3920  2.1930 -0.2272
 4036TIP3    H212115   0.414   5.419   2.162  0.9359 -0.2027  4.0542
 4037TIP3   OH212116   3.331   3.790   1.753  0.1967  0.4647  0.1304
 4037TIP3    H112117   3.367   3.746   1.676  0.2732  0.2284  0.2981
 4037TIP3    H212118   3.387   3.866   1.766 -0.8420  1.5009 -1.0725
 4038TIP3   OH212119   5.534   3.442   2.782 -0.5098  0.2400  0.2189
 4038TIP3    H112120   5.624   3.475   2.781 -0.5033  0.2184 -0.5241
 4038TIP3    H212121   5.542   3.348   2.765 -0.7549  0.5131 -1.6803
 4039TIP3   OH212122   3.614   1.880   0.730  0.2560  0.1929 -0.6324
 4039TIP3    H112123   3.708   1.891   0.744  0.7605 -3.9291  0.6438
 4039TIP3    H212124   3.608   1.852   0.638  0.6289 -1.6641 -0.1307
 4040TIP3   OH212125   5.925   3.145   0.673  0.0723 -1.1802 -0.2481
 4040TIP3    H112126   5.833   3.162   0.692  0.2297 -0.8915  0.2688
 4040TIP3    H212127   5.925   3.111   0.583 -0.2725  1.5433 -1.3819
 4041TIP3   OH212128   2.263   3.244   4.533 -0.2383 -0.0152  0.4220
 4041TIP3    H112129   2.246   3.219   4.443 -0.7810  0.8063  0.2884
 4041TIP3    H212130   2.359   3.240   4.542 -0.1215  0.7615 -0.4424
 4042TIP3   OH212131   2.549   1.781   4.308 -0.3217 -0.2825 -0.2452
 4042TIP3    H112132   2.463   1.749   4.283 -1.9884  2.9723  0.8335
 4042TIP3    H212133   2.570   1.848   4.243  0.9546 -0.3230  0.0960
 4043TIP3   OH212134   3.837   0.604   5.086 -0.0345 -0.1052 -0.2285
 4043TIP3    H112135   3.851   0.570   4.998  1.6103 -2.8815  0.9717
 4043TIP3    H212136   3.904   0.672   5.097  0.7843 -0.8201 -0.6463
 4044TIP3   OH212137   2.532   1.664   2.826  0.6170 -1.0036 -0.2145
 4044TIP3    H112138   2.472   1.731   2.794  1.1173 -0.1106  0.6659
 4044TIP3    H212139   2.509   1.653   2.918  3.3250  1.1439  0.8380
 4045TIP3   OH212140   4.501   5.714   4.850 -0.1421  0.7502 -0.1315
 4045TIP3    H112141   4.531   5.726   4.760 -2.3456  0.1949 -1.0075
 4045TIP3    H212142   4.479   5.802   4.881  0.8310  0.9691 -0.0116
 4046TIP3   OH212143   3.440   0.558   4.903  0.4433 -0.5866  0.3453
 4046TIP3    H112144   3.492   0.611   4.963  0.8128 -1.8259  1.1511
 4046TIP3    H212145   3.428   0.474   4.949 -1.2621 -0.7371 -0.3266
 4047TIP3   OH212146   0.252   2.099   4.684  0.2258  0.0250 -0.1525
 4047TIP3    H112147   0.282   2.181   4.723 -0.6090  0.0080  0.5429
 4047TIP3    H212148   0.178   2.072   4.737 -0.8107 -0.1177 -1.6007
 4048TIP3   OH212149   3.079   2.946   3.248 -0.1228  0.0442  0.0964
 4048TIP3    H112150   3.138   3.020   3.254 -0.8795  0.6598  0.1299
 4048TIP3    H212151   3.131   2.871   3.276  0.9424  0.3938 -0.8769
 4049TIP3   OH212152   2.832   3.171   0.193 -1.1881 -0.6274 -1.2655
 4049TIP3    H112153   2.825   3.260   0.160 -1.2096  0.4337  1.3645
 4049TIP3    H212154   2.748   3.153   0.235 -0.1307 -0.6008  1.0218
 4050TIP3   OH212155   3.970   1.305   4.517 -0.1692 -0.7383  0.0074
 4050TIP3    H112156   3.951   1.213   4.533  0.2287 -0.9320 -0.5861
 4050TIP3    H212157   3.932   1.323   4.431 -2.0936  0.2215  1.0019
 4051TIP3   OH212158   4.410   0.827   4.723 -0.0585  0.1485 -0.1547
 4051TIP3    H112159   4.441   0.767   4.791  0.7915 -1.0006 -1.5152
 4051TIP3    H212160   4.365   0.771   4.660 -0.5527  1.1517 -0.7150
 4052TIP3   OH212161   3.031   1.071   1.840  0.5240 -0.3647 -0.2289
 4052TIP3    H112162   3.020   0.976   1.850  1.1986 -0.3221  1.1087
 4052TIP3    H212163   3.066   1.100   1.924  1.8323  0.8394 -1.1449
 4053TIP3   OH212164   1.509   3.302   3.576 -0.1322 -0.0060  0.7019
 4053TIP3    H112165   1.467   3.216   3.586  0.7195 -0.7576 -1.6059
 4053TIP3    H212166   1.591   3.293   3.624  0.0535 -0.5765  0.2932
 4054TIP3   OH212167   1.600   4.211   0.506  0.2896  0.5726 -0.0412
 4054TIP3    H112168   1.660   4.278   0.475 -0.9689  0.9385 -1.8424
 4054TIP3    H212169   1.561   4.248   0.585 -0.0021  1.7528 -0.7204
 4055TIP3   OH212170   1.486   1.928   2.161  0.0419  0.2346  0.7350
 4055TIP3    H112171   1.479   1.930   2.065 -0.7706  0.6661  0.7954
 4055TIP3    H212172   1.580   1.916   2.177  0.1245 -0.3951 -0.1120
 4056TIP3   OH212173   2.753   0.268   3.168 -0.1766 -0.1848 -0.0532
 4056TIP3    H112174   2.832   0.214   3.170 -0.5675 -0.7600 -0.0745
 4056TIP3    H212175   2.774   0.343   3.224  1.0508  0.5965 -1.4741
 4057TIP3   OH212176   3.121   0.826   2.522 -0.4856 -0.4397  0.1344
 4057TIP3    H112177   3.209   0.814   2.488 -0.8780  1.3715 -1.7137
 4057TIP3    H212178   3.131   0.820   2.617  1.3363 -1.7974 -0.0880
 4058TIP3   OH212179   4.824   0.936   3.180 -1.0305 -0.0995  0.8042
 4058TIP3    H112180   4.908   0.896   3.158 -0.6130  0.3186  1.5929
 4058TIP3    H212181   4.776   0.867   3.227 -1.9530 -1.0176 -1.3628
 4059TIP3   OH212182   5.969   5.669   1.720 -0.0710 -0.5651 -0.5390
 4059TIP3    H112183   5.963   5.612   1.644 -0.3673 -2.9109  1.1154
 4059TIP3    H212184   6.001   5.612   1.790 -0.8302  1.1979  1.3523
 4060TIP3   OH212185   5.056   0.784   3.173  0.1073  0.1144 -0.2868
 4060TIP3    H112186   5.080   0.751   3.086 -0.1839  1.9939 -1.1313
 4060TIP3    H212187   5.125   0.847   3.194 -1.0563  1.3737 -0.1958
 4061TIP3   OH212188   2.298   4.408   2.540 -0.1027  0.3621 -0.4814
 4061TIP3    H112189   2.232   4.340   2.555 -0.0955  0.5197  0.3367
 4061TIP3    H212190   2.381   4.360   2.540 -0.1535  0.2738 -0.6403
 4062TIP3   OH212191   2.151   2.331   1.376 -0.4031  0.4183 -0.2321
 4062TIP3    H112192   2.056   2.319   1.387 -0.3182  1.0160  1.4522
 4062TIP3    H212193   2.166   2.422   1.402  0.8107 -0.0556  0.7776
 4063TIP3   OH212194   0.974   3.952   0.525  0.0142 -0.2867 -0.1376
 4063TIP3    H112195   1.053   4.005   0.536  1.6463 -2.0854 -2.1386
 4063TIP3    H212196   0.967   3.901   0.605 -1.4647  2.5777  1.7374
 4064TIP3   OH212197   2.612   3.951   2.418  0.8913  0.0772 -0.3568
 4064TIP3    H112198   2.677   3.881   2.405  1.2590  0.8400 -3.3923
 4064TIP3    H212199   2.546   3.934   2.351 -0.6726  0.8839  0.9221
 4065TIP3   OH212200   0.128   2.153   0.608 -0.3162 -0.2975  0.2606
 4065TIP3    H112201   0.191   2.154   0.536 -0.0858 -0.6565  0.4566
 4065TIP3    H212202   0.075   2.074   0.593  0.3197 -0.8779  0.9822
 4066TIP3   OH212203   2.057   3.704   4.145 -0.2138  0.5399  0.1041
 4066TIP3    H112204   2.124   3.723   4.210 -0.0660  0.5509 -0.0484
 4066TIP3    H212205   2.096   3.734   4.062  0.2674 -0.9313 -0.2439
 4067TIP3   OH212206   3.613   0.750   3.795 -0.1031  0.3487 -0.0455
 4067TIP3    H112207   3.533   0.699   3.804 -0.4457  0.7757 -0.5523
 4067TIP3    H212208   3.592   0.815   3.728  0.0055  1.7451  1.2172
 4068TIP3   OH212209   4.289   4.569   1.285  0.1357 -0.2355  0.3473
 4068TIP3    H112210   4.253   4.617   1.360 -0.6135  0.6745 -0.5684
 4068TIP3    H212211   4.369   4.529   1.319  0.2674  0.8498  1.4102
 4069TIP3   OH212212   0.130   1.747   2.972 -0.7996 -0.1251 -0.3564
 4069TIP3    H112213   0.123   1.682   2.901  0.3212  0.7071 -1.2573
 4069TIP3    H212214   0.145   1.830   2.927  1.4228  0.2122  0.8679
 4070TIP3   OH212215   0.107   4.014   1.399  0.1879 -0.5342  0.1535
 4070TIP3    H112216   0.088   3.934   1.448  0.2360 -0.0331  1.0022
 4070TIP3    H212217   0.027   4.030   1.349 -0.7877  0.2167  1.8542
 4071TIP3   OH212218   3.894   4.766   2.384  0.3446  0.1534 -1.0095
 4071TIP3    H112219   3.956   4.694   2.394 -0.6033 -0.8967 -2.4471
 4071TIP3    H212220   3.811   4.732   2.416  0.0723  0.9290 -0.8547
 4072TIP3   OH212221   0.970   2.388   3.034 -0.3853  0.1157 -0.3607
 4072TIP3    H112222   1.043   2.448   3.018 -1.1090  1.4023  0.9765
 4072TIP3    H212223   1.005   2.302   3.010  2.0503  0.4641  1.5164
 4073TIP3   OH212224   4.138   2.753   2.150  0.4848 -0.0117 -0.3245
 4073TIP3    H112225   4.147   2.785   2.060  2.0116 -0.7926 -0.4822
 4073TIP3    H212226   4.207   2.688   2.159  0.1154 -0.2112  1.3110
 4074TIP3   OH212227   4.456   2.746   1.847 -0.1209  0.0140 -0.0019
 4074TIP3    H112228   4.364   2.728   1.866 -0.5400 -0.1489 -1.9782
 4074TIP3    H212229   4.454   2.810   1.776  1.3429  2.5272  2.0169
 4075TIP3   OH212230   2.065   3.024   2.363 -0.2805 -0.2465 -0.4057
 4075TIP3    H112231   2.098   3.020   2.273 -1.1644 -0.5253 -0.7291
 4075TIP3    H212232   2.134   2.983   2.416 -1.0365 -2.9126 -1.3265
 4076TIP3   OH212233   2.682   3.354   1.593  0.4566 -0.6093 -0.5536
 4076TIP3    H112234   2.629   3.410   1.537  1.2706  0.3954 -0.3667
 4076TIP3    H212235   2.773   3.375   1.569  0.8734  0.5933  1.7731
 4077TIP3   OH212236   2.592   4.065   1.182  0.6714 -0.7212 -0.5866
 4077TIP3    H112237   2.676   4.025   1.203  0.0656 -1.1192  1.2881
 4077TIP3    H212238   2.527   3.997   1.200 -0.1347 -0.1287 -1.1091
 4078TIP3   OH212239   0.085   4.270   1.494  0.0371 -0.3285  0.0542
 4078TIP3    H112240   0.093   4.183   1.453  0.9151  0.0346 -0.5924
 4078TIP3    H212241   0.169   4.312   1.475  0.2780  0.0570  1.8063
 4079TIP3   OH212242   1.221   4.265   4.883 -0.5400 -0.7949  0.0024
 4079TIP3    H112243   1.155   4.310   4.830 -0.0336 -0.9117 -0.7359
 4079TIP3    H212244   1.230   4.179   4.843  0.2674 -0.6820 -0.0725
 4080TIP3   OH212245   3.075   2.056   1.307 -0.2698 -0.0268 -0.0031
 4080TIP3    H112246   3.153   2.049   1.363 -0.4453  2.0539  0.5922
 4080TIP3    H212247   3.061   1.967   1.275  2.6394 -0.4020 -0.5485
 4081TIP3   OH212248   4.597   1.781   1.736 -0.1243  0.2920  0.0637
 4081TIP3    H112249   4.601   1.769   1.642 -1.5593  1.3518 -0.1626
 4081TIP3    H212250   4.611   1.693   1.772  1.0690 -0.0128 -1.0874
 4082TIP3   OH212251   5.327   0.421   3.592 -0.6087  0.5543  0.2997
 4082TIP3    H112252   5.410   0.457   3.623  0.9817 -0.8498 -1.9174
 4082TIP3    H212253   5.286   0.493   3.544  0.6987  0.5978 -0.8619
 4083TIP3   OH212254   2.492   1.131   4.732 -0.0688 -0.2297  0.1712
 4083TIP3    H112255   2.497   1.058   4.794 -2.1307  0.0171  0.7022
 4083TIP3    H212256   2.545   1.103   4.657  0.2655 -1.6912  0.9191
 4084TIP3   OH212257   4.960   3.081   0.336 -0.1153  0.1812  0.3909
 4084TIP3    H112258   4.907   3.002   0.340  1.1266 -0.7082 -0.1926
 4084TIP3    H212259   4.985   3.088   0.244  1.0097  0.4187  0.7063
 4085TIP3   OH212260   5.744   4.483   4.693 -0.3593 -0.1405  0.1288
 4085TIP3    H112261   5.803   4.420   4.651 -0.2353  1.0910 -1.6856
 4085TIP3    H212262   5.793   4.515   4.768  1.6063  1.2153 -1.6065
 4086TIP3   OH212263   4.906   2.231   2.365 -0.0994  0.0229  0.1391
 4086TIP3    H112264   4.983   2.222   2.309  0.3071 -0.4684  0.7589
 4086TIP3    H212265   4.890   2.325   2.369  0.7684  0.1734  0.3902
 4087TIP3   OH212266   5.348   1.854   2.190 -0.0170 -0.1593 -0.2894
 4087TIP3    H112267   5.419   1.904   2.229 -0.9793 -0.1139  1.5332
 4087TIP3    H212268   5.332   1.782   2.251 -1.4846 -0.2054 -0.6756
 4088TIP3   OH212269   2.918   4.687   1.010 -0.0879 -0.3811 -0.3951
 4088TIP3    H112270   2.986   4.749   0.982 -2.1484  2.2042 -0.0327
 4088TIP3    H212271   2.886   4.649   0.928  0.5187 -0.2034 -0.7231
 4089TIP3   OH212272   0.717   0.076   3.005 -0.1664 -0.4127 -0.1883
 4089TIP3    H112273   0.656   0.092   2.932 -0.6305 -0.9527  0.0667
 4089TIP3    H212274   0.715  -0.019   3.016 -0.0419 -0.3390  0.4834
 4090TIP3   OH212275   3.382   0.233   2.016 -0.2119  0.2052  0.3473
 4090TIP3    H112276   3.306   0.272   2.059 -0.9010 -0.3535 -0.3400
 4090TIP3    H212277   3.357   0.225   1.924  0.5198 -0.3591  0.1809
 4091TIP3   OH212278   1.962   3.915   1.847 -0.1501  1.0008 -0.2327
 4091TIP3    H112279   1.915   3.917   1.930  0.6381  0.9963  0.2263
 4091TIP3    H212280   1.894   3.926   1.781 -0.6824  1.9373  0.4491
 4092TIP3   OH212281   0.471   1.517   4.759 -0.1679 -0.6137  0.1663
 4092TIP3    H112282   0.561   1.504   4.730 -0.1152 -1.0028  0.4945
 4092TIP3    H212283   0.434   1.579   4.696  0.6582  0.4256  0.6793
 4093TIP3   OH212284   1.890   0.664   1.029  0.4610 -0.0491  0.5822
 4093TIP3    H112285   1.861   0.752   1.053  2.5312  0.8596 -0.0815
 4093TIP3    H212286   1.977   0.676   0.991  0.3020 -2.2553 -0.6567
 4094TIP3   OH212287   5.817   1.059   4.555 -0.0379  0.4808 -0.1719
 4094TIP3    H112288   5.762   0.981   4.548 -0.6952  0.9909 -0.9204
 4094TIP3    H212289   5.762   1.130   4.520  1.0697  1.0258 -0.8614
 4095TIP3   OH212290   3.652   3.395   0.167 -0.9866  0.5028 -0.0452
 4095TIP3    H112291   3.671   3.330   0.100 -0.6111  0.8393 -0.2656
 4095TIP3    H212292   3.639   3.476   0.119  0.3769  0.9892  0.3604
 4096TIP3   OH212293   0.778   5.203   2.520  0.3183  0.0740  0.3306
 4096TIP3    H112294   0.713   5.250   2.572 -0.5800 -0.6539 -0.1009
 4096TIP3    H212295   0.825   5.149   2.583  0.0706  0.1328  0.5681
 4097TIP3   OH212296   0.805   2.671   0.583  0.1266  0.0507 -0.1522
 4097TIP3    H112297   0.882   2.703   0.536  0.5705  0.9377  1.1372
 4097TIP3    H212298   0.835   2.592   0.628  0.3173  0.4662  0.4503
 4098TIP3   OH212299   0.961   4.807   2.853  0.4971  0.2156 -0.7905
 4098TIP3    H112300   1.041   4.810   2.906  2.3295  1.4938 -3.4185
 4098TIP3    H212301   0.927   4.896   2.856  1.4358  0.6893 -2.8156
 4099TIP3   OH212302   2.571   5.030   1.376 -0.3081  0.0802  0.4813
 4099TIP3    H112303   2.658   5.037   1.417 -0.5613  0.4229  0.9595
 4099TIP3    H212304   2.554   4.935   1.374  0.0347  0.0174  0.4771
 4100TIP3   OH212305   2.038   3.896   2.841  0.3182 -0.1331 -1.0486
 4100TIP3    H112306   2.121   3.902   2.793  0.1486 -1.3794 -1.5282
 4100TIP3    H212307   2.055   3.834   2.911  0.2156  0.7806 -0.1853
 4101TIP3   OH212308   3.960   2.930   2.974  0.2347 -0.8725  0.2685
 4101TIP3    H112309   4.014   3.008   2.987 -1.4496 -0.0412  3.4944
 4101TIP3    H212310   3.889   2.959   2.916 -0.5475  0.1857  1.6833
 4102TIP3   OH212311   4.903   5.412   4.887  0.2478  0.3412 -0.0796
 4102TIP3    H112312   4.917   5.471   4.960  1.1695 -0.8275  0.7240
 4102TIP3    H212313   4.990   5.389   4.856 -0.1195  0.4040 -1.2172
 4103TIP3   OH212314   2.270   5.209   2.228 -0.1895  0.6191 -0.0121
 4103TIP3    H112315   2.279   5.129   2.177  1.3829  0.5036  0.3966
 4103TIP3    H212316   2.209   5.186   2.298  0.6223 -0.3893  0.3935
 4104TIP3   OH212317   4.027   3.952   3.584  0.0692 -0.2132  0.2898
 4104TIP3    H112318   4.120   3.967   3.597 -0.0166 -0.6529  1.5162
 4104TIP3    H212319   4.023   3.872   3.531  0.3804 -0.3649  0.4923
 4105TIP3   OH212320   2.758   3.773   4.674  0.5937 -0.7914  0.1269
 4105TIP3    H112321   2.830   3.740   4.621  1.3555 -1.5390  1.5904
 4105TIP3    H212322   2.726   3.697   4.723 -0.5702 -0.2731  0.2203
 4106TIP3   OH212323   1.646   3.613   4.054 -0.6544 -0.2162  0.1864
 4106TIP3    H112324   1.680   3.524   4.057  2.7674  0.7401 -2.8674
 4106TIP3    H212325   1.573   3.609   3.993 -1.5066 -1.1038  1.2227
 4107TIP3   OH212326   2.235   4.618   2.071  0.9917 -0.4251  0.1758
 4107TIP3    H112327   2.219   4.632   2.164  2.6979 -1.9112  0.7423
 4107TIP3    H212328   2.279   4.533   2.066  3.0608  0.6363 -1.7509
 4108TIP3   OH212329   6.304   4.448   3.721  0.2572 -0.3019 -0.6031
 4108TIP3    H112330   6.262   4.383   3.777 -0.0446  0.3749 -0.0304
 4108TIP3    H212331   6.373   4.400   3.676  0.9416 -0.7212  0.8456
 4109TIP3   OH212332   2.997   5.594   4.797  0.1924  0.3517 -0.1095
 4109TIP3    H112333   3.052   5.643   4.858 -0.6343  0.9381  0.1896
 4109TIP3    H212334   3.058   5.551   4.738  0.9828  0.4821  0.5952
 4110TIP3   OH212335   0.413   3.811   0.005  0.3246  0.1611  0.1941
 4110TIP3    H112336   0.424   3.758   0.084  1.9854  1.1783  0.7103
 4110TIP3    H212337   0.462   3.891   0.024 -1.2656  1.4685 -0.9422
 4111TIP3   OH212338   6.221   3.552   1.454  0.5210 -0.0716  0.1495
 4111TIP3    H112339   6.314   3.563   1.474  0.3112  0.0169  1.1602
 4111TIP3    H212340   6.178   3.624   1.501 -0.0067  0.2304 -0.7805
 4112TIP3   OH212341   1.811   5.318   0.524  0.1952 -0.7015  0.2612
 4112TIP3    H112342   1.724   5.352   0.545  0.1203 -0.0996 -0.9339
 4112TIP3    H212343   1.797   5.223   0.517 -0.7955 -0.4745 -1.6536
 4113TIP3   OH212344   1.387   4.053   0.014 -0.0082 -0.0408  0.2261
 4113TIP3    H112345   1.401   4.060   0.109  1.0311  2.9322 -0.0259
 4113TIP3    H212346   1.301   4.091  -0.000 -1.2244 -2.6525  0.1186
 4114TIP3   OH212347   6.106   2.831   3.682 -0.3808 -0.0355 -0.8550
 4114TIP3    H112348   6.099   2.765   3.613  1.0675 -0.0528 -1.0131
 4114TIP3    H212349   6.148   2.785   3.755 -2.7253 -0.2910  0.4596
 4115TIP3   OH212350   0.596   0.024   2.342 -0.3687  0.3771  0.3139
 4115TIP3    H112351   0.594   0.119   2.331  1.5876  0.3883 -0.1805
 4115TIP3    H212352   0.672  -0.005   2.292 -0.5252 -1.3880  1.0261
 4116TIP3   OH212353   3.270   4.875   0.567 -0.2351  0.3731  0.1674
 4116TIP3    H112354   3.270   4.968   0.545 -2.9308  0.1955 -0.8984
 4116TIP3    H212355   3.331   4.836   0.504 -1.6839  1.0132 -1.7277
 4117TIP3   OH212356   5.020   2.954   2.699 -0.2381 -0.0286 -0.3410
 4117TIP3    H112357   4.938   2.945   2.651 -0.1342 -3.3248 -0.1196
 4117TIP3    H212358   4.995   2.980   2.787 -0.8727  0.6889 -0.7266
 4118TIP3   OH212359   0.051   1.581   2.510 -0.0851  0.5166  0.3726
 4118TIP3    H112360  -0.032   1.626   2.526 -1.3803 -1.2500 -0.9800
 4118TIP3    H212361   0.095   1.635   2.444 -0.7615  0.7570  0.1131
 4119TIP3   OH212362   1.829   2.796   1.741 -0.0237  0.4934 -0.1414
 4119TIP3    H112363   1.784   2.843   1.811  0.0014  0.4363 -0.0872
 4119TIP3    H212364   1.828   2.857   1.667 -2.6283 -0.4999 -1.0360
 4120TIP3   OH212365   1.750   0.037   1.776  0.0486  0.0500 -0.4912
 4120TIP3    H112366   1.764  -0.030   1.843 -2.1432  1.3123  1.3968
 4120TIP3    H212367   1.793   0.115   1.812 -0.3732  0.5146 -0.9892
 4121TIP3   OH212368   2.826   5.478   0.679 -0.0244 -0.4318  0.2314
 4121TIP3    H112369   2.814   5.389   0.712 -0.2634 -1.4651 -2.4218
 4121TIP3    H212370   2.914   5.477   0.641  0.8073  1.1389  1.9771
 4122TIP3   OH212371   4.904   5.933   4.983 -0.0575 -0.5123 -0.3400
 4122TIP3    H112372   4.840   6.003   4.973 -1.0104 -1.4531 -0.9009
 4122TIP3    H212373   4.939   5.946   5.072 -0.6541  0.3047 -0.2120
 4123TIP3   OH212374   4.147   3.486   1.934  0.2604  0.2262 -0.2705
 4123TIP3    H112375   4.078   3.432   1.894 -0.1102  0.5957 -0.1375
 4123TIP3    H212376   4.164   3.445   2.018 -0.4785  0.6760  0.1103
 4124TIP3   OH212377   2.912   4.667   1.391 -0.1145 -0.0547  0.2097
 4124TIP3    H112378   2.934   4.707   1.475  0.9554 -0.9537  0.3722
 4124TIP3    H212379   2.871   4.737   1.341  0.4586  0.8492  0.9885
 4125TIP3   OH212380   4.691   2.935   4.063 -0.0732 -0.3134  0.2604
 4125TIP3    H112381   4.721   3.020   4.097 -1.6328  0.3091  0.1965
 4125TIP3    H212382   4.752   2.872   4.100  1.0302  0.8170  0.4570
 4126TIP3   OH212383   4.873   4.876   5.118 -0.0350  0.0006 -0.0791
 4126TIP3    H112384   4.900   4.954   5.167 -0.7672 -0.3016  0.8479
 4126TIP3    H212385   4.811   4.908   5.053 -1.3358  0.0564  1.1430
 4127TIP3   OH212386   0.410   3.597   3.856 -0.3722  0.5563 -0.1732
 4127TIP3    H112387   0.447   3.521   3.811  1.6455  1.3188  0.0706
 4127TIP3    H212388   0.375   3.652   3.786 -0.4559  0.1105 -0.4835
 4128TIP3   OH212389   5.012   3.857   0.695 -0.2484  0.3712 -0.3323
 4128TIP3    H112390   4.953   3.868   0.770  0.2961 -1.8641  0.5097
 4128TIP3    H212391   5.075   3.928   0.703 -0.7321  0.6971  0.8106
 4129TIP3   OH212392   2.122   0.174   1.225 -0.7873  0.0635 -0.1306
 4129TIP3    H112393   2.098   0.211   1.140  1.0417 -2.4186 -1.8865
 4129TIP3    H212394   2.195   0.229   1.255 -1.3202  0.8460 -0.2297
 4130TIP3   OH212395   1.130   3.165   4.772  0.0365  0.5222 -0.0073
 4130TIP3    H112396   1.038   3.185   4.788 -0.0462 -0.2671  0.5854
 4130TIP3    H212397   1.148   3.089   4.827  0.5205 -0.5657 -1.5921
 4131TIP3   OH212398   2.788   1.097   4.136 -0.4477  0.3857 -0.4237
 4131TIP3    H112399   2.868   1.059   4.100  0.4482 -1.8624  3.3550
 4131TIP3    H212400   2.818   1.156   4.205 -2.0397  1.2155 -0.3980
 4132TIP3   OH212401   5.958   1.781   5.089  0.1589  0.0685  0.2219
 4132TIP3    H112402   5.919   1.862   5.057 -0.4056 -0.2415  0.1049
 4132TIP3    H212403   6.049   1.784   5.058  0.7213  1.5667  1.8855
 4133TIP3   OH212404   5.452   4.450   2.402 -0.1068 -0.0584  0.7237
 4133TIP3    H112405   5.505   4.402   2.465  3.0273 -1.3334 -2.5445
 4133TIP3    H212406   5.450   4.394   2.325 -0.0164  3.1350 -1.8182
 4134TIP3   OH212407   2.524   3.272   4.639  0.1881  0.3879 -0.0095
 4134TIP3    H112408   2.559   3.252   4.726 -0.3980  1.1312  0.4075
 4134TIP3    H212409   2.601   3.279   4.583  0.6669  1.2416  0.7367
 4135TIP3   OH212410   2.558   4.645   2.057 -0.2349  0.5768 -0.5658
 4135TIP3    H112411   2.567   4.727   2.008 -1.1330  0.7741 -0.4202
 4135TIP3    H212412   2.546   4.578   1.989 -0.8365  0.7583 -0.6402
 4136TIP3   OH212413   2.924   2.663   1.864  0.1840 -0.3496 -0.3268
 4136TIP3    H112414   2.840   2.706   1.877  0.0905  0.3206 -2.6883
 4136TIP3    H212415   2.985   2.713   1.920 -0.1520  2.2072 -2.0512
 4137TIP3   OH212416   2.505   4.652   3.978  0.9363  0.3057  0.2014
 4137TIP3    H112417   2.544   4.657   3.890 -0.4273  0.5771 -0.4091
 4137TIP3    H212418   2.569   4.603   4.029  2.4893  1.4838 -0.5239
 4138TIP3   OH212419   4.404   5.075   3.803 -0.4862  0.1792  0.2962
 4138TIP3    H112420   4.445   5.067   3.716 -0.9967  1.5027 -0.0908
 4138TIP3    H212421   4.478   5.072   3.864 -0.2083 -1.8598 -0.0824
 4139TIP3   OH212422   2.000   2.651   4.291 -0.0447 -0.1476  0.0704
 4139TIP3    H112423   2.013   2.556   4.285 -1.0912 -0.2394 -2.1880
 4139TIP3    H212424   1.906   2.661   4.306  0.3913  0.5593  2.7142
 4140TIP3   OH212425   1.757   5.052   0.095  0.1078 -0.1727 -0.2253
 4140TIP3    H112426   1.667   5.055   0.062 -0.0754 -0.2238  0.2703
 4140TIP3    H212427   1.748   5.049   0.190  0.6712  1.9499 -0.0612
 4141TIP3   OH212428   1.289  -0.006   4.776 -0.1844 -0.4688  0.7567
 4141TIP3    H112429   1.307   0.087   4.760  0.7857 -0.7687 -0.0157
 4141TIP3    H212430   1.252  -0.008   4.864  1.6059  0.4616  1.5923
 4142TIP3   OH212431   5.302   1.206   3.092  0.5034 -0.0265  0.0466
 4142TIP3    H112432   5.370   1.142   3.115  1.2807  0.5971 -0.4490
 4142TIP3    H212433   5.336   1.248   3.012  0.3552  1.4981  0.7647
 4143TIP3   OH212434   0.514   3.130   2.384 -0.4489 -0.5519  0.2194
 4143TIP3    H112435   0.562   3.211   2.400 -1.0613 -0.0575 -0.3749
 4143TIP3    H212436   0.549   3.068   2.449 -0.0392  0.2053  0.7401
 4144TIP3   OH212437   1.920   0.430   3.843  0.6604  0.1534 -0.2177
 4144TIP3    H112438   1.921   0.371   3.918  1.2462  0.3298 -0.0881
 4144TIP3    H212439   1.945   0.374   3.769  1.5092  0.2982 -0.0478
 4145TIP3   OH212440   0.577   4.181   4.042  0.7091 -0.2934 -0.1494
 4145TIP3    H112441   0.576   4.273   4.067  0.4008 -0.4996  0.6355
 4145TIP3    H212442   0.592   4.134   4.125  1.2216 -0.9325 -0.5918
 4146TIP3   OH212443   5.491   4.933   4.181  0.5324  0.4477  0.0573
 4146TIP3    H112444   5.402   4.912   4.153  0.4728 -1.0251  1.2493
 4146TIP3    H212445   5.503   4.886   4.263  2.5286  0.3468 -0.2286
 4147TIP3   OH212446   1.560   3.480   0.689  0.1139  0.2222  0.1510
 4147TIP3    H112447   1.519   3.470   0.775 -0.2201  0.3363  0.0047
 4147TIP3    H212448   1.653   3.493   0.709  0.0166  0.4001  0.5040
 4148TIP3   OH212449   2.918   4.776   4.513 -0.4325 -0.0893 -0.2942
 4148TIP3    H112450   2.827   4.776   4.541 -1.0562  0.5133 -2.1676
 4148TIP3    H212451   2.933   4.687   4.479 -1.0839  0.4735 -2.1585
 4149TIP3   OH212452   5.354   2.178   4.078  0.2004 -0.1632  0.4942
 4149TIP3    H112453   5.449   2.182   4.079  0.2239 -0.3983 -0.3850
 4149TIP3    H212454   5.326   2.268   4.098  0.6277  0.2662 -0.7173
 4150TIP3   OH212455   4.677   5.779   2.373 -0.3114 -0.2957 -0.2985
 4150TIP3    H112456   4.699   5.872   2.375 -0.2322 -0.2690 -1.5537
 4150TIP3    H212457   4.760   5.735   2.350 -0.1963 -0.7446  0.9094
 4151TIP3   OH212458   4.443   3.057   0.573  0.1937  0.1838  0.0358
 4151TIP3    H112459   4.385   3.132   0.558 -0.6847 -0.5512 -0.3728
 4151TIP3    H212460   4.389   2.980   0.552  0.4608 -0.6792  2.2403
 4152TIP3   OH212461   0.724   1.581   4.031 -0.3142  0.3078 -0.0951
 4152TIP3    H112462   0.679   1.496   4.037  0.7072 -0.3312 -1.0693
 4152TIP3    H212463   0.799   1.564   3.974  2.0459  0.9540  2.6375
 4153TIP3   OH212464   3.081   5.310   4.180 -0.0766 -0.0162  0.0280
 4153TIP3    H112465   3.079   5.373   4.108  0.7307  0.2473  0.2272
 4153TIP3    H212466   2.989   5.293   4.199 -0.3026  0.5425 -0.5177
 4154TIP3   OH212467   3.372   4.110   1.543 -0.1041 -0.2381 -0.9017
 4154TIP3    H112468   3.439   4.169   1.576 -0.0145 -0.9033  0.1637
 4154TIP3    H212469   3.404   4.022   1.566 -1.0341 -0.6000 -0.9404
 4155TIP3   OH212470   3.469   1.359   2.405  0.4827 -0.1855 -0.9815
 4155TIP3    H112471   3.462   1.453   2.423  0.3497 -0.2248 -0.8311
 4155TIP3    H212472   3.379   1.331   2.386  0.3685 -0.4845 -0.0383
 4156TIP3   OH212473   3.383   2.347   2.419  0.0863 -0.2145  0.4367
 4156TIP3    H112474   3.439   2.334   2.496 -0.9578 -0.9845  1.1048
 4156TIP3    H212475   3.334   2.427   2.438 -3.1370 -2.4354  2.5839
 4157TIP3   OH212476   5.454   0.523   2.320 -0.2988  0.4664  0.0771
 4157TIP3    H112477   5.413   0.585   2.381 -0.9887 -0.7252  0.8633
 4157TIP3    H212478   5.461   0.571   2.238 -0.3432  1.7548  0.8056
 4158TIP3   OH212479   2.373   0.161   2.146 -0.0534 -0.0880  0.2033
 4158TIP3    H112480   2.355   0.249   2.113  3.0078  1.3796  1.9390
 4158TIP3    H212481   2.331   0.159   2.232  0.0350 -0.2514  0.2429
 4159TIP3   OH212482   5.649   2.174   4.610 -0.0006 -0.1742  0.0207
 4159TIP3    H112483   5.583   2.226   4.658  1.4364  1.2512  0.5617
 4159TIP3    H212484   5.643   2.087   4.649 -2.6375 -0.5689 -1.0469
 4160TIP3   OH212485   3.400   3.801   0.245 -0.4603  0.3065 -0.1369
 4160TIP3    H112486   3.356   3.829   0.325 -1.4734 -2.2953  0.3128
 4160TIP3    H212487   3.342   3.735   0.207  1.1456 -0.2727 -1.7375
 4161TIP3   OH212488   2.983   3.491   2.854  0.0925  0.4521  0.0378
 4161TIP3    H112489   3.037   3.559   2.815  1.4710 -0.7686 -0.2759
 4161TIP3    H212490   3.029   3.467   2.934  1.0139 -1.7661 -1.0648
 4162TIP3   OH212491   3.145   3.199   0.308  0.4626  0.2109 -0.2211
 4162TIP3    H112492   3.230   3.174   0.271  0.6907  0.6151  0.0195
 4162TIP3    H212493   3.091   3.121   0.299  1.4293 -0.6846  1.3406
 4163TIP3   OH212494   5.429   5.143   2.509 -0.1873  0.1732  0.2271
 4163TIP3    H112495   5.423   5.065   2.565 -2.2464  0.3763  0.3628
 4163TIP3    H212496   5.417   5.110   2.420  1.6976  0.0259 -0.0036
 4164TIP3   OH212497   0.615   1.352   0.723 -0.3450 -0.0418  0.1549
 4164TIP3    H112498   0.545   1.415   0.740  0.7509  1.4403 -0.5671
 4164TIP3    H212499   0.689   1.406   0.694  1.3847 -1.4658  1.7041
 4165TIP3   OH212500   4.750   2.740   3.423 -0.6770  0.4323 -0.4847
 4165TIP3    H112501   4.835   2.782   3.408 -0.0461 -0.9118 -0.7359
 4165TIP3    H212502   4.736   2.749   3.517  0.1294 -0.0452 -0.3087
 4166TIP3   OH212503   3.010   0.148   0.078  0.4219  0.1557  0.0746
 4166TIP3    H112504   3.088   0.113   0.121  0.7829  1.8064  0.8315
 4166TIP3    H212505   3.000   0.095  -0.001  2.6165  0.2641 -0.3227
 4167TIP3   OH212506   3.912   2.975   0.591  0.2293  0.2042  0.3914
 4167TIP3    H112507   3.841   2.978   0.655  1.2633  2.3139  1.5330
 4167TIP3    H212508   3.886   3.037   0.523 -0.2954 -1.1369 -0.6893
 4168TIP3   OH212509   1.719   5.307   1.455 -0.0335  0.0661  0.0161
 4168TIP3    H112510   1.645   5.283   1.400  3.2150 -0.3896 -4.7368
 4168TIP3    H212511   1.695   5.392   1.492 -2.1988  0.9742 -3.0458
 4169TIP3   OH212512   0.169   4.049   3.077 -0.2645  0.3940  0.0340
 4169TIP3    H112513   0.190   4.100   2.999  0.0393 -0.3431 -0.3860
 4169TIP3    H212514   0.184   3.958   3.050  0.5282  0.1663  1.1551
 4170TIP3   OH212515   0.297   2.977   2.632 -0.0686 -0.1685 -0.5205
 4170TIP3    H112516   0.287   2.897   2.683 -1.5664  1.2951  1.6664
 4170TIP3    H212517   0.384   2.970   2.593  0.3118 -2.3083  0.5683
 4171TIP3   OH212518   1.111   1.718   1.521 -0.1666 -0.2545  0.4062
 4171TIP3    H112519   1.133   1.711   1.428 -1.5215 -1.3946  0.1391
 4171TIP3    H212520   1.160   1.648   1.563  2.2791  1.6352  1.0005
 4172TIP3   OH212521   1.243   1.326   1.255  0.2830  0.0199 -0.0352
 4172TIP3    H112522   1.291   1.387   1.310  2.5438 -2.0246  0.4250
 4172TIP3    H212523   1.155   1.323   1.293 -0.1391  3.3229 -0.4474
 4173TIP3   OH212524   5.482   4.662   3.585 -0.4173  0.3262  0.9490
 4173TIP3    H112525   5.568   4.636   3.618 -0.2739 -2.0029 -1.0100
 4173TIP3    H212526   5.431   4.581   3.583 -1.8026  1.1741 -0.3535
 4174TIP3   OH212527   0.962   1.555   0.057 -0.2186 -0.6378 -0.0787
 4174TIP3    H112528   0.948   1.650   0.055  1.4327 -0.2607  2.3392
 4174TIP3    H212529   1.027   1.539  -0.012 -1.0766 -0.1656 -1.0238
 4175TIP3   OH212530   1.191   1.028   2.570 -0.0258  0.2081 -0.2929
 4175TIP3    H112531   1.252   1.028   2.497  1.0818  1.1410  0.5923
 4175TIP3    H212532   1.106   1.012   2.530  0.5821  0.4427 -1.7447
 4176TIP3   OH212533   5.844   2.583   3.902  0.2952 -0.2896 -0.6564
 4176TIP3    H112534   5.851   2.671   3.865 -0.9812  1.6913  3.2906
 4176TIP3    H212535   5.920   2.574   3.959  0.1673 -1.5763 -0.6560
 4177TIP3   OH212536   0.020   1.401   0.928 -0.5456  0.1396 -0.6694
 4177TIP3    H112537   0.012   1.474   0.988  0.3429  2.0390 -2.7358
 4177TIP3    H212538   0.113   1.398   0.905 -0.5214 -1.7742 -0.5271
 4178TIP3   OH212539   5.207   0.325   4.178  0.1221 -0.2304  0.5012
 4178TIP3    H112540   5.237   0.236   4.191 -2.7196 -1.3772 -0.0882
 4178TIP3    H212541   5.192   0.359   4.266 -0.8631 -1.1537  0.7089
 4179TIP3   OH212542   5.005   4.037   0.316  0.1228  0.1288  0.3965
 4179TIP3    H112543   5.090   4.034   0.272 -0.4103  0.7038 -0.7188
 4179TIP3    H212544   5.000   4.125   0.353  0.4307 -0.2459  1.3681
 4180TIP3   OH212545   4.619   0.345   5.033  0.0936  0.1997 -0.8521
 4180TIP3    H112546   4.546   0.365   5.091  1.1157  1.1791  0.1249
 4180TIP3    H212547   4.685   0.411   5.052  2.3186 -2.1204  0.1659
 4181TIP3   OH212548   3.134   3.380   3.070 -0.4249 -0.0678 -0.1975
 4181TIP3    H112549   3.126   3.438   3.145  1.9452  1.1983 -0.8242
 4181TIP3    H212550   3.226   3.352   3.071 -0.9979 -2.1955 -1.1150
 4182TIP3   OH212551   5.674   3.292   2.055  0.4704 -0.1410  0.3122
 4182TIP3    H112552   5.761   3.309   2.019  1.3755 -1.2538  1.8790
 4182TIP3    H212553   5.641   3.218   2.005 -0.9596  2.1263 -2.4001
 4183TIP3   OH212554   0.155   2.709   3.808  0.3666 -0.4336  0.0940
 4183TIP3    H112555   0.242   2.705   3.847  0.7724  0.7600 -0.6356
 4183TIP3    H212556   0.171   2.714   3.714 -0.5281 -0.9817 -0.0978
 4184TIP3   OH212557   6.049   3.609   2.160 -0.1181 -0.1831 -0.0554
 4184TIP3    H112558   6.006   3.575   2.238  1.5886 -1.3542  0.4485
 4184TIP3    H212559   6.070   3.531   2.109 -0.4758  0.5099 -1.2915
 4185TIP3   OH212560   2.915   5.774   2.030  0.2112 -0.0251  0.2744
 4185TIP3    H112561   2.905   5.789   1.936  0.4650  0.8988  0.3923
 4185TIP3    H212562   2.866   5.693   2.046  0.9257 -0.7057 -0.8110
 4186TIP3   OH212563   2.633   2.104   4.266 -0.0432  0.2878 -0.1138
 4186TIP3    H112564   2.573   2.067   4.201  0.3502 -3.7953  1.5309
 4186TIP3    H212565   2.577   2.129   4.340 -0.1099  1.0546 -0.4147
 4187TIP3   OH212566   2.546   4.626   2.323  0.4656  0.7867  0.1114
 4187TIP3    H112567   2.566   4.635   2.230  0.3725 -0.7704 -0.0946
 4187TIP3    H212568   2.455   4.596   2.324  1.4192 -2.4267  0.4828
 4188TIP3   OH212569   5.027   0.118   3.192  0.0362 -0.5047  0.1915
 4188TIP3    H112570   4.998   0.094   3.104 -2.9195  0.1070  0.9042
 4188TIP3    H212571   5.008   0.041   3.245  2.0354 -0.9630  0.3360
 4189TIP3   OH212572   4.120   0.753   2.098 -0.0530  0.1114 -0.2004
 4189TIP3    H112573   4.172   0.802   2.033  0.2731 -0.2653 -0.2225
 4189TIP3    H212574   4.182   0.728   2.165 -0.6278  1.6802  0.9853
 4190TIP3   OH212575   1.517   4.990   2.130 -0.3570 -0.4898 -0.0456
 4190TIP3    H112576   1.461   5.068   2.124 -0.4143 -0.4462  0.9123
 4190TIP3    H212577   1.572   5.006   2.207  0.7239 -0.6991 -0.7638
 4191TIP3   OH212578   4.114   4.069   1.113  0.0398  0.3526 -0.8093
 4191TIP3    H112579   4.154   3.982   1.105 -1.2597 -0.3837  0.3409
 4191TIP3    H212580   4.092   4.093   1.022  1.4349  0.0008 -1.2615
 4192TIP3   OH212581   2.002   4.655   4.741  0.4049  0.4832 -0.0648
 4192TIP3    H112582   1.914   4.645   4.705  0.4037  0.3700 -0.0301
 4192TIP3    H212583   1.992   4.636   4.834 -0.0238  2.9067  0.4523
 4193TIP3   OH212584   0.073   3.481   4.134 -0.2456  0.3566 -0.7309
 4193TIP3    H112585  -0.006   3.526   4.104 -1.8505 -1.0896  1.1057
 4193TIP3    H212586   0.045   3.430   4.210  2.6682  0.4933  0.5682
 4194TIP3   OH212587   3.017   1.504   2.312 -0.4037 -0.3092 -0.1611
 4194TIP3    H112588   2.940   1.556   2.288 -1.2656 -1.6803 -0.4639
 4194TIP3    H212589   3.092   1.562   2.294 -1.3793  1.8938  2.1775
 4195TIP3   OH212590   1.866   5.460   4.337 -0.2106  0.0262 -0.1177
 4195TIP3    H112591   1.865   5.552   4.308  0.1044  0.4696  1.2103
 4195TIP3    H212592   1.956   5.445   4.365 -0.1123 -0.8860 -0.8768
 4196TIP3   OH212593   2.938   5.798   3.648 -0.3282  0.3338  0.5056
 4196TIP3    H112594   2.989   5.812   3.728  1.5992 -0.5123 -0.5022
 4196TIP3    H212595   2.863   5.856   3.657  0.1307  0.6690  2.6720
 4197TIP3   OH212596   2.209   5.715   0.947 -0.9073 -0.0421  0.2288
 4197TIP3    H112597   2.249   5.737   1.031 -0.1798  0.7502 -0.3026
 4197TIP3    H212598   2.182   5.800   0.911 -0.3590 -0.2714 -0.7461
 4198TIP3   OH212599   1.980   4.544   1.582  0.4234 -0.3154  0.2847
 4198TIP3    H112600   1.957   4.491   1.505 -0.0795 -1.0264  0.9050
 4198TIP3    H212601   2.075   4.534   1.590  0.3816 -0.8329  0.1791
 4199TIP3   OH212602   1.272   4.660   4.161  0.5685  0.6554  0.1609
 4199TIP3    H112603   1.261   4.691   4.250  0.6776  0.2424  0.3205
 4199TIP3    H212604   1.347   4.601   4.165 -0.8061 -1.1841  0.2814
 4200TIP3   OH212605   2.381   4.051   4.506 -0.2234 -0.3126  0.1135
 4200TIP3    H112606   2.420   4.138   4.515  0.0262 -0.5568  1.8127
 4200TIP3    H212607   2.287   4.065   4.522  0.2233 -0.7614  4.4697
 4201TIP3   OH212608   4.945   3.786   5.005 -0.4803 -0.3068 -0.5609
 4201TIP3    H112609   4.930   3.881   5.003 -0.5954 -0.2776  0.6618
 4201TIP3    H212610   5.018   3.772   4.946  1.8679  1.0352  1.8154
 4202TIP3   OH212611   2.837   0.937   3.125 -0.2656 -0.0439 -0.8093
 4202TIP3    H112612   2.859   1.029   3.141  0.5973 -0.0415 -1.8688
 4202TIP3    H212613   2.879   0.917   3.041 -0.6974 -1.3216 -0.7389
 4203TIP3   OH212614   0.198   0.326   4.171 -0.7610  0.0845 -0.5118
 4203TIP3    H112615   0.236   0.407   4.137 -1.9648  0.8304 -0.1158
 4203TIP3    H212616   0.189   0.340   4.265  1.1371 -1.4060 -0.0312
 4204TIP3   OH212617   3.906   1.497   0.699 -0.3722  0.3993  0.5131
 4204TIP3    H112618   3.955   1.417   0.719  0.0072  0.8484  1.4157
 4204TIP3    H212619   3.829   1.492   0.757  0.8758  1.8479  2.4175
 4205TIP3   OH212620   0.098   0.987   2.719 -0.2094  0.0509 -0.0663
 4205TIP3    H112621   0.157   1.032   2.659 -0.0579  1.0705  0.8174
 4205TIP3    H212622   0.060   1.057   2.773  0.8654 -0.9091  2.0852
 4206TIP3   OH212623   2.994   1.674   4.743  0.2318 -0.5283  0.4113
 4206TIP3    H112624   3.053   1.713   4.679  0.5108 -1.1509  0.2878
 4206TIP3    H212625   2.906   1.693   4.709  0.3719 -0.4070  0.1121
 4207TIP3   OH212626   4.199   0.958   1.902  0.1706 -0.1689  0.1571
 4207TIP3    H112627   4.154   0.921   1.826  0.1950 -1.2446  0.6420
 4207TIP3    H212628   4.154   1.040   1.920 -0.6087 -0.4855 -0.3040
 4208TIP3   OH212629   2.178   3.072   1.340 -0.0692 -0.5201  0.0888
 4208TIP3    H112630   2.214   3.113   1.262  0.8167 -0.7056  0.3871
 4208TIP3    H212631   2.198   3.134   1.411 -0.1151 -0.7395  0.2953
 4209TIP3   OH212632   2.730   1.753   4.707 -0.0566 -0.6482  0.2716
 4209TIP3    H112633   2.707   1.700   4.631  1.1447  0.4910 -0.9199
 4209TIP3    H212634   2.647   1.792   4.735 -0.1568  1.2701 -2.3128
 4210TIP3   OH212635   6.160   2.850   2.669 -0.4979 -0.4705  0.1310
 4210TIP3    H112636   6.250   2.882   2.665 -0.4866 -0.5565 -0.4907
 4210TIP3    H212637   6.166   2.758   2.641 -0.7993 -0.4184 -0.1161
 4211TIP3   OH212638   2.931   4.950   5.100 -0.3767 -0.0410 -0.2715
 4211TIP3    H112639   2.939   4.940   5.005 -0.4951 -1.4376 -0.1512
 4211TIP3    H212640   2.838   4.935   5.117 -0.2165 -0.5564  0.1497
 4212TIP3   OH212641   4.311   3.227   3.698 -0.6893 -0.5022  0.1256
 4212TIP3    H112642   4.334   3.135   3.685 -2.5296 -1.0350  0.3560
 4212TIP3    H212643   4.279   3.231   3.788 -0.6792  0.3632  0.1034
 4213TIP3   OH212644   4.544   0.760   4.139 -0.3309 -0.2067  0.5828
 4213TIP3    H112645   4.563   0.807   4.058 -2.0231  0.5382  0.5800
 4213TIP3    H212646   4.629   0.754   4.183  1.1145 -2.5099 -2.1337
 4214TIP3   OH212647   2.696   2.353   3.072  0.1998  0.2689 -0.0641
 4214TIP3    H112648   2.749   2.366   2.994  0.8401  0.3696  0.3795
 4214TIP3    H212649   2.756   2.314   3.136  0.1665  1.7649  0.9379
 4215TIP3   OH212650   4.536   3.922   0.201  0.3524  0.2984 -0.4410
 4215TIP3    H112651   4.526   4.003   0.253 -0.6110  0.1059 -0.3091
 4215TIP3    H212652   4.626   3.894   0.218  0.4150  0.8658  0.2188
 4216TIP3   OH212653   3.218   1.845   2.749  0.2920 -0.2155  0.0210
 4216TIP3    H112654   3.155   1.829   2.819  1.0833  0.1792  0.8528
 4216TIP3    H212655   3.303   1.822   2.788  0.7071 -0.3831 -0.9499
 4217TIP3   OH212656   2.109   2.847   0.011 -0.2880 -0.2828  0.3516
 4217TIP3    H112657   2.204   2.840   0.014 -0.2272  0.4718  0.3076
 4217TIP3    H212658   2.084   2.877   0.099 -0.3204  1.2812 -0.1721
 4218TIP3   OH212659   2.357   5.427   2.076 -0.5884  0.1809 -0.9209
 4218TIP3    H112660   2.312   5.351   2.112 -2.3944  1.5473 -0.2086
 4218TIP3    H212661   2.364   5.408   1.982  1.2831 -1.9553 -0.4271
 4219TIP3   OH212662   4.981   1.865   1.184 -0.0266  0.0388 -0.1968
 4219TIP3    H112663   4.898   1.830   1.152 -0.7525 -0.0368  1.6177
 4219TIP3    H212664   4.966   1.959   1.194  1.0291  0.5123 -2.4227
 4220TIP3   OH212665   5.982   2.026   1.138  0.0382  0.1476  0.3226
 4220TIP3    H112666   5.990   2.118   1.110  0.3839  0.5227  1.5743
 4220TIP3    H212667   6.049   1.980   1.087  0.5615  0.7807  0.4181
 4221TIP3   OH212668   5.875   2.107   2.290  0.1798 -0.1333 -0.2386
 4221TIP3    H112669   5.804   2.171   2.294 -0.5692 -0.9121 -0.5966
 4221TIP3    H212670   5.832   2.023   2.308  0.7507 -0.8107 -1.8401
 4222TIP3   OH212671   2.420   3.710   3.609  0.1635 -0.2402  0.4862
 4222TIP3    H112672   2.410   3.801   3.638 -1.6795  0.3646 -1.7465
 4222TIP3    H212673   2.336   3.689   3.568  1.6699 -1.8049 -2.0108
 4223TIP3   OH212674   0.257   5.894   2.733 -0.0689  0.2191 -0.1942
 4223TIP3    H112675   0.274   5.940   2.815 -0.0950 -1.0356  0.5295
 4223TIP3    H212676   0.165   5.868   2.737 -0.1309  0.3342 -0.7218
 4224TIP3   OH212677   3.859   3.941   3.783 -0.3225 -0.3614 -0.3810
 4224TIP3    H112678   3.923   3.957   3.713 -1.4183 -0.5391 -1.4613
 4224TIP3    H212679   3.846   4.026   3.823 -0.0626 -0.1496 -0.7390
 4225TIP3   OH212680   4.284   2.760   3.267 -0.2391  0.1546 -0.2878
 4225TIP3    H112681   4.302   2.807   3.186 -1.2576  0.0100 -0.6163
 4225TIP3    H212682   4.275   2.669   3.241  1.6625 -0.2612  0.3387
 4226TIP3   OH212683   3.963   1.283   2.354  0.1317 -0.1876  0.1492
 4226TIP3    H112684   4.047   1.242   2.334  0.5691  1.1511 -0.8944
 4226TIP3    H212685   3.985   1.351   2.418 -0.4572 -0.9829  1.2345
 4227TIP3   OH212686   3.740   3.279   4.070 -0.3349  0.1196  0.4960
 4227TIP3    H112687   3.646   3.281   4.051 -0.2267 -0.9266 -0.2316
 4227TIP3    H212688   3.761   3.368   4.098 -1.6409  0.2402  1.1570
 4228TIP3   OH212689   4.781   0.417   0.652  0.0014  0.0901  0.3578
 4228TIP3    H112690   4.744   0.504   0.638  0.2392  0.5727  2.3772
 4228TIP3    H212691   4.706   0.359   0.662 -0.2013 -0.3490 -2.6430
 4229TIP3   OH212692   4.451   0.425   1.644 -0.0284  0.2997 -0.6173
 4229TIP3    H112693   4.414   0.342   1.613  0.8766 -0.2255 -0.3237
 4229TIP3    H212694   4.544   0.407   1.656 -0.1825  0.7262  1.5673
 4230TIP3   OH212695   6.219   1.005   3.096 -0.0624 -0.4748 -0.1832
 4230TIP3    H112696   6.202   0.938   3.162  1.0459  0.7215  1.4117
 4230TIP3    H212697   6.163   1.079   3.122  0.9454  0.2832 -0.0914
 4231TIP3   OH212698   4.632   4.158   1.411  0.1588  0.0291 -0.0186
 4231TIP3    H112699   4.548   4.177   1.370  0.6690  1.4596 -0.4523
 4231TIP3    H212700   4.650   4.067   1.388  0.2835  0.6768 -2.7783
 4232TIP3   OH212701   1.012   2.027   3.920  0.0168 -0.0553  0.0638
 4232TIP3    H112702   0.990   2.078   3.998  1.5832  0.5452  0.1534
 4232TIP3    H212703   0.965   1.944   3.932 -3.0531  1.4763 -0.3536
 4233TIP3   OH212704   0.337   0.755   2.851  0.0907 -0.0761 -0.2993
 4233TIP3    H112705   0.428   0.756   2.822  0.4435 -1.9774  0.5768
 4233TIP3    H212706   0.339   0.710   2.936 -1.3797  1.9146  0.8981
 4234TIP3   OH212707   2.888   2.420   3.432  0.4968 -0.3720  0.1391
 4234TIP3    H112708   2.882   2.349   3.368 -0.2401 -0.3740  0.2094
 4234TIP3    H212709   2.960   2.474   3.400 -0.4154  0.1162 -1.1905
 4235TIP3   OH212710   3.682   5.331   4.416 -0.1381  0.6396 -0.5121
 4235TIP3    H112711   3.775   5.356   4.416 -0.7131  3.0413 -0.3116
 4235TIP3    H212712   3.635   5.414   4.408 -2.3014 -0.4643  0.0185
 4236TIP3   OH212713   2.164   4.771   1.401  0.2841  0.0461  0.1425
 4236TIP3    H112714   2.186   4.709   1.332  0.8201  0.0294  0.3205
 4236TIP3    H212715   2.194   4.728   1.482 -0.1082  0.1707  0.3584
 4237TIP3   OH212716   1.346   5.191   1.708  0.0075  0.9944  0.3550
 4237TIP3    H112717   1.282   5.196   1.637  1.2379  0.3283 -0.8334
 4237TIP3    H212718   1.302   5.138   1.775 -0.2682 -0.4348 -0.9174
 4238TIP3   OH212719   4.540   0.468   3.108 -0.1379  0.0550  0.0092
 4238TIP3    H112720   4.555   0.537   3.044  1.0819 -1.0250 -0.9156
 4238TIP3    H212721   4.602   0.399   3.084 -0.1005 -0.6497  1.9668
 4239TIP3   OH212722   4.420   2.594   3.482 -0.3831 -0.4167  0.2119
 4239TIP3    H112723   4.329   2.606   3.507 -0.1127 -0.2784  1.1831
 4239TIP3    H212724   4.419   2.592   3.386 -1.3216  0.1922  0.1999
 4240TIP3   OH212725   1.191   4.802   4.904 -0.0059  0.4619 -0.2268
 4240TIP3    H112726   1.277   4.758   4.909  0.6883  1.8090  0.1396
 4240TIP3    H212727   1.153   4.788   4.990 -0.5135 -0.7860 -0.6266
 4241TIP3   OH212728   1.164   2.377   1.467  0.0174  0.1600  0.6334
 4241TIP3    H112729   1.222   2.360   1.542 -0.4343 -1.3168  0.6885
 4241TIP3    H212730   1.093   2.314   1.478 -1.4717  1.7406  0.3985
 4242TIP3   OH212731   4.204   2.237   3.996  0.2022  0.3448  0.3687
 4242TIP3    H112732   4.143   2.218   4.067 -1.1608  1.1316 -0.5511
 4242TIP3    H212733   4.230   2.152   3.963  0.9245 -0.0445  1.8276
 4243TIP3   OH212734   4.607   1.048   4.669  0.3203 -0.1070  0.0084
 4243TIP3    H112735   4.557   0.971   4.696  1.2599 -1.0154 -0.7446
 4243TIP3    H212736   4.669   1.014   4.604  0.6360  1.3245 -0.4664
 4244TIP3   OH212737   6.224   3.658   0.014  0.7792  0.1149 -0.2975
 4244TIP3    H112738   6.249   3.655   0.106  0.4778 -1.1672 -0.2287
 4244TIP3    H212739   6.238   3.568  -0.017 -0.5949  0.1498 -1.0922
 4245TIP3   OH212740   4.113   0.716   4.790  0.3187 -0.3722 -0.4626
 4245TIP3    H112741   4.181   0.649   4.786 -0.6399 -1.3137 -1.9770
 4245TIP3    H212742   4.092   0.735   4.699 -0.6339  0.7612 -0.0392
 4246TIP3   OH212743   2.811   2.193   3.266 -0.1432  0.1955 -0.0893
 4246TIP3    H112744   2.735   2.138   3.248  0.0708  0.1134 -0.7916
 4246TIP3    H212745   2.882   2.130   3.283 -0.1243  0.2655  0.0909
 4247TIP3   OH212746   5.295   3.307   0.916 -0.0804  0.1041 -0.3749
 4247TIP3    H112747   5.290   3.294   1.010 -0.1777 -0.9707 -0.5160
 4247TIP3    H212748   5.221   3.365   0.895 -0.2128  0.1307  0.1628
 4248TIP3   OH212749   1.106   4.360   2.711  0.0925 -0.6546 -0.0843
 4248TIP3    H112750   1.131   4.291   2.772  1.9593 -1.1535 -1.3119
 4248TIP3    H212751   1.189   4.391   2.675 -0.8979 -0.0168 -1.9538
 4249TIP3   OH212752   5.165   1.793   4.242  0.1027 -0.3783 -0.1730
 4249TIP3    H112753   5.169   1.763   4.333 -0.3096 -0.6631 -0.2475
 4249TIP3    H212754   5.247   1.761   4.203  1.0805  1.1865  0.5162
 4250TIP3   OH212755   3.848   4.446   2.938 -0.6722  0.0496  0.1139
 4250TIP3    H112756   3.785   4.501   2.986 -2.5483 -1.7729 -0.0771
 4250TIP3    H212757   3.850   4.483   2.850  1.1334  2.1176  0.9482
 4251TIP3   OH212758   2.207   0.704   2.044 -0.4950 -0.1793 -0.4719
 4251TIP3    H112759   2.111   0.700   2.049 -0.4284 -0.4216  1.3182
 4251TIP3    H212760   2.227   0.689   1.952 -2.0864 -2.8274 -0.4932
 4252TIP3   OH212761   4.649   2.537   3.252 -0.1301 -0.3842  0.3498
 4252TIP3    H112762   4.736   2.512   3.218  0.0160  0.2400  0.2573
 4252TIP3    H212763   4.668   2.601   3.320 -0.6114  1.8003 -1.4685
 4253TIP3   OH212764   2.716   1.255   2.698  0.1063 -0.5898  0.2522
 4253TIP3    H112765   2.643   1.310   2.726 -0.6270 -1.0961 -0.6354
 4253TIP3    H212766   2.684   1.208   2.621  2.0111  0.6007 -1.3597
 4254TIP3   OH212767   0.820   4.583   3.896  0.2733 -0.6466  0.4323
 4254TIP3    H112768   0.881   4.512   3.918  0.0100 -0.3870  2.0696
 4254TIP3    H212769   0.876   4.660   3.883  0.4598 -0.8860 -0.2415
 4255TIP3   OH212770   2.095   1.792   3.428  0.0777  0.3483 -0.4998
 4255TIP3    H112771   2.172   1.745   3.394  0.5851  1.6812 -1.2821
 4255TIP3    H212772   2.087   1.763   3.519  2.4177  1.2775  0.0654
 4256TIP3   OH212773   6.138   4.708   3.363  0.2947  0.3704  0.2704
 4256TIP3    H112774   6.087   4.725   3.284 -1.6590 -0.5960  1.2587
 4256TIP3    H212775   6.157   4.795   3.399  1.8709  0.8574 -1.5989
 4257TIP3   OH212776   1.892   2.555   1.633  0.0666  0.0826 -0.1606
 4257TIP3    H112777   1.886   2.555   1.538  0.6153  0.4434 -0.2001
 4257TIP3    H212778   1.863   2.642   1.659  1.4000  0.5430 -0.1157
 4258TIP3   OH212779   5.174   5.498   0.330 -0.6776 -0.0647 -0.0433
 4258TIP3    H112780   5.266   5.523   0.326 -0.6058 -0.2883  0.1536
 4258TIP3    H212781   5.167   5.448   0.411 -1.1284  0.5769  0.3221
 4259TIP3   OH212782   2.590   0.310   1.316 -0.5570 -0.5129  0.2946
 4259TIP3    H112783   2.664   0.333   1.261 -0.9971 -0.7053 -0.3913
 4259TIP3    H212784   2.612   0.346   1.402 -0.4194  0.9011 -0.3004
 4260TIP3   OH212785   3.999   1.743   4.749  0.0852 -0.0397 -0.0906
 4260TIP3    H112786   4.036   1.673   4.803  0.3477 -0.2902 -0.5894
 4260TIP3    H212787   3.975   1.699   4.668 -0.9883  0.1881  0.0896
 4261TIP3   OH212788   6.036   1.861   3.555 -0.2511 -0.6473 -0.7361
 4261TIP3    H112789   5.997   1.852   3.642 -1.2576 -1.2301 -1.2256
 4261TIP3    H212790   6.063   1.772   3.531  0.6995 -0.3695 -0.7204
 4262TIP3   OH212791   1.759   5.019   0.512 -0.1246 -0.4167  0.4540
 4262TIP3    H112792   1.687   5.009   0.576 -0.2144 -0.1550  0.3951
 4262TIP3    H212793   1.838   5.003   0.563 -0.2046 -0.3529  0.6002
 4263TIP3   OH212794   2.125   4.325   0.799  0.0919  0.0812 -0.1077
 4263TIP3    H112795   2.137   4.246   0.852  0.9905  0.3290  0.0797
 4263TIP3    H212796   2.033   4.349   0.812  0.4735  0.6428  2.1004
 4264TIP3   OH212797   4.303   2.069   3.317 -0.4943 -0.1477 -0.2752
 4264TIP3    H112798   4.385   2.115   3.330 -0.6620 -0.2236  1.2228
 4264TIP3    H212799   4.260   2.071   3.402 -1.8577 -0.4854 -0.9165
 4265TIP3   OH212800   0.127   4.997   2.160  0.2565  0.1308  0.3293
 4265TIP3    H112801   0.164   4.959   2.081  1.3438 -1.0678  1.3718
 4265TIP3    H212802   0.066   4.931   2.192 -0.3740  0.7188  0.3675
 4266TIP3   OH212803   5.622   4.741   2.538  0.4632  0.3657 -0.1349
 4266TIP3    H112804   5.546   4.782   2.581  0.8867  0.5812  0.4191
 4266TIP3    H212805   5.650   4.672   2.599 -1.3814 -2.1095 -1.8420
 4267TIP3   OH212806   1.000   3.183   0.379 -0.0911 -0.1161 -0.6086
 4267TIP3    H112807   0.925   3.160   0.325 -1.3489 -0.1431  1.0874
 4267TIP3    H212808   1.029   3.100   0.416 -0.6668  0.1546  0.5081
 4268TIP3   OH212809   1.642   2.846   2.207  0.4504  0.3884  0.1424
 4268TIP3    H112810   1.554   2.814   2.229  0.8991 -1.0839 -0.0860
 4268TIP3    H212811   1.691   2.837   2.288  0.8981 -0.6714 -0.2367
 4269TIP3   OH212812   6.189   2.883   4.445 -0.4946  0.6219 -0.2172
 4269TIP3    H112813   6.096   2.882   4.468 -0.8889  0.6864 -1.6847
 4269TIP3    H212814   6.195   2.948   4.374  1.1059  2.4822  1.4828
 4270TIP3   OH212815   0.669   5.802   0.714 -0.5461  0.2790  0.0377
 4270TIP3    H112816   0.672   5.784   0.620 -1.4940  1.0063 -0.1435
 4270TIP3    H212817   0.666   5.716   0.755 -2.9999 -0.0518 -0.7176
 4271TIP3   OH212818   3.687   3.373   1.681 -0.5401 -0.2140 -0.2170
 4271TIP3    H112819   3.614   3.401   1.626 -0.0387  0.5893 -0.4895
 4271TIP3    H212820   3.671   3.416   1.765 -0.9443 -0.9001  0.0671
 4272TIP3   OH212821   3.187   3.863   0.011 -0.2927 -0.9149 -0.0949
 4272TIP3    H112822   3.263   3.921  -0.002 -0.5638  0.1773  2.4962
 4272TIP3    H212823   3.226   3.780   0.038  0.0266 -1.2882 -1.6075
 4273TIP3   OH212824   1.520   5.082   2.837 -0.3124  0.5194  0.0600
 4273TIP3    H112825   1.515   5.177   2.825 -1.1271  0.2880 -1.9638
 4273TIP3    H212826   1.430   5.052   2.827  0.0807 -0.5537 -0.4180
 4274TIP3   OH212827   5.013   2.494   2.674  0.4219  0.3155 -0.1867
 4274TIP3    H112828   4.969   2.438   2.738  0.7607 -2.1466 -1.9684
 4274TIP3    H212829   4.942   2.535   2.625  0.1629  0.9575  0.7129
 4275TIP3   OH212830   3.071   1.750   5.056 -0.3259 -0.1474  0.4976
 4275TIP3    H112831   3.128   1.827   5.046 -1.5188  0.9324  1.5371
 4275TIP3    H212832   2.987   1.778   5.021 -0.8795 -0.8607  1.2191
 4276TIP3   OH212833   1.372   1.293   0.784  0.1183 -0.1762  0.0401
 4276TIP3    H112834   1.317   1.309   0.861  0.3537 -3.3010  1.0093
 4276TIP3    H212835   1.327   1.224   0.736  1.2602 -0.0750 -1.2498
 4277TIP3   OH212836   1.738   0.360   1.331 -0.1100  0.4916  0.1765
 4277TIP3    H112837   1.751   0.278   1.284 -0.8604  1.4350 -1.8174
 4277TIP3    H212838   1.818   0.409   1.317 -0.7592  1.2303 -1.1937
 4278TIP3   OH212839   4.396   5.664   4.497 -0.5024 -0.6124  0.8058
 4278TIP3    H112840   4.410   5.570   4.498 -0.4472 -0.6944 -1.3920
 4278TIP3    H212841   4.342   5.679   4.420  1.6176  1.3510 -0.4496
 4279TIP3   OH212842   1.443   4.438   4.894  0.1758 -0.0475  0.2395
 4279TIP3    H112843   1.369   4.381   4.874 -0.2001  0.4214  0.3063
 4279TIP3    H212844   1.448   4.439   4.989 -1.0306  1.5771  0.3161
 4280TIP3   OH212845   5.111   2.448   3.828 -0.5240  0.4960  0.0026
 4280TIP3    H112846   5.073   2.536   3.827 -1.1070  0.2682  1.0426
 4280TIP3    H212847   5.187   2.455   3.886 -0.7486  0.2486  0.3305
 4281TIP3   OH212848   4.661   3.554   3.563 -0.1638 -0.5378 -0.2760
 4281TIP3    H112849   4.724   3.509   3.508 -1.1272  0.0416 -1.9111
 4281TIP3    H212850   4.713   3.617   3.614  0.5720  0.1178 -1.7786
 4282TIP3   OH212851   2.942   5.283   3.262  0.5444  0.2230  0.0204
 4282TIP3    H112852   2.951   5.211   3.199  1.9684  0.5571 -0.1781
 4282TIP3    H212853   2.931   5.361   3.207 -1.7577  0.1300  0.2295
 4283TIP3   OH212854   0.329   5.989   0.866 -0.1991 -0.1932  0.1039
 4283TIP3    H112855   0.319   5.913   0.923  0.4863 -0.5192 -0.1981
 4283TIP3    H212856   0.355   6.060   0.926 -0.0679 -0.3903  0.2811
 4284TIP3   OH212857   0.776   3.233   2.187  0.1318  0.2831  0.2415
 4284TIP3    H112858   0.699   3.178   2.178 -0.8705  1.7222 -0.2724
 4284TIP3    H212859   0.849   3.178   2.159 -0.9185 -0.5593 -0.9162
 4285TIP3   OH212860   4.136   3.494   4.723 -0.3302  0.1159 -0.4135
 4285TIP3    H112861   4.171   3.459   4.805  3.3919  1.1404 -1.3758
 4285TIP3    H212862   4.158   3.428   4.657  0.1924  0.9490 -1.1096
 4286TIP3   OH212863   3.087   0.331   0.671 -0.8336  0.1833 -0.5935
 4286TIP3    H112864   3.137   0.249   0.674  1.0282  1.1554 -2.3746
 4286TIP3    H212865   3.008   0.313   0.721 -0.6390 -2.8183 -1.1796
 4287TIP3   OH212866   6.238   3.568   3.133  0.1304 -0.2008 -0.0167
 4287TIP3    H112867   6.308   3.633   3.132 -0.0269 -0.0359 -0.5951
 4287TIP3    H212868   6.281   3.487   3.104  0.0218 -0.0272 -0.6914
 4288TIP3   OH212869   3.999   0.559   3.717  0.2950  0.2237  0.3795
 4288TIP3    H112870   4.008   0.654   3.711  0.5534  0.1719 -0.1475
 4288TIP3    H212871   4.017   0.539   3.809  3.2341  0.4117 -0.0467
 4289TIP3   OH212872   1.017   0.026   4.647  0.5965  0.4343 -0.3225
 4289TIP3    H112873   1.106  -0.008   4.663  0.7086  0.9782  0.2541
 4289TIP3    H212874   0.984   0.048   4.734  0.3599  1.3822 -0.6392
 4290TIP3   OH212875   2.065   2.456   0.463  0.0446 -0.3707  0.0748
 4290TIP3    H112876   2.072   2.463   0.558 -0.1448 -0.3022  0.0848
 4290TIP3    H212877   2.085   2.365   0.443  0.1132 -0.3779  0.1778
 4291TIP3   OH212878   4.676   0.672   2.396  0.2136 -0.0969  0.0110
 4291TIP3    H112879   4.682   0.585   2.436  0.2702 -0.7570 -1.3933
 4291TIP3    H212880   4.631   0.657   2.313  1.2295  1.0450 -0.7666
 4292TIP3   OH212881   4.441   1.018   1.500  0.0034  0.7434  0.2236
 4292TIP3    H112882   4.514   1.080   1.503  1.0308 -0.3137 -1.2917
 4292TIP3    H212883   4.458   0.957   1.572  0.9854  0.1532 -0.4844
 4293TIP3   OH212884   4.791   2.329   0.194  0.1746  0.4117 -0.3934
 4293TIP3    H112885   4.874   2.285   0.178  0.0217 -0.2023  0.3802
 4293TIP3    H212886   4.815   2.415   0.229  0.4901  0.2284 -0.1527
 4294TIP3   OH212887   1.800   0.150   4.843  0.0844 -0.6407  0.1686
 4294TIP3    H112888   1.891   0.164   4.869  0.4547 -0.7862 -0.9931
 4294TIP3    H212889   1.791   0.199   4.761 -0.5968 -1.4456 -0.2494
 4295TIP3   OH212890   3.143   1.273   4.439  0.3153  0.0960  0.0943
 4295TIP3    H112891   3.193   1.216   4.498 -1.0310 -0.2246  0.9679
 4295TIP3    H212892   3.082   1.215   4.395 -0.0363  0.6413 -0.1521
 4296TIP3   OH212893   0.024   0.813   1.677  0.0557 -0.0949 -0.2909
 4296TIP3    H112894   0.117   0.831   1.662 -0.0520 -0.1843 -1.0784
 4296TIP3    H212895  -0.021   0.856   1.604 -0.5199 -0.0983  0.0549
 4297TIP3   OH212896   1.967   2.511   0.980  0.2186  0.5574  0.2102
 4297TIP3    H112897   1.980   2.583   1.041 -0.2766  0.4223  0.4789
 4297TIP3    H212898   1.875   2.486   0.990 -0.4263  1.7915 -1.9634
 4298TIP3   OH212899   5.441   2.618   3.784  0.0269  0.5474 -0.0808
 4298TIP3    H112900   5.477   2.546   3.732  1.6946  2.9841 -2.5434
 4298TIP3    H212901   5.379   2.661   3.726 -1.1639  0.9709  1.4562
 4299TIP3   OH212902   3.724   3.271   4.627 -0.2583  0.0751 -0.2248
 4299TIP3    H112903   3.738   3.331   4.700 -1.2308  0.6751 -0.5133
 4299TIP3    H212904   3.722   3.184   4.667  0.0236  0.3333  0.3537
 4300TIP3   OH212905   2.310   5.092   4.407 -0.1811  0.3309  0.2646
 4300TIP3    H112906   2.384   5.041   4.440 -0.4748 -0.0800  0.2984
 4300TIP3    H212907   2.251   5.027   4.369  0.1092  0.7764 -1.0096
 4301TIP3   OH212908   3.785   5.230   0.448  0.5041 -0.4497  0.0979
 4301TIP3    H112909   3.822   5.146   0.420 -0.8617 -0.9817 -0.1478
 4301TIP3    H212910   3.740   5.263   0.370  1.5165  0.8057  0.0183
 4302TIP3   OH212911   1.651   0.507   2.044 -0.1773 -0.3433 -0.1515
 4302TIP3    H112912   1.711   0.467   2.107  0.9056  0.1462 -0.8456
 4302TIP3    H212913   1.577   0.447   2.041  0.8108 -1.6120 -0.1689
 4303TIP3   OH212914   5.130   1.143   4.192 -0.2207 -0.4450 -0.3089
 4303TIP3    H112915   5.075   1.080   4.146  0.8797 -2.0971  0.5293
 4303TIP3    H212916   5.078   1.223   4.195 -1.8743 -1.4528 -0.9723
 4304TIP3   OH212917   0.681   2.070   5.191  0.2256 -0.3088  0.3042
 4304TIP3    H112918   0.699   1.985   5.233  1.5698  0.0599  0.5203
 4304TIP3    H212919   0.765   2.096   5.153 -0.0119  1.1952  0.7396
 4305TIP3   OH212920   1.970   4.225   3.016  0.2326  0.4474  0.1544
 4305TIP3    H112921   2.051   4.178   2.997  0.3121  0.9589 -0.8294
 4305TIP3    H212922   1.909   4.195   2.948  0.4703  2.2055 -0.8911
 4306TIP3   OH212923   3.623   2.813   3.892 -0.2057  0.3719 -0.0925
 4306TIP3    H112924   3.648   2.781   3.979 -3.2873 -0.6511  0.5208
 4306TIP3    H212925   3.625   2.909   3.901  0.8851  0.3048  0.6289
 4307TIP3   OH212926   4.268   0.280   0.414 -0.1182  0.2649 -0.4807
 4307TIP3    H112927   4.336   0.264   0.348 -0.8474 -0.8814 -0.9818
 4307TIP3    H212928   4.294   0.227   0.489  0.6688  1.5091  0.1795
 4308TIP3   OH212929   4.603   4.974   0.037 -0.1271  0.2749 -0.5140
 4308TIP3    H112930   4.556   4.942   0.114  0.2202 -0.4403 -0.5954
 4308TIP3    H212931   4.608   4.898  -0.021  1.2732  0.2929 -0.4391
 4309TIP3   OH212932   4.693   2.502   2.639  0.6216  0.1765 -0.0097
 4309TIP3    H112933   4.613   2.523   2.687 -0.3684  1.3345 -2.0466
 4309TIP3    H212934   4.689   2.408   2.626 -0.0768  0.1345  0.4494
 4310TIP3   OH212935   4.933   0.270   4.193  0.5906  0.7637  0.0261
 4310TIP3    H112936   4.889   0.241   4.113  0.2407 -3.0224  1.4040
 4310TIP3    H212937   5.022   0.290   4.165  0.6476 -1.0485 -1.2599
 4311TIP3   OH212938   1.263   1.583   2.623  0.5152  1.2672 -0.0013
 4311TIP3    H112939   1.301   1.544   2.701  0.9010 -0.0752 -0.8419
 4311TIP3    H212940   1.182   1.534   2.609  1.1450  0.5559 -1.2317
 4312TIP3   OH212941   3.140   5.100   4.758  0.1541  0.3711 -0.1910
 4312TIP3    H112942   3.189   5.166   4.708 -0.9667  1.5747  0.2684
 4312TIP3    H212943   3.122   5.141   4.842 -0.3558 -0.6170  0.1976
 4313TIP3   OH212944   0.642   1.952   4.646  0.3236  0.7148 -0.1667
 4313TIP3    H112945   0.729   1.977   4.613  0.1710  0.4677 -0.7560
 4313TIP3    H212946   0.580   1.997   4.589  0.0077 -1.8353 -2.0133
 4314TIP3   OH212947   4.395   3.688   0.862 -1.0814 -0.1232 -0.1401
 4314TIP3    H112948   4.370   3.767   0.815  0.6701  1.0516  0.8138
 4314TIP3    H212949   4.453   3.641   0.801  0.6022  1.0444  0.4810
 4315TIP3   OH212950   4.500   1.303   3.836 -0.5438 -0.2651  0.1539
 4315TIP3    H112951   4.478   1.323   3.745 -0.9385 -0.2194  0.2561
 4315TIP3    H212952   4.543   1.382   3.868 -0.2750 -0.3337 -0.0343
 4316TIP3   OH212953   1.402   4.576   2.140 -0.3899  0.0647  0.3484
 4316TIP3    H112954   1.315   4.537   2.138 -0.4237  0.1504 -1.4565
 4316TIP3    H212955   1.454   4.516   2.194 -0.8576 -1.5815 -0.9451
 4317TIP3   OH212956   0.089   4.966   5.044  0.3985  0.0652 -0.1704
 4317TIP3    H112957   0.004   4.968   5.000 -0.1678 -0.4805  0.8592
 4317TIP3    H212958   0.110   4.873   5.051  0.8187  0.1766  0.0700
 4318TIP3   OH212959   0.382   2.148   3.182 -0.6204  0.2540  0.0879
 4318TIP3    H112960   0.331   2.168   3.260 -1.6790  2.0850 -1.0059
 4318TIP3    H212961   0.422   2.063   3.200  1.1647  1.6283  3.6376
 4319TIP3   OH212962   4.235   3.083   4.950  0.5652 -0.2752 -0.7169
 4319TIP3    H112963   4.297   3.060   5.019  1.0533  1.2524 -0.6273
 4319TIP3    H212964   4.211   2.999   4.911  1.9035 -0.9813 -0.0814
 4320TIP3   OH212965   1.319   2.333   0.722  0.0929  0.2127  0.0322
 4320TIP3    H112966   1.279   2.292   0.798 -0.4788  0.1554 -0.2953
 4320TIP3    H212967   1.260   2.405   0.699 -0.1503 -0.2462 -0.8194
 4321TIP3   OH212968   4.745   5.054   2.663 -0.7782  0.9453  0.4418
 4321TIP3    H112969   4.799   5.117   2.614  0.6779 -0.3763  0.2656
 4321TIP3    H212970   4.729   5.097   2.747  3.3095  0.2528  1.8122
 4322TIP3   OH212971   2.721   3.087   3.947  0.0430  0.0545  0.4957
 4322TIP3    H112972   2.742   3.111   3.856 -0.0360 -1.1442  0.1478
 4322TIP3    H212973   2.680   3.166   3.983  1.6739  1.1577  0.0544
 4323TIP3   OH212974   0.750   5.156   1.805 -0.8343  0.7976  0.1558
 4323TIP3    H112975   0.791   5.150   1.892  0.2844  0.3230 -0.3887
 4323TIP3    H212976   0.811   5.112   1.746 -0.5520  2.8827 -1.2306
 4324TIP3   OH212977   5.382   5.025   1.069  0.3216  0.0706  0.1144
 4324TIP3    H112978   5.362   4.932   1.079  2.8430 -0.3234  3.0607
 4324TIP3    H212979   5.468   5.027   1.025  0.9185  0.8898  1.2570
 4325TIP3   OH212980   5.482   3.950   0.774  0.1146  0.0117 -0.0019
 4325TIP3    H112981   5.502   3.968   0.682  2.0590 -1.8352 -0.0111
 4325TIP3    H212982   5.541   3.879   0.798 -0.7011  0.1024  2.5606
 4326TIP3   OH212983   3.257   2.722   2.982  0.7744 -0.2794 -0.1340
 4326TIP3    H112984   3.304   2.805   2.977  1.8631 -0.7684  1.4402
 4326TIP3    H212985   3.261   2.696   3.074  0.5114 -2.1126 -0.5832
 4327TIP3   OH212986   2.888   2.473   0.886  0.1315  0.1207  0.4252
 4327TIP3    H112987   2.819   2.416   0.852  1.4219  0.1409 -2.4977
 4327TIP3    H212988   2.948   2.413   0.931  0.1156 -0.4684 -0.3165
 4328TIP3   OH212989   5.900   5.372   3.654 -0.3552 -0.2732  0.1267
 4328TIP3    H112990   5.865   5.283   3.661 -0.6913 -0.4777 -2.9693
 4328TIP3    H212991   5.845   5.423   3.713 -1.6622 -1.7260  0.2486
 4329TIP3   OH212992   3.270   3.166   3.364 -0.2587 -0.4438 -0.4466
 4329TIP3    H112993   3.297   3.137   3.452  1.4588 -0.0417 -0.8220
 4329TIP3    H212994   3.271   3.261   3.369  0.2624 -0.4197 -1.0304
 4330TIP3   OH212995   1.617   3.685   1.634 -0.0515 -0.4289 -0.0658
 4330TIP3    H112996   1.610   3.631   1.713  0.8369  0.7911  0.8829
 4330TIP3    H212997   1.537   3.666   1.586 -0.5090 -1.3838  1.0058
 4331TIP3   OH212998   0.068   5.039   0.335 -0.3234 -0.1469  0.0553
 4331TIP3    H112999   0.010   5.018   0.408 -1.0654 -0.6555 -0.6639
 4331TIP3    H213000   0.082   4.956   0.290  1.6497 -0.2054  0.6671
 4332TIP3   OH213001   4.181   3.608   3.795  0.0628  0.0483 -0.4595
 4332TIP3    H113002   4.228   3.596   3.712  2.0570 -0.7911  0.7188
 4332TIP3    H213003   4.129   3.528   3.805  0.8454 -0.4473 -0.2902
 4333TIP3   OH213004   1.433   2.264   2.334 -0.4858  0.4047  0.0881
 4333TIP3    H113005   1.468   2.218   2.410  2.4838  0.8727 -0.8513
 4333TIP3    H213006   1.426   2.355   2.363 -0.7354  0.3457  0.2158
 4334TIP3   OH213007   5.855   4.453   3.220 -0.1479  0.2014  0.0488
 4334TIP3    H113008   5.927   4.463   3.158  0.9078  0.1153  1.2101
 4334TIP3    H213009   5.832   4.361   3.216  0.4284  0.0395  0.3101
 4335TIP3   OH213010   5.579   0.624   4.384 -0.2636  0.0021  0.4991
 4335TIP3    H113011   5.630   0.699   4.412  1.0842 -0.6637 -0.0875
 4335TIP3    H213012   5.636   0.549   4.399 -1.1174 -0.7865 -0.0463
 4336TIP3   OH213013   5.199   2.871   4.239 -0.2906  0.3885  0.3131
 4336TIP3    H113014   5.216   2.909   4.153  0.3131  1.6930  0.9901
 4336TIP3    H213015   5.138   2.932   4.281  1.8822  1.5214  1.9950
 4337TIP3   OH213016   4.395   0.528   2.483  0.5243 -0.3070  0.3946
 4337TIP3    H113017   4.341   0.478   2.544  0.0471  0.0595  0.2821
 4337TIP3    H213018   4.480   0.485   2.485 -0.1093 -1.6507 -0.3566
 4338TIP3   OH213019   6.162   1.864   1.033  0.0283  0.2238  0.1079
 4338TIP3    H113020   6.127   1.819   0.955 -2.1418  1.1582  0.4630
 4338TIP3    H213021   6.230   1.922   0.998  0.6590 -0.9863 -0.7641
 4339TIP3   OH213022   5.399   2.778   3.173  0.5749  0.3338  0.5197
 4339TIP3    H113023   5.453   2.778   3.252  1.4692  1.2124 -0.0543
 4339TIP3    H213024   5.435   2.707   3.119  0.3689  0.1366  0.6413
 4340TIP3   OH213025   4.347   1.586   2.939 -0.2564 -0.4799  0.0960
 4340TIP3    H113026   4.385   1.539   3.013 -0.4931 -1.3976 -0.3489
 4340TIP3    H213027   4.257   1.604   2.967  0.0490  0.3670  0.5556
 4341TIP3   OH213028   0.134   2.392   3.756 -0.2226  0.5203 -0.2931
 4341TIP3    H113029   0.084   2.473   3.742  2.5356  2.2350 -0.9236
 4341TIP3    H213030   0.067   2.327   3.777 -2.5116  3.1863  1.5434
 4342TIP3   OH213031   3.230   2.610   3.521 -0.0166  0.0464  0.3622
 4342TIP3    H113032   3.205   2.697   3.552  1.8688  0.6657  0.2668
 4342TIP3    H213033   3.192   2.604   3.433  0.8427  1.2878 -0.1268
 4343TIP3   OH213034   1.284   3.217   4.477 -0.0001  0.1697  0.2393
 4343TIP3    H113035   1.339   3.267   4.538 -1.1268  2.5259 -0.5618
 4343TIP3    H213036   1.195   3.232   4.508 -0.4032 -0.9506 -0.3480
 4344TIP3   OH213037   5.777   4.746   5.159  0.0307 -0.4731 -0.2910
 4344TIP3    H113038   5.734   4.679   5.105 -0.9883  0.3245 -0.5082
 4344TIP3    H213039   5.710   4.773   5.221  0.0559  1.0850 -0.8796
 4345TIP3   OH213040   5.901   2.826   4.529 -0.1341  0.1925 -0.0483
 4345TIP3    H113041   5.806   2.822   4.523 -0.0299 -0.3818 -1.7759
 4345TIP3    H213042   5.930   2.736   4.516  0.6808  0.4962 -0.4212
 4346TIP3   OH213043   6.125   2.748   1.480  0.5531  0.1365 -0.4806
 4346TIP3    H113044   6.069   2.739   1.402  0.5820  1.9693 -0.7662
 4346TIP3    H213045   6.211   2.771   1.446  0.3227  2.0027  0.0744
 4347TIP3   OH213046   4.159   0.529   4.364 -0.1020 -0.2281 -0.7257
 4347TIP3    H113047   4.203   0.445   4.350  1.5476  0.3354  0.7187
 4347TIP3    H213048   4.074   0.519   4.321  0.2814 -2.4190 -1.0926
 4348TIP3   OH213049   2.190   4.612   3.552  0.2842  0.7523  0.5193
 4348TIP3    H113050   2.170   4.558   3.629  0.3813 -0.6496 -0.4030
 4348TIP3    H213051   2.280   4.589   3.530 -0.1873  0.1278 -0.8043
 4349TIP3   OH213052   1.727   1.911   0.195  0.5749 -0.0980  0.5079
 4349TIP3    H113053   1.684   1.954   0.120 -0.6246 -0.3898  0.9970
 4349TIP3    H213054   1.752   1.983   0.252  1.7258  0.1432 -0.2778
 4350TIP3   OH213055   5.089   5.836   3.942  0.5770  0.1318 -0.6239
 4350TIP3    H113056   5.065   5.747   3.917 -0.3056  0.6296 -1.6530
 4350TIP3    H213057   5.017   5.890   3.910  0.6411  1.1277  0.8088
 4351TIP3   OH213058   5.088   2.935   5.066 -0.6487  0.5372  0.6024
 4351TIP3    H113059   5.024   2.885   5.016  0.6197 -1.0240  0.4867
 4351TIP3    H213060   5.172   2.895   5.046  0.1881  1.4366  2.0882
 4352TIP3   OH213061   0.516   4.620   0.407 -0.3426 -0.4017  0.8562
 4352TIP3    H113062   0.460   4.588   0.336  0.7950  0.0346 -0.2799
 4352TIP3    H213063   0.582   4.551   0.419 -0.0890 -0.1428  0.9661
 4353TIP3   OH213064   3.310   5.552   4.623  0.0464  0.0893 -0.0972
 4353TIP3    H113065   3.312   5.577   4.531  2.1153  0.8436  0.0841
 4353TIP3    H213066   3.399   5.570   4.654 -1.7023  4.6209  3.3007
 4354TIP3   OH213067   4.805   4.575   0.283  0.2005  0.4047  0.2442
 4354TIP3    H113068   4.799   4.663   0.245  0.5555  1.2496  2.0333
 4354TIP3    H213069   4.721   4.562   0.328 -1.0775 -1.4282 -2.3604
 4355TIP3   OH213070   2.358   5.624   3.803 -0.3138 -0.2250 -0.1779
 4355TIP3    H113071   2.306   5.578   3.738 -0.3585 -1.6720  0.8392
 4355TIP3    H213072   2.424   5.672   3.752 -1.9494  0.8163 -1.4147
 4356TIP3   OH213073   1.725   2.754   1.164 -0.3317  0.0099  0.3988
 4356TIP3    H113074   1.672   2.819   1.118  2.1091  1.6671 -0.2544
 4356TIP3    H213075   1.704   2.671   1.120 -1.5324  0.7931 -0.5705
 4357TIP3   OH213076   4.170   1.782   0.519  0.3505  0.0831 -0.2924
 4357TIP3    H113077   4.193   1.859   0.467  0.1223  0.1224 -0.3369
 4357TIP3    H213078   4.126   1.724   0.457 -1.8088  0.9997  0.2854
 4358TIP3   OH213079   0.607   1.002   2.057 -0.1883 -0.3327 -0.1066
 4358TIP3    H113080   0.682   0.946   2.038  0.4134 -0.3052  1.9779
 4358TIP3    H213081   0.594   0.994   2.151 -0.8172  2.1064  0.0842
 4359TIP3   OH213082   4.441   4.796   3.085 -0.1539  0.9033  0.3657
 4359TIP3    H113083   4.446   4.701   3.102 -0.3429  0.7601 -0.3703
 4359TIP3    H213084   4.492   4.809   3.005  0.4219  1.5253  0.8202
 4360TIP3   OH213085   0.406   0.048   4.437  0.2180  0.0425 -0.0741
 4360TIP3    H113086   0.393   0.140   4.413 -0.4911 -0.3542 -1.2761
 4360TIP3    H213087   0.392  -0.000   4.356  2.1759 -1.0370  0.1744
 4361TIP3   OH213088   0.281   3.618   2.951  0.1259 -0.4917 -0.2636
 4361TIP3    H113089   0.363   3.610   2.903  1.7139 -1.0736  2.3329
 4361TIP3    H213090   0.235   3.535   2.935  1.0604 -1.0631 -0.0047
 4362TIP3   OH213091   5.190   5.552   1.919 -0.5076  0.2518  0.6082
 4362TIP3    H113092   5.181   5.457   1.914 -0.4953  0.2507  0.6096
 4362TIP3    H213093   5.283   5.568   1.903 -0.5583  0.2830  0.3336
 4363TIP3   OH213094   1.383   5.399   4.087  0.3586  0.0775 -0.6850
 4363TIP3    H113095   1.466   5.421   4.045  1.0354  0.5259  0.8188
 4363TIP3    H213096   1.358   5.478   4.134 -0.6386 -0.2428 -0.6473
 4364TIP3   OH213097   0.701   2.905   2.218 -0.1212  0.6615  0.1528
 4364TIP3    H113098   0.651   2.880   2.295  0.0726  1.6835  0.6241
 4364TIP3    H213099   0.789   2.870   2.233  0.1211  1.4988  0.7610
 4365TIP3   OH213100   0.990   5.881   1.558 -0.3809  0.0630 -0.0237
 4365TIP3    H113101   1.051   5.934   1.508 -0.9781  1.2582  0.4683
 4365TIP3    H213102   1.034   5.865   1.641 -1.2465  2.2431  0.9610
 4366TIP3   OH213103   6.158   5.247   3.636 -0.2175 -0.0794  0.0290
 4366TIP3    H113104   6.205   5.314   3.686 -0.9208  0.0791  0.4791
 4366TIP3    H213105   6.066   5.271   3.643 -0.2898  0.4887 -2.1383
 4367TIP3   OH213106   0.118   3.030   3.521 -0.5810 -0.4469  0.1181
 4367TIP3    H113107   0.091   2.994   3.436  1.4859 -0.0139 -0.7760
 4367TIP3    H213108   0.207   3.063   3.506  0.1171 -0.9777  2.6226
 4368TIP3   OH213109   2.618   0.360   2.690  0.3876 -0.2599  0.3429
 4368TIP3    H113110   2.569   0.285   2.657 -1.9680  0.5723  1.6619
 4368TIP3    H213111   2.593   0.433   2.632  0.7253 -0.0025  0.5172
 4369TIP3   OH213112   1.010   5.994   4.539  0.0563  0.0575 -0.1392
 4369TIP3    H113113   1.064   5.924   4.575  1.4067  1.7001  1.2347
 4369TIP3    H213114   0.960   6.026   4.614 -0.3475  0.7134 -0.6829
 4370TIP3   OH213115   4.682   5.164   3.680  0.0809  0.2982  0.1136
 4370TIP3    H113116   4.607   5.141   3.626 -0.0191 -0.8703  0.7195
 4370TIP3    H213117   4.758   5.130   3.632  0.1299  0.5594  0.0042
 4371TIP3   OH213118   2.544   4.270   4.510 -1.0480 -0.3675 -0.1530
 4371TIP3    H113119   2.588   4.221   4.440 -0.7164  1.5819 -1.3851
 4371TIP3    H213120   2.559   4.362   4.488 -2.0773  0.3222  1.7885
 4372TIP3   OH213121   5.671   5.853   2.295  0.2640 -0.4335  0.2373
 4372TIP3    H113122   5.631   5.785   2.241  0.0959  1.1850 -1.7947
 4372TIP3    H213123   5.597   5.893   2.342 -0.1891  0.6478 -1.3123
 4373TIP3   OH213124   0.224   1.011   4.579 -0.0376 -0.3986  0.3275
 4373TIP3    H113125   0.145   0.964   4.551  0.3955 -0.7356 -0.3583
 4373TIP3    H213126   0.195   1.063   4.654 -1.4867  1.2448 -1.2491
 4374TIP3   OH213127   4.444   0.500   4.103  0.4774  0.2357  0.6081
 4374TIP3    H113128   4.446   0.596   4.096  2.6709  0.2115  0.0158
 4374TIP3    H213129   4.513   0.471   4.044 -1.5675 -1.8837 -0.8795
 4375TIP3   OH213130   2.300   3.964   2.768  0.0439  0.3196  0.2715
 4375TIP3    H113131   2.373   4.024   2.757 -0.4588  0.9920  0.5752
 4375TIP3    H213132   2.298   3.914   2.686  1.6492 -0.6216  0.7657
 4376TIP3   OH213133   5.180   3.321   1.427  0.0045 -0.2531  0.0100
 4376TIP3    H113134   5.221   3.324   1.513  0.1454  1.2885 -0.0751
 4376TIP3    H213135   5.176   3.413   1.399  0.4303 -0.7488 -1.8389
 4377TIP3   OH213136   1.455   0.628   2.919  0.0118  0.0708  0.1686
 4377TIP3    H113137   1.458   0.591   3.007 -2.3792 -0.8115 -0.0477
 4377TIP3    H213138   1.473   0.554   2.861  0.8078  0.4826 -0.1227
 4378TIP3   OH213139   5.955   0.241   4.469  0.1384  0.6824  0.1130
 4378TIP3    H113140   5.929   0.169   4.527  0.5404 -0.1564 -0.7167
 4378TIP3    H213141   6.017   0.201   4.408 -1.3657  1.1384 -1.8452
 4379TIP3   OH213142   3.143   3.446   1.186  0.3014 -0.0862 -0.6043
 4379TIP3    H113143   3.100   3.391   1.120 -0.0974  1.5255 -1.7381
 4379TIP3    H213144   3.234   3.417   1.185  0.3705  0.0857 -2.1038
 4380TIP3   OH213145   5.426   1.182   1.825 -0.0409  1.0224  0.2435
 4380TIP3    H113146   5.373   1.255   1.857 -2.8459 -0.6060 -0.2828
 4380TIP3    H213147   5.395   1.168   1.735  0.6662 -0.5737  0.2137
 4381TIP3   OH213148   5.947   3.057   4.883 -0.1982  0.0972  0.2449
 4381TIP3    H113149   5.997   3.054   4.964 -0.8619  0.6304  0.6799
 4381TIP3    H213150   5.960   2.970   4.844  2.7361  0.8447 -0.7087
 4382TIP3   OH213151   3.112   0.271   1.578 -0.3667 -0.9011  0.1238
 4382TIP3    H113152   3.133   0.219   1.655  0.4463  1.3536  1.5127
 4382TIP3    H213153   3.062   0.346   1.612 -1.0556 -0.4636 -1.7046
 4383TIP3   OH213154   4.938   3.555   4.215  0.3313 -0.2401  0.2333
 4383TIP3    H113155   5.005   3.555   4.283  0.0539  1.9635  0.5887
 4383TIP3    H213156   4.855   3.558   4.264 -0.0241 -1.7718 -0.2142
 4384TIP3   OH213157   0.468   1.774   4.047  0.2533 -0.5108  0.1871
 4384TIP3    H113158   0.499   1.777   3.956  0.2791  0.1279  0.2191
 4384TIP3    H213159   0.517   1.701   4.086 -0.6129 -1.5826 -0.6272
 4385TIP3   OH213160   3.252   5.430   5.018 -0.4573 -0.2961 -0.6205
 4385TIP3    H113161   3.183   5.367   4.997 -1.2286  0.3056  0.0021
 4385TIP3    H213162   3.330   5.397   4.973 -0.8886 -1.5677 -0.4918
 4386TIP3   OH213163   4.200   4.956   4.397  0.0879 -0.4039  0.2897
 4386TIP3    H113164   4.171   4.958   4.306  0.3287  1.4923  0.2221
 4386TIP3    H213165   4.284   5.002   4.397  0.1438 -0.4694  1.4477
 4387TIP3   OH213166   6.028   1.934   3.912 -0.5120  0.3975  0.1892
 4387TIP3    H113167   5.936   1.938   3.940 -0.7541  1.6698 -0.7069
 4387TIP3    H213168   6.038   2.009   3.853  1.7316  1.7139  2.0790
 4388TIP3   OH213169   5.237   3.300   0.400  0.0773  0.9304  0.5583
 4388TIP3    H113170   5.171   3.369   0.407 -0.1018  0.8502 -0.2148
 4388TIP3    H213171   5.195   3.222   0.434  0.0056  1.0244  0.6858
 4389TIP3   OH213172   5.812   3.673   3.253 -0.3455  0.0150 -0.0992
 4389TIP3    H113173   5.751   3.613   3.211 -0.4708 -0.4071  0.6652
 4389TIP3    H213174   5.818   3.642   3.344 -2.7228  2.7880  1.2112
 4390TIP3   OH213175   6.355   2.670   1.926 -0.0067 -0.0382 -0.3768
 4390TIP3    H113176   6.364   2.664   1.831 -0.7672 -2.9228 -0.3762
 4390TIP3    H213177   6.270   2.631   1.944 -0.8415  2.3948  1.3927
 4391TIP3   OH213178   4.345   4.299   3.702 -0.3455  0.5471  0.0504
 4391TIP3    H113179   4.262   4.340   3.676 -0.9608  1.9848  3.6925
 4391TIP3    H213180   4.411   4.363   3.678 -0.1430 -0.6327 -2.9339
 4392TIP3   OH213181   1.608   5.590   2.678  0.0140  0.0215  0.4281
 4392TIP3    H113182   1.625   5.635   2.761  0.7336  1.0775 -0.2509
 4392TIP3    H213183   1.544   5.646   2.634 -0.5666 -0.6748  0.3889
 4393TIP3   OH213184   5.696   2.418   4.952 -0.7757 -0.0937  0.8785
 4393TIP3    H113185   5.638   2.343   4.959  0.5873 -1.3542 -0.6410
 4393TIP3    H213186   5.738   2.424   5.038  0.5394 -2.3672  0.4781
 4394TIP3   OH213187   6.282   1.627   4.321  0.4907 -0.2525  0.0974
 4394TIP3    H113188   6.316   1.542   4.294  2.1771  0.7342 -1.1352
 4394TIP3    H213189   6.255   1.669   4.239  1.0068  0.9188  0.5035
 4395TIP3   OH213190   2.920   1.329   2.896  0.1793  0.4282  0.3735
 4395TIP3    H113191   2.905   1.423   2.884  0.6302  0.3580 -0.8885
 4395TIP3    H213192   2.843   1.287   2.857  0.2927  0.2526  0.3392
 4396TIP3   OH213193   4.164   2.057   3.561 -0.5156 -0.4113 -0.0211
 4396TIP3    H113194   4.160   2.106   3.644 -0.4345 -0.9826  0.3197
 4396TIP3    H213195   4.203   1.973   3.584  0.4401 -0.2024 -0.8238
 4397TIP3   OH213196   2.743   1.269   1.964 -0.4632 -0.3159  0.5654
 4397TIP3    H113197   2.823   1.276   2.016 -0.0283  0.6816 -0.1968
 4397TIP3    H213198   2.693   1.347   1.986 -1.0760 -0.7631  0.7769
 4398TIP3   OH213199   5.598   2.891   4.821  0.1425  0.1986 -0.4748
 4398TIP3    H113200   5.647   2.809   4.831  1.0954  0.9307  1.4857
 4398TIP3    H213201   5.654   2.947   4.768 -0.0273 -0.0440 -0.9138
 4399TIP3   OH213202   5.164   2.301   0.648  0.0006 -0.0985 -0.2797
 4399TIP3    H113203   5.210   2.219   0.626 -1.3277 -0.9087 -0.1169
 4399TIP3    H213204   5.099   2.311   0.579 -0.4070  0.3928  0.1695
 4400TIP3   OH213205   3.988   2.720   3.132  0.0233 -0.0298 -0.5507
 4400TIP3    H113206   4.069   2.727   3.183 -0.7677 -1.2481  0.9696
 4400TIP3    H213207   3.984   2.801   3.081  1.6956  0.4839  0.0800
 4401TIP3   OH213208   5.130   4.704   0.371 -0.2702 -0.0445  0.3691
 4401TIP3    H113209   5.079   4.678   0.295 -1.4176  1.2979  0.6521
 4401TIP3    H213210   5.093   4.788   0.398  0.6388 -0.1021  1.9267
 4402TIP3   OH213211   4.161   4.848   3.229  0.0696  0.4263  0.0959
 4402TIP3    H113212   4.113   4.877   3.306  1.9658 -0.0068  1.4861
 4402TIP3    H213213   4.106   4.876   3.155 -2.8890 -1.0659  1.5633
 4403TIP3   OH213214   1.418   2.332   4.842  0.0692  0.2397 -0.6042
 4403TIP3    H113215   1.338   2.331   4.791 -0.7347 -0.2764  0.6139
 4403TIP3    H213216   1.450   2.422   4.836 -1.4235  0.8494  0.1001
 4404TIP3   OH213217   5.997   2.599   1.691  0.2664 -0.3955  0.3270
 4404TIP3    H113218   5.910   2.634   1.671  0.2107  0.3017  1.6634
 4404TIP3    H213219   6.055   2.641   1.628 -0.2146 -0.0360  0.1178
 4405TIP3   OH213220   2.266   0.676   0.490  0.1101  0.4682  0.5784
 4405TIP3    H113221   2.179   0.637   0.500 -0.7116  1.9529 -0.3802
 4405TIP3    H213222   2.324   0.618   0.539 -1.0002 -2.0135 -0.8253
 4406TIP3   OH213223   3.661   0.303   4.689  0.2232 -0.1447 -0.0809
 4406TIP3    H113224   3.608   0.226   4.672  0.0410  0.1016 -0.6382
 4406TIP3    H213225   3.723   0.307   4.616  0.0207  0.4177 -0.2245
 4407TIP3   OH213226   4.759   1.719   1.111 -0.0538  0.0671 -0.1752
 4407TIP3    H113227   4.764   1.687   1.021  3.2498 -0.8148  0.1919
 4407TIP3    H213228   4.711   1.651   1.158 -0.9709  0.0791 -1.0548
 4408TIP3   OH213229   5.989   0.762   3.465 -0.5130  0.6627 -0.2913
 4408TIP3    H113230   6.010   0.677   3.428  0.0089 -0.1590  1.7504
 4408TIP3    H213231   6.072   0.810   3.463 -0.9372  1.3890 -1.9898
 4409TIP3   OH213232   1.754   4.945   4.700 -0.0419  0.2321 -0.4242
 4409TIP3    H113233   1.838   4.984   4.673  1.8332 -1.3173  2.6537
 4409TIP3    H213234   1.761   4.853   4.672 -0.4568 -0.0258  0.3019
 4410TIP3   OH213235   3.153   2.249   2.591 -0.1980  0.2863 -0.0336
 4410TIP3    H113236   3.191   2.336   2.585  0.8249 -0.2262 -1.5579
 4410TIP3    H213237   3.113   2.246   2.678  0.3188  2.0283  0.2953
 4411TIP3   OH213238   4.950   4.919   0.421 -0.4615  0.3492  0.6177
 4411TIP3    H113239   4.914   5.001   0.453 -2.3723 -0.1952  0.0268
 4411TIP3    H213240   4.956   4.863   0.499  1.0979  1.1006  1.0648
 4412TIP3   OH213241   2.081   0.193   4.598 -0.3736  0.0175  0.0124
 4412TIP3    H113242   2.098   0.260   4.531 -0.3097  0.9567  0.9334
 4412TIP3    H213243   2.025   0.129   4.555 -1.1238  1.0948 -0.6541
 4413TIP3   OH213244   1.677   5.601   4.880  0.2179 -0.4301 -0.1864
 4413TIP3    H113245   1.685   5.573   4.971  1.4838 -1.5684 -0.6170
 4413TIP3    H213246   1.765   5.631   4.856 -0.0141 -0.4859 -1.1419
 4414TIP3   OH213247   1.158   4.691   1.112  0.0138 -0.0707 -0.2091
 4414TIP3    H113248   1.191   4.700   1.201  0.8597  1.8158 -0.6674
 4414TIP3    H213249   1.099   4.615   1.116 -0.1964  0.1392  2.0013
 4415TIP3   OH213250   1.589   5.389   0.265 -0.1265  0.3340 -0.2396
 4415TIP3    H113251   1.658   5.455   0.255 -0.0234  0.1249 -0.9451
 4415TIP3    H213252   1.634   5.312   0.298  0.0094  0.1552 -0.8274
 4416TIP3   OH213253   4.380   5.449   2.505  0.5225 -0.3432 -0.4223
 4416TIP3    H113254   4.346   5.512   2.441 -0.0498 -1.3063 -1.0949
 4416TIP3    H213255   4.467   5.482   2.527 -0.0012  1.0118 -0.2860
 4417TIP3   OH213256   4.957   1.956   4.215 -0.4371  0.4175 -0.3572
 4417TIP3    H113257   4.971   2.034   4.162 -1.0156  1.2815  0.7120
 4417TIP3    H213258   5.024   1.894   4.185  0.7439  1.7021 -0.5111
 4418TIP3   OH213259   0.761   4.876   4.168  0.0426 -0.6524  0.1954
 4418TIP3    H113260   0.699   4.926   4.220  0.1835 -0.1556 -0.1080
 4418TIP3    H213261   0.754   4.913   4.080  1.9972  0.6165  0.4981
 4419TIP3   OH213262   3.604   0.110   2.158 -0.0381 -0.0086 -0.6621
 4419TIP3    H113263   3.560   0.128   2.240  0.4910 -0.2241 -0.3270
 4419TIP3    H213264   3.547   0.147   2.091  0.1151  1.2731 -0.1138
 4420TIP3   OH213265   4.366   1.226   4.838  0.2362  0.2452  0.2706
 4420TIP3    H113266   4.449   1.178   4.840 -0.6032 -1.2771  0.7884
 4420TIP3    H213267   4.366   1.278   4.919  1.5898  1.9676 -0.7717
 4421TIP3   OH213268   4.290   3.886   4.163  0.2682  0.7155  0.0778
 4421TIP3    H113269   4.235   3.885   4.241  0.1650  0.8267  0.0086
 4421TIP3    H213270   4.268   3.805   4.116 -1.2531  1.6297 -0.9108
 4422TIP3   OH213271   6.201   5.337   4.645 -0.0047  0.0585 -0.1264
 4422TIP3    H113272   6.228   5.403   4.581 -1.3394  1.2171  0.4555
 4422TIP3    H213273   6.160   5.387   4.715 -0.3702 -1.3437  0.6945
 4423TIP3   OH213274   5.146   4.341   2.210 -0.3817  0.2599  0.0224
 4423TIP3    H113275   5.149   4.281   2.135 -2.0562 -0.6688  0.6459
 4423TIP3    H213276   5.204   4.300   2.275  2.2652  1.8121 -1.1779
 4424TIP3   OH213277   0.772   2.191   2.827  0.3722 -0.4359 -0.0576
 4424TIP3    H113278   0.736   2.128   2.889  0.4813  0.5539  1.0458
 4424TIP3    H213279   0.866   2.188   2.842  0.4285 -0.4340 -0.4159
 4425TIP3   OH213280   0.692   4.091   2.911  0.0703 -0.7953 -0.0432
 4425TIP3    H113281   0.768   4.054   2.956  1.8092  0.0447 -2.0808
 4425TIP3    H213282   0.625   4.023   2.916  0.3219 -0.9247  3.2479
 4426TIP3   OH213283   2.277   1.581   3.384 -0.1217  0.1363  0.4720
 4426TIP3    H113284   2.305   1.501   3.428 -0.7377 -0.1417  0.3629
 4426TIP3    H213285   2.357   1.616   3.346 -0.0508 -1.1415 -0.6414
 4427TIP3   OH213286   0.486   5.845   4.454 -0.3438  0.2652 -1.0909
 4427TIP3    H113287   0.570   5.802   4.470 -0.5184  0.0009 -0.8706
 4427TIP3    H213288   0.494   5.931   4.495 -0.2775  0.1354 -0.8314
 4428TIP3   OH213289   0.553   3.901   3.931 -0.0634  0.1312 -0.4134
 4428TIP3    H113290   0.473   3.868   3.971 -0.3413  0.5053 -0.6463
 4428TIP3    H213291   0.554   3.994   3.953  0.3530  0.1087 -0.3379
 4429TIP3   OH213292   4.994   0.507   1.491  0.2606 -0.1062 -0.2394
 4429TIP3    H113293   4.959   0.436   1.437 -0.3872 -0.7181  0.9466
 4429TIP3    H213294   4.917   0.548   1.529  0.7212 -0.1080  0.7331
 4430TIP3   OH213295   0.235   1.438   0.546  1.0226 -0.1350 -0.2051
 4430TIP3    H113296   0.235   1.524   0.504  0.2947 -0.3389 -0.6420
 4430TIP3    H213297   0.144   1.409   0.541  1.4515 -1.4002 -1.0428
 4431TIP3   OH213298   6.048   3.622   4.655 -0.5270 -0.6510  0.1537
 4431TIP3    H113299   5.964   3.601   4.698 -0.3989  0.5296  1.0195
 4431TIP3    H213300   6.037   3.711   4.624 -0.2299 -1.1300 -1.3882
 4432TIP3   OH213301   6.177   1.565   3.303  0.3730  0.2603 -0.5919
 4432TIP3    H113302   6.098   1.524   3.267 -0.1062  1.7096 -1.2740
 4432TIP3    H213303   6.239   1.492   3.314 -0.4883 -0.6655 -1.5964
 4433TIP3   OH213304   2.591   5.420  -0.015  0.8268 -0.3229  0.3414
 4433TIP3    H113305   2.662   5.414   0.049  1.4275  0.4787 -0.2182
 4433TIP3    H213306   2.512   5.434   0.037  1.4583  1.4828  0.8948
 4434TIP3   OH213307   1.810   1.673   3.053 -0.1285  0.5513  0.1725
 4434TIP3    H113308   1.788   1.590   3.096 -0.4044 -0.7681 -2.3645
 4434TIP3    H213309   1.906   1.675   3.052 -0.0622  1.4243  2.2136
 4435TIP3   OH213310   5.341   3.923   4.977 -0.0659 -0.0586 -0.1516
 4435TIP3    H113311   5.381   3.873   5.048 -2.6939 -0.8136  0.9497
 4435TIP3    H213312   5.335   4.012   5.012 -0.1116 -0.1310  0.0288
 4436TIP3   OH213313   0.566   3.058   2.051  0.2359  0.0696  0.0435
 4436TIP3    H113314   0.614   2.991   2.099 -0.4426 -1.2609 -1.0458
 4436TIP3    H213315   0.588   3.041   1.959  1.1931  2.2840 -0.2014
 4437TIP3   OH213316   3.967   4.413   4.336  0.3177 -0.1321  0.3481
 4437TIP3    H113317   4.026   4.369   4.275 -0.7884 -0.5808 -0.4319
 4437TIP3    H213318   3.921   4.342   4.380  2.2326  0.1125  2.9530
 4438TIP3   OH213319   5.900   3.030   1.910 -0.4920  0.2197 -0.1690
 4438TIP3    H113320   5.926   2.951   1.959  1.0509  0.4281 -0.6017
 4438TIP3    H213321   5.967   3.095   1.933  0.0893  0.4269 -2.2556
 4439TIP3   OH213322   0.663   3.307   4.382  0.4046 -0.2675 -0.7954
 4439TIP3    H113323   0.745   3.259   4.391 -0.3887 -1.5691 -0.1070
 4439TIP3    H213324   0.625   3.276   4.300 -0.0294 -0.7105 -0.4348
 4440TIP3   OH213325   0.078   2.227   1.529  0.4777 -0.1958 -0.2760
 4440TIP3    H113326   0.165   2.231   1.490  0.7944  1.4117  0.5044
 4440TIP3    H213327   0.026   2.289   1.479  0.9044  1.9504  1.7553
 4441TIP3   OH213328   0.820   4.377   0.254  0.8966  0.3692 -0.3396
 4441TIP3    H113329   0.866   4.461   0.257 -0.1244  0.9907 -1.3971
 4441TIP3    H213330   0.887   4.315   0.224  1.3885  0.9974 -0.5696
 4442TIP3   OH213331   1.920   2.953   2.704 -0.1443  0.2096  0.5492
 4442TIP3    H113332   1.999   2.901   2.718 -0.6433 -0.9824 -0.8764
 4442TIP3    H213333   1.946   3.043   2.728  1.8732 -0.0121 -0.6295
 4443TIP3   OH213334   2.812   5.888   3.351 -0.8651 -0.0306  0.2170
 4443TIP3    H113335   2.841   5.868   3.440 -2.1062 -0.4652  0.5504
 4443TIP3    H213336   2.862   5.828   3.296  0.9119  1.1605  0.4476
 4444TIP3   OH213337   0.809   4.603   0.034  0.0071  0.5280  0.1384
 4444TIP3    H113338   0.852   4.668  -0.021  2.0052 -0.5893  0.2808
 4444TIP3    H213339   0.812   4.640   0.122  2.0617 -0.1103  0.3919
 4445TIP3   OH213340   3.520   4.847   3.888 -0.2921  0.2821 -0.3205
 4445TIP3    H113341   3.487   4.759   3.872 -1.2928  0.6207 -0.1831
 4445TIP3    H213342   3.613   4.834   3.908 -0.4450 -0.7485 -0.1978
 4446TIP3   OH213343   4.337   2.380   1.362  0.4618  0.3589 -0.2658
 4446TIP3    H113344   4.333   2.456   1.421 -0.1626  0.3276 -0.2667
 4446TIP3    H213345   4.387   2.315   1.410 -1.2788 -0.2059  0.8500
 4447TIP3   OH213346   5.331   4.594   3.942 -0.6410 -0.3976  0.4270
 4447TIP3    H113347   5.375   4.533   3.882 -0.8417 -0.9198  0.7957
 4447TIP3    H213348   5.365   4.680   3.919  0.5245 -0.7806  0.6507
 4448TIP3   OH213349   5.938   2.822   2.093  0.5408  0.2807 -0.3180
 4448TIP3    H113350   5.966   2.883   2.161  0.7530 -1.7728  1.5433
 4448TIP3    H213351   5.860   2.779   2.129 -0.2685  0.2162 -2.0408
 4449TIP3   OH213352   2.951   5.782   0.220 -0.0697  0.0158  0.3861
 4449TIP3    H113353   3.045   5.785   0.235  0.2788  1.5598 -1.7596
 4449TIP3    H213354   2.936   5.695   0.183  0.5193 -0.1940  0.6236
 4450TIP3   OH213355   1.572   1.323   2.785 -0.4365  0.1412 -0.2853
 4450TIP3    H113356   1.504   1.389   2.800  0.7551  1.2792  0.4354
 4450TIP3    H213357   1.587   1.285   2.872  0.8161  0.9284 -0.1308
 4451TIP3   OH213358   1.598   5.797   1.091  0.2437  0.5986  0.2649
 4451TIP3    H113359   1.685   5.756   1.091 -0.1450 -0.2419 -0.2816
 4451TIP3    H213360   1.609   5.875   1.146  0.6681 -0.8974  2.4110
 4452TIP3   OH213361   2.471   4.610   0.253 -0.6993  0.8846  0.2126
 4452TIP3    H113362   2.483   4.702   0.230 -1.6861  1.1548  0.7244
 4452TIP3    H213363   2.559   4.572   0.249 -0.1102  2.1036  1.0970
 4453TIP3   OH213364   3.667   1.695   5.047  0.2924  0.3269 -0.1464
 4453TIP3    H113365   3.733   1.759   5.019 -0.9136  1.9201  0.4665
 4453TIP3    H213366   3.591   1.714   4.993 -1.2619  1.8527  2.3515
 4454TIP3   OH213367   4.899   2.068   1.542  0.4219 -0.0599 -0.1866
 4454TIP3    H113368   4.901   2.151   1.495 -0.8996  0.7487  1.1114
 4454TIP3    H213369   4.967   2.015   1.500  3.5730  2.7377  0.9210
 4455TIP3   OH213370   4.817   5.810   3.772  0.4969 -0.2510  0.3810
 4455TIP3    H113371   4.890   5.781   3.718  0.7950  0.9296  0.1178
 4455TIP3    H213372   4.756   5.851   3.709  1.8442  3.1745  1.0753
 4456TIP3   OH213373   6.285   4.154   0.968 -0.2275 -0.1665  0.0719
 4456TIP3    H113374   6.337   4.191   0.897 -2.8324 -1.8730 -2.9724
 4456TIP3    H213375   6.202   4.201   0.963 -1.6214 -2.5391 -0.2548
 4457TIP3   OH213376   4.898   1.853   3.076 -0.3509  0.0122 -0.0974
 4457TIP3    H113377   4.969   1.802   3.115  0.9168  1.6673 -0.1767
 4457TIP3    H213378   4.819   1.818   3.118  0.6315 -0.7942  1.1691
 4458TIP3   OH213379   5.508   5.807   3.114 -0.1403  0.1046 -0.4073
 4458TIP3    H113380   5.427   5.819   3.065  0.0409 -0.7218 -0.9206
 4458TIP3    H213381   5.486   5.745   3.183 -0.3440  1.1164  0.4782
 4459TIP3   OH213382   3.550   1.484   1.438 -0.0163  0.3188 -0.2887
 4459TIP3    H113383   3.515   1.417   1.379 -1.1067 -0.2241  0.9121
 4459TIP3    H213384   3.505   1.564   1.411 -2.0673 -0.3052  1.0147
 4460TIP3   OH213385   5.229   1.453   2.483 -0.1286  0.0093 -0.3608
 4460TIP3    H113386   5.184   1.536   2.495  0.6639  0.2130  1.5734
 4460TIP3    H213387   5.192   1.396   2.551 -0.2397 -1.0458 -1.2778
 4461TIP3   OH213388   0.606   0.770   2.677  0.1185  0.4084 -0.1993
 4461TIP3    H113389   0.659   0.703   2.632 -0.4265 -0.5390  0.5390
 4461TIP3    H213390   0.671   0.828   2.718  0.6258 -1.3267  1.5655
 4462TIP3   OH213391   0.963   5.664   3.947  0.0184 -0.1388  0.2214
 4462TIP3    H113392   1.030   5.599   3.968 -0.1769 -0.5223 -0.3275
 4462TIP3    H213393   0.934   5.697   4.032  0.7635 -0.1050  0.4729
 4463TIP3   OH213394   1.551   4.991   0.678  0.5719  0.1114  0.1476
 4463TIP3    H113395   1.467   5.013   0.718  0.0629 -0.4466 -0.5893
 4463TIP3    H213396   1.606   4.965   0.752  0.6555  2.1103  0.8244
 4464TIP3   OH213397   6.207   3.510   5.068  0.2996  0.2251  0.2859
 4464TIP3    H113398   6.131   3.475   5.022 -0.1532  1.1731  0.2770
 4464TIP3    H213399   6.246   3.435   5.111  0.6390 -0.6720 -1.4893
 4465TIP3   OH213400   0.239   3.344   1.622  0.3027  0.9712 -0.3157
 4465TIP3    H113401   0.287   3.271   1.582  1.6088  0.4452  2.0066
 4465TIP3    H213402   0.176   3.302   1.680 -0.2682  1.7122 -0.3899
 4466TIP3   OH213403   2.843   5.459   3.825  0.0064 -0.0558 -0.2000
 4466TIP3    H113404   2.937   5.463   3.804  0.1217 -1.1997  0.0316
 4466TIP3    H213405   2.806   5.406   3.755 -0.2074 -0.8536  0.4964
 4467TIP3   OH213406   1.987   1.846   4.135 -0.1078 -0.2014 -0.1976
 4467TIP3    H113407   1.963   1.935   4.109 -0.0702 -0.0595  0.2469
 4467TIP3    H213408   1.916   1.792   4.101  0.5992 -0.2029 -1.7793
 4468TIP3   OH213409   3.186   4.218   4.040 -0.4464  0.6181  0.0105
 4468TIP3    H113410   3.152   4.206   4.129  1.7271 -0.8583  0.7127
 4468TIP3    H213411   3.271   4.259   4.052 -0.6926  1.6694 -1.5281
 4469TIP3   OH213412   6.005   1.202   3.179 -0.1380  0.6163 -0.1004
 4469TIP3    H113413   6.005   1.297   3.194  1.0583  0.3959  1.4514
 4469TIP3    H213414   6.020   1.164   3.265  1.3482 -0.9388 -0.9856
 4470TIP3   OH213415   0.131   4.739   4.758  0.2053 -0.4224 -0.0074
 4470TIP3    H113416   0.109   4.764   4.848 -0.0544 -1.5703  0.2566
 4470TIP3    H213417   0.147   4.645   4.762  1.0268 -0.3373 -1.0076
 4471TIP3   OH213418   4.337   3.833   1.106 -0.2439  0.0812 -0.2838
 4471TIP3    H113419   4.358   3.792   1.022 -3.4975  2.3291 -2.3878
 4471TIP3    H213420   4.289   3.765   1.154 -2.1679  0.0765 -2.0985
 4472TIP3   OH213421   1.804   4.418   0.042  0.0324  0.5312  0.1722
 4472TIP3    H113422   1.808   4.511   0.064  1.2995  0.2376  1.3161
 4472TIP3    H213423   1.877   4.379   0.089  0.1213 -0.9002 -1.0685
 4473TIP3   OH213424   4.857   3.884   0.935 -0.2967  0.2424 -0.0738
 4473TIP3    H113425   4.765   3.902   0.915 -0.5475 -0.1256  0.6963
 4473TIP3    H213426   4.860   3.790   0.954  0.6923 -0.2558 -2.3911
 4474TIP3   OH213427   1.615   2.129   4.099 -0.3607  0.0869  0.5820
 4474TIP3    H113428   1.705   2.146   4.073 -0.8887  0.1321 -1.3265
 4474TIP3    H213429   1.616   2.039   4.131  0.1551 -0.3069 -0.5095
 4475TIP3   OH213430   0.351   5.288   4.570  0.9088  0.0803  0.4253
 4475TIP3    H113431   0.271   5.255   4.611 -0.1505  1.3695 -0.5338
 4475TIP3    H213432   0.358   5.378   4.600  1.7175  0.1471  0.0553
 4476TIP3   OH213433   0.205   2.136   4.412 -0.1701 -0.2927 -0.1979
 4476TIP3    H113434   0.203   2.231   4.418  1.0492 -0.2707  0.0231
 4476TIP3    H213435   0.232   2.107   4.499 -0.7862 -0.8635 -0.1843
 4477TIP3   OH213436   5.858   5.644   3.804  0.6125 -0.3233  0.4175
 4477TIP3    H113437   5.778   5.688   3.833  1.1700  1.0049  0.0194
 4477TIP3    H213438   5.866   5.569   3.862 -0.4941 -0.0363  0.9836
 4478TIP3   OH213439   3.058   3.939   0.219 -0.2705 -0.1647 -0.4201
 4478TIP3    H113440   3.090   3.936   0.129  2.0444  1.7864  0.2413
 4478TIP3    H213441   3.021   4.026   0.229  0.0462 -0.1345  0.6682
 4479TIP3   OH213442   0.957   0.501   0.619  0.6609  0.1788  0.1869
 4479TIP3    H113443   0.945   0.487   0.525  1.5215 -1.4350  0.2868
 4479TIP3    H213444   0.942   0.415   0.658  0.6824  0.7444  1.4992
 4480TIP3   OH213445   5.413   4.909   2.642  0.1733 -0.7202 -0.7562
 4480TIP3    H113446   5.337   4.864   2.606  0.7336 -2.6074  0.3211
 4480TIP3    H213447   5.383   4.944   2.726  0.2462 -0.6345 -0.7651
 4481TIP3   OH213448   4.890   4.680   3.265 -0.4947 -0.4134 -0.4207
 4481TIP3    H113449   4.936   4.755   3.228 -0.2622 -0.8148 -0.9680
 4481TIP3    H213450   4.959   4.619   3.291 -0.6856 -1.3469 -1.9454
 4482TIP3   OH213451   4.526   5.944   1.336  0.2484  0.0653  0.3822
 4482TIP3    H113452   4.453   5.957   1.397  0.8030 -0.4211  1.1752
 4482TIP3    H213453   4.545   5.850   1.342 -0.2534 -0.1686 -1.2296
 4483TIP3   OH213454   0.856   2.690   0.931 -0.0040 -0.6344  0.1367
 4483TIP3    H113455   0.813   2.774   0.919 -1.2362 -1.2076  0.3429
 4483TIP3    H213456   0.942   2.712   0.966 -0.2241  0.5447 -0.0162
 4484TIP3   OH213457   3.145   3.701   1.278 -0.4920 -0.3002  0.1407
 4484TIP3    H113458   3.124   3.618   1.236  0.1138 -0.6183  0.4623
 4484TIP3    H213459   3.061   3.731   1.314 -0.7169 -0.7535  0.0029
 4485TIP3   OH213460   0.636   4.330   4.694 -0.1964  0.0730  0.4423
 4485TIP3    H113461   0.714   4.281   4.719 -0.3423  0.0414  0.8351
 4485TIP3    H213462   0.603   4.367   4.776  0.4032  1.5646  0.0392
 4486TIP3   OH213463   1.677   3.477   5.024  0.1247  0.2487 -0.0695
 4486TIP3    H113464   1.631   3.396   5.000 -0.3560  0.5097 -0.0427
 4486TIP3    H213465   1.610   3.530   5.068  1.0142 -0.3182  2.1058
 4487TIP3   OH213466   5.117   2.548   0.386  0.0602 -0.3188 -0.2309
 4487TIP3    H113467   5.062   2.605   0.440  0.3290 -0.0206 -0.2695
 4487TIP3    H213468   5.119   2.465   0.434 -0.0054 -0.1732  0.0296
 4488TIP3   OH213469   2.889   4.650   2.904  0.2541 -0.2455 -0.8978
 4488TIP3    H113470   2.942   4.571   2.893 -0.5452 -0.9514  0.1482
 4488TIP3    H213471   2.805   4.618   2.936 -0.3006  0.9893 -1.0718
 4489TIP3   OH213472   2.114   5.714   1.352  0.2863  0.1646  0.9949
 4489TIP3    H113473   2.156   5.641   1.397  0.5949  0.9428  2.0366
 4489TIP3    H213474   2.022   5.707   1.376  0.0083 -0.8273 -0.2773
 4490TIP3   OH213475   1.274   3.372   5.005  0.6040  0.1990  0.3739
 4490TIP3    H113476   1.234   3.290   5.034 -1.4863  1.2920  0.7901
 4490TIP3    H213477   1.282   3.363   4.910 -0.9995  0.0625  0.2347
 4491TIP3   OH213478   5.975   2.394   2.742  0.3429 -0.0448 -0.0917
 4491TIP3    H113479   5.879   2.396   2.737  0.3648 -0.1805 -0.6300
 4491TIP3    H213480   5.999   2.479   2.778 -0.0128 -0.2623  0.6828
 4492TIP3   OH213481   2.157   4.157   2.564 -0.0138 -0.1372  0.4276
 4492TIP3    H113482   2.124   4.131   2.478  0.4902 -2.9225  0.9724
 4492TIP3    H213483   2.152   4.077   2.617  1.7501  0.9164  2.3437
 4493TIP3   OH213484   0.411   0.402   1.900  0.4329  0.5905  0.0540
 4493TIP3    H113485   0.390   0.358   1.818  0.4277 -1.0134  0.8899
 4493TIP3    H213486   0.487   0.355   1.935 -0.3241  0.4322  1.5721
 4494TIP3   OH213487   1.364   5.221   0.900  0.7423 -0.0496  0.0579
 4494TIP3    H113488   1.299   5.199   0.966  1.3525  1.0705  1.0881
 4494TIP3    H213489   1.448   5.198   0.940  1.0387 -0.8856 -0.9936
 4495TIP3   OH213490   5.780   3.486   0.797  0.2001  0.1944 -0.5401
 4495TIP3    H113491   5.703   3.450   0.753  0.8106  1.1224 -2.4941
 4495TIP3    H213492   5.851   3.428   0.772  0.7652  1.3678 -1.7993
 4496TIP3   OH213493   3.327   4.974   3.324  0.0841 -0.4927  0.6154
 4496TIP3    H113494   3.367   5.003   3.242  0.3502  1.3860  1.3721
 4496TIP3    H213495   3.377   5.018   3.392 -0.7819 -1.2217  1.7637
 4497TIP3   OH213496   3.071   4.656   0.228  0.3124 -0.0546  0.4803
 4497TIP3    H113497   3.033   4.718   0.166 -2.7817 -1.6320  0.5673
 4497TIP3    H213498   3.121   4.710   0.289 -0.7280  2.1196 -0.4846
 4498TIP3   OH213499   5.866   5.346   4.430  0.3579  0.2299  0.1481
 4498TIP3    H113500   5.788   5.393   4.399 -0.5032 -2.2459 -1.7726
 4498TIP3    H213501   5.938   5.382   4.378 -0.2975 -0.5416 -1.3485
 4499TIP3   OH213502   1.257   5.015   1.886  0.1828  0.4693 -0.1500
 4499TIP3    H113503   1.344   4.988   1.913 -0.3884  0.7031  2.1440
 4499TIP3    H213504   1.200   4.990   1.959 -1.5236  1.1504 -1.1830
 4500TIP3   OH213505   0.495   2.720   0.227 -0.7792  0.4020 -0.3179
 4500TIP3    H113506   0.520   2.812   0.226  1.1942 -0.0943 -1.0038
 4500TIP3    H213507   0.516   2.688   0.139 -0.2107 -0.9959  0.2954
 4501TIP3   OH213508   1.438   5.954   3.228 -0.2050  0.0501  0.2121
 4501TIP3    H113509   1.456   5.972   3.136 -1.5728 -2.7312 -0.6990
 4501TIP3    H213510   1.343   5.962   3.236  0.0510  2.4900  2.0087
 4502TIP3   OH213511   5.486   3.451   0.778  0.1094 -0.2018 -0.1506
 4502TIP3    H113512   5.422   3.401   0.828  0.0420 -1.5397 -1.5286
 4502TIP3    H213513   5.442   3.472   0.696  1.4411 -1.2104 -1.1568
 4503TIP3   OH213514   4.369   5.767   3.706 -0.1284  0.0877 -0.8102
 4503TIP3    H113515   4.390   5.714   3.629  0.9943 -0.3310 -0.2414
 4503TIP3    H213516   4.284   5.807   3.685 -0.4779 -1.0556 -1.7054
 4504TIP3   OH213517   5.206   4.102   3.096  0.1159 -0.5009 -0.0102
 4504TIP3    H113518   5.171   4.173   3.151  1.5221  0.8852 -0.8164
 4504TIP3    H213519   5.193   4.023   3.148 -1.6859  0.2890  0.8560
 4505TIP3   OH213520   0.665   1.636   4.297 -0.2680 -0.4484  0.1263
 4505TIP3    H113521   0.699   1.630   4.208 -0.8655 -0.4835 -0.0971
 4505TIP3    H213522   0.726   1.696   4.341 -0.5858  0.4320 -0.5954
 4506TIP3   OH213523   4.956   5.722   4.180  0.4101 -0.4684 -0.0089
 4506TIP3    H113524   4.988   5.804   4.143 -0.4624  0.1048  0.4751
 4506TIP3    H213525   5.003   5.712   4.263 -0.9006  0.5978  0.9175
 4507TIP3   OH213526   5.891   5.003   5.102 -0.5054 -0.5093 -0.1684
 4507TIP3    H113527   5.880   4.928   5.161 -1.1037 -0.1200  0.2268
 4507TIP3    H213528   5.898   5.079   5.160 -0.5398 -0.1867 -0.5798
 4508TIP3   OH213529   2.032   0.568   2.401 -0.0498  0.0374  0.4174
 4508TIP3    H113530   1.980   0.613   2.468  1.2657  3.4221 -0.6517
 4508TIP3    H213531   2.123   0.584   2.425  0.4726 -0.7472 -0.8866
 4509TIP3   OH213532   4.667   2.955   4.590  0.1643 -0.2494 -0.9549
 4509TIP3    H113533   4.759   2.980   4.598 -0.2897  1.9300 -1.7470
 4509TIP3    H213534   4.643   2.922   4.676  1.4716 -0.0142 -0.4824
 4510TIP3   OH213535   3.162   4.441   3.176  0.0547 -0.1468  0.5825
 4510TIP3    H113536   3.224   4.382   3.134 -0.3970  0.6163 -1.2748
 4510TIP3    H213537   3.087   4.445   3.116 -1.0821  0.2375  1.9585
 4511TIP3   OH213538   6.040   4.648   5.175 -0.0053 -0.1646 -0.0417
 4511TIP3    H113539   6.013   4.556   5.172  1.0985 -0.4845 -0.7102
 4511TIP3    H213540   5.965   4.693   5.215  0.4826 -1.7103  2.9287
 4512TIP3   OH213541   1.139   5.931   4.176  0.2708 -0.8026  0.5031
 4512TIP3    H113542   1.148   6.025   4.194  0.9407 -1.2109  2.5518
 4512TIP3    H213543   1.062   5.904   4.226  0.8799 -1.5897  1.0435
 4513TIP3   OH213544   3.139   5.892   4.554 -0.2650  0.1953  0.2822
 4513TIP3    H113545   3.158   5.977   4.512 -0.4503  0.4353  0.6777
 4513TIP3    H213546   3.201   5.887   4.627  0.1366 -0.2747 -0.0872
 4514TIP3   OH213547   4.453   4.595   4.938  0.2345 -0.0766  0.0926
 4514TIP3    H113548   4.368   4.626   4.907  1.1331  1.5166 -0.9544
 4514TIP3    H213549   4.432   4.525   4.999 -1.8697  0.9318  0.6324
 4515TIP3   OH213550   5.514   4.730   4.399  0.0792 -0.9792 -0.0518
 4515TIP3    H113551   5.513   4.756   4.491  0.8221  0.6413 -0.4592
 4515TIP3    H213552   5.427   4.695   4.383 -0.3201 -0.5501  1.0770
 4516TIP3   OH213553   1.291   2.864   4.266  0.0501  0.6762  0.0410
 4516TIP3    H113554   1.337   2.875   4.349  0.0169  1.9101 -0.0795
 4516TIP3    H213555   1.226   2.934   4.266 -1.0673 -0.3372 -0.3049
 4517TIP3   OH213556   2.540   3.742   1.611 -0.2353  0.1321  0.2526
 4517TIP3    H113557   2.584   3.822   1.640  0.2417  0.3148 -0.8859
 4517TIP3    H213558   2.588   3.717   1.532 -0.7744 -0.9368  0.2523
 4518TIP3   OH213559   1.024   1.518   2.801  0.1085  0.5610 -0.4991
 4518TIP3    H113560   1.007   1.458   2.874  0.7211  2.5276  1.3627
 4518TIP3    H213561   0.938   1.531   2.761 -0.2640 -0.4741 -0.0930
 4519TIP3   OH213562   5.753   1.717   2.701  0.0979  0.3964 -0.7882
 4519TIP3    H113563   5.719   1.673   2.778  2.5714  2.4659  1.6832
 4519TIP3    H213564   5.684   1.706   2.635 -2.0601 -1.6292  1.5738
 4520TIP3   OH213565   3.296   2.015   4.175 -0.7681 -0.5407 -0.1206
 4520TIP3    H113566   3.331   1.974   4.254  1.2659  0.6812 -0.3218
 4520TIP3    H213567   3.286   2.107   4.197 -1.2158 -0.3696 -0.9747
 4521TIP3   OH213568   2.207   2.867   2.800  0.0796  0.4981  0.1097
 4521TIP3    H113569   2.252   2.928   2.858  0.1896  1.1202 -0.6150
 4521TIP3    H213570   2.192   2.789   2.854 -1.4851  1.7142  1.5583
 4522TIP3   OH213571   2.526   1.123   2.160  0.0641 -0.6807  0.8144
 4522TIP3    H113572   2.471   1.051   2.130  0.3109 -0.9048  0.8995
 4522TIP3    H213573   2.486   1.152   2.241  1.0323 -1.9667  1.7909
 4523TIP3   OH213574   3.440   4.942   2.613  0.7260 -0.3864  0.4945
 4523TIP3    H113575   3.489   4.915   2.690 -0.6238  1.5993  2.1505
 4523TIP3    H213576   3.497   5.003   2.567 -0.1738  2.2443  2.6352
 4524TIP3   OH213577   5.290   3.275   0.055  0.1428 -0.4489 -0.4246
 4524TIP3    H113578   5.341   3.197   0.079  0.8356  0.0921 -0.1311
 4524TIP3    H213579   5.298   3.333   0.131 -0.6037 -0.2009 -0.5301
 4525TIP3   OH213580   0.819   1.803   4.153  0.0548 -0.2360 -0.5729
 4525TIP3    H113581   0.766   1.870   4.110  1.5247  0.1844 -1.8225
 4525TIP3    H213582   0.788   1.721   4.115 -1.3509 -0.2720  0.5373
 4526TIP3   OH213583   1.195   4.153   3.737  0.0299 -0.5235  0.0815
 4526TIP3    H113584   1.178   4.061   3.753 -0.5910 -0.1995  1.4391
 4526TIP3    H213585   1.232   4.185   3.820 -1.2973  0.7929  0.2025
 4527TIP3   OH213586   0.429   3.221   0.987  0.4406  0.0981 -0.0462
 4527TIP3    H113587   0.432   3.301   1.039 -0.9947  0.3925 -0.3712
 4527TIP3    H213588   0.452   3.151   1.048  0.4410  0.6178  0.5549
 4528TIP3   OH213589   5.080   0.212   2.770  0.0983 -0.4917  0.2600
 4528TIP3    H113590   5.012   0.151   2.799  0.9485 -1.3565  0.4780
 4528TIP3    H213591   5.158   0.186   2.818  0.1750  1.6473  1.4006
 4529TIP3   OH213592   0.247   3.125   2.407  0.3342  0.1222  0.3405
 4529TIP3    H113593   0.341   3.122   2.391  0.2433 -0.9339 -0.0828
 4529TIP3    H213594   0.234   3.073   2.486  0.4320  2.8252  2.2496
 4530TIP3   OH213595   4.051   0.437   2.417  0.0163  0.0691 -0.0705
 4530TIP3    H113596   4.105   0.445   2.496  0.5976  0.0536 -0.4688
 4530TIP3    H213597   4.022   0.526   2.399 -0.4195  0.0239  0.3638
 4531TIP3   OH213598   0.799   4.172   4.863 -0.1714  0.8984 -0.3611
 4531TIP3    H113599   0.828   4.205   4.948  1.8165  2.2423 -1.4802
 4531TIP3    H213600   0.828   4.081   4.861  0.8254  1.1980 -0.0251
 4532TIP3   OH213601   1.941   5.351   4.058 -0.5114  0.0668  0.0489
 4532TIP3    H113602   2.036   5.345   4.051 -0.5084  1.5641 -3.3365
 4532TIP3    H213603   1.925   5.387   4.145  2.1038  0.8685  0.2757
 4533TIP3   OH213604   0.172   5.395   3.910 -0.6940  0.4415 -0.2142
 4533TIP3    H113605   0.184   5.312   3.957 -1.4473  0.7129  0.4773
 4533TIP3    H213606   0.169   5.461   3.979  0.2772  1.1069 -0.7811
 4534TIP3   OH213607   5.411   5.935   0.970 -0.4181 -0.1535  0.8627
 4534TIP3    H113608   5.470   5.862   0.988 -0.5820 -0.0343  1.9461
 4534TIP3    H213609   5.437   6.002   1.032  0.3881  1.1247 -0.7701
 4535TIP3   OH213610   2.298   2.771   4.881 -0.4453 -0.2229  0.0921
 4535TIP3    H113611   2.382   2.793   4.841 -0.0370 -0.2052  0.9376
 4535TIP3    H213612   2.273   2.689   4.839 -0.2310  0.0000 -0.4896
 4536TIP3   OH213613   2.378   2.431   0.744 -0.4260 -0.3735  0.0852
 4536TIP3    H113614   2.285   2.408   0.748  0.1529 -2.9401  1.4068
 4536TIP3    H213615   2.406   2.430   0.836  1.0624 -0.3488 -0.3475
 4537TIP3   OH213616   5.560   3.138   0.575 -0.0960  0.2032  0.0528
 4537TIP3    H113617   5.565   3.230   0.551 -1.5432  0.1921 -0.4056
 4537TIP3    H213618   5.593   3.135   0.665 -1.1066  1.3796  0.5017
 4538TIP3   OH213619   5.179   3.689   1.447 -0.5676  0.1796  0.1449
 4538TIP3    H113620   5.210   3.780   1.444 -0.2484  0.1204  1.1480
 4538TIP3    H213621   5.211   3.656   1.531 -1.8827 -0.4374  0.4232
 4539TIP3   OH213622   3.426   2.657   1.445  0.5708  0.3726 -0.2400
 4539TIP3    H113623   3.489   2.720   1.409  2.2335 -0.4216  1.1146
 4539TIP3    H213624   3.366   2.710   1.497  0.1520  1.1486 -1.4996
 4540TIP3   OH213625   2.657   5.016   4.228 -0.3853  0.3096 -0.5160
 4540TIP3    H113626   2.722   5.014   4.158 -0.9333  0.1235 -1.0177
 4540TIP3    H213627   2.634   5.109   4.235 -0.2051  0.3520 -0.4583
 4541TIP3   OH213628   2.478   4.913   0.730  0.2935 -0.4655 -0.2573
 4541TIP3    H113629   2.502   5.005   0.737  1.3819 -0.7413 -0.1528
 4541TIP3    H213630   2.518   4.872   0.806 -1.7462 -0.7352  0.7206
 4542TIP3   OH213631   2.419   3.022   2.952  0.0221  0.4617 -0.1003
 4542TIP3    H113632   2.415   2.986   3.041 -1.1789  1.4297  0.2646
 4542TIP3    H213633   2.512   3.039   2.937  0.2520  0.1845  0.9266
 4543TIP3   OH213634   5.122   0.623   2.956  0.4576 -0.0200  0.8910
 4543TIP3    H113635   5.185   0.575   3.010  2.4006  0.0239 -1.1814
 4543TIP3    H213636   5.164   0.706   2.938 -0.1425 -0.0097 -0.6150
 4544TIP3   OH213637   1.313   0.515   4.672 -0.4446 -0.2043  0.2163
 4544TIP3    H113638   1.331   0.603   4.704 -0.0294  0.1119 -0.8264
 4544TIP3    H213639   1.393   0.466   4.690  0.7016  0.5649 -2.2421
 4545TIP3   OH213640   0.957   3.718   4.506 -0.6854 -0.3756  0.1595
 4545TIP3    H113641   1.049   3.691   4.505 -0.3911  0.5874  0.0262
 4545TIP3    H213642   0.948   3.769   4.587 -2.1575 -3.8329  2.4292
 4546TIP3   OH213643   4.304   2.616   1.539  0.2857 -0.3042  0.1714
 4546TIP3    H113644   4.264   2.679   1.479  0.6532  0.7805  1.0231
 4546TIP3    H213645   4.325   2.668   1.617 -0.4502 -1.7484  1.3613
 4547TIP3   OH213646   6.177   4.369   2.343  0.3635 -0.0404  0.4397
 4547TIP3    H113647   6.090   4.330   2.353 -0.1773  0.6685 -1.1402
 4547TIP3    H213648   6.171   4.452   2.391 -0.5450  0.9599 -1.2798
 4548TIP3   OH213649   4.189   2.598   4.308  0.0638  0.8529  0.3391
 4548TIP3    H113650   4.166   2.526   4.368 -1.0115  1.4426  0.6694
 4548TIP3    H213651   4.273   2.572   4.271 -0.0315 -0.3123  0.8725
 4549TIP3   OH213652   3.974   3.260   0.631 -0.2264  0.1759  0.3693
 4549TIP3    H113653   4.050   3.211   0.664 -1.1084  1.6555  5.3679
 4549TIP3    H213654   3.968   3.337   0.688 -3.6600  1.8711 -1.9214
 4550TIP3   OH213655   1.491   2.230   1.584 -0.2405  0.0234 -0.0108
 4550TIP3    H113656   1.536   2.292   1.642 -0.6686  0.7611 -0.4600
 4550TIP3    H213657   1.408   2.213   1.628 -0.1696 -0.1609  0.0562
 4551TIP3   OH213658   0.514   0.420   0.595  0.1192  0.3044 -0.1650
 4551TIP3    H113659   0.538   0.424   0.502 -0.4801  0.9942 -0.3062
 4551TIP3    H213660   0.443   0.357   0.599  0.8553 -0.5278  0.0004
 4552TIP3   OH213661   6.037   2.553   4.583 -0.7561  0.4186 -0.6710
 4552TIP3    H113662   6.114   2.506   4.551 -0.9226  0.7637 -1.6178
 4552TIP3    H213663   5.982   2.486   4.622 -0.4341  0.0150 -0.9045
 4553TIP3   OH213664   5.902   0.305   0.147 -0.2223 -0.1481  0.0892
 4553TIP3    H113665   5.978   0.299   0.205  0.2667 -0.0109 -0.5340
 4553TIP3    H213666   5.882   0.399   0.142 -0.1714 -0.1461 -0.0854
 4554TIP3   OH213667   4.190   4.684   4.924 -0.2359  0.3152  0.7526
 4554TIP3    H113668   4.115   4.654   4.873  0.5641  0.0072 -0.2664
 4554TIP3    H213669   4.164   4.771   4.955 -0.2038  1.1483 -1.3915
 4555TIP3   OH213670   0.126   0.682   4.471 -0.5527 -0.2236  0.3787
 4555TIP3    H113671   0.110   0.691   4.565 -0.7730  2.2201  0.1780
 4555TIP3    H213672   0.074   0.606   4.445 -0.1753 -1.1973  2.2745
 4556TIP3   OH213673   6.194   4.613   2.479  0.5030 -0.1776  0.1920
 4556TIP3    H113674   6.225   4.684   2.536 -0.7025  0.7420 -0.2733
 4556TIP3    H213675   6.178   4.655   2.395 -1.1299 -0.7959  0.1665
 4557TIP3   OH213676   4.326   4.779   0.661  0.0975 -0.4687 -0.2924
 4557TIP3    H113677   4.408   4.742   0.692  0.5511  1.1847  0.6357
 4557TIP3    H213678   4.259   4.718   0.691  0.8870 -1.1726  0.0711
 4558TIP3   OH213679   5.547   2.947   0.379 -0.0322 -0.8319 -0.4535
 4558TIP3    H113680   5.529   2.870   0.432 -1.8201  0.2034  0.5777
 4558TIP3    H213681   5.533   3.021   0.439  0.1364  0.3286 -1.7780
 4559TIP3   OH213682   5.368   4.304   0.875 -0.1666  0.5404  0.0029
 4559TIP3    H113683   5.378   4.324   0.968  2.2973  0.1728 -0.1149
 4559TIP3    H213684   5.457   4.303   0.841 -0.9190 -0.5193 -2.1342
 4560TIP3   OH213685   6.074   5.299   2.842  0.1849  0.0510 -0.3367
 4560TIP3    H113686   6.068   5.365   2.911  0.7769  0.2822 -0.5030
 4560TIP3    H213687   6.051   5.217   2.887  1.1194  0.1113  0.2756
 4561TIP3   OH213688   2.550   3.948   3.737  0.3857  0.2577  0.2343
 4561TIP3    H113689   2.610   3.880   3.708 -1.7032 -1.6043  0.0264
 4561TIP3    H213690   2.595   4.030   3.716  3.3824 -0.9875  1.3220
 4562TIP3   OH213691   4.673   3.008   3.807 -0.1414  0.3306 -0.0899
 4562TIP3    H113692   4.680   2.982   3.899  0.2864  2.6617  0.6232
 4562TIP3    H213693   4.689   3.103   3.808  0.3800  0.3413 -2.6457
 4563TIP3   OH213694   1.117   0.600   2.509  0.0239  0.4021 -0.1204
 4563TIP3    H113695   1.175   0.641   2.445 -1.4100  1.6585 -0.6456
 4563TIP3    H213696   1.055   0.668   2.533  1.2617  0.4690  3.6584
 4564TIP3   OH213697   3.428   3.491   0.956  0.2956 -0.2536  0.3993
 4564TIP3    H113698   3.506   3.452   0.916 -0.7749 -1.7943 -0.2860
 4564TIP3    H213699   3.366   3.499   0.884  0.3618  2.6212  0.5524
 4565TIP3   OH213700   2.841   3.279   2.935  0.4835  0.0770 -0.2208
 4565TIP3    H113701   2.881   3.359   2.899  0.7014  0.1741  0.2218
 4565TIP3    H213702   2.840   3.294   3.030  0.1340 -0.2690 -0.1674
 4566TIP3   OH213703   6.126   4.471   4.682  0.3506 -0.3287 -0.5146
 4566TIP3    H113704   6.155   4.522   4.606 -1.4704  1.0615 -0.3726
 4566TIP3    H213705   6.116   4.536   4.752  0.5695 -1.3418  0.4918
 4567TIP3   OH213706   2.835   5.475   3.090 -0.8328  0.0211 -0.4888
 4567TIP3    H113707   2.741   5.479   3.108 -0.6795 -2.9409  1.5198
 4567TIP3    H213708   2.844   5.408   3.023 -0.2404  2.0162 -2.5550
 4568TIP3   OH213709   4.993   3.408   4.551 -0.1293 -0.4785  0.1170
 4568TIP3    H113710   4.910   3.385   4.594 -0.7066  0.2418 -0.5828
 4568TIP3    H213711   5.017   3.492   4.589  0.2830 -0.6738  0.3003
 4569TIP3   OH213712   5.661   2.297   4.170 -0.1980 -0.6039  0.0922
 4569TIP3    H113713   5.673   2.224   4.230 -0.4586 -0.9390 -0.2554
 4569TIP3    H213714   5.685   2.374   4.220  1.3073 -1.0400  0.0771
 4570TIP3   OH213715   3.470   1.378   3.571  0.7406  0.2629 -0.2250
 4570TIP3    H113716   3.401   1.334   3.619  0.0322  1.6262  0.0563
 4570TIP3    H213717   3.484   1.324   3.493 -0.3351 -0.2637 -0.0638
 4571TIP3   OH213718   4.560   3.447   0.545  0.2645  0.2574 -0.5023
 4571TIP3    H113719   4.557   3.464   0.450 -1.7497 -1.9442 -0.9341
 4571TIP3    H213720   4.637   3.391   0.556  0.5186  0.5338 -0.8251
 4572TIP3   OH213721   4.031   1.657   3.051 -0.2701  0.0106 -0.6161
 4572TIP3    H113722   4.074   1.719   2.993 -0.8179 -1.0588 -2.2391
 4572TIP3    H213723   3.975   1.710   3.108  0.1248  1.0659 -1.2013
 4573TIP3   OH213724   5.243   0.798   4.002  0.0256 -0.3118 -0.4394
 4573TIP3    H113725   5.247   0.759   3.915  0.5072  0.6762 -0.8695
 4573TIP3    H213726   5.284   0.733   4.060 -0.5278 -1.0837 -0.8869
 4574TIP3   OH213727   3.435   1.658   3.459  0.0876 -0.2552 -0.3676
 4574TIP3    H113728   3.361   1.600   3.476  0.1596  0.1701  1.7496
 4574TIP3    H213729   3.512   1.603   3.468  0.0849 -0.5672 -1.9753
 4575TIP3   OH213730   1.849   5.712   1.472  0.1672  0.1167 -0.5056
 4575TIP3    H113731   1.864   5.677   1.560  1.4763  1.4138 -0.1759
 4575TIP3    H213732   1.755   5.723   1.466 -0.1378 -1.8137 -0.0046
 4576TIP3   OH213733   4.045   3.721   1.998  0.1573 -0.1127  0.0964
 4576TIP3    H113734   4.124   3.773   1.989 -0.3054  0.3785 -1.4813
 4576TIP3    H213735   4.070   3.633   1.970  0.3323 -0.1505  0.3690
 4577TIP3   OH213736   4.766   5.482   1.465  0.5284 -0.0606 -0.2067
 4577TIP3    H113737   4.710   5.411   1.432 -0.2628  0.6507 -0.4331
 4577TIP3    H213738   4.854   5.459   1.435  0.1779 -0.6010 -0.8531
 4578TIP3   OH213739   4.864   0.317   2.190  0.3507  0.6430  0.3728
 4578TIP3    H113740   4.787   0.262   2.177  0.8856 -0.0328 -0.0136
 4578TIP3    H213741   4.935   0.256   2.208  1.1883  1.1087 -1.1281
 4579TIP3   OH213742   3.133   4.754   3.466  0.1446 -0.1541 -0.0044
 4579TIP3    H113743   3.224   4.722   3.466  0.5440  0.9090  0.4683
 4579TIP3    H213744   3.142   4.848   3.452 -1.0354 -0.3338 -2.3772
 4580TIP3   OH213745   0.160   0.449   2.315  0.3627  0.0401 -0.2664
 4580TIP3    H113746   0.067   0.455   2.334  0.4099  0.0048 -0.0206
 4580TIP3    H213747   0.165   0.441   2.220  0.0247 -1.4149 -0.1865
 4581TIP3   OH213748   1.454   3.351   0.938  0.0470  0.7457  0.3019
 4581TIP3    H113749   1.404   3.270   0.930 -1.1874  1.4030  0.9819
 4581TIP3    H213750   1.542   3.323   0.963 -0.2587 -0.3984  0.1401
 4582TIP3   OH213751   1.852   0.032   2.466 -0.5651 -0.1858 -0.0795
 4582TIP3    H113752   1.843   0.035   2.561  0.6470  1.1298  0.0282
 4582TIP3    H213753   1.832  -0.059   2.442 -0.4328 -0.6425  1.4766
 4583TIP3   OH213754   0.033   0.343   0.425 -0.4043  0.2648  0.6990
 4583TIP3    H113755   0.022   0.416   0.485  0.7186  1.2157 -0.2113
 4583TIP3    H213756   0.076   0.381   0.348  1.2880 -1.5337  0.6637
 4584TIP3   OH213757   3.055   5.000   3.795  0.5730 -0.4165 -0.1206
 4584TIP3    H113758   3.110   5.072   3.824 -0.4349  0.0730  0.6320
 4584TIP3    H213759   3.102   4.921   3.823  0.6251  0.0009  1.0369
 4585TIP3   OH213760   1.476   3.290   3.291  0.1154 -0.0912 -0.2747
 4585TIP3    H113761   1.458   3.308   3.383 -0.4646 -0.4297 -0.3170
 4585TIP3    H213762   1.506   3.199   3.289  3.3813  0.8512 -0.0142
 4586TIP3   OH213763   3.408   5.833   1.223  0.0051 -0.8455  0.1244
 4586TIP3    H113764   3.399   5.780   1.144 -1.2418  0.4872 -0.6683
 4586TIP3    H213765   3.411   5.924   1.191 -1.0886 -0.2417  1.6208
 4587TIP3   OH213766   3.764   2.308   3.162  0.6457  0.7855 -0.0410
 4587TIP3    H113767   3.792   2.229   3.116 -0.5929  0.0216  0.4894
 4587TIP3    H213768   3.698   2.347   3.105 -0.4745  0.1435  0.7822
 4588TIP3   OH213769   4.122   3.573   3.119 -0.0574 -0.3077  0.1575
 4588TIP3    H113770   4.126   3.546   3.211  0.1862 -1.6445 -0.2154
 4588TIP3    H213771   4.122   3.668   3.122 -0.0047 -0.3223  1.5421
 4589TIP3   OH213772   2.161   4.351   4.749  0.2263  0.1160 -0.0890
 4589TIP3    H113773   2.078   4.322   4.710 -0.4852  1.9875 -0.0387
 4589TIP3    H213774   2.140   4.366   4.841  0.7534  0.1001  0.0347
 4590TIP3   OH213775   0.248   0.035   2.758 -0.4311  0.3056 -0.8056
 4590TIP3    H113776   0.250   0.082   2.675  1.5804 -0.8802 -1.4896
 4590TIP3    H213777   0.240  -0.057   2.733 -1.2550  0.0273  0.3911
 4591TIP3   OH213778   4.787   1.322   2.657  0.4889  0.0403 -0.1384
 4591TIP3    H113779   4.723   1.251   2.664  0.7769 -0.3441 -1.1597
 4591TIP3    H213780   4.822   1.314   2.568  2.4410 -0.1658  0.6112
 4592TIP3   OH213781   4.552   4.768   4.393 -0.2846  0.2659 -0.0972
 4592TIP3    H113782   4.489   4.716   4.443  0.5664  0.7912  1.6264
 4592TIP3    H213783   4.527   4.859   4.412 -0.1415  0.4791 -0.9164
 4593TIP3   OH213784   4.582   4.330   3.010 -0.1294  0.8298  0.0845
 4593TIP3    H113785   4.574   4.404   2.951 -0.6266  0.5913 -0.1514
 4593TIP3    H213786   4.599   4.255   2.952 -2.3740  0.2817  0.0602
 4594TIP3   OH213787   5.519   3.677   3.514 -0.1551  0.7415 -0.2871
 4594TIP3    H113788   5.476   3.762   3.515 -0.1644  0.7502 -0.9723
 4594TIP3    H213789   5.465   3.624   3.455 -0.0166  0.3317 -0.0475
 4595TIP3   OH213790   5.886   4.441   4.943 -0.6281 -1.1021  0.7144
 4595TIP3    H113791   5.851   4.408   5.026 -0.3694 -1.9573  0.4897
 4595TIP3    H213792   5.947   4.373   4.913  0.1042 -0.3122  0.3586
 4596TIP3   OH213793   5.024   1.188   5.118  0.1666  0.1692  0.4145
 4596TIP3    H113794   5.026   1.176   5.023 -1.0951 -0.6558  0.4638
 4596TIP3    H213795   5.032   1.282   5.131 -2.2777  0.6027 -0.6643
 4597TIP3   OH213796   5.643   2.177   3.112  0.4835 -0.2298  0.0949
 4597TIP3    H113797   5.686   2.094   3.132  2.1910  0.4221 -0.6580
 4597TIP3    H213798   5.573   2.154   3.051  0.9949 -1.1120 -0.1762
 4598TIP3   OH213799   3.586   4.411   4.394 -0.0367  0.3624  0.5024
 4598TIP3    H113800   3.625   4.474   4.333  1.8677  0.0350  1.3274
 4598TIP3    H213801   3.615   4.326   4.362 -1.5938 -0.0683  0.1106
 4599TIP3   OH213802   4.225   5.294   4.983 -0.3432 -0.4191  0.5300
 4599TIP3    H113803   4.316   5.266   4.992 -0.0833  0.7087  1.7497
 4599TIP3    H213804   4.230   5.390   4.982 -1.6521 -0.2746  2.6764
 4600TIP3   OH213805   3.371   3.520   0.482 -0.4700 -0.0541  0.4838
 4600TIP3    H113806   3.380   3.614   0.497  0.6860  0.0688 -0.8192
 4600TIP3    H213807   3.319   3.489   0.556  1.7496  1.0675  2.6534
 4601TIP3   OH213808   0.352   4.972   0.751 -0.4786 -0.1321 -0.3359
 4601TIP3    H113809   0.445   4.961   0.770 -0.5679  2.5005  2.4011
 4601TIP3    H213810   0.349   5.031   0.675  0.0149 -1.5975 -1.5279
 4602TIP3   OH213811   2.614   1.880   1.887  0.4707 -0.4336 -0.4379
 4602TIP3    H113812   2.668   1.955   1.914  2.8767 -1.5070 -1.9903
 4602TIP3    H213813   2.646   1.858   1.800 -3.0278 -0.7354 -1.7957
 4603TIP3   OH213814   6.112   3.875   2.886 -0.1816  0.0699  0.7066
 4603TIP3    H113815   6.074   3.938   2.948 -1.3599 -0.7153  0.8244
 4603TIP3    H213816   6.117   3.922   2.803  0.4026  0.7936  1.1359
 4604TIP3   OH213817   0.858   4.477   3.571  0.2834 -0.1856 -0.0565
 4604TIP3    H113818   0.908   4.554   3.548 -1.6464  1.3259  0.5082
 4604TIP3    H213819   0.905   4.438   3.645  2.1599 -0.5462 -1.3831
 4605TIP3   OH213820   0.819   0.554   4.506  0.4153  0.4338  0.4132
 4605TIP3    H113821   0.725   0.545   4.524  0.5560  0.5609  1.2565
 4605TIP3    H213822   0.853   0.465   4.512  0.1882  0.2325 -0.9371
 4606TIP3   OH213823   5.385   5.105   2.243  0.2632 -0.1377  0.1633
 4606TIP3    H113824   5.292   5.100   2.266  0.4025 -0.4105  0.6852
 4606TIP3    H213825   5.394   5.190   2.199  0.1562  0.8473  1.9622
 4607TIP3   OH213826   3.731   1.113   1.780 -0.2669 -0.4348  0.1562
 4607TIP3    H113827   3.803   1.144   1.726 -0.0280 -2.8098 -0.9821
 4607TIP3    H213828   3.653   1.153   1.742  0.1639 -0.0495 -0.3300
 4608TIP3   OH213829   2.298   0.739   2.385 -0.0448  0.3432 -0.3002
 4608TIP3    H113830   2.285   0.744   2.291 -1.8215 -1.2365 -0.2054
 4608TIP3    H213831   2.257   0.818   2.420 -0.3973  0.3641 -0.7605
 4609TIP3   OH213832   3.509   2.752   0.626  0.2690  0.2371  0.3427
 4609TIP3    H113833   3.463   2.727   0.707 -1.5854 -1.3568 -1.1017
 4609TIP3    H213834   3.480   2.842   0.609 -2.0560 -0.5589 -0.2662
 4610TIP3   OH213835   4.869   5.081   1.892  0.0132 -0.8090 -0.5493
 4610TIP3    H113836   4.910   5.101   1.808  0.4669 -0.7946 -0.3226
 4610TIP3    H213837   4.907   4.997   1.919  1.0665 -0.0539  0.4026
 4611TIP3   OH213838   4.571   1.508   4.430  0.4068 -0.8060 -0.3747
 4611TIP3    H113839   4.520   1.483   4.507 -2.1807  1.3910 -1.2028
 4611TIP3    H213840   4.531   1.459   4.358 -0.4667  0.7586 -1.0000
 4612TIP3   OH213841   5.598   1.440   2.613 -0.1304 -0.1500 -0.5473
 4612TIP3    H113842   5.520   1.488   2.640 -0.0837 -1.0874  1.4541
 4612TIP3    H213843   5.628   1.485   2.534 -1.2504  1.7906  0.0599
 4613TIP3   OH213844   5.865   4.619   1.849  0.0436  0.2157  0.4151
 4613TIP3    H113845   5.947   4.568   1.844  0.3468  0.7252  0.1190
 4613TIP3    H213846   5.841   4.634   1.758 -0.6460 -0.3400  0.4990
 4614TIP3   OH213847   5.347   0.118   0.678 -0.0616 -0.0023  0.1171
 4614TIP3    H113848   5.363   0.024   0.685  1.4216  0.2684  0.7159
 4614TIP3    H213849   5.321   0.144   0.767 -1.2562  0.0259 -0.2340
 4615TIP3   OH213850   1.426   0.195   4.215  0.4298 -0.3452 -0.0667
 4615TIP3    H113851   1.483   0.251   4.269 -1.3790  0.0343  1.5895
 4615TIP3    H213852   1.362   0.255   4.178  0.4131 -0.9031 -0.9571
 4616TIP3   OH213853   1.187   3.063   3.091  0.2193  0.0995  0.5411
 4616TIP3    H113854   1.149   3.134   3.040 -0.9453 -0.2292  0.9144
 4616TIP3    H213855   1.281   3.073   3.080  0.0141  0.0384 -1.6907
 4617TIP3   OH213856   2.487   4.451   2.941 -0.4198  0.3570  0.1408
 4617TIP3    H113857   2.410   4.434   2.996 -0.3684 -0.2967  0.0262
 4617TIP3    H213858   2.455   4.503   2.868 -1.0394 -1.0425 -0.6218
 4618TIP3   OH213859   3.552   1.206   1.592 -0.3806 -0.2169 -0.1472
 4618TIP3    H113860   3.512   1.284   1.630  0.1981 -0.3905  0.8433
 4618TIP3    H213861   3.489   1.177   1.526 -1.6337 -0.1562  0.9823
 4619TIP3   OH213862   2.512   2.761   3.054  0.0666 -0.3793 -0.0840
 4619TIP3    H113863   2.492   2.687   3.111  1.1615 -0.2926  0.4404
 4619TIP3    H213864   2.537   2.831   3.114 -0.5167  0.2902 -0.5974
 4620TIP3   OH213865   2.888   5.594   2.359 -0.4622  0.5475 -0.2046
 4620TIP3    H113866   2.944   5.531   2.315 -1.1419  0.5623 -1.1396
 4620TIP3    H213867   2.807   5.593   2.308  0.6905  4.7970 -2.5846
 4621TIP3   OH213868   4.769   3.276   4.667 -0.0300 -0.0552 -0.2947
 4621TIP3    H113869   4.690   3.330   4.664  0.3907  0.9968  2.9816
 4621TIP3    H213870   4.751   3.211   4.735  1.9023  0.2914  0.6238
 4622TIP3   OH213871   3.602   1.003   2.295  0.1242 -0.1379  0.1602
 4622TIP3    H113872   3.633   1.038   2.212  3.9141 -2.6298  0.2591
 4622TIP3    H213873   3.627   1.069   2.360 -0.5059  0.6533 -0.3814
 4623TIP3   OH213874   6.026   3.235   2.084  0.2069 -0.3153  0.3829
 4623TIP3    H113875   6.025   3.142   2.106  0.6503  0.1021  2.2835
 4623TIP3    H213876   6.043   3.279   2.166  0.2955  1.4561 -0.5454
 4624TIP3   OH213877   1.768   0.715   5.043  0.0513 -0.4077 -0.0200
 4624TIP3    H113878   1.746   0.802   5.075 -1.3287 -1.0931  1.0023
 4624TIP3    H213879   1.820   0.676   5.114  3.2271  0.5158 -1.6279
 4625TIP3   OH213880   2.001   0.520   4.918 -0.3107  0.0782 -0.3057
 4625TIP3    H113881   1.918   0.524   4.965 -0.7411 -0.4321 -0.9988
 4625TIP3    H213882   2.046   0.601   4.941 -0.4075 -0.2639  1.1579
 4626TIP3   OH213883   3.900   4.590   0.369  0.0313  0.4386  0.3216
 4626TIP3    H113884   3.910   4.615   0.461  0.4193 -0.0224  0.4040
 4626TIP3    H213885   3.896   4.495   0.370 -2.2053  0.4729  0.0861
 4627TIP3   OH213886   2.702   3.708   3.748 -0.0081  0.4188 -0.4876
 4627TIP3    H113887   2.787   3.717   3.705  0.3137  1.0299  0.2617
 4627TIP3    H213888   2.706   3.624   3.793 -0.4137 -0.3113 -1.7756
 4628TIP3   OH213889   0.876   1.179   3.759  0.8703 -0.1023 -0.2476
 4628TIP3    H113890   0.971   1.172   3.753  0.8031 -1.0585 -0.4055
 4628TIP3    H213891   0.850   1.106   3.815  0.1114 -0.8118 -1.4754
 4629TIP3   OH213892   4.959   5.101   4.241 -0.6153  0.6789 -0.0700
 4629TIP3    H113893   4.990   5.111   4.150 -0.4619  0.6752 -0.0187
 4629TIP3    H213894   4.865   5.089   4.233 -0.3725 -1.2191 -0.3476
 4630TIP3   OH213895   1.080   4.849   0.912  1.2630  0.7171 -0.4128
 4630TIP3    H113896   1.108   4.789   0.981 -0.2899 -0.7024 -0.9426
 4630TIP3    H213897   1.008   4.899   0.953 -0.0083 -0.4842 -1.0951
 4631TIP3   OH213898   4.746   0.368   0.029  0.3976 -0.0378  0.2575
 4631TIP3    H113899   4.727   0.277   0.049 -0.3525 -0.1667 -0.9242
 4631TIP3    H213900   4.694   0.387  -0.049  3.2069  0.3543 -1.6950
 4632TIP3   OH213901   1.682   2.598   1.981  0.6372  0.4373  0.0687
 4632TIP3    H113902   1.668   2.692   1.968 -1.1544 -0.0016 -1.7381
 4632TIP3    H213903   1.647   2.580   2.068  1.9661  1.5744  0.8861
 4633TIP3   OH213904   4.078   2.501   1.110 -0.0457 -0.3019 -0.1362
 4633TIP3    H113905   3.991   2.539   1.124  0.1396  0.6311 -1.3272
 4633TIP3    H213906   4.062   2.422   1.058 -0.2751 -0.8954  0.8034
 4634TIP3   OH213907   6.151   1.969   4.976 -0.1331 -0.4926  0.4060
 4634TIP3    H113908   6.165   1.920   4.895 -1.6594  0.4481 -0.4794
 4634TIP3    H213909   6.228   1.949   5.030  0.7046 -1.4892 -1.0813
 4635TIP3   OH213910   3.275   1.303   1.574  0.1508  0.0232 -0.0475
 4635TIP3    H113911   3.297   1.242   1.504  2.0673  1.3215 -0.6524
 4635TIP3    H213912   3.266   1.247   1.652  2.5663 -1.0176 -0.4226
 4636TIP3   OH213913   0.352   1.056   4.146  0.4788 -0.6034 -0.2230
 4636TIP3    H113914   0.382   1.068   4.236 -0.7814 -0.8639  0.2585
 4636TIP3    H213915   0.290   1.127   4.132  0.1988 -0.9334 -0.6703
 4637TIP3   OH213916   4.139   1.529   4.865 -0.1852 -0.0255  0.4199
 4637TIP3    H113917   4.136   1.471   4.941 -0.1621 -1.5042 -0.6677
 4637TIP3    H213918   4.170   1.474   4.793  1.4814  1.7475 -0.3268
 4638TIP3   OH213919   5.852   3.971   4.692  0.4905 -0.4308 -0.0391
 4638TIP3    H113920   5.804   3.890   4.709 -0.7224  0.1902 -0.3272
 4638TIP3    H213921   5.875   3.966   4.599 -1.9438  0.6779 -0.7891
 4639TIP3   OH213922   3.648   3.234   1.332 -0.2231 -0.3729  0.8162
 4639TIP3    H113923   3.596   3.285   1.271  2.2393  0.1065 -1.0485
 4639TIP3    H213924   3.617   3.261   1.419 -1.0746  2.0458 -0.1512
 4640TIP3   OH213925   4.711   5.097   1.556  0.0338  0.6502 -0.0819
 4640TIP3    H113926   4.771   5.133   1.491  1.3643 -0.4135  0.5113
 4640TIP3    H213927   4.714   5.003   1.542 -0.1017  0.4479  1.1319
 4641TIP3   OH213928   4.618   2.590   4.025 -0.0179  0.2573  0.0107
 4641TIP3    H113929   4.662   2.514   4.062  0.6057  0.1351 -0.9529
 4641TIP3    H213930   4.679   2.624   3.960 -0.0571  1.9108  0.7958
 4642TIP3   OH213931   4.406   0.332   4.622 -0.2166 -0.0800  0.5576
 4642TIP3    H113932   4.420   0.364   4.533 -1.9712 -1.6462 -0.3659
 4642TIP3    H213933   4.387   0.239   4.610  0.6585 -0.5746  2.7061
 4643TIP3   OH213934   0.182   3.065   1.849 -0.1048 -0.6014 -0.2197
 4643TIP3    H113935   0.220   3.101   1.929  2.4604  0.1744 -1.6853
 4643TIP3    H213936   0.227   2.981   1.837 -1.2668 -1.2325 -0.3079
 4644TIP3   OH213937   6.180   4.389   0.304 -0.1372 -0.0881 -0.0568
 4644TIP3    H113938   6.119   4.373   0.232  0.0680 -0.0801 -0.2313
 4644TIP3    H213939   6.264   4.407   0.262  0.5701 -2.3814  0.2013
 4645TIP3   OH213940   5.165   4.218   3.676 -0.3876  0.5116 -0.1561
 4645TIP3    H113941   5.114   4.176   3.744  1.8548 -0.8333  0.7904
 4645TIP3    H213942   5.184   4.149   3.613 -0.4502  1.2043 -0.9679
 4646TIP3   OH213943   2.809   2.885   3.521 -0.6372 -0.1287  0.1997
 4646TIP3    H113944   2.891   2.933   3.515 -0.4354 -0.5868 -1.1526
 4646TIP3    H213945   2.757   2.916   3.446 -0.1147 -2.6109 -1.3443
 4647TIP3   OH213946   1.617   2.885   4.944 -0.2281  0.2504 -0.8588
 4647TIP3    H113947   1.580   2.933   5.018  0.0748  3.2539 -2.5050
 4647TIP3    H213948   1.591   2.935   4.867  0.1343 -2.3134 -2.7895
 4648TIP3   OH213949   1.065   3.976   4.994  0.1997 -0.3706 -0.0730
 4648TIP3    H113950   1.043   4.038   5.063  1.9261 -0.4977  0.6300
 4648TIP3    H213951   1.152   3.944   5.017 -0.0422 -1.9679 -1.2065
 4649TIP3   OH213952   1.431   5.726   2.230 -0.6664 -0.0794 -0.4208
 4649TIP3    H113953   1.496   5.738   2.160  0.9260  1.8461  1.2264
 4649TIP3    H213954   1.361   5.788   2.208 -0.2777  0.3580 -0.4484
 4650TIP3   OH213955   2.326   2.967   3.506  0.0145  0.0194 -0.1183
 4650TIP3    H113956   2.394   2.977   3.572 -0.1499  1.2127 -0.1047
 4650TIP3    H213957   2.349   3.030   3.438 -0.3854 -0.4684 -0.7201
 4651TIP3   OH213958   4.395   3.660   3.541  0.6777 -0.4634  0.0649
 4651TIP3    H113959   4.439   3.744   3.553 -0.4376  0.1561  0.0262
 4651TIP3    H213960   4.464   3.594   3.546  1.1836  0.1747  3.5489
 4652TIP3   OH213961   1.046   0.326   0.832 -0.2846  0.2468 -0.4122
 4652TIP3    H113962   1.057   0.236   0.803  2.9780  0.5099 -0.3837
 4652TIP3    H213963   1.094   0.332   0.914 -2.1584  1.5870  0.6701
 4653TIP3   OH213964   4.004   2.404   4.463 -0.0174 -0.0057 -0.4847
 4653TIP3    H113965   4.083   2.350   4.461 -0.7336 -1.1948  1.1874
 4653TIP3    H213966   3.941   2.354   4.515 -2.2068  0.4965 -2.4511
 4654TIP3   OH213967   4.330   5.550   4.193 -0.6967 -0.2694 -0.4880
 4654TIP3    H113968   4.340   5.645   4.193 -0.5194 -0.2721 -1.4232
 4654TIP3    H213969   4.236   5.536   4.198 -0.7507 -0.0287 -0.7533
 4655TIP3   OH213970   4.953   5.850   1.029 -0.4227 -0.1448  0.1186
 4655TIP3    H113971   5.011   5.916   0.991  0.0160 -0.4402  0.2703
 4655TIP3    H213972   4.985   5.767   0.993 -0.6539 -0.3248  0.3261
 4656TIP3   OH213973   2.791   0.154   2.816 -0.6294 -0.1059 -0.5236
 4656TIP3    H113974   2.764   0.070   2.852 -2.8037  1.0995  0.9013
 4656TIP3    H213975   2.713   0.186   2.769  0.8877  0.1417 -3.0463
 4657TIP3   OH213976   4.933   0.121   0.385  0.0740  0.4211 -0.2277
 4657TIP3    H113977   4.940   0.078   0.300  1.2449  1.6793 -0.8113
 4657TIP3    H213978   4.850   0.168   0.381  0.3889  0.9474 -0.9357
 4658TIP3   OH213979   5.053   3.521   0.364  0.1654  0.5405 -0.2944
 4658TIP3    H113980   5.001   3.574   0.424  2.1882  1.6703  0.5818
 4658TIP3    H213981   5.081   3.582   0.295 -0.1525 -0.1797 -1.0825
 4659TIP3   OH213982   0.358   5.887   3.622  0.5553 -0.1748 -0.5717
 4659TIP3    H113983   0.327   5.798   3.638  2.1376 -0.7668 -0.6030
 4659TIP3    H213984   0.291   5.943   3.660 -0.1123 -1.3908  0.1044
 4660TIP3   OH213985   2.561   4.995   2.080  0.4995 -0.0198 -0.3352
 4660TIP3    H113986   2.595   4.939   2.011 -0.2074 -0.5048 -0.3105
 4660TIP3    H213987   2.519   5.068   2.034  1.0474  0.2662 -0.3809
 4661TIP3   OH213988   0.206   1.857   4.407 -0.1666 -0.3037 -0.3371
 4661TIP3    H113989   0.289   1.875   4.362  0.7577 -0.1011  1.3583
 4661TIP3    H213990   0.152   1.934   4.390  0.5113  0.1813 -0.3419
 4662TIP3   OH213991   5.730   4.803   4.089  0.0251 -0.4732  0.5219
 4662TIP3    H113992   5.666   4.873   4.098 -1.3596 -1.7311  0.7425
 4662TIP3    H213993   5.774   4.799   4.174  0.8927  0.8136  0.1703
 4663TIP3   OH213994   0.358   4.306   1.523  0.2400  0.3792 -0.3324
 4663TIP3    H113995   0.322   4.302   1.612 -0.1709  0.9192 -0.4732
 4663TIP3    H213996   0.384   4.216   1.504  2.1066  0.5579  1.0491
 4664TIP3   OH213997   6.237   4.463   3.360 -0.6611 -0.6266 -0.1314
 4664TIP3    H113998   6.222   4.449   3.266  0.8785  1.4923 -0.7564
 4664TIP3    H213999   6.189   4.543   3.380  2.8285  1.7564 -0.3580
 4665TIP3   OH214000   2.578   1.559   0.578  0.2927  0.3759 -0.7679
 4665TIP3    H114001   2.513   1.512   0.630 -0.3636  0.2715 -1.6580
 4665TIP3    H214002   2.620   1.619   0.640 -1.1822  0.9860 -0.3224
 4666TIP3   OH214003   5.907   1.824   0.495  0.3997 -0.1594 -0.0433
 4666TIP3    H114004   5.876   1.841   0.584  0.5101 -0.0295 -0.0279
 4666TIP3    H214005   5.935   1.733   0.496  0.4218 -0.1520  0.0618
 4667TIP3   OH214006   0.034   4.242   2.861  0.1199  0.2541 -0.4873
 4667TIP3    H114007   0.079   4.326   2.857  2.8315 -1.1471 -1.4324
 4667TIP3    H214008   0.067   4.201   2.941  0.8251 -0.9325 -1.3699
 4668TIP3   OH214009   0.686   2.124   0.605 -0.3909  0.2626  0.5277
 4668TIP3    H114010   0.725   2.136   0.691  0.8741  0.7344 -0.0828
 4668TIP3    H214011   0.710   2.203   0.557 -1.4981  0.2338 -0.1234
 4669TIP3   OH214012   5.721   1.256   1.437  0.0375  0.0403 -0.2485
 4669TIP3    H114013   5.722   1.306   1.519 -0.1505  0.7511 -0.6652
 4669TIP3    H214014   5.731   1.165   1.464  0.0888  0.2747  0.5559
 4670TIP3   OH214015   3.497   1.743   2.909  0.4958  0.7874  0.1410
 4670TIP3    H114016   3.502   1.724   3.003 -1.4056  0.9446  0.3115
 4670TIP3    H214017   3.488   1.656   2.869 -1.7181  0.8579  0.3880
 4671TIP3   OH214018   2.581   0.778   4.305 -0.0784  0.7120  0.0708
 4671TIP3    H114019   2.491   0.754   4.283  0.7324 -2.6114 -0.1490
 4671TIP3    H214020   2.629   0.767   4.222  0.6359  2.2237  0.2378
 4672TIP3   OH214021   1.723   2.465   1.073 -0.2274 -0.2157 -0.2953
 4672TIP3    H114022   1.657   2.412   1.028  0.8349 -2.7077  0.8634
 4672TIP3    H214023   1.718   2.436   1.164  1.2590  0.8388  0.1532
 4673TIP3   OH214024   4.392   0.742   3.690 -0.0720 -0.0758  0.2314
 4673TIP3    H114025   4.354   0.760   3.604 -0.4037 -0.2726  0.3365
 4673TIP3    H214026   4.378   0.649   3.704  0.9482 -0.2685  0.0304
 4674TIP3   OH214027   2.538   3.198   3.427  0.3362 -0.0515 -0.3203
 4674TIP3    H114028   2.450   3.221   3.397 -0.1397 -2.2048 -0.7547
 4674TIP3    H214029   2.586   3.179   3.347 -0.4928 -4.3237 -0.0528
 4675TIP3   OH214030   4.287   2.369   4.914 -0.1384  0.0470 -0.8351
 4675TIP3    H114031   4.242   2.292   4.879  0.2378 -0.0990 -0.9999
 4675TIP3    H214032   4.334   2.406   4.840  1.8346 -1.0862 -0.2343
 4676TIP3   OH214033   1.808   4.699   0.869 -0.1550 -0.1441  0.5450
 4676TIP3    H114034   1.800   4.741   0.784  3.0183 -0.4000 -0.0097
 4676TIP3    H214035   1.821   4.606   0.849 -1.6850 -0.6144  1.4880
 4677TIP3   OH214036   2.763   5.767   2.921 -0.5547  0.3283 -0.5512
 4677TIP3    H114037   2.712   5.759   3.002 -0.6684  0.2747 -0.6266
 4677TIP3    H214038   2.758   5.680   2.881 -1.5897  0.6832 -1.2557
 4678TIP3   OH214039   5.033   0.325   3.357  0.3748 -0.4022  0.1440
 4678TIP3    H114040   4.939   0.340   3.367  0.7216  1.8654  0.3240
 4678TIP3    H214041   5.038   0.248   3.299 -1.6175  1.0144 -2.0874
 4679TIP3   OH214042   4.190   1.834   2.345  0.3719  0.2233  0.3398
 4679TIP3    H114043   4.273   1.836   2.298  0.9076 -0.7274  1.2144
 4679TIP3    H214044   4.163   1.926   2.349  1.5658  0.5953  0.3691
 4680TIP3   OH214045   3.517   3.498   1.212 -0.2611 -0.2517 -0.9768
 4680TIP3    H114046   3.585   3.558   1.182  1.7793 -2.5454 -1.1575
 4680TIP3    H214047   3.457   3.490   1.137 -1.1102  2.1503 -0.6504
 4681TIP3   OH214048   5.335   3.623   2.845 -0.1534 -0.8394  0.5526
 4681TIP3    H114049   5.411   3.567   2.826  0.1373  0.3000 -2.1283
 4681TIP3    H214050   5.287   3.626   2.762 -0.3532  2.4942  0.6719
 4682TIP3   OH214051   4.648   3.569   1.276  0.5671 -0.0081  0.1379
 4682TIP3    H114052   4.671   3.558   1.184  0.7259  1.1138  0.0320
 4682TIP3    H214053   4.614   3.484   1.303  1.9488 -0.8006 -0.5409
 4683TIP3   OH214054   4.131   2.309   3.149  0.2150  0.3779  0.3851
 4683TIP3    H114055   4.206   2.300   3.208  0.2223  0.3488  0.3712
 4683TIP3    H214056   4.076   2.375   3.191  1.2005  1.8779 -0.5938
 4684TIP3   OH214057   3.591   5.041   1.187 -0.3181  0.4181  0.0960
 4684TIP3    H114058   3.625   4.987   1.259 -0.0643  1.3462  0.7003
 4684TIP3    H214059   3.501   5.062   1.213 -0.8763 -0.8066 -0.7849
 4685TIP3   OH214060   5.276   1.471   5.145 -0.0009 -0.4507 -0.4687
 4685TIP3    H114061   5.199   1.520   5.174  1.4063  2.5613 -1.4481
 4685TIP3    H214062   5.285   1.494   5.052  2.5361 -0.0181 -0.1746
 4686TIP3   OH214063   0.700   5.254   0.639 -0.2885 -0.0711  0.1717
 4686TIP3    H114064   0.784   5.295   0.660 -1.2576  1.5994  1.0140
 4686TIP3    H214065   0.650   5.324   0.597 -1.1017 -1.1842 -0.7701
 4687TIP3   OH214066   3.203   3.022   1.721 -0.2000 -0.8187 -0.1182
 4687TIP3    H114067   3.222   2.936   1.682 -1.4883 -1.2673  0.1892
 4687TIP3    H214068   3.109   3.020   1.737 -0.1733  0.5114  0.2687
 4688TIP3   OH214069   3.716   4.367   2.100 -0.3756 -0.1141  0.0464
 4688TIP3    H114070   3.772   4.367   2.023  1.0271 -2.2675  0.9908
 4688TIP3    H214071   3.693   4.460   2.112  2.0822  0.7298 -1.0281
 4689TIP3   OH214072   2.042   3.875   3.280 -0.6440 -0.3619  1.2357
 4689TIP3    H114073   2.013   3.856   3.369 -1.1330  0.7991  1.3466
 4689TIP3    H214074   2.002   3.959   3.260  1.5409  0.6507  0.8671
 4690TIP3   OH214075   3.071   5.028   3.451  0.7093  0.2691 -0.3343
 4690TIP3    H114076   3.115   5.046   3.534  1.2575 -0.5109 -0.4438
 4690TIP3    H214077   3.142   5.030   3.386  0.2706  0.9938 -0.8106
 4691TIP3   OH214078   2.497   2.163   1.168  0.7073 -0.4708  0.1971
 4691TIP3    H114079   2.432   2.100   1.201 -0.9126  1.5053  0.9756
 4691TIP3    H214080   2.551   2.182   1.245 -0.4830  1.0334  0.7041
 4692TIP3   OH214081   2.732   0.341   4.418 -0.2984 -0.4196 -0.3256
 4692TIP3    H114082   2.684   0.413   4.460 -2.5504 -0.8998 -1.9052
 4692TIP3    H214083   2.702   0.262   4.462  2.0559 -0.5174  1.2967
 4693TIP3   OH214084   5.027   0.155   4.779 -0.4991 -0.4321 -0.2459
 4693TIP3    H114085   5.117   0.185   4.762 -0.6287  0.5597  0.7378
 4693TIP3    H214086   5.026   0.064   4.748  0.6134 -0.2062 -1.0063
 4694TIP3   OH214087   3.302   0.547   5.174 -0.0201 -0.1222 -0.1294
 4694TIP3    H114088   3.376   0.502   5.214  0.7852  0.9807 -0.3075
 4694TIP3    H214089   3.229   0.486   5.181  0.5784 -0.7145  1.2503
 4695TIP3   OH214090   4.094   4.282   1.659  0.4249 -0.0067  0.0541
 4695TIP3    H114091   4.060   4.352   1.603  1.3681 -0.0387 -0.5861
 4695TIP3    H214092   4.090   4.318   1.747 -1.6728 -0.1772  0.0866
 4696TIP3   OH214093   4.178   2.335   3.670  0.7247  0.1719 -0.2014
 4696TIP3    H114094   4.256   2.326   3.725  0.2709  1.1550  0.6508
 4696TIP3    H214095   4.190   2.420   3.626  0.4104  0.0526 -0.5195
 4697TIP3   OH214096   1.104   1.452   1.923 -0.2268  0.1891 -0.3595
 4697TIP3    H114097   1.184   1.497   1.896  1.3296 -1.0304  1.8958
 4697TIP3    H214098   1.064   1.510   1.988  0.8255 -0.7664  1.2096
 4698TIP3   OH214099   1.107   1.761   0.530  0.1240 -0.3345  0.2640
 4698TIP3    H114100   1.073   1.718   0.452  2.9184 -0.5664 -0.9739
 4698TIP3    H214101   1.115   1.691   0.595 -1.4210 -0.3103  0.5035
 4699TIP3   OH214102   0.796   0.794   2.394  1.0266  0.4722  0.1211
 4699TIP3    H114103   0.829   0.798   2.484 -1.3864  1.8602  1.0698
 4699TIP3    H214104   0.736   0.720   2.394  3.4031 -1.5823 -1.3659
 4700TIP3   OH214105   5.834   3.432   2.839  0.2096  0.3586 -0.2964
 4700TIP3    H114106   5.880   3.515   2.846  0.5549  0.2535 -1.2860
 4700TIP3    H214107   5.872   3.389   2.763 -0.3861 -0.4414 -0.1549
 4701TIP3   OH214108   4.937   0.622   1.131  0.3758 -0.1441 -0.0470
 4701TIP3    H114109   4.888   0.615   1.049 -0.0891 -0.3050  0.2440
 4701TIP3    H214110   4.871   0.617   1.199  1.0082 -3.2160  0.4831
 4702TIP3   OH214111   1.711   1.266   0.964  0.0099 -0.3279 -0.0393
 4702TIP3    H114112   1.784   1.245   1.022  1.0539  1.7827 -0.4904
 4702TIP3    H214113   1.717   1.203   0.893  2.1211  0.4515 -0.6316
 4703TIP3   OH214114   5.997   5.536   4.702 -0.3051 -0.6272  0.0796
 4703TIP3    H114115   6.073   5.572   4.747 -0.7326 -1.5191  1.6034
 4703TIP3    H214116   5.971   5.605   4.640  2.0592 -0.5576 -0.9416
 4704TIP3   OH214117   3.667   3.013   4.725  0.1447  0.0762 -0.5054
 4704TIP3    H114118   3.736   2.950   4.704  2.5087  1.7818  1.5543
 4704TIP3    H214119   3.625   2.977   4.803  1.0931  0.6969  0.3131
 4705TIP3   OH214120   2.208   4.595   1.199 -0.0930 -0.1052 -0.2182
 4705TIP3    H114121   2.252   4.604   1.114 -0.4742  0.1182 -0.3943
 4705TIP3    H214122   2.209   4.501   1.217  3.8672  0.0678  1.5975
 4706TIP3   OH214123   0.772   0.885   3.604  0.1736  0.6946 -0.0713
 4706TIP3    H114124   0.790   0.962   3.550  1.2082  0.8806  0.5083
 4706TIP3    H214125   0.847   0.879   3.663 -0.8786  0.4407  1.2949
 4707TIP3   OH214126   6.261   1.090   3.414 -0.1555 -0.4396 -0.0397
 4707TIP3    H114127   6.281   0.998   3.428 -0.2996 -0.2519  1.6040
 4707TIP3    H214128   6.171   1.100   3.443 -0.5731 -0.0131 -1.4036
 4708TIP3   OH214129   3.131   3.886   3.438 -0.2152 -0.0019  0.0205
 4708TIP3    H114130   3.155   3.951   3.372 -0.5622 -1.6442 -1.8312
 4708TIP3    H214131   3.215   3.849   3.467 -0.0618  0.6694  0.4300
 4709TIP3   OH214132   6.308   3.392   0.214 -0.1455 -0.0646  0.0881
 4709TIP3    H114133   6.271   3.456   0.275 -1.0786  1.2541 -1.7786
 4709TIP3    H214134   6.235   3.335   0.192  0.3782 -1.0261  0.7480
 4710TIP3   OH214135   3.405   0.694   1.033 -0.0864 -0.7341  0.4060
 4710TIP3    H114136   3.347   0.663   0.964 -0.0972 -2.2297  1.0366
 4710TIP3    H214137   3.357   0.678   1.114  0.3642 -0.0325  0.8254
 4711TIP3   OH214138   1.297   3.874   4.547  0.0129 -0.4769 -0.8135
 4711TIP3    H114139   1.278   3.781   4.554  0.3309 -0.6801 -2.2201
 4711TIP3    H214140   1.231   3.908   4.486 -0.3651  0.3133  0.0076
 4712TIP3   OH214141   1.440   1.927   4.408 -0.2909 -0.0362  0.3751
 4712TIP3    H114142   1.355   1.908   4.368  0.2256  1.1547 -1.4549
 4712TIP3    H214143   1.477   1.996   4.352  0.1837  2.3737  3.4046
 4713TIP3   OH214144   5.430   5.532   0.174 -0.2839  0.2435 -0.1845
 4713TIP3    H114145   5.514   5.561   0.138 -0.0507  1.1292  1.0368
 4713TIP3    H214146   5.366   5.594   0.139  0.0022  1.3690  1.1986
 4714TIP3   OH214147   3.212   1.477   0.815 -0.1669 -0.2377  0.7780
 4714TIP3    H114148   3.305   1.496   0.826  0.0942  0.5430 -2.0801
 4714TIP3    H214149   3.175   1.557   0.778 -1.8091 -0.8506  0.9872
 4715TIP3   OH214150   1.670   5.286   3.475 -0.1316 -0.2715  0.0696
 4715TIP3    H114151   1.595   5.228   3.486 -1.2692  0.9469 -0.9882
 4715TIP3    H214152   1.635   5.374   3.486  1.3051  0.3014  0.3225
 4716TIP3   OH214153   4.328   2.267   2.707 -0.0661  0.0534 -0.1315
 4716TIP3    H114154   4.342   2.256   2.801 -0.8359  0.9319  0.0960
 4716TIP3    H214155   4.270   2.195   2.683 -0.7994  0.4836  0.3036
 4717TIP3   OH214156   3.685   4.942   0.616 -0.0498  0.3389  0.1427
 4717TIP3    H114157   3.771   4.975   0.591  0.3070 -0.0495  0.8288
 4717TIP3    H214158   3.655   4.893   0.540  0.3285  0.4871 -0.1056
 4718TIP3   OH214159   2.616   4.539   4.713 -0.1343 -0.2976  0.3982
 4718TIP3    H114160   2.630   4.560   4.621 -1.1152 -2.1474 -0.2151
 4718TIP3    H214161   2.522   4.525   4.722  0.0509 -1.0589  1.4536
 4719TIP3   OH214162   3.901   0.024   1.991  0.4118 -0.2409  0.0347
 4719TIP3    H114163   3.946   0.091   2.043 -0.1053  0.2513 -0.1419
 4719TIP3    H214164   3.842  -0.019   2.053 -0.7866  0.8769 -0.2962
 4720TIP3   OH214165   3.445   1.222   0.339 -0.0086 -0.1502 -0.0935
 4720TIP3    H114166   3.427   1.259   0.252  1.3423 -0.6542 -0.6134
 4720TIP3    H214167   3.538   1.237   0.353 -0.1484 -0.3166  1.1746
 4721TIP3   OH214168   5.967   2.998   4.095 -0.5108 -0.5064  0.4140
 4721TIP3    H114169   5.899   2.973   4.033  0.0885  0.7464 -0.7814
 4721TIP3    H214170   6.045   2.950   4.066 -0.0255  0.6843 -0.3198
 4722TIP3   OH214171   4.827   2.171   1.942  0.0082 -0.3563  0.5249
 4722TIP3    H114172   4.787   2.255   1.964 -0.1956 -0.0451 -0.9821
 4722TIP3    H214173   4.772   2.106   1.986  0.2471  0.2809  1.8178
 4723TIP3   OH214174   1.393   3.587   1.036 -0.1855  0.2481  0.0920
 4723TIP3    H114175   1.319   3.578   1.095 -1.4283  2.0530 -1.0941
 4723TIP3    H214176   1.396   3.504   0.988  0.2899 -0.8832  2.0124
 4724TIP3   OH214177   1.979   3.508   0.157 -0.3804 -0.0283  0.0780
 4724TIP3    H114178   1.944   3.590   0.192 -0.8734 -0.5350  0.7859
 4724TIP3    H214179   2.055   3.490   0.213 -0.6403 -0.3780  0.3154
 4725TIP3   OH214180   2.965   5.289   1.544 -0.4274  0.9259  0.4813
 4725TIP3    H114181   2.875   5.278   1.513  0.7020 -1.7666 -2.3416
 4725TIP3    H214182   2.963   5.259   1.635 -1.9081 -2.2017 -0.4518
 4726TIP3   OH214183   5.430   2.950   2.417  0.0453 -0.0116  0.0910
 4726TIP3    H114184   5.378   2.882   2.460  1.3157 -1.3458 -0.3919
 4726TIP3    H214185   5.500   2.969   2.480 -1.3632  2.3026  1.0593
 4727TIP3   OH214186   5.129   0.381   0.380 -0.4667  0.4368  0.1127
 4727TIP3    H114187   5.114   0.288   0.361 -0.1144  0.0427  1.5856
 4727TIP3    H214188   5.070   0.428   0.322 -0.3660 -0.6944 -0.9361
 4728TIP3   OH214189   2.693   1.527   3.079 -0.0430 -0.5609 -0.3081
 4728TIP3    H114190   2.757   1.559   3.016 -0.2806 -0.2598 -0.4008
 4728TIP3    H214191   2.660   1.446   3.040  2.1759 -2.1671  0.9732
 4729TIP3   OH214192   5.044   0.089   0.646  0.0915 -0.2661  0.1519
 4729TIP3    H114193   5.006   0.103   0.559 -0.5564 -0.9261  0.3180
 4729TIP3    H214194   5.136   0.111   0.635  0.1708 -0.9974 -0.8881
 4730TIP3   OH214195   3.852   1.046   4.528 -0.1280  0.2558  0.6809
 4730TIP3    H114196   3.942   1.017   4.544  0.1943  1.2952  0.8629
 4730TIP3    H214197   3.823   0.993   4.453 -0.2468 -1.8049  2.1147
 4731TIP3   OH214198   2.294   0.531   0.721  0.2274  0.5513 -0.6193
 4731TIP3    H114199   2.347   0.605   0.748 -0.7487  0.6506  1.1401
 4731TIP3    H214200   2.324   0.458   0.774 -0.6455  0.3524 -0.3721
 4732TIP3   OH214201   6.270   1.715   3.766  0.3787  0.0228 -0.2530
 4732TIP3    H114202   6.298   1.806   3.753  0.4908 -0.0427 -0.4540
 4732TIP3    H214203   6.218   1.695   3.689  1.1061 -0.3864 -0.6457
 4733TIP3   OH214204  -0.003   0.189   4.049  0.1357 -0.0576  0.2479
 4733TIP3    H114205   0.051   0.236   4.112 -1.6275  2.0009  0.3779
 4733TIP3    H214206   0.056   0.166   3.978  0.9979  3.5338 -0.3990
 4734TIP3   OH214207   1.852   3.944   4.524 -0.3922  0.5336  0.0409
 4734TIP3    H114208   1.780   3.968   4.581  0.8960  0.4442  1.8095
 4734TIP3    H214209   1.844   3.849   4.514  0.0240  0.3673  1.0929
 4735TIP3   OH214210   1.092   0.545   5.023 -0.4274 -0.1940 -0.6801
 4735TIP3    H114211   1.062   0.471   4.970 -0.3134  0.3075 -1.4665
 4735TIP3    H214212   1.052   0.622   4.983 -1.5322  0.0781  0.8701
 4736TIP3   OH214213   0.539   3.873   2.942  0.1706 -0.6952 -0.3034
 4736TIP3    H114214   0.479   3.867   3.016 -0.2042 -0.8940 -0.6219
 4736TIP3    H214215   0.525   3.793   2.893 -0.0494 -0.2653 -0.9462
 4737TIP3   OH214216   4.385   2.129   0.066 -0.0469 -0.2351  0.0692
 4737TIP3    H114217   4.370   2.049   0.017  0.4864 -0.6501  0.5612
 4737TIP3    H214218   4.477   2.149   0.051  0.5198 -1.1359  1.9620
 4738TIP3   OH214219   1.356   1.995   1.363  0.1087  0.6861  0.3661
 4738TIP3    H114220   1.346   1.900   1.358  0.8551  0.6204 -0.0153
 4738TIP3    H214221   1.408   2.010   1.441 -2.7432  1.0312  2.3680
 4739TIP3   OH214222   0.257   0.878   0.671  0.1907  0.1934 -0.5710
 4739TIP3    H114223   0.309   0.934   0.614  0.9113  0.2124  0.0993
 4739TIP3    H214224   0.317   0.809   0.699 -0.1044  0.2844  0.3074
 4740TIP3   OH214225   5.433   3.708   3.087 -0.5252 -0.2831  0.1151
 4740TIP3    H114226   5.361   3.737   3.143  0.5842  0.0380  1.4340
 4740TIP3    H214227   5.392   3.689   3.003 -2.1137  0.0565  0.7781
 4741TIP3   OH214228   0.395   2.591   2.317  0.0385 -0.2674  0.3053
 4741TIP3    H114229   0.376   2.513   2.370 -0.5545  0.4033  1.1042
 4741TIP3    H214230   0.337   2.584   2.242 -1.7000  0.5342  1.5174
 4742TIP3   OH214231   4.075   4.127   4.182 -0.5717  0.3203  0.0618
 4742TIP3    H114232   4.163   4.119   4.219 -0.3709  1.2348 -0.1950
 4742TIP3    H214233   4.088   4.116   4.087 -1.0312 -1.6308  0.1820
 4743TIP3   OH214234   1.195   1.225   2.025  0.4183 -0.0909 -0.3182
 4743TIP3    H114235   1.166   1.307   1.984  0.6152  0.0745 -0.1277
 4743TIP3    H214236   1.236   1.252   2.107 -0.5787 -0.4669  0.3337
 4744TIP3   OH214237   2.380   0.878   2.154 -0.2625  0.5127  0.2360
 4744TIP3    H114238   2.454   0.818   2.152 -1.1076 -0.6047  0.8626
 4744TIP3    H214239   2.320   0.845   2.088 -0.1374  1.5205 -0.4022
 4745TIP3   OH214240   4.259   0.077   0.599 -0.0378 -0.1481 -0.1924
 4745TIP3    H114241   4.246  -0.018   0.608 -0.1215 -0.0954  0.2675
 4745TIP3    H214242   4.186   0.115   0.647  1.2688  0.1555  1.6241
 4746TIP3   OH214243   3.889   5.042   2.463  0.7206  0.2231 -0.0061
 4746TIP3    H114244   3.972   5.080   2.493  0.5963  0.5315 -0.0502
 4746TIP3    H214245   3.907   4.948   2.456  1.4029  0.4178 -1.0963
 4747TIP3   OH214246   1.786   3.810   1.449  0.4471  0.4571  0.3065
 4747TIP3    H114247   1.746   3.754   1.516  2.3375 -0.3050  0.8655
 4747TIP3    H214248   1.863   3.761   1.421  0.2775  1.2602 -1.6850
 4748TIP3   OH214249   2.877   4.494   1.779 -0.1880  0.8192  0.2990
 4748TIP3    H114250   2.894   4.526   1.868  0.0866 -0.5136  0.7444
 4748TIP3    H214251   2.861   4.400   1.790  0.6705  0.4768 -1.1618
 4749TIP3   OH214252   0.969   0.130   3.332 -0.1891  0.2069  0.2005
 4749TIP3    H114253   1.026   0.118   3.408  0.1801 -1.2541 -0.2653
 4749TIP3    H214254   0.941   0.041   3.310  0.2697  0.5252 -1.7915
 4750TIP3   OH214255   2.549   1.389   4.143  0.0078 -0.5299  0.4003
 4750TIP3    H114256   2.607   1.329   4.096 -0.0748  0.6696 -1.3741
 4750TIP3    H214257   2.484   1.414   4.077 -2.2060 -1.3467  2.1404
 4751TIP3   OH214258   4.806   2.414   4.877  0.1229  0.5756 -0.0794
 4751TIP3    H114259   4.873   2.391   4.812 -0.1337 -3.2933  0.7878
 4751TIP3    H214260   4.733   2.356   4.858  0.4169 -1.5689  4.1427
 4752TIP3   OH214261   1.148   1.664   1.084 -0.0324 -0.1164  0.0604
 4752TIP3    H114262   1.177   1.578   1.054 -0.4858 -0.1291 -0.3598
 4752TIP3    H214263   1.073   1.646   1.140  0.2167 -0.0254  0.4299
 4753TIP3   OH214264   3.486   0.068   1.023 -0.7080 -0.2459 -0.3935
 4753TIP3    H114265   3.560   0.124   1.046 -0.7262  0.7419 -2.5541
 4753TIP3    H214266   3.520  -0.021   1.033  0.5066  0.1776 -0.5169
 4754TIP3   OH214267   0.461   3.651   0.245 -0.0584  0.7921 -0.0035
 4754TIP3    H114268   0.426   3.653   0.334  1.3402  1.9283  0.5513
 4754TIP3    H214269   0.502   3.565   0.238 -1.2539  0.1980 -0.0124
 4755TIP3   OH214270   6.157   4.967   4.307 -0.6361  0.4691  0.0199
 4755TIP3    H114271   6.120   4.980   4.220 -2.4156 -0.1317  0.6525
 4755TIP3    H214272   6.123   4.882   4.335  0.9276  0.0644  0.8261
 4756TIP3   OH214273   1.279   0.234   4.906 -0.3630 -0.0578 -0.1779
 4756TIP3    H114274   1.198   0.265   4.865 -0.0884  3.6091  1.6410
 4756TIP3    H214275   1.258   0.230   4.999  1.6705  1.9361  0.4577
 4757TIP3   OH214276   3.742   3.801   2.555  0.5615 -0.7474 -0.1769
 4757TIP3    H114277   3.766   3.742   2.483  0.0225 -0.3312 -0.7061
 4757TIP3    H214278   3.791   3.881   2.538  0.6684 -0.7536  0.0962
 4758TIP3   OH214279   4.793   4.233   2.363  0.0142  0.0468  0.8425
 4758TIP3    H114280   4.717   4.177   2.382 -0.7773  1.4891  2.2284
 4758TIP3    H214281   4.796   4.238   2.268  0.4484 -2.7403  0.6321
 4759TIP3   OH214282   5.936   0.261   4.175 -0.1568  0.1305  0.1802
 4759TIP3    H114283   5.952   0.261   4.269 -0.5793 -0.7928  0.2614
 4759TIP3    H214284   5.864   0.199   4.162 -1.1413  1.3655 -0.5896
 4760TIP3   OH214285   3.941   5.736   0.306 -0.1673  0.1777  0.4332
 4760TIP3    H114286   3.931   5.823   0.268  0.2641  0.2961  0.5846
 4760TIP3    H214287   3.999   5.749   0.381 -1.6100  0.0794  1.6192
 4761TIP3   OH214288   2.663   4.478   4.128  1.0202  0.1325  0.2236
 4761TIP3    H114289   2.755   4.487   4.104  0.8592 -1.6759 -1.3082
 4761TIP3    H214290   2.646   4.384   4.125 -0.7585  0.3856  0.9801
 4762TIP3   OH214291   5.848   1.865   0.751 -0.4072 -0.4571 -0.0362
 4762TIP3    H114292   5.775   1.870   0.813 -0.2655  1.7701  0.0364
 4762TIP3    H214293   5.913   1.811   0.794 -0.8898 -0.1302  1.1505
 4763TIP3   OH214294   1.046   4.686   0.654 -0.2458 -0.7028 -0.2344
 4763TIP3    H114295   0.959   4.658   0.681 -0.2586 -0.1404  0.3201
 4763TIP3    H214296   1.086   4.721   0.733  0.5005 -0.9832 -0.4776
 4764TIP3   OH214297   3.723   0.668   1.084  0.1488  0.3722 -0.1876
 4764TIP3    H114298   3.709   0.585   1.039  0.4474  0.0683  0.2741
 4764TIP3    H214299   3.649   0.723   1.057 -0.7108 -0.4439  0.4417
 4765TIP3   OH214300   5.077   5.347   4.372 -0.1255 -0.3923  0.7802
 4765TIP3    H114301   4.996   5.397   4.382 -0.1324 -0.1474 -0.3918
 4765TIP3    H214302   5.048   5.257   4.358 -0.1863 -0.3690  0.7574
 4766TIP3   OH214303   0.424   4.565   1.553 -0.3837 -0.4192 -0.0247
 4766TIP3    H114304   0.503   4.589   1.506 -0.4998  0.0487  0.0153
 4766TIP3    H214305   0.402   4.478   1.521 -0.0317 -0.4185 -0.2667
 4767TIP3   OH214306   2.937   0.334   0.404  0.1993 -0.2779  0.4273
 4767TIP3    H114307   2.926   0.407   0.465  0.8222 -0.4122  0.7022
 4767TIP3    H214308   2.997   0.274   0.448  0.8106 -0.2892 -0.3884
 4768TIP3   OH214309   3.093   2.169   2.926 -0.4446 -0.1724  0.8046
 4768TIP3    H114310   3.008   2.204   2.899 -0.0465  0.4299  0.2932
 4768TIP3    H214311   3.088   2.076   2.906 -1.0535 -0.1783  0.9603
 4769TIP3   OH214312   0.050   3.060   4.884  0.4531 -0.2719 -0.1120
 4769TIP3    H114313   0.074   3.115   4.958  0.2576  0.4712 -0.5852
 4769TIP3    H214314  -0.043   3.080   4.869 -0.3330 -2.5439  1.2301
 4770TIP3   OH214315   6.387   1.526   1.703 -0.4596 -0.1268  0.4702
 4770TIP3    H114316   6.315   1.475   1.666  0.4304 -0.6765 -0.5283
 4770TIP3    H214317   6.351   1.561   1.785 -1.4190 -1.5011  0.6686
 4771TIP3   OH214318   4.641   0.190   4.343  0.2518  0.2807  0.0700
 4771TIP3    H114319   4.676   0.109   4.304  2.1792  1.1690 -0.1630
 4771TIP3    H214320   4.605   0.239   4.269  3.2758  1.6494 -0.6545
 4772TIP3   OH214321   0.373   5.583   4.576  0.6230 -0.1983 -0.1273
 4772TIP3    H114322   0.359   5.558   4.485  2.7472 -0.9858 -0.2955
 4772TIP3    H214323   0.442   5.649   4.572  1.9463 -1.4519  0.9798
 4773TIP3   OH214324   4.302   3.008   2.725  0.0396  0.1436 -0.4388
 4773TIP3    H114325   4.327   3.016   2.633 -0.4405  1.2281 -0.4859
 4773TIP3    H214326   4.223   2.954   2.724  0.0600  0.1175 -0.6520
 4774TIP3   OH214327   4.965   0.366   2.571  0.3609  0.1744  0.8336
 4774TIP3    H114328   4.982   0.300   2.504 -1.9520  0.1020  0.2154
 4774TIP3    H214329   4.971   0.318   2.654 -1.0882 -0.8419  0.4082
 4775TIP3   OH214330   1.467   1.840   4.073  0.2898 -0.1209  0.6393
 4775TIP3    H114331   1.529   1.768   4.083  0.2168 -0.3094 -0.2053
 4775TIP3    H214332   1.389   1.811   4.122 -0.7828 -1.8882 -1.8955
 4776TIP3   OH214333   0.782   1.619   1.794  0.6879 -0.3337  0.9062
 4776TIP3    H114334   0.838   1.670   1.853 -1.6813  1.8746  1.4809
 4776TIP3    H214335   0.701   1.670   1.789 -0.7683 -2.6120 -0.9678
 4777TIP3   OH214336   0.606   2.504   2.182 -0.0182 -0.5606  0.2708
 4777TIP3    H114337   0.672   2.555   2.134  0.7394 -2.1571 -0.4636
 4777TIP3    H214338   0.539   2.568   2.205  1.6461  1.0745  0.8086
 4778TIP3   OH214339   0.513   1.218   1.363  0.9435 -0.8383 -0.3201
 4778TIP3    H114340   0.601   1.252   1.347 -0.0015  0.8354 -2.5260
 4778TIP3    H214341   0.455   1.287   1.331 -1.2287 -1.3886  2.1418
 4779TIP3   OH214342   1.113   1.408   3.694  0.3575  0.4146  0.7868
 4779TIP3    H114343   1.198   1.423   3.652  0.6147  1.7151  1.7188
 4779TIP3    H214344   1.050   1.417   3.623  0.9643 -0.2813  0.1378
 4780TIP3   OH214345   0.442   4.681   2.451  0.3465 -0.4562  0.9068
 4780TIP3    H114346   0.525   4.726   2.465  0.9945 -1.2559 -0.2015
 4780TIP3    H214347   0.383   4.720   2.515  0.9491  1.7642  0.2012
 4781TIP3   OH214348   2.394   4.582   2.724 -0.2528 -0.5565 -0.6299
 4781TIP3    H114349   2.308   4.545   2.702 -1.5200  0.8441  1.5648
 4781TIP3    H214350   2.373   4.663   2.770  2.3321  1.3332 -2.4992
 4782TIP3   OH214351   1.812   3.584   0.803 -0.1939  0.7552 -0.4873
 4782TIP3    H114352   1.891   3.531   0.808 -0.6701  0.0689 -0.1901
 4782TIP3    H214353   1.781   3.590   0.894 -0.8089  0.5168 -0.6753
 4783TIP3   OH214354   3.398   4.375   0.842  0.5101  0.3356 -0.2411
 4783TIP3    H114355   3.366   4.415   0.923  1.0253  1.0168 -0.3654
 4783TIP3    H214356   3.469   4.317   0.870 -1.2819 -1.8212  0.1349
 4784TIP3   OH214357   4.156   1.347   1.679 -0.3567 -0.1252  0.2733
 4784TIP3    H114358   4.183   1.437   1.661  0.5664 -0.4470  0.0371
 4784TIP3    H214359   4.125   1.349   1.769  0.1081  0.3298  0.4249
 4785TIP3   OH214360   6.075   0.516   1.720 -0.3712 -0.2937 -0.2700
 4785TIP3    H114361   6.057   0.423   1.732 -0.1584 -0.1869  1.0220
 4785TIP3    H214362   5.989   0.557   1.717 -0.4567 -0.2655  1.6680
 4786TIP3   OH214363   2.892   5.897   4.702  0.2522 -0.0291  0.5685
 4786TIP3    H114364   2.890   5.820   4.759 -2.0032 -1.7579 -1.6527
 4786TIP3    H214365   2.967   5.882   4.644 -1.0923 -1.5113 -0.9122
 4787TIP3   OH214366   1.235   1.214   4.693  0.1467 -0.2404  0.0744
 4787TIP3    H114367   1.254   1.132   4.648  0.7593  0.6864 -1.4129
 4787TIP3    H214368   1.321   1.255   4.707 -0.1896  0.4179  0.2868
 4788TIP3   OH214369   4.479   3.668   4.318 -0.2623  0.3747  0.1058
 4788TIP3    H114370   4.401   3.616   4.300 -0.0485 -0.3353  1.1695
 4788TIP3    H214371   4.459   3.715   4.399  0.9588 -1.0263  1.2948
 4789TIP3   OH214372   0.084   1.875   0.551 -0.2171  0.4393  0.0071
 4789TIP3    H114373   0.019   1.864   0.481  1.8182 -1.6643 -1.7116
 4789TIP3    H214374   0.056   1.814   0.619  0.8061 -1.7873 -1.4777
 4790TIP3   OH214375   1.019   4.358   4.757  0.4931  0.1270  0.3065
 4790TIP3    H114376   0.991   4.390   4.671  0.1361 -0.4053  0.2198
 4790TIP3    H214377   0.945   4.306   4.789  0.4400  0.6880  1.1351
 4791TIP3   OH214378   5.032   4.983   3.359  0.0159  0.6000  0.3907
 4791TIP3    H114379   4.970   4.923   3.400 -0.0039  0.0070 -0.4838
 4791TIP3    H214380   5.110   4.977   3.414  1.1088 -2.5384 -1.2511
 4792TIP3   OH214381   6.108   5.682   2.942  0.3560  0.3233  0.4287
 4792TIP3    H114382   6.122   5.676   2.848  1.8181 -0.2224  0.6645
 4792TIP3    H214383   6.041   5.616   2.960 -3.4010  3.3863 -0.7929
 4793TIP3   OH214384   0.214   5.649   3.701 -0.5311  0.3300 -0.0752
 4793TIP3    H114385   0.158   5.571   3.711 -0.3766  0.3670  1.2871
 4793TIP3    H214386   0.275   5.644   3.775  1.2542  0.3358 -1.4838
 4794TIP3   OH214387   2.146   1.566   2.055 -0.1333 -0.0057 -0.0844
 4794TIP3    H114388   2.065   1.558   2.105  0.1804  0.7506  0.5567
 4794TIP3    H214389   2.199   1.491   2.083 -1.1133 -1.3102 -1.5201
 4795TIP3   OH214390   3.865   4.183   0.332 -0.2143 -0.1782 -0.3614
 4795TIP3    H114391   3.918   4.249   0.377 -0.2507 -1.9098  2.4266
 4795TIP3    H214392   3.928   4.126   0.288  0.3711 -1.8209  2.3757
 4796TIP3   OH214393   3.798   3.008   2.736 -0.3512 -0.2405 -0.8676
 4796TIP3    H114394   3.803   3.099   2.707  3.4343 -0.5087 -1.5500
 4796TIP3    H214395   3.799   2.957   2.655  0.1163 -0.9064 -0.4526
 4797TIP3   OH214396   6.191   1.408   1.569  0.0264  0.0913  0.1032
 4797TIP3    H114397   6.123   1.459   1.613 -0.3977 -1.5755  1.4929
 4797TIP3    H214398   6.177   1.425   1.476  1.6007  4.5786  0.4360
 4798TIP3   OH214399   2.443   1.623   0.826 -0.1961  0.1035  0.1770
 4798TIP3    H114400   2.424   1.652   0.915  1.4424 -1.0504  0.9576
 4798TIP3    H214401   2.527   1.663   0.806  0.5939 -1.5297  0.0923
 4799TIP3   OH214402   2.172   3.906   0.384 -0.4059  0.1723 -0.3158
 4799TIP3    H114403   2.228   3.982   0.399  0.4214 -0.8341  2.3062
 4799TIP3    H214404   2.225   3.848   0.329  0.5096 -0.0778  0.8014
 4800TIP3   OH214405   0.225   5.321   0.608  0.1534  0.2795  0.2415
 4800TIP3    H114406   0.261   5.237   0.582  0.3097  0.2800  0.4577
 4800TIP3    H214407   0.232   5.323   0.703  1.2987  1.0475  0.1630
 4801TIP3   OH214408   4.505   2.340   3.518  0.1750  0.8725  0.0954
 4801TIP3    H114409   4.476   2.428   3.494  0.2633  0.8759 -0.0043
 4801TIP3    H214410   4.479   2.329   3.609  0.3130  1.0666  0.1594
 4802TIP3   OH214411   2.559   4.797   4.369 -0.0154  0.3303  0.3075
 4802TIP3    H114412   2.484   4.824   4.422  0.5656  1.0449  0.7782
 4802TIP3    H214413   2.592   4.878   4.330 -0.5963 -0.2120 -1.3989
 4803TIP3   OH214414   0.429   3.048   0.569 -0.5153 -0.1893 -0.2184
 4803TIP3    H114415   0.500   2.992   0.600 -1.9200 -1.4119  0.9788
 4803TIP3    H214416   0.445   3.133   0.610 -0.0369 -0.6097  0.4857
 4804TIP3   OH214417   2.621   4.948   5.075  0.0931  0.3485 -0.1814
 4804TIP3    H114418   2.560   4.911   5.137  0.3752 -1.1753 -0.7694
 4804TIP3    H214419   2.566   4.993   5.011 -0.4283 -0.8263 -0.5889
 4805TIP3   OH214420   1.608   0.101   3.789 -0.0224 -0.1744 -0.2235
 4805TIP3    H114421   1.620   0.111   3.883  1.8205 -0.2335 -0.4182
 4805TIP3    H214422   1.694   0.073   3.757 -1.1680 -2.3338 -1.6346
 4806TIP3   OH214423   0.975   2.781   2.290  0.0419 -0.3060 -0.0419
 4806TIP3    H114424   0.992   2.799   2.197 -2.6152 -1.7020 -0.8964
 4806TIP3    H214425   0.980   2.686   2.298  0.6669 -0.1773  1.3794
 4807TIP3   OH214426   5.214   3.258   4.439 -0.2292 -0.0221 -0.3545
 4807TIP3    H114427   5.197   3.202   4.364  2.1329  1.0606 -1.8153
 4807TIP3    H214428   5.128   3.284   4.470 -1.3086  0.5533 -3.5258
 4808TIP3   OH214429   1.013   3.465   0.371 -0.0093 -0.2761  0.3324
 4808TIP3    H114430   1.005   3.374   0.343  0.6942  0.0426 -1.0066
 4808TIP3    H214431   1.108   3.480   0.376 -0.1080  0.5384 -0.0387
 4809TIP3   OH214432   0.106   2.523   0.852 -0.4771 -0.5170  0.0738
 4809TIP3    H114433   0.116   2.608   0.896 -0.8542  0.2463 -1.2886
 4809TIP3    H214434   0.196   2.499   0.827 -0.0686 -1.5614  2.2647
 4810TIP3   OH214435   3.129   1.013   2.752 -0.2840 -0.6360  0.5518
 4810TIP3    H114436   3.074   0.975   2.820 -1.9845  0.3630 -0.1888
 4810TIP3    H214437   3.079   1.089   2.721  1.3423  0.0763 -0.4604
 4811TIP3   OH214438   1.466   0.722   4.297 -0.3063 -0.3576 -0.2887
 4811TIP3    H114439   1.514   0.704   4.216 -3.9933  1.9894 -3.3396
 4811TIP3    H214440   1.393   0.660   4.296  0.4006 -1.3345  2.1881
 4812TIP3   OH214441   3.691   5.768   1.563 -0.6097  0.0654 -0.4578
 4812TIP3    H114442   3.773   5.790   1.519 -0.7269 -0.6762 -1.0598
 4812TIP3    H214443   3.693   5.673   1.572 -0.5696  0.1991  1.2102
 4813TIP3   OH214444   0.682   2.744   3.636  0.0696  0.0017 -0.7950
 4813TIP3    H114445   0.636   2.827   3.627 -2.0399 -1.2887 -3.0791
 4813TIP3    H214446   0.738   2.738   3.558  0.8556 -0.3667 -0.2201
 4814TIP3   OH214447   6.375   3.801   3.953  0.0325 -0.3338  0.4723
 4814TIP3    H114448   6.307   3.816   4.019  0.8252  3.1342  0.6903
 4814TIP3    H214449   6.326   3.781   3.873 -1.2223  0.6164  0.9548
 4815TIP3   OH214450   6.325   3.211   5.116 -0.0622  0.3447 -0.5741
 4815TIP3    H114451   6.403   3.175   5.159  1.4487  1.0691 -2.5363
 4815TIP3    H214452   6.259   3.143   5.125  0.6329 -0.1449  1.5056
 4816TIP3   OH214453   2.843   3.235   0.659 -0.3114 -0.1883 -0.6787
 4816TIP3    H114454   2.883   3.263   0.576 -0.5432 -0.6245 -0.9460
 4816TIP3    H214455   2.876   3.146   0.672 -0.8605 -0.4043 -0.6951
 4817TIP3   OH214456   0.720   2.129   1.100  0.4082  0.1341  0.1309
 4817TIP3    H114457   0.758   2.045   1.123  0.8167 -0.1345 -1.4045
 4817TIP3    H214458   0.785   2.170   1.043  0.2237  1.5123  0.8719
 4818TIP3   OH214459   5.375   1.618   2.290 -0.4370  0.1810  0.5640
 4818TIP3    H114460   5.438   1.574   2.234 -0.3872  1.2327 -0.2193
 4818TIP3    H214461   5.326   1.547   2.332 -1.3871 -0.6579 -1.8250
 4819TIP3   OH214462   5.933   3.821   0.106  0.4023 -0.5647  0.4830
 4819TIP3    H114463   5.861   3.769   0.141  0.0958 -1.2828 -1.1310
 4819TIP3    H214464   6.011   3.787   0.149  0.0686 -1.6168  0.2822
 4820TIP3   OH214465   3.266   3.096   2.370  0.0415  0.2983 -0.0043
 4820TIP3    H114466   3.219   3.170   2.408 -1.4637 -0.6707  0.1278
 4820TIP3    H214467   3.302   3.048   2.445 -2.6024 -1.4007  0.3060
 4821TIP3   OH214468   5.653   1.533   2.351 -0.6430  0.2693  0.3326
 4821TIP3    H114469   5.743   1.551   2.323 -0.4454 -1.3722 -0.1867
 4821TIP3    H214470   5.601   1.540   2.270 -0.5936 -1.1205  0.1550
 4822TIP3   OH214471   2.884   2.597   3.102  0.3982 -1.7169  0.0343
 4822TIP3    H114472   2.805   2.542   3.101  0.7222 -2.2021  0.5597
 4822TIP3    H214473   2.862   2.672   3.047 -0.0202 -2.4261 -0.7907
 4823TIP3   OH214474   5.773   5.473   3.387 -0.1094  0.7351 -0.1111
 4823TIP3    H114475   5.780   5.408   3.317 -1.8124 -0.8078  1.0590
 4823TIP3    H214476   5.795   5.425   3.467  2.6486  2.6619  0.4579
 4824TIP3   OH214477   6.211   3.735   1.215 -0.3409  0.1788  0.2859
 4824TIP3    H114478   6.288   3.689   1.182 -1.8462 -2.1257 -0.2535
 4824TIP3    H214479   6.175   3.677   1.282 -1.6721  1.1237  0.4272
 4825TIP3   OH214480   0.363   3.163   4.925 -0.2724 -0.1593  0.3235
 4825TIP3    H114481   0.389   3.175   4.834 -0.7585  1.9793  0.3958
 4825TIP3    H214482   0.357   3.068   4.937 -1.9797 -0.4997 -2.3854
 4826TIP3   OH214483   1.632   3.080   3.790 -0.5424  0.4162  0.0332
 4826TIP3    H114484   1.726   3.071   3.807 -0.9637  0.5014  2.8772
 4826TIP3    H214485   1.608   3.001   3.742  1.1778  1.0319 -1.9883
 4827TIP3   OH214486   4.181   2.077   0.658 -0.2836 -0.0995  0.0929
 4827TIP3    H114487   4.212   2.088   0.568 -1.0760  1.5900 -0.0184
 4827TIP3    H214488   4.224   1.997   0.689  0.4970 -0.3645 -1.5663
 4828TIP3   OH214489   0.472   4.796   2.028 -0.2101  0.1443  0.3313
 4828TIP3    H114490   0.536   4.765   2.091 -0.7044 -0.4533  0.5480
 4828TIP3    H214491   0.430   4.716   1.995 -1.6169  0.5658  1.0225
 4829TIP3   OH214492   0.505   1.563   1.510  0.0699 -0.5321 -0.3404
 4829TIP3    H114493   0.489   1.574   1.416  0.6388 -1.0250 -0.5095
 4829TIP3    H214494   0.433   1.508   1.540 -0.6166  0.3732 -0.2906
 4830TIP3   OH214495   5.413   0.815   2.729 -0.0721 -0.1663  0.1231
 4830TIP3    H114496   5.389   0.754   2.659 -1.3210  0.3871  0.0431
 4830TIP3    H214497   5.400   0.902   2.691  2.8530  0.2688 -0.1874
 4831TIP3   OH214498   4.439   1.762   2.228 -0.0221 -0.1938 -0.1921
 4831TIP3    H114499   4.515   1.782   2.174 -0.1080  3.4372  0.7538
 4831TIP3    H214500   4.474   1.717   2.305  1.0057  0.3473 -0.3369
 4832TIP3   OH214501   2.376   4.070   1.694 -0.2528 -0.4967 -0.0212
 4832TIP3    H114502   2.339   4.142   1.642 -0.8990 -1.8475 -1.5029
 4832TIP3    H214503   2.465   4.060   1.661  0.8776  1.3935  2.1330
 4833TIP3   OH214504   4.800   1.374   0.543  0.1866  0.3859 -0.2152
 4833TIP3    H114505   4.841   1.323   0.474 -0.3687 -1.6708  0.9055
 4833TIP3    H214506   4.708   1.379   0.519 -0.0204 -0.3874  0.3787
 4834TIP3   OH214507   2.511   1.973   1.640 -0.5633  0.5504 -0.2856
 4834TIP3    H114508   2.420   1.989   1.616 -0.3087  1.0725 -0.9176
 4834TIP3    H214509   2.529   2.035   1.711 -0.6264  0.6274 -0.3369
 4835TIP3   OH214510   4.022   1.608   2.345  0.0202  0.2962 -0.3494
 4835TIP3    H114511   4.071   1.690   2.356  0.7114 -0.3062  1.3798
 4835TIP3    H214512   4.080   1.553   2.293 -0.0797  0.5878 -0.7788
 4836TIP3   OH214513   5.607   2.593   1.507 -0.0797 -0.0512 -0.0005
 4836TIP3    H114514   5.669   2.597   1.434 -0.3204  0.8906 -0.1567
 4836TIP3    H214515   5.635   2.662   1.566 -1.8951  1.4491 -0.8057
 4837TIP3   OH214516   0.043   4.933   4.005 -0.2652  0.1105 -0.0243
 4837TIP3    H114517   0.006   4.846   3.993 -1.6884  0.7355 -0.3189
 4837TIP3    H214518   0.072   4.960   3.918  1.4213 -0.5839  0.2904
 4838TIP3   OH214519   3.985   5.133   1.157 -0.1558  0.1379 -0.2176
 4838TIP3    H114520   3.962   5.089   1.238  1.0689 -2.3140 -1.1032
 4838TIP3    H214521   3.905   5.131   1.104  0.3653 -3.1772 -1.0854
 4839TIP3   OH214522   2.360   4.829   5.079  0.1687 -0.0938  0.4580
 4839TIP3    H114523   2.297   4.826   5.007 -1.8677 -1.9817  2.1675
 4839TIP3    H214524   2.426   4.764   5.055 -0.8328 -1.1724  0.5063
 4840TIP3   OH214525   1.989   4.883   3.498 -0.3348 -0.0928 -0.3205
 4840TIP3    H114526   2.053   4.903   3.566  0.4624 -0.7004 -0.8898
 4840TIP3    H214527   1.964   4.969   3.463  0.0380  0.1507  0.0013
 4841TIP3   OH214528   4.164   5.187   2.464 -0.2119 -0.3239 -0.2745
 4841TIP3    H114529   4.198   5.099   2.448  0.9426  0.3368 -1.5957
 4841TIP3    H214530   4.199   5.241   2.393 -1.9257  0.9611 -0.2171
 4842TIP3   OH214531   5.197   3.297   2.784 -0.1723  0.3241  0.1330
 4842TIP3    H114532   5.157   3.216   2.815 -1.5780  0.9966  0.1687
 4842TIP3    H214533   5.234   3.275   2.698  1.1727 -0.8152  0.9633
 4843TIP3   OH214534   0.511   0.934   3.506  0.1395 -0.2533 -0.2139
 4843TIP3    H114535   0.455   0.966   3.577  1.0594 -0.1352  0.4789
 4843TIP3    H214536   0.587   0.896   3.551 -0.2128 -2.0583 -1.0682
 4844TIP3   OH214537   0.218   5.345   1.222  0.2508 -0.1391 -0.5254
 4844TIP3    H114538   0.162   5.381   1.154  0.9677  0.7869 -0.6492
 4844TIP3    H214539   0.165   5.350   1.302 -0.5540 -1.1435 -0.9807
 4845TIP3   OH214540   1.517   2.698   0.499 -0.3151  0.0373  0.3908
 4845TIP3    H114541   1.495   2.656   0.415  0.2675  0.1624  0.1699
 4845TIP3    H214542   1.527   2.790   0.477 -1.3279  0.2656  0.8264
 4846TIP3   OH214543   1.209   0.288   0.464 -0.1980  0.4172  0.3049
 4846TIP3    H114544   1.115   0.274   0.471 -0.0320 -1.4859 -0.4730
 4846TIP3    H214545   1.237   0.229   0.393  1.2531  2.6085 -1.0901
 4847TIP3   OH214546   1.017   0.231   4.233  0.1485 -0.2875 -0.5335
 4847TIP3    H114547   1.019   0.150   4.181  0.3121 -0.2264 -0.6248
 4847TIP3    H214548   1.100   0.274   4.212 -0.4829  0.5083 -1.4500
 4848TIP3   OH214549   2.888   5.862   1.074 -0.2620 -0.0954 -0.3994
 4848TIP3    H114550   2.901   5.774   1.109  0.5489  0.8502  1.8691
 4848TIP3    H214551   2.803   5.889   1.107 -0.9945 -0.3756 -1.9731
 4849TIP3   OH214552   2.059   5.539   3.251  0.2515 -0.0179  0.5254
 4849TIP3    H114553   2.070   5.619   3.302  1.2915  0.0330  0.2416
 4849TIP3    H214554   2.112   5.553   3.172 -2.8938  0.7658 -1.6316
 4850TIP3   OH214555   5.318   0.140   2.874  0.0371  0.2752 -0.1681
 4850TIP3    H114556   5.405   0.165   2.843  0.1552 -1.8094 -1.7082
 4850TIP3    H214557   5.304   0.195   2.951  1.0690  3.4401 -2.0305
 4851TIP3   OH214558   3.407   3.603   4.657 -0.1072 -0.2953  0.2202
 4851TIP3    H114559   3.417   3.514   4.623  0.9625  0.0626 -0.4690
 4851TIP3    H214560   3.368   3.652   4.585  0.3580  0.0365  0.1884
 4852TIP3   OH214561   3.024   2.679   2.795 -0.2259 -0.8388 -0.0497
 4852TIP3    H114562   3.076   2.691   2.874 -0.3219 -0.9384  0.0296
 4852TIP3    H214563   2.945   2.732   2.811  0.5273  0.5602 -0.8119
 4853TIP3   OH214564   4.905   3.142   0.848  0.1358 -0.5016 -0.0545
 4853TIP3    H114565   4.933   3.109   0.934 -0.2413 -0.5087  0.0690
 4853TIP3    H214566   4.941   3.080   0.786  2.9964  1.0932 -0.1612
 4854TIP3   OH214567   3.158   4.798   4.116 -0.3957  0.7791  0.1677
 4854TIP3    H114568   3.115   4.882   4.132 -0.1307  1.0432 -0.4755
 4854TIP3    H214569   3.159   4.789   4.021  0.7870  0.6912  0.1714
 4855TIP3   OH214570   2.614   1.360   0.938  0.6518  0.2312  0.4200
 4855TIP3    H114571   2.541   1.420   0.955  0.3814  0.2471 -0.7443
 4855TIP3    H214572   2.672   1.409   0.880  0.2873 -0.7258 -0.7774
 4856TIP3   OH214573   0.724   1.151   3.014  0.2624 -0.0650  0.9074
 4856TIP3    H114574   0.658   1.219   3.031  1.0300  1.1830 -0.7198
 4856TIP3    H214575   0.673   1.073   2.992 -0.6756  0.6028  0.6586
 4857TIP3   OH214576   0.897   2.421   3.754 -0.2005  0.2847  0.0080
 4857TIP3    H114577   0.985   2.436   3.789  0.4792  0.9521 -1.8622
 4857TIP3    H214578   0.851   2.375   3.824  2.0966 -1.4847  0.4973
 4858TIP3   OH214579   5.138   5.050   0.043 -0.0082 -0.0782 -0.0037
 4858TIP3    H114580   5.078   5.081  -0.026  2.7836  0.7646 -2.2478
 4858TIP3    H214581   5.138   5.120   0.108 -0.5672  0.4437 -0.5508
 4859TIP3   OH214582   5.518   2.378   1.155  0.1970  0.0683  0.2952
 4859TIP3    H114583   5.511   2.472   1.168 -1.6663 -0.0416  0.3517
 4859TIP3    H214584   5.444   2.341   1.203  0.6847 -1.3999 -0.0162
 4860TIP3   OH214585   5.399   3.107   1.821 -0.5143  0.2461  0.1300
 4860TIP3    H114586   5.467   3.057   1.867 -0.5043  0.1833  0.0464
 4860TIP3    H214587   5.322   3.101   1.878 -0.2368  0.9585  0.6089
 4861TIP3   OH214588   3.335   5.623   0.518  0.2830  0.1654 -0.0963
 4861TIP3    H114589   3.247   5.659   0.508  0.4499  0.3612 -0.9792
 4861TIP3    H214590   3.339   5.594   0.609 -0.8142 -0.1784 -0.1367
 4862TIP3   OH214591   4.473   5.893   3.941  0.0317  0.4977  0.7899
 4862TIP3    H114592   4.554   5.843   3.949  0.6927  1.3999  0.0504
 4862TIP3    H214593   4.418   5.842   3.883 -0.8033 -1.1585  2.9254
 4863TIP3   OH214594   2.301   2.977   0.329 -0.3013  0.1447  0.7310
 4863TIP3    H114595   2.370   2.944   0.272 -0.3092 -0.1179  0.8728
 4863TIP3    H214596   2.322   2.941   0.415  0.8279  2.0869  1.3503
 4864TIP3   OH214597   4.802   0.731   4.277  0.6985 -0.1819 -0.4453
 4864TIP3    H114598   4.889   0.722   4.239  0.5560 -0.3961 -0.7288
 4864TIP3    H214599   4.776   0.642   4.300  1.2618  0.0701  1.2749
 4865TIP3   OH214600   1.839   3.072   4.503 -0.2683  0.3930  0.0534
 4865TIP3    H114601   1.881   3.079   4.589 -1.3764 -0.8961  0.7288
 4865TIP3    H214602   1.903   3.024   4.449  0.7947  1.9439 -0.1343
 4866TIP3   OH214603   4.524   4.153   2.109 -1.1293  0.4008 -0.1194
 4866TIP3    H114604   4.501   4.246   2.110 -1.9745  0.1951  0.2566
 4866TIP3    H214605   4.579   4.143   2.032 -0.2282  1.4012  0.3695
 4867TIP3   OH214606   0.080   3.293   2.081  0.0187  0.6534  0.6654
 4867TIP3    H114607   0.167   3.253   2.073 -1.6464 -3.0129 -2.1145
 4867TIP3    H214608   0.034   3.238   2.145 -0.6435  1.9311  1.3340
 4868TIP3   OH214609   4.259   1.697   5.077 -0.1002 -0.3147  0.5953
 4868TIP3    H114610   4.264   1.791   5.059 -0.0347 -0.7185 -1.8170
 4868TIP3    H214611   4.217   1.660   4.999  2.2706 -2.6130  0.2762
 4869TIP3   OH214612   0.903   0.166   0.468 -0.4193 -0.9452  0.1042
 4869TIP3    H114613   0.931   0.075   0.472 -2.5154 -1.5946  2.6201
 4869TIP3    H214614   0.871   0.177   0.378  1.3618 -2.1391 -0.7357
 4870TIP3   OH214615   2.968   1.270   2.591 -0.4009 -0.0433 -0.6612
 4870TIP3    H114616   2.957   1.188   2.543 -0.9522 -1.2902  1.4541
 4870TIP3    H214617   2.884   1.282   2.636  1.1114 -0.8023  2.6414
 4871TIP3   OH214618   3.568   4.017   0.196 -0.3481  0.0567  1.3005
 4871TIP3    H114619   3.501   3.949   0.203 -1.7395  1.1624 -0.4883
 4871TIP3    H214620   3.559   4.068   0.276  0.3603 -1.5078  2.4207
 4872TIP3   OH214621   0.990   0.865   0.820  0.1988 -0.8312  0.0238
 4872TIP3    H114622   1.081   0.892   0.831 -0.0833 -0.3414  1.2920
 4872TIP3    H214623   0.984   0.780   0.864  0.3846 -1.6163 -1.3992
 4873TIP3   OH214624   0.465   1.853   4.317  0.3633 -0.3630 -0.1199
 4873TIP3    H114625   0.461   1.840   4.222  0.8987 -0.6460 -0.1080
 4873TIP3    H214626   0.530   1.789   4.347  1.2134  0.6508  0.2660
 4874TIP3   OH214627   5.957   1.222   4.939 -0.0096  0.2278  0.8654
 4874TIP3    H114628   5.951   1.314   4.964 -1.0960  0.7056 -1.0056
 4874TIP3    H214629   6.051   1.206   4.928  0.1264  1.5181 -0.1258
 4875TIP3   OH214630   5.323   5.610   3.237 -0.4857 -0.6328 -0.4335
 4875TIP3    H114631   5.240   5.613   3.284  0.9633  1.8563  2.2886
 4875TIP3    H214632   5.382   5.562   3.296  0.8070  0.5318 -0.7281
 4876TIP3   OH214633   2.765   0.065   1.374  0.1299 -0.0939 -0.0776
 4876TIP3    H114634   2.713   0.100   1.301  0.8040 -1.7024 -1.3962
 4876TIP3    H214635   2.854   0.092   1.356  0.3771 -0.9126 -0.1263
 4877TIP3   OH214636   6.395   5.715   0.192 -0.1884  0.0691 -0.2465
 4877TIP3    H114637   6.339   5.654   0.239  0.0397 -0.9037 -1.1828
 4877TIP3    H214638   6.336   5.786   0.166  0.0253  1.6469  3.0518
 4878TIP3   OH214639   5.673   0.976   1.489 -0.2543 -0.0853 -0.0665
 4878TIP3    H114640   5.687   0.896   1.438 -1.4129 -0.9477  0.9116
 4878TIP3    H214641   5.699   0.953   1.578  0.3247  0.9399  0.0472
 4879TIP3   OH214642   3.967   1.047   2.726 -0.3750 -0.1766  0.1521
 4879TIP3    H114643   4.033   1.058   2.794 -0.7980  0.2675  0.4963
 4879TIP3    H214644   3.918   1.129   2.727 -0.8787 -0.4716 -0.1527
 4880TIP3   OH214645   1.332   5.267   2.578  0.6522  0.0579  0.5441
 4880TIP3    H114646   1.260   5.331   2.579 -0.5017 -1.0188 -2.1136
 4880TIP3    H214647   1.378   5.281   2.660 -1.6949  1.8469  1.6831
 4881TIP3   OH214648   3.285   5.151   0.540 -0.2233 -0.4246 -0.3592
 4881TIP3    H114649   3.371   5.163   0.581  0.3294 -1.6905 -1.0980
 4881TIP3    H214650   3.302   5.149   0.446 -0.9577 -1.4196 -0.4879
 4882TIP3   OH214651   5.232   2.826   0.370  0.1625  0.1292 -0.5424
 4882TIP3    H114652   5.182   2.747   0.391  0.8302 -0.6245 -1.6893
 4882TIP3    H214653   5.213   2.886   0.442 -0.8269 -0.8550  0.0505
 4883TIP3   OH214654   5.123   2.577   4.298  0.0869 -0.6823  0.0683
 4883TIP3    H114655   5.125   2.571   4.394 -0.9927 -2.5560  0.0224
 4883TIP3    H214656   5.204   2.623   4.275 -0.0440  0.5681  1.9040
 4884TIP3   OH214657   6.228   3.949   1.643 -0.6757  0.5707  0.6746
 4884TIP3    H114658   6.182   3.866   1.634 -2.0077  1.3434  0.0655
 4884TIP3    H214659   6.321   3.925   1.642 -1.0397 -1.0286  1.9800
 4885TIP3   OH214660   3.168   2.865   3.626  0.7801 -0.2454 -0.0520
 4885TIP3    H114661   3.096   2.923   3.601 -0.7134 -1.8970  0.1679
 4885TIP3    H214662   3.237   2.924   3.655 -0.3029  1.4378 -0.6969
 4886TIP3   OH214663   2.657   0.095   1.051  0.4184 -0.1398  0.4350
 4886TIP3    H114664   2.591   0.047   1.101  0.0099 -0.8844 -0.7758
 4886TIP3    H214665   2.724   0.030   1.030  0.4746  0.1066 -0.1644
 4887TIP3   OH214666   6.183   4.957   4.948 -0.0966 -0.5778  0.1509
 4887TIP3    H114667   6.141   4.999   4.873  0.2830  1.8972  1.2075
 4887TIP3    H214668   6.122   4.971   5.021  0.6252 -0.7453  0.7990
 4888TIP3   OH214669   3.976   2.537   4.932 -0.2500  0.7688  0.0254
 4888TIP3    H114670   4.012   2.507   5.016 -0.9997  0.8440  0.3851
 4888TIP3    H214671   3.884   2.556   4.952 -1.1500 -1.6774 -1.3842
 4889TIP3   OH214672   3.368   1.178   1.839  0.5350 -0.2709  0.0755
 4889TIP3    H114673   3.325   1.177   1.925  1.3508 -1.6927  0.4983
 4889TIP3    H214674   3.460   1.195   1.859  0.6604 -0.1778 -0.5592
 4890TIP3   OH214675   4.207   5.420   0.414 -0.1307 -0.2013  0.2422
 4890TIP3    H114676   4.195   5.397   0.321 -1.9772  0.9641  0.1480
 4890TIP3    H214677   4.150   5.359   0.461 -2.2558  1.6828  0.2590
 4891TIP3   OH214678   2.449   5.390   4.766  0.3593  0.3424  0.4678
 4891TIP3    H114679   2.523   5.449   4.748 -2.0931  3.5861  0.2603
 4891TIP3    H214680   2.413   5.371   4.680 -0.2488  0.4683  0.6922
 4892TIP3   OH214681   5.193   1.545   3.407  0.2991  0.5463 -0.4078
 4892TIP3    H114682   5.272   1.590   3.438 -0.2300  0.3630  1.3074
 4892TIP3    H214683   5.218   1.453   3.401  1.4025  0.9609 -3.9861
 4893TIP3   OH214684   5.409   2.944   2.155  0.2367  0.0408  0.4960
 4893TIP3    H114685   5.367   2.860   2.139  2.2608 -1.0054  0.3601
 4893TIP3    H214686   5.424   2.946   2.249 -0.6865  0.7099  0.6381
 4894TIP3   OH214687   4.487   1.643   0.719  0.4365 -0.4336 -0.0866
 4894TIP3    H114688   4.453   1.624   0.632  0.2633 -1.7770  0.2542
 4894TIP3    H214689   4.579   1.664   0.705  0.1070  0.6773 -0.7215
 4895TIP3   OH214690   5.308   4.434   0.188 -0.3646 -0.4087  0.4258
 4895TIP3    H114691   5.263   4.515   0.164 -1.2207 -0.3152  2.2133
 4895TIP3    H214692   5.398   4.448   0.161 -0.7657  0.6279 -0.4454
 4896TIP3   OH214693   1.591   2.979   0.393  0.2824  0.2395 -0.1356
 4896TIP3    H114694   1.615   3.026   0.473 -0.7962  0.4452  0.0863
 4896TIP3    H214695   1.495   2.986   0.389  0.3009  0.0506 -1.3376
 4897TIP3   OH214696   2.767   2.019   0.536 -0.4383  0.1881 -0.2567
 4897TIP3    H114697   2.848   2.036   0.489  0.2948 -0.3078  0.7987
 4897TIP3    H214698   2.706   1.989   0.469  0.0941  1.0439 -1.1391
 4898TIP3   OH214699   2.186   5.326   1.848  0.1114  0.1707 -0.2118
 4898TIP3    H114700   2.187   5.230   1.855  0.2090  0.1283 -0.7350
 4898TIP3    H214701   2.095   5.348   1.830 -0.2772  0.3364  1.7614
 4899TIP3   OH214702   3.384   3.914   3.234  0.3137 -0.0414 -0.4109
 4899TIP3    H114703   3.358   4.000   3.266  2.6578  1.1120 -1.2880
 4899TIP3    H214704   3.369   3.918   3.139  0.9133 -0.3701 -0.5291
 4900TIP3   OH214705   3.926   2.520   2.938 -0.3204  0.5863  0.1684
 4900TIP3    H114706   3.945   2.588   3.003 -0.1899  1.6943 -0.9933
 4900TIP3    H214707   4.012   2.484   2.916 -0.3863  0.0481  0.7599
 4901TIP3   OH214708   2.247   5.077   3.974 -0.4270 -0.0115  0.0802
 4901TIP3    H114709   2.250   5.146   4.040 -1.4965 -0.4833  0.6446
 4901TIP3    H214710   2.289   5.001   4.016 -1.3149 -0.3817  0.3120
 4902TIP3   OH214711   4.235   0.030   2.025 -0.1967  0.9963 -0.1016
 4902TIP3    H114712   4.260   0.122   2.019 -0.1464  0.9418 -0.7605
 4902TIP3    H214713   4.156   0.023   1.971  0.1071  0.5485 -0.4985
 4903TIP3   OH214714   4.116   5.533   1.863  0.0205  0.3113 -0.0275
 4903TIP3    H114715   4.043   5.534   1.926  0.3939 -2.2343  0.5143
 4903TIP3    H214716   4.182   5.590   1.902 -1.6730  2.8587 -0.6318
 4904TIP3   OH214717   5.619   4.444   1.317 -0.4702 -0.5085 -0.2992
 4904TIP3    H114718   5.702   4.477   1.283 -0.1046  2.0662  2.6125
 4904TIP3    H214719   5.641   4.405   1.402 -2.2754  1.3749  1.1383
 4905TIP3   OH214720   5.867   3.685   4.294  0.8371  0.0357 -0.0278
 4905TIP3    H114721   5.921   3.612   4.325  0.1117  0.1385  1.5453
 4905TIP3    H214722   5.788   3.643   4.259  0.5552  0.0378  0.5941
 4906TIP3   OH214723   5.404   2.331   0.492  0.2764 -0.3195  0.0498
 4906TIP3    H114724   5.321   2.324   0.539  1.0993 -1.1512  1.4545
 4906TIP3    H214725   5.462   2.376   0.553  1.2274 -0.9339 -0.3846
 4907TIP3   OH214726   3.235   5.183   3.896  0.3184 -0.1458  0.0878
 4907TIP3    H114727   3.312   5.148   3.939  0.4492  1.9067  1.6923
 4907TIP3    H214728   3.256   5.275   3.880 -1.2398  0.0983 -0.8264
 4908TIP3   OH214729   1.009   0.945   1.521 -0.2948 -0.8649 -0.1497
 4908TIP3    H114730   0.930   0.968   1.569 -0.7475 -1.5018 -0.5711
 4908TIP3    H214731   0.978   0.897   1.444  0.4478 -0.3282 -0.8031
 4909TIP3   OH214732   6.336   0.230   0.934 -0.0626 -0.1915 -0.6182
 4909TIP3    H114733   6.253   0.258   0.897  0.4442  2.0858 -0.1895
 4909TIP3    H214734   6.402   0.279   0.884  0.8892 -0.4436  0.3502
 4910TIP3   OH214735   2.775   5.730   3.945 -0.0615  0.3822  0.1881
 4910TIP3    H114736   2.868   5.752   3.940  0.4890 -1.4157  1.5844
 4910TIP3    H214737   2.764   5.655   3.887 -0.5177  0.2435  0.4483
 4911TIP3   OH214738   0.923   1.382   3.022  0.7289  0.3197 -0.4904
 4911TIP3    H114739   0.874   1.304   2.997  0.3308  1.0335 -2.0555
 4911TIP3    H214740   0.857   1.451   3.027  1.1652  0.7001  0.2744
 4912TIP3   OH214741   2.145   3.404   2.520  0.8740  0.2012  0.4494
 4912TIP3    H114742   2.229   3.423   2.477  1.8213 -1.9540  1.2077
 4912TIP3    H214743   2.167   3.340   2.587 -1.3095  0.0845  1.1080
 4913TIP3   OH214744   2.182   1.101   2.903 -0.4603  0.4369 -0.2422
 4913TIP3    H114745   2.171   1.196   2.904 -1.3367  0.3355  0.2032
 4913TIP3    H214746   2.271   1.088   2.870  0.5108  1.4954  1.7239
 4914TIP3   OH214747   0.142   2.376   3.225  0.3112  0.1244  0.1740
 4914TIP3    H114748   0.143   2.317   3.300 -1.8578  1.7369  1.5596
 4914TIP3    H214749   0.209   2.442   3.246 -0.2119  0.5083  0.6623
 4915TIP3   OH214750   0.461   0.288   2.339  0.3938  0.2565 -0.1372
 4915TIP3    H114751   0.475   0.360   2.277 -0.3909  1.0060  0.5365
 4915TIP3    H214752   0.387   0.239   2.303  0.8863 -0.1909 -0.5611
 4916TIP3   OH214753   5.241   0.341   2.081  0.6858 -0.6024  0.7548
 4916TIP3    H114754   5.313   0.400   2.061 -0.0414  0.4017  1.0401
 4916TIP3    H214755   5.230   0.348   2.175 -0.3679 -0.0478  0.6024
 4917TIP3   OH214756   5.674   3.627   4.521 -0.1252 -0.2829 -0.0347
 4917TIP3    H114757   5.660   3.610   4.428  0.0589 -0.1520 -0.0862
 4917TIP3    H214758   5.598   3.678   4.548 -0.3070 -0.5403 -0.0542
 4918TIP3   OH214759   2.637   0.132   4.560 -0.7617  0.5950 -0.8356
 4918TIP3    H114760   2.564   0.182   4.596 -1.6499 -0.6856 -0.7629
 4918TIP3    H214761   2.672   0.084   4.635 -0.8925 -0.0283 -1.1675
 4919TIP3   OH214762   2.757   2.934   5.146  0.1023  0.0323 -0.0354
 4919TIP3    H114763   2.722   2.845   5.146 -0.2265  0.1498 -0.9119
 4919TIP3    H214764   2.691   2.986   5.192 -0.3323  0.0397 -0.6482
 4920TIP3   OH214765   4.541   3.401   3.746  0.9665 -0.5612  0.1612
 4920TIP3    H114766   4.479   3.331   3.723  1.8573 -1.3183 -0.0324
 4920TIP3    H214767   4.579   3.427   3.662  1.6287 -0.8167  0.3726
 4921TIP3   OH214768   1.113   2.871   1.318 -0.2540  0.0831  0.0985
 4921TIP3    H114769   1.097   2.953   1.363 -0.8971 -0.1323  0.2673
 4921TIP3    H214770   1.201   2.881   1.281  0.1145  0.4203  1.0387
 4922TIP3   OH214771   1.581   0.074   2.178 -0.7209 -0.1633  0.4617
 4922TIP3    H114772   1.555   0.036   2.262 -0.6796  0.9200  0.9776
 4922TIP3    H214773   1.521   0.035   2.114  1.1120 -3.3183  0.4510
 4923TIP3   OH214774   6.211   1.227   3.743 -0.3854  1.0358  0.2532
 4923TIP3    H114775   6.181   1.136   3.741 -0.0212  0.8251  2.3284
 4923TIP3    H214776   6.136   1.277   3.708 -1.4603  0.1214  1.1594
 4924TIP3   OH214777   4.914   2.595   0.167  0.1489 -0.2566  0.1145
 4924TIP3    H114778   4.956   2.569   0.085 -0.2235 -0.5042  0.0019
 4924TIP3    H214779   4.976   2.566   0.235 -0.7510 -2.5098  0.0595
 4925TIP3   OH214780   3.337   1.883   4.410  0.1557  0.2708 -0.9780
 4925TIP3    H114781   3.322   1.800   4.364 -1.4581  0.1623 -0.3060
 4925TIP3    H214782   3.308   1.866   4.500  4.2429  0.1305  0.5441
 4926TIP3   OH214783   1.966   4.860   3.176 -0.0598  0.1304  0.2415
 4926TIP3    H114784   1.997   4.938   3.130 -0.3835 -0.5035 -1.0884
 4926TIP3    H214785   1.871   4.870   3.177 -0.1238 -0.3838 -0.2143
 4927TIP3   OH214786   1.585   5.092   0.320 -0.4216  0.4438 -0.4318
 4927TIP3    H114787   1.649   5.054   0.380 -1.2989 -1.2244 -0.4973
 4927TIP3    H214788   1.524   5.021   0.303 -1.1667  1.4125 -1.9436
 4928TIP3   OH214789   0.960   0.759   0.576  0.1416 -0.6647  0.3777
 4928TIP3    H114790   0.978   0.811   0.654 -0.3143  0.1757 -0.0628
 4928TIP3    H214791   0.971   0.668   0.604  1.9381 -0.3314  0.9180
 4929TIP3   OH214792   4.113   1.189   1.048  0.3179  0.1799 -0.1120
 4929TIP3    H114793   4.206   1.208   1.037  0.1695  2.1319  1.4145
 4929TIP3    H214794   4.109   1.128   1.121  0.3993  0.5045  0.1695
 4930TIP3   OH214795   2.475   3.184   4.322  0.3674 -0.0356  0.1613
 4930TIP3    H114796   2.395   3.150   4.281  0.4320  1.2152 -1.1024
 4930TIP3    H214797   2.532   3.108   4.330 -0.7783 -0.8651  0.6771
 4931TIP3   OH214798   2.025   3.212   4.120 -0.1184 -0.4849 -0.5542
 4931TIP3    H114799   2.030   3.283   4.184  1.3779  0.3089 -1.4996
 4931TIP3    H214800   2.053   3.251   4.038  0.6360 -2.1337 -1.1326
 4932TIP3   OH214801   2.859   1.480   3.854  0.2606 -0.3395  0.2137
 4932TIP3    H114802   2.822   1.567   3.839  0.5191 -0.0683  1.1205
 4932TIP3    H214803   2.789   1.431   3.897  0.0985 -0.6039 -0.3380
 4933TIP3   OH214804   3.348   3.789   1.439  0.2515  0.2238  0.0017
 4933TIP3    H114805   3.278   3.759   1.381  0.9939  0.5087 -1.0814
 4933TIP3    H214806   3.415   3.824   1.380  1.6110 -0.6526  0.9653
 4934TIP3   OH214807   5.066   5.310   3.104 -0.3412  0.1424  0.0223
 4934TIP3    H114808   5.117   5.243   3.148  0.5701  1.4765  1.0788
 4934TIP3    H214809   4.991   5.326   3.161 -1.7774 -1.4443 -1.2767
 4935TIP3   OH214810   0.810   1.904   0.877 -0.3458 -0.0837  0.4845
 4935TIP3    H114811   0.875   1.971   0.859  1.6991 -2.2338 -0.5956
 4935TIP3    H214812   0.837   1.865   0.959  0.3042 -1.5796 -0.4083
 4936TIP3   OH214813   1.546   4.405   3.026 -0.8575 -0.0787 -0.5161
 4936TIP3    H114814   1.541   4.420   3.120 -0.5696 -2.5610 -0.0176
 4936TIP3    H214815   1.633   4.435   3.002 -0.1067 -1.3577  0.4738
 4937TIP3   OH214816   3.305   2.955   1.279  0.3680  0.3462 -0.3299
 4937TIP3    H114817   3.327   3.037   1.236  0.1979  1.7386  2.1034
 4937TIP3    H214818   3.378   2.938   1.338 -1.2600  0.8155  1.9641
 4938TIP3   OH214819   5.520   3.119   4.571 -0.5480 -0.1199  0.3874
 4938TIP3    H114820   5.589   3.155   4.627  0.3983 -0.0986 -0.7520
 4938TIP3    H214821   5.439   3.134   4.619  0.0469  1.5570  0.9183
 4939TIP3   OH214822   0.348   0.519   4.059 -0.4480 -0.6631 -0.0388
 4939TIP3    H114823   0.408   0.479   3.996 -0.3080  1.0064 -1.0579
 4939TIP3    H214824   0.405   0.568   4.118 -0.6940 -0.6723  0.2075
 4940TIP3   OH214825   5.544   5.387   5.155  0.5913 -0.0455  0.3213
 4940TIP3    H114826   5.571   5.476   5.134 -1.3230  0.3267 -0.7843
 4940TIP3    H214827   5.469   5.370   5.098  0.0130 -1.8517  1.5217
 4941TIP3   OH214828   1.773   4.390   0.428 -0.2362 -0.3337 -0.3695
 4941TIP3    H114829   1.776   4.443   0.348  1.6481 -1.6107 -1.2367
 4941TIP3    H214830   1.842   4.425   0.483  0.3340 -1.1905 -0.5118
 4942TIP3   OH214831   2.527   1.895   2.177  0.1794 -0.4869  0.5029
 4942TIP3    H114832   2.453   1.954   2.164  0.5712  0.0879  0.8371
 4942TIP3    H214833   2.567   1.886   2.090 -0.0680 -0.5182  0.3920
 4943TIP3   OH214834   3.892   0.855   4.298  0.2072  0.2412  0.3551
 4943TIP3    H114835   3.933   0.937   4.270  0.1170 -0.1044 -0.8434
 4943TIP3    H214836   3.855   0.818   4.218 -1.1524 -0.1938  1.1535
 4944TIP3   OH214837   0.913   5.030   1.023  0.2605 -0.2082  0.6996
 4944TIP3    H114838   0.920   5.041   1.118  1.1641  2.0194  0.4448
 4944TIP3    H214839   0.845   5.093   0.997  1.2524  0.4828 -0.2923
 4945TIP3   OH214840   1.421   1.139   3.431 -0.1489  0.3745  0.1762
 4945TIP3    H114841   1.408   1.180   3.517  0.8216 -0.0604  0.5470
 4945TIP3    H214842   1.456   1.052   3.451  1.0226  0.6217 -0.6721
 4946TIP3   OH214843   1.829   0.098   0.024 -0.4358 -0.6895  0.3960
 4946TIP3    H114844   1.784   0.151  -0.042  0.9309 -0.1290 -0.1164
 4946TIP3    H214845   1.792   0.127   0.108 -1.6684 -0.9058 -0.0456
 4947TIP3   OH214846   0.337   5.799   0.661  0.2228 -0.2848 -0.1822
 4947TIP3    H114847   0.337   5.866   0.731 -0.8891 -0.6756  0.2094
 4947TIP3    H214848   0.382   5.724   0.700  3.5509  0.9014 -1.3631
 4948TIP3   OH214849   2.067   1.414   3.884 -0.5032 -0.3701  0.4447
 4948TIP3    H114850   2.105   1.386   3.800 -0.6639  1.9931 -0.4901
 4948TIP3    H214851   1.997   1.351   3.900  1.1567 -2.4381  0.1836
 4949TIP3   OH214852   2.897   2.512   1.176 -0.3163 -0.0880 -0.4300
 4949TIP3    H114853   2.915   2.536   1.084  0.5404  1.9920  0.2109
 4949TIP3    H214854   2.828   2.572   1.202 -0.2946 -0.4184  0.3962
 4950TIP3   OH214855   2.003   1.124   4.845  0.3022 -0.8358  0.0320
 4950TIP3    H114856   2.079   1.102   4.791  1.2140  1.1894  0.3815
 4950TIP3    H214857   1.990   1.218   4.830 -0.8403 -0.7178  1.5667
 4951TIP3   OH214858   3.627   3.470   0.427 -0.0788  0.5589  0.5461
 4951TIP3    H114859   3.626   3.443   0.335 -0.4736 -0.3479  0.8003
 4951TIP3    H214860   3.535   3.463   0.455  0.0486  0.7572  1.0326
 4952TIP3   OH214861   6.291   0.582   1.531 -0.1041  1.0316 -0.6170
 4952TIP3    H114862   6.332   0.665   1.556 -0.8094  1.4912 -0.9467
 4952TIP3    H214863   6.206   0.583   1.576 -0.0512  0.4028 -0.4838
 4953TIP3   OH214864   3.474   4.556   4.926  0.6623  0.2968  0.2663
 4953TIP3    H114865   3.417   4.632   4.922 -0.1554 -0.3671 -1.7917
 4953TIP3    H214866   3.503   4.543   4.835  1.2690 -1.4665  0.6769
 4954TIP3   OH214867   2.909   1.141   0.369  0.2598 -0.5401 -0.3559
 4954TIP3    H114868   2.858   1.184   0.300  0.9309  0.3442 -0.3268
 4954TIP3    H214869   2.986   1.106   0.324  0.7917  0.1996 -0.0396
 4955TIP3   OH214870   0.082   0.766   4.777  0.1007  0.3207 -0.2183
 4955TIP3    H114871  -0.010   0.767   4.752  0.0406 -0.0228 -0.0174
 4955TIP3    H214872   0.098   0.854   4.811 -0.7144 -0.2306  1.7238
 4956TIP3   OH214873   1.234   2.563   4.274 -0.1044 -0.2839 -0.3933
 4956TIP3    H114874   1.266   2.651   4.298 -2.4746  0.6406 -0.4123
 4956TIP3    H214875   1.309   2.506   4.291  0.8759  1.4414  1.6445
 4957TIP3   OH214876   4.177   4.816   1.148  0.7909  0.1545 -0.3740
 4957TIP3    H114877   4.241   4.765   1.196 -0.8086 -2.6341 -0.9663
 4957TIP3    H214878   4.227   4.857   1.077  2.2448 -0.1702  0.4257
 4958TIP3   OH214879   1.269   1.372   3.349 -0.6908 -0.2577 -0.0433
 4958TIP3    H114880   1.213   1.340   3.279 -0.6974  0.5387 -0.4169
 4958TIP3    H214881   1.337   1.306   3.357 -0.9436 -0.5787 -0.4993
 4959TIP3   OH214882   3.294   4.025   0.385 -0.1284  0.4084  0.2080
 4959TIP3    H114883   3.203   3.998   0.376  0.1268 -0.8584  1.1017
 4959TIP3    H214884   3.291   4.121   0.384 -1.2694  0.3849 -1.3575
 4960TIP3   OH214885   5.972   3.638   2.935  0.2854 -0.8192  0.1335
 4960TIP3    H114886   6.047   3.691   2.906 -0.1980 -0.8892 -1.3167
 4960TIP3    H214887   5.897   3.698   2.929 -0.3046 -1.7023 -1.7489
 4961TIP3   OH214888   1.405   1.917   3.450 -0.0013 -0.2386  0.0125
 4961TIP3    H114889   1.392   1.880   3.538 -1.1592  0.1480  0.0187
 4961TIP3    H214890   1.417   1.840   3.394 -0.6363 -0.5664  0.3048
 4962TIP3   OH214891   2.490   4.173   2.858  0.2654  0.1434 -0.1668
 4962TIP3    H114892   2.549   4.135   2.924 -1.2630  0.9831  1.7979
 4962TIP3    H214893   2.509   4.267   2.861 -0.6586  0.3340 -0.0117
 4963TIP3   OH214894   5.936   1.550   1.565  0.2248  0.2791  0.5172
 4963TIP3    H114895   5.953   1.643   1.575 -0.8267  0.7035 -1.2395
 4963TIP3    H214896   5.865   1.545   1.500 -0.0616 -1.7162  0.9089
 4964TIP3   OH214897   0.230   0.403   0.225 -0.7694  0.3708 -0.0149
 4964TIP3    H114898   0.318   0.423   0.194 -0.9635  0.3654 -0.5939
 4964TIP3    H214899   0.185   0.369   0.147 -0.4994 -2.2050  0.8529
 4965TIP3   OH214900   5.672   0.833   3.890 -0.0321  0.7798  0.2020
 4965TIP3    H114901   5.713   0.812   3.806 -0.5396 -1.0166  0.3655
 4965TIP3    H214902   5.742   0.872   3.942  2.2815 -3.9489  1.1889
 4966TIP3   OH214903   4.195   1.024   5.115 -0.5230  0.4631  0.3764
 4966TIP3    H114904   4.156   0.978   5.040 -1.0272  0.3053  0.7331
 4966TIP3    H214905   4.288   1.003   5.110 -0.8993 -1.6100  1.2225
 4967TIP3   OH214906   0.863   3.832   4.277 -0.3909  0.5208 -0.2462
 4967TIP3    H114907   0.853   3.806   4.368 -1.3438  0.8730 -0.2496
 4967TIP3    H214908   0.825   3.760   4.227  0.4750  0.1498 -0.3893
 4968TIP3   OH214909   2.676   1.525   2.568  0.7420 -0.0826  0.2203
 4968TIP3    H114910   2.622   1.556   2.640  0.5223 -2.7818  1.3523
 4968TIP3    H214911   2.766   1.533   2.600  0.6402 -1.3813  0.9072
 4969TIP3   OH214912   5.166   4.379   3.147 -0.2807  0.1211  0.3642
 4969TIP3    H114913   5.193   4.435   3.220 -2.0659  1.2096  0.2328
 4969TIP3    H214914   5.245   4.371   3.093  0.7597  0.2077  1.8190
 4970TIP3   OH214915   5.734   4.329   0.977  0.2172  0.1427  0.3812
 4970TIP3    H114916   5.674   4.298   0.909  0.6331  0.5840 -0.2044
 4970TIP3    H214917   5.776   4.249   1.010 -1.0292 -0.2249  1.1534
 4971TIP3   OH214918   4.058   1.939   3.249 -0.1838 -0.6782  0.3168
 4971TIP3    H114919   4.136   1.979   3.287 -1.3552  1.9248  0.1779
 4971TIP3    H214920   4.014   1.897   3.324  0.8561 -1.4016  0.5451
 4972TIP3   OH214921   0.627   0.286   0.017 -0.1307 -0.4193  0.2520
 4972TIP3    H114922   0.610   0.351  -0.051  2.1006  0.7177  0.6781
 4972TIP3    H214923   0.557   0.301   0.082  0.0263  1.2162  0.0834
 4973TIP3   OH214924   1.564   5.520   3.533 -0.1631  0.5831 -0.7354
 4973TIP3    H114925   1.608   5.585   3.587 -0.8434  0.9707 -0.6290
 4973TIP3    H214926   1.486   5.496   3.583 -0.7874  0.9216 -1.5149
 4974TIP3   OH214927   3.853   4.707   2.120 -0.5655 -0.1103  0.0099
 4974TIP3    H114928   3.779   4.735   2.066 -1.0096 -1.4694 -0.1324
 4974TIP3    H214929   3.862   4.776   2.186 -0.8097  0.9551 -1.0342
 4975TIP3   OH214930   3.474   5.583   3.602 -0.0994  0.5599 -0.2003
 4975TIP3    H114931   3.439   5.520   3.666  1.9795  0.8792  1.3911
 4975TIP3    H214932   3.521   5.529   3.539 -0.4407  0.3718 -0.2988
 4976TIP3   OH214933   4.522   0.163   2.291  0.4997 -0.9558 -0.2346
 4976TIP3    H114934   4.450   0.221   2.269  2.7490  1.5417 -1.5508
 4976TIP3    H214935   4.504   0.134   2.380 -0.5774  2.0698  0.6271
 4977TIP3   OH214936   4.233   4.256   1.909 -0.3020  0.3942 -0.2201
 4977TIP3    H114937   4.311   4.217   1.869 -0.0996  0.7892 -0.2186
 4977TIP3    H214938   4.267   4.304   1.984 -0.6457 -0.0902  0.2505
 4978TIP3   OH214939   3.725   5.487   0.725  0.1237 -0.3902  0.0878
 4978TIP3    H114940   3.768   5.519   0.646 -2.1828  0.2110 -1.0179
 4978TIP3    H214941   3.701   5.397   0.705  1.5422 -1.0056  1.0182
 4979TIP3   OH214942   3.589   2.091   3.774 -0.1898  0.0026  0.0355
 4979TIP3    H114943   3.560   2.182   3.768  2.3100  0.7795 -1.6435
 4979TIP3    H214944   3.541   2.046   3.705  0.1318  0.5382 -0.5491
 4980TIP3   OH214945   3.851   0.331   0.047 -0.4995 -0.2768  0.3320
 4980TIP3    H114946   3.897   0.289   0.120  0.3228 -2.4214 -1.3078
 4980TIP3    H214947   3.769   0.283   0.040  0.4268 -1.7253 -1.5380
 4981TIP3   OH214948   2.951   2.984   1.513 -0.4495  0.4043  0.1348
 4981TIP3    H114949   2.895   3.033   1.453 -1.1874  0.1381  0.5946
 4981TIP3    H214950   2.952   2.895   1.478 -0.6060  0.3261  0.3283
 4982TIP3   OH214951   3.225   5.715   4.953  0.1497  0.5089  0.2070
 4982TIP3    H114952   3.241   5.621   4.951  0.2758  0.5356 -0.8643
 4982TIP3    H214953   3.193   5.732   5.041  0.4811 -0.4745  0.5360
 4983TIP3   OH214954   5.453   5.531   1.898 -0.5401 -0.3217 -0.7065
 4983TIP3    H114955   5.456   5.436   1.910  4.0058 -0.1887  1.2536
 4983TIP3    H214956   5.509   5.547   1.822 -1.3053  0.8100 -1.0431
 4984TIP3   OH214957   2.717   4.463   3.431 -0.4397  0.0837  0.3833
 4984TIP3    H114958   2.769   4.520   3.374 -0.1703  1.0299  1.5243
 4984TIP3    H214959   2.782   4.404   3.471 -0.5658 -0.2688  0.0770
 4985TIP3   OH214960   3.663   4.851   0.870 -0.1608 -0.6742  0.4624
 4985TIP3    H114961   3.747   4.842   0.915 -0.4657 -1.3083  0.9200
 4985TIP3    H214962   3.686   4.874   0.780  0.4625  0.3557  0.8653
 4986TIP3   OH214963   5.831   3.317   4.561  0.4167 -0.3411 -0.1553
 4986TIP3    H114964   5.889   3.276   4.497  0.3345 -1.6017  0.5320
 4986TIP3    H214965   5.837   3.411   4.543  1.1741 -0.5952 -1.3306
 4987TIP3   OH214966   3.628   5.581   5.179 -0.6054  0.1556  0.2675
 4987TIP3    H114967   3.558   5.620   5.126  0.6706 -0.0181 -1.6342
 4987TIP3    H214968   3.699   5.645   5.176  0.5432 -1.1051 -0.6996
 4988TIP3   OH214969   2.016   4.606   1.852  0.4824 -0.1626 -0.0260
 4988TIP3    H114970   2.003   4.557   1.771  0.0042 -1.1522  0.6363
 4988TIP3    H214971   2.109   4.597   1.871  0.7163  0.5533 -0.7483
 4989TIP3   OH214972   0.478   0.175   0.880  0.0322  0.0522  0.1163
 4989TIP3    H114973   0.538   0.172   0.954  2.1179  0.0397 -1.4816
 4989TIP3    H214974   0.528   0.216   0.810 -1.6785 -0.3937 -1.4451
 4990TIP3   OH214975   2.196   1.078   1.075  0.2951  0.0191 -0.3805
 4990TIP3    H114976   2.220   1.169   1.056  0.5293  0.0660  0.1040
 4990TIP3    H214977   2.279   1.031   1.075  0.1383 -0.2644 -0.9701
 4991TIP3   OH214978   4.337   0.711   2.777  0.5244  1.4881  0.7533
 4991TIP3    H114979   4.261   0.753   2.737  0.4525  0.8817  0.2308
 4991TIP3    H214980   4.397   0.783   2.797  0.8211  1.7758 -1.0108
 4992TIP3   OH214981   0.418   2.643   1.962  0.1383 -0.7374 -0.5704
 4992TIP3    H114982   0.490   2.618   1.905  1.0185 -3.1267  1.4169
 4992TIP3    H214983   0.349   2.579   1.944  0.4570 -1.5716  1.0111
 4993TIP3   OH214984   5.684   4.559   2.750  0.2177 -0.0729 -0.1199
 4993TIP3    H114985   5.755   4.526   2.696 -0.5013 -1.2090 -0.4219
 4993TIP3    H214986   5.701   4.523   2.837  1.0472  1.2629  0.3032
 4994TIP3   OH214987   0.988   5.237   3.854  0.1833 -0.8376 -0.2026
 4994TIP3    H114988   1.032   5.310   3.899  0.9339 -1.6002  0.3191
 4994TIP3    H214989   0.981   5.169   3.920 -0.1477 -1.3983 -0.8068
 4995TIP3   OH214990   2.648   5.752   0.119 -0.5824 -0.7339  0.2323
 4995TIP3    H114991   2.623   5.803   0.196 -0.0257 -0.9030  0.5318
 4995TIP3    H214992   2.725   5.703   0.148 -1.1337 -1.7706 -0.0432
 4996TIP3   OH214993   1.601   2.940   1.357  0.3781  0.3456  0.0599
 4996TIP3    H114994   1.640   2.868   1.406 -1.6070 -2.0422 -1.6234
 4996TIP3    H214995   1.522   2.963   1.407 -0.3730 -0.4623 -0.7307
 4997TIP3   OH214996   5.229   5.535   1.596  0.2716 -0.3894  0.3647
 4997TIP3    H114997   5.242   5.449   1.556 -0.5569 -0.9586  1.2880
 4997TIP3    H214998   5.256   5.524   1.687  2.1192  0.8879  0.0334
 4998TIP3   OH214999   0.496   1.307   3.048  0.3441  0.0676 -0.0609
 4998TIP3    H115000   0.459   1.307   2.959 -1.3561 -1.2283  0.5825
 4998TIP3    H215001   0.465   1.225   3.087 -0.1452  1.2435  2.1914
 4999TIP3   OH215002   1.603   4.501   2.366 -0.1388 -0.3605  0.0987
 4999TIP3    H115003   1.616   4.499   2.461  0.0907 -0.0362  0.0759
 4999TIP3    H215004   1.674   4.557   2.333 -1.2226  0.9561 -0.0874
 5000TIP3   OH215005   2.270   5.872   2.870  0.2245 -0.3875  0.5190
 5000TIP3    H115006   2.281   5.808   2.940  2.2567 -1.6308 -0.8255
 5000TIP3    H215007   2.357   5.880   2.831 -0.4855  1.5007 -0.8265
 5001TIP3   OH215008   2.126   4.611   2.767  0.0041  0.3130  0.1844
 5001TIP3    H115009   2.095   4.615   2.857  1.3312  0.3800  0.6571
 5001TIP3    H215010   2.100   4.695   2.728 -0.6521  0.2423  0.4704
 5002TIP3   OH215011   6.353   2.645   3.251 -0.1982 -0.1234  0.6234
 5002TIP3    H115012   6.383   2.561   3.215 -1.2659 -1.3508  2.3980
 5002TIP3    H215013   6.261   2.630   3.273 -0.0451  1.0597  2.2379
 5003TIP3   OH215014   6.198   0.856   1.871  0.1813 -0.2087 -0.1208
 5003TIP3    H115015   6.149   0.899   1.800 -0.7193 -0.3430  0.3991
 5003TIP3    H215016   6.272   0.814   1.827  0.8307  1.4822 -0.7023
 5004TIP3   OH215017   5.292   0.197   4.921  0.6931  0.5024 -0.0612
 5004TIP3    H115018   5.274   0.260   4.990 -0.3967  0.5814 -0.4077
 5004TIP3    H215019   5.364   0.237   4.871  0.1577  1.3706 -0.1523
 5005TIP3   OH215020   3.047   2.909   5.189 -0.4209 -0.4098  0.1893
 5005TIP3    H115021   2.952   2.920   5.179 -0.3085  1.2920  0.8514
 5005TIP3    H215022   3.085   2.973   5.129  0.2798  0.8510  1.9055
 5006TIP3   OH215023   1.953   1.947   2.207 -0.2424  0.3350 -0.2231
 5006TIP3    H115024   2.039   1.911   2.228 -0.6510 -0.8141 -0.4609
 5006TIP3    H215025   1.970   2.038   2.184  0.6513  0.7427  1.8142
 5007TIP3   OH215026   4.728   5.855   1.577  0.1889 -0.2926 -0.2277
 5007TIP3    H115027   4.809   5.804   1.585 -0.7404 -1.6954  0.8816
 5007TIP3    H215028   4.683   5.815   1.503 -0.9190 -1.7317  1.1492
 5008TIP3   OH215029   2.454   2.803   4.426  0.0028 -0.0403 -0.2119
 5008TIP3    H115030   2.476   2.767   4.511 -0.2589 -1.9112 -0.8968
 5008TIP3    H215031   2.365   2.835   4.435 -0.0507 -0.3061  0.1983
 5009TIP3   OH215032   3.855   5.615   4.572 -0.3632 -0.2836 -0.1381
 5009TIP3    H115033   3.892   5.703   4.577  2.6988 -1.4784  0.3565
 5009TIP3    H215034   3.853   5.585   4.663 -0.9569 -0.9046 -0.3489
 5010TIP3   OH215035   6.029   4.450   2.035  0.1080  0.9065 -0.1363
 5010TIP3    H115036   6.052   4.410   1.951  0.5986 -0.5748  0.6730
 5010TIP3    H215037   6.083   4.529   2.040  2.0046 -0.3353 -0.1123
 5011TIP3   OH215038   5.743   3.283   4.277  0.1970  0.2024 -0.3730
 5011TIP3    H115039   5.652   3.289   4.304  0.4289  2.1084  0.1331
 5011TIP3    H215040   5.786   3.233   4.346 -0.4362 -0.7488 -0.6384
 5012TIP3   OH215041   6.137   2.469   4.952  0.4880  0.1277  0.2715
 5012TIP3    H115042   6.177   2.387   4.921 -0.1280 -0.0743 -0.0043
 5012TIP3    H215043   6.063   2.483   4.893  0.7915  1.0785  0.0949
 5013TIP3   OH215044   4.183   4.731   2.213  0.3139  0.3665 -0.0540
 5013TIP3    H115045   4.144   4.655   2.257 -1.7461  1.0902 -0.5271
 5013TIP3    H215046   4.147   4.728   2.124  0.3121  1.8130 -0.1181
 5014TIP3   OH215047   0.785   1.103   0.372  0.2289  0.4002 -0.2394
 5014TIP3    H115048   0.874   1.068   0.379  0.9777  2.3481  1.3143
 5014TIP3    H215049   0.737   1.040   0.319  2.1257 -1.5095  0.2041
 5015TIP3   OH215050   1.202   1.883   1.849 -0.6455 -0.8263 -0.0016
 5015TIP3    H115051   1.275   1.940   1.872 -1.3416  0.2612 -0.4431
 5015TIP3    H215052   1.242   1.796   1.840  1.3530  0.2737 -3.8318
 5016TIP3   OH215053   2.734   4.468   5.175  0.2954 -0.2496 -0.0759
 5016TIP3    H115054   2.824   4.494   5.195 -0.0012 -0.1962  1.2971
 5016TIP3    H215055   2.735   4.447   5.082  2.0524 -1.5709  0.1922
 5017TIP3   OH215056   2.014   0.915   2.746  0.0617 -0.3174  0.5426
 5017TIP3    H115057   2.081   0.962   2.795  1.1679 -1.8991  0.6248
 5017TIP3    H215058   1.950   0.982   2.723  2.0392  1.4171 -0.2026
 5018TIP3   OH215059   4.309   0.639   2.264  0.2618 -0.0928  0.1894
 5018TIP3    H115060   4.389   0.663   2.218 -0.4403 -1.8285 -2.1053
 5018TIP3    H215061   4.339   0.609   2.350  2.0011  0.0332 -0.3372
 5019TIP3   OH215062   2.147   0.686   1.408 -0.1273  0.2161 -0.0705
 5019TIP3    H115063   2.086   0.639   1.465  1.5925 -1.6067  0.3580
 5019TIP3    H215064   2.161   0.627   1.334  1.2049  0.5466 -0.1056
 5020TIP3   OH215065   1.730   4.596   5.118  0.6268  0.2248  0.5738
 5020TIP3    H115066   1.789   4.589   5.193  0.6919 -0.7983  0.4495
 5020TIP3    H215067   1.777   4.649   5.055  2.1340 -1.8517 -0.1533
 5021TIP3   OH215068   0.936   3.113   3.716 -0.1287  0.7552 -0.5120
 5021TIP3    H115069   0.985   3.032   3.728  1.5200  1.5953 -1.2439
 5021TIP3    H215070   0.994   3.181   3.750 -1.3077  1.6880 -0.2995
 5022TIP3   OH215071   1.039   3.112   3.320 -0.1624  0.6233 -0.0706
 5022TIP3    H115072   1.059   3.026   3.283  0.4376  0.7089  0.0405
 5022TIP3    H215073   0.949   3.104   3.352 -0.5075  0.4011 -1.0886
 5023TIP3   OH215074   2.093   5.704   3.679 -0.4307  0.1990 -0.2494
 5023TIP3    H115075   2.013   5.654   3.666 -0.5381  0.4265 -0.4820
 5023TIP3    H215076   2.105   5.751   3.596  2.1477 -2.9054 -1.8567
 5024TIP3   OH215077   6.311   0.193   1.747 -0.2293  0.2945 -0.2131
 5024TIP3    H115078   6.271   0.192   1.834 -0.6067  0.9468 -0.3697
 5024TIP3    H215079   6.340   0.284   1.736 -1.1139  0.4757 -1.1803
 5025TIP3   OH215080   2.760   3.049   1.330 -0.1663  0.2260 -0.2248
 5025TIP3    H115081   2.675   3.022   1.296  1.1792 -0.3188 -3.5436
 5025TIP3    H215082   2.760   3.144   1.325 -0.8285  0.2870  0.6258
 5026TIP3   OH215083   0.328   3.962   1.212  0.1572  0.2227  0.2238
 5026TIP3    H115084   0.255   3.900   1.209  1.2383 -1.0736 -1.3117
 5026TIP3    H215085   0.290   4.046   1.185 -0.7112 -0.5024 -0.9037
 5027TIP3   OH215086   1.624   4.109   1.136  0.7817 -0.1982  0.4948
 5027TIP3    H115087   1.619   4.180   1.071  1.9610  0.1952  0.8169
 5027TIP3    H215088   1.586   4.033   1.091  1.7224  0.0247 -0.7301
 5028TIP3   OH215089   0.416   0.428   2.809 -0.4466  0.0037 -0.0883
 5028TIP3    H115090   0.415   0.493   2.879 -0.2444 -0.2284  0.1337
 5028TIP3    H215091   0.379   0.474   2.734 -1.3519  0.0268  0.3586
 5029TIP3   OH215092   0.145   1.357   4.789 -0.2162 -0.0937  0.2773
 5029TIP3    H115093   0.171   1.267   4.811  1.2132  0.5664  1.5005
 5029TIP3    H215094   0.088   1.348   4.713 -0.3428 -2.0543  0.5540
 5030TIP3   OH215095   1.062   0.513   3.558  0.3029 -0.5411 -0.2165
 5030TIP3    H115096   1.105   0.442   3.510 -2.1043 -1.5657 -0.9818
 5030TIP3    H215097   1.132   0.549   3.614  2.2077 -1.8590 -1.6123
 5031TIP3   OH215098   6.321   1.409   0.591 -0.3361 -0.4516 -0.1639
 5031TIP3    H115099   6.307   1.368   0.676 -0.0297 -0.4747 -0.1227
 5031TIP3    H215100   6.258   1.366   0.533  1.1911 -2.2968 -0.5355
 5032TIP3   OH215101   5.274   4.634   4.531  0.0521 -0.2014  0.1837
 5032TIP3    H115102   5.294   4.540   4.523  0.1722 -0.0788 -1.1662
 5032TIP3    H215103   5.178   4.638   4.529 -0.0423 -0.4261  2.2051
 5033TIP3   OH215104   6.145   3.436   1.215 -0.4544 -0.3328  0.4933
 5033TIP3    H115105   6.145   3.475   1.302 -0.6360 -0.0191  0.3537
 5033TIP3    H215106   6.222   3.379   1.215  0.2588  0.6029  0.4488
 5034TIP3   OH215107   0.329   1.377   2.398  0.2066 -0.1787  0.1072
 5034TIP3    H115108   0.345   1.444   2.464  0.3734 -1.4621  1.4052
 5034TIP3    H215109   0.294   1.426   2.323 -0.3128  1.2748  1.2470
 5035TIP3   OH215110   2.654   5.345   2.536  0.1246  0.2933 -0.2608
 5035TIP3    H115111   2.564   5.364   2.508  0.3736  0.8525 -0.7166
 5035TIP3    H215112   2.661   5.250   2.534 -1.1793  0.0686  2.0968
 5036TIP3   OH215113   0.115   1.827   1.779 -0.2743  0.2455  0.1567
 5036TIP3    H115114   0.101   1.839   1.685 -0.0946  1.4659  0.2762
 5036TIP3    H215115   0.208   1.844   1.792  0.1769 -1.9566  0.2747
 5037TIP3   OH215116   5.478   2.762   4.016 -0.2983  0.0865 -0.2397
 5037TIP3    H115117   5.477   2.720   3.929 -1.1712 -2.1026  0.7476
 5037TIP3    H215118   5.435   2.698   4.073 -0.7686  1.9695  1.6057
 5038TIP3   OH215119   2.424   2.249   5.104 -0.0336  0.1998 -0.3223
 5038TIP3    H115120   2.408   2.297   5.185 -0.4958 -1.0302  0.3409
 5038TIP3    H215121   2.460   2.166   5.132  1.0175  0.2427 -1.4694
 5039TIP3   OH215122   0.336   4.123   4.268  0.5649 -0.1604 -0.2834
 5039TIP3    H115123   0.349   4.031   4.292 -0.7034 -0.4835 -0.7608
 5039TIP3    H215124   0.362   4.172   4.346  1.5808 -0.9009 -0.1463
 5040TIP3   OH215125   5.384   0.221   3.423  0.2465  0.2052  0.2675
 5040TIP3    H115126   5.397   0.138   3.470  2.1014 -0.4302 -1.2078
 5040TIP3    H215127   5.310   0.262   3.467  1.0903 -0.8779  2.9187
 5041TIP3   OH215128   3.740   5.797   1.196 -0.0021 -0.3935 -0.4103
 5041TIP3    H115129   3.766   5.840   1.277  0.5606 -2.1999  0.4248
 5041TIP3    H215130   3.718   5.869   1.136 -0.6609  0.9836  1.3985
 5042TIP3   OH215131   5.501   3.320   4.038  0.3281  1.1260  0.1277
 5042TIP3    H115132   5.523   3.227   4.029  0.4023  1.3031 -1.9590
 5042TIP3    H215133   5.502   3.336   4.132  2.6129 -0.4292  0.4318
 5043TIP3   OH215134   1.701   2.909   1.964 -0.0421 -0.2166 -0.0807
 5043TIP3    H115135   1.650   2.891   2.043  0.4800 -1.0369  0.0794
 5043TIP3    H215136   1.642   2.960   1.908 -0.5232  0.0893  0.7021
 5044TIP3   OH215137   0.238   1.642   0.783  0.2312 -0.0071  0.1529
 5044TIP3    H115138   0.275   1.569   0.832 -1.4479 -1.1125 -0.1566
 5044TIP3    H215139   0.302   1.713   0.794  0.7323 -0.7301  2.5308
 5045TIP3   OH215140   3.892   0.794   0.780 -0.1749  0.4161  0.3906
 5045TIP3    H115141   3.910   0.782   0.874 -0.3278  0.5265  0.4352
 5045TIP3    H215142   3.952   0.734   0.736 -0.9966 -0.6146  0.6177
 5046TIP3   OH215143   3.878   1.314   2.703  0.0803  0.3145 -0.3202
 5046TIP3    H115144   3.818   1.371   2.750  0.0178  3.0506 -3.3678
 5046TIP3    H215145   3.965   1.341   2.732  0.0054  1.0252 -0.7446
 5047TIP3   OH215146   3.772   4.083   2.819 -0.4867 -0.0133  0.2453
 5047TIP3    H115147   3.725   4.150   2.868  0.1993  0.1626  0.6690
 5047TIP3    H215148   3.729   4.083   2.733 -1.2793  0.1184  0.6247
 5048TIP3   OH215149   3.331   4.663   3.308 -0.2232  0.3858  0.1192
 5048TIP3    H115150   3.324   4.754   3.279  1.5643 -0.0849 -2.0781
 5048TIP3    H215151   3.290   4.612   3.239 -2.8801 -0.4958  2.1743
 5049TIP3   OH215152   1.436   0.778   4.620 -0.2178 -0.0800 -0.0826
 5049TIP3    H115153   1.508   0.779   4.683 -0.1399  0.1038 -0.1713
 5049TIP3    H215154   1.477   0.798   4.536 -0.3496 -0.1298 -0.1598
 5050TIP3   OH215155   1.914   3.772   3.581  0.1647  0.0145  0.6887
 5050TIP3    H115156   1.951   3.805   3.663 -2.0200  2.6777  0.7619
 5050TIP3    H215157   1.823   3.753   3.602 -0.4548  0.8183 -1.1042
 5051TIP3   OH215158   2.328   1.489   3.666 -0.2855 -0.0586  0.3690
 5051TIP3    H115159   2.277   1.570   3.656  0.4030  0.3613  0.1460
 5051TIP3    H215160   2.420   1.518   3.662 -0.0201 -0.7482  1.1109
 5052TIP3   OH215161   6.034   0.300   4.938 -0.5845 -0.0838 -0.0644
 5052TIP3    H115162   6.043   0.274   5.030  1.9960  1.4223  0.1863
 5052TIP3    H215163   5.978   0.378   4.941  0.2352  0.5011  0.3540
 5053TIP3   OH215164   6.121   2.692   0.839 -0.2943  0.1777  0.5186
 5053TIP3    H115165   6.182   2.759   0.809 -0.1703 -0.6260 -1.1790
 5053TIP3    H215166   6.037   2.738   0.847  0.0283  0.7753  0.5452
 5054TIP3   OH215167   4.234   2.147   4.773 -0.2165 -0.3540 -0.2962
 5054TIP3    H115168   4.314   2.141   4.721  0.0307  0.0317  0.0357
 5054TIP3    H215169   4.171   2.092   4.726  0.9254 -2.7280  0.7464
 5055TIP3   OH215170   5.206   0.339   1.550  0.0396  0.6302  0.1927
 5055TIP3    H115171   5.141   0.407   1.531 -0.7845 -0.7172 -2.3805
 5055TIP3    H215172   5.288   0.373   1.514  0.0227  0.9822  0.4855
 5056TIP3   OH215173   3.398   4.951   0.864 -0.8692 -0.1617 -0.0271
 5056TIP3    H115174   3.482   4.929   0.906 -0.9398  0.8182  0.6559
 5056TIP3    H215175   3.392   4.890   0.791  1.1903  0.7512 -1.0370
 5057TIP3   OH215176   0.681   5.922   3.001 -0.4319 -0.2266 -0.3630
 5057TIP3    H115177   0.671   5.955   3.090 -1.4964  0.7819 -0.8267
 5057TIP3    H215178   0.775   5.903   2.993 -0.3860 -0.7389  1.0909
 5058TIP3   OH215179   3.783   5.731   2.908  0.0096 -0.1191 -0.0549
 5058TIP3    H115180   3.704   5.757   2.861 -0.4915  1.4997  1.5622
 5058TIP3    H215181   3.828   5.814   2.926  0.8511 -0.8077  1.1475
 5059TIP3   OH215182   2.968   3.645   4.000 -0.1017  0.1898  0.1956
 5059TIP3    H115183   2.926   3.589   3.934  0.9636 -0.1785 -0.1878
 5059TIP3    H215184   3.019   3.584   4.053  1.9238  0.8690 -0.8696
 5060TIP3   OH215185   5.891   3.949   4.967  0.1042  0.0990 -0.7653
 5060TIP3    H115186   5.831   3.875   4.961 -1.1937  1.0447  0.0066
 5060TIP3    H215187   5.888   3.989   4.880 -1.1612  0.6925 -0.4725
 5061TIP3   OH215188   4.296   4.429   4.184  0.0053 -0.0050  0.3513
 5061TIP3    H115189   4.332   4.342   4.170 -1.4148 -0.4057 -1.0440
 5061TIP3    H215190   4.296   4.470   4.097 -0.6032  0.8846  0.7504
 5062TIP3   OH215191   1.460   5.282   0.634 -0.7834 -0.5928 -0.2357
 5062TIP3    H115192   1.443   5.234   0.553  0.6540  0.5225 -1.2602
 5062TIP3    H215193   1.416   5.232   0.702 -2.6196 -1.1963 -1.7895
 5063TIP3   OH215194   4.866   3.830   4.144 -0.1902  0.4157 -0.0940
 5063TIP3    H115195   4.901   3.899   4.201 -2.5527  0.9259  0.8829
 5063TIP3    H215196   4.906   3.749   4.176  1.3755  1.1154 -0.1948
 5064TIP3   OH215197   2.596   0.810   0.561  0.2560  1.2582  0.5847
 5064TIP3    H115198   2.633   0.883   0.512  0.4489  2.4711  2.4393
 5064TIP3    H215199   2.660   0.793   0.630  0.4001 -0.9608 -0.0147
 5065TIP3   OH215200   6.060   3.704   1.609  0.0422  0.3408  0.5100
 5065TIP3    H115201   5.981   3.734   1.565  0.6415 -0.3961 -1.2025
 5065TIP3    H215202   6.030   3.668   1.692 -2.0665 -3.3634 -1.5461
 5066TIP3   OH215203   5.601   0.875   4.539  0.1169 -0.8884  0.1962
 5066TIP3    H115204   5.553   0.890   4.620  1.7652  0.4143  1.0007
 5066TIP3    H215205   5.547   0.914   4.470  0.2798  1.1617  1.1635
 5067TIP3   OH215206   1.312   1.649   1.927  0.4743 -0.4722 -0.1804
 5067TIP3    H115207   1.404   1.627   1.911  0.8491  0.2810  0.8191
 5067TIP3    H215208   1.300   1.637   2.021  0.6594  3.1084  0.4629
 5068TIP3   OH215209   6.028   2.695   2.418  0.0507  0.2407 -0.0079
 5068TIP3    H115210   5.958   2.711   2.481 -1.0941 -1.1529 -0.8620
 5068TIP3    H215211   6.056   2.782   2.391 -1.6989  0.8545 -0.0005
 5069TIP3   OH215212   0.170   2.497   2.717 -0.1189 -0.1593 -0.4852
 5069TIP3    H115213   0.112   2.447   2.659 -3.0345  1.9757  0.3613
 5069TIP3    H215214   0.156   2.459   2.804  1.4866 -0.9987 -0.5477
 5070TIP3   OH215215   1.307   4.764   1.333 -0.6916 -0.0775 -0.1305
 5070TIP3    H115216   1.338   4.765   1.423  1.9590  0.0861 -0.9774
 5070TIP3    H215217   1.303   4.856   1.307  0.6607 -0.1903 -0.8121
 5071TIP3   OH215218   0.086   0.035   1.589 -0.4361  0.0306 -0.5348
 5071TIP3    H115219   0.046   0.071   1.669  0.2793  1.1549 -0.6559
 5071TIP3    H215220   0.130  -0.045   1.618 -0.7047  0.0976  0.0775
 5072TIP3   OH215221   6.033   2.766   0.069  0.5531  0.1966 -0.0334
 5072TIP3    H115222   6.000   2.855   0.051  0.6035 -0.1525 -2.1508
 5072TIP3    H215223   5.966   2.708   0.031  0.0346 -0.7413  2.1824
 5073TIP3   OH215224   0.062   1.727   1.328 -0.8650 -0.4162  0.7646
 5073TIP3    H115225   0.129   1.764   1.269 -0.2515  0.8490  2.2065
 5073TIP3    H215226   0.112   1.668   1.386 -0.8537  1.0072  2.2515
 5074TIP3   OH215227   5.008   2.751   2.216  0.0161 -0.1342 -0.3968
 5074TIP3    H115228   4.979   2.667   2.251 -2.1428  0.1231 -1.4239
 5074TIP3    H215229   4.984   2.815   2.283  2.6116 -0.3467  0.8709
 5075TIP3   OH215230   5.084   0.787   3.607 -0.2600  0.4194 -0.4837
 5075TIP3    H115231   5.076   0.730   3.531  2.2516  1.0159 -1.2889
 5075TIP3    H215232   5.149   0.745   3.663 -1.6117  0.3106  1.0765
 5076TIP3   OH215233   4.680   5.085   3.935 -0.0374 -0.3182  1.2352
 5076TIP3    H115234   4.702   5.133   3.856  1.4854 -1.2207  1.0548
 5076TIP3    H215235   4.706   4.995   3.916 -0.2820 -0.6821  2.5107
 5077TIP3   OH215236   2.915   3.282   2.630 -0.2259 -0.3476  0.3282
 5077TIP3    H115237   2.937   3.297   2.722 -0.4730 -0.5563  0.4231
 5077TIP3    H215238   2.938   3.364   2.586  0.3086 -0.4038  0.4972
 5078TIP3   OH215239   6.010   3.898   3.169  0.3423  0.1921 -0.3764
 5078TIP3    H115240   5.994   3.807   3.195  3.0820 -0.2773 -0.0340
 5078TIP3    H215241   6.103   3.913   3.190  0.6609  2.2509 -2.7664
 5079TIP3   OH215242   3.775   3.525   3.006  0.3154 -0.1790  0.1612
 5079TIP3    H115243   3.810   3.441   2.977  0.2220 -0.3597  0.5708
 5079TIP3    H215244   3.791   3.584   2.933 -0.0111 -0.6564 -0.3068
 5080TIP3   OH215245   1.647   2.857   2.761  0.0915 -0.0869 -0.1311
 5080TIP3    H115246   1.732   2.835   2.723  0.0633 -0.6999  0.1484
 5080TIP3    H215247   1.611   2.924   2.702  0.8254  0.2900 -0.1691
 5081TIP3   OH215248   5.271   4.141   1.842 -0.0143 -0.1612 -0.2079
 5081TIP3    H115249   5.364   4.119   1.850  0.1413  0.2622 -0.7627
 5081TIP3    H215250   5.268   4.204   1.770 -0.4803  1.4245  1.1506
 5082TIP3   OH215251   3.209   4.101   4.458 -0.1590  0.7524  0.2797
 5082TIP3    H115252   3.260   4.174   4.493 -1.1653  1.1903  0.9075
 5082TIP3    H215253   3.180   4.053   4.535 -2.0808  1.4974  0.0777
 5083TIP3   OH215254   5.051   5.755   1.808 -0.5146  0.0232 -0.0829
 5083TIP3    H115255   5.079   5.674   1.850 -0.0734 -0.0280 -0.4710
 5083TIP3    H215256   5.039   5.732   1.716  2.4325  1.0239 -0.8196
 5084TIP3   OH215257   1.355   4.227   3.533  0.8355 -0.1134  0.4953
 5084TIP3    H115258   1.282   4.185   3.578  1.8011 -0.7228  1.5233
 5084TIP3    H215259   1.429   4.218   3.593  1.5532  1.2997 -0.1195
 5085TIP3   OH215260   6.348   4.033   0.626 -0.8033  0.3431 -0.1778
 5085TIP3    H115261   6.393   4.108   0.665 -1.7685  0.2451  1.2158
 5085TIP3    H215262   6.276   4.072   0.576 -0.9322  0.3944  0.0412
 5086TIP3   OH215263   3.413   5.918   3.284 -0.7669 -0.3899 -0.3918
 5086TIP3    H115264   3.394   5.922   3.190  0.7215 -0.9330 -0.7522
 5086TIP3    H215265   3.376   5.835   3.312 -0.1791 -0.7946 -0.7798
 5087TIP3   OH215266   0.906   0.342   2.314 -0.2781 -0.2305 -0.1824
 5087TIP3    H115267   0.886   0.290   2.392  0.3219 -1.6537 -0.9308
 5087TIP3    H215268   0.971   0.405   2.344 -1.4244  0.4754  0.8753
 5088TIP3   OH215269   5.995   4.462   2.986  0.3391  0.1470 -0.1571
 5088TIP3    H115270   6.085   4.447   3.012 -0.3960 -0.4185  2.3061
 5088TIP3    H215271   5.997   4.460   2.890  2.8348 -0.3186 -0.1532
 5089TIP3   OH215272   4.440   5.241   2.815 -0.4902 -0.0589 -0.0548
 5089TIP3    H115273   4.451   5.335   2.799  0.4939  0.0887  1.2720
 5089TIP3    H215274   4.470   5.199   2.735  1.2012  0.7085  0.1354
 5090TIP3   OH215275   3.750   0.004   5.149 -0.3091 -0.1631  0.0073
 5090TIP3    H115276   3.655   0.017   5.150 -0.6066 -2.0616  0.2320
 5090TIP3    H215277   3.772  -0.009   5.056 -0.9152 -3.3588  0.1819
 5091TIP3   OH215278   1.918   1.892   2.506  0.3216  0.5846 -0.0461
 5091TIP3    H115279   1.943   1.964   2.564  0.1224  0.7912 -0.2105
 5091TIP3    H215280   1.956   1.915   2.421  0.3209  0.4589 -0.0809
 5092TIP3   OH215281   0.759   5.252   0.111  0.3043  0.0575  0.3838
 5092TIP3    H115282   0.779   5.345   0.095  0.9750 -0.2463 -0.6161
 5092TIP3    H215283   0.801   5.233   0.195  2.7063 -0.0517 -0.7351
 5093TIP3   OH215284   1.791   5.562   0.129  0.3832  0.4322  0.3029
 5093TIP3    H115285   1.864   5.523   0.081  1.2687 -0.1989  2.0878
 5093TIP3    H215286   1.816   5.654   0.140  0.5280  0.4063  0.1916
 5094TIP3   OH215287   0.271   5.070   2.401  0.1333  0.8122 -0.1313
 5094TIP3    H115288   0.220   5.047   2.323 -0.8615 -0.7488  0.9253
 5094TIP3    H215289   0.226   5.147   2.436 -1.7910 -0.7227  0.9595
 5095TIP3   OH215290   2.360   1.651   2.392 -0.0409 -0.6782  0.0699
 5095TIP3    H115291   2.433   1.612   2.439  0.0361 -0.7603 -0.1179
 5095TIP3    H215292   2.335   1.586   2.327  0.3030 -0.2821 -0.4651
 5096TIP3   OH215293   0.022   0.168   2.361 -0.6675 -0.8587 -0.0357
 5096TIP3    H115294  -0.051   0.208   2.315 -1.2996 -1.4547  0.4344
 5096TIP3    H215295   0.091   0.160   2.295 -1.0677 -0.4190 -0.5161
 5097TIP3   OH215296   6.056   1.230   4.635 -0.2650 -0.2745 -0.7407
 5097TIP3    H115297   5.998   1.307   4.633 -0.5562 -0.4870 -2.6907
 5097TIP3    H215298   5.996   1.156   4.638 -0.0330 -0.4600 -0.7425
 5098TIP3   OH215299   5.380   4.332   4.093  0.5100  1.0399  0.1664
 5098TIP3    H115300   5.390   4.413   4.043  0.3693  2.2162  1.9453
 5098TIP3    H215301   5.469   4.310   4.121  0.6855 -0.0118 -1.1557
 5099TIP3   OH215302   5.315   1.801   3.056 -0.3753  0.2250 -0.3192
 5099TIP3    H115303   5.393   1.809   3.110 -0.3253  0.2247 -0.3912
 5099TIP3    H215304   5.348   1.789   2.967 -0.4305 -1.2095 -0.1687
 5100TIP3   OH215305   2.426   0.728   0.848 -0.4499  0.3394 -0.1883
 5100TIP3    H115306   2.380   0.800   0.805  0.0611  1.0910  0.5028
 5100TIP3    H215307   2.518   0.740   0.822 -0.5900 -1.1010 -1.5011
 5101TIP3   OH215308   3.829   4.939   4.214  0.2619  0.1622  0.4008
 5101TIP3    H115309   3.793   4.876   4.277  0.8400  0.6287  1.2133
 5101TIP3    H215310   3.882   4.998   4.267  1.5296  0.0072 -0.6606
 5102TIP3   OH215311   1.227   2.439   2.061 -0.5108  0.4053 -0.1744
 5102TIP3    H115312   1.207   2.350   2.090 -1.4474  0.5707 -0.2731
 5102TIP3    H215313   1.146   2.470   2.020  0.2380  0.8137 -1.3890
 5103TIP3   OH215314   6.181   3.272   3.330 -0.2655  0.2618 -0.0371
 5103TIP3    H115315   6.237   3.257   3.255 -0.0904  0.2110  0.1033
 5103TIP3    H215316   6.129   3.349   3.306  2.4535  2.7177  1.2726
 5104TIP3   OH215317   4.360   1.421   0.250  0.1464 -0.4070  0.2965
 5104TIP3    H115318   4.328   1.333   0.232 -1.4029  0.1934 -0.0562
 5104TIP3    H215319   4.295   1.479   0.210  2.3960  0.9298 -1.7368
 5105TIP3   OH215320   4.989   4.751   4.067  0.2492 -0.2126 -0.3756
 5105TIP3    H115321   4.925   4.784   4.005  0.3575 -1.9361 -1.4461
 5105TIP3    H215322   4.937   4.719   4.141 -0.0274 -0.4432 -0.6717
 5106TIP3   OH215323   3.643   4.410   0.636 -0.3287 -0.4562 -0.1312
 5106TIP3    H115324   3.664   4.357   0.559 -1.7750  0.5001 -1.2420
 5106TIP3    H215325   3.701   4.486   0.629  0.2373 -0.8449  0.2819
 5107TIP3   OH215326   3.977   1.514   1.836  0.3726  0.6641 -0.0231
 5107TIP3    H115327   3.978   1.605   1.867 -0.0898  1.8905 -3.2125
 5107TIP3    H215328   3.891   1.503   1.796  0.5697 -1.0605 -0.0277
 5108TIP3   OH215329   3.061   1.699   0.782  0.2361  0.3060 -0.2900
 5108TIP3    H115330   3.074   1.777   0.835  0.3041  1.0675 -1.3877
 5108TIP3    H215331   3.067   1.730   0.691 -3.4759 -0.2535 -0.8729
 5109TIP3   OH215332   3.650   0.344   3.128 -0.0874  0.5532 -0.1214
 5109TIP3    H115333   3.572   0.389   3.096  0.3532 -0.2868 -2.5563
 5109TIP3    H215334   3.631   0.327   3.221 -2.5728  0.8211 -0.5057
 5110TIP3   OH215335   5.632   5.818   0.955 -0.0131 -0.0217 -0.0320
 5110TIP3    H115336   5.671   5.859   0.878 -0.5527  0.7473  0.0938
 5110TIP3    H215337   5.700   5.824   1.022 -0.1678  0.9128  0.0584
 5111TIP3   OH215338   4.498   1.631   1.240 -0.1887  0.0225  0.3144
 5111TIP3    H115339   4.565   1.562   1.241 -0.3198 -0.0981  0.8705
 5111TIP3    H215340   4.419   1.587   1.209  0.0500  0.2349 -0.6520
 5112TIP3   OH215341   0.171   1.062   0.253 -0.0887 -0.0248 -0.4984
 5112TIP3    H115342   0.247   1.105   0.292  0.5453 -0.3079 -1.3879
 5112TIP3    H215343   0.147   0.994   0.315  0.0016  0.4554  0.0719
 5113TIP3   OH215344   1.978   0.577   1.599  0.2798  0.2254 -0.1189
 5113TIP3    H115345   1.939   0.661   1.575  2.2314  1.7506  1.6582
 5113TIP3    H215346   1.919   0.541   1.666  0.1563  0.8745  0.1286
 5114TIP3   OH215347   4.208   5.800   0.996  0.4317  0.6217  0.1903
 5114TIP3    H115348   4.206   5.862   1.069 -1.7474  1.8134 -0.7916
 5114TIP3    H215349   4.173   5.719   1.034 -1.8809  1.5763  0.2577
 5115TIP3   OH215350   4.171   0.668   3.186 -0.1266  0.1559  0.5993
 5115TIP3    H115351   4.092   0.662   3.132  0.4777 -0.6324 -0.2517
 5115TIP3    H215352   4.217   0.585   3.169  0.3724  0.1489  1.8847
 5116TIP3   OH215353   2.586   4.140   2.086 -0.2600 -0.6676 -0.3804
 5116TIP3    H115354   2.586   4.094   2.170 -0.4579 -1.1578 -0.6460
 5116TIP3    H215355   2.667   4.191   2.087 -0.5895 -0.1434  0.3860
 5117TIP3   OH215356   0.588   4.257   0.284 -0.4871  0.4647  0.4218
 5117TIP3    H115357   0.624   4.178   0.324  1.6142  1.3745  0.4363
 5117TIP3    H215358   0.664   4.311   0.265 -1.7666  1.8635 -0.9680
 5118TIP3   OH215359   0.441   1.017   0.537 -0.4933  0.4829  0.5073
 5118TIP3    H115360   0.516   1.036   0.593  1.2058 -1.0716 -1.0925
 5118TIP3    H215361   0.431   1.095   0.483 -1.4299  1.5383  2.1264
 5119TIP3   OH215362   3.163   0.537   3.668 -0.5576 -0.0917  0.7057
 5119TIP3    H115363   3.070   0.518   3.681 -0.1045 -2.9692  0.2585
 5119TIP3    H215364   3.207   0.453   3.674  2.2703  1.3444  2.3113
 5120TIP3   OH215365   2.040   4.859   3.884 -0.1475 -0.0397  0.2971
 5120TIP3    H115366   2.113   4.899   3.932  0.5596 -2.1085  1.0681
 5120TIP3    H215367   1.976   4.929   3.875  0.6694  1.0553  2.3107
 5121TIP3   OH215368   1.678   4.662   4.017  0.1306  0.4897 -0.8288
 5121TIP3    H115369   1.693   4.715   4.096  0.3286 -0.8520  0.0621
 5121TIP3    H215370   1.606   4.706   3.972 -0.3753  0.9603  0.4044
 5122TIP3   OH215371   5.016   1.156   0.499 -0.2552 -0.0741  0.2300
 5122TIP3    H115372   5.042   1.097   0.570  1.9834  0.2802 -0.2226
 5122TIP3    H215373   5.022   1.103   0.420  3.0817  0.9622 -0.3501
 5123TIP3   OH215374   6.173   5.011   3.459  0.8056  0.3119  0.1295
 5123TIP3    H115375   6.256   5.051   3.434  0.1536  0.5051 -1.8668
 5123TIP3    H215376   6.125   5.081   3.503  2.0846 -0.1156  2.3444
 5124TIP3   OH215377   0.377   2.187   0.479 -0.0531  0.0341  0.4549
 5124TIP3    H115378   0.447   2.219   0.422 -0.2550  1.7377  1.1208
 5124TIP3    H215379   0.385   2.092   0.474  1.7022  0.1759 -0.2205
 5125TIP3   OH215380   1.125   4.300   0.719  0.4623 -0.7719  0.1991
 5125TIP3    H115381   1.039   4.299   0.760  0.5431 -1.2255  0.3670
 5125TIP3    H215382   1.146   4.393   0.708 -0.0872 -0.6627  0.0709
 5126TIP3   OH215383   3.138   5.269   1.279  0.1590  0.1007  0.0136
 5126TIP3    H115384   3.063   5.234   1.326  1.0493 -0.0545  1.3682
 5126TIP3    H215385   3.107   5.279   1.189 -0.7963 -2.0945  0.0277
 5127TIP3   OH215386   4.236   5.421   0.119  0.6178 -0.5658  0.3680
 5127TIP3    H115387   4.331   5.413   0.106  0.5920 -0.3384  0.0398
 5127TIP3    H215388   4.221   5.515   0.126 -0.0096 -0.3253 -2.8782
 5128TIP3   OH215389   1.262   3.577   4.511  0.4403 -0.1448 -0.0176
 5128TIP3    H115390   1.187   3.537   4.466 -0.2977 -0.6873  1.6163
 5128TIP3    H215391   1.337   3.559   4.454 -0.5749  0.0031 -1.4683
 5129TIP3   OH215392   4.679   4.457   4.241 -0.0712 -0.1245 -0.3011
 5129TIP3    H115393   4.626   4.479   4.318  0.2890  0.4099 -0.2027
 5129TIP3    H215394   4.726   4.378   4.266 -1.0574 -0.7945 -0.5050
 5130TIP3   OH215395   3.352   4.173   1.248 -0.2969  0.4601  0.3589
 5130TIP3    H115396   3.256   4.172   1.251 -0.3300 -2.2440  1.0428
 5130TIP3    H215397   3.379   4.136   1.332  1.3138  0.1618 -0.2503
 5131TIP3   OH215398   0.019   0.995   0.040  0.1017  0.4106 -0.4261
 5131TIP3    H115399   0.072   1.028   0.113 -0.5310  0.0348  0.2217
 5131TIP3    H215400  -0.004   0.906   0.066  0.2193  0.1277 -1.2884
 5132TIP3   OH215401   1.293   3.048   1.792  0.3700 -0.3573 -0.5187
 5132TIP3    H115402   1.199   3.030   1.793  0.1929  0.5370 -0.7981
 5132TIP3    H215403   1.329   2.985   1.854 -0.4242 -0.6544 -0.3411
 5133TIP3   OH215404   4.057   2.268   0.958 -0.4726  0.6582 -0.5552
 5133TIP3    H115405   4.086   2.307   0.875  2.8065  0.1007  0.1775
 5133TIP3    H215406   4.110   2.188   0.966  1.1597  1.8874  3.1206
 5134TIP3   OH215407   0.313   3.906   0.329 -0.5599 -0.2635  0.0721
 5134TIP3    H115408   0.287   3.959   0.254 -1.4934 -0.9875 -0.1420
 5134TIP3    H215409   0.397   3.868   0.305 -0.4585  0.1686 -0.2605
 5135TIP3   OH215410   3.225   0.148   0.987  0.6461  0.3651 -1.2247
 5135TIP3    H115411   3.300   0.094   1.011 -0.0922 -0.7780 -1.3947
 5135TIP3    H215412   3.258   0.238   0.990  1.9357 -0.0904 -1.0167
 5136TIP3   OH215413   5.490   2.122   1.533  0.8009 -0.3045 -0.1486
 5136TIP3    H115414   5.454   2.056   1.592  0.8162  2.0740  2.7021
 5136TIP3    H215415   5.421   2.135   1.467  2.0012 -5.2437 -2.8622
 5137TIP3   OH215416   2.110   4.268   2.011 -0.6528 -0.0547  0.1166
 5137TIP3    H115417   2.113   4.248   1.918 -1.4784  0.9048 -0.1409
 5137TIP3    H215418   2.032   4.323   2.021 -0.3624  0.1722  1.3083
 5138TIP3   OH215419   6.043   4.233   4.911  0.2803 -0.1076  0.0561
 5138TIP3    H115420   6.060   4.147   4.950  2.5148 -0.3665 -1.3146
 5138TIP3    H215421   6.114   4.245   4.847 -1.4283  1.6491 -1.6432
 5139TIP3   OH215422   6.138   4.157   3.342 -0.1436  0.3813 -0.1606
 5139TIP3    H115423   6.153   4.249   3.323  1.7275  0.3991  1.1149
 5139TIP3    H215424   6.184   4.110   3.272 -0.5096  0.3937 -0.4165
 5140TIP3   OH215425   5.897   0.297   1.014  0.1018  0.2107 -0.3487
 5140TIP3    H115426   5.846   0.217   0.999 -1.3683  1.2789 -1.2525
 5140TIP3    H215427   5.842   0.349   1.073 -0.2423  1.6888 -1.9075
 5141TIP3   OH215428   6.042   4.731   3.922 -0.3252  0.1620 -0.3327
 5141TIP3    H115429   6.009   4.666   3.984 -0.5132  0.6645  0.0973
 5141TIP3    H215430   6.127   4.697   3.895 -0.1734  0.0104  0.3175
 5142TIP3   OH215431   2.880   4.289   3.547 -0.2866  0.4125 -0.0262
 5142TIP3    H115432   2.935   4.364   3.526 -0.3919  0.0739 -1.7315
 5142TIP3    H215433   2.940   4.226   3.587  0.5233  0.2025 -1.5002
 5143TIP3   OH215434   2.383   5.372   4.450 -0.1912  0.5193  0.9117
 5143TIP3    H115435   2.475   5.392   4.470  0.0792 -0.8433  1.1449
 5143TIP3    H215436   2.382   5.277   4.439 -0.9981  0.7848 -2.1672
 5144TIP3   OH215437   2.008   3.156   3.574 -0.1755 -0.1408 -0.3272
 5144TIP3    H115438   2.019   3.087   3.509  1.0353 -0.4416  0.1613
 5144TIP3    H215439   1.979   3.111   3.653  0.8954 -0.1540  0.0754
 5145TIP3   OH215440   2.499   4.775   0.497  0.2259 -0.3615 -0.4151
 5145TIP3    H115441   2.513   4.824   0.415  1.3417 -0.0026 -0.0258
 5145TIP3    H215442   2.477   4.842   0.561  0.7369 -0.4789 -0.1116
 5146TIP3   OH215443   1.044   2.461   4.125 -0.5276  0.3860  0.4096
 5146TIP3    H115444   1.063   2.467   4.031 -0.3409 -1.3423  0.3086
 5146TIP3    H215445   1.110   2.517   4.166 -0.1244  0.5509 -0.4367
 5147TIP3   OH215446   1.128   1.407   4.138  0.2955  0.2062 -0.2943
 5147TIP3    H115447   1.088   1.444   4.217 -1.4792 -0.9293 -0.6118
 5147TIP3    H215448   1.139   1.314   4.157 -1.3885 -0.3642 -1.7980
 5148TIP3   OH215449   0.238   0.194   2.184  0.1279 -0.1167  0.0718
 5148TIP3    H115450   0.209   0.270   2.133 -2.3484 -0.4932  0.7697
 5148TIP3    H215451   0.290   0.143   2.122 -0.6469  0.6968 -1.3291
 5149TIP3   OH215452   4.995   3.047   1.797 -0.3374 -0.1364  0.4683
 5149TIP3    H115453   4.971   3.083   1.882 -0.8083 -1.9983  1.1741
 5149TIP3    H215454   4.912   3.031   1.753 -0.0945  0.9975 -0.4640
 5150TIP3   OH215455   2.769   0.118   0.181  0.4168 -0.8124 -0.1977
 5150TIP3    H115456   2.767   0.137   0.275  0.9095 -0.1212 -0.3240
 5150TIP3    H215457   2.859   0.133   0.155  0.0710 -0.0203 -0.9854
 5151TIP3   OH215458   3.591   0.287   4.358 -0.1130 -0.3284 -0.2016
 5151TIP3    H115459   3.587   0.382   4.367  0.0616 -0.4163  1.0921
 5151TIP3    H215460   3.508   0.256   4.393 -0.5891 -0.6145 -1.5501
 5152TIP3   OH215461   1.792   4.786   1.669 -0.5748  0.6228 -0.1360
 5152TIP3    H115462   1.884   4.769   1.648 -0.1204  1.5127  1.0159
 5152TIP3    H215463   1.746   4.708   1.638  0.5150  0.2976 -1.0224
 5153TIP3   OH215464   2.499   0.546   2.520 -0.1965 -0.5607  0.4967
 5153TIP3    H115465   2.411   0.568   2.487 -0.0670  0.7496  0.9676
 5153TIP3    H215466   2.556   0.559   2.445 -0.0829  1.1427  0.8206
 5154TIP3   OH215467   5.039   1.737   1.930  0.3902  0.3393  0.0870
 5154TIP3    H115468   5.036   1.672   1.860 -1.1995 -1.6216  1.8155
 5154TIP3    H215469   4.975   1.804   1.904 -2.0784 -1.6388  0.6814
 5155TIP3   OH215470   1.747   4.057   3.720  0.5238 -0.0832  0.0125
 5155TIP3    H115471   1.757   4.152   3.715  3.0911 -0.1809  1.6228
 5155TIP3    H215472   1.732   4.030   3.629  0.5285  1.7659 -0.5787
 5156TIP3   OH215473   6.309   4.004   2.014  0.1259 -0.3522 -0.0354
 5156TIP3    H115474   6.307   4.001   2.110  1.9315 -1.0603  0.0183
 5156TIP3    H215475   6.401   4.018   1.993 -0.1336 -0.9912 -1.6952
 5157TIP3   OH215476   5.899   5.001   0.796 -0.3024 -0.5398 -0.1074
 5157TIP3    H115477   5.862   5.022   0.710  0.3903 -1.1593 -0.5616
 5157TIP3    H215478   5.902   4.906   0.799 -1.0532 -0.5420  0.9276
 5158TIP3   OH215479   1.201   4.758   2.314  0.5800 -0.2037 -0.0571
 5158TIP3    H115480   1.224   4.785   2.403  0.3401 -0.1207 -0.0187
 5158TIP3    H215481   1.285   4.736   2.273  0.6281 -0.8720  0.3945
 5159TIP3   OH215482   6.201   1.657   5.011  0.1235  0.0278  0.2343
 5159TIP3    H115483   6.218   1.574   5.054 -2.0782 -1.7358 -2.0072
 5159TIP3    H215484   6.265   1.661   4.940  0.0843  0.1658  0.2067
 5160TIP3   OH215485   0.973   1.180   0.766 -0.1212  0.0326  0.3125
 5160TIP3    H115486   1.029   1.171   0.689 -0.6064 -0.4384  0.0102
 5160TIP3    H215487   0.946   1.091   0.787  1.8225 -0.1500  2.4229
 5161TIP3   OH215488   4.413   4.073   1.268  0.2546 -0.8579 -0.2293
 5161TIP3    H115489   4.334   4.092   1.318 -0.6084  0.1046 -1.8723
 5161TIP3    H215490   4.388   4.005   1.206  0.1282  0.6619 -1.9616
 5162TIP3   OH215491   3.347   5.419   0.746 -0.5087 -0.0661  0.1672
 5162TIP3    H115492   3.273   5.371   0.784 -0.5380  0.2981  0.5875
 5162TIP3    H215493   3.424   5.372   0.777 -0.5662 -0.6900 -0.6090
 5163TIP3   OH215494   2.397   0.583   4.890 -0.3150 -0.0827 -0.1157
 5163TIP3    H115495   2.347   0.654   4.851  0.9192  0.6494 -0.4344
 5163TIP3    H215496   2.413   0.522   4.818 -0.1096  0.0630 -0.1954
 5164TIP3   OH215497   5.819   1.841   1.244 -0.3050  0.4205 -0.1322
 5164TIP3    H115498   5.860   1.754   1.254  2.3779  1.4875 -0.8448
 5164TIP3    H215499   5.881   1.890   1.189 -1.6375  2.8552  0.4064
 5165TIP3   OH215500   2.685   3.847   0.825 -0.0672 -0.6358  0.4266
 5165TIP3    H115501   2.715   3.867   0.736 -2.3406  0.9921 -0.0899
 5165TIP3    H215502   2.763   3.853   0.879  0.9006  1.4047 -1.0669
 5166TIP3   OH215503   0.270   1.661   0.383  0.0417 -0.4373 -0.3250
 5166TIP3    H115504   0.246   1.709   0.304  0.0273  1.9435  1.0357
 5166TIP3    H215505   0.350   1.615   0.359  0.3369  0.6536 -1.5674
 5167TIP3   OH215506   3.010   4.367   2.671 -0.4236 -0.1310 -0.4807
 5167TIP3    H115507   3.045   4.455   2.681  0.5215 -0.5800  0.3133
 5167TIP3    H215508   2.916   4.377   2.684 -0.2544  0.6739  0.1878
 5168TIP3   OH215509   4.401   4.140   4.204  0.1179 -0.2044  0.0986
 5168TIP3    H115510   4.451   4.134   4.123 -1.6095 -1.2963 -0.9520
 5168TIP3    H215511   4.331   4.076   4.194 -1.2210  0.9116  1.6966
 5169TIP3   OH215512   2.164   2.863   1.674 -0.8115  0.6874  0.1772
 5169TIP3    H115513   2.236   2.899   1.622 -0.0118 -0.6170  0.3607
 5169TIP3    H215514   2.200   2.851   1.761 -1.7895  1.6868  0.7418
 5170TIP3   OH215515   1.274   0.684   2.254 -0.1901  0.4361  0.1337
 5170TIP3    H115516   1.283   0.590   2.271 -1.7850  0.0254 -0.9720
 5170TIP3    H215517   1.306   0.696   2.164  0.5278  1.0558  0.4651
 5171TIP3   OH215518   6.250   2.069   0.038  0.0414  0.2423 -0.4058
 5171TIP3    H115519   6.339   2.052   0.006 -0.1376 -0.0535 -0.7406
 5171TIP3    H215520   6.202   2.098  -0.039 -0.3947 -0.4959 -0.4112
 5172TIP3   OH215521   0.510   2.365   0.296  0.4330 -0.5859 -0.3187
 5172TIP3    H115522   0.563   2.427   0.345  0.0459 -0.3711 -0.1680
 5172TIP3    H215523   0.463   2.419   0.232 -1.4770 -0.3981  1.1386
 5173TIP3   OH215524   3.606   2.006   1.347 -0.2494  0.3583 -0.8811
 5173TIP3    H115525   3.680   1.945   1.340 -0.9510 -0.4847 -1.1121
 5173TIP3    H215526   3.600   2.046   1.260 -1.8795 -1.7560 -1.8142
 5174TIP3   OH215527   1.809   3.051   2.975 -0.3552 -0.8370  0.3684
 5174TIP3    H115528   1.797   3.048   2.880  0.9798  0.0774  0.1432
 5174TIP3    H215529   1.864   2.975   2.995  0.9444 -0.0074  0.1098
 5175TIP3   OH215530   2.758   4.445   2.643  0.0278  0.0880 -0.1646
 5175TIP3    H115531   2.697   4.372   2.636  1.6301 -1.2860 -0.4267
 5175TIP3    H215532   2.749   4.493   2.561 -1.4270  0.5401  0.2310
 5176TIP3   OH215533   2.211   1.830   2.005  0.2075 -0.0720  0.3621
 5176TIP3    H115534   2.187   1.742   2.034  0.7396 -0.3898 -0.1417
 5176TIP3    H215535   2.141   1.855   1.944 -0.0324 -0.0773  0.6361
 5177TIP3   OH215536   2.743   3.818   1.883 -0.0401 -0.0711  0.4367
 5177TIP3    H115537   2.807   3.888   1.890  1.5425 -1.2806 -1.1460
 5177TIP3    H215538   2.659   3.860   1.903  0.9140  2.1065  0.1100
 5178TIP3   OH215539   0.165   1.394   3.606 -0.0674  0.5523 -0.1009
 5178TIP3    H115540   0.124   1.368   3.688  0.0828 -1.3026 -0.5780
 5178TIP3    H215541   0.105   1.365   3.538  0.4583  0.8249 -0.6995
 5179TIP3   OH215542   5.697   5.633   1.336 -0.8784 -0.4679 -0.1185
 5179TIP3    H115543   5.757   5.673   1.273 -1.6638  1.4872  0.2958
 5179TIP3    H215544   5.635   5.583   1.283 -0.7749  0.1304 -0.8149
 5180TIP3   OH215545   5.186   1.976   2.415 -0.7644  0.7337 -0.3898
 5180TIP3    H115546   5.199   1.988   2.321 -1.6967 -0.4595 -0.6981
 5180TIP3    H215547   5.093   1.995   2.429 -0.2059  3.0326  0.6908
 5181TIP3   OH215548   1.295   1.000   1.903 -0.3996  0.4556 -0.1934
 5181TIP3    H115549   1.267   1.010   1.812  0.3987 -0.1910 -0.5227
 5181TIP3    H215550   1.262   1.078   1.948  1.0214  1.8406 -1.4727
 5182TIP3   OH215551   0.355   4.400   3.461  0.2233 -0.5912  0.0754
 5182TIP3    H115552   0.340   4.319   3.412  1.1165 -0.4235 -0.5017
 5182TIP3    H215553   0.441   4.430   3.433 -0.0199  0.4820  0.3993
 5183TIP3   OH215554   0.481   0.722   0.635  0.2829 -0.0078 -0.1549
 5183TIP3    H115555   0.535   0.757   0.563 -2.2211  0.1713 -2.0949
 5183TIP3    H215556   0.492   0.627   0.629  2.1255  0.0841  1.0045
 5184TIP3   OH215557   2.293   5.256   3.046  0.5719 -0.6079  0.5402
 5184TIP3    H115558   2.349   5.265   2.968  0.2623 -1.4381  0.2158
 5184TIP3    H215559   2.313   5.334   3.098 -0.4910  0.8746 -1.1658
 5185TIP3   OH215560   1.492   0.977   3.901  0.6998  0.4845 -0.2241
 5185TIP3    H115561   1.529   0.924   3.972 -0.0091  0.2554 -0.0224
 5185TIP3    H215562   1.439   1.043   3.946 -1.2886 -0.8031 -0.5704
 5186TIP3   OH215563   2.507   3.780   2.935  0.7145 -0.2701  0.0728
 5186TIP3    H115564   2.453   3.766   3.013 -0.6387 -0.2550 -0.8198
 5186TIP3    H215565   2.444   3.799   2.866  1.9628  1.1192 -0.7359
 5187TIP3   OH215566   4.410   3.415   3.223  1.6307  0.0914 -0.3205
 5187TIP3    H115567   4.353   3.475   3.272 -1.7926 -0.1377 -3.5844
 5187TIP3    H215568   4.472   3.473   3.178 -0.1318  1.0302 -1.6120
 5188TIP3   OH215569   5.043   3.023   4.387  0.2408 -0.3854 -0.1070
 5188TIP3    H115570   5.027   2.975   4.468 -2.2761 -0.7843 -0.7531
 5188TIP3    H215571   4.975   3.090   4.385  1.5744  1.0044 -0.8917
 5189TIP3   OH215572   1.908   1.594   0.821 -0.0849  0.2485 -0.6603
 5189TIP3    H115573   1.943   1.507   0.803 -0.3995 -0.3748  1.5105
 5189TIP3    H215574   1.940   1.648   0.749  5.7436 -0.1175  1.1285
 5190TIP3   OH215575   2.801   3.006   4.824  0.7170 -0.0038 -0.0908
 5190TIP3    H115576   2.735   3.054   4.874  0.3012  0.0001 -0.6444
 5190TIP3    H215577   2.855   2.965   4.892 -1.9996 -3.0511  0.5013
 5191TIP3   OH215578   1.066   1.010   0.360 -0.0515  0.2816  0.1434
 5191TIP3    H115579   1.102   0.928   0.396 -1.0887 -0.7749 -1.1285
 5191TIP3    H215580   1.076   1.000   0.265 -2.7617  0.3513 -0.2068
 5192TIP3   OH215581   3.833   1.755   0.247  0.6982  0.6320  0.2842
 5192TIP3    H115582   3.789   1.838   0.228  0.2133  0.3746  0.2678
 5192TIP3    H215583   3.926   1.775   0.240  0.5638  0.7803 -1.4527
 5193TIP3   OH215584   6.110   5.472   2.406 -0.0151 -0.2352 -0.3383
 5193TIP3    H115585   6.022   5.446   2.380 -0.8395  1.9412  0.0388
 5193TIP3    H215586   6.161   5.391   2.403 -2.8384 -2.4357  3.0363
 5194TIP3   OH215587   1.257   5.651   4.141 -0.0072  0.0742 -0.0633
 5194TIP3    H115588   1.182   5.637   4.198 -0.3161 -1.0454 -0.7012
 5194TIP3    H215589   1.253   5.744   4.119 -0.8322  0.1714  0.4333
 5195TIP3   OH215590   3.379   1.488   1.764  0.0632  0.0460 -0.5609
 5195TIP3    H115591   3.337   1.572   1.781  2.2720  1.2998 -0.8348
 5195TIP3    H215592   3.344   1.459   1.680 -1.0122  0.4932 -0.2759
 5196TIP3   OH215593   5.475   3.746   1.393 -0.3276  0.0661  0.6213
 5196TIP3    H115594   5.498   3.712   1.480 -1.8716  1.0897  1.4958
 5196TIP3    H215595   5.436   3.672   1.348 -0.7638 -0.1455  1.3212
 5197TIP3   OH215596   1.472   0.478   3.146  0.1869 -0.0198  0.6347
 5197TIP3    H115597   1.521   0.397   3.155 -0.6458 -0.4337  1.6712
 5197TIP3    H215598   1.382   0.450   3.128  0.3828  0.7265 -1.8438
 5198TIP3   OH215599   6.334   1.355   3.366 -0.5132 -0.4020  0.3477
 5198TIP3    H115600   6.324   1.261   3.381 -1.3885 -0.3465  0.1440
 5198TIP3    H215601   6.404   1.362   3.301  0.1572 -0.8617  0.9985
 5199TIP3   OH215602   3.456   0.671   2.862  0.1818  0.2321  0.2770
 5199TIP3    H115603   3.519   0.703   2.797  0.3961 -0.1636  0.2872
 5199TIP3    H215604   3.379   0.726   2.850  0.1442  0.0297 -0.4507
 5200TIP3   OH215605   0.396   2.354   4.918  0.4600 -0.0142  0.3057
 5200TIP3    H115606   0.425   2.367   5.008  0.4852 -2.1235  0.6292
 5200TIP3    H215607   0.444   2.277   4.888  0.7709  0.8821 -1.6757
 5201TIP3   OH215608   5.563   1.921   3.466 -1.1297  0.0140  0.0438
 5201TIP3    H115609   5.519   1.957   3.543  0.1374 -0.5762  1.0880
 5201TIP3    H215610   5.646   1.969   3.461 -0.5823 -0.9173 -0.1025
 5202TIP3   OH215611   4.285   0.316   1.964  0.0032  0.2914 -0.0720
 5202TIP3    H115612   4.274   0.329   2.058  0.0364  1.3473 -0.2032
 5202TIP3    H215613   4.274   0.403   1.926  1.1808  0.0816 -0.9404
 5203TIP3   OH215614   1.027   4.373   3.742  0.6951 -0.1755  0.2506
 5203TIP3    H115615   1.051   4.437   3.810  0.8491 -0.7731  0.7681
 5203TIP3    H215616   1.104   4.316   3.736  0.2774 -0.7483  0.3113
 5204TIP3   OH215617   4.296   4.912   1.697  0.4558 -0.0368 -0.4004
 5204TIP3    H115618   4.235   4.965   1.646  0.2649 -0.3583 -0.5159
 5204TIP3    H215619   4.355   4.975   1.738  0.2464  0.2603 -0.5491
 5205TIP3   OH215620   5.343   4.556   0.690  0.5150  0.1853  0.0969
 5205TIP3    H115621   5.405   4.597   0.751 -1.5607  2.2271  0.9875
 5205TIP3    H215622   5.398   4.523   0.619  2.5890  2.7250  0.3615
 5206TIP3   OH215623   2.482   5.829   2.428  0.5225 -0.8545 -0.1225
 5206TIP3    H115624   2.500   5.793   2.341 -0.5801 -0.1648 -0.6600
 5206TIP3    H215625   2.404   5.782   2.458  0.4246 -0.5236  0.1492
 5207TIP3   OH215626   2.762   2.022   4.555  0.3511  0.0015  0.1169
 5207TIP3    H115627   2.710   1.987   4.627  0.6353 -2.0008 -0.5947
 5207TIP3    H215628   2.705   2.016   4.479 -0.0467  2.3658  0.1717
 5208TIP3   OH215629   2.955   5.300   0.326 -0.8429  0.2745 -0.3844
 5208TIP3    H115630   2.958   5.208   0.353  2.2898  0.1182 -0.9624
 5208TIP3    H215631   2.995   5.347   0.399 -1.0569  1.0105 -0.7401
 5209TIP3   OH215632   3.095   1.828   0.542  0.3678 -0.3657  0.3925
 5209TIP3    H115633   3.187   1.837   0.567  0.7818 -2.7679 -0.0113
 5209TIP3    H215634   3.064   1.917   0.528  2.3895  0.5360  1.3990
 5210TIP3   OH215635   0.311   5.167   2.717 -0.2242  0.2615 -0.8146
 5210TIP3    H115636   0.302   5.210   2.631 -0.9363 -0.2491 -1.0147
 5210TIP3    H215637   0.319   5.074   2.696 -0.0785  0.1640 -0.3355
 5211TIP3   OH215638   3.610   0.954   3.594 -0.5617  0.0762 -0.0281
 5211TIP3    H115639   3.668   0.989   3.526  0.3597  2.9271  2.0268
 5211TIP3    H215640   3.523   0.978   3.565 -0.0712  2.6934  0.4192
 5212TIP3   OH215641   1.390   5.563   1.725 -0.2081 -0.1265 -0.3297
 5212TIP3    H115642   1.334   5.590   1.652 -0.6701 -0.3009 -0.0501
 5212TIP3    H215643   1.332   5.510   1.780  0.1369 -0.0014  0.1581
 5213TIP3   OH215644   4.875   5.400   3.761  0.9752  0.1201  0.0245
 5213TIP3    H115645   4.909   5.429   3.676  0.5868  0.7510  0.0747
 5213TIP3    H215646   4.806   5.338   3.740  2.6881 -1.8783 -0.0732
 5214TIP3   OH215647   1.992   1.782   1.283 -0.4352 -0.6211  0.5040
 5214TIP3    H115648   2.048   1.705   1.269 -0.1339 -0.1746 -0.8394
 5214TIP3    H215649   2.049   1.846   1.325 -0.3740 -0.7238  0.5782
 5215TIP3   OH215650   4.730   5.073   3.202 -0.4534 -0.6739 -0.0686
 5215TIP3    H115651   4.710   5.126   3.279  0.7599  0.2014 -0.3313
 5215TIP3    H215652   4.644   5.045   3.170 -1.1131  0.9104  0.2302
 5216TIP3   OH215653   2.581   1.444   3.343  0.1064  0.9083 -0.5552
 5216TIP3    H115654   2.570   1.349   3.348  4.1240  0.3479  2.4282
 5216TIP3    H215655   2.647   1.457   3.275 -0.6579  1.6432 -1.1741
 5217TIP3   OH215656   0.080   3.740   3.554 -0.1347  0.2856 -0.5962
 5217TIP3    H115657   0.023   3.787   3.615 -0.2511  1.2710 -1.4278
 5217TIP3    H215658   0.023   3.676   3.512 -0.8127  1.6194 -1.8056
 5218TIP3   OH215659   5.546   2.415   3.619 -0.3847 -0.0991 -0.3212
 5218TIP3    H115660   5.587   2.359   3.685  2.6410  1.6215 -0.5357
 5218TIP3    H215661   5.544   2.362   3.540  0.3401 -0.6760  0.0340
 5219TIP3   OH215662   2.775   3.406   1.860  0.0093  0.3149  0.5328
 5219TIP3    H115663   2.808   3.319   1.882 -0.0057 -0.0244 -0.7092
 5219TIP3    H215664   2.760   3.403   1.765 -1.7560  1.0646  0.7458
 5220TIP3   OH215665   4.636   4.154   2.808 -0.1733  0.2069  0.0665
 5220TIP3    H115666   4.669   4.212   2.739  2.6315 -2.0369 -0.6563
 5220TIP3    H215667   4.547   4.131   2.779  0.6411 -0.0682 -2.4813
 5221TIP3   OH215668   4.049   4.622   0.138  0.2834 -0.3673  0.4252
 5221TIP3    H115669   4.002   4.604   0.219  1.3293 -3.0119  0.5555
 5221TIP3    H215670   4.023   4.550   0.079  0.9787  0.4557 -0.9303
 5222TIP3   OH215671   3.688   2.734   0.124  0.3885 -0.0333 -0.6086
 5222TIP3    H115672   3.668   2.826   0.140 -0.5891 -0.1873 -0.8528
 5222TIP3    H215673   3.631   2.710   0.051  1.5917 -0.4931 -1.4129
 5223TIP3   OH215674   0.337   5.212   0.241  0.2379 -0.0870  0.1056
 5223TIP3    H115675   0.367   5.291   0.286 -1.3271  0.5086  0.1699
 5223TIP3    H215676   0.417   5.171   0.208  1.1386  1.1435  0.6864
 5224TIP3   OH215677   0.108   5.410   2.824 -0.6033 -0.6999  0.2619
 5224TIP3    H115678   0.072   5.328   2.789 -2.2625  0.5528 -1.1321
 5224TIP3    H215679   0.119   5.392   2.918  0.1604 -2.8648 -0.1745
 5225TIP3   OH215680   2.212   2.677   3.031 -0.5432 -0.8163  0.3256
 5225TIP3    H115681   2.276   2.616   2.994 -0.0774 -1.1479  1.6096
 5225TIP3    H215682   2.247   2.698   3.118 -1.2579  0.4372  0.3361
 5226TIP3   OH215683   0.465   3.294   3.991  0.2808 -0.6063  0.3193
 5226TIP3    H115684   0.379   3.312   3.954  0.8612 -0.1662 -0.8787
 5226TIP3    H215685   0.477   3.361   4.058  0.6196  0.8427 -1.1144
 5227TIP3   OH215686   4.880   3.053   3.301  0.5340  0.3409  0.7490
 5227TIP3    H115687   4.838   3.092   3.378  0.1314 -0.4323  0.9220
 5227TIP3    H215688   4.952   3.113   3.281  0.6466  0.5482  1.7299
 5228TIP3   OH215689   1.240   2.238   2.595 -0.0919  0.9078 -0.2432
 5228TIP3    H115690   1.238   2.333   2.608 -1.0791  0.8752 -0.1109
 5228TIP3    H215691   1.278   2.204   2.676  0.2123  1.1858 -0.2666
 5229TIP3   OH215692   4.239   0.733   1.067  0.2967  0.1288  0.3728
 5229TIP3    H115693   4.221   0.816   1.113  1.0694  0.9506 -0.7737
 5229TIP3    H215694   4.255   0.759   0.977  2.1668 -1.0955  0.3180
 5230TIP3   OH215695   4.551   4.734   3.710  0.4844  0.0736  0.4566
 5230TIP3    H115696   4.611   4.687   3.653  1.2850 -1.1076  2.1634
 5230TIP3    H215697   4.466   4.690   3.698  1.1301 -1.6530  1.7299
 5231TIP3   OH215698   4.215   4.719   1.497  0.6841  0.5347  0.2622
 5231TIP3    H115699   4.185   4.723   1.588  0.7453  0.8329  0.2693
 5231TIP3    H215700   4.292   4.775   1.494  1.3364 -0.3341  0.2726
 5232TIP3   OH215701   1.168   5.712   2.526 -0.2366 -0.6548  0.1315
 5232TIP3    H115702   1.119   5.782   2.568 -0.0019 -1.7546  2.3761
 5232TIP3    H215703   1.198   5.750   2.443 -1.4050  1.3524  0.5709
 5233TIP3   OH215704   4.368   5.366   3.607  0.3779  0.1782 -0.1257
 5233TIP3    H115705   4.392   5.275   3.627 -0.5604 -0.3480 -1.2752
 5233TIP3    H215706   4.273   5.368   3.617  0.4030  1.0646 -0.0265
 5234TIP3   OH215707   3.446   0.568   0.497  0.4138  0.3249  0.2971
 5234TIP3    H115708   3.501   0.639   0.531  0.2630 -0.0019  1.2309
 5234TIP3    H215709   3.501   0.526   0.431  0.7927  0.8244  0.2818
 5235TIP3   OH215710   0.041   1.421   5.045  0.0067  0.5365 -0.5788
 5235TIP3    H115711  -0.000   1.412   4.959 -0.6248  0.2780 -0.2589
 5235TIP3    H215712   0.131   1.446   5.026  0.5609 -1.8455 -1.3900
 5236TIP3   OH215713   0.418   3.481   4.960  0.5536  0.3233  0.9078
 5236TIP3    H115714   0.346   3.495   4.899  2.1046 -0.0718 -1.1203
 5236TIP3    H215715   0.457   3.567   4.972  1.0687  0.1950  0.2269
 5237TIP3   OH215716   6.044   0.973   0.021 -0.0424  0.3830  0.3420
 5237TIP3    H115717   6.102   1.036  -0.022 -1.4230  0.2346 -1.8907
 5237TIP3    H215718   6.087   0.954   0.104  1.4810  2.6594  0.1705
 5238TIP3   OH215719   4.953   4.510   2.325 -0.1597  0.5128 -0.0523
 5238TIP3    H115720   5.004   4.449   2.273 -0.9245 -1.0100  0.9218
 5238TIP3    H215721   4.864   4.473   2.326 -0.4637  1.2079  1.2023
 5239TIP3   OH215722   2.979   4.082   4.261 -0.0026 -0.3216 -0.1518
 5239TIP3    H115723   2.957   3.992   4.239 -0.0974 -0.5891  1.0085
 5239TIP3    H215724   3.058   4.076   4.313 -1.1656  0.0685  1.7547
 5240TIP3   OH215725   1.399   4.960   5.155  0.2254  0.3170 -0.2090
 5240TIP3    H115726   1.489   4.956   5.188 -0.5004 -1.4222  1.7305
 5240TIP3    H215727   1.397   4.896   5.084  0.4317  0.1108 -0.0312
 5241TIP3   OH215728   1.441   4.722   4.983  0.4880 -0.1877  0.2455
 5241TIP3    H115729   1.497   4.695   4.910  0.7237 -0.2538  0.4487
 5241TIP3    H215730   1.463   4.660   5.053  0.5932  0.1574  0.5182
 5242TIP3   OH215731   4.338   3.613   2.762  0.8180 -0.0508 -0.1941
 5242TIP3    H115732   4.253   3.576   2.787  0.2813  2.2136  1.7055
 5242TIP3    H215733   4.400   3.541   2.769 -0.4785 -1.0771  1.3069
 5243TIP3   OH215734   3.272   3.604   4.940  0.8507  0.3087  0.3200
 5243TIP3    H115735   3.317   3.608   4.855  0.5736 -0.7425  0.1036
 5243TIP3    H215736   3.332   3.644   5.001  0.9983  1.2114 -0.4017
 5244TIP3   OH215737   1.819   0.684   3.865 -0.3065  0.1200  0.4993
 5244TIP3    H115738   1.757   0.711   3.797  0.2839 -0.2201 -0.1861
 5244TIP3    H215739   1.842   0.594   3.842  2.8243  1.2109 -1.0894
 5245TIP3   OH215740   1.042   1.585   3.887  0.0544  0.2196 -0.0375
 5245TIP3    H115741   1.061   1.530   3.810  1.3625  1.6497 -0.8069
 5245TIP3    H215742   1.076   1.535   3.961  0.2939 -0.4568 -0.5916
 5246TIP3   OH215743   2.966   4.805   3.093 -0.4666 -0.1265 -0.2053
 5246TIP3    H115744   3.058   4.791   3.069  0.0897  0.5674  1.3822
 5246TIP3    H215745   2.916   4.757   3.027  1.0518 -1.1007 -0.6902
 5247TIP3   OH215746   0.564   2.855   4.184 -0.5154  0.1173 -0.2960
 5247TIP3    H115747   0.650   2.815   4.195 -0.2999  0.1104 -1.8855
 5247TIP3    H215748   0.502   2.783   4.198 -0.2369 -0.1003 -0.1771
 5248TIP3   OH215749   0.283   5.857   4.836 -0.1590 -0.3523  0.0309
 5248TIP3    H115750   0.220   5.907   4.887  0.7014  1.3071 -0.4515
 5248TIP3    H215751   0.252   5.865   4.745  0.0985 -0.5450 -0.0762
 5249TIP3   OH215752   2.540   4.270   2.566 -0.1786 -0.1197  0.1734
 5249TIP3    H115753   2.583   4.219   2.497 -1.3281 -1.7880  0.6252
 5249TIP3    H215754   2.511   4.205   2.629  0.9079  1.3531  2.3455
 5250TIP3   OH215755   0.623   1.375   2.651 -0.1291  0.4305 -0.3389
 5250TIP3    H115756   0.675   1.450   2.679 -0.3170  0.3903  0.1353
 5250TIP3    H215757   0.629   1.375   2.556 -0.6141  1.3919 -0.3779
 5251TIP3   OH215758   3.896   4.422   3.344  0.1937 -0.1874 -0.1991
 5251TIP3    H115759   3.891   4.326   3.337  1.1117 -0.3089  0.6362
 5251TIP3    H215760   3.983   4.444   3.309  0.5095  0.2032  0.8035
 5252TIP3   OH215761   4.543   3.392   4.024  0.1748  0.7109  0.3817
 5252TIP3    H115762   4.530   3.411   3.931 -0.1584  1.8472  0.6462
 5252TIP3    H215763   4.558   3.478   4.064  0.5365  0.2083  1.3435
 5253TIP3   OH215764   2.786   5.061   3.432  0.0703 -0.5138 -0.0198
 5253TIP3    H115765   2.870   5.033   3.467  0.1744  0.5921  0.6797
 5253TIP3    H215766   2.807   5.107   3.350  0.0165 -1.3394 -0.5057
 5254TIP3   OH215767   4.131   1.524   2.618  0.0566 -0.3948 -0.9835
 5254TIP3    H115768   4.190   1.473   2.674  0.1126  1.5179  0.8248
 5254TIP3    H215769   4.169   1.519   2.531  1.7296 -0.9293 -0.2633
 5255TIP3   OH215770   3.168   4.978   1.809 -0.4629 -0.2032  0.1267
 5255TIP3    H115771   3.142   5.051   1.866  1.1377 -0.2641  0.9955
 5255TIP3    H215772   3.187   5.020   1.725  1.1818  0.5386  0.8289
 5256TIP3   OH215773   6.073   5.634   0.106  0.3854  0.4200  0.0124
 5256TIP3    H115774   5.987   5.611   0.070 -0.5850 -0.2799  2.5767
 5256TIP3    H215775   6.135   5.585   0.051 -1.0886 -1.7389  0.1421
 5257TIP3   OH215776   1.504   0.915   4.939  0.9296 -0.0660 -0.2015
 5257TIP3    H115777   1.446   0.850   4.979 -1.5164  2.3599  0.5092
 5257TIP3    H215778   1.552   0.953   5.013 -2.1347  3.0117  0.4979
 5258TIP3   OH215779   0.817   4.635   0.787 -0.0501  0.5789  0.3931
 5258TIP3    H115780   0.734   4.590   0.804  0.5179 -0.3953  0.6905
 5258TIP3    H215781   0.877   4.599   0.852  0.3720  1.9663  0.8001
 5259TIP3   OH215782   1.122   3.578   3.892 -0.1710  0.1023 -0.3207
 5259TIP3    H115783   1.091   3.593   3.803  0.7774  3.1386 -0.2528
 5259TIP3    H215784   1.216   3.561   3.883 -0.2037 -0.3014  0.0603
 5260TIP3   OH215785   0.316   2.666   4.162  0.3348  0.1164 -0.2173
 5260TIP3    H115786   0.321   2.665   4.258 -1.0357 -1.7128 -0.1055
 5260TIP3    H215787   0.268   2.587   4.140 -0.8954  1.3677 -2.3496
 5261TIP3   OH215788   5.541   3.197   2.671  0.7039 -0.4781  0.5848
 5261TIP3    H115789   5.447   3.182   2.661  0.4785  1.5887 -1.1317
 5261TIP3    H215790   5.579   3.109   2.672 -1.1539 -1.3436  0.4178
 5262TIP3   OH215791   3.016   3.303   3.754 -0.1644 -0.8655 -0.5658
 5262TIP3    H115792   3.092   3.361   3.747 -0.0288 -1.0810 -0.8702
 5262TIP3    H215793   3.039   3.241   3.823 -0.8819  0.3030  0.8024
 5263TIP3   OH215794   0.710   5.165   4.915  0.1779  0.0799 -0.5561
 5263TIP3    H115795   0.778   5.230   4.898 -0.7381  1.0319 -0.6926
 5263TIP3    H215796   0.664   5.157   4.832 -0.6961  0.4389 -0.1228
 5264TIP3   OH215797   4.237   1.183   3.857 -0.1565 -0.5495  0.4803
 5264TIP3    H115798   4.314   1.227   3.823 -1.4331  1.6450  0.2776
 5264TIP3    H215799   4.193   1.148   3.780 -1.2009  1.3537  0.1598
 5265TIP3   OH215800   0.811   0.226   0.202  0.1541  0.2092  0.0480
 5265TIP3    H115801   0.894   0.226   0.154 -0.0688  1.0106 -0.3533
 5265TIP3    H215802   0.745   0.208   0.135 -0.2992  2.6958 -0.2520
 5266TIP3   OH215803   5.823   4.186   3.223 -0.5088 -0.4852 -0.7092
 5266TIP3    H115804   5.905   4.145   3.250 -0.3658 -0.5808 -1.2799
 5266TIP3    H215805   5.763   4.170   3.296  0.0329 -0.2523 -0.2094
 5267TIP3   OH215806   4.184   2.461   1.893 -0.0218  0.3971 -0.7710
 5267TIP3    H115807   4.262   2.406   1.881 -0.0140  0.7095 -2.3985
 5267TIP3    H215808   4.111   2.400   1.884 -0.0310 -0.0864  1.7512
 5268TIP3   OH215809   1.089   0.939   3.419  0.4032 -0.3813 -0.3668
 5268TIP3    H115810   1.145   0.868   3.387  2.6079  1.6823 -1.4523
 5268TIP3    H215811   1.060   0.984   3.339  1.6973  1.7607  0.2717
 5269TIP3   OH215812   4.484   2.020   3.618  0.0009  0.2479 -0.1270
 5269TIP3    H115813   4.510   2.056   3.533  0.5230 -0.3222 -0.2210
 5269TIP3    H215814   4.431   1.943   3.596 -1.0415  0.8987  0.0683
 5270TIP3   OH215815   5.281   2.706   4.755  0.7796  0.0031  0.1173
 5270TIP3    H115816   5.290   2.730   4.663 -0.1912 -0.2177 -0.0519
 5270TIP3    H215817   5.362   2.662   4.777  1.6748  1.4109 -0.2016
 5271TIP3   OH215818   0.162   0.449   3.502  0.0310  0.2808 -0.1746
 5271TIP3    H115819   0.180   0.454   3.595 -1.6358  1.0937  0.1439
 5271TIP3    H215820   0.232   0.498   3.460  1.4333 -1.0331  0.5211
 5272TIP3   OH215821   5.692   2.958   2.584 -0.4581 -0.2135  0.0534
 5272TIP3    H115822   5.702   2.867   2.556  0.2528 -0.1447  0.0652
 5272TIP3    H215823   5.702   2.956   2.679 -0.5786 -0.1410  0.0682
 5273TIP3   OH215824   0.566   5.263   3.949  0.0346 -0.3098 -0.0940
 5273TIP3    H115825   0.640   5.235   3.895 -0.5720  0.6390 -1.4633
 5273TIP3    H215826   0.552   5.190   4.009  1.1203 -1.1437 -0.8072
 5274TIP3   OH215827   5.949   1.474   4.583  0.4404  0.4485 -0.5430
 5274TIP3    H115828   5.901   1.534   4.640 -1.7334 -1.6303  0.0358
 5274TIP3    H215829   5.887   1.453   4.513  2.0760  0.8353 -2.1826
 5275TIP3   OH215830   2.351   3.898   1.143 -0.1423  0.1060 -0.2911
 5275TIP3    H115831   2.382   3.814   1.111 -1.5260 -0.7039  0.4276
 5275TIP3    H215832   2.270   3.915   1.093 -1.0378 -0.0448  1.0539
 5276TIP3   OH215833   3.513   1.982   2.805 -0.1968 -0.4403 -0.0592
 5276TIP3    H115834   3.511   1.901   2.856 -2.1398 -0.7261 -0.5136
 5276TIP3    H215835   3.492   1.954   2.715 -3.0644  0.7479  0.1420
 5277TIP3   OH215836   1.564   3.638   3.521  0.1720  0.1848 -0.1839
 5277TIP3    H115837   1.597   3.548   3.530  0.5447  0.4032  0.8748
 5277TIP3    H215838   1.562   3.671   3.611  0.0243  1.2312 -0.5590
 5278TIP3   OH215839   5.973   4.310   0.507  0.2420  0.7429 -0.1251
 5278TIP3    H115840   6.009   4.245   0.446 -0.5905 -0.8915  1.0756
 5278TIP3    H215841   6.041   4.378   0.511  2.5820 -1.4657  0.8545
 5279TIP3   OH215842   0.109   4.664   0.678  0.3782  0.2988  0.1519
 5279TIP3    H115843   0.181   4.661   0.740  0.8689  2.1636 -0.2367
 5279TIP3    H215844   0.030   4.663   0.732  0.6686 -1.3355  0.6008
 5280TIP3   OH215845   4.965   5.755   3.013  0.2827 -0.7926  0.1075
 5280TIP3    H115846   4.977   5.708   2.930 -0.6866 -2.4331  0.8519
 5280TIP3    H215847   4.871   5.770   3.019  0.5562  1.5029 -0.1806
 5281TIP3   OH215848   2.788   5.255   2.886  0.2584 -0.0741  0.1916
 5281TIP3    H115849   2.840   5.283   2.810  0.1226  0.4945  0.3026
 5281TIP3    H215850   2.798   5.160   2.888  0.4206 -0.0768 -0.4279
 5282TIP3   OH215851   2.953   0.851   2.886  0.2327 -0.0216  0.0184
 5282TIP3    H115852   2.895   0.867   2.812  1.1012 -0.1836 -0.7234
 5282TIP3    H215853   2.984   0.761   2.874  1.4954  0.4253 -0.2402
 5283TIP3   OH215854   2.666   2.261   1.698 -0.3502  0.2032 -0.2916
 5283TIP3    H115855   2.685   2.355   1.704 -0.7743  0.3496 -1.0816
 5283TIP3    H215856   2.576   2.253   1.729 -1.0877  0.3905 -2.1999
 5284TIP3   OH215857   6.259   3.171   1.531 -0.0721 -0.0537  0.2491
 5284TIP3    H115858   6.336   3.120   1.505  0.2010 -0.6467  2.0331
 5284TIP3    H215859   6.282   3.206   1.617 -0.6599  2.3027 -0.4925
 5285TIP3   OH215860   4.742   1.212   0.292  0.0167 -0.6576 -0.0516
 5285TIP3    H115861   4.670   1.243   0.348 -0.3391 -1.1382 -0.2410
 5285TIP3    H215862   4.738   1.117   0.298 -0.0084 -0.7140 -0.8681
 5286TIP3   OH215863   3.457   0.309   1.436  0.2242 -0.2980  0.3332
 5286TIP3    H115864   3.428   0.387   1.484 -0.4999 -0.4648  0.1886
 5286TIP3    H215865   3.472   0.243   1.503  4.1609  0.8630  0.8482
 5287TIP3   OH215866   4.130   2.225   1.270 -0.1117  0.2689  0.0168
 5287TIP3    H115867   4.146   2.199   1.180 -2.4959  0.0070 -0.3973
 5287TIP3    H215868   4.191   2.297   1.286  0.6410  0.0344 -1.6458
 5288TIP3   OH215869   5.024   1.671   0.612  0.6687 -0.3713 -0.3300
 5288TIP3    H115870   5.058   1.596   0.562  0.9406 -1.3074  1.2010
 5288TIP3    H215871   5.041   1.648   0.703  0.3038  1.3595  0.1959
 5289TIP3   OH215872   4.599   1.048   0.599  0.4037  0.4283 -0.1580
 5289TIP3    H115873   4.518   1.057   0.548  1.0081  1.6818 -0.9495
 5289TIP3    H215874   4.655   0.992   0.546  1.2873  2.2741 -1.2704
 5290TIP3   OH215875   3.348   0.175   4.768 -0.6696 -0.1799  0.1142
 5290TIP3    H115876   3.311   0.233   4.835  0.6265  0.4909  0.2825
 5290TIP3    H215877   3.302   0.199   4.688 -0.7673  0.4712  0.3557
 5291TIP3   OH215878   0.245   4.464   2.788  0.3704  0.1297 -0.2673
 5291TIP3    H115879   0.289   4.419   2.716  0.2285 -0.0523 -0.2424
 5291TIP3    H215880   0.276   4.555   2.783  0.9101 -0.0417 -0.1205
 5292TIP3   OH215881   0.391   3.438   4.619 -0.3755 -0.8231  0.2149
 5292TIP3    H115882   0.394   3.531   4.596 -2.5519 -0.7225  0.1297
 5292TIP3    H215883   0.344   3.436   4.703  0.6364 -1.7771  0.7795
 5293TIP3   OH215884   6.111   0.528   0.695 -0.2234 -0.0639 -0.1011
 5293TIP3    H115885   6.096   0.455   0.754 -0.9394 -0.4939 -0.7963
 5293TIP3    H215886   6.034   0.529   0.637 -0.7405  1.8509  0.5231
 5294TIP3   OH215887   4.126   5.044   1.523 -0.7867  0.0362 -0.3665
 5294TIP3    H115888   4.180   5.062   1.446 -0.4191  1.5627  0.2086
 5294TIP3    H215889   4.037   5.070   1.497 -0.4470  1.8149  0.0947
 5295TIP3   OH215890   0.018   2.666   0.584  0.2814  0.3161 -0.0452
 5295TIP3    H115891   0.077   2.741   0.589 -1.8615  2.2775 -1.7606
 5295TIP3    H215892   0.052   2.604   0.649  1.7230  3.0635  2.0416
 5296TIP3   OH215893   5.853   2.515   0.973  0.2759  0.4112  0.5152
 5296TIP3    H115894   5.837   2.484   0.884  1.7730  0.8795  0.0455
 5296TIP3    H215895   5.833   2.440   1.029  0.0789 -0.1359 -0.2711
 5297TIP3   OH215896   1.435   5.747   0.552 -0.1728  0.2061 -0.4645
 5297TIP3    H115897   1.365   5.725   0.614 -0.1000  0.6968 -0.2039
 5297TIP3    H215898   1.487   5.667   0.545 -0.4892 -0.0192 -0.3042
 5298TIP3   OH215899   5.771   0.624   2.375  0.4128  0.1188  0.0493
 5298TIP3    H115900   5.753   0.713   2.405 -1.1961 -0.4796  0.9855
 5298TIP3    H215901   5.738   0.568   2.445  0.0624 -1.2551 -1.1600
 5299TIP3   OH215902   2.387   4.740   2.954 -0.1246 -0.0988 -0.2892
 5299TIP3    H115903   2.437   4.703   3.027 -0.2019 -0.6130 -0.4963
 5299TIP3    H215904   2.296   4.739   2.985  0.0753  1.9083  0.5531
 5300TIP3   OH215905   4.233   1.558   3.386  0.4065 -0.0414  0.1338
 5300TIP3    H115906   4.265   1.621   3.451  0.4460  0.2581 -0.1696
 5300TIP3    H215907   4.145   1.588   3.365  0.1517 -0.5119  0.5197
 5301TIP3   OH215908   5.805   3.532   0.127 -0.0253  0.2747 -0.1431
 5301TIP3    H115909   5.839   3.529   0.037 -0.0495  0.7315 -0.1699
 5301TIP3    H215910   5.750   3.610   0.129  1.7841  1.5937  0.8908
 5302TIP3   OH215911   0.925   0.266   5.153 -0.2673 -0.5892  0.7431
 5302TIP3    H115912   0.876   0.320   5.215  0.4504  0.2628  0.5727
 5302TIP3    H215913   1.009   0.250   5.196 -1.3209 -3.7429  1.9434
 5303TIP3   OH215914   3.820   2.872   1.981  0.0369 -0.2038 -0.0655
 5303TIP3    H115915   3.730   2.868   1.948  0.1474  0.6555 -0.4688
 5303TIP3    H215916   3.874   2.842   1.908  0.0005 -2.0977  0.6203
 5304TIP3   OH215917   6.275   1.556   1.970  0.3495 -0.1053 -0.3378
 5304TIP3    H115918   6.241   1.471   1.941 -2.2849  0.7800 -0.0936
 5304TIP3    H215919   6.203   1.617   1.956  1.6361  1.8151  0.9194
 5305TIP3   OH215920   4.445   4.796   3.987 -0.3123  0.1294 -0.4878
 5305TIP3    H115921   4.416   4.709   4.015 -0.3648  0.1244 -0.5581
 5305TIP3    H215922   4.462   4.786   3.893  1.4771 -0.3063 -0.1711
 5306TIP3   OH215923   2.228   3.158   4.826 -0.3134 -0.0372  0.1792
 5306TIP3    H115924   2.177   3.238   4.810 -0.2442 -0.2055 -0.9628
 5306TIP3    H215925   2.286   3.151   4.750  0.8460 -0.2949  1.0567
 5307TIP3   OH215926   0.629   0.039   4.617  0.6356  0.0591 -0.1163
 5307TIP3    H115927   0.542   0.045   4.577  0.0482  0.2547  1.1472
 5307TIP3    H215928   0.615  -0.013   4.696  0.9687  2.8288  1.9070
 5308TIP3   OH215929   3.748   0.467   3.946 -0.0011  0.6240 -0.0051
 5308TIP3    H115930   3.667   0.421   3.970  0.0633  0.4487 -0.1299
 5308TIP3    H215931   3.810   0.398   3.925  0.6952  0.6876  1.6853
 5309TIP3   OH215932   5.772   4.609   3.604  0.2318 -0.4687 -0.3163
 5309TIP3    H115933   5.728   4.549   3.543  1.2725  0.2376 -1.8164
 5309TIP3    H215934   5.858   4.569   3.618  0.0119 -0.6069  0.6912
 5310TIP3   OH215935   0.599   1.348   4.058  0.0398 -0.4170 -0.3725
 5310TIP3    H115936   0.616   1.262   4.096  0.1490 -0.3827 -0.3432
 5310TIP3    H215937   0.558   1.330   3.974 -0.8448 -0.4895  0.0569
 5311TIP3   OH215938   2.404   3.951   4.200 -0.4032  0.0171  0.1375
 5311TIP3    H115939   2.345   3.880   4.226 -0.7378  0.3336  0.2456
 5311TIP3    H215940   2.350   4.030   4.203  0.7132  0.7823  3.0417
 5312TIP3   OH215941   1.825   5.522   3.106 -0.7825  0.2639  0.1253
 5312TIP3    H115942   1.909   5.532   3.150 -0.0919 -1.1945 -0.7647
 5312TIP3    H215943   1.784   5.447   3.148 -1.0182  0.1149 -0.3570
 5313TIP3   OH215944   3.524   0.835   0.064  0.4790 -0.1041 -0.0501
 5313TIP3    H115945   3.504   0.921   0.028  1.5060 -0.3101 -1.1650
 5313TIP3    H215946   3.440   0.799   0.090  0.1744  2.0050  2.2829
 5314TIP3   OH215947   2.403   4.358   0.939 -0.2794 -0.0542 -0.0535
 5314TIP3    H115948   2.315   4.341   0.906 -0.9931  0.6316  1.4257
 5314TIP3    H215949   2.458   4.291   0.897 -1.2692  0.2449 -1.9102
 5315TIP3   OH215950   5.559   4.772   2.919  0.5991 -0.7059 -0.3212
 5315TIP3    H115951   5.556   4.851   2.866  0.8460  0.0916  0.7990
 5315TIP3    H215952   5.576   4.702   2.857  0.2038  0.0987 -1.3631
 5316TIP3   OH215953   3.094   4.627   2.654 -0.1223  0.5781  0.2128
 5316TIP3    H115954   3.145   4.698   2.693 -0.4094  0.1601  1.4156
 5316TIP3    H215955   3.102   4.640   2.560  1.5693  0.9688  0.3710
 5317TIP3   OH215956   3.557   5.383   4.915 -0.3908  0.0065 -0.2584
 5317TIP3    H115957   3.547   5.468   4.958 -1.6897  0.0503 -0.5996
 5317TIP3    H215958   3.537   5.319   4.983 -1.9568  0.0622 -0.6381
 5318TIP3   OH215959   4.280   1.916   4.305  0.8955  0.7460  0.0515
 5318TIP3    H115960   4.290   2.011   4.305 -0.0060  0.8489 -0.7188
 5318TIP3    H215961   4.192   1.901   4.338  0.5927  0.2415 -0.9625
 5319TIP3   OH215962   5.155   5.943   2.460  0.1842 -0.2554 -0.1071
 5319TIP3    H115963   5.082   5.905   2.509  2.4832 -0.1587  3.7477
 5319TIP3    H215964   5.139   6.037   2.462  0.2016 -0.2612  0.3886
 5320TIP3   OH215965   4.320   0.657   1.646  0.0881 -0.4362  0.2754
 5320TIP3    H115966   4.383   0.585   1.643  1.2314  0.5520  0.2286
 5320TIP3    H215967   4.263   0.636   1.720  0.7014 -1.1469  0.5543
 5321TIP3   OH215968   5.024   4.992   2.831 -0.1874  0.0623  0.2958
 5321TIP3    H115969   4.949   4.951   2.787 -0.4770  1.2412 -0.3477
 5321TIP3    H215970   5.014   4.967   2.922  0.2256 -2.1406 -0.2204
 5322TIP3   OH215971   2.965   5.646   2.766 -0.7116  1.5831 -0.4326
 5322TIP3    H115972   2.918   5.729   2.767 -1.0668  1.4687 -2.4422
 5322TIP3    H215973   2.897   5.580   2.756 -0.2941  1.2377 -1.0841
 5323TIP3   OH215974   0.820   5.240   1.533 -0.1307  0.2595  0.2451
 5323TIP3    H115975   0.915   5.246   1.523 -0.1496  1.6090  0.6212
 5323TIP3    H215976   0.807   5.240   1.628 -0.3323 -4.3895  0.4110
 5324TIP3   OH215977   5.574   1.238   4.511 -0.1874 -0.0552 -0.0031
 5324TIP3    H115978   5.562   1.219   4.604 -1.2759 -1.7681 -0.4495
 5324TIP3    H215979   5.491   1.213   4.471  0.1222  1.0571 -1.3941
 5325TIP3   OH215980   1.940   1.593   1.542  0.3328  0.0495 -0.1021
 5325TIP3    H115981   1.898   1.679   1.545 -2.5985 -1.1482 -1.8731
 5325TIP3    H215982   1.970   1.579   1.632  0.5717  2.7091  0.3266
 5326TIP3   OH215983   1.985   0.516   1.242 -0.5009  0.0952 -0.0408
 5326TIP3    H115984   1.948   0.574   1.176 -3.9942 -2.4435 -0.6457
 5326TIP3    H215985   2.044   0.458   1.193  0.7452  1.2623  0.0439
 5327TIP3   OH215986   1.305   0.345   3.479 -0.4655 -0.3362 -0.1014
 5327TIP3    H115987   1.244   0.318   3.409 -0.7163  1.0789 -0.4590
 5327TIP3    H215988   1.362   0.269   3.490 -1.0308 -0.9622 -1.1646
 5328TIP3   OH215989   0.169   0.888   1.377 -0.0121  0.2149 -0.6413
 5328TIP3    H115990   0.228   0.940   1.322  0.5910  0.3373  0.1023
 5328TIP3    H215991   0.182   0.922   1.466 -1.9233  0.8988 -0.5855
 5329TIP3   OH215992   1.863   3.464   0.461 -0.0595  0.1503  0.6084
 5329TIP3    H115993   1.845   3.558   0.454  0.8739  0.4128  1.3890
 5329TIP3    H215994   1.959   3.458   0.457 -0.1630 -1.0170 -2.0196
 5330TIP3   OH215995   4.734   3.358   0.821 -0.0514  0.8523  0.0749
 5330TIP3    H115996   4.815   3.314   0.797  0.4165  1.5025  0.4457
 5330TIP3    H215997   4.668   3.321   0.761  0.4097 -0.0314  0.0957
 5331TIP3   OH215998   2.916   4.176   0.910 -0.0024  0.0583  0.1232
 5331TIP3    H115999   2.941   4.243   0.846 -1.1481 -0.8233 -1.3211
 5331TIP3    H216000   2.996   4.125   0.924  0.4063  0.6114 -0.1598
 5332TIP3   OH216001   3.502   0.041   3.924 -0.6355  0.1673 -0.1158
 5332TIP3    H116002   3.412   0.038   3.891 -0.8813  0.9383  0.4618
 5332TIP3    H216003   3.509   0.126   3.967  0.4521  0.2153 -0.3731
 5333TIP3   OH216004   1.385   1.647   4.889 -0.5203  0.2505 -0.2810
 5333TIP3    H116005   1.312   1.679   4.837 -1.4177 -0.6189  0.4074
 5333TIP3    H216006   1.345   1.600   4.962  0.6967 -1.3342 -0.5594
 5334TIP3   OH216007   1.157   5.453   2.599  0.2287 -0.5305 -0.3888
 5334TIP3    H116008   1.062   5.445   2.593  0.2304  0.1272 -1.9626
 5334TIP3    H216009   1.173   5.547   2.592  1.0249 -0.7066 -1.0837
 5335TIP3   OH216010   0.312   0.019   3.389  0.1532 -0.2237  0.0543
 5335TIP3    H116011   0.349  -0.069   3.383  1.6016  0.3810 -0.3271
 5335TIP3    H216012   0.327   0.057   3.302  0.1682  0.6345  0.4232
 5336TIP3   OH216013   0.606   3.967   4.216  0.3104  0.0940 -0.4082
 5336TIP3    H116014   0.532   3.921   4.257  1.5196  0.3679  2.3008
 5336TIP3    H216015   0.669   3.897   4.195  0.0408  0.0378 -1.0453
 5337TIP3   OH216016   4.951   4.470   3.604  0.2393 -0.0890 -0.2917
 5337TIP3    H116017   4.968   4.391   3.656 -1.7757 -0.4232 -0.0417
 5337TIP3    H216018   4.998   4.540   3.649 -1.6158 -0.3243  2.1832
 5338TIP3   OH216019   4.344   1.872   1.266  0.5869  0.5720 -0.0845
 5338TIP3    H116020   4.265   1.818   1.273  0.3555  0.5493 -2.2474
 5338TIP3    H216021   4.416   1.810   1.262  0.4335  0.4581 -1.2442
 5339TIP3   OH216022   1.232   1.847   5.190  0.2033 -0.5301 -0.1575
 5339TIP3    H116023   1.222   1.892   5.106  1.1287 -0.1852 -0.0982
 5339TIP3    H216024   1.326   1.853   5.209  0.0245 -0.7307  0.8352
 5340TIP3   OH216025   1.501   3.112   2.636 -0.2322 -0.4685 -0.2126
 5340TIP3    H116026   1.581   3.163   2.648  0.1781 -0.5074 -2.3312
 5340TIP3    H216027   1.444   3.139   2.708  1.0102  0.8822  0.3259
 5341TIP3   OH216028   5.257   5.343   0.984  0.4538  0.0543  0.2203
 5341TIP3    H116029   5.272   5.436   0.996  0.2126  0.1252 -0.0211
 5341TIP3    H216030   5.342   5.302   1.001  0.5184  0.3008  0.4880
 5342TIP3   OH216031   5.089   4.999   1.733 -0.4482  0.6535  0.6196
 5342TIP3    H116032   5.145   5.029   1.804 -1.2566  1.8490  0.7884
 5342TIP3    H216033   5.105   4.905   1.728  1.3414  0.9122  0.8341
 5343TIP3   OH216034   4.773   1.181   1.260 -0.3964  0.6631  0.4281
 5343TIP3    H116035   4.699   1.133   1.221 -0.2455  1.4570 -0.8811
 5343TIP3    H216036   4.849   1.151   1.211  0.3452 -0.7776  2.3111
 5344TIP3   OH216037   5.074   3.639   0.106  0.4880 -0.4572 -0.2311
 5344TIP3    H116038   5.004   3.638   0.041  0.5850  0.6076 -0.3763
 5344TIP3    H216039   5.131   3.711   0.079  0.1991  0.4242  1.3560
 5345TIP3   OH216040   3.496   1.263   2.948 -0.2329 -0.0781 -0.4566
 5345TIP3    H116041   3.500   1.168   2.934 -0.7361 -0.2502  0.4671
 5345TIP3    H216042   3.577   1.284   2.995 -0.1061 -0.0528 -0.6907
 5346TIP3   OH216043   4.789   0.346   1.359 -0.2063  0.3327  0.1765
 5346TIP3    H116044   4.778   0.273   1.420  1.2319  1.5694  2.0727
 5346TIP3    H216045   4.820   0.306   1.278  1.5850 -1.1134  1.4958
 5347TIP3   OH216046   5.396   3.451   3.413 -0.1662 -0.0370  0.4878
 5347TIP3    H116047   5.480   3.409   3.433  1.5452  1.2659 -3.1189
 5347TIP3    H216048   5.352   3.389   3.354  0.0477  0.8953 -0.6874
 5348TIP3   OH216049   0.078   3.566   1.964 -0.4239 -0.2183  0.3465
 5348TIP3    H116050   0.050   3.478   1.990 -0.8534  0.4528  2.3408
 5348TIP3    H216051   0.130   3.598   2.037  0.1245  1.0251 -0.5432
 5349TIP3   OH216052   3.067   4.431   0.773  0.0880 -0.2232 -0.1842
 5349TIP3    H116053   2.978   4.466   0.761  0.1465  0.2258  0.6521
 5349TIP3    H216054   3.120   4.481   0.711 -0.1712 -0.2199 -0.4081
 5350TIP3   OH216055   2.689   1.954   2.687  0.5729  0.1503 -0.6963
 5350TIP3    H116056   2.649   1.905   2.759  1.7439  0.4751  0.2135
 5350TIP3    H216057   2.657   1.911   2.608 -1.1183  0.0673 -0.0234
 5351TIP3   OH216058   0.221   1.643   2.724  0.9919 -0.0704 -0.4989
 5351TIP3    H116059   0.248   1.716   2.668 -1.3982  1.3076 -0.0216
 5351TIP3    H216060   0.139   1.612   2.685  0.5995 -0.7627  0.8045
 5352TIP3   OH216061   1.697   4.422   4.143  0.4792  0.7640  0.0899
 5352TIP3    H116062   1.691   4.506   4.099  0.5134  1.8922  2.1091
 5352TIP3    H216063   1.606   4.398   4.161  0.2997 -0.8172 -2.4497
 5353TIP3   OH216064   0.473   5.745   2.951 -0.8401 -0.3177  0.6643
 5353TIP3    H116065   0.541   5.809   2.973 -1.5842  0.1393  1.7526
 5353TIP3    H216066   0.514   5.660   2.969  0.9732 -0.3963 -3.0267
 5354TIP3   OH216067   5.554   0.591   3.652  0.3971  0.0486 -0.5835
 5354TIP3    H116068   5.533   0.540   3.730  0.5975 -0.6102 -0.9592
 5354TIP3    H216069   5.598   0.669   3.686 -1.2103  0.7049  0.1020
 5355TIP3   OH216070   3.436   2.425   1.312 -0.8930  0.7302  0.0929
 5355TIP3    H116071   3.510   2.431   1.253 -0.4340 -0.1209  0.5596
 5355TIP3    H216072   3.434   2.510   1.358  0.1556  0.5490  0.4947
 5356TIP3   OH216073   2.777   4.261   4.365  0.4988 -0.1644  0.1831
 5356TIP3    H116074   2.839   4.210   4.311  1.2850  1.1824 -0.2325
 5356TIP3    H216075   2.833   4.311   4.424 -0.1411  1.4216 -0.4995
 5357TIP3   OH216076   3.939   0.207   1.257 -0.2044  0.2347  0.3102
 5357TIP3    H116077   3.966   0.145   1.325  2.2461  1.3739  0.5241
 5357TIP3    H216078   3.890   0.274   1.304 -0.1107  0.0720  0.6456
 5358TIP3   OH216079   1.986   5.011   2.160 -0.3888  0.2524 -0.1591
 5358TIP3    H116080   1.953   4.922   2.171  1.2845 -0.2325  1.5154
 5358TIP3    H216081   2.074   5.000   2.123 -0.3600  1.2438 -0.4236
 5359TIP3   OH216082   1.103   2.279   4.859 -0.0517  0.4923  0.5000
 5359TIP3    H116083   1.048   2.256   4.934 -0.9261  1.0645  0.0589
 5359TIP3    H216084   1.143   2.196   4.833 -0.0303  0.2207  1.3629
 5360TIP3   OH216085   4.590   4.052   0.541 -0.2226 -0.1077 -0.1105
 5360TIP3    H116086   4.613   4.135   0.500 -0.9517  0.8310  1.3231
 5360TIP3    H216087   4.494   4.051   0.543 -0.2234 -0.0328  1.6734
 5361TIP3   OH216088   3.980   5.219   0.876  0.0230 -0.0642  0.4290
 5361TIP3    H116089   4.012   5.204   0.965 -2.1093  1.2215  1.4897
 5361TIP3    H216090   3.892   5.181   0.875  0.9429 -2.4079 -2.0080
 5362TIP3   OH216091   0.221   0.495   1.625  0.1852 -0.0153 -0.1166
 5362TIP3    H116092   0.268   0.412   1.622  0.4900  0.1341  0.4126
 5362TIP3    H216093   0.233   0.533   1.538 -0.2980 -0.7072 -0.4987
 5363TIP3   OH216094   2.041   2.368   1.759 -0.3559 -0.0286  0.0633
 5363TIP3    H116095   1.984   2.441   1.735 -1.7259 -1.0167  0.1493
 5363TIP3    H216096   2.125   2.388   1.718 -0.7164  1.5406  0.0268
 5364TIP3   OH216097   3.852   4.855   0.276 -0.5998  0.2688  0.0315
 5364TIP3    H116098   3.928   4.903   0.244 -0.1770 -0.5576 -0.2278
 5364TIP3    H216099   3.884   4.766   0.292 -1.4821 -0.0682 -0.0021
 5365TIP3   OH216100   4.435   2.182   4.550 -0.2634 -0.2929  0.1500
 5365TIP3    H116101   4.476   2.266   4.530 -0.8613 -0.4028 -1.7594
 5365TIP3    H216102   4.506   2.128   4.586  0.3202  0.7431  0.5840
 5366TIP3   OH216103   2.770   5.494   1.694  0.4824  0.1933  0.1386
 5366TIP3    H116104   2.844   5.463   1.747  2.8148  1.5511 -2.0850
 5366TIP3    H216105   2.761   5.587   1.716 -0.1674  0.1783 -0.0359
 5367TIP3   OH216106   0.225   2.847   0.544  0.1553  0.0595  0.1068
 5367TIP3    H116107   0.272   2.930   0.543 -0.0124  0.1893  1.4105
 5367TIP3    H216108   0.217   2.823   0.452  1.5646  0.7081 -0.2029
 5368TIP3   OH216109   6.072   3.654   3.344  0.0431  0.6843  0.4166
 5368TIP3    H116110   6.009   3.598   3.299  0.0383  1.5042 -0.6710
 5368TIP3    H216111   6.154   3.641   3.295  0.4859  0.3434  1.2262
 5369TIP3   OH216112   2.656   4.834   1.871 -0.2043  0.3886  0.7913
 5369TIP3    H116113   2.736   4.883   1.889 -0.1448  0.0019  1.6240
 5369TIP3    H216114   2.679   4.778   1.797 -0.5701  2.2845 -0.8416
 5370TIP3   OH216115   4.057   2.516   1.463 -0.0306 -0.6836  0.2184
 5370TIP3    H116116   4.011   2.576   1.522  0.6339 -0.3970  0.4498
 5370TIP3    H216117   4.149   2.541   1.470 -0.0128 -0.1272 -1.5263
 5371TIP3   OH216118   5.487   0.287   4.746  0.1444 -0.0141  0.4837
 5371TIP3    H116119   5.483   0.382   4.745  0.1343 -0.0180 -0.0191
 5371TIP3    H216120   5.580   0.266   4.740  0.0627 -0.0405 -1.7487
 5372TIP3   OH216121   4.905   0.707   0.179 -0.4700  0.1486 -0.0407
 5372TIP3    H116122   4.813   0.717   0.153 -0.3644 -0.5461 -0.7168
 5372TIP3    H216123   4.913   0.614   0.203 -0.3012  0.5248  1.4969
 5373TIP3   OH216124   1.590   2.845   4.426  0.2401 -0.0314 -0.0113
 5373TIP3    H116125   1.612   2.782   4.494 -0.3988 -1.6400 -1.2422
 5373TIP3    H216126   1.674   2.878   4.395  0.6278 -0.9924 -0.0011
 5374TIP3   OH216127   5.440   3.465   1.278  0.1078 -0.5425  0.5269
 5374TIP3    H116128   5.463   3.409   1.352 -1.2658 -0.0434  1.3815
 5374TIP3    H216129   5.508   3.450   1.213 -0.1290 -3.0801  0.7928
 5375TIP3   OH216130   1.523   1.243   4.189  0.2646  0.2064  0.3357
 5375TIP3    H116131   1.580   1.171   4.160 -0.3859 -0.2235  0.1050
 5375TIP3    H216132   1.551   1.261   4.279  1.0084  0.2460  0.1023
 5376TIP3   OH216133   2.179   3.232   1.577 -0.3423 -0.3470 -0.3371
 5376TIP3    H116134   2.085   3.235   1.596 -0.0746  0.7700  0.9545
 5376TIP3    H216135   2.217   3.297   1.637  0.8904  1.5199 -2.9656
 5377TIP3   OH216136   4.988   5.503   3.536  0.6438 -0.1361 -0.2303
 5377TIP3    H116137   4.998   5.410   3.520 -0.4487  0.0630 -2.4661
 5377TIP3    H216138   4.983   5.542   3.449 -2.2611  1.5944  0.5649
 5378TIP3   OH216139   4.118   5.864   3.699 -0.5146 -0.4918 -0.6324
 5378TIP3    H116140   4.108   5.798   3.630 -0.1389  0.3439 -1.5131
 5378TIP3    H216141   4.038   5.856   3.751 -0.4407 -1.6901 -0.6659
 5379TIP3   OH216142   0.812   5.611   1.194  0.5843  0.3064  0.2606
 5379TIP3    H116143   0.791   5.520   1.212 -1.1399  0.7880  0.9475
 5379TIP3    H216144   0.833   5.649   1.279  0.9764  0.6196  0.0283
 5380TIP3   OH216145   3.336   1.478   4.482 -0.0276 -0.3531  0.0253
 5380TIP3    H116146   3.260   1.420   4.477  1.1955 -1.9650 -2.5091
 5380TIP3    H216147   3.368   1.482   4.392  1.9275  1.6172  0.7258
 5381TIP3   OH216148   3.352   0.882   2.699  0.0802 -0.0370  0.4034
 5381TIP3    H116149   3.395   0.931   2.629  0.6514  0.9705  1.4399
 5381TIP3    H216150   3.266   0.923   2.708  1.2238  2.1496  2.5447
 5382TIP3   OH216151   6.218   0.809   0.217  0.0823  0.0787  0.1376
 5382TIP3    H116152   6.255   0.722   0.204 -1.0230 -0.4087  0.1375
 5382TIP3    H216153   6.273   0.848   0.285  0.6330 -0.5853  0.0856
 5383TIP3   OH216154   3.986   3.932   1.345  0.3913  0.3574  0.3969
 5383TIP3    H116155   4.009   3.977   1.264 -1.3651  0.7255  0.0530
 5383TIP3    H216156   3.897   3.962   1.365  0.1749 -0.9362  1.5999
 5384TIP3   OH216157   5.674   4.746   3.185  0.3393  0.5549 -0.2346
 5384TIP3    H116158   5.591   4.745   3.232 -0.6842  0.1634 -1.9766
 5384TIP3    H216159   5.652   4.722   3.095  2.3413  0.4311 -0.7521
 5385TIP3   OH216160   1.703   1.572   4.961 -0.4657 -0.0663  0.0175
 5385TIP3    H116161   1.781   1.583   4.907 -0.9061  2.0087 -0.2916
 5385TIP3    H216162   1.630   1.591   4.902 -1.0296  0.7621  0.9457
 5386TIP3   OH216163   1.703   0.728   1.824  0.0931 -0.0622 -0.0500
 5386TIP3    H116164   1.645   0.804   1.830  0.2482  0.0878 -0.4029
 5386TIP3    H216165   1.657   0.659   1.872 -2.0696 -0.9976 -3.1291
 5387TIP3   OH216166   2.466   0.289   1.068 -0.7160 -0.1330  0.9303
 5387TIP3    H116167   2.549   0.241   1.060 -0.3748  0.5760  0.0772
 5387TIP3    H216168   2.474   0.337   1.150 -0.0532  0.3464  0.5918
 5388TIP3   OH216169   5.533   4.763   0.538 -0.2560 -0.4777 -0.0949
 5388TIP3    H116170   5.500   4.673   0.541  0.1994 -0.7604 -2.0678
 5388TIP3    H216171   5.465   4.815   0.580 -1.0334 -1.6095  0.0916
 5389TIP3   OH216172   1.928   1.094   0.980  0.3501 -0.2757 -0.3300
 5389TIP3    H116173   1.912   1.044   0.900 -0.4855  0.4779 -0.6566
 5389TIP3    H216174   2.015   1.067   1.009  0.3435 -1.1183 -1.0768
 5390TIP3   OH216175   5.823   0.598   0.168  0.1388 -0.1847 -0.1400
 5390TIP3    H116176   5.797   0.609   0.076  1.2336 -0.1857 -0.4600
 5390TIP3    H216177   5.852   0.685   0.195 -0.4899 -0.1101  0.3137
 5391TIP3   OH216178   5.817   1.257   2.677 -0.2034 -0.2805 -0.2651
 5391TIP3    H116179   5.772   1.340   2.669  0.8943  0.2412 -1.2654
 5391TIP3    H216180   5.778   1.216   2.754 -0.9221  1.0491  0.1044
 5392TIP3   OH216181   1.975   5.038   0.986  0.1966 -0.2999 -0.1575
 5392TIP3    H116182   1.997   5.038   1.079  0.2845 -1.0728 -0.1675
 5392TIP3    H216183   2.060   5.045   0.942  0.4102 -2.4319 -0.1875
 5393TIP3   OH216184   3.753   4.269   2.381 -0.1499 -0.0737 -0.1357
 5393TIP3    H116185   3.758   4.318   2.299 -1.2893  2.1541  1.0306
 5393TIP3    H216186   3.681   4.208   2.368  0.3304 -0.4576 -1.1168
 5394TIP3   OH216187   0.067   2.924   3.287 -0.1887 -0.4399  0.0241
 5394TIP3    H116188   0.053   2.963   3.201  0.3365  0.8154  0.4846
 5394TIP3    H216189   0.056   2.830   3.273 -0.1090 -0.2563 -1.4117
 5395TIP3   OH216190   1.815   3.956   2.459  0.5019 -0.4027  0.2694
 5395TIP3    H116191   1.811   4.010   2.380 -0.3060  0.5577  0.9469
 5395TIP3    H216192   1.831   4.018   2.530 -0.9950 -0.9490  1.1324
 5396TIP3   OH216193   3.951   1.382   4.256 -0.5850  0.6582 -0.7061
 5396TIP3    H116194   3.919   1.465   4.221  0.5680  0.6794 -1.7705
 5396TIP3    H216195   3.962   1.326   4.179  2.0479  0.7144 -0.4286
 5397TIP3   OH216196   0.462   5.721   3.407 -0.4389 -0.3304  0.3459
 5397TIP3    H116197   0.371   5.752   3.415 -0.3078  0.5890 -1.2375
 5397TIP3    H216198   0.493   5.713   3.497 -2.0021 -0.3746  0.9061
 5398TIP3   OH216199   5.030   0.850   2.770 -0.3561  0.2596  0.0228
 5398TIP3    H116200   5.040   0.909   2.845 -0.5199  0.6915 -0.2902
 5398TIP3    H216201   5.098   0.784   2.783 -2.3749 -1.5410  2.2337
 5399TIP3   OH216202   2.366   5.855   0.527  0.3354  0.4171  0.0099
 5399TIP3    H116203   2.348   5.908   0.604  0.8508  0.9046 -0.1990
 5399TIP3    H216204   2.329   5.769   0.548 -0.1118  0.7308  0.5270
 5400TIP3   OH216205   4.403   3.867   2.160 -0.2195  0.1151  0.0215
 5400TIP3    H116206   4.450   3.940   2.121  1.1482 -1.0991 -0.6802
 5400TIP3    H216207   4.393   3.803   2.089 -1.3206 -0.4371  0.6340
 5401TIP3   OH216208   5.326   2.470   1.957  0.2061 -0.2784 -0.5399
 5401TIP3    H116209   5.407   2.428   1.927 -0.7756 -2.8027  0.0610
 5401TIP3    H216210   5.289   2.509   1.878  0.5082 -1.8113 -1.4826
 5402TIP3   OH216211   5.050   3.650   3.748 -0.6453  0.0264  0.1785
 5402TIP3    H116212   5.110   3.577   3.763  0.8722  1.2337  0.2056
 5402TIP3    H216213   4.964   3.615   3.773  0.3342 -1.0788  2.3102
 5403TIP3   OH216214   4.444   2.530   2.804  0.5546  0.1538  0.6724
 5403TIP3    H116215   4.350   2.514   2.811  0.5806 -0.9260 -0.8315
 5403TIP3    H216216   4.481   2.486   2.880 -0.1582  0.7180  1.3638
 5404TIP3   OH216217   1.941   4.757   5.012  0.3602  0.0300  0.1363
 5404TIP3    H116218   1.964   4.750   5.105 -0.3744 -0.4329  0.2909
 5404TIP3    H216219   1.914   4.849   5.002  0.5139  0.1022  0.3599
 5405TIP3   OH216220   1.954   1.302   0.471  0.1087  0.0449 -0.5240
 5405TIP3    H116221   1.950   1.303   0.567 -0.6434  0.1675 -0.5484
 5405TIP3    H216222   2.022   1.364   0.448 -0.4643  0.8441 -0.0950
 5406TIP3   OH216223   5.291   5.506   2.243 -0.2717  0.3593 -0.1981
 5406TIP3    H116224   5.283   5.468   2.330  0.4644 -2.1231 -1.1185
 5406TIP3    H216225   5.357   5.575   2.252 -1.3687  1.2372  1.4800
 5407TIP3   OH216226   3.895   1.354   1.117  0.0916 -0.2307  0.1984
 5407TIP3    H116227   3.975   1.302   1.130 -0.4275 -0.7409  1.4177
 5407TIP3    H216228   3.837   1.296   1.069  0.6444  0.3560 -1.2490
 5408TIP3   OH216229   1.972   4.305   4.452  0.2858 -0.1867  0.7060
 5408TIP3    H116230   1.975   4.373   4.385  1.3845 -1.8608 -1.0342
 5408TIP3    H216231   1.897   4.329   4.506 -0.1328  1.6995 -0.5953
 5409TIP3   OH216232   6.022   2.784   2.959  0.1235  0.5651  0.0951
 5409TIP3    H116233   6.042   2.705   3.009  1.1104  1.9692  2.1009
 5409TIP3    H216234   6.096   2.796   2.901  0.4506  0.5264  0.5005
 5410TIP3   OH216235   3.457   0.147   3.463  0.0489 -0.3437  0.3814
 5410TIP3    H116236   3.529   0.199   3.426 -1.2788  0.4117 -1.2828
 5410TIP3    H216237   3.500   0.086   3.523  1.9558  0.7709  0.2313
 5411TIP3   OH216238   1.855   0.822   1.618 -0.2215 -0.2480  0.1041
 5411TIP3    H116239   1.822   0.767   1.689  2.1808 -1.9988 -0.0064
 5411TIP3    H216240   1.869   0.908   1.658  2.5326 -1.5606  2.3205
 5412TIP3   OH216241   0.776   0.063   1.338 -0.2568  0.0131 -0.2251
 5412TIP3    H116242   0.733   0.000   1.395 -1.7590  0.7512 -0.5014
 5412TIP3    H216243   0.831   0.010   1.280 -1.3298 -1.0343 -0.3088
 5413TIP3   OH216244   0.818   1.311   2.208 -0.2957  0.2839  0.3266
 5413TIP3    H116245   0.864   1.326   2.290 -0.2075  0.1449  0.3037
 5413TIP3    H216246   0.875   1.251   2.159 -0.3988  0.2802  0.2092
 5414TIP3   OH216247   5.746   2.105   1.389  0.2618 -0.2810 -0.3933
 5414TIP3    H116248   5.681   2.089   1.457  2.0361  0.5316  1.5929
 5414TIP3    H216249   5.772   2.018   1.360  0.7560 -0.7286  1.2817
 5415TIP3   OH216250   4.657   5.686   3.984  0.1976  0.3876  0.7710
 5415TIP3    H116251   4.596   5.614   3.966 -1.4061  1.2461  2.4829
 5415TIP3    H216252   4.706   5.696   3.902 -1.7946 -0.5154 -0.6384
 5416TIP3   OH216253   0.288   4.344   4.081 -0.2667  0.0037 -0.1861
 5416TIP3    H116254   0.332   4.290   4.146  2.3144  2.3644  0.2446
 5416TIP3    H216255   0.302   4.298   3.998  1.3911 -0.3331  0.2290
 5417TIP3   OH216256   5.535   0.494   1.752 -0.2694  0.0279 -0.6015
 5417TIP3    H116257   5.536   0.562   1.684 -2.8233 -1.5762 -2.4242
 5417TIP3    H216258   5.582   0.420   1.713 -1.3174 -0.7310 -0.4815
 5418TIP3   OH216259   5.961   0.682   2.755  0.5105  0.1978  0.0787
 5418TIP3    H116260   5.923   0.770   2.761 -0.0363 -0.0670  0.6991
 5418TIP3    H216261   5.954   0.659   2.663 -0.9897  0.1099  0.1856
 5419TIP3   OH216262   2.298   5.881   0.242 -0.1176 -0.0651 -0.5435
 5419TIP3    H116263   2.309   5.789   0.218 -1.4210  0.1365 -2.1009
 5419TIP3    H216264   2.349   5.891   0.322  1.9007 -1.5768 -1.5572
 5420TIP3   OH216265   2.560   0.443   1.842 -0.0412  0.1858 -0.0867
 5420TIP3    H116266   2.487   0.477   1.894 -0.1860 -0.5266  0.1847
 5420TIP3    H216267   2.638   0.485   1.879  0.1895 -2.2854  2.5152
 5421TIP3   OH216268   3.751   2.668   0.528  0.1028 -0.1162  0.3202
 5421TIP3    H116269   3.688   2.704   0.591  0.3254 -0.0394  0.5006
 5421TIP3    H216270   3.832   2.716   0.545 -0.0158  0.3819 -0.4928
 5422TIP3   OH216271   4.244   3.354   4.936 -0.2741  0.4303  0.1028
 5422TIP3    H116272   4.317   3.366   4.998  0.9173  0.7910 -1.3045
 5422TIP3    H216273   4.222   3.261   4.943 -1.5928  0.8395  2.5342
 5423TIP3   OH216274   4.493   1.490   2.686  0.5810  0.2794 -0.5614
 5423TIP3    H116275   4.415   1.487   2.740  0.2260  2.0919 -0.9212
 5423TIP3    H216276   4.549   1.555   2.728  0.7004  1.0146 -1.8068
 5424TIP3   OH216277   2.309   3.230   1.124  0.6177 -0.3506 -0.0663
 5424TIP3    H116278   2.226   3.271   1.100  0.6538 -0.4536 -0.3685
 5424TIP3    H216279   2.375   3.273   1.071  1.0195  0.9391  1.4054
 5425TIP3   OH216280   2.484   1.385   2.798  0.0813 -0.4301  0.2934
 5425TIP3    H116281   2.391   1.366   2.781  0.1923 -0.1366 -0.7378
 5425TIP3    H216282   2.487   1.480   2.806  0.3405 -0.4058 -0.0524
 5426TIP3   OH216283   5.002   1.173   4.492  0.5120  0.2551  0.2187
 5426TIP3    H116284   4.988   1.248   4.433 -1.4271  1.0326  1.5925
 5426TIP3    H216285   4.957   1.100   4.449  0.2191  0.5021  0.1040
 5427TIP3   OH216286   4.459   0.195   4.083  0.1332  0.1564 -0.4841
 5427TIP3    H116287   4.464   0.291   4.081 -0.2622  0.2486  1.2674
 5427TIP3    H216288   4.433   0.170   3.994  2.6402  1.4908 -1.6897
 5428TIP3   OH216289   3.637   5.579   4.091  0.2553 -0.7328 -0.3608
 5428TIP3    H116290   3.720   5.616   4.121  0.8366 -1.4973 -1.0052
 5428TIP3    H216291   3.647   5.570   3.996 -0.2763 -1.5533 -0.3502
 5429TIP3   OH216292   1.296   4.250   3.988 -0.4393  0.8916  0.1368
 5429TIP3    H116293   1.327   4.161   4.002 -1.7086  0.2524 -0.9236
 5429TIP3    H216294   1.336   4.301   4.058  1.9806 -0.0956 -0.4119
 5430TIP3   OH216295   4.500   3.884   4.577 -0.1401  0.0412  0.2267
 5430TIP3    H116296   4.467   3.949   4.516  1.4534  0.8915  0.2212
 5430TIP3    H216297   4.427   3.868   4.637 -0.7805  1.3183 -0.1803
 5431TIP3   OH216298   0.882   5.059   2.741 -0.3548 -0.0014  0.3654
 5431TIP3    H116299   0.966   5.031   2.704 -0.0367 -0.2563  1.2517
 5431TIP3    H216300   0.902   5.137   2.791 -0.7075  0.1218  0.3189
 5432TIP3   OH216301   5.677   0.503   2.593  0.6239  0.1234 -0.2742
 5432TIP3    H116302   5.626   0.425   2.571  0.9706 -0.6071  1.3736
 5432TIP3    H216303   5.744   0.471   2.654  0.9063  1.6826  0.2643
 5433TIP3   OH216304   2.523   3.030   1.140 -0.3585  0.7907 -0.1755
 5433TIP3    H116305   2.450   3.090   1.151 -0.7242  0.2646  0.3381
 5433TIP3    H216306   2.596   3.085   1.112 -0.9113  1.3433 -0.5529
 5434TIP3   OH216307   3.459   5.636   2.588 -0.7729  0.0755  0.7003
 5434TIP3    H116308   3.392   5.681   2.538 -1.1040 -0.0375  1.0402
 5434TIP3    H216309   3.533   5.629   2.528 -0.1685  2.3750  1.0738
 5435TIP3   OH216310   2.196   5.941   4.232  0.2305  0.2112  0.7245
 5435TIP3    H116311   2.199   6.036   4.226  2.4945  0.2889  2.1780
 5435TIP3    H216312   2.254   5.910   4.163 -1.6642 -0.2566 -0.7631
 5436TIP3   OH216313   3.331   2.987   3.017  0.1125  0.6655  0.8640
 5436TIP3    H116314   3.383   3.016   3.092  0.1725  0.3523  0.9442
 5436TIP3    H216315   3.299   3.068   2.978  2.3354  1.0039 -0.4171
 5437TIP3   OH216316   3.574   0.985   1.320  0.3781  0.2782 -0.2752
 5437TIP3    H116317   3.643   0.937   1.364  0.2051  0.5282  0.2788
 5437TIP3    H216318   3.575   0.952   1.230  2.2369  1.3640 -0.7072
 5438TIP3   OH216319   4.094   2.834   2.741  0.1816  0.2679  0.4578
 5438TIP3    H116320   4.046   2.809   2.819  0.7130  1.2038  1.1052
 5438TIP3    H216321   4.033   2.819   2.669 -0.6231  0.2350  1.1334
 5439TIP3   OH216322   5.216   5.094   3.579 -0.3782  0.0149 -0.2327
 5439TIP3    H116323   5.292   5.153   3.575 -0.1069 -0.3813 -1.2081
 5439TIP3    H216324   5.249   5.010   3.548 -1.5039  0.1792 -2.0578
 5440TIP3   OH216325   5.059   4.027   1.038 -0.8983  0.3885 -0.3198
 5440TIP3    H116326   5.139   3.991   1.000 -0.6252  0.2035  0.4050
 5440TIP3    H216327   4.988   3.976   0.998 -0.5518 -0.5903  0.2718
 5441TIP3   OH216328   3.155   0.326   2.103 -0.6172 -0.4314  0.2381
 5441TIP3    H116329   3.075   0.369   2.073 -1.1488 -1.4121  0.2163
 5441TIP3    H216330   3.134   0.233   2.102  0.1283 -0.6270  1.4026
 5442TIP3   OH216331   5.463   1.354   4.860 -0.0584  0.4091  0.5781
 5442TIP3    H116332   5.422   1.361   4.774 -0.7861  0.8815  0.9489
 5442TIP3    H216333   5.445   1.265   4.889  1.3067 -0.1745 -0.2936
 5443TIP3   OH216334   0.086   2.598   2.195  0.1757 -0.4843 -0.4380
 5443TIP3    H116335   0.068   2.657   2.123 -1.4522  0.0465  0.3687
 5443TIP3    H216336   0.057   2.645   2.273  2.6332 -0.7079  0.7073
 5444TIP3   OH216337   2.968   4.131   2.871  0.8919 -0.0481 -0.0934
 5444TIP3    H116338   3.058   4.121   2.840  0.3268 -2.9337 -1.1146
 5444TIP3    H216339   2.916   4.076   2.812 -1.5960  1.6004  0.3903
 5445TIP3   OH216340   3.728   0.060   4.324 -0.2395  0.4047 -0.5312
 5445TIP3    H116341   3.684   0.143   4.343 -0.6715 -0.0414  0.4803
 5445TIP3    H216342   3.779   0.040   4.403 -0.5898 -0.5618 -0.5269
 5446TIP3   OH216343   0.360   2.394   0.787 -0.3813 -0.1878  0.1343
 5446TIP3    H116344   0.329   2.324   0.731 -1.1201 -0.5535  0.9717
 5446TIP3    H216345   0.385   2.464   0.727 -2.1486 -0.1596 -0.6131
 5447TIP3   OH216346   5.324   4.749   0.976  0.1724  0.1391  0.0195
 5447TIP3    H116347   5.402   4.704   0.942  1.0141  1.4685  0.1234
 5447TIP3    H216348   5.284   4.685   1.036  1.7336 -0.2276  0.7211
 5448TIP3   OH216349   3.066   5.668   0.598  0.5070  0.2262  0.0547
 5448TIP3    H116350   3.010   5.719   0.539  1.1243 -0.7271 -1.4328
 5448TIP3    H216351   3.044   5.700   0.686 -2.5814 -0.2972 -0.4110
 5449TIP3   OH216352   6.216   3.764   3.720  0.3076 -0.1195 -0.2129
 5449TIP3    H116353   6.155   3.693   3.699  0.3049 -0.0643 -0.3931
 5449TIP3    H216354   6.164   3.844   3.714 -0.0782 -0.2060  1.4994
 5450TIP3   OH216355   6.152   1.414   3.976  0.0502  0.4336 -0.0447
 5450TIP3    H116356   6.145   1.421   3.880  1.3628 -0.5507 -0.2417
 5450TIP3    H216357   6.118   1.497   4.008 -0.1031  0.9238 -1.3841
 5451TIP3   OH216358   5.984   0.551   0.934  0.1309 -0.5718  0.4738
 5451TIP3    H116359   6.004   0.588   0.847 -0.6452  0.2100  0.6140
 5451TIP3    H216360   5.956   0.462   0.916 -1.8438  0.1477 -0.3014
 5452TIP3   OH216361   2.601   2.817   1.691  0.8614  0.0267 -0.5628
 5452TIP3    H116362   2.538   2.884   1.716  0.2496 -1.3990  2.0484
 5452TIP3    H216363   2.571   2.789   1.604 -1.6048  0.0379  0.1981
 5453TIP3   OH216364   5.431   0.429   1.410  0.2308 -0.2390 -0.9870
 5453TIP3    H116365   5.472   0.515   1.409  0.8137 -0.4986 -0.3627
 5453TIP3    H216366   5.481   0.379   1.474 -1.3454 -0.4458  0.1410
 5454TIP3   OH216367   5.728   3.132   4.739  0.2310 -0.4565 -0.4002
 5454TIP3    H116368   5.774   3.201   4.692  1.2119 -1.6686 -1.2887
 5454TIP3    H216369   5.797   3.082   4.783 -0.6725  0.9342  2.8863
 5455TIP3   OH216370   5.065   5.601   2.816  0.0883 -0.2425 -0.0035
 5455TIP3    H116371   5.114   5.542   2.873  0.1544  0.6958  0.9384
 5455TIP3    H216372   5.130   5.632   2.752  0.4529  0.0558  0.4978
 5456TIP3   OH216373   3.179   4.434   0.102  0.3089  0.1164  0.1572
 5456TIP3    H116374   3.099   4.385   0.081  0.1449  0.4530 -0.0021
 5456TIP3    H216375   3.150   4.503   0.161  0.5780 -0.1014  0.5545
 5457TIP3   OH216376   3.791   0.519   4.843  0.0808  0.2515 -0.4579
 5457TIP3    H116377   3.746   0.442   4.808  0.2686 -0.5075  0.9128
 5457TIP3    H216378   3.735   0.592   4.818 -0.8646 -0.4727 -0.5384
 5458TIP3   OH216379   5.590   4.041   1.017 -0.3893  0.0805 -1.2741
 5458TIP3    H116380   5.529   4.046   0.943  0.7331  0.0812 -2.2236
 5458TIP3    H216381   5.674   4.019   0.978  0.0511 -0.8810  0.1088
 5459TIP3   OH216382   5.856   4.784   4.856 -0.2053  0.2886 -0.4468
 5459TIP3    H116383   5.878   4.866   4.901  0.3186 -0.1386  0.0732
 5459TIP3    H216384   5.906   4.717   4.901 -0.4998 -0.3037 -0.9860
 5460TIP3   OH216385   4.017   1.267   4.017  0.2742 -0.1354  0.0751
 5460TIP3    H116386   3.958   1.301   3.950 -0.7134 -2.0513 -0.1105
 5460TIP3    H216387   4.098   1.247   3.969 -0.1836 -0.8440 -0.4189
 5461TIP3   OH216388   0.035   3.201   2.852 -0.3759 -0.2804  0.4299
 5461TIP3    H116389   0.081   3.259   2.792  1.4286 -1.2648  0.7864
 5461TIP3    H216390  -0.057   3.210   2.829  0.1228  0.6189 -1.3462
 5462TIP3   OH216391   0.158   0.650   3.862 -0.3460 -0.2580  0.3475
 5462TIP3    H116392   0.162   0.633   3.956 -0.5629 -0.4502  0.3206
 5462TIP3    H216393   0.205   0.576   3.822 -1.8610 -1.1621  0.1890
 5463TIP3   OH216394   1.026   3.480   5.002  0.1731 -0.1753  0.8788
 5463TIP3    H116395   1.113   3.441   4.990 -0.3405 -0.5257 -2.8630
 5463TIP3    H216396   0.968   3.405   5.017 -0.0021 -0.4542 -0.8775
 5464TIP3   OH216397   2.298   0.088   3.431  0.1988 -0.0649 -0.1706
 5464TIP3    H116398   2.337   0.117   3.348  2.3500 -0.0544  0.7762
 5464TIP3    H216399   2.352   0.014   3.458  0.0980  0.4931  1.6596
 5465TIP3   OH216400   1.407   4.855   1.039  0.2261 -0.1648  0.2030
 5465TIP3    H116401   1.346   4.885   0.972 -0.9104 -3.2750 -0.3021
 5465TIP3    H216402   1.373   4.892   1.121 -0.2515  1.0067 -0.4981
 5466TIP3   OH216403   0.388   1.057   3.101  0.8174 -0.7003  0.4778
 5466TIP3    H116404   0.410   0.978   3.150  1.8338 -2.0158 -1.9245
 5466TIP3    H216405   0.293   1.052   3.088  0.6625 -0.7484  1.5468
 5467TIP3   OH216406   4.198   0.462   1.132 -0.2387 -0.0402  0.0107
 5467TIP3    H116407   4.229   0.484   1.220  0.6705 -1.3618  0.0350
 5467TIP3    H216408   4.207   0.544   1.083  2.8688 -0.2032  0.1494
 5468TIP3   OH216409   6.199   0.250   3.152 -0.1440 -0.7404  0.7724
 5468TIP3    H116410   6.189   0.261   3.247  1.6503  0.2672  0.8906
 5468TIP3    H216411   6.234   0.334   3.122 -0.7584 -1.0241 -0.8118
 5469TIP3   OH216412   5.421   4.408   2.876  0.2148  0.3116  0.4416
 5469TIP3    H116413   5.383   4.436   2.793 -0.6325 -1.3773  0.2195
 5469TIP3    H216414   5.506   4.452   2.880  1.0149 -0.8300 -2.1082
 5470TIP3   OH216415   0.026   2.971   2.616  0.1737 -0.3512 -0.1867
 5470TIP3    H116416   0.004   3.064   2.608  0.3486 -0.3871 -1.1925
 5470TIP3    H216417   0.121   2.969   2.613  0.2688 -0.4039  1.8223
 5471TIP3   OH216418   3.958   4.681   4.738  0.5101  0.1634 -0.3991
 5471TIP3    H116419   4.002   4.701   4.655  1.7671  0.3908  0.2923
 5471TIP3    H216420   3.907   4.602   4.720 -3.1223  2.7542 -2.6949
 5472TIP3   OH216421   3.293   5.683   3.875 -0.0510  0.0946  0.1955
 5472TIP3    H116422   3.343   5.699   3.955 -0.4702  1.1293  0.2608
 5472TIP3    H216423   3.359   5.683   3.805  0.4482 -1.7277  0.5981
 5473TIP3   OH216424   5.399   1.025   4.665  0.1235 -0.5955 -0.3047
 5473TIP3    H116425   5.368   1.061   4.748  0.1857 -0.5694 -0.2924
 5473TIP3    H216426   5.375   1.091   4.600  0.7291 -0.2727 -0.2094
 5474TIP3   OH216427   3.353   1.989   1.116  0.2977 -0.0967  0.5098
 5474TIP3    H116428   3.310   2.071   1.138 -1.6436 -0.3508 -1.9214
 5474TIP3    H216429   3.434   2.016   1.072  0.3221  0.4885  0.8999
 5475TIP3   OH216430   2.094   0.620   3.762  0.1224  0.1265  0.6737
 5475TIP3    H116431   2.105   0.580   3.676 -0.5166  0.4816  0.4214
 5475TIP3    H216432   2.019   0.576   3.800 -0.2995  0.7550  0.5837
 5476TIP3   OH216433   2.651   2.355   0.754 -0.1386 -0.2497 -0.0544
 5476TIP3    H116434   2.561   2.385   0.746 -0.0021  0.3831  0.6309
 5476TIP3    H216435   2.645   2.272   0.801 -0.3741 -0.2379 -0.0616
 5477TIP3   OH216436   0.694   2.356   1.648  0.5433  0.8549 -0.1732
 5477TIP3    H116437   0.648   2.273   1.639 -1.0893  1.6309  0.6006
 5477TIP3    H216438   0.713   2.384   1.558  0.0450  0.2142 -0.4827
 5478TIP3   OH216439   4.633   5.531   2.542  0.5553  0.1227  0.1174
 5478TIP3    H116440   4.700   5.464   2.558 -1.0540 -2.2650 -2.2110
 5478TIP3    H216441   4.638   5.547   2.447 -0.8089  1.3940  0.2220
 5479TIP3   OH216442   2.123   1.513   1.786  0.1904  0.0123  0.0653
 5479TIP3    H116443   2.055   1.446   1.776 -0.6097  0.8383 -0.1084
 5479TIP3    H216444   2.109   1.549   1.874 -0.6756  1.3308 -0.5858
 5480TIP3   OH216445   1.489   4.571   3.795 -0.1884  0.2236 -0.1915
 5480TIP3    H116446   1.453   4.641   3.851  1.3097  0.7888  0.1172
 5480TIP3    H216447   1.554   4.528   3.850  1.4926  0.9412 -1.5574
 5481TIP3   OH216448   0.168   1.808   4.971 -0.0422  0.2636  0.3229
 5481TIP3    H116449   0.128   1.733   4.927 -1.2986  1.5492 -0.8265
 5481TIP3    H216450   0.247   1.826   4.919 -0.1175  0.1766  0.1765
 5482TIP3   OH216451   3.842   1.890   4.466  0.3756  0.5982  0.2233
 5482TIP3    H116452   3.840   1.794   4.464  0.1687  0.5934  0.6080
 5482TIP3    H216453   3.751   1.915   4.483  0.2895  0.8854 -0.5798
 5483TIP3   OH216454   3.366   0.001   2.574  0.5008  0.0477 -0.3071
 5483TIP3    H116455   3.388  -0.050   2.652 -1.2575  0.3919  0.4554
 5483TIP3    H216456   3.324   0.080   2.608  1.3817  1.0951 -1.5507
 5484TIP3   OH216457   6.270   3.318   0.696  0.2044  0.1454  0.2711
 5484TIP3    H116458   6.365   3.327   0.706  0.3491  1.7625 -1.9285
 5484TIP3    H216459   6.235   3.340   0.783  1.8019 -0.2765  1.0679
 5485TIP3   OH216460   0.322   2.509   3.363 -0.4055 -0.2516 -0.0125
 5485TIP3    H116461   0.358   2.563   3.292 -0.1424  0.5471  0.7017
 5485TIP3    H216462   0.395   2.456   3.393  0.2454  1.3284  1.3984
 5486TIP3   OH216463   0.609   5.122   4.191 -0.1804  0.0739 -0.8320
 5486TIP3    H116464   0.687   5.166   4.224  0.5996 -1.7751 -0.0512
 5486TIP3    H216465   0.537   5.163   4.238  0.6161 -0.1509  0.6805
 5487TIP3   OH216466   3.339   5.115   0.289 -0.2298  0.4815  0.0403
 5487TIP3    H116467   3.367   5.176   0.221 -0.9438  1.5766  0.6968
 5487TIP3    H216468   3.367   5.029   0.257 -0.1558  1.0166 -1.4199
 5488TIP3   OH216469   2.203   4.820   0.657  0.0717 -0.5919  0.3246
 5488TIP3    H116470   2.274   4.884   0.659 -0.0554 -0.4385 -0.0833
 5488TIP3    H216471   2.243   4.741   0.622 -0.0715 -0.3631 -0.3663
 5489TIP3   OH216472   2.718   4.409   3.069 -0.6999  0.0674 -0.4754
 5489TIP3    H116473   2.650   4.432   3.007 -2.5402 -2.3831  0.4655
 5489TIP3    H216474   2.675   4.350   3.132  1.6880  0.3382  1.6029
 5490TIP3   OH216475   2.049   5.496   2.368  0.1714  0.0740  0.2410
 5490TIP3    H116476   1.972   5.550   2.349 -0.4236 -0.5355  0.8616
 5490TIP3    H216477   2.026   5.409   2.338 -0.0860 -0.5018  2.0183
 5491TIP3   OH216478   1.655   0.798   2.208 -0.0190  0.3431 -0.2351
 5491TIP3    H116479   1.628   0.780   2.298 -0.1733 -2.0667 -0.6811
 5491TIP3    H216480   1.586   0.760   2.154  1.5421 -1.0973 -1.3529
 5492TIP3   OH216481   1.671   5.957   3.345  0.0279 -0.1018 -0.6229
 5492TIP3    H116482   1.731   5.994   3.280 -0.0476 -1.1384 -1.2930
 5492TIP3    H216483   1.584   5.972   3.308 -0.1249  0.9968  0.1391
 5493TIP3   OH216484   3.778   1.864   3.620 -0.9220 -0.4637 -0.2638
 5493TIP3    H116485   3.688   1.896   3.612 -0.4980  0.4651 -1.9280
 5493TIP3    H216486   3.814   1.912   3.695 -1.2579  0.6079 -0.7652
 5494TIP3   OH216487   0.355   3.208   3.545  0.2098  0.6478 -0.0581
 5494TIP3    H116488   0.404   3.247   3.617 -2.4494  1.5970  1.3620
 5494TIP3    H216489   0.420   3.193   3.476  2.9522 -0.7105  2.6278
 5495TIP3   OH216490   0.329   4.762   2.857  0.0443 -0.1825  0.7013
 5495TIP3    H116491   0.353   4.747   2.948  0.9867  2.2628  0.9375
 5495TIP3    H216492   0.401   4.724   2.806 -1.3961 -3.2997  0.7780
 5496TIP3   OH216493   2.014   2.318   0.152  0.0454 -0.4183  0.5469
 5496TIP3    H116494   2.106   2.336   0.168 -0.1556 -1.9444  4.4637
 5496TIP3    H216495   1.971   2.403   0.160  0.8941  0.0189  0.5737
 5497TIP3   OH216496   5.828   1.241   3.858  0.3487 -0.9175 -0.4991
 5497TIP3    H116497   5.757   1.183   3.886 -0.2451 -0.2269 -0.5594
 5497TIP3    H216498   5.903   1.214   3.911 -0.1912 -1.0546  0.2100
 5498TIP3   OH216499   5.554   5.340   3.972 -0.0142 -0.6613 -0.4596
 5498TIP3    H116500   5.460   5.352   3.985 -0.0503 -1.8021  0.5311
 5498TIP3    H216501   5.582   5.288   4.047  1.4569 -0.1676 -0.6394
 5499TIP3   OH216502   3.127   1.485   5.046  0.0283  0.4473 -0.0157
 5499TIP3    H116503   3.118   1.580   5.047 -1.0037  0.3512  0.2517
 5499TIP3    H216504   3.068   1.456   4.977 -1.1527 -0.1309  1.1903
 5500TIP3   OH216505   0.403   1.545   3.598  0.0851 -0.4662  0.6314
 5500TIP3    H116506   0.480   1.496   3.571  0.7766  0.9082 -0.0300
 5500TIP3    H216507   0.329   1.493   3.566  0.7961 -0.8853 -0.4099
 5501TIP3   OH216508   0.648   4.839   1.833  0.0942 -0.0322  0.0887
 5501TIP3    H116509   0.581   4.836   1.901  1.0268 -3.2096  1.0119
 5501TIP3    H216510   0.730   4.858   1.879  0.0535  3.9635 -1.0477
 5502TIP3   OH216511   4.884   2.410   3.510 -0.7945 -0.4699  0.0359
 5502TIP3    H116512   4.929   2.488   3.543 -1.8628  0.2290 -0.1318
 5502TIP3    H216513   4.817   2.392   3.576  0.2691 -2.0578  0.7638
 5503TIP3   OH216514   1.803   0.599   4.321  0.9568 -0.4755 -0.3737
 5503TIP3    H116515   1.785   0.669   4.383 -0.7447 -1.0799 -0.1213
 5503TIP3    H216516   1.822   0.644   4.238  0.7607  0.2942 -0.0102
 5504TIP3   OH216517   6.216   4.309   1.280 -0.3556  0.3635 -0.0379
 5504TIP3    H116518   6.240   4.224   1.241  0.7450  0.5357  0.2233
 5504TIP3    H216519   6.186   4.287   1.368 -0.2889  0.2258 -0.0489
 5505TIP3   OH216520   5.427   1.814   1.513  0.2482 -0.1803  0.2216
 5505TIP3    H116521   5.501   1.772   1.468  1.6714  1.8660  0.4966
 5505TIP3    H216522   5.441   1.794   1.606  0.8684  0.7012  0.3411
 5506TIP3   OH216523   2.574   5.584   4.630 -0.7468 -0.1777 -0.5155
 5506TIP3    H116524   2.631   5.614   4.700  1.3598 -2.1561 -1.2397
 5506TIP3    H216525   2.603   5.632   4.552  0.1851 -1.3741 -0.9391
 5507TIP3   OH216526   0.144   3.512   3.740  0.2614  0.4629 -0.3904
 5507TIP3    H116527   0.112   3.597   3.709 -0.3274 -0.2574 -1.9086
 5507TIP3    H216528   0.187   3.474   3.663  3.2354  0.6013  1.0709
 5508TIP3   OH216529   1.096   2.085   1.312  0.5623 -0.0634 -0.2590
 5508TIP3    H116530   1.188   2.087   1.339  0.2182 -0.2240  0.9782
 5508TIP3    H216531   1.049   2.053   1.389 -0.4064 -1.1183 -1.2505
 5509TIP3   OH216532   3.214   0.495   2.576  0.1690  0.3021  1.0141
 5509TIP3    H116533   3.278   0.425   2.558  1.2506  1.1960  1.2630
 5509TIP3    H216534   3.251   0.572   2.533 -1.4729  0.5343 -0.0380
 5510TIP3   OH216535   1.656   1.463   0.351 -0.2326  0.7698  0.7791
 5510TIP3    H116536   1.714   1.386   0.345 -1.3585 -0.1068  0.9215
 5510TIP3    H216537   1.651   1.482   0.445  0.4206  1.3296  0.7110
 5511TIP3   OH216538   2.201   1.154   3.990  0.4224 -0.0931  0.0412
 5511TIP3    H116539   2.110   1.125   3.987  0.9181 -1.7516  0.2133
 5511TIP3    H216540   2.195   1.249   3.995 -1.2877 -0.0562 -1.4345
 5512TIP3   OH216541   0.327   1.421   4.369 -0.0005  0.1457  0.1845
 5512TIP3    H116542   0.242   1.456   4.396  0.3105  0.2624  1.0246
 5512TIP3    H216543   0.323   1.419   4.273 -1.3048 -0.7309  0.2344
 5513TIP3   OH216544   1.745   0.207   3.030 -0.8275  0.1185  0.1828
 5513TIP3    H116545   1.664   0.202   3.081 -0.6941  2.4716  0.7096
 5513TIP3    H216546   1.814   0.187   3.093 -0.8234  0.7231  0.3726
 5514TIP3   OH216547   3.921   5.853   1.451 -0.3170 -0.3379  0.3304
 5514TIP3    H116548   3.986   5.793   1.416  1.1334  0.9375  0.7065
 5514TIP3    H216549   3.970   5.933   1.469 -1.5449 -0.0380  2.7088
 5515TIP3   OH216550   0.417   4.200   4.538  0.0097 -0.5717  0.0673
 5515TIP3    H116551   0.483   4.260   4.573  0.8105 -1.3054 -0.1461
 5515TIP3    H216552   0.341   4.212   4.594  0.3612  0.2166  0.3841
 5516TIP3   OH216553   3.810   3.513   4.209  0.2484  0.5479 -0.3304
 5516TIP3    H116554   3.802   3.556   4.294 -2.3483  1.2060 -0.8368
 5516TIP3    H216555   3.784   3.579   4.145  1.8462 -0.0254 -1.6699
 5517TIP3   OH216556   1.387   2.717   1.684 -0.0432 -0.1840  0.1574
 5517TIP3    H116557   1.471   2.680   1.657  1.4337  2.6548  0.5299
 5517TIP3    H216558   1.333   2.716   1.605  1.2513  0.2928 -0.7572
 5518TIP3   OH216559   2.078   0.219   4.890 -0.1004  0.1784 -0.1222
 5518TIP3    H116560   2.079   0.186   4.800 -2.3027  1.8318 -0.8481
 5518TIP3    H216561   2.076   0.314   4.880  0.7292  0.4231  1.7390
 5519TIP3   OH216562   1.790   1.282   3.017 -0.0719  0.3090 -0.0938
 5519TIP3    H116563   1.881   1.270   2.990  0.2088  2.0360 -0.0555
 5519TIP3    H216564   1.792   1.359   3.075 -1.4251 -0.1844  0.6568
 5520TIP3   OH216565   4.583  -0.010   1.503 -0.0661 -0.1010 -0.1307
 5520TIP3    H116566   4.531   0.029   1.574  1.0465  2.6647 -0.6939
 5520TIP3    H216567   4.535   0.012   1.424  1.6443  2.2351 -0.6374
 5521TIP3   OH216568   1.016   4.509   4.504  0.8570  0.6797 -0.3407
 5521TIP3    H116569   1.036   4.591   4.549 -0.1781  3.2154 -4.0303
 5521TIP3    H216570   0.924   4.517   4.479  0.6123 -1.8473 -0.4722
 5522TIP3   OH216571   3.017   5.819   2.275  0.5470 -0.2133  0.1447
 5522TIP3    H116572   2.989   5.731   2.300  0.2026  0.4549  2.2769
 5522TIP3    H216573   2.976   5.834   2.190  0.9908 -2.2594 -0.4973
 5523TIP3   OH216574   3.819   3.400   4.841  0.0083  0.1115 -1.1667
 5523TIP3    H116575   3.900   3.451   4.846  0.8287 -1.2441  0.1222
 5523TIP3    H216576   3.753   3.457   4.881  0.6616  0.6147 -0.7847
 5524TIP3   OH216577   1.273   3.890   0.287 -0.0500  0.0072 -0.2419
 5524TIP3    H116578   1.305   3.835   0.358 -0.7052  0.2909  0.2709
 5524TIP3    H216579   1.336   3.963   0.283 -1.5721  1.5460  1.9742
 5525TIP3   OH216580   1.039   0.352   4.487  0.1184 -0.0797  0.4791
 5525TIP3    H116581   1.037   0.309   4.402 -0.1296  1.1426 -0.1395
 5525TIP3    H216582   1.036   0.445   4.468 -0.0609  0.2135  1.8296
 5526TIP3   OH216583   1.756   0.245   2.264 -0.4895 -0.5570  0.1667
 5526TIP3    H116584   1.798   0.185   2.325 -0.0983  0.1765  0.6248
 5526TIP3    H216585   1.686   0.192   2.223  1.6496 -2.2011 -1.6059
 5527TIP3   OH216586   2.674   1.020   0.431 -0.3315  0.0201 -0.4716
 5527TIP3    H116587   2.759   1.061   0.416  0.0360  0.7703  2.9088
 5527TIP3    H216588   2.614   1.092   0.446 -0.6598 -0.5168  1.0394
 5528TIP3   OH216589   4.035   0.156   0.745  0.3153 -0.3263  0.1059
 5528TIP3    H116590   4.041   0.121   0.834  0.2272  0.3496  0.3846
 5528TIP3    H216591   3.970   0.100   0.702 -1.8036  1.0749  1.3243
 5529TIP3   OH216592   0.170   0.153   3.851 -0.5866  0.1645  0.2379
 5529TIP3    H116593   0.205   0.065   3.863  2.8209  1.5403  1.7312
 5529TIP3    H216594   0.132   0.153   3.764 -0.8583 -2.7942  0.2786
 5530TIP3   OH216595   1.967   4.627   3.985  0.8029  0.5781  0.7062
 5530TIP3    H116596   1.980   4.714   3.948  0.4853  0.1519 -0.4466
 5530TIP3    H216597   1.872   4.615   3.987  0.8201  0.4781  1.4242
 5531TIP3   OH216598   4.891   1.938   1.807  0.0831 -0.4560 -0.1276
 5531TIP3    H116599   4.855   1.950   1.719 -0.2221  0.2010  0.0775
 5531TIP3    H216600   4.905   2.027   1.839 -0.0779 -0.6866  0.5966
 5532TIP3   OH216601   0.656   2.100   0.187 -0.4652 -0.1937  0.4155
 5532TIP3    H116602   0.729   2.135   0.137  0.9409  0.1437  2.5780
 5532TIP3    H216603   0.607   2.177   0.217 -0.9435 -0.3603  0.0709
 5533TIP3   OH216604   5.218   2.054   0.554  0.3748 -0.1980 -0.0270
 5533TIP3    H116605   5.179   1.989   0.612  0.5523 -1.1017 -0.8951
 5533TIP3    H216606   5.190   2.028   0.466 -1.9213  2.5221 -0.2388
 5534TIP3   OH216607   5.766   3.189   2.959 -0.3339  0.4830  0.3055
 5534TIP3    H116608   5.783   3.280   2.933 -1.1760  0.3882 -0.6507
 5534TIP3    H216609   5.688   3.194   3.015 -0.5591  0.3319  0.0120
 5535TIP3   OH216610   0.082   5.969   4.066  0.2568 -0.4412 -0.0323
 5535TIP3    H116611   0.137   6.048   4.062 -0.2102 -0.1633 -1.3391
 5535TIP3    H216612   0.078   5.938   3.976  1.3670 -2.6322  0.6021
 5536TIP3   OH216613   3.889   5.059   1.837  0.1061 -0.4764 -0.0921
 5536TIP3    H116614   3.875   4.993   1.768 -0.6577 -2.0906  1.5161
 5536TIP3    H216615   3.807   5.108   1.841 -0.3216 -1.2057  0.4553
 5537TIP3   OH216616   0.368   0.576   3.359  0.3989 -0.3056 -0.0313
 5537TIP3    H116617   0.457   0.608   3.342  0.2340 -0.4103 -1.1668
 5537TIP3    H216618   0.372   0.482   3.345  0.3589 -0.4806  1.0544
 5538TIP3   OH216619   1.511   4.110   4.908  0.1837 -0.4459  0.1040
 5538TIP3    H116620   1.554   4.165   4.974 -0.2815 -0.4551  0.4169
 5538TIP3    H216621   1.474   4.172   4.846 -0.3165 -0.3997  0.4419
 5539TIP3   OH216622   4.822   1.405   2.946  0.0824 -0.1917 -0.3344
 5539TIP3    H116623   4.785   1.343   2.883 -0.6977 -0.6530  0.5368
 5539TIP3    H216624   4.827   1.354   3.028 -1.7102  1.2140  0.7212
 5540TIP3   OH216625   0.541   0.488   4.584 -0.1580 -0.0126  0.1700
 5540TIP3    H116626   0.536   0.489   4.680 -0.8719  1.6050  0.1380
 5540TIP3    H216627   0.479   0.554   4.556 -0.8033 -1.2581 -1.4790
 5541TIP3   OH216628   3.305   5.348   4.325  0.1780 -0.2877 -1.4393
 5541TIP3    H116629   3.373   5.318   4.265 -1.1938 -3.8646 -1.4391
 5541TIP3    H216630   3.223   5.336   4.276 -0.6616  2.0622 -0.7474
 5542TIP3   OH216631   0.831   2.064   4.374  0.0352  0.5841 -0.1892
 5542TIP3    H116632   0.752   2.119   4.372 -0.6632 -0.3856 -0.1247
 5542TIP3    H216633   0.859   2.060   4.282 -0.1083  0.7723 -0.2433
 5543TIP3   OH216634   1.217   1.961   4.920  0.7608  0.0994 -0.1438
 5543TIP3    H116635   1.166   1.898   4.869  1.8566 -1.1311  0.2190
 5543TIP3    H216636   1.291   1.982   4.864  0.7466  0.5593  0.0088
 5544TIP3   OH216637   5.009   4.289   0.452  0.3176 -0.4181  0.4165
 5544TIP3    H116638   5.009   4.379   0.417  3.0617 -0.2609  0.6036
 5544TIP3    H216639   5.015   4.300   0.546 -1.0210 -0.8298  0.5589
 5545TIP3   OH216640   5.167   0.335   2.381 -0.1431  0.7732  0.2456
 5545TIP3    H116641   5.137   0.423   2.359  0.7199  0.8359 -0.7684
 5545TIP3    H216642   5.222   0.346   2.458 -2.6335  0.6533  2.1512
 5546TIP3   OH216643   4.465   2.390   0.957  0.4114  0.1375 -0.1045
 5546TIP3    H116644   4.518   2.383   1.037 -0.5060  0.1036  0.5146
 5546TIP3    H216645   4.410   2.467   0.972  0.5413  0.3886 -0.8954
 5547TIP3   OH216646   2.100   0.363   4.190 -0.2081  0.2646 -0.0276
 5547TIP3    H116647   2.120   0.456   4.178 -1.0744  0.3018 -1.3811
 5547TIP3    H216648   2.175   0.317   4.152  0.1168  0.3967  0.4418
 5548TIP3   OH216649   1.676   3.089   3.220  0.4338  0.3196 -0.2378
 5548TIP3    H116650   1.720   3.104   3.137 -0.6129 -1.5431 -1.2012
 5548TIP3    H216651   1.738   3.037   3.272 -0.1276 -1.3214 -1.1506
 5549TIP3   OH216652   4.324   4.680   3.573  0.2572 -0.2118  0.1751
 5549TIP3    H116653   4.278   4.612   3.524  1.0507  0.9502 -2.3790
 5549TIP3    H216654   4.377   4.726   3.507  2.3099  0.7845  2.3435
 5550TIP3   OH216655   1.703   4.309   5.096  0.0969  0.6644 -0.8861
 5550TIP3    H116656   1.692   4.403   5.104 -1.7611  0.4416 -0.1055
 5550TIP3    H216657   1.797   4.294   5.104  0.2125  2.2233  2.4568
 5551TIP3   OH216658   3.780   4.159   3.938  0.2030  0.6877  0.0906
 5551TIP3    H116659   3.728   4.210   3.876  0.8615  0.1515 -0.9360
 5551TIP3    H216660   3.801   4.221   4.008 -0.9047  1.1927  0.0038
 5552TIP3   OH216661   2.548   0.313   2.994 -0.4812 -0.5344  0.8088
 5552TIP3    H116662   2.620   0.305   3.056 -0.7115  1.0455  1.3178
 5552TIP3    H216663   2.590   0.334   2.911 -0.2156 -2.0531  0.5272
 5553TIP3   OH216664   2.614   0.527   4.059 -0.0559 -0.0488 -0.0347
 5553TIP3    H116665   2.670   0.600   4.087 -0.1138  0.2690 -0.7351
 5553TIP3    H216666   2.550   0.567   4.001 -0.1716 -0.6414 -0.3221
 5554TIP3   OH216667   2.740   2.329   0.299 -0.3458 -0.0598 -0.5005
 5554TIP3    H116668   2.795   2.379   0.238 -1.3362  0.9361 -0.5991
 5554TIP3    H216669   2.789   2.331   0.381  0.2312 -0.0224 -0.8392
 5555TIP3   OH216670   6.179   1.934   0.479 -0.3648 -0.4731 -0.2510
 5555TIP3    H116671   6.146   1.981   0.555 -0.1648  1.4628 -1.3036
 5555TIP3    H216672   6.111   1.870   0.458 -1.0513 -0.0632  0.7095
 5556TIP3   OH216673   4.935   0.585   3.958 -0.7904  0.0561 -0.1009
 5556TIP3    H116674   4.991   0.520   3.914 -1.4220 -1.7541  1.5868
 5556TIP3    H216675   4.885   0.626   3.888  0.3360 -0.6023 -1.3280
 5557TIP3   OH216676   3.099   1.531   1.198 -0.4551 -0.3241 -0.3387
 5557TIP3    H116677   3.129   1.440   1.198  0.3183 -0.0723 -0.2346
 5557TIP3    H216678   3.139   1.570   1.276 -0.2368  0.2838 -0.7482
 5558TIP3   OH216679   4.367   0.085   3.291 -0.3407 -0.3353 -0.4541
 5558TIP3    H116680   4.343   0.112   3.202  1.7030 -0.3543 -1.0660
 5558TIP3    H216681   4.360  -0.010   3.289 -0.0059 -0.3563 -0.6921
 5559TIP3   OH216682   4.785   5.635   0.510  0.2125  0.2847  0.3353
 5559TIP3    H116683   4.789   5.695   0.436 -0.9411  0.6271  0.5138
 5559TIP3    H216684   4.860   5.577   0.500 -0.8902 -0.8308 -2.1055
 5560TIP3   OH216685   1.135   0.197   1.509 -0.4836 -0.1507 -0.4368
 5560TIP3    H116686   1.187   0.124   1.477 -1.6745 -0.1757 -2.4524
 5560TIP3    H216687   1.132   0.259   1.436  0.7300  2.1115  1.3032
 5561TIP3   OH216688   5.441   2.317   0.897  0.1209  0.7025  0.1949
 5561TIP3    H116689   5.442   2.326   0.992  0.4976 -1.5259  0.4479
 5561TIP3    H216690   5.387   2.239   0.880  1.9735 -0.3516 -1.2365
 5562TIP3   OH216691   3.276   1.727   3.735 -0.1838  0.4335  0.6859
 5562TIP3    H116692   3.313   1.798   3.788 -0.2115 -0.2325  1.6286
 5562TIP3    H216693   3.244   1.664   3.799 -1.2035  0.0919 -0.1324
 5563TIP3   OH216694   1.055   2.519   0.372  0.0018 -0.9688 -0.1391
 5563TIP3    H116695   1.041   2.607   0.407 -0.8702 -1.7513  1.6565
 5563TIP3    H216696   1.042   2.528   0.278 -1.7637  0.5262  0.1815
 5564TIP3   OH216697   3.055   3.075   0.934 -1.0279 -0.4872  0.4464
 5564TIP3    H116698   3.130   3.055   0.877 -1.3524 -0.2358 -0.0770
 5564TIP3    H216699   3.040   2.994   0.983  1.3242  0.2560  2.6280
 5565TIP3   OH216700   2.408   1.154   1.903 -0.1767  0.5227 -0.1283
 5565TIP3    H116701   2.407   1.237   1.854  0.0392  0.8472  0.4064
 5565TIP3    H216702   2.477   1.166   1.968 -0.2774 -0.0062  0.0774
 5566TIP3   OH216703   3.381   1.121   0.943  0.1646 -0.3694 -0.2109
 5566TIP3    H116704   3.297   1.096   0.981  1.4653 -1.1043  2.4951
 5566TIP3    H216705   3.384   1.216   0.954 -0.0787 -0.4094  0.2629
 5567TIP3   OH216706   1.429   4.786   3.947 -0.5891 -0.0217  0.0616
 5567TIP3    H116707   1.464   4.875   3.945  1.4291 -0.7048  1.4601
 5567TIP3    H216708   1.366   4.787   4.020 -2.0373  0.6851 -1.1384
 5568TIP3   OH216709   5.410   3.035   3.345 -0.1705 -0.5222 -0.1623
 5568TIP3    H116710   5.494   3.013   3.385  0.4935  0.5090 -0.9592
 5568TIP3    H216711   5.387   2.957   3.293  0.2719 -0.8188  0.0853
 5569TIP3   OH216712   0.422   4.688   4.982 -0.3550  0.6541  0.0561
 5569TIP3    H116713   0.516   4.685   4.964 -0.4456  0.7540 -0.4751
 5569TIP3    H216714   0.391   4.761   4.928 -1.0423 -0.5784 -1.2552
 5570TIP3   OH216715   2.185   4.120   2.248 -0.1885 -0.5026 -0.2170
 5570TIP3    H116716   2.168   4.157   2.162 -0.5994  0.7056  0.3654
 5570TIP3    H216717   2.205   4.028   2.231  1.0224 -0.0116 -1.7303
 5571TIP3   OH216718   0.086   5.433   4.170  0.3031 -0.9238 -0.1660
 5571TIP3    H116719   0.011   5.484   4.202  0.7350 -1.1681  1.3254
 5571TIP3    H216720   0.048   5.348   4.148 -0.2701 -0.2745 -1.8482
 5572TIP3   OH216721   5.357   2.125   2.562  0.2739  0.3794  0.0347
 5572TIP3    H116722   5.327   2.058   2.500 -0.3179 -0.8216  1.5412
 5572TIP3    H216723   5.318   2.099   2.646  0.4684  2.3441  0.7814
 5573TIP3   OH216724   0.716   4.059   1.694 -0.3706 -0.0043 -0.8334
 5573TIP3    H116725   0.629   4.037   1.661 -0.1978 -1.6354 -0.2785
 5573TIP3    H216726   0.703   4.074   1.788 -0.2395  0.9372 -0.9557
 5574TIP3   OH216727   4.818   5.161   0.516  0.0662  0.0278  0.1734
 5574TIP3    H116728   4.738   5.164   0.568 -0.3514 -0.4811 -0.4328
 5574TIP3    H216729   4.889   5.160   0.581 -0.4254 -0.0204  0.7164
 5575TIP3   OH216730   4.535   4.117   2.393  0.5222 -0.0209 -0.4516
 5575TIP3    H116731   4.503   4.132   2.304  2.0475  0.0209 -1.0206
 5575TIP3    H216732   4.471   4.160   2.449 -1.8259 -2.0851 -1.3387
 5576TIP3   OH216733   1.510   0.431   4.989  0.1986  0.8273 -0.0612
 5576TIP3    H116734   1.521   0.525   5.005  0.3242  0.9296 -0.7204
 5576TIP3    H216735   1.537   0.419   4.898  0.6969  0.0625  0.1755
 5577TIP3   OH216736   2.534   5.302   4.180  0.5453  0.8923  0.4126
 5577TIP3    H116737   2.604   5.359   4.148  2.1096  0.3375  2.6130
 5577TIP3    H216738   2.550   5.296   4.274  0.0735 -2.6488  0.3890
 5578TIP3   OH216739   5.034   3.290   2.186  0.4486 -0.4155  0.0073
 5578TIP3    H116740   5.042   3.375   2.230 -0.7284  0.7878 -1.9722
 5578TIP3    H216741   5.120   3.275   2.148  1.2503 -1.1020  1.9787
 5579TIP3   OH216742   0.299   3.325   4.394  0.1806 -0.1835 -0.2436
 5579TIP3    H116743   0.353   3.365   4.327  0.4007 -0.0736 -0.0041
 5579TIP3    H216744   0.338   3.355   4.477 -0.9904  0.9366 -0.0618
 5580TIP3   OH216745   5.597   2.913   3.680 -0.2434  0.3802  0.2715
 5580TIP3    H116746   5.565   2.902   3.591  0.2795  0.4867  0.0646
 5580TIP3    H216747   5.540   2.980   3.718 -0.3896  0.4256 -0.0256
 5581TIP3   OH216748   5.983   4.299   0.135  0.1628  0.5728 -0.9337
 5581TIP3    H116749   5.983   4.216   0.088 -0.7481 -0.0705  0.1413
 5581TIP3    H216750   5.937   4.359   0.077 -0.5596 -0.0883 -1.0716
 5582TIP3   OH216751   2.246   5.297   4.120 -0.7995  0.3127  0.0475
 5582TIP3    H116752   2.337   5.318   4.137 -0.3288 -1.3051 -0.3005
 5582TIP3    H216753   2.205   5.291   4.206  0.1082 -1.7409  0.3728
 5583TIP3   OH216754   2.701   1.120   0.751  0.4409 -0.1534  0.1690
 5583TIP3    H116755   2.653   1.066   0.812 -0.0574 -0.6988 -0.6824
 5583TIP3    H216756   2.684   1.210   0.779 -0.9298 -0.3411  0.0011
 5584TIP3   OH216757   5.533   4.284   2.157 -0.1509  0.3240 -0.3054
 5584TIP3    H116758   5.623   4.286   2.189 -0.1680 -2.8031  0.2135
 5584TIP3    H216759   5.542   4.285   2.062  0.4592 -0.0948 -0.2591
 5585TIP3   OH216760   0.265   0.941   1.628  0.3711 -0.4520 -0.3906
 5585TIP3    H116761   0.310   0.864   1.663  1.1104 -0.2379 -0.8309
 5585TIP3    H216762   0.321   1.015   1.652  0.0463 -0.1315 -0.5980
 5586TIP3   OH216763   0.479   4.894   0.354  0.6075  0.6366 -0.3192
 5586TIP3    H116764   0.501   4.803   0.373  0.4099  0.2744 -1.7357
 5586TIP3    H216765   0.564   4.937   0.343  0.6989  0.6042  0.2505
 5587TIP3   OH216766   2.892   1.804   0.147 -0.1637  0.2025  0.0933
 5587TIP3    H116767   2.841   1.779   0.225 -0.7742 -0.1927 -0.4148
 5587TIP3    H216768   2.825   1.819   0.079  0.3740  0.2235 -0.4379
 5588TIP3   OH216769   0.866   3.619   4.839 -0.2579  0.3352  0.3627
 5588TIP3    H116770   0.928   3.612   4.911 -1.4936 -0.6647  1.3619
 5588TIP3    H216771   0.843   3.529   4.818 -1.5119  0.6985  0.1224
 5589TIP3   OH216772   6.081   0.123   4.731 -0.1192 -0.2238 -0.1634
 5589TIP3    H116773   6.151   0.175   4.691 -0.6848  0.9120  0.2669
 5589TIP3    H216774   6.048   0.178   4.802 -0.6146 -1.2729  0.4386
 5590TIP3   OH216775   5.128   2.744   3.872 -0.3077 -0.5375  0.4944
 5590TIP3    H116776   5.120   2.822   3.926 -0.8465 -1.2594  1.4788
 5590TIP3    H216777   5.128   2.777   3.782 -0.3736  0.6006  0.9018
 5591TIP3   OH216778   5.035   3.847   1.844 -0.5355  0.5367 -0.0302
 5591TIP3    H116779   5.040   3.868   1.751 -0.3163  0.7918  0.0377
 5591TIP3    H216780   4.959   3.896   1.876 -2.3037 -1.6444 -0.6162
 5592TIP3   OH216781   4.570   0.638   2.896 -0.5461 -0.2696 -0.2778
 5592TIP3    H116782   4.630   0.668   2.828 -0.0020  0.8397  0.6560
 5592TIP3    H216783   4.483   0.646   2.856 -0.3856  2.0799 -0.3120
 5593TIP3   OH216784   3.098   3.124   4.188 -0.0677 -0.0772  0.0234
 5593TIP3    H116785   3.025   3.184   4.207  0.2918 -0.0395  1.3242
 5593TIP3    H216786   3.094   3.058   4.257  1.0704 -0.1265  0.0585
 5594TIP3   OH216787   1.265   0.157   2.873  0.0185 -0.1539  0.2126
 5594TIP3    H116788   1.199   0.107   2.827 -0.5834 -0.2843  1.1838
 5594TIP3    H216789   1.326   0.091   2.907 -0.2855 -0.1653  0.7418
 5595TIP3   OH216790   0.404   2.366   1.062 -0.5898  0.3148  0.1643
 5595TIP3    H116791   0.378   2.380   0.971  0.7754  0.9367 -0.1447
 5595TIP3    H216792   0.482   2.420   1.073  0.0775 -0.8541  1.3000
 5596TIP3   OH216793   5.485   2.503   4.779  0.2839 -0.1811  0.1305
 5596TIP3    H116794   5.450   2.414   4.776 -1.7090  0.5219  0.7287
 5596TIP3    H216795   5.554   2.499   4.845 -0.6028 -1.0312  1.0467
 5597TIP3   OH216796   2.458   0.161   2.572  0.1454 -0.8500  0.4364
 5597TIP3    H116797   2.419   0.183   2.488  1.5298 -0.8282 -0.2352
 5597TIP3    H216798   2.428   0.072   2.591 -1.0280 -0.4681  0.4618
 5598TIP3   OH216799   5.633   4.913   0.981 -0.1621 -0.1044  0.5920
 5598TIP3    H116800   5.721   4.938   1.010 -0.2459  0.3631  0.4665
 5598TIP3    H216801   5.646   4.839   0.923  0.3633  1.1997 -1.0444
 5599TIP3   OH216802   2.548   0.238   3.485 -0.1769 -0.4635  0.3650
 5599TIP3    H116803   2.478   0.301   3.499  0.6888  1.3211 -2.4485
 5599TIP3    H216804   2.533   0.204   3.396  2.0720 -0.5600 -0.0594
 5600TIP3   OH216805   2.416   1.530   1.099 -0.2052  0.3221 -0.8155
 5600TIP3    H116806   2.396   1.508   1.190 -1.0932  1.2512 -0.7681
 5600TIP3    H216807   2.443   1.622   1.102  0.3289  0.1950 -1.4172
 5601TIP3   OH216808   1.425   3.965   3.493 -0.1755 -0.0410  0.2894
 5601TIP3    H116809   1.382   4.001   3.415 -0.1712 -1.3832 -0.3692
 5601TIP3    H216810   1.516   3.952   3.467  0.4696  1.9264  1.3863
 5602TIP3   OH216811   3.073   4.239   2.051 -0.0463  0.4990  0.7527
 5602TIP3    H116812   3.084   4.275   1.963  1.8050 -1.7931 -0.0762
 5602TIP3    H216813   3.139   4.286   2.104 -0.3686  1.0708  0.6542
 5603TIP3   OH216814   4.227   3.250   1.344 -0.3866  0.3381  0.0259
 5603TIP3    H116815   4.170   3.309   1.294 -1.2986  0.0037  0.6455
 5603TIP3    H216816   4.168   3.183   1.379  0.8137 -2.0300 -2.1020
 5604TIP3   OH216817   5.048   5.274   2.811  0.3758  0.6031 -0.1329
 5604TIP3    H116818   5.042   5.179   2.819 -0.7942  0.4976 -1.7741
 5604TIP3    H216819   5.078   5.303   2.896 -0.9185 -1.1035  0.9780
 5605TIP3   OH216820   4.211   0.180   1.021 -0.5998  0.0424  0.3096
 5605TIP3    H116821   4.138   0.136   1.065 -0.2907 -0.1575  0.6281
 5605TIP3    H216822   4.241   0.245   1.084  0.3883 -0.8148  0.7441
 5606TIP3   OH216823   5.515   5.760   4.487 -0.6445  0.6535 -0.1733
 5606TIP3    H116824   5.572   5.693   4.450 -0.3153  0.5557  0.4932
 5606TIP3    H216825   5.566   5.840   4.485 -0.1581  0.4006  1.1767
 5607TIP3   OH216826   1.814   2.505   0.159 -0.0955  0.1993 -0.5771
 5607TIP3    H116827   1.797   2.586   0.206  1.8164  0.8011 -0.8054
 5607TIP3    H216828   1.856   2.533   0.077  0.4697 -0.9866 -0.7183
 5608TIP3   OH216829   4.294   3.347   4.461 -0.5711  0.3049  0.4317
 5608TIP3    H116830   4.295   3.362   4.367  0.3158 -0.6678  0.2710
 5608TIP3    H216831   4.284   3.252   4.470 -3.2978  0.5903  1.3681
 5609TIP3   OH216832   3.209   4.031   1.967 -0.3425  0.2565 -0.2811
 5609TIP3    H116833   3.228   4.078   1.886  1.1460  3.4752  1.7191
 5609TIP3    H216834   3.139   4.081   2.009 -0.0283 -0.3988  1.1043
 5610TIP3   OH216835   2.963   1.463   0.562 -0.1350 -0.0095 -0.2856
 5610TIP3    H116836   2.875   1.431   0.544 -0.0643 -1.1623  1.2401
 5610TIP3    H216837   2.984   1.519   0.487 -2.2548  0.5155 -0.5574
 5611TIP3   OH216838   5.586   5.205   0.855  0.2104 -0.3589 -0.0010
 5611TIP3    H116839   5.568   5.140   0.786  0.3514 -0.1339 -0.2499
 5611TIP3    H216840   5.557   5.288   0.818 -0.6697 -0.3892  0.6100
 5612TIP3   OH216841   4.289   0.198   1.430  0.1408  0.1456 -0.1308
 5612TIP3    H116842   4.196   0.207   1.414 -0.2271 -0.3356  1.5443
 5612TIP3    H216843   4.326   0.283   1.407 -1.1823  1.4273  2.0791
 5613TIP3   OH216844   0.553   4.341   2.262 -0.1133  0.6654  0.0357
 5613TIP3    H116845   0.485   4.408   2.262  0.7927  1.6276 -0.4693
 5613TIP3    H216846   0.626   4.381   2.308  0.3103 -0.1405  0.0872
 5614TIP3   OH216847   5.386   3.674   0.376 -0.1604 -0.4588 -0.3005
 5614TIP3    H116848   5.354   3.744   0.319 -0.3125 -0.5880 -0.3751
 5614TIP3    H216849   5.415   3.605   0.316  1.0159 -0.0257 -0.2573
 5615TIP3   OH216850   3.134   1.913   0.144 -0.7967  0.3553 -0.1610
 5615TIP3    H116851   3.142   2.002   0.110  0.7658 -0.3651 -1.8919
 5615TIP3    H216852   3.040   1.896   0.144 -1.0088  1.2752 -1.8770
 5616TIP3   OH216853   2.076   0.087   1.695  0.3424  0.1953 -0.4077
 5616TIP3    H116854   2.101   0.172   1.659  3.1939  0.8243  2.6414
 5616TIP3    H216855   2.008   0.107   1.759  0.1665 -0.0044 -0.5306
 5617TIP3   OH216856   3.760   3.663   5.206 -0.1298 -0.5411  0.1743
 5617TIP3    H116857   3.843   3.699   5.175  0.0633 -1.5019 -0.4765
 5617TIP3    H216858   3.695   3.731   5.185  0.0857 -0.8686 -1.8124
 5618TIP3   OH216859   1.607   2.441   1.712 -0.3041  0.2299 -0.0724
 5618TIP3    H116860   1.673   2.496   1.753 -0.2200  1.3625 -1.6171
 5618TIP3    H216861   1.576   2.384   1.782  0.3539  1.5423  1.3523
 5619TIP3   OH216862   1.689   0.442   2.459  0.2014 -0.1858  0.4527
 5619TIP3    H116863   1.724   0.421   2.372  1.4033  0.0216  0.8729
 5619TIP3    H216864   1.665   0.535   2.453  2.4801  0.4887  1.0136
 5620TIP3   OH216865   1.845   5.398   2.591 -0.2486 -0.6396 -0.5544
 5620TIP3    H116866   1.935   5.391   2.559  0.1094 -1.1322  0.4833
 5620TIP3    H216867   1.853   5.379   2.685 -1.0240  2.1097  0.1590
 5621TIP3   OH216868   2.828   2.410   0.555 -0.1724  0.0013 -0.1978
 5621TIP3    H116869   2.916   2.378   0.575 -0.5323 -0.4545  0.7324
 5621TIP3    H216870   2.774   2.378   0.627 -0.8785  1.2774 -0.1314
 5622TIP3   OH216871   2.419   0.222   4.961  0.1806 -0.3993 -0.1083
 5622TIP3    H116872   2.393   0.161   4.892 -1.0560  0.2127 -0.2273
 5622TIP3    H216873   2.439   0.166   5.036 -1.1717 -0.9825 -0.1375
 5623TIP3   OH216874   4.375   5.560   3.197 -0.0216  0.2192  0.0894
 5623TIP3    H116875   4.326   5.546   3.115 -1.0079  2.8161  0.1418
 5623TIP3    H216876   4.466   5.563   3.170 -0.1451 -1.0822 -0.5670
 5624TIP3   OH216877   0.138   5.138   0.015  0.0094 -0.2857 -0.2269
 5624TIP3    H116878   0.187   5.208  -0.027 -2.1890  0.7214 -1.2490
 5624TIP3    H216879   0.191   5.114   0.092  0.8605  2.4528  0.1408
 5625TIP3   OH216880   0.101   3.952   2.608 -0.1066 -0.3904 -0.0202
 5625TIP3    H116881   0.084   3.861   2.586  1.1244 -0.2896 -1.5837
 5625TIP3    H216882   0.140   3.949   2.695  0.2391 -1.3875 -0.1989
 5626TIP3   OH216883   0.969   2.055   5.107 -1.0407 -0.1754 -0.4407
 5626TIP3    H116884   1.004   2.030   5.193 -1.0756  0.2673 -0.2946
 5626TIP3    H216885   0.970   1.974   5.056 -1.3137 -0.5118  0.0761
 5627TIP3   OH216886   1.441   0.367   3.752  0.4241  0.3474 -0.1805
 5627TIP3    H116887   1.420   0.403   3.666 -0.3571  0.0659 -0.1186
 5627TIP3    H216888   1.450   0.273   3.737 -2.0601 -0.0617  0.4108
 5628TIP3   OH216889   0.429   4.657   0.081  0.0466 -0.1098  0.5422
 5628TIP3    H116890   0.441   4.748   0.055 -0.7389 -0.6378 -1.9171
 5628TIP3    H216891   0.359   4.660   0.147 -0.0031  1.0605  0.4556
 5629TIP3   OH216892   1.045   3.771   1.539  0.2186  0.0320 -0.2506
 5629TIP3    H116893   1.007   3.809   1.618  0.3353  0.3405 -0.3416
 5629TIP3    H216894   0.978   3.781   1.472 -0.0958 -0.7288 -0.0603
 5630TIP3   OH216895   5.761   2.423   2.993  0.2766  0.0719 -0.6269
 5630TIP3    H116896   5.772   2.417   3.087  3.0575 -1.7487 -0.9473
 5630TIP3    H216897   5.711   2.345   2.969 -0.8187  0.7659 -0.6352
 5631TIP3   OH216898   2.874   5.544   0.122 -0.2135 -0.2809  0.4319
 5631TIP3    H116899   2.927   5.470   0.150  0.1026 -0.1547  0.1698
 5631TIP3    H216900   2.889   5.550   0.028 -1.8189 -1.1431  0.0824
 5632TIP3   OH216901   3.438   2.867   2.419 -0.0989  0.1589 -0.0516
 5632TIP3    H116902   3.396   2.803   2.477 -0.1709  0.6397  0.4417
 5632TIP3    H216903   3.452   2.820   2.337 -0.3878 -0.4081  0.2169
 5633TIP3   OH216904   1.503   5.053   2.517  0.1551  0.0245  0.1738
 5633TIP3    H116905   1.443   5.126   2.526 -0.2337 -0.1961 -0.5520
 5633TIP3    H216906   1.585   5.092   2.488  0.0805  0.2157  0.2198
 5634TIP3   OH216907   1.804   1.379   1.448  0.1168 -0.3901 -0.1940
 5634TIP3    H116908   1.871   1.427   1.496 -0.4804 -0.2803  0.5452
 5634TIP3    H216909   1.763   1.445   1.392 -0.1728 -0.2054  0.2342
 5635TIP3   OH216910   3.313   5.030   1.265 -0.6174 -0.4403  0.1958
 5635TIP3    H116911   3.245   4.964   1.249  0.7667 -1.4482 -1.9969
 5635TIP3    H216912   3.266   5.113   1.267 -1.8943 -1.0085 -2.2434
 5636TIP3   OH216913   1.595   2.380   1.327  0.1064  0.6039 -0.4570
 5636TIP3    H116914   1.521   2.418   1.279  0.5130  4.1106  1.3793
 5636TIP3    H216915   1.554   2.323   1.392 -1.1678  2.9696  0.9571
 5637TIP3   OH216916   4.662   2.992   0.920 -0.2979 -0.3580  0.3962
 5637TIP3    H116917   4.737   3.048   0.936 -0.1416 -0.7099  0.9003
 5637TIP3    H216918   4.671   2.919   0.982 -1.5979  0.1199  1.1899
 5638TIP3   OH216919   2.007   2.385   3.607 -0.0585  0.5290  0.2292
 5638TIP3    H116920   1.941   2.355   3.669 -1.8422  1.4744 -1.1137
 5638TIP3    H216921   1.973   2.469   3.575  1.3936  0.6477 -1.1032
 5639TIP3   OH216922   3.746   0.164   1.789  0.5934 -0.0966  0.1728
 5639TIP3    H116923   3.812   0.105   1.825  2.0151 -0.0080 -2.0878
 5639TIP3    H216924   3.760   0.247   1.834  1.6311 -0.2597  0.1674
 5640TIP3   OH216925   4.108   4.306   4.575  0.4572  1.2311  0.0417
 5640TIP3    H116926   4.177   4.358   4.534  0.5910  0.7047 -0.4113
 5640TIP3    H216927   4.142   4.217   4.574 -0.4317  0.8821 -0.6587
 5641TIP3   OH216928   1.928   0.710   0.238  0.1958 -0.3859 -0.5127
 5641TIP3    H116929   1.911   0.745   0.150  1.9623 -2.9023 -1.9701
 5641TIP3    H216930   2.023   0.709   0.246  0.0921 -1.3090  0.9657
 5642TIP3   OH216931   3.385   5.268   1.681 -0.0172  0.2072  0.0121
 5642TIP3    H116932   3.469   5.222   1.678 -0.9131 -1.6656  1.3828
 5642TIP3    H216933   3.329   5.219   1.621 -0.5513  0.4959  0.2662
 5643TIP3   OH216934   5.356   1.112   4.958 -0.2655 -0.0043 -0.2803
 5643TIP3    H116935   5.344   1.018   4.973 -0.2349  0.1549  0.8275
 5643TIP3    H216936   5.367   1.149   5.046  0.8224  0.8823 -0.7649
 5644TIP3   OH216937   2.363   1.458   3.943 -0.3195  0.5625 -0.6918
 5644TIP3    H116938   2.344   1.475   3.851 -0.5609 -2.6635 -1.3372
 5644TIP3    H216939   2.278   1.437   3.981 -0.0369  0.6290 -0.0094
 5645TIP3   OH216940   5.858   3.552   1.327 -0.7715  0.5988 -0.2883
 5645TIP3    H116941   5.855   3.508   1.242 -0.7436  1.8113 -0.9497
 5645TIP3    H216942   5.873   3.482   1.390 -2.5356 -0.5999 -1.0818
 5646TIP3   OH216943   2.199   2.561   0.144  0.2313 -0.1969  0.0937
 5646TIP3    H116944   2.203   2.605   0.229 -0.5493  2.1542 -1.0191
 5646TIP3    H216945   2.121   2.595   0.102  1.5963  0.1958 -2.3484
 5647TIP3   OH216946   5.449   0.900   3.751 -0.0403 -0.2043 -0.5300
 5647TIP3    H116947   5.465   0.979   3.700 -1.7251  1.1395  0.8997
 5647TIP3    H216948   5.507   0.909   3.827  0.6548 -0.9735 -0.9534
 5648TIP3   OH216949   2.950   3.850   1.419  0.0048 -0.1801  0.0170
 5648TIP3    H116950   2.939   3.806   1.503 -0.2973  2.0994  1.2641
 5648TIP3    H216951   3.007   3.925   1.439 -0.0117  0.3723 -1.8262
 5649TIP3   OH216952   5.600   5.550   0.847  0.2759  1.0326 -0.0824
 5649TIP3    H116953   5.596   5.631   0.898 -1.1320  1.5384 -0.9474
 5649TIP3    H216954   5.575   5.576   0.758  0.7757 -0.1780 -0.5953
 5650TIP3   OH216955   3.389   2.724   3.267  0.3739 -0.4388  0.0028
 5650TIP3    H116956   3.409   2.789   3.334  1.2820 -1.8104  1.1345
 5650TIP3    H216957   3.469   2.717   3.216  0.1273 -0.3390 -0.3960
 5651TIP3   OH216958   2.435   5.890   4.825 -0.2905  0.1879 -0.9687
 5651TIP3    H116959   2.370   5.941   4.875 -0.6106 -1.3216  0.2239
 5651TIP3    H216960   2.515   5.943   4.830 -0.7678  0.8732 -0.2894
 5652TIP3   OH216961   0.837   1.387   0.416  0.2318 -0.0820  0.0414
 5652TIP3    H116962   0.824   1.420   0.505  2.4478  0.2736  0.2695
 5652TIP3    H216963   0.815   1.294   0.422 -0.4203  0.1063  0.7502
 5653TIP3   OH216964   3.057   1.965   2.561 -0.0852  0.0534 -0.0899
 5653TIP3    H116965   3.125   1.997   2.503 -0.0590  1.8297  0.8595
 5653TIP3    H216966   3.105   1.929   2.636 -0.1502 -1.3924 -0.6964
 5654TIP3   OH216967   4.635   1.988   1.351 -0.0159  0.3427  0.4366
 5654TIP3    H116968   4.713   2.037   1.325  1.3227 -1.6769  0.4885
 5654TIP3    H216969   4.589   1.972   1.268  0.1763  0.6336  0.2711
 5655TIP3   OH216970   3.605   0.458   0.252 -0.5287 -0.4799 -0.2827
 5655TIP3    H116971   3.549   0.381   0.257  1.7135 -2.3625 -2.0978
 5655TIP3    H216972   3.579   0.502   0.172 -0.8147 -0.1674 -0.0204
 5656TIP3   OH216973   3.708   2.004   3.312 -0.3821 -0.3262 -0.1264
 5656TIP3    H116974   3.635   2.001   3.250  0.8613  0.6733 -1.7193
 5656TIP3    H216975   3.669   2.037   3.393 -1.2205  3.2683 -1.8061
 5657TIP3   OH216976   1.141   2.897   4.902 -0.1629  0.5520  0.5840
 5657TIP3    H116977   1.059   2.870   4.943  0.5940  0.2678  1.9731
 5657TIP3    H216978   1.127   2.881   4.808 -0.8795 -1.7029  1.0094
 5658TIP3   OH216979   4.205   5.226   1.726  0.4226  0.1441  0.3307
 5658TIP3    H116980   4.162   5.213   1.811 -0.9987  1.3504 -0.1604
 5658TIP3    H216981   4.155   5.172   1.666 -0.4751  1.5609 -0.2497
 5659TIP3   OH216982   5.807   3.741   1.525 -0.1653 -0.2496 -0.1345
 5659TIP3    H116983   5.721   3.723   1.563 -0.1319  1.1033  0.6378
 5659TIP3    H216984   5.814   3.679   1.453 -0.5743 -2.3744  1.5415
 5660TIP3   OH216985   3.884   3.125   1.411  0.3270 -0.2595  0.0335
 5660TIP3    H116986   3.894   3.123   1.506 -0.5571 -0.1116  0.1434
 5660TIP3    H216987   3.806   3.180   1.397  1.0493  0.5909 -0.8255
 5661TIP3   OH216988   4.924   4.241   3.829  0.1154  0.0986 -0.3358
 5661TIP3    H116989   4.922   4.325   3.875  0.6822  0.5354 -1.0800
 5661TIP3    H216990   4.867   4.183   3.881  0.7437  0.5661  0.9025
 5662TIP3   OH216991   6.362   4.235   4.482 -0.1886 -0.2607  0.2156
 5662TIP3    H116992   6.321   4.236   4.568 -0.2532  0.3260  0.1866
 5662TIP3    H216993   6.322   4.309   4.436  1.8634  1.2229  0.6629
 5663TIP3   OH216994   0.779   3.660   2.842 -0.5382 -0.5149 -0.2891
 5663TIP3    H116995   0.857   3.711   2.865 -0.2563 -0.6262 -0.9590
 5663TIP3    H216996   0.757   3.689   2.753 -1.5545 -0.1362  0.0761
 5664TIP3   OH216997   5.251   5.954   0.281 -0.2568  0.0525  0.3297
 5664TIP3    H116998   5.332   6.004   0.286 -0.4812  0.4270  0.2620
 5664TIP3    H216999   5.231   5.949   0.188  0.0437 -0.6312  0.2879
 5665TIP3   OH217000   3.314   3.228  -0.007 -0.1139 -0.1848 -0.6742
 5665TIP3    H117001   3.340   3.290   0.062 -1.5626 -0.6571  0.3343
 5665TIP3    H217002   3.338   3.142   0.028 -3.0649 -0.6730  0.4265
 5666TIP3   OH217003   5.806   4.939   2.567  0.4587 -0.1293  0.6757
 5666TIP3    H117004   5.713   4.919   2.562  0.6384 -0.7707 -0.6793
 5666TIP3    H217005   5.847   4.876   2.508  1.5532  1.2964 -0.1471
 5667TIP3   OH217006   4.868   3.744   3.563  0.0906  0.0198 -0.1263
 5667TIP3    H117007   4.869   3.839   3.573  0.8604 -0.0367  0.4003
 5667TIP3    H217008   4.951   3.715   3.600  0.4044 -0.7534 -1.3662
 5668TIP3   OH217009   3.252   3.264   1.568 -0.1109  0.1034 -0.1266
 5668TIP3    H117010   3.204   3.320   1.629 -0.3317  0.8958 -0.9987
 5668TIP3    H217011   3.232   3.175   1.597 -0.7657  0.4503  0.5324
 5669TIP3   OH217012   1.143   3.471   1.497  0.4192  0.2271  0.0770
 5669TIP3    H117013   1.232   3.490   1.527  0.3746  1.0792 -0.3097
 5669TIP3    H217014   1.149   3.474   1.402  0.2116 -0.8514  0.0184
 5670TIP3   OH217015   4.279   1.487   2.366 -0.1353 -0.5601  0.7865
 5670TIP3    H117016   4.329   1.449   2.294 -2.5982 -0.6779 -0.9720
 5670TIP3    H217017   4.325   1.568   2.387  1.3610 -1.1707 -0.0123
 5671TIP3   OH217018   0.377   4.150   2.184 -0.1502  0.1686 -0.1109
 5671TIP3    H117019   0.339   4.134   2.270  1.0005 -2.8643 -0.0594
 5671TIP3    H217020   0.450   4.209   2.201  0.7790 -1.3024  1.2352
 5672TIP3   OH217021   1.181   0.792   1.300  0.2911  0.7559 -0.1761
 5672TIP3    H117022   1.190   0.879   1.262  1.8748  0.3683 -0.7621
 5672TIP3    H217023   1.233   0.795   1.380  0.5120  0.3005 -0.2987
 5673TIP3   OH217024   6.269   4.905   1.804 -0.0237  0.9301 -0.5829
 5673TIP3    H117025   6.279   4.858   1.721  1.9331 -0.5746  0.4115
 5673TIP3    H217026   6.358   4.931   1.827  0.0721 -1.6489  2.6342
 5674TIP3   OH217027   1.574   1.224   3.836  0.0004 -0.0167 -1.1238
 5674TIP3    H117028   1.540   1.135   3.825  0.1118 -0.2666  0.3503
 5674TIP3    H217029   1.618   1.223   3.920 -0.6666  1.6441 -0.7037
 5675TIP3   OH217030   0.196   1.496   1.487  0.1564 -0.0127  0.1669
 5675TIP3    H117031   0.182   1.404   1.506 -0.2190  0.2338  1.1028
 5675TIP3    H217032   0.139   1.543   1.547  1.5050  0.8805  0.8149
 5676TIP3   OH217033   2.962   3.015   2.474  0.4900 -0.0600 -0.2766
 5676TIP3    H117034   2.942   3.086   2.534 -0.4884  0.6340 -1.3811
 5676TIP3    H217035   2.931   3.045   2.389  0.2700 -1.7014 -0.8245
 5677TIP3   OH217036   6.208   3.013   0.305  0.0476  0.0662 -0.0125
 5677TIP3    H117037   6.184   3.093   0.350  0.2552 -0.0835  0.3633
 5677TIP3    H217038   6.195   2.943   0.369  3.2919  0.1532  0.8865
 5678TIP3   OH217039   5.946   1.737   0.204  0.0169  0.2384  0.6232
 5678TIP3    H117040   5.910   1.779   0.282  0.7917  1.0933  0.5359
 5678TIP3    H217041   5.952   1.644   0.227 -1.1125  0.2541  1.0520
 5679TIP3   OH217042   5.273   0.514   3.142 -0.2103  0.4188 -0.4831
 5679TIP3    H117043   5.267   0.425   3.177 -0.1607  0.1516 -1.1492
 5679TIP3    H217044   5.277   0.569   3.220 -0.2280 -0.1599 -0.0611
 5680TIP3   OH217045   3.926   0.633   0.079  0.6254 -0.0838  0.1723
 5680TIP3    H117046   3.985   0.621   0.004  1.1022 -0.9103  0.6696
 5680TIP3    H217047   3.900   0.545   0.104 -0.6941  0.2630  0.0779
 5681TIP3   OH217048   0.571   5.740   5.067  0.1178 -1.0474  0.4317
 5681TIP3    H117049   0.664   5.762   5.071 -0.0133 -0.6385  2.0452
 5681TIP3    H217050   0.565   5.670   5.003  1.2869  0.1059 -1.0020
 5682TIP3   OH217051   4.812   3.895   3.197 -0.1628 -0.0558  0.3385
 5682TIP3    H117052   4.772   3.968   3.245  0.4650  1.0649 -0.7799
 5682TIP3    H217053   4.770   3.898   3.111 -0.7680 -1.6001  0.5580
 5683TIP3   OH217054   4.149   3.863   4.438 -0.3842  0.2775  0.5153
 5683TIP3    H117055   4.107   3.798   4.380 -0.5389  0.9222 -0.1114
 5683TIP3    H217056   4.168   3.814   4.518  2.5803 -1.5168 -1.0740
 5684TIP3   OH217057   5.019   5.550   2.504 -0.6135 -0.6341 -0.3609
 5684TIP3    H117058   4.999   5.582   2.416  0.6054  0.2537 -0.3467
 5684TIP3    H217059   5.109   5.518   2.497 -0.7957 -1.3393  0.3687
 5685TIP3   OH217060   1.247   1.021   1.637 -0.2619 -0.1751  0.1448
 5685TIP3    H117061   1.270   0.936   1.601 -0.7782  0.1544 -1.0282
 5685TIP3    H217062   1.160   1.039   1.602  1.0038  2.1433 -2.1591
 5686TIP3   OH217063   4.423   4.478   3.177  0.3073 -0.1363 -0.6005
 5686TIP3    H117064   4.462   4.413   3.118  0.1852 -0.1343 -0.6832
 5686TIP3    H217065   4.493   4.541   3.192 -0.5142  1.5559 -3.1737
 5687TIP3   OH217066   5.858   0.967   4.858 -0.6104 -0.5626 -0.3114
 5687TIP3    H117067   5.889   1.032   4.922 -0.1923 -1.5804  0.5660
 5687TIP3    H217068   5.936   0.942   4.810 -0.7269 -0.6092 -0.4772
 5688TIP3   OH217069   3.228   2.094   0.795 -0.9083  0.4362  0.3699
 5688TIP3    H117070   3.276   2.036   0.735  2.4098  2.4922  0.8071
 5688TIP3    H217071   3.194   2.035   0.862  1.2474 -1.2006  0.1534
 5689TIP3   OH217072   1.960   2.817   3.062 -0.2525  0.3908  0.5254
 5689TIP3    H117073   2.045   2.777   3.083 -0.2940  0.8069  1.5592
 5689TIP3    H217074   1.916   2.752   3.007 -0.0261 -0.6849  1.5531
 5690TIP3   OH217075   0.389   1.678   4.548 -0.6122  0.1989  0.3572
 5690TIP3    H117076   0.424   1.610   4.490  1.8864  0.3660  1.5215
 5690TIP3    H217077   0.336   1.734   4.491  1.2360  0.0109 -1.6644
 5691TIP3   OH217078   3.924   0.650   2.792 -0.9097  0.1047 -0.2787
 5691TIP3    H117079   3.925   0.580   2.726 -1.9255 -0.0209 -0.1886
 5691TIP3    H217080   3.923   0.603   2.876  1.8517  0.2582 -0.0681
 5692TIP3   OH217081   3.897   4.204   3.563 -0.1949  0.2439  0.2133
 5692TIP3    H117082   3.933   4.116   3.574  1.9363  1.0810  0.6400
 5692TIP3    H217083   3.841   4.217   3.639  2.6125  0.5788  2.4294
 5693TIP3   OH217084   0.476   1.900   1.419  0.1692 -0.0688 -0.3603
 5693TIP3    H117085   0.497   1.811   1.391  0.3216 -0.5580  1.2200
 5693TIP3    H217086   0.401   1.925   1.366 -1.1948 -1.9424  0.5684
 5694TIP3   OH217087   3.230   0.148   1.794 -0.5026 -0.1666 -0.4722
 5694TIP3    H117088   3.285   0.070   1.810 -0.3151  0.0180 -0.2064
 5694TIP3    H217089   3.155   0.137   1.853 -0.1371  0.1886  0.0678
 5695TIP3   OH217090   3.955   0.498   1.029  0.6166  0.4689 -0.0623
 5695TIP3    H117091   4.038   0.473   1.069  0.6952  0.3864 -0.2765
 5695TIP3    H217092   3.935   0.584   1.066 -0.1158 -0.2872  1.4128
 5696TIP3   OH217093   3.875   5.058   1.427 -0.5783 -0.3521  0.0727
 5696TIP3    H117094   3.814   5.119   1.385  0.3397 -1.0876 -2.5934
 5696TIP3    H217095   3.839   4.971   1.409  0.4609 -0.7335 -0.2440
 5697TIP3   OH217096   3.259   5.220   1.950 -0.4472 -0.3138  0.0616
 5697TIP3    H117097   3.168   5.248   1.939 -0.4017  0.1299  0.7873
 5697TIP3    H217098   3.299   5.234   1.864 -0.4238  1.8913  0.3655
 5698TIP3   OH217099   3.254   2.751   1.643 -0.4226 -0.2080  0.8270
 5698TIP3    H117100   3.316   2.716   1.708 -0.5361 -0.4665  0.7960
 5698TIP3    H217101   3.174   2.701   1.657 -0.3071 -0.5821  0.1816
 5699TIP3   OH217102   6.128   0.965   3.758 -0.7001  0.1507  0.8678
 5699TIP3    H117103   6.042   0.959   3.800 -0.3000  0.1615  1.7078
 5699TIP3    H217104   6.176   0.888   3.789 -0.6383 -0.2487 -0.1663
 5700TIP3   OH217105   3.841   3.703   3.225 -0.3048 -0.2178  0.2101
 5700TIP3    H117106   3.790   3.736   3.152 -0.8910 -0.1030  0.6658
 5700TIP3    H217107   3.870   3.616   3.197  0.7796  0.4252 -0.7718
 5701TIP3   OH217108   5.200   1.189   3.829 -0.0467 -0.4981 -0.1485
 5701TIP3    H117109   5.137   1.130   3.871 -1.0876  0.0479 -0.8766
 5701TIP3    H217110   5.172   1.193   3.737  0.9908 -0.1446 -0.4651
 5702TIP3   OH217111   4.605   1.551   3.914  0.1191  0.3972  0.8453
 5702TIP3    H117112   4.582   1.557   3.821  1.0256 -1.7801  0.4247
 5702TIP3    H217113   4.604   1.642   3.944  0.7864  1.2848 -1.5500
 5703TIP3   OH217114   2.639   3.564   2.504  0.7804 -0.3029  0.0835
 5703TIP3    H117115   2.719   3.599   2.465 -0.4388  1.3066 -1.1448
 5703TIP3    H217116   2.663   3.543   2.594  2.4737  0.5331 -0.1269
 5704TIP3   OH217117   5.191   2.343   5.024 -0.5901  0.0862 -0.1353
 5704TIP3    H117118   5.116   2.284   5.018 -1.1959  0.5860  1.8512
 5704TIP3    H217119   5.160   2.425   4.984 -0.1713 -0.4966 -1.7284
 5705TIP3   OH217120   6.105   3.042   5.139 -0.5898 -0.3313 -0.4692
 5705TIP3    H117121   6.122   2.961   5.187 -3.7857 -1.6019 -1.1959
 5705TIP3    H217122   6.075   3.103   5.206  0.0327 -0.3510 -0.1678
 5706TIP3   OH217123   0.867   1.900   1.151  0.1497 -0.0694 -0.4862
 5706TIP3    H117124   0.920   1.821   1.164 -0.9394 -0.9919 -1.4090
 5706TIP3    H217125   0.843   1.927   1.239  0.4098 -0.8635 -0.1579
 5707TIP3   OH217126   4.170   1.642   1.230  0.1577  0.0492  0.4670
 5707TIP3    H117127   4.183   1.623   1.323 -0.1713 -1.0412  0.3088
 5707TIP3    H217128   4.221   1.574   1.185 -0.2120  0.1750 -0.1383
 5708TIP3   OH217129   4.735   0.083   2.171 -0.6442 -0.0240  0.0112
 5708TIP3    H117130   4.744  -0.012   2.169  1.1682  0.0909  0.4118
 5708TIP3    H217131   4.669   0.100   2.239  1.8660 -0.9402  2.9462
 5709TIP3   OH217132   5.677   5.742   4.798 -0.3586  0.4722  0.2923
 5709TIP3    H117133   5.616   5.674   4.768 -0.1992  0.6783 -0.5268
 5709TIP3    H217134   5.633   5.824   4.776  1.0033  0.6564 -2.1315
 5710TIP3   OH217135   4.249   3.232   3.110 -0.1344 -0.5399  0.4524
 5710TIP3    H117136   4.326   3.176   3.099  0.4919 -0.1432  2.3887
 5710TIP3    H217137   4.285   3.318   3.129 -1.0816  0.7007 -2.7538
 5711TIP3   OH217138   3.787   0.340   1.427  0.0637  0.5611 -0.2975
 5711TIP3    H117139   3.836   0.421   1.444  0.2122 -0.1659  3.8620
 5711TIP3    H217140   3.700   0.357   1.463  0.1398 -1.1227  0.7609
 5712TIP3   OH217141   1.639   0.722   2.475 -0.3412  0.2860 -0.4574
 5712TIP3    H117142   1.705   0.709   2.543 -0.9123  0.3582  0.1268
 5712TIP3    H217143   1.577   0.784   2.513 -0.6445  0.3684 -1.0668
 5713TIP3   OH217144   3.213   3.871   4.320 -0.0512 -0.0405 -0.4765
 5713TIP3    H117145   3.232   3.953   4.365  1.9857 -0.1226 -1.0812
 5713TIP3    H217146   3.247   3.883   4.231  1.4616 -1.9480 -0.2234
 5714TIP3   OH217147   1.222   2.308   5.210  0.9845  0.2000 -0.2725
 5714TIP3    H117148   1.306   2.295   5.166  0.1251 -0.3133 -1.8813
 5714TIP3    H217149   1.182   2.381   5.164  0.8833  1.0055  1.0477
 5715TIP3   OH217150   1.101   5.714   2.234 -0.2560  0.2009  0.0148
 5715TIP3    H117151   1.030   5.768   2.267  0.9191  0.8269  1.6532
 5715TIP3    H217152   1.155   5.774   2.182 -0.2625  0.0128 -0.2132
 5716TIP3   OH217153   1.625   0.734   4.811  0.2230 -0.0203  0.2273
 5716TIP3    H117154   1.571   0.802   4.852 -0.6812 -1.8624  2.3021
 5716TIP3    H217155   1.685   0.706   4.881  0.6528 -1.2818 -0.6160
 5717TIP3   OH217156   1.144   1.709   4.783 -0.2081 -0.1023  0.4425
 5717TIP3    H117157   1.070   1.762   4.754  0.1113 -0.3739 -0.9330
 5717TIP3    H217158   1.109   1.656   4.855 -0.9124  0.9115  0.8684
 5718TIP3   OH217159   6.307   1.783   3.219 -0.4214 -0.6594 -0.2815
 5718TIP3    H117160   6.398   1.757   3.204 -0.8007 -0.3265 -4.4044
 5718TIP3    H217161   6.258   1.701   3.217 -0.4384 -0.6416 -0.8979
 5719TIP3   OH217162   4.590   2.397   2.985  0.5409 -0.5049  0.3666
 5719TIP3    H117163   4.622   2.477   3.027  1.4333 -1.3820  1.4228
 5719TIP3    H217164   4.612   2.327   3.047  0.1107 -1.6111 -0.6946
 5720TIP3   OH217165   4.752   3.190   4.109 -0.1273  0.4365 -0.3024
 5720TIP3    H117166   4.828   3.227   4.064  0.0913  1.0445  0.5384
 5720TIP3    H217167   4.679   3.246   4.083 -0.1429  0.3238 -0.5014
 5721TIP3   OH217168   3.466   1.755   1.399 -0.4471 -0.0654  0.0372
 5721TIP3    H117169   3.475   1.848   1.382 -0.1281  0.0288  0.6889
 5721TIP3    H217170   3.421   1.751   1.484 -0.0902 -0.5025  0.2072
 5722TIP3   OH217171   3.694   1.141   0.138  0.2158 -0.6118  0.0965
 5722TIP3    H117172   3.625   1.148   0.072  1.1824  2.7117 -0.7350
 5722TIP3    H217173   3.741   1.061   0.114  0.2894  0.2432 -3.0907
 5723TIP3   OH217174   1.829   2.843   4.025 -1.0457 -0.1089  0.1363
 5723TIP3    H117175   1.809   2.796   4.106  1.7446 -0.3833  0.7627
 5723TIP3    H217176   1.871   2.777   3.969 -2.6132  0.1699 -1.4506
 5724TIP3   OH217177   1.624   1.618   4.185  0.6558 -0.0576 -0.6812
 5724TIP3    H117178   1.575   1.542   4.154  0.8195 -0.7760  0.7163
 5724TIP3    H217179   1.689   1.582   4.245 -1.1641  1.3644  2.3796
 5725TIP3   OH217180   6.344   1.022   2.044  0.6543 -0.4861 -0.7586
 5725TIP3    H117181   6.418   0.979   2.002  0.7970 -1.2314  0.2169
 5725TIP3    H217182   6.269   0.998   1.990  1.0422 -0.1037 -1.4916
 5726TIP3   OH217183   3.827   5.329   2.748  0.6544  0.1207  0.0988
 5726TIP3    H117184   3.845   5.284   2.665 -2.1738 -0.4675 -0.2777
 5726TIP3    H217185   3.783   5.263   2.802  1.5283  0.8099  1.7413
 5727TIP3   OH217186   4.306   1.422   1.175 -0.0142  0.2152  0.7635
 5727TIP3    H117187   4.330   1.356   1.110 -1.1058  0.3699  0.1815
 5727TIP3    H217188   4.292   1.372   1.256 -0.2910 -0.1974  0.4638
 5728TIP3   OH217189   5.077   3.517   3.112 -0.4636  0.4436 -0.0474
 5728TIP3    H117190   5.017   3.549   3.179 -0.2261  0.7804  0.0074
 5728TIP3    H217191   5.114   3.596   3.073 -1.5837  0.3205 -1.4899
 5729TIP3   OH217192   1.639   3.725   2.402  0.3812 -0.0243 -0.3817
 5729TIP3    H117193   1.690   3.796   2.441 -0.4074 -0.4193  1.4924
 5729TIP3    H217194   1.650   3.736   2.308  3.7136  0.0586 -0.1176
 5730TIP3   OH217195   4.442   5.831  -0.013  0.5403 -0.1574 -0.1442
 5730TIP3    H117196   4.366   5.878  -0.048  0.3180 -0.8756 -0.6650
 5730TIP3    H217197   4.444   5.853   0.080  0.2675  0.6341 -0.3208
 5731TIP3   OH217198   0.786   4.080   0.379 -0.4686  0.2159  0.4648
 5731TIP3    H117199   0.743   4.114   0.457  0.5197 -0.2338  1.2117
 5731TIP3    H217200   0.862   4.031   0.411 -0.3339 -0.4191 -0.7378
 5732TIP3   OH217201   2.612   3.298   4.104 -0.0011 -0.1968  0.2096
 5732TIP3    H117202   2.565   3.382   4.106 -0.1920 -0.3101  0.7207
 5732TIP3    H217203   2.552   3.237   4.146  0.5048 -0.3971  0.6495
 5733TIP3   OH217204   5.783   5.267   3.030 -0.4275  0.4056  0.3120
 5733TIP3    H117205   5.787   5.183   3.075  2.1377  0.5278  0.4149
 5733TIP3    H217206   5.759   5.245   2.940 -0.1592 -0.3994  0.4306
 5734TIP3   OH217207   5.412   1.698   4.682 -1.0413  0.0540 -0.2251
 5734TIP3    H117208   5.444   1.642   4.611  1.7259  0.1076  0.8395
 5734TIP3    H217209   5.344   1.751   4.642 -0.1752 -0.5128 -2.6128
 5735TIP3   OH217210   6.112   5.857   3.341 -0.4194  0.0445 -0.0613
 5735TIP3    H117211   6.193   5.813   3.365  0.3483  0.6233 -1.4929
 5735TIP3    H217212   6.043   5.797   3.367  0.5081 -0.9209  0.2237
 5736TIP3   OH217213   3.282   5.853   0.803 -0.0616  0.4777  0.3643
 5736TIP3    H117214   3.211   5.802   0.841 -0.2864  0.2779 -0.2978
 5736TIP3    H217215   3.307   5.915   0.871 -1.4958  1.1794  0.2758
 5737TIP3   OH217216   3.584   3.902   3.717 -0.4436  0.0758 -0.4485
 5737TIP3    H117217   3.537   3.898   3.800 -0.5442  0.3024 -0.4929
 5737TIP3    H217218   3.664   3.951   3.737 -0.5612  0.3017 -0.5282
 5738TIP3   OH217219   3.964   2.994   4.369  0.4387 -0.0246 -0.0121
 5738TIP3    H117220   3.906   3.069   4.360  0.8899  0.2642 -0.5155
 5738TIP3    H217221   4.036   3.025   4.425  1.6011  0.5062 -1.7388
 5739TIP3   OH217222   4.380   1.851   2.561  0.0213 -0.0352  0.0158
 5739TIP3    H117223   4.373   1.797   2.639 -0.8141 -0.8150 -0.5839
 5739TIP3    H217224   4.298   1.835   2.513  1.1451 -0.7491 -1.7630
 5740TIP3   OH217225   4.671   1.870   2.596  0.2869 -0.5282  0.1685
 5740TIP3    H117226   4.658   1.948   2.543  0.3481  0.4298  1.5018
 5740TIP3    H217227   4.582   1.844   2.622  0.2943 -0.6556  0.0677
 5741TIP3   OH217228   6.040   3.068   0.896  0.4409  0.2583 -0.2376
 5741TIP3    H117229   6.005   3.075   0.807  1.2530 -0.9207 -0.6794
 5741TIP3    H217230   6.010   3.148   0.940  0.0233  0.8694 -1.5652
 5742TIP3   OH217231   5.671   0.793   1.244 -0.4194  0.4285 -0.2026
 5742TIP3    H117232   5.750   0.833   1.207  0.0498  0.0558  0.3954
 5742TIP3    H217233   5.600   0.824   1.187  0.4000 -0.9678 -2.0854
 5743TIP3   OH217234   4.619   2.522   1.379 -0.1369 -0.1772 -0.1164
 5743TIP3    H117235   4.575   2.607   1.368  0.3274  0.0855  0.0113
 5743TIP3    H217236   4.682   2.537   1.450 -0.1149 -0.6546 -0.0373
 5744TIP3   OH217237   6.144   2.132   0.290  0.0557 -0.2973  0.1951
 5744TIP3    H117238   6.183   2.102   0.208 -0.1832  0.6238 -0.2712
 5744TIP3    H217239   6.180   2.074   0.357  2.2879  0.5439 -0.1890
 5745TIP3   OH217240   3.133   0.216   2.391  0.1612 -0.3195 -0.1013
 5745TIP3    H117241   3.082   0.251   2.318  0.6382  0.4986 -0.0484
 5745TIP3    H217242   3.074   0.221   2.466  0.5436  1.3299  0.1191
 5746TIP3   OH217243   3.319   1.110   4.616  0.0094 -0.2597 -0.2913
 5746TIP3    H117244   3.403   1.155   4.626  0.7191 -1.8754  1.3921
 5746TIP3    H217245   3.342   1.020   4.592 -1.2378 -0.7037  0.0978
 5747TIP3   OH217246   1.340   2.666   0.701 -0.1622 -0.1234 -0.5047
 5747TIP3    H117247   1.268   2.620   0.659  0.2892 -1.1530 -0.1931
 5747TIP3    H217248   1.414   2.653   0.641 -0.2678  1.0867 -0.9195
 5748TIP3   OH217249   4.455   2.926   3.691 -0.1146 -0.3865 -0.4586
 5748TIP3    H117250   4.425   2.895   3.777 -1.3515 -0.8047 -1.0113
 5748TIP3    H217251   4.543   2.960   3.707 -1.5382  2.7469  1.6864
 5749TIP3   OH217252   4.600   1.306   2.381 -0.0429  0.2391 -0.4664
 5749TIP3    H117253   4.687   1.346   2.382 -0.3308  0.8738 -0.2475
 5749TIP3    H217254   4.556   1.342   2.457 -0.2641 -0.6300 -0.1742
 5750TIP3   OH217255   4.809   5.975   4.030 -0.0504  0.2937 -0.5287
 5750TIP3    H117256   4.773   5.944   4.113  5.6453 -3.2639  1.2196
 5750TIP3    H217257   4.768   5.919   3.964 -0.6447 -0.7878  0.7141
 5751TIP3   OH217258   2.067   4.663   3.007  0.3469 -0.5403 -0.2934
 5751TIP3    H117259   2.106   4.639   3.091  0.6777 -0.5366 -0.4482
 5751TIP3    H217260   1.984   4.705   3.031 -0.0474 -1.4577 -0.0073
 5752TIP3   OH217261   0.895   2.497   3.296  0.1016 -0.8526  0.6695
 5752TIP3    H117262   0.943   2.459   3.222  0.5168 -0.9573  0.9931
 5752TIP3    H217263   0.912   2.438   3.369  0.2262 -0.3960  1.0127
 5753TIP3   OH217264   0.867   5.188   0.340  0.4297  0.0333 -0.1106
 5753TIP3    H117265   0.903   5.112   0.385 -1.1480 -1.3127 -1.0003
 5753TIP3    H217266   0.852   5.253   0.410  2.1406 -0.3006  0.6074
 5754TIP3   OH217267   4.997   0.953   1.972  0.3282  0.1980 -0.8641
 5754TIP3    H117268   5.052   0.887   2.013 -1.3085  0.1794  1.4801
 5754TIP3    H217269   5.044   0.977   1.892  1.9638 -2.2891 -0.7488
 5755TIP3   OH217270   5.819   5.134   3.919  0.2241  0.2677 -0.2728
 5755TIP3    H117271   5.765   5.126   3.997 -1.0107  1.7190 -0.9223
 5755TIP3    H217272   5.905   5.101   3.945 -0.6484 -0.9949  1.1362
 5756TIP3   OH217273   2.501   2.222   3.617  0.3180  0.5862  0.3866
 5756TIP3    H117274   2.438   2.289   3.642  0.7411  0.4268  1.9890
 5756TIP3    H217275   2.461   2.178   3.542 -0.4237  1.9541 -0.0456
 5757TIP3   OH217276   6.316   4.090   2.279  0.6550 -0.3749 -0.1590
 5757TIP3    H117277   6.409   4.111   2.289  0.6114 -0.5189  0.6490
 5757TIP3    H217278   6.273   4.175   2.277  0.8740 -0.2817 -1.4057
 5758TIP3   OH217279   5.062   0.671   0.443  0.1900  0.0180  0.0625
 5758TIP3    H117280   5.069   0.575   0.439 -0.7304 -0.0256 -0.9829
 5758TIP3    H217281   5.125   0.702   0.378 -0.5318  0.0524 -0.6388
 5759TIP3   OH217282   0.405   2.726   3.923 -0.2809  0.6708  0.2809
 5759TIP3    H117283   0.460   2.656   3.889  0.5753  1.8632 -0.8681
 5759TIP3    H217284   0.379   2.695   4.010  1.4804 -0.3204  0.5032
 5760TIP3   OH217285   5.690   2.253   2.444 -0.4301  0.2119 -0.3877
 5760TIP3    H117286   5.611   2.285   2.487 -0.7455  1.0535 -1.5438
 5760TIP3    H217287   5.753   2.325   2.450 -0.0170 -0.1546 -0.1876
 5761TIP3   OH217288   0.326   2.472   0.138  0.0072 -0.1279 -0.3092
 5761TIP3    H117289   0.317   2.451   0.045  0.0205  0.3521 -0.4246
 5761TIP3    H217290   0.257   2.422   0.182  1.6521 -2.4642 -0.2337
 5762TIP3   OH217291   1.138   2.708   1.006  0.7128 -0.0743  0.3367
 5762TIP3    H117292   1.146   2.802   0.989  1.9274  0.3713  2.8719
 5762TIP3    H217293   1.227   2.674   0.995  0.6044 -0.5883  0.9618
 5763TIP3   OH217294   2.330   0.005   1.618  0.3699 -0.2005 -0.2276
 5763TIP3    H117295   2.391   0.074   1.642  0.6928  0.1177 -1.8115
 5763TIP3    H217296   2.246   0.032   1.654  0.7968  0.2450  0.4510
 5764TIP3   OH217297   4.207   0.378   4.046  0.4266  0.6029 -0.0491
 5764TIP3    H117298   4.186   0.323   4.122 -0.0054 -0.5941 -0.9916
 5764TIP3    H217299   4.301   0.394   4.053  0.1096  1.9678  1.6423
 5765TIP3   OH217300   5.252   3.873   0.090 -0.0252 -0.4232 -0.0645
 5765TIP3    H117301   5.315   3.870   0.019  0.5649 -1.9998  0.4830
 5765TIP3    H217302   5.291   3.932   0.155 -0.1468  0.3028 -0.6385
 5766TIP3   OH217303   3.434   5.505   1.847  0.2290 -0.4588 -0.9171
 5766TIP3    H117304   3.367   5.548   1.900  0.9657 -0.0024 -0.3368
 5766TIP3    H217305   3.387   5.437   1.799 -0.3264 -1.3791  0.8672
 5767TIP3   OH217306   0.397   2.836   3.464  0.2267 -0.2566 -0.0519
 5767TIP3    H117307   0.334   2.889   3.415 -0.4869  2.7009  3.5673
 5767TIP3    H217308   0.344   2.771   3.509  0.1773  0.1691  0.5139
 5768TIP3   OH217309   3.587   2.442   3.010  0.4041  0.0685 -0.0772
 5768TIP3    H117310   3.641   2.481   2.941  0.5784 -1.1857 -0.6876
 5768TIP3    H217311   3.509   2.410   2.963  0.6997 -1.1415  0.2162
 5769TIP3   OH217312   4.426   2.857   1.374  0.0576 -0.2779  0.4733
 5769TIP3    H117313   4.367   2.805   1.318  2.2643 -1.2112 -1.1340
 5769TIP3    H217314   4.430   2.943   1.331  0.3889 -0.4338  0.1890
 5770TIP3   OH217315   3.897   3.740   0.236 -0.0370 -0.6994 -0.4501
 5770TIP3    H117316   3.939   3.676   0.178  2.1181  0.5174 -0.3473
 5770TIP3    H217317   3.884   3.693   0.318 -0.4928 -1.6069 -1.0268
 5771TIP3   OH217318   3.407   2.810   0.875  0.4957 -0.0556 -0.0531
 5771TIP3    H117319   3.388   2.901   0.850 -0.0829 -0.3327 -0.6360
 5771TIP3    H217320   3.340   2.789   0.940 -0.3063 -0.5460 -1.0166
 5772TIP3   OH217321   1.670   3.759   0.404 -0.2389  0.1036 -0.1263
 5772TIP3    H117322   1.757   3.737   0.369  0.3975  2.5102 -0.2335
 5772TIP3    H217323   1.687   3.827   0.469 -2.0054  0.1196  0.3717
 5773TIP3   OH217324   3.901   4.762   1.110  0.0430  0.3114  0.1633
 5773TIP3    H117325   3.975   4.808   1.149 -0.6624  1.0851  0.6281
 5773TIP3    H217326   3.917   4.669   1.130  0.4743  0.5492  0.9575
 5774TIP3   OH217327   2.709   4.026   4.944 -0.3839 -0.2671  0.7424
 5774TIP3    H117328   2.722   4.032   4.849 -1.4114 -1.8487  0.4642
 5774TIP3    H217329   2.620   4.057   4.958 -0.5727 -0.9378  1.0621
 5775TIP3   OH217330   4.878   2.753   4.202 -0.4856  0.1188 -0.1452
 5775TIP3    H117331   4.966   2.789   4.216 -0.5065 -0.2793  1.1299
 5775TIP3    H217332   4.892   2.678   4.144  0.1867 -0.6026  0.9052
 5776TIP3   OH217333   4.414   1.269   3.575 -0.0422 -0.0611  0.2185
 5776TIP3    H117334   4.357   1.301   3.505  1.3086  1.2996 -0.3324
 5776TIP3    H217335   4.477   1.212   3.530 -0.6164 -1.1528  0.7433
 5777TIP3   OH217336   2.259   0.425   2.123 -0.3412 -0.6289  0.0002
 5777TIP3    H117337   2.262   0.514   2.156  1.4812 -0.6428  0.0066
 5777TIP3    H217338   2.235   0.433   2.030  0.1845 -0.0906 -0.0920
 5778TIP3   OH217339   6.146   2.332   1.892  0.7674 -0.5804  0.3378
 5778TIP3    H117340   6.152   2.418   1.851  0.4267 -0.0014  1.4496
 5778TIP3    H217341   6.173   2.270   1.824 -2.3724  0.0246 -1.6552
 5779TIP3   OH217342   0.451   1.241   2.183  0.2443  0.1992 -0.1423
 5779TIP3    H117343   0.478   1.170   2.125 -0.5129  0.0359 -0.3050
 5779TIP3    H217344   0.421   1.197   2.262  1.0330  0.4097  0.2874
 5780TIP3   OH217345   5.203   4.344   4.767 -0.4218 -0.6670  0.6996
 5780TIP3    H117346   5.135   4.278   4.753 -1.7130  0.9678 -1.2993
 5780TIP3    H217347   5.261   4.335   4.691  0.2756 -0.5154  1.2073
 5781TIP3   OH217348   3.689   3.305   3.346  0.2176 -0.2838 -0.6706
 5781TIP3    H117349   3.696   3.263   3.432  0.4172  1.1984  0.0558
 5781TIP3    H217350   3.755   3.260   3.292  0.8166 -0.5299  0.2403
 5782TIP3   OH217351   5.370   1.290   0.191 -0.2879 -0.0447 -0.4068
 5782TIP3    H117352   5.349   1.374   0.150  0.5840 -0.4726 -1.8082
 5782TIP3    H217353   5.431   1.248   0.130  1.1849 -0.6807  1.4057
 5783TIP3   OH217354   2.579   5.510   3.226 -0.1067 -0.8131 -0.3981
 5783TIP3    H117355   2.490   5.514   3.191 -1.1241 -0.9734  1.9987
 5783TIP3    H217356   2.616   5.596   3.208 -0.8235 -0.6507 -1.1729
 5784TIP3   OH217357   0.613   2.176   2.488  0.2074 -0.3706 -0.3207
 5784TIP3    H117358   0.526   2.136   2.494  0.0049 -0.1195 -1.3297
 5784TIP3    H217359   0.669   2.105   2.455  0.0897 -0.1606 -0.9910
 5785TIP3   OH217360   2.037   2.022   5.131  0.0163 -0.2310  0.3401
 5785TIP3    H117361   2.107   2.035   5.068  0.0243 -1.4000  0.0835
 5785TIP3    H217362   2.045   2.095   5.192  0.8206  0.1939 -0.2632
 5786TIP3   OH217363   0.161   1.276   4.088  0.8269 -0.4840 -0.6921
 5786TIP3    H117364   0.089   1.297   4.148 -0.7946 -1.3709 -2.2411
 5786TIP3    H217365   0.219   1.353   4.093 -0.6797  0.6617 -0.0544
 5787TIP3   OH217366   5.062   1.050   2.984  0.2693  0.2006 -0.1273
 5787TIP3    H117367   5.027   1.131   3.022  3.0369  1.2656  0.3876
 5787TIP3    H217368   5.148   1.040   3.024  1.6040 -0.9123 -3.0043
 5788TIP3   OH217369   1.310   1.119   4.034 -0.0369 -0.3943  0.2626
 5788TIP3    H117370   1.224   1.117   4.076 -0.7050  1.0891 -0.8982
 5788TIP3    H217371   1.358   1.186   4.081  0.0585 -0.3935  0.1634
 5789TIP3   OH217372   3.295   0.241   2.690  0.4644 -0.5753  0.0360
 5789TIP3    H117373   3.214   0.279   2.724  0.0617 -0.4343 -1.0706
 5789TIP3    H217374   3.345   0.218   2.769 -0.8247 -1.0855  0.7303
 5790TIP3   OH217375   4.256   5.119   0.747  0.0368 -0.7104  0.4936
 5790TIP3    H117376   4.184   5.168   0.708 -0.2400 -1.8723 -0.5382
 5790TIP3    H217377   4.297   5.180   0.808  1.2947  1.7101 -2.5214
 5791TIP3   OH217378   5.641   4.253   0.336 -0.2876  0.0636  0.3990
 5791TIP3    H117379   5.667   4.217   0.251 -1.7142 -2.3394  0.8977
 5791TIP3    H217380   5.723   4.264   0.384  0.3363 -1.1554 -0.3477
 5792TIP3   OH217381   1.563   1.419   0.608 -0.1624 -0.5654 -0.2619
 5792TIP3    H117382   1.543   1.471   0.686  1.6565  0.4849 -0.4361
 5792TIP3    H217383   1.495   1.352   0.606  0.1692 -1.1724  2.7332
 5793TIP3   OH217384   6.294   1.354   4.626  0.2134  0.1713  0.0287
 5793TIP3    H117385   6.256   1.441   4.631 -1.6442 -0.5911  0.1722
 5793TIP3    H217386   6.219   1.295   4.637  1.3957 -1.4361 -0.2044
 5794TIP3   OH217387   1.767   2.637   2.537  0.4229 -0.0138  0.4793
 5794TIP3    H117388   1.704   2.570   2.562 -0.1646 -0.1307 -1.1826
 5794TIP3    H217389   1.714   2.715   2.518  0.9230  0.3488  0.5281
 5795TIP3   OH217390   4.414   3.084   4.733  0.4210  0.5350  0.0727
 5795TIP3    H117391   4.343   3.091   4.796 -0.4817 -0.6144 -0.7678
 5795TIP3    H217392   4.491   3.062   4.785 -0.7227 -2.5563  0.6618
 5796TIP3   OH217393   5.725   1.362   5.154 -0.1854  0.4035 -0.1919
 5796TIP3    H117394   5.656   1.296   5.149 -0.8559  1.1677 -1.7920
 5796TIP3    H217395   5.807   1.312   5.154 -0.6250 -0.4990 -2.7694
 5797TIP3   OH217396   3.095   2.819   1.996 -0.1191 -0.1959 -0.2161
 5797TIP3    H117397   3.112   2.781   2.082  1.0969 -0.3119 -0.4889
 5797TIP3    H217398   3.055   2.904   2.015 -1.0292 -0.7588  0.4307
 5798TIP3   OH217399   0.171   0.354   1.228  0.3825 -0.0659  0.6638
 5798TIP3    H117400   0.232   0.285   1.256  1.7948  0.4605 -0.9744
 5798TIP3    H217401   0.153   0.334   1.136  1.0185  1.8599  0.0796
 5799TIP3   OH217402   5.893   2.122   4.109  0.2870 -0.3304  0.1392
 5799TIP3    H117403   5.882   2.036   4.149 -0.5450  0.7042  2.3127
 5799TIP3    H217404   5.807   2.164   4.118  0.6937  0.7733 -0.8085
 5800TIP3   OH217405   1.465   3.015   0.068  0.1560  0.3607 -0.2500
 5800TIP3    H117406   1.423   3.089   0.111 -1.6808 -1.0314  0.5216
 5800TIP3    H217407   1.503   2.964   0.140  0.7997  0.1843 -0.7027
 5801TIP3   OH217408   0.641   5.004   0.751 -0.0383  0.0201  0.5566
 5801TIP3    H117409   0.670   5.065   0.684 -0.0231  0.0356  0.5769
 5801TIP3    H217410   0.658   4.917   0.714  1.0101  0.0258  0.9715
 5802TIP3   OH217411   5.176   2.295   3.594 -0.2911 -0.0091  0.3327
 5802TIP3    H117412   5.156   2.352   3.668 -0.3838  0.2817  0.0863
 5802TIP3    H217413   5.191   2.355   3.521 -1.0822 -0.3216 -0.0969
 5803TIP3   OH217414   0.678   2.911   5.072 -0.1673  0.0972  0.1376
 5803TIP3    H117415   0.617   2.849   5.111 -0.3826 -0.0442 -0.4094
 5803TIP3    H217416   0.646   2.922   4.982 -0.0412  0.8775  0.1818
 5804TIP3   OH217417   0.851   3.459   4.186  0.4691  0.4562  0.4034
 5804TIP3    H117418   0.830   3.495   4.100  1.2458  0.2569  0.1233
 5804TIP3    H217419   0.768   3.459   4.233  0.1500  1.1082 -0.1474
 5805TIP3   OH217420   4.786   2.765   3.767  0.2379 -0.0641 -0.3278
 5805TIP3    H117421   4.730   2.699   3.727  0.8120 -0.7288 -0.0472
 5805TIP3    H217422   4.736   2.846   3.761 -0.8680 -0.6919  0.1504
 5806TIP3   OH217423   4.016   5.250   0.070  0.6611 -0.6799 -0.5115
 5806TIP3    H117424   4.102   5.285   0.095  1.4334 -0.6329 -2.9466
 5806TIP3    H217425   3.955   5.321   0.088  1.7344  0.8060 -2.3406
 5807TIP3   OH217426   0.852   4.489   1.853  0.6020 -0.1896 -0.1474
 5807TIP3    H117427   0.885   4.443   1.776  0.7025 -0.1991 -0.0997
 5807TIP3    H217428   0.909   4.566   1.861  0.2470  0.0969 -0.3979
 5808TIP3   OH217429   5.099   1.737   3.204 -0.0895  0.4075  0.3232
 5808TIP3    H117430   5.176   1.751   3.149 -0.2734  2.3219  0.4708
 5808TIP3    H217431   5.127   1.675   3.271  0.9565  0.1535 -0.3363
 5809TIP3   OH217432   1.831   0.607   2.853 -0.6027 -0.2733  0.3286
 5809TIP3    H117433   1.803   0.521   2.824 -1.5260  0.0992  0.1050
 5809TIP3    H217434   1.906   0.589   2.911 -0.1712 -1.1496 -0.4830
 5810TIP3   OH217435   0.248   2.020   0.236 -0.7158  0.1135 -0.6061
 5810TIP3    H117436   0.195   1.944   0.210 -0.0757 -0.5349 -0.0465
 5810TIP3    H217437   0.297   1.990   0.313  0.3183  0.7645 -0.9923
 5811TIP3   OH217438   0.124   4.487   1.892  0.1745  0.4785 -0.3283
 5811TIP3    H117439   0.079   4.466   1.974 -0.2156 -0.8790 -0.8660
 5811TIP3    H217440   0.054   4.496   1.828  0.5026  1.1713 -0.5992
 5812TIP3   OH217441   2.552   3.312   2.847 -0.6021  0.5407 -0.1024
 5812TIP3    H117442   2.594   3.329   2.762 -0.4356  2.3246  0.3078
 5812TIP3    H217443   2.625   3.300   2.907 -0.6921  1.3572  0.1758
 5813TIP3   OH217444   4.650   5.475   2.995  0.3228  0.2684 -0.0168
 5813TIP3    H117445   4.674   5.389   2.961  0.8253  0.5529 -0.4011
 5813TIP3    H217446   4.587   5.509   2.933  1.6787  1.0341 -1.0389
 5814TIP3   OH217447   2.608   5.886   1.097 -0.1918 -0.8627 -0.7281
 5814TIP3    H117448   2.604   5.842   1.012 -2.2210 -1.7290 -0.2452
 5814TIP3    H217449   2.522   5.870   1.136  0.8241 -0.8328  1.6659
 5815TIP3   OH217450   5.000   4.786   1.383 -0.2454  0.5151 -0.1574
 5815TIP3    H117451   4.982   4.745   1.298  0.7509 -0.8314  0.2534
 5815TIP3    H217452   4.913   4.800   1.421 -0.6388 -1.1158 -0.3806
 5816TIP3   OH217453   6.263   5.959   2.950 -0.0568  0.4263 -0.4604
 5816TIP3    H117454   6.293   6.028   2.891 -0.9088  0.3927 -0.9390
 5816TIP3    H217455   6.240   5.886   2.893 -1.7443  0.6971 -0.1785
 5817TIP3   OH217456   1.093   2.848   4.627  0.4790  0.2504 -0.0642
 5817TIP3    H117457   1.117   2.756   4.613  1.2920  0.5050 -0.4194
 5817TIP3    H217458   1.170   2.897   4.597 -0.7109  1.1469 -1.8534
 5818TIP3   OH217459   5.366   3.331   2.332  0.7736  0.0874  0.1823
 5818TIP3    H117460   5.327   3.370   2.410  0.2066  0.5861 -0.3409
 5818TIP3    H217461   5.449   3.294   2.363 -0.2137 -1.2418  1.3654
 5819TIP3   OH217462   5.914   3.735   0.637  0.8653 -0.0568 -0.5890
 5819TIP3    H117463   5.980   3.675   0.671 -1.4333 -0.5772  3.6536
 5819TIP3    H217464   5.946   3.822   0.660  0.2959 -0.2982  1.2832
 5820TIP3   OH217465   4.181   5.830   1.846  0.3276  0.3895  0.4684
 5820TIP3    H117466   4.086   5.818   1.851  0.2777  0.3192 -0.4401
 5820TIP3    H217467   4.203   5.807   1.756  1.2845 -0.0870  0.8107
 5821TIP3   OH217468   2.234   1.591   0.617 -0.4911  0.6745 -0.0681
 5821TIP3    H117469   2.144   1.621   0.623 -1.4317 -1.9577  0.5316
 5821TIP3    H217470   2.274   1.616   0.700 -1.0659  0.7218  0.1988
 5822TIP3   OH217471   4.002   4.060   0.784 -0.5772  0.1678 -0.5103
 5822TIP3    H117472   3.911   4.062   0.753 -1.4485 -0.2904  1.8330
 5822TIP3    H217473   4.037   3.979   0.747 -1.7455 -0.6572  0.1150
 5823TIP3   OH217474   0.008   0.519   1.823  0.2750  0.3090  0.6899
 5823TIP3    H117475  -0.066   0.545   1.767 -0.0795 -0.6418  0.6983
 5823TIP3    H217476   0.083   0.519   1.764 -0.0327 -0.3417  0.2905
 5824TIP3   OH217477   1.945   2.629   3.531 -0.3394 -0.2647  0.2052
 5824TIP3    H117478   1.856   2.630   3.496 -0.7012 -2.8833  0.8824
 5824TIP3    H217479   2.001   2.624   3.453 -1.0024 -2.8653 -0.1747
 5825TIP3   OH217480   0.208   4.081   1.967 -0.0415  0.0625 -0.1409
 5825TIP3    H117481   0.253   4.136   2.032  0.2887  0.0243 -0.3332
 5825TIP3    H217482   0.230   3.991   1.993 -2.1719 -0.1107  1.3515
 5826TIP3   OH217483   3.034   5.304   0.003  1.0708  0.4156  0.4480
 5826TIP3    H117484   3.042   5.218  -0.038 -0.7662  0.6173 -0.4414
 5826TIP3    H217485   3.115   5.314   0.054  1.7824 -1.3832 -0.2404
 5827TIP3   OH217486   5.367   1.357   0.480 -0.0335 -0.1071  0.1273
 5827TIP3    H117487   5.388   1.313   0.398 -0.9762 -1.6950  0.6900
 5827TIP3    H217488   5.448   1.354   0.531  0.3018  0.0804 -0.3878
 5828TIP3   OH217489   0.767   0.611   0.220  0.4357 -0.2649  0.0847
 5828TIP3    H117490   0.741   0.690   0.269  0.9094 -1.1076  1.7782
 5828TIP3    H217491   0.820   0.644   0.148  1.0455  0.9517  1.0473
 5829TIP3   OH217492   3.067   5.409   0.554  0.1895 -0.1004 -0.5043
 5829TIP3    H117493   3.062   5.505   0.559 -2.6098 -0.2096  0.8556
 5829TIP3    H217494   3.158   5.389   0.572  0.6434  2.2823  0.2583
 5830TIP3   OH217495   2.295   1.953   1.218  0.0967  0.1027 -0.3665
 5830TIP3    H117496   2.330   1.880   1.167 -1.9740 -1.2853  0.0534
 5830TIP3    H217497   2.265   1.913   1.300  0.2949  1.7071  0.5357
 5831TIP3   OH217498   2.405   2.635   3.521  0.4471 -0.3299 -0.1406
 5831TIP3    H117499   2.439   2.723   3.503  0.0132  0.3997  2.2002
 5831TIP3    H217500   2.481   2.578   3.517  0.6220  0.0003 -2.3748
 5832TIP3   OH217501   0.636   2.604   1.782 -0.0656  0.0687  0.4447
 5832TIP3    H117502   0.656   2.511   1.768 -1.8135 -0.2397 -0.3597
 5832TIP3    H217503   0.624   2.639   1.694  1.4124  1.3061  0.6997
 5833TIP3   OH217504   4.443   4.357   0.676 -0.6178  0.6606 -0.3436
 5833TIP3    H117505   4.379   4.316   0.734  0.2354  0.7560  0.6951
 5833TIP3    H217506   4.490   4.420   0.732  1.1382 -0.1965 -0.7628
 5834TIP3   OH217507   4.148   5.719   0.103  0.1280 -0.1874 -0.2794
 5834TIP3    H117508   4.084   5.691   0.169 -0.4143 -0.3634 -0.8702
 5834TIP3    H217509   4.201   5.785   0.148  1.7693 -2.4181  1.3271
 5835TIP3   OH217510   2.029   2.922   0.247 -0.1180 -0.2714  0.6183
 5835TIP3    H117511   1.966   2.994   0.246 -0.6495 -0.7340  0.3634
 5835TIP3    H217512   2.108   2.960   0.286  0.2063  0.9379 -1.1029
 5836TIP3   OH217513   0.457   1.297   1.062 -0.2284  0.0962  0.3044
 5836TIP3    H117514   0.420   1.351   0.991 -0.8939 -0.2666  0.3657
 5836TIP3    H217515   0.435   1.346   1.142  2.5916  1.7617  0.2034
 5837TIP3   OH217516   1.873   3.107   4.877 -0.4572  0.2300 -0.5038
 5837TIP3    H117517   1.794   3.077   4.831 -0.6459 -0.5729  0.2996
 5837TIP3    H217518   1.875   3.054   4.957  1.1920 -0.1577 -0.7655
 5838TIP3   OH217519   1.561   0.706   4.029  0.1603  0.2073 -0.6666
 5838TIP3    H117520   1.554   0.613   4.051  4.1383  0.5446  3.4840
 5838TIP3    H217521   1.605   0.708   3.945 -0.3893 -1.6350 -1.0461
 5839TIP3   OH217522   3.204   0.578   1.933 -0.2146  0.4284 -0.0185
 5839TIP3    H117523   3.218   0.553   2.025 -0.5498 -0.4511 -0.1969
 5839TIP3    H217524   3.288   0.558   1.891  0.1420  1.4001  0.2015
 5840TIP3   OH217525   4.303   2.339   0.620  0.0059  0.0846 -0.3848
 5840TIP3    H117526   4.250   2.279   0.672  0.5834  0.2350  0.3915
 5840TIP3    H217527   4.349   2.282   0.559 -0.5696 -0.1068 -0.6535
 5841TIP3   OH217528   0.882   1.301   0.138 -0.1864  0.3199  0.3841
 5841TIP3    H117529   0.918   1.382   0.102 -0.2169 -0.0838 -0.6038
 5841TIP3    H217530   0.858   1.322   0.228  2.2856  0.6881  1.0179
 5842TIP3   OH217531   6.124   5.084   2.173 -0.4634  0.2588 -0.4793
 5842TIP3    H117532   6.165   5.008   2.213 -0.2595  0.0542 -1.0657
 5842TIP3    H217533   6.197   5.137   2.141 -0.6255  0.3423 -0.7175
 5843TIP3   OH217534   3.898   4.650   4.035 -0.3771  0.0034  0.1278
 5843TIP3    H117535   3.856   4.733   4.010  3.0877  1.1549 -2.6420
 5843TIP3    H217536   3.953   4.673   4.110 -0.2056 -0.0343  0.0141
 5844TIP3   OH217537   1.709   1.840   2.270 -0.0054  0.3139  0.2166
 5844TIP3    H117538   1.704   1.771   2.336 -0.9418 -0.0877 -0.2693
 5844TIP3    H217539   1.803   1.858   2.263  0.5044 -2.3153 -1.0814
 5845TIP3   OH217540   5.225   2.500   4.560  0.0662 -0.4806 -0.5077
 5845TIP3    H117541   5.281   2.433   4.521 -0.1697 -0.7580 -0.3707
 5845TIP3    H217542   5.275   2.532   4.636  0.3883 -0.1615 -0.8524
 5846TIP3   OH217543   4.377   1.135   0.137  0.0764 -0.1584  0.4146
 5846TIP3    H117544   4.458   1.091   0.114  0.7503  1.2784 -0.0379
 5846TIP3    H217545   4.312   1.099   0.077  1.3074  1.8371 -2.3014
 5847TIP3   OH217546   5.977   2.412   1.354 -0.7782 -0.5865  0.1957
 5847TIP3    H117547   5.952   2.359   1.429 -1.9335 -0.9859 -0.4422
 5847TIP3    H217548   6.000   2.348   1.286 -3.7538 -0.4210 -1.1216
 5848TIP3   OH217549   4.190   0.844   0.578  0.2582 -0.3285  0.0897
 5848TIP3    H117550   4.201   0.911   0.511  0.5816  0.1140  0.5744
 5848TIP3    H217551   4.111   0.796   0.552  0.0196  0.2439 -0.2579
 5849TIP3   OH217552   4.902   3.245   5.046 -0.4570 -0.6811 -0.5405
 5849TIP3    H117553   4.960   3.208   5.112  0.4288 -0.3283 -1.1146
 5849TIP3    H217554   4.838   3.295   5.097  2.8008  3.4623  0.0631
 5850TIP3   OH217555   1.945   4.438   2.630 -0.3195  0.3007 -0.7175
 5850TIP3    H117556   2.025   4.490   2.643 -0.4171  0.4607 -0.7609
 5850TIP3    H217557   1.923   4.450   2.538  0.5255 -1.0497 -1.1244
 5851TIP3   OH217558   5.592   3.976   1.422 -0.9943 -0.3864 -0.9480
 5851TIP3    H117559   5.565   3.885   1.415 -2.2874 -0.1450  0.3223
 5851TIP3    H217560   5.553   4.019   1.346  0.6400 -1.0754 -2.2270
 5852TIP3   OH217561   1.352   5.445   3.317  0.4878  0.3774 -1.0132
 5852TIP3    H117562   1.420   5.513   3.322  1.2101 -0.4204  0.8778
 5852TIP3    H217563   1.327   5.430   3.408 -2.1002  0.4661 -1.6290
 5853TIP3   OH217564   1.507   5.548   3.026  0.7121  0.1651 -0.3256
 5853TIP3    H117565   1.506   5.588   3.113  1.2412  0.1338 -0.2996
 5853TIP3    H217566   1.571   5.599   2.977  0.2854  0.2931 -0.7516
 5854TIP3   OH217567   5.678   2.354   3.886 -0.3275 -0.1277  0.4892
 5854TIP3    H117568   5.649   2.337   3.976 -0.5641  0.1755  0.4749
 5854TIP3    H217569   5.710   2.444   3.888  0.0658 -0.2643  0.3659
 5855TIP3   OH217570   5.970   3.142   3.801  0.4206  0.4017 -0.3715
 5855TIP3    H117571   5.981   3.188   3.718 -1.3631 -1.8171 -1.9489
 5855TIP3    H217572   5.876   3.131   3.810  0.6963 -1.1235  0.9686
 5856TIP3   OH217573   5.472   5.719   2.129  0.3078 -0.2438  0.2642
 5856TIP3    H117574   5.522   5.658   2.075  1.6456  0.8856  0.1824
 5856TIP3    H217575   5.443   5.787   2.068 -0.4640 -0.3488  0.5021
 5857TIP3   OH217576   6.167   2.095   1.347  0.2492  0.0015  0.3198
 5857TIP3    H117577   6.118   2.116   1.427  1.4741  0.7316  0.9001
 5857TIP3    H217578   6.104   2.047   1.293 -0.9153  0.3754  1.2930
 5858TIP3   OH217579   3.827   1.623   4.121 -0.0876 -0.0583  0.1947
 5858TIP3    H117580   3.755   1.561   4.134  0.5335 -1.0740 -1.0214
 5858TIP3    H217581   3.839   1.628   4.026  0.7610  0.9070  0.3257
 5859TIP3   OH217582   2.754   2.730   0.105 -0.2448  0.0797 -0.0642
 5859TIP3    H117583   2.785   2.641   0.122 -2.2415 -0.6508 -0.0684
 5859TIP3    H217584   2.717   2.726   0.017 -3.8386 -0.1523  1.3153
 5860TIP3   OH217585   4.469   0.414   3.381  0.5295  0.3017  0.2188
 5860TIP3    H117586   4.415   0.336   3.372 -2.9964  2.5514 -0.0712
 5860TIP3    H217587   4.500   0.433   3.292 -0.3467  0.3301 -0.0898
 5861TIP3   OH217588   3.121   2.498   1.338 -0.2337 -0.2135 -0.0415
 5861TIP3    H117589   3.157   2.586   1.341 -0.4996 -0.1098  2.8574
 5861TIP3    H217590   3.037   2.508   1.292  1.2688  0.2955 -2.9474
 5862TIP3   OH217591   2.962   2.733   2.535 -0.0010 -0.6670  0.4560
 5862TIP3    H117592   3.002   2.819   2.527 -1.0712 -0.2501 -0.6244
 5862TIP3    H217593   2.973   2.710   2.627  1.8513 -0.1571  0.3921
 5863TIP3   OH217594   3.898   0.395   2.643 -0.2004 -0.3952  0.1596
 5863TIP3    H117595   3.836   0.467   2.629  0.4230  0.4343  1.4381
 5863TIP3    H217596   3.893   0.343   2.563 -0.2727  1.3726 -1.0427
 5864TIP3   OH217597   2.357   3.513   0.537  0.3125 -0.3088  0.1219
 5864TIP3    H117598   2.322   3.426   0.521 -0.6185  0.1614 -0.4822
 5864TIP3    H217599   2.452   3.502   0.536  0.2124 -1.1510 -0.8622
 5865TIP3   OH217600   4.515   0.537   1.933  0.4510  0.2643 -0.0681
 5865TIP3    H117601   4.609   0.554   1.923  0.1040  3.0827  0.5853
 5865TIP3    H217602   4.484   0.524   1.843  1.3211  0.2452 -0.3826
 5866TIP3   OH217603   3.757   4.505   4.954 -0.1796 -0.2148  0.2358
 5866TIP3    H117604   3.789   4.499   4.864 -1.6214  1.1894 -0.4133
 5866TIP3    H217605   3.681   4.563   4.949 -0.9375 -0.9459  2.1981
 5867TIP3   OH217606   0.840   1.813   2.999 -0.6516 -0.9000  0.0305
 5867TIP3    H117607   0.871   1.834   3.088  0.4767 -1.3961 -0.2364
 5867TIP3    H217608   0.913   1.837   2.942 -1.8864  0.7991 -0.9468
 5868TIP3   OH217609   2.991   5.032   0.451 -0.3207 -0.1137  0.3445
 5868TIP3    H117610   3.030   5.044   0.538 -0.3555 -2.8849  0.8457
 5868TIP3    H217611   2.896   5.036   0.466 -0.3327 -0.8381  0.5173
 5869TIP3   OH217612   2.544   4.481   1.786 -0.3689  0.4238  0.0844
 5869TIP3    H117613   2.574   4.453   1.699  2.4545  1.9686  0.4387
 5869TIP3    H217614   2.453   4.508   1.772 -0.0721  0.4081 -2.3514
 5870TIP3   OH217615   1.411   0.897   2.869 -0.2995 -0.0066  0.7136
 5870TIP3    H117616   1.441   0.810   2.842 -0.6839 -0.1226  0.6573
 5870TIP3    H217617   1.492   0.945   2.888 -0.1010 -0.6331  1.5489
 5871TIP3   OH217618   0.996   2.466   1.777  0.5286  0.3421  0.1708
 5871TIP3    H117619   0.985   2.381   1.820 -0.8598 -0.0428 -0.8586
 5871TIP3    H217620   1.087   2.467   1.747  1.1847  0.1378  2.0176
 5872TIP3   OH217621   5.613   0.013   2.574  0.3161 -0.2580  0.0115
 5872TIP3    H117622   5.526   0.011   2.533  0.3624 -0.3217 -0.0844
 5872TIP3    H217623   5.624   0.104   2.602  0.3608 -0.1725 -0.2855
 5873TIP3   OH217624   4.313   4.185   3.390  0.0847  0.0394  0.3486
 5873TIP3    H117625   4.221   4.196   3.366  0.0105  0.5154  0.8225
 5873TIP3    H217626   4.339   4.103   3.349 -0.6661 -0.3018  0.5270
 5874TIP3   OH217627   0.873   0.202   2.545 -0.4026  0.1891  0.2212
 5874TIP3    H117628   0.780   0.222   2.548 -0.1782  1.1718  1.7115
 5874TIP3    H217629   0.907   0.230   2.631  1.5613  1.4311 -0.8793
 5875TIP3   OH217630   5.263   2.043  -0.007  0.1325  0.0452 -0.2361
 5875TIP3    H117631   5.344   2.094  -0.007 -0.1260  0.5108 -1.8107
 5875TIP3    H217632   5.197   2.103   0.028  0.2835 -0.0157  0.1550
 5876TIP3   OH217633   1.514   0.213   3.176  0.5156 -0.3106  0.1589
 5876TIP3    H117634   1.425   0.186   3.152 -0.1208  1.2431  0.6088
 5876TIP3    H217635   1.538   0.155   3.248  0.4742 -1.7354 -0.9513
 5877TIP3   OH217636   4.156   0.013   4.572  0.4204  0.0154 -0.5556
 5877TIP3    H117637   4.249   0.034   4.581  1.1417 -2.4895 -1.2408
 5877TIP3    H217638   4.152  -0.041   4.493 -1.5444 -0.3766 -0.2313
 5878TIP3   OH217639   5.579   2.610   0.021  0.1393  0.1697  0.8798
 5878TIP3    H117640   5.552   2.520   0.003  1.3016 -0.0956  0.4116
 5878TIP3    H217641   5.502   2.649   0.064 -1.2834 -0.3170 -1.0820
 5879TIP3   OH217642   4.754   2.595   1.629 -0.2466 -0.3263 -0.0796
 5879TIP3    H117643   4.831   2.563   1.676 -0.3943 -1.9567 -0.8858
 5879TIP3    H217644   4.681   2.579   1.689 -0.1744 -0.3818 -0.0069
 5880TIP3   OH217645   1.846   0.920   1.372  0.3059  0.3003 -0.3460
 5880TIP3    H117646   1.808   0.999   1.411 -0.5941  0.0239 -0.6351
 5880TIP3    H217647   1.870   0.865   1.446 -0.7929  0.0533 -0.1648
 5881TIP3   OH217648   0.721   4.803   2.593 -0.1488  0.3246  0.3338
 5881TIP3    H117649   0.777   4.731   2.622 -1.6210 -1.2815 -0.6219
 5881TIP3    H217650   0.772   4.848   2.526  0.6696 -0.0144  0.7187
 5882TIP3   OH217651   1.343   3.334   1.754 -0.4975  0.1671 -0.4477
 5882TIP3    H117652   1.332   3.239   1.761 -0.9291  0.2274 -0.2621
 5882TIP3    H217653   1.376   3.347   1.665  0.2768 -0.2108 -0.2228
 5883TIP3   OH217654   2.781   1.695   4.442 -0.1494  0.6523  0.4383
 5883TIP3    H117655   2.695   1.711   4.403 -0.0433 -0.4033 -0.2710
 5883TIP3    H217656   2.843   1.740   4.385  0.0455 -1.2276 -0.9249
 5884TIP3   OH217657   1.357   3.553   2.666 -0.1134 -0.0923 -0.3043
 5884TIP3    H117658   1.342   3.556   2.571  1.5102  0.2863 -0.5820
 5884TIP3    H217659   1.451   3.566   2.676  0.0202 -1.7649  1.2877
 5885TIP3   OH217660   3.320   3.838   1.066 -1.0093  0.1942  0.0581
 5885TIP3    H117661   3.306   3.751   1.103  0.3844 -0.3351 -0.5926
 5885TIP3    H217662   3.398   3.872   1.112 -1.0385  0.7483 -0.2900
 5886TIP3   OH217663   4.238   2.607   0.119  0.7276  0.0979  0.4297
 5886TIP3    H117664   4.202   2.534   0.069 -0.3967  1.3825 -0.7482
 5886TIP3    H217665   4.250   2.573   0.207  1.7032 -1.9230 -0.4282
 5887TIP3   OH217666   1.938   4.997   1.836 -0.1037 -0.1551  0.5771
 5887TIP3    H117667   2.020   5.044   1.827 -0.3959  0.0083 -1.7740
 5887TIP3    H217668   1.944   4.954   1.921  1.9400  0.7151  0.9135
 5888TIP3   OH217669   0.358   2.123   2.399  0.4366 -0.1636  0.6920
 5888TIP3    H117670   0.270   2.160   2.409  0.4796 -0.0106  0.5203
 5888TIP3    H217671   0.406   2.191   2.352 -0.0504 -1.2719 -1.5336
 5889TIP3   OH217672   3.475   4.437   0.184  0.4114 -0.2751  0.4357
 5889TIP3    H117673   3.412   4.369   0.204  1.1161 -2.0831 -2.8616
 5889TIP3    H217674   3.445   4.475   0.101  2.8592 -0.2668 -0.5330
 5890TIP3   OH217675   4.967   2.191   4.986 -0.3354 -0.0210 -0.1976
 5890TIP3    H117676   4.918   2.128   4.934 -0.3560 -1.1747  1.1580
 5890TIP3    H217677   4.917   2.272   4.979  0.2174  0.1634 -2.7635
 5891TIP3   OH217678   5.580   0.637   1.456  0.4316  0.0343  0.0035
 5891TIP3    H117679   5.621   0.688   1.527 -1.0336  0.4356  0.5890
 5891TIP3    H217680   5.631   0.661   1.379  0.4039  1.6896  0.4389
 5892TIP3   OH217681   0.160   4.221   0.745  0.0634 -0.0975  0.2019
 5892TIP3    H117682   0.212   4.274   0.806  0.4150 -0.2899  0.0711
 5892TIP3    H217683   0.096   4.283   0.709  2.0928  0.9214 -1.8902
 5893TIP3   OH217684   6.228   4.924   0.120 -0.0492  0.0438 -0.1770
 5893TIP3    H117685   6.211   5.013   0.151 -2.8688 -0.2536 -0.5827
 5893TIP3    H217686   6.284   4.937   0.043 -0.6320  1.5333 -0.4059
 5894TIP3   OH217687   4.920   5.941   3.484 -0.2165  0.1728  0.6788
 5894TIP3    H117688   4.901   5.896   3.402  0.8414  0.9232  0.0051
 5894TIP3    H217689   4.986   5.888   3.527 -1.0006 -0.3922  1.2212
 5895TIP3   OH217690   2.896   2.267   1.337  0.2361  0.2467  0.2178
 5895TIP3    H117691   2.978   2.217   1.340 -0.1859 -0.5250 -0.6914
 5895TIP3    H217692   2.899   2.312   1.253  0.1295  0.9307  0.5759
 5896TIP3   OH217693   3.883   3.070   1.706  0.2053  0.0540  0.2002
 5896TIP3    H117694   3.800   3.069   1.753 -0.6468 -0.8590 -1.2404
 5896TIP3    H217695   3.913   2.979   1.710 -0.2500 -0.2015 -1.5872
 5897TIP3   OH217696   1.436   3.618   3.236  0.5486 -0.0488 -0.6739
 5897TIP3    H117697   1.395   3.533   3.216  0.7377  0.0117 -1.3433
 5897TIP3    H217698   1.460   3.612   3.328  0.6604 -0.7660 -0.7438
 5898TIP3   OH217699   5.758   1.961   4.886  0.2146  0.5060  0.2712
 5898TIP3    H117700   5.675   1.939   4.845 -0.1549  0.5534  0.9671
 5898TIP3    H217701   5.735   1.985   4.976  0.7734  2.2160  0.0044
 5899TIP3   OH217702   3.980   3.104   2.078  0.1240 -0.2350  0.0474
 5899TIP3    H117703   4.011   3.146   1.997 -1.7144  1.8965  0.3339
 5899TIP3    H217704   3.924   3.033   2.048  0.7291 -0.4952 -0.5099
 5900TIP3   OH217705   1.779   3.363   0.023  0.1725  0.0842 -0.5311
 5900TIP3    H117706   1.704   3.422   0.023 -0.4648 -0.7077 -0.9553
 5900TIP3    H217707   1.843   3.405   0.081 -0.7890  0.5171  0.2342
 5901TIP3   OH217708   5.074   3.939   3.797  0.3911  0.3934  0.3125
 5901TIP3    H117709   5.103   4.005   3.861 -0.1851 -0.5933  1.6481
 5901TIP3    H217710   5.084   3.856   3.843  0.1743 -0.3777 -0.9956
 5902TIP3   OH217711   5.930   1.395   1.884  0.1290 -0.0549 -0.2124
 5902TIP3    H117712   5.979   1.477   1.880 -0.0592  0.0167 -1.3614
 5902TIP3    H217713   5.996   1.329   1.905  0.3203  0.3424  0.4892
 5903TIP3   OH217714   2.941   0.546   0.992 -0.0735  0.9479 -0.6285
 5903TIP3    H117715   2.922   0.492   1.068 -0.4309  1.0133 -0.6683
 5903TIP3    H217716   2.894   0.503   0.920  2.7665 -0.9348 -1.5167
 5904TIP3   OH217717   3.829   3.890   2.038  0.0803 -0.0251  0.2154
 5904TIP3    H117718   3.854   3.981   2.049 -1.1217  0.0589  2.9869
 5904TIP3    H217719   3.909   3.847   2.006  1.5068  1.5058  1.5353
 5905TIP3   OH217720   5.855   4.843   4.341 -0.3460 -0.2016 -0.0328
 5905TIP3    H117721   5.874   4.819   4.431  0.4092  1.6904  0.3603
 5905TIP3    H217722   5.843   4.938   4.343  3.1969  0.4993 -2.4385
 5906TIP3   OH217723   2.996   1.517   1.789  0.3082  0.1529  0.2330
 5906TIP3    H117724   3.059   1.493   1.856  1.3982 -0.7315 -1.0759
 5906TIP3    H217725   2.944   1.438   1.775 -1.6354  1.0494  1.7829
 5907TIP3   OH217726   4.918   4.826   1.957  0.0534  0.1963 -0.2906
 5907TIP3    H117727   4.850   4.809   2.021 -0.7210  1.7783 -0.6490
 5907TIP3    H217728   4.976   4.750   1.963 -1.8048 -1.2957 -0.0948
 5908TIP3   OH217729   0.180   3.222   3.283  0.7903  0.0677 -0.0615
 5908TIP3    H117730   0.248   3.164   3.248 -0.1601 -0.6926 -0.7186
 5908TIP3    H217731   0.205   3.237   3.374  1.3925 -0.8830 -0.0544
 5909TIP3   OH217732   0.025   3.163   1.215  0.4855  0.0487 -0.0066
 5909TIP3    H117733   0.074   3.108   1.276  1.6402  0.6544 -0.3672
 5909TIP3    H217734  -0.065   3.131   1.221  0.6424 -0.1419  1.7361
 5910TIP3   OH217735   1.234   5.901   1.789  0.4758 -0.0307  0.4794
 5910TIP3    H117736   1.182   5.823   1.807 -0.3258  0.6691  1.2943
 5910TIP3    H217737   1.324   5.873   1.807  0.4904 -1.3895 -1.4195
 5911TIP3   OH217738   1.576   3.150   4.503 -0.2086  0.6931 -0.6729
 5911TIP3    H117739   1.662   3.109   4.498  1.0024  3.1733 -1.4229
 5911TIP3    H217740   1.546   3.154   4.413 -0.4683  1.1579 -0.5671
 5912TIP3   OH217741   3.714   2.416   3.562  0.2228 -0.7865  0.1745
 5912TIP3    H117742   3.648   2.485   3.554  0.1393 -0.9129 -0.2664
 5912TIP3    H217743   3.779   2.452   3.622 -0.0059 -0.4712  0.2371
 5913TIP3   OH217744   4.323   3.459   4.198 -0.8179 -0.0281  0.0779
 5913TIP3    H117745   4.236   3.436   4.168 -0.7438 -1.6646  1.0358
 5913TIP3    H217746   4.382   3.422   4.131 -0.8097 -0.1028  0.1265
 5914TIP3   OH217747   3.889   0.264   4.202  0.3911  0.0638 -0.5626
 5914TIP3    H117748   3.878   0.241   4.110 -0.7140 -0.7906 -0.2380
 5914TIP3    H217749   3.832   0.203   4.249  3.0460 -1.4169  0.9342
 5915TIP3   OH217750   1.994   2.196   0.757  0.5699  0.0532  0.0276
 5915TIP3    H117751   2.042   2.116   0.738  1.9301  1.2709 -2.1348
 5915TIP3    H217752   1.902   2.171   0.750  0.9684 -1.2669 -0.8763
 5916TIP3   OH217753   4.220   5.509   4.681 -0.2275  0.4240 -0.5427
 5916TIP3    H117754   4.177   5.429   4.711 -0.9557  1.2426  0.6940
 5916TIP3    H217755   4.248   5.490   4.592 -2.4997 -0.4056 -1.1345
 5917TIP3   OH217756   2.265   5.617   0.658  1.0496 -0.3141  0.5308
 5917TIP3    H117757   2.180   5.581   0.635  0.4131  1.7389 -0.5445
 5917TIP3    H217758   2.253   5.654   0.746  0.4275  1.0817 -0.1166
 5918TIP3   OH217759   5.665   2.659   3.541  0.3141  0.2684  0.9936
 5918TIP3    H117760   5.643   2.577   3.586  0.0972  0.4134  1.1480
 5918TIP3    H217761   5.637   2.728   3.600  0.3785  0.4580  0.8044
 5919TIP3   OH217762   5.955   4.097   3.958  0.4193 -0.5554  0.3900
 5919TIP3    H117763   5.937   4.046   4.037  0.3602 -0.5497  0.3804
 5919TIP3    H217764   5.916   4.183   3.976  0.3156 -0.5855  0.3148
 5920TIP3   OH217765   0.437   5.414   3.769  0.5032  0.3811  0.0640
 5920TIP3    H117766   0.488   5.362   3.830  0.4638 -0.7821 -0.8595
 5920TIP3    H217767   0.347   5.382   3.778  0.6548 -0.5242 -1.2788
 5921TIP3   OH217768   2.878   3.601   2.054  0.0478 -0.0850  0.3696
 5921TIP3    H117769   2.856   3.542   1.982 -0.6373  0.0135  0.4912
 5921TIP3    H217770   2.846   3.686   2.026 -1.2936 -0.2668  1.2723
 5922TIP3   OH217771   4.169   2.975   0.509 -0.0598  0.2244 -0.3582
 5922TIP3    H117772   4.084   2.983   0.552  0.3301 -0.5931  0.6188
 5922TIP3    H217773   4.181   2.881   0.498  0.2949  0.3840 -1.3782
 5923TIP3   OH217774   2.538   2.881   2.170 -0.4820  0.5840 -0.3516
 5923TIP3    H117775   2.471   2.877   2.238  0.4412 -0.4063  0.5320
 5923TIP3    H217776   2.515   2.958   2.118 -1.2432  1.3234  1.0360
 5924TIP3   OH217777   1.471   1.250   1.059  0.2499 -0.2195  0.2431
 5924TIP3    H117778   1.548   1.269   1.006 -1.1946  1.0741 -1.5202
 5924TIP3    H217779   1.506   1.220   1.143  2.6497  0.4011 -0.4711
 5925TIP3   OH217780   0.730   1.445   3.734  0.4205 -0.1397 -0.4044
 5925TIP3    H117781   0.780   1.363   3.743 -0.0007 -0.2961  0.6754
 5925TIP3    H217782   0.681   1.434   3.653 -0.4790 -1.4553  0.2681
 5926TIP3   OH217783   1.430   0.571   3.502 -0.0336  0.4900 -0.1269
 5926TIP3    H117784   1.367   0.500   3.514  0.6504 -0.0602  0.3044
 5926TIP3    H217785   1.387   0.631   3.442 -0.2293 -0.7841 -1.3142
 5927TIP3   OH217786   2.538   3.395   0.257  0.0357 -0.3900  0.0691
 5927TIP3    H117787   2.523   3.438   0.341 -0.1413 -0.8124  0.2540
 5927TIP3    H217788   2.543   3.302   0.278  1.5456 -0.3884 -0.1690
 5928TIP3   OH217789   4.687   5.156   4.201  0.6321 -0.4379 -0.1378
 5928TIP3    H117790   4.682   5.145   4.106  2.5901 -0.6756 -0.2438
 5928TIP3    H217791   4.628   5.229   4.220  0.3618 -0.2662 -1.5522
 5929TIP3   OH217792   1.252   0.707   1.020 -0.3405  0.5381 -0.7935
 5929TIP3    H117793   1.239   0.722   1.114  1.8342  0.0240 -0.3574
 5929TIP3    H217794   1.313   0.775   0.993  0.1781 -0.1884 -1.5062
 5930TIP3   OH217795   2.456   5.094   2.581 -0.5545  0.0632  0.3074
 5930TIP3    H117796   2.482   5.025   2.642 -2.4398  0.5000  1.7029
 5930TIP3    H217797   2.505   5.076   2.501  1.7727 -0.7335  1.8276
 5931TIP3   OH217798   4.631   1.589   3.350 -0.2859 -0.2067  0.6375
 5931TIP3    H117799   4.696   1.604   3.419  2.7926 -0.0893 -2.0389
 5931TIP3    H217800   4.616   1.676   3.312  1.1744 -0.7189 -1.2825
 5932TIP3   OH217801   3.472   2.998   3.292  0.0242  0.0218  0.1013
 5932TIP3    H117802   3.415   3.074   3.308 -0.3228 -0.0562 -0.7187
 5932TIP3    H217803   3.551   3.016   3.343 -0.9354 -0.1165  1.7034
 5933TIP3   OH217804   0.964   3.903   2.859 -0.2105  0.0634  0.6525
 5933TIP3    H117805   1.042   3.847   2.860 -1.4298 -1.7442  0.0520
 5933TIP3    H217806   0.932   3.900   2.949 -0.9602 -1.2924  0.3696
 5934TIP3   OH217807   0.892   5.636   1.490  0.1212 -0.1550 -0.7515
 5934TIP3    H117808   0.949   5.574   1.536  1.0541  1.6381  0.6178
 5934TIP3    H217809   0.922   5.722   1.518 -0.8955  0.9722 -2.8706
 5935TIP3   OH217810   4.700   2.964   1.266 -0.7299  0.5444  0.0259
 5935TIP3    H117811   4.628   3.026   1.277 -0.6062  0.5639  0.7607
 5935TIP3    H217812   4.657   2.879   1.255 -0.8802  0.6329 -0.0673
 5936TIP3   OH217813   6.255   2.217   4.572  0.2681  0.1840 -1.2929
 5936TIP3    H117814   6.165   2.232   4.542 -1.1335 -2.0142  1.3625
 5936TIP3    H217815   6.280   2.135   4.531 -0.9437 -1.8231  1.6379
 5937TIP3   OH217816   4.824   2.146   2.685 -0.0882 -0.0207  0.3386
 5937TIP3    H117817   4.876   2.177   2.611  1.2326  1.5937  1.8451
 5937TIP3    H217818   4.734   2.160   2.659  0.2983 -0.4555 -1.3416
 5938TIP3   OH217819  -0.002   2.683   0.074  0.4024 -0.0396  0.7023
 5938TIP3    H117820   0.032   2.630   0.001 -0.8111  0.0864  0.0105
 5938TIP3    H217821   0.043   2.767   0.065  0.2613 -0.0227  0.0793
 5939TIP3   OH217822   3.411   3.018   4.568 -0.1721  0.1503 -0.5311
 5939TIP3    H117823   3.383   3.066   4.646 -0.3390  0.6545 -0.8971
 5939TIP3    H217824   3.505   3.006   4.579 -0.5699 -2.1252  1.0302
 5940TIP3   OH217825   4.880   2.926   2.412  0.0648 -0.0172 -0.0234
 5940TIP3    H117826   4.925   2.994   2.462 -2.4459  1.5903  0.1937
 5940TIP3    H217827   4.827   2.880   2.477 -0.6842 -0.0943 -0.6769
 5941TIP3   OH217828   3.951   5.127   4.380 -0.5759  0.3330 -0.5014
 5941TIP3    H117829   4.020   5.077   4.425 -0.7456  0.0558 -0.5500
 5941TIP3    H217830   3.928   5.197   4.442 -2.5180 -1.4439  0.9239
 5942TIP3   OH217831   3.980   3.296   1.841  0.1147  0.4555  0.1906
 5942TIP3    H117832   3.940   3.237   1.777  0.2695  1.7498 -1.1641
 5942TIP3    H217833   3.906   3.331   1.891 -0.0949  0.1362  0.1062
 5943TIP3   OH217834   4.536   5.907   0.603 -0.6536  0.3567 -0.5639
 5943TIP3    H117835   4.526   5.920   0.697  1.5853  0.7860 -0.3262
 5943TIP3    H217836   4.463   5.954   0.564 -0.6656  1.6208  0.8933
 5944TIP3   OH217837   4.395   1.013   1.230 -0.6823 -0.3450 -0.0153
 5944TIP3    H117838   4.434   1.014   1.317 -1.3493 -1.5590  0.3291
 5944TIP3    H217839   4.393   0.920   1.206 -0.4198 -0.0353 -1.3793
 5945TIP3   OH217840   0.347   5.514   2.722 -0.2472 -0.0051 -0.3415
 5945TIP3    H117841   0.274   5.468   2.763 -0.7676  0.1316 -1.0979
 5945TIP3    H217842   0.361   5.591   2.778  1.5253 -1.6955  1.7332
 5946TIP3   OH217843   2.068   0.347   0.998 -0.1269  0.5475  0.3358
 5946TIP3    H117844   2.142   0.358   0.938 -1.8886  0.4619 -2.0051
 5946TIP3    H217845   2.000   0.405   0.962 -1.3746  0.2558  2.1190
 5947TIP3   OH217846   3.732   1.399   3.038  0.3000  0.1902 -0.1014
 5947TIP3    H117847   3.827   1.388   3.047 -0.0367 -2.9278  0.6029
 5947TIP3    H217848   3.722   1.453   2.960  2.6264  0.4391 -0.3051
 5948TIP3   OH217849   1.547   0.648   1.578  0.2376 -0.0879 -0.3600
 5948TIP3    H117850   1.574   0.556   1.580  2.2515  0.4203 -1.6259
 5948TIP3    H217851   1.604   0.690   1.643 -0.8749  0.2528  0.4246
 5949TIP3   OH217852   4.143   3.022   1.511  0.5298 -0.3679  0.0038
 5949TIP3    H117853   4.128   2.935   1.546  0.3414  0.1103  1.1405
 5949TIP3    H217854   4.067   3.040   1.456 -1.0053  0.2965  2.2460
 5950TIP3   OH217855   6.366   5.604   2.185  0.4323  0.1483 -0.6841
 5950TIP3    H117856   6.284   5.561   2.209  0.4020  0.0576 -0.9406
 5950TIP3    H217857   6.344   5.697   2.178 -0.1074 -0.0883 -2.6223
 5951TIP3   OH217858   4.646   4.560   1.386  0.8117  0.0153  0.1370
 5951TIP3    H117859   4.578   4.511   1.434  0.1249 -0.9347 -1.7173
 5951TIP3    H217860   4.727   4.514   1.407  0.4431 -0.7258 -0.0158
 5952TIP3   OH217861   5.717   1.348   1.706 -0.4621  0.4115  0.4412
 5952TIP3    H117862   5.654   1.348   1.778 -0.9116  1.5246  0.0786
 5952TIP3    H217863   5.803   1.350   1.749 -0.7298  2.7913  1.0157
 5953TIP3   OH217864   0.558   3.392   3.401  0.0789  0.5034  0.0930
 5953TIP3    H117865   0.645   3.354   3.385  0.2546  1.3912 -1.1832
 5953TIP3    H217866   0.508   3.371   3.323 -1.4854 -1.5728  1.5442
 5954TIP3   OH217867   2.423   3.396   2.428  0.3090  0.1638  0.4310
 5954TIP3    H117868   2.415   3.404   2.333 -0.0636 -0.5879  0.3908
 5954TIP3    H217869   2.504   3.443   2.449  1.2066 -0.9241 -0.4473
 5955TIP3   OH217870   0.361   2.390   2.505 -0.3314  0.4318 -0.2149
 5955TIP3    H117871   0.281   2.387   2.558  0.4111  0.5016  0.9338
 5955TIP3    H217872   0.432   2.379   2.568  0.6151  1.2330 -1.1065
 5956TIP3   OH217873   3.712   6.002   2.217  0.4055 -0.2308  0.3363
 5956TIP3    H117874   3.801   5.969   2.201  0.7440 -0.4248  2.3360
 5956TIP3    H217875   3.677   5.944   2.286 -0.1361  1.6240  1.7026
 5957TIP3   OH217876   0.747   5.512   0.223 -0.5154 -0.0860 -0.3118
 5957TIP3    H117877   0.674   5.477   0.274 -1.0443  1.7529  0.2853
 5957TIP3    H217878   0.709   5.584   0.173  0.6436  0.1035 -0.9628
 5958TIP3   OH217879   3.218   1.728   1.715 -0.1861 -0.2973 -0.1508
 5958TIP3    H117880   3.148   1.782   1.752  0.2741  1.1177 -1.2422
 5958TIP3    H217881   3.185   1.703   1.629  0.3395 -0.2552 -0.3648
 5959TIP3   OH217882   4.904   4.455   3.989 -0.4117 -0.2808  0.4146
 5959TIP3    H117883   4.965   4.503   3.933  1.1480 -1.3386  1.1562
 5959TIP3    H217884   4.917   4.493   4.076 -1.7849  0.3684  0.3621
 5960TIP3   OH217885   4.359   1.099   4.097 -0.0096  0.2658 -0.4652
 5960TIP3    H117886   4.446   1.081   4.060  0.4318  1.5023 -0.0864
 5960TIP3    H217887   4.312   1.143   4.026 -0.7000 -1.2864 -1.0116
 5961TIP3   OH217888   2.650   1.831   3.565 -0.2259  0.4911  0.0793
 5961TIP3    H117889   2.707   1.797   3.496 -0.5789  0.3966 -0.1656
 5961TIP3    H217890   2.601   1.902   3.523  0.0613  0.8996  0.4205
 5962TIP3   OH217891   3.436   5.754   4.089 -0.0160 -0.0080  0.0138
 5962TIP3    H117892   3.511   5.697   4.100  1.0251  1.0301 -1.3052
 5962TIP3    H217893   3.435   5.809   4.167  0.7440  0.1231 -0.0672
 5963TIP3   OH217894   1.454   1.450   4.717 -0.3814 -0.4971 -0.2254
 5963TIP3    H117895   1.443   1.504   4.795  0.4097 -0.3388 -0.2219
 5963TIP3    H217896   1.438   1.510   4.644 -0.8704 -0.5863 -0.1946
 5964TIP3   OH217897   1.332   0.217   4.558 -0.4305 -0.5522  0.0144
 5964TIP3    H117898   1.396   0.288   4.562  0.0462 -0.9866  0.0222
 5964TIP3    H217899   1.249   0.259   4.583 -0.2465  0.1163 -0.4580
 5965TIP3   OH217900   2.878   4.604   3.805  0.0030 -0.3408  0.3384
 5965TIP3    H117901   2.893   4.678   3.747  0.8662 -0.6818  0.0995
 5965TIP3    H217902   2.787   4.612   3.832  0.1856  1.0071  0.6116
 5966TIP3   OH217903   3.920   3.674   2.262 -0.2280 -0.5531 -0.2981
 5966TIP3    H117904   4.001   3.697   2.307 -0.5571  0.9296 -0.4054
 5966TIP3    H217905   3.944   3.671   2.169  0.4708 -3.6971 -0.1309
 5967TIP3   OH217906   4.251   0.483   4.774  0.0788 -0.0056 -0.6632
 5967TIP3    H117907   4.283   0.446   4.856  2.1748 -0.1560 -1.4861
 5967TIP3    H217908   4.315   0.454   4.708 -2.1041 -0.7884 -2.5555
 5968TIP3   OH217909   4.663   2.163   3.112 -0.0038  0.1087 -0.4947
 5968TIP3    H117910   4.661   2.107   3.035 -0.1169  1.0248 -1.1785
 5968TIP3    H217911   4.752   2.154   3.146  0.0854 -0.1989 -0.8056
 5969TIP3   OH217912   3.112   4.970   0.184  0.0428  0.1421 -0.1736
 5969TIP3    H117913   3.042   4.977   0.249 -1.1439 -3.1074 -0.8664
 5969TIP3    H217914   3.192   4.994   0.230 -1.0142 -0.1648  1.9078
 5970TIP3   OH217915   1.737   3.866   0.820 -0.2521  0.2447  0.7111
 5970TIP3    H117916   1.817   3.814   0.834 -0.1825  0.2642  0.3755
 5970TIP3    H217917   1.676   3.833   0.886 -0.5537 -0.9689 -0.1407
 5971TIP3   OH217918   0.234   1.478   0.016 -0.2595  0.2194  0.2802
 5971TIP3    H117919   0.299   1.522   0.071 -1.2699 -0.5673  2.1770
 5971TIP3    H217920   0.285   1.415  -0.035  0.7798  1.3961 -0.1993
 5972TIP3   OH217921   3.316   3.480   2.666  0.4982 -0.5316  0.5245
 5972TIP3    H117922   3.355   3.446   2.585  0.3570 -1.2745  0.7630
 5972TIP3    H217923   3.289   3.402   2.714  0.0476 -0.0703  1.0267
 5973TIP3   OH217924   4.963   2.596   3.058 -0.5538 -0.3433  0.3550
 5973TIP3    H117925   4.947   2.516   3.109 -1.2990 -0.2411  0.2994
 5973TIP3    H217926   5.006   2.566   2.978  1.2227 -0.4388  1.3012
 5974TIP3   OH217927   0.743   5.219   0.929 -0.1785 -0.2075 -0.4400
 5974TIP3    H117928   0.810   5.287   0.926 -0.7385  0.3559 -0.3972
 5974TIP3    H217929   0.712   5.210   0.839 -0.4749 -0.0227 -0.3600
 5975TIP3   OH217930   6.282   3.974   3.156  0.1046 -0.3426  0.5417
 5975TIP3    H117931   6.354   4.034   3.136 -0.7812 -0.0999 -2.2608
 5975TIP3    H217932   6.322   3.887   3.152  0.0552 -0.3248 -2.6094
 5976TIP3   OH217933   1.697   5.235   5.102 -0.1831 -0.0922  0.1575
 5976TIP3    H117934   1.643   5.218   5.025  0.0364 -0.6696  0.1262
 5976TIP3    H217935   1.677   5.163   5.162 -0.4172  0.4025  0.6790
 5977TIP3   OH217936   4.557   5.166   0.628 -0.3716  0.0972  0.1961
 5977TIP3    H117937   4.473   5.131   0.657 -0.2785 -0.0309  0.3102
 5977TIP3    H217938   4.535   5.248   0.583 -0.4228  0.9212  1.6452
 5978TIP3   OH217939   5.884   0.228   3.767 -0.3903  0.0862  0.2967
 5978TIP3    H117940   5.966   0.217   3.815 -0.7513  0.2469  0.9762
 5978TIP3    H217941   5.893   0.173   3.690  0.5085  0.4142  0.1651
 5979TIP3   OH217942   4.709   2.424   2.015  0.0002 -0.3320  0.4045
 5979TIP3    H117943   4.670   2.448   1.931  1.7637 -1.9446 -0.9698
 5979TIP3    H217944   4.784   2.483   2.024 -0.5718  0.2893  1.2114
 5980TIP3   OH217945   0.549   4.885   4.592 -0.2094  0.5431 -0.2261
 5980TIP3    H117946   0.503   4.801   4.600 -2.0208  1.4167 -0.9886
 5980TIP3    H217947   0.513   4.925   4.514  0.7121  2.0158  0.0681
 5981TIP3   OH217948   5.208   1.733   2.787  0.3780  0.4304  0.1795
 5981TIP3    H117949   5.190   1.725   2.693  1.2037 -0.3461  0.0711
 5981TIP3    H217950   5.122   1.724   2.828 -0.2395  2.4961 -0.5512
 5982TIP3   OH217951   1.100   4.563   3.914 -0.3843 -0.1454 -0.3605
 5982TIP3    H117952   1.075   4.653   3.894  0.9492  0.2698 -0.3032
 5982TIP3    H217953   1.139   4.568   4.002 -0.6259 -0.8378 -0.2107
 5983TIP3   OH217954   5.466   1.997   3.887 -0.0136  0.2425 -0.2984
 5983TIP3    H117955   5.403   2.041   3.943  1.2689  0.5880  0.9304
 5983TIP3    H217956   5.451   1.904   3.901  0.4477  0.3217  0.8452
 5984TIP3   OH217957   0.245   0.307   5.153 -0.1989 -0.1025 -0.6076
 5984TIP3    H117958   0.170   0.296   5.094 -1.2599  1.6362  0.3090
 5984TIP3    H217959   0.209   0.356   5.228  1.6542 -0.0580  0.3024
 5985TIP3   OH217960   5.194   2.855   1.791  0.3647  0.4128 -0.4948
 5985TIP3    H117961   5.153   2.941   1.784  1.0168  0.6158 -3.1460
 5985TIP3    H217962   5.209   2.842   1.885 -2.3204  1.9090  0.2367
 5986TIP3   OH217963   4.719   3.551   4.385 -0.2042 -0.0721 -0.3428
 5986TIP3    H117964   4.649   3.604   4.346 -0.4702 -0.0400  0.1686
 5986TIP3    H217965   4.696   3.546   4.478  0.0852 -0.6719 -0.2985
 5987TIP3   OH217966   6.241   4.391   3.084 -0.3554 -0.2744  0.3882
 5987TIP3    H117967   6.244   4.316   3.024  0.8949  0.4146 -0.4274
 5987TIP3    H217968   6.328   4.430   3.080 -1.0783  1.4536  0.5196
 5988TIP3   OH217969   4.275   2.930   1.102  0.1828  0.4174  0.0443
 5988TIP3    H117970   4.310   3.018   1.090  0.7360  0.2360  0.3119
 5988TIP3    H217971   4.184   2.936   1.072  0.3592  0.9589 -0.3919
 5989TIP3   OH217972   4.785   1.640   2.238 -0.2445 -0.1744 -0.1869
 5989TIP3    H117973   4.818   1.552   2.221 -0.1424  0.0058 -0.9792
 5989TIP3    H217974   4.739   1.663   2.157  0.5113  0.8538 -0.3331
 5990TIP3   OH217975   4.104   4.875   0.171  0.0713 -0.0576 -0.3304
 5990TIP3    H117976   4.155   4.898   0.093  0.7638  0.2153  0.2008
 5990TIP3    H217977   4.091   4.780   0.163 -0.8759  0.1390 -1.3715
 5991TIP3   OH217978   4.048   3.924   2.848 -1.2485 -0.2920  0.1115
 5991TIP3    H117979   4.001   3.997   2.808 -0.0283  0.6272  0.3040
 5991TIP3    H217980   4.057   3.949   2.940  1.9531  0.9163 -0.3906
 5992TIP3   OH217981   4.905   3.651   3.296 -1.3277  0.9020  0.0545
 5992TIP3    H117982   4.866   3.713   3.234 -1.4148  1.0251  0.2293
 5992TIP3    H217983   4.897   3.695   3.381 -1.0068  0.8309  0.1208
 5993TIP3   OH217984   5.314   0.393   2.663 -0.4643 -0.0530  0.2572
 5993TIP3    H117985   5.222   0.384   2.686 -0.8812 -1.9641 -1.8500
 5993TIP3    H217986   5.360   0.398   2.748 -2.4026  0.3564  1.3330
 5994TIP3   OH217987   5.883   5.086   3.646 -0.1808  0.6380 -0.3409
 5994TIP3    H117988   5.906   4.999   3.613  0.7664  0.8247 -0.1920
 5994TIP3    H217989   5.857   5.071   3.737  0.2789  0.5483 -0.2230
 5995TIP3   OH217990   3.842   3.893   4.159 -0.3804 -0.3421 -0.0171
 5995TIP3    H117991   3.932   3.908   4.188 -0.1776 -0.0354 -0.7777
 5995TIP3    H217992   3.845   3.908   4.064 -1.6118  1.4231  0.1888
 5996TIP3   OH217993   2.968   0.124   3.641 -0.0297 -0.3411 -0.1416
 5996TIP3    H117994   2.997   0.169   3.562  0.7846 -0.9367 -0.1935
 5996TIP3    H217995   2.893   0.071   3.613 -0.1287 -0.0770 -0.3731
 5997TIP3   OH217996   1.375   2.148   2.850  0.4271 -0.0390  0.2370
 5997TIP3    H117997   1.439   2.084   2.882  0.2097  0.0619  0.8886
 5997TIP3    H217998   1.421   2.232   2.856  1.1918 -0.2425 -1.8707
 5998TIP3   OH217999   3.618   3.553   1.873 -0.6594 -0.3742  0.5061
 5998TIP3    H118000   3.539   3.529   1.921 -0.4130  0.2173  1.2161
 5998TIP3    H218001   3.633   3.645   1.895  0.7663 -0.7296  1.1607
 5999TIP3   OH218002   5.969   0.781   1.503 -0.0746 -0.0521 -0.6519
 5999TIP3    H118003   5.951   0.711   1.442  2.0609 -1.1992 -0.0890
 5999TIP3    H218004   6.065   0.781   1.512 -0.1490  1.6692  0.8247
 6000TIP3   OH218005   4.338   0.117   2.739 -0.0871  0.2155  0.0146
 6000TIP3    H118006   4.313   0.033   2.778 -1.1349  0.0266 -0.9991
 6000TIP3    H218007   4.375   0.093   2.654 -1.6653  0.8199 -0.8883
 6001TIP3   OH218008   6.229   2.875   2.298 -0.3979  0.0591 -0.1845
 6001TIP3    H118009   6.290   2.832   2.358  1.5450  2.3080 -0.4348
 6001TIP3    H218010   6.268   2.865   2.211  0.3154  2.4825 -0.2170
 6002TIP3   OH218011   4.934   0.180   1.572  0.0683  0.0500  0.3233
 6002TIP3    H118012   4.995   0.173   1.498 -0.5727 -1.4122 -0.0908
 6002TIP3    H218013   4.966   0.117   1.636 -0.5868 -0.1967  0.4153
 6003TIP3   OH218014   5.615   2.901   1.302  0.2098 -0.6006 -0.1857
 6003TIP3    H118015   5.623   2.893   1.397  0.2459  1.0686 -0.0095
 6003TIP3    H218016   5.561   2.979   1.289  0.2766 -0.7567 -1.5299
 6004TIP3   OH218017   5.917   0.085   3.553  0.0294 -0.4350  0.0823
 6004TIP3    H118018   5.844   0.109   3.496 -0.6211 -0.7997  0.7468
 6004TIP3    H218019   5.921  -0.010   3.547 -0.2178 -0.5011  0.8393
 6005TIP3   OH218020   6.041   3.880   2.147  0.0070  0.9220  0.0334
 6005TIP3    H118021   6.115   3.904   2.202  1.5783 -0.8030 -1.1755
 6005TIP3    H218022   6.034   3.785   2.158 -3.4763  1.2369  1.7634
 6006TIP3   OH218023   2.378   1.005   5.095 -0.3065 -0.6171 -0.2777
 6006TIP3    H118024   2.450   1.067   5.082 -1.1058  0.3354 -0.2639
 6006TIP3    H218025   2.399   0.963   5.179 -0.3367  0.4780  0.3039
 6007TIP3   OH218026   5.115   1.996   0.298  0.1158 -0.5355 -0.3067
 6007TIP3    H118027   5.034   1.962   0.260 -1.1788  1.9522  0.0471
 6007TIP3    H218028   5.130   2.080   0.254  0.2504  0.9834  2.4129
 6008TIP3   OH218029   3.372   2.469   2.096 -0.1869 -0.4119  0.1236
 6008TIP3    H118030   3.351   2.491   2.006  0.2754 -1.7408 -0.3295
 6008TIP3    H218031   3.340   2.380   2.108  1.9805 -1.2072  0.4729
 6009TIP3   OH218032   1.304   3.360   2.851  0.0711 -0.2126  0.1257
 6009TIP3    H118033   1.327   3.417   2.778 -0.6137 -1.8921 -1.4489
 6009TIP3    H218034   1.381   3.361   2.908  0.1738  2.0401  0.0361
 6010TIP3   OH218035   4.048   0.152   3.588  0.7310  0.3070 -0.6123
 6010TIP3    H118036   3.969   0.104   3.613  1.4620 -1.2293 -1.1157
 6010TIP3    H218037   4.021   0.203   3.511 -0.0371  0.6233 -0.1392
 6011TIP3   OH218038   2.553   3.561   4.849 -0.1120 -0.3459 -0.0286
 6011TIP3    H118039   2.497   3.611   4.908  1.1116 -0.9356  1.7029
 6011TIP3    H218040   2.496   3.538   4.776 -1.3415  1.5054  0.2650
 6012TIP3   OH218041   1.856   0.722   0.493  0.2717 -0.0963 -0.3826
 6012TIP3    H118042   1.842   0.699   0.401  0.0509  1.4542 -0.7676
 6012TIP3    H218043   1.917   0.655   0.525 -0.9745 -1.6794 -1.1494
 6013TIP3   OH218044   1.201   5.435   0.850  0.6051  0.2078 -0.3207
 6013TIP3    H118045   1.235   5.504   0.908 -0.1870 -0.7446  1.3265
 6013TIP3    H218046   1.275   5.375   0.838  1.4314  1.4831 -2.1037
 6014TIP3   OH218047   0.656   2.274   4.823 -0.2892  0.0342 -0.2829
 6014TIP3    H118048   0.676   2.223   4.902 -1.1041 -1.1887 -0.8341
 6014TIP3    H218049   0.706   2.231   4.753  0.6785  1.3037 -0.3984
 6015TIP3   OH218050   1.643   4.432   4.684 -0.0533  0.0004  0.1328
 6015TIP3    H118051   1.568   4.436   4.743 -0.6264 -1.1924 -0.4743
 6015TIP3    H218052   1.619   4.367   4.618  0.9608  0.5817 -0.8671
 6016TIP3   OH218053   5.837   4.339   3.961 -0.2133  0.3192  0.0408
 6016TIP3    H118054   5.773   4.287   3.911 -0.1869  0.9851 -0.7025
 6016TIP3    H218055   5.805   4.429   3.956  0.1305  0.4877  0.7079
 6017TIP3   OH218056   0.042   2.129   1.223  0.0425  0.3008  0.3276
 6017TIP3    H118057   0.057   2.223   1.212 -0.2354  0.4051  0.8211
 6017TIP3    H218058  -0.043   2.124   1.268  0.6931 -0.1406  1.5314
 6018TIP3   OH218059   3.574   4.970   0.249 -0.0175  0.4727  0.2096
 6018TIP3    H118060   3.598   5.063   0.259 -1.0012  0.7728 -0.0612
 6018TIP3    H218061   3.657   4.923   0.257  0.8434  1.5325 -1.7763
 6019TIP3   OH218062   0.885   1.785   4.449 -0.5455  0.0034  0.4721
 6019TIP3    H118063   0.849   1.867   4.417  0.2696 -0.2982 -1.3115
 6019TIP3    H218064   0.949   1.812   4.515 -1.1062  0.7249  0.7405
 6020TIP3   OH218065   2.615   1.506   3.633  0.1639  0.5066  0.5017
 6020TIP3    H118066   2.669   1.579   3.661 -1.1013  1.1343  1.4085
 6020TIP3    H218067   2.635   1.496   3.540  1.3729  1.0941  0.6739
 6021TIP3   OH218068   1.816   4.062   2.850  0.0037 -0.1313  0.1658
 6021TIP3    H118069   1.805   4.095   2.761 -0.2575 -1.4020 -0.2981
 6021TIP3    H218070   1.895   4.008   2.846  0.1660  0.0435  0.7842
 6022TIP3   OH218071   5.893   5.693   4.980  0.5982 -0.4440  0.2872
 6022TIP3    H118072   5.901   5.600   4.998  0.5490 -0.3789  0.6447
 6022TIP3    H218073   5.843   5.698   4.898 -1.1799 -0.6803  1.3023
 6023TIP3   OH218074   0.624   5.844   0.227  0.8619  0.3567  0.0139
 6023TIP3    H118075   0.554   5.831   0.163  1.0872  1.0521 -0.3879
 6023TIP3    H218076   0.637   5.939   0.229 -0.2806  0.5411  2.3107
 6024TIP3   OH218077   2.240   4.134   5.013  0.2402  0.0889 -0.0203
 6024TIP3    H118078   2.304   4.204   5.001 -0.5059  0.6763 -0.6444
 6024TIP3    H218079   2.252   4.105   5.104  1.0445  0.5272  0.0132
 6025TIP3   OH218080   3.793   3.947   1.047  0.0692  0.4526  0.4916
 6025TIP3    H118081   3.796   3.955   0.951 -1.6691  0.9813  0.4365
 6025TIP3    H218082   3.867   3.891   1.069  0.1179 -0.2233 -1.2307
 6026TIP3   OH218083   0.479   0.841   0.056  0.5564  0.6644  0.4450
 6026TIP3    H118084   0.426   0.795  -0.010  0.2946  2.6991 -0.8491
 6026TIP3    H218085   0.431   0.827   0.138 -0.1367 -0.3545 -0.0976
 6027TIP3   OH218086   6.177   0.468   2.803 -0.8824  0.1004 -0.0711
 6027TIP3    H118087   6.220   0.519   2.734  0.3999  0.9969  1.3234
 6027TIP3    H218088   6.089   0.504   2.808 -0.3698  1.3961  0.0725
 6028TIP3   OH218089   1.036   5.186   3.118 -0.4509  0.0132 -0.6826
 6028TIP3    H118090   1.027   5.274   3.156 -0.5144 -0.2982  0.0504
 6028TIP3    H218091   0.954   5.142   3.141 -0.8938  0.1191 -2.0228
 6029TIP3   OH218092   2.372   3.001   0.886  0.0844  0.4102  0.7468
 6029TIP3    H118093   2.316   2.928   0.911  0.7670 -0.4328 -0.0867
 6029TIP3    H218094   2.413   3.030   0.968  1.6055 -1.6980  0.8292
 6030TIP3   OH218095   6.053   1.170   4.039  0.5382 -0.1259  0.4480
 6030TIP3    H118096   6.114   1.100   4.062  1.7787  1.6925  3.1840
 6030TIP3    H218097   6.109   1.246   4.020 -0.8162  0.7195 -0.3867
 6031TIP3   OH218098   5.015   3.573   2.209 -0.3305 -0.0240 -0.3469
 6031TIP3    H118099   5.041   3.652   2.161 -0.2973 -0.4282 -1.0014
 6031TIP3    H218100   5.049   3.588   2.297 -0.6289  0.8466 -0.3626
 6032TIP3   OH218101   0.373   0.684   1.750 -0.4067  0.3433 -0.0036
 6032TIP3    H118102   0.309   0.616   1.729  0.2847 -0.6308  0.9292
 6032TIP3    H218103   0.448   0.664   1.694 -0.6636  1.0873 -0.6193
 6033TIP3   OH218104   2.193   5.013   3.683 -0.6543 -0.1177 -0.2336
 6033TIP3    H118105   2.180   5.023   3.778  0.5309  0.2585 -0.0886
 6033TIP3    H218106   2.279   4.970   3.676 -0.9209 -0.5267 -1.1338
 6034TIP3   OH218107   3.955   5.902   2.193 -0.3960  0.7490  0.1572
 6034TIP3    H118108   3.952   5.899   2.289  0.8250 -1.7285  0.1952
 6034TIP3    H218109   4.048   5.893   2.172 -0.6997  0.6980 -1.2833
 6035TIP3   OH218110   5.091   2.941   0.698 -0.4279 -0.4403  0.6662
 6035TIP3    H118111   5.156   2.881   0.735 -1.1075 -0.5394  1.7238
 6035TIP3    H218112   5.029   2.884   0.654  0.4447 -0.3162 -0.7997
 6036TIP3   OH218113   5.597   4.601   5.004 -0.3172 -0.3969 -0.3198
 6036TIP3    H118114   5.653   4.533   4.968 -0.6641 -0.2272 -1.1954
 6036TIP3    H218115   5.508   4.571   4.986 -0.4773  0.1587 -0.4674
 6037TIP3   OH218116   0.634   0.590   4.849  0.2475 -0.0115 -0.0047
 6037TIP3    H118117   0.590   0.626   4.925  1.0644 -0.7077  0.8182
 6037TIP3    H218118   0.727   0.599   4.868  0.4783  0.1090 -1.0759
 6038TIP3   OH218119   1.499   2.387   0.939  0.1255  1.1607  0.0215
 6038TIP3    H118120   1.478   2.372   0.847  1.8021 -1.0369 -0.0698
 6038TIP3    H218121   1.433   2.337   0.987 -0.4671  1.9363  0.0492
 6039TIP3   OH218122   4.335   0.857   3.036 -0.3009 -0.0264 -0.2711
 6039TIP3    H118123   4.266   0.900   2.984 -0.1025  0.2887 -0.2752
 6039TIP3    H218124   4.287   0.800   3.096 -0.6613  1.3286  0.7788
 6040TIP3   OH218125   3.300   5.956   3.589 -0.0021  0.1293 -0.3555
 6040TIP3    H118126   3.385   5.968   3.629 -0.2599 -1.3736  0.7282
 6040TIP3    H218127   3.310   5.878   3.534 -0.7070 -0.1754 -0.0719
 6041TIP3   OH218128   4.510   0.363   0.860 -0.2511  0.0914  0.3613
 6041TIP3    H118129   4.451   0.312   0.805  0.0284 -0.0679  0.2031
 6041TIP3    H218130   4.478   0.453   0.852  0.4562  0.2487 -0.9792
 6042TIP3   OH218131   5.384   4.824   3.789  0.4995  0.6117 -0.0647
 6042TIP3    H118132   5.438   4.902   3.797  3.0064 -1.1662  1.8809
 6042TIP3    H218133   5.438   4.762   3.741 -0.5894 -0.6395  0.2743
 6043TIP3   OH218134   5.020   5.659   0.163 -0.4505  0.1261  0.2171
 6043TIP3    H118135   5.062   5.643   0.079 -0.8548 -0.4588  0.1188
 6043TIP3    H218136   5.066   5.602   0.225  0.1612  0.9061  0.4942
 6044TIP3   OH218137   3.085   2.953   4.453 -0.3355  0.2942  0.2979
 6044TIP3    H118138   3.040   2.928   4.534 -0.1271 -0.4915  0.1844
 6044TIP3    H218139   3.178   2.943   4.474 -0.2578  0.7652  0.1743
 6045TIP3   OH218140   0.884   4.239   1.569 -0.5128  0.1640  0.0146
 6045TIP3    H118141   0.806   4.216   1.619  0.7206  0.3097  2.1421
 6045TIP3    H218142   0.902   4.162   1.515 -2.6447  0.5046 -1.2996
 6046TIP3   OH218143   1.230   0.777   0.446 -0.0588 -0.7468 -0.0381
 6046TIP3    H118144   1.301   0.714   0.459  0.4494 -0.2082 -0.1338
 6046TIP3    H218145   1.214   0.812   0.534 -1.3332 -2.0340  0.2686
 6047TIP3   OH218146   0.105   2.954   4.201 -0.5594  0.8557 -0.0140
 6047TIP3    H118147   0.158   2.985   4.128  1.4570 -0.1588  0.9392
 6047TIP3    H218148   0.104   2.859   4.192 -0.6875  0.7490  0.9996
 6048TIP3   OH218149   2.439   1.730   5.125 -0.6665 -0.4412  1.0471
 6048TIP3    H118150   2.506   1.663   5.140 -0.4951 -0.4410  0.3059
 6048TIP3    H218151   2.361   1.696   5.170 -0.2826 -0.6244  1.5841
 6049TIP3   OH218152   5.218   3.194   4.131 -0.4042 -0.5721 -0.4320
 6049TIP3    H118153   5.164   3.140   4.072 -0.4861 -1.4462  0.4252
 6049TIP3    H218154   5.288   3.227   4.075 -1.3665 -0.0799 -1.3816
 6050TIP3   OH218155   3.265   4.317   2.792 -0.0087  0.6351  0.1353
 6050TIP3    H118156   3.296   4.229   2.773  2.1689  1.3634  0.1071
 6050TIP3    H218157   3.192   4.331   2.731  1.0466 -0.3468 -1.3959
 6051TIP3   OH218158   2.050   2.893   4.407  0.5429  0.1250 -1.0710
 6051TIP3    H118159   2.086   2.896   4.496  0.3851  4.4666 -0.9103
 6051TIP3    H218160   2.046   2.800   4.385 -0.9633 -1.3696  4.0820
 6052TIP3   OH218161   2.102   0.566   4.620 -0.7684 -0.0938  0.1628
 6052TIP3    H118162   2.029   0.607   4.666 -1.7142 -0.2146 -1.1850
 6052TIP3    H218163   2.062   0.495   4.571  0.4183 -0.7800  0.1562
 6053TIP3   OH218164   4.721   3.578   2.484 -0.4982  0.1524  0.4531
 6053TIP3    H118165   4.699   3.535   2.401 -1.1304 -0.6449  1.0166
 6053TIP3    H218166   4.697   3.670   2.470  0.8595  0.3473 -0.7605
 6054TIP3   OH218167   4.325   5.022   2.083 -0.2242  0.0983 -0.1506
 6054TIP3    H118168   4.419   5.040   2.076  0.0067 -1.0909 -0.2379
 6054TIP3    H218169   4.302   5.051   2.171  0.2483  0.2549 -0.0715
 6055TIP3   OH218170   0.523   2.388   2.758 -0.5445 -0.0132  0.1211
 6055TIP3    H118171   0.464   2.315   2.770 -2.1287  1.2233  0.1985
 6055TIP3    H218172   0.523   2.433   2.843 -0.2910  0.5568 -0.1729
 6056TIP3   OH218173   4.175   3.291   3.933  0.5675  0.1018  0.6226
 6056TIP3    H118174   4.088   3.277   3.897  1.3819 -0.8691 -1.0682
 6056TIP3    H218175   4.160   3.312   4.025 -1.3236 -2.5021  0.9999
 6057TIP3   OH218176   0.536   3.308   1.725  0.2780 -0.3245  0.2136
 6057TIP3    H118177   0.571   3.347   1.645 -0.2538  1.3293  0.7523
 6057TIP3    H218178   0.441   3.311   1.713  0.2167 -1.4109  0.3180
 6058TIP3   OH218179   2.970   3.670   5.136  0.0012 -0.0494 -1.1575
 6058TIP3    H118180   3.038   3.616   5.096  0.2218  0.1426 -1.0447
 6058TIP3    H218181   2.891   3.650   5.086 -0.0711 -0.9813 -0.6852
 6059TIP3   OH218182   1.090   2.209   0.104 -0.4574  0.0541 -0.4207
 6059TIP3    H118183   1.067   2.132   0.156  0.0799  1.0434  1.3534
 6059TIP3    H218184   1.154   2.256   0.157 -0.2186  1.3691 -1.7882
 6060TIP3   OH218185   3.460   4.149   1.007  0.0840  0.4885  0.0954
 6060TIP3    H118186   3.465   4.060   0.971 -0.7110 -0.0476  1.2329
 6060TIP3    H218187   3.414   4.138   1.090 -3.1475  2.4328 -1.2791
 6061TIP3   OH218188   3.512   4.429   2.748 -0.3292  0.0204  0.0091
 6061TIP3    H118189   3.431   4.379   2.760 -0.1019 -0.4162 -0.2688
 6061TIP3    H218190   3.566   4.375   2.692  0.2115  0.2543  0.2941
 6062TIP3   OH218191   2.377   2.823   0.024  0.3282  0.3273  0.2815
 6062TIP3    H118192   2.399   2.913   0.002  2.9005 -0.2803  0.0402
 6062TIP3    H218193   2.426   2.805   0.105  0.7288 -1.1419 -0.2476
 6063TIP3   OH218194   3.011   4.938   2.187 -0.1827 -0.2884  0.1856
 6063TIP3    H118195   3.062   5.012   2.219 -1.8058 -0.1722  2.7774
 6063TIP3    H218196   3.054   4.861   2.224 -0.5914 -0.3574  0.5208
 6064TIP3   OH218197   0.009   0.208   2.767  0.1805  0.1398  0.6639
 6064TIP3    H118198   0.069   0.177   2.699 -1.0001 -0.1522 -0.2966
 6064TIP3    H218199   0.003   0.302   2.751  1.6221  0.4485  1.8094
 6065TIP3   OH218200   4.897   1.803   2.457 -0.2508 -0.2775 -0.6655
 6065TIP3    H118201   4.854   1.761   2.383 -1.7957  0.3424 -0.1531
 6065TIP3    H218202   4.829   1.808   2.525  0.9811 -0.3829  0.6263
 6066TIP3   OH218203   1.584   2.623   1.518 -0.4717 -0.5817  0.1567
 6066TIP3    H118204   1.580   2.557   1.587  0.4533 -1.3035 -0.4486
 6066TIP3    H218205   1.503   2.611   1.468  0.1543 -2.0001 -0.5776
 6067TIP3   OH218206   0.422   5.775   0.074 -0.5070  0.4018 -0.0875
 6067TIP3    H118207   0.340   5.812   0.107  0.7931  1.5217  2.1320
 6067TIP3    H218208   0.396   5.692   0.034 -2.6078  0.3242  1.2663
 6068TIP3   OH218209   3.806   0.841   1.804 -0.3821  0.1488 -0.0353
 6068TIP3    H118210   3.814   0.834   1.899 -0.5531 -2.0348 -0.1349
 6068TIP3    H218211   3.828   0.932   1.785  2.6969 -0.0579  1.7920
 6069TIP3   OH218212   6.244   5.537   0.347 -0.3690  0.4568 -0.1704
 6069TIP3    H118213   6.227   5.454   0.303 -0.9681  1.1839 -1.3544
 6069TIP3    H218214   6.161   5.559   0.390 -0.1459  0.3449  0.3257
 6070TIP3   OH218215   4.561   2.485   1.788 -0.0519 -0.1183 -0.0433
 6070TIP3    H118216   4.516   2.567   1.809 -0.6601 -0.2499 -0.8139
 6070TIP3    H218217   4.491   2.420   1.782  0.3736 -0.5873  0.0243
 6071TIP3   OH218218   5.375   4.501   1.465  0.3858  0.6295  0.3786
 6071TIP3    H118219   5.436   4.550   1.520  0.6796  0.2892  0.3560
 6071TIP3    H218220   5.430   4.462   1.397  0.3382 -0.7151  1.0757
 6072TIP3   OH218221   0.743   3.225   4.016 -0.2677 -0.1313 -0.5226
 6072TIP3    H118222   0.703   3.152   3.967  0.4042 -0.7122 -0.2259
 6072TIP3    H218223   0.675   3.251   4.078 -0.1630 -1.2007  0.0720
 6073TIP3   OH218224   2.199   2.212   1.142 -0.0249  0.7333 -0.0305
 6073TIP3    H118225   2.188   2.254   1.227 -0.8364  0.3672  0.0576
 6073TIP3    H218226   2.221   2.121   1.162  2.2154  1.1735 -0.2151
 6074TIP3   OH218227   1.470   4.077   1.996 -0.4194 -0.6104 -0.9050
 6074TIP3    H118228   1.413   4.124   2.057  1.6860 -0.1357  0.8032
 6074TIP3    H218229   1.441   3.986   2.003 -0.4284 -0.5289  0.6226
 6075TIP3   OH218230   3.074   2.292   1.003 -0.2752  0.6214 -0.9173
 6075TIP3    H118231   3.142   2.284   1.070 -0.7205  0.9104 -0.4230
 6075TIP3    H218232   3.109   2.244   0.928 -0.1354 -0.4506 -0.1923
 6076TIP3   OH218233   5.437   4.418   3.230  0.1417  0.1966 -0.4978
 6076TIP3    H118234   5.491   4.442   3.305 -0.7306  0.3903  0.0812
 6076TIP3    H218235   5.431   4.322   3.234 -0.5244  0.2610  0.1234
 6077TIP3   OH218236   3.570   5.491   2.837 -0.0873 -0.4345  0.0773
 6077TIP3    H118237   3.656   5.471   2.799  0.0013  1.0798 -0.6096
 6077TIP3    H218238   3.527   5.546   2.771 -1.6428 -1.2511  0.3713
 6078TIP3   OH218239   3.072   5.419   2.239  0.4592 -0.0115  0.5961
 6078TIP3    H118240   3.114   5.338   2.269 -0.5419  0.3413  3.1708
 6078TIP3    H218241   3.108   5.433   2.151  1.4296 -2.6826  0.4672
 6079TIP3   OH218242   4.841   2.496   2.402  0.3760 -0.3455 -0.0127
 6079TIP3    H118243   4.810   2.500   2.493  0.0612  0.5104 -0.1507
 6079TIP3    H218244   4.772   2.539   2.352  0.9430 -0.0555 -0.5518
 6080TIP3   OH218245   5.633   0.047   1.903  0.6519 -0.0800  0.0533
 6080TIP3    H118246   5.660  -0.039   1.869  2.0969  0.6705 -0.8073
 6080TIP3    H218247   5.571   0.027   1.973  2.3206 -1.9229  1.1115
 6081TIP3   OH218248   2.997   1.431   0.973  0.2947 -0.1438 -0.5372
 6081TIP3    H118249   3.072   1.454   0.918  0.2222  0.4807 -0.3855
 6081TIP3    H218250   3.011   1.482   1.053 -0.5880  0.4122 -0.7293
 6082TIP3   OH218251   1.983   5.070   0.334  0.5489 -0.2485 -0.2103
 6082TIP3    H118252   1.942   5.114   0.259  2.6186  2.2486 -0.0150
 6082TIP3    H218253   1.911   5.059   0.397 -0.5487  0.7566 -1.2296
 6083TIP3   OH218254   1.366   5.318   0.120  0.2109  0.2198 -0.0803
 6083TIP3    H118255   1.290   5.363   0.158 -0.4770  0.2063 -1.3629
 6083TIP3    H218256   1.440   5.346   0.173 -0.4345  1.6529  0.1155
 6084TIP3   OH218257   1.156   1.186   0.558 -0.0822 -0.5039 -0.1281
 6084TIP3    H118258   1.135   1.127   0.486  0.7653 -0.6835 -0.2426
 6084TIP3    H218259   1.189   1.266   0.516 -0.1140 -0.3958  0.0477
 6085TIP3   OH218260   5.754   2.701   2.515 -0.2322 -0.1253  0.4648
 6085TIP3    H118261   5.756   2.675   2.607 -2.4600  1.1910  0.9511
 6085TIP3    H218262   5.739   2.620   2.467  0.7838 -0.8015  1.2411
 6086TIP3   OH218263   3.389   1.686   4.984  0.2410  1.1178  0.2198
 6086TIP3    H118264   3.411   1.708   5.075  1.8772  2.0490 -0.3547
 6086TIP3    H218265   3.384   1.591   4.982 -0.9484  1.1102  1.4977
 6087TIP3   OH218266   6.085   1.617   0.480 -0.4904 -0.3220  0.4614
 6087TIP3    H118267   6.021   1.558   0.441 -0.0356 -1.2439  1.0714
 6087TIP3    H218268   6.168   1.593   0.438  0.5504 -3.1741  3.6910
 6088TIP3   OH218269   2.748   0.612   4.742  0.3468  0.1376 -0.2562
 6088TIP3    H118270   2.701   0.620   4.659 -0.0005 -0.2164 -0.0961
 6088TIP3    H218271   2.782   0.700   4.758 -0.1738  0.3798 -0.4336
 6089TIP3   OH218272   2.035   3.900   0.862  0.7292 -0.7692 -0.3882
 6089TIP3    H118273   2.087   3.938   0.791 -0.9885 -0.3227 -1.4572
 6089TIP3    H218274   1.974   3.970   0.887  1.8448 -0.5912  2.1790
 6090TIP3   OH218275   0.945   4.535   1.173  0.2003  0.6111  0.1958
 6090TIP3    H118276   1.004   4.484   1.229 -0.8987 -0.1583  0.6782
 6090TIP3    H218277   0.906   4.471   1.114  0.0089  1.1559 -0.2790
 6091TIP3   OH218278   5.531   4.088   1.662  0.3260  0.1100 -0.0064
 6091TIP3    H118279   5.507   4.027   1.732  0.2193  1.8057  1.5111
 6091TIP3    H218280   5.546   4.032   1.586  3.1977 -2.1978  1.9957
 6092TIP3   OH218281   1.986   0.317   0.113  0.4755 -0.1094  0.3214
 6092TIP3    H118282   1.944   0.283   0.034  0.0837  2.3519 -0.6258
 6092TIP3    H218283   1.916   0.363   0.160  1.1254  0.1032  1.1203
 6093TIP3   OH218284   2.205   3.997   1.437  0.0393  0.4355  0.1325
 6093TIP3    H118285   2.269   4.005   1.508  0.1187  1.0137  0.0047
 6093TIP3    H218286   2.252   3.949   1.368 -0.5660 -1.5751  1.0689
 6094TIP3   OH218287   1.501   2.904   2.464 -0.1417  0.3103  0.4238
 6094TIP3    H118288   1.595   2.925   2.468 -0.4684  2.7661 -2.0358
 6094TIP3    H218289   1.459   2.970   2.519 -0.5639  0.3750  0.0281
 6095TIP3   OH218290   3.301   4.683   1.163 -0.6265 -0.0126 -0.5783
 6095TIP3    H118291   3.255   4.688   1.247 -0.2846  0.8331 -0.4333
 6095TIP3    H218292   3.306   4.590   1.144  0.6485 -0.3386  1.1079
 6096TIP3   OH218293   5.947   0.484   3.675  0.3246 -0.3927  0.0119
 6096TIP3    H118294   5.948   0.483   3.580  4.1231 -1.7991 -0.0812
 6096TIP3    H218295   5.928   0.394   3.700  0.2704 -0.2309  0.5754
 6097TIP3   OH218296   0.092   2.367   2.052 -0.4146 -0.0800 -0.2790
 6097TIP3    H118297   0.089   2.433   2.121  1.1158  0.7406 -0.9579
 6097TIP3    H218298   0.158   2.399   1.991  0.1542 -2.0997 -0.7801
 6098TIP3   OH218299   1.372   0.697   5.048 -0.2528  0.1637 -0.0517
 6098TIP3    H118300   1.294   0.649   5.077 -0.4260  0.8522  0.6626
 6098TIP3    H218301   1.426   0.705   5.127  0.0452  0.6164 -0.2951
 6099TIP3   OH218302   0.831   4.271   4.503  0.0743  0.0458 -0.2297
 6099TIP3    H118303   0.739   4.278   4.530  0.0435  1.0477 -0.5432
 6099TIP3    H218304   0.829   4.290   4.409  0.5228 -0.6708 -0.3942
 6100TIP3   OH218305   3.392   0.180   2.944 -0.4049  0.2445  0.0199
 6100TIP3    H118306   3.343   0.160   3.023  2.0722 -2.5167  1.0742
 6100TIP3    H218307   3.441   0.260   2.965  0.5990 -0.7190  1.5524
 6101TIP3   OH218308   0.796   5.450   5.064  0.4418 -0.1978 -0.2197
 6101TIP3    H118309   0.861   5.503   5.109 -1.0860  1.2265  0.4350
 6101TIP3    H218310   0.781   5.375   5.122  1.1419 -0.2873 -0.1508
 6102TIP3   OH218311   6.024   1.732   4.429  0.3795 -1.0910  0.2879
 6102TIP3    H118312   5.999   1.676   4.503  1.0371 -1.3740  0.3055
 6102TIP3    H218313   6.078   1.675   4.374 -0.1820 -0.9076 -0.4571
 6103TIP3   OH218314   0.940   3.653   1.955 -0.2626  0.5584 -0.2806
 6103TIP3    H118315   1.020   3.602   1.943 -0.3776  0.6293 -1.4310
 6103TIP3    H218316   0.941   3.717   1.884 -1.7636  0.0141 -0.8434
 6104TIP3   OH218317   5.764   5.563   2.573 -1.0891  0.1333 -0.3435
 6104TIP3    H118318   5.827   5.492   2.586 -1.5083 -0.2975 -0.6730
 6104TIP3    H218319   5.711   5.563   2.653 -0.5985  0.5808 -0.0082
 6105TIP3   OH218320   3.997   1.093   4.240  0.0083  0.3461 -0.4492
 6105TIP3    H118321   4.054   1.122   4.311 -0.1337 -0.2240 -0.0859
 6105TIP3    H218322   4.000   1.163   4.175  2.9254 -0.5961 -1.5194
 6106TIP3   OH218323   4.964   2.218   3.813  0.6980  0.0086 -0.1280
 6106TIP3    H118324   5.019   2.296   3.820  1.5840 -0.5632 -0.4021
 6106TIP3    H218325   4.974   2.190   3.722  1.5881 -1.2358  0.3155
 6107TIP3   OH218326   6.285   0.967   4.538  0.7275  0.2327 -0.4993
 6107TIP3    H118327   6.265   1.059   4.519 -0.3164  0.0057 -0.5449
 6107TIP3    H218328   6.290   0.925   4.452  0.4852  0.1066 -0.4531
 6108TIP3   OH218329   4.569   2.121   3.380  0.2592  0.6071  0.2697
 6108TIP3    H118330   4.568   2.211   3.414  0.2541  0.8948 -0.4602
 6108TIP3    H218331   4.612   2.129   3.295 -0.9609  0.1612 -0.4182
 6109TIP3   OH218332   5.248   2.064   4.340  0.6239 -0.4123 -0.4775
 6109TIP3    H118333   5.195   2.136   4.304 -0.3370 -0.4169  0.8589
 6109TIP3    H218334   5.222   1.988   4.289 -0.1809 -0.2749 -0.2934
 6110TIP3   OH218335   0.755   3.196   2.742 -0.0771 -0.1810 -0.1869
 6110TIP3    H118336   0.782   3.286   2.725  0.0556  0.0126  0.9674
 6110TIP3    H218337   0.665   3.190   2.709  0.4258 -0.0870 -1.6730
 6111TIP3   OH218338   3.304   0.732   4.299 -0.1765 -0.3579  0.4132
 6111TIP3    H118339   3.209   0.727   4.310 -0.1781 -0.4456  0.3638
 6111TIP3    H218340   3.316   0.757   4.207 -0.1751  1.0270  0.7636
 6112TIP3   OH218341   1.163   3.703   5.138 -0.2256 -0.4611  0.1576
 6112TIP3    H118342   1.124   3.617   5.122 -0.4667 -0.1599 -0.9867
 6112TIP3    H218343   1.195   3.731   5.053 -1.1303  1.0539  0.2718
 6113TIP3   OH218344   0.735   1.983   1.412  0.4626 -0.3475 -0.5516
 6113TIP3    H118345   0.749   1.895   1.446 -1.9721 -1.3040 -1.7848
 6113TIP3    H218346   0.640   1.990   1.401  0.4520  2.8578  0.5341
 6114TIP3   OH218347   5.525   1.721   2.524  0.8955  0.3598 -0.2868
 6114TIP3    H118348   5.542   1.699   2.433  0.5555 -0.7653 -0.0974
 6114TIP3    H218349   5.432   1.704   2.536  1.5531 -3.0984  1.1535
 6115TIP3   OH218350   6.137   5.793   4.452  0.1213 -0.5430 -0.1643
 6115TIP3    H118351   6.044   5.811   4.465  0.2423  0.5853 -0.7388
 6115TIP3    H218352   6.169   5.774   4.540 -0.7033 -1.2472 -0.0017
 6116TIP3   OH218353   4.405   2.062   2.363  0.5589  0.2743 -0.3941
 6116TIP3    H118354   4.488   2.074   2.318  1.1058 -0.2031  0.4644
 6116TIP3    H218355   4.426   2.007   2.438 -0.3873  0.7724  0.2598
 6117TIP3   OH218356   3.652   5.841   2.458  0.0390  0.0064 -0.0539
 6117TIP3    H118357   3.606   5.914   2.499  0.3413  0.4332 -0.4612
 6117TIP3    H218358   3.742   5.848   2.490  0.3076  0.4151 -0.8535
 6118TIP3   OH218359   1.482   0.250   2.458  0.7406  0.3383  0.5164
 6118TIP3    H118360   1.556   0.310   2.463 -0.5666  2.0644  0.4226
 6118TIP3    H218361   1.482   0.203   2.541  0.5744  2.0602  1.5363
 6119TIP3   OH218362   2.885   3.780   2.410  0.1961 -0.2395 -0.1766
 6119TIP3    H118363   2.951   3.835   2.453 -1.8622  2.3576 -0.0752
 6119TIP3    H218364   2.894   3.801   2.317 -1.5908  1.5932 -0.0042
 6120TIP3   OH218365   5.076   5.611   4.637 -0.5207 -0.1357  0.3938
 6120TIP3    H118366   5.071   5.520   4.665  0.2644  0.1834  1.6114
 6120TIP3    H218367   4.986   5.644   4.647 -0.7707 -0.7135  0.1047
 6121TIP3   OH218368   0.652   3.974   2.320 -0.6497  0.7762  0.1345
 6121TIP3    H118369   0.712   3.931   2.259 -3.7243  0.8567 -3.3089
 6121TIP3    H218370   0.706   4.041   2.363  2.3787 -1.1511 -0.3548
 6122TIP3   OH218371   5.003   4.112   4.673  0.1638 -1.0333  0.1165
 6122TIP3    H118372   4.943   4.047   4.637 -0.3194  0.0206 -1.0195
 6122TIP3    H218373   4.948   4.188   4.691  1.1177 -0.0999 -0.8026
 6123TIP3   OH218374   2.836   5.264   4.934 -0.0852  0.1371 -0.0087
 6123TIP3    H118375   2.790   5.341   4.965  0.8276  1.3538 -1.5376
 6123TIP3    H218376   2.896   5.242   5.005  0.8472  1.9011 -0.1943
 6124TIP3   OH218377   0.845   5.290   3.319  0.1586  0.3844  0.4978
 6124TIP3    H118378   0.765   5.318   3.274 -1.6910 -2.2528  1.8501
 6124TIP3    H218379   0.858   5.355   3.388 -0.4520  1.1668 -0.1061
 6125TIP3   OH218380   3.880   0.590   1.716 -0.0055 -0.4405 -0.1853
 6125TIP3    H118381   3.798   0.548   1.689  0.2729 -0.3946 -1.1206
 6125TIP3    H218382   3.853   0.675   1.751 -0.2580  0.2577 -1.9567
 6126TIP3   OH218383   4.637   1.664   0.368  0.2913  0.4447 -0.2642
 6126TIP3    H118384   4.556   1.626   0.404  0.3751  2.6687  2.7324
 6126TIP3    H218385   4.613   1.693   0.280 -1.0919 -2.0125 -0.8017
 6127TIP3   OH218386   6.082   5.813   5.147 -0.5250  0.2399 -0.4403
 6127TIP3    H118387   6.017   5.756   5.107 -2.8080  2.2698  0.1151
 6127TIP3    H218388   6.032   5.866   5.209  2.4592 -1.4219  3.8642
 6128TIP3   OH218389   5.347   2.501   1.455 -0.5112 -0.0335  0.2390
 6128TIP3    H118390   5.299   2.579   1.426  0.3737  0.2727 -0.4403
 6128TIP3    H218391   5.436   2.531   1.469  1.5478 -1.8308 -5.6723
 6129TIP3   OH218392   6.295   5.232   0.878 -1.0086  0.2669 -0.6682
 6129TIP3    H118393   6.202   5.240   0.857 -1.7318  0.5085  2.2829
 6129TIP3    H218394   6.325   5.157   0.827 -3.3170 -1.0519 -0.2003
 6130TIP3   OH218395   5.575   2.014   2.324  0.0295  0.6389 -0.2873
 6130TIP3    H118396   5.620   1.959   2.389  2.1011  0.8349 -1.4764
 6130TIP3    H218397   5.598   2.104   2.348 -0.6144  0.8155 -0.3047
 6131TIP3   OH218398   5.614   1.471   0.224 -0.2018  0.5251  0.3595
 6131TIP3    H118399   5.523   1.481   0.194  0.1257  0.7532 -0.6016
 6131TIP3    H218400   5.620   1.379   0.251 -0.2970  0.0587 -1.1106
 6132TIP3   OH218401   0.482   3.422   2.586 -0.2040 -0.0586  0.1338
 6132TIP3    H118402   0.414   3.365   2.622  2.8360 -2.4835  2.6093
 6132TIP3    H218403   0.528   3.367   2.522  0.3734  0.9991 -0.3845
 6133TIP3   OH218404   1.915   3.006   3.821  0.1550 -0.1267  0.0887
 6133TIP3    H118405   1.895   2.974   3.909 -1.6357  0.1770 -0.1619
 6133TIP3    H218406   2.010   2.998   3.814  0.1647 -1.9225  1.3554
 6134TIP3   OH218407   1.816   0.826   3.176 -0.3339 -0.2899  0.5449
 6134TIP3    H118408   1.864   0.758   3.222 -0.2980 -0.5636  0.1099
 6134TIP3    H218409   1.725   0.812   3.200 -0.3135 -0.4207  0.5456
 6135TIP3   OH218410   5.986   1.351   3.647  0.1150  0.2805  0.1448
 6135TIP3    H118411   5.979   1.266   3.604 -1.2013  0.4775 -0.0751
 6135TIP3    H218412   5.904   1.361   3.695  0.1065  1.5690 -0.0974
 6136TIP3   OH218413   4.947   5.071   3.646  0.0262 -0.1881 -0.5154
 6136TIP3    H118414   5.019   5.106   3.594 -0.7545  1.9327 -0.2832
 6136TIP3    H218415   4.989   5.011   3.708  2.0406  2.7174  1.2073
 6137TIP3   OH218416   2.126   2.025   0.098  0.0156 -0.4738  0.1673
 6137TIP3    H118417   2.068   1.997   0.027  0.3618  1.4046 -0.9364
 6137TIP3    H218418   2.177   2.097   0.060  0.8720 -0.0286  2.0484
 6138TIP3   OH218419   0.751   3.833   3.775 -0.5800 -0.6151  0.0639
 6138TIP3    H118420   0.750   3.746   3.736 -2.0486  0.2408 -1.9579
 6138TIP3    H218421   0.667   3.842   3.819 -0.9044  0.1327 -0.6653
 6139TIP3   OH218422   3.035   4.494   3.450 -0.0433  0.1270  0.1084
 6139TIP3    H118423   3.079   4.451   3.376  0.5836 -1.6867  1.4527
 6139TIP3    H218424   3.055   4.587   3.440  2.0800 -0.3683 -0.6714
 6140TIP3   OH218425   0.476   3.470   4.223  0.4103 -0.7347  0.3122
 6140TIP3    H118426   0.449   3.556   4.191 -0.5759 -1.3349 -0.5245
 6140TIP3    H218427   0.555   3.487   4.273  0.9658  0.5027 -0.9219
 6141TIP3   OH218428   5.039   3.144   4.840 -0.3251 -0.0814 -0.5070
 6141TIP3    H118429   5.019   3.136   4.933 -1.6036 -0.8032 -0.8160
 6141TIP3    H218430   5.005   3.230   4.815 -0.0959  0.0582 -0.3488
 6142TIP3   OH218431   4.178   0.346   3.711  0.0625  0.2568  0.0918
 6142TIP3    H118432   4.122   0.423   3.704 -0.5520 -0.2988 -1.3983
 6142TIP3    H218433   4.131   0.277   3.664  1.8749 -0.2820 -1.0546
 6143TIP3   OH218434   2.767   1.868   3.019 -0.0104 -0.5343 -0.2606
 6143TIP3    H118435   2.713   1.793   3.043 -1.7889  1.0726  1.0737
 6143TIP3    H218436   2.718   1.944   3.050  2.7656  1.0985  0.5125
 6144TIP3   OH218437   2.365   2.913   0.639  0.1116  0.3845  0.8640
 6144TIP3    H118438   2.334   2.823   0.649 -1.0134  0.6305 -0.0906
 6144TIP3    H218439   2.350   2.954   0.724 -0.3912 -0.0500  0.9866
 6145TIP3   OH218440   4.337   1.563   1.491  0.8177 -0.5524  0.0012
 6145TIP3    H118441   4.367   1.587   1.579  1.6258 -1.3049 -0.0496
 6145TIP3    H218442   4.242   1.560   1.498  0.7650  1.0793  0.3945
 6146TIP3   OH218443   4.454   4.172   4.808 -0.2996  0.1002  0.1289
 6146TIP3    H118444   4.523   4.129   4.858 -0.1074 -2.1179 -1.8905
 6146TIP3    H218445   4.480   4.160   4.716 -2.4247  0.8587 -0.6208
 6147TIP3   OH218446   1.104   4.737   4.637  0.7279 -0.1675  0.3951
 6147TIP3    H118447   1.140   4.708   4.721 -1.6974  0.2255  1.6681
 6147TIP3    H218448   1.031   4.795   4.661  0.2631  0.3484 -2.0006
 6148TIP3   OH218449   5.137   1.964   1.449  0.3023  0.0939  0.6238
 6148TIP3    H118450   5.097   1.955   1.362  0.1543  0.3201  0.6658
 6148TIP3    H218451   5.204   1.896   1.452  0.6706  0.4229  0.1245
 6149TIP3   OH218452   4.074   1.863   1.667 -0.2196  0.0482 -0.4745
 6149TIP3    H118453   4.129   1.886   1.592 -1.4263 -0.5707 -1.6122
 6149TIP3    H218454   4.102   1.922   1.737  1.2017  0.3942 -1.2938
 6150TIP3   OH218455   5.670   5.130   4.141 -0.0132 -0.2522  0.2935
 6150TIP3    H118456   5.595   5.073   4.156 -0.5006  0.2312 -0.2473
 6150TIP3    H218457   5.724   5.121   4.220  0.1374 -1.7794  0.0290
 6151TIP3   OH218458   4.600   4.766   1.202  0.8081 -0.1341  0.3069
 6151TIP3    H118459   4.690   4.779   1.173  1.7618  0.7387  3.2439
 6151TIP3    H218460   4.607   4.697   1.268 -0.6031  0.2123  0.8464
 6152TIP3   OH218461   5.225   3.177   3.453 -0.1682 -0.3390  0.5585
 6152TIP3    H118462   5.222   3.154   3.546  1.3058 -0.6420  0.5401
 6152TIP3    H218463   5.310   3.148   3.423 -0.9601 -1.0497 -1.1264
 6153TIP3   OH218464   3.272   2.264   1.193 -0.2899  0.1029  0.0704
 6153TIP3    H118465   3.348   2.321   1.193  0.2352 -0.5024 -2.1970
 6153TIP3    H218466   3.218   2.295   1.266  1.4046  1.4871  0.7854
 6154TIP3   OH218467   1.345   4.560   2.948  0.4365  0.0459 -0.5149
 6154TIP3    H118468   1.371   4.616   2.875 -0.2964 -2.1584 -2.6029
 6154TIP3    H218469   1.412   4.492   2.951  0.2392 -0.1195  0.6193
 6155TIP3   OH218470   5.152   3.967   1.592  0.7853 -0.2717  0.3106
 6155TIP3    H118471   5.183   3.969   1.501  1.2324 -1.1442  0.4434
 6155TIP3    H218472   5.162   4.058   1.622  2.3746 -0.3436  0.0655
 6156TIP3   OH218473   0.554   4.474   3.165 -0.2906 -0.1449  0.0675
 6156TIP3    H118474   0.552   4.478   3.261  0.1084 -1.3707  0.1394
 6156TIP3    H218475   0.602   4.394   3.145  0.9781  0.8702 -1.1708
 6157TIP3   OH218476   1.491   1.529   3.519  0.0969 -0.0816 -0.9166
 6157TIP3    H118477   1.574   1.574   3.536 -1.8601  2.5996  3.0960
 6157TIP3    H218478   1.446   1.586   3.457 -0.6178  1.3029  0.7852
 6158TIP3   OH218479   5.029   5.250   4.004  0.1295  0.6843  0.0807
 6158TIP3    H118480   5.005   5.232   3.913 -1.7785 -0.1530  0.6958
 6158TIP3    H218481   5.015   5.344   4.014  0.1328  0.7442 -0.4266
 6159TIP3   OH218482   3.111   2.381   0.205 -0.0446  0.0558  0.0457
 6159TIP3    H118483   3.173   2.453   0.192 -0.4620  0.5119  0.5430
 6159TIP3    H218484   3.151   2.329   0.275 -0.7808  1.0065  1.2017
 6160TIP3   OH218485   2.326   2.083   2.140 -0.0998  0.3343 -0.1421
 6160TIP3    H118486   2.255   2.087   2.076 -1.3698  1.2417  1.2414
 6160TIP3    H218487   2.321   2.167   2.187  0.9708 -0.1632  0.9355
 6161TIP3   OH218488   0.311   1.604   3.860  0.1775 -0.1417  0.1940
 6161TIP3    H118489   0.247   1.674   3.848  0.4549  0.3512  1.4135
 6161TIP3    H218490   0.293   1.542   3.789 -1.1673  0.3423  0.0868
 6162TIP3   OH218491   4.774   5.672   2.774 -0.8492 -0.6557 -0.1462
 6162TIP3    H118492   4.699   5.613   2.773 -0.5409 -1.0423 -0.5761
 6162TIP3    H218493   4.850   5.616   2.759 -0.6197 -0.0803 -1.2680
 6163TIP3   OH218494   3.909   4.925   3.078 -0.3268 -0.0017 -0.1790
 6163TIP3    H118495   3.847   4.886   3.140  1.2531 -0.4957  1.1814
 6163TIP3    H218496   3.901   4.872   2.999 -2.0048  0.3080 -0.2659
 6164TIP3   OH218497   0.375   1.318   3.350  0.1672  0.6075  0.1421
 6164TIP3    H118498   0.322   1.240   3.366  0.8652  0.0661 -0.1294
 6164TIP3    H218499   0.340   1.354   3.268 -1.1244  1.4350  1.0048
 6165TIP3   OH218500   2.078   1.511   1.308 -0.0045 -0.6643 -0.1519
 6165TIP3    H118501   2.173   1.509   1.318 -0.1586  0.1425  2.0654
 6165TIP3    H218502   2.045   1.530   1.396 -2.2987 -2.2077 -0.5963
 6166TIP3   OH218503   4.909   5.295   0.273  0.0069 -0.6418  0.4340
 6166TIP3    H118504   4.854   5.373   0.267 -0.7552 -1.2285 -0.4077
 6166TIP3    H218505   4.878   5.250   0.352  0.9167  0.2307  1.3206
 6167TIP3   OH218506   2.606   3.775   0.109  0.4950 -0.1037 -0.1787
 6167TIP3    H118507   2.623   3.681   0.109 -2.0946 -0.6792  1.3133
 6167TIP3    H218508   2.580   3.796   0.019 -1.0159 -1.3256 -0.0655
 6168TIP3   OH218509   3.015   0.580   1.433  0.5922  0.4313  0.1457
 6168TIP3    H118510   3.014   0.623   1.519 -1.2226  0.4965  0.1461
 6168TIP3    H218511   2.957   0.505   1.444  0.8527  0.0787 -0.8568
 6169TIP3   OH218512   1.701   2.080   1.088  0.4557  0.2667  1.0665
 6169TIP3    H118513   1.651   2.050   1.012  1.0120 -0.6797  1.0665
 6169TIP3    H218514   1.790   2.092   1.055  0.0147  3.2855  0.7281
 6170TIP3   OH218515   2.506   3.879   4.693  0.1390  0.4857 -0.6693
 6170TIP3    H118516   2.482   3.969   4.716 -0.0383 -0.2572  2.5640
 6170TIP3    H218517   2.602   3.880   4.690  0.2322  0.4741  1.1740
 6171TIP3   OH218518   3.981   4.261   1.299  0.3645 -0.0599  0.2336
 6171TIP3    H118519   4.025   4.200   1.240  1.8020 -1.3508  2.5161
 6171TIP3    H218520   3.894   4.223   1.312  0.3981 -0.3052 -0.2403
 6172TIP3   OH218521   4.008   0.325   4.857 -0.0299  0.2919 -0.3496
 6172TIP3    H118522   4.006   0.409   4.812 -0.3992 -0.3600 -1.5827
 6172TIP3    H218523   3.917   0.307   4.879  0.2540  1.1135  1.6814
 6173TIP3   OH218524   4.243   0.371   2.645 -0.0577  0.3712  0.3244
 6173TIP3    H118525   4.262   0.429   2.718 -0.7421  0.3940  0.4950
 6173TIP3    H218526   4.240   0.284   2.684  0.3828  0.2885  0.1755
 6174TIP3   OH218527   2.753   4.241   1.852 -0.4054 -0.4590 -0.2341
 6174TIP3    H118528   2.752   4.210   1.762  0.6251  2.0047 -1.1974
 6174TIP3    H218529   2.663   4.268   1.870 -0.6847 -1.2751 -0.3927
 6175TIP3   OH218530   5.646   3.305   0.160  0.0347  0.2436 -0.2462
 6175TIP3    H118531   5.681   3.319   0.248 -0.3367  1.3451 -0.2600
 6175TIP3    H218532   5.694   3.366   0.105  0.0775 -0.2536 -0.7689
 6176TIP3   OH218533   3.734   2.011   5.187 -0.2355 -0.2458 -0.5542
 6176TIP3    H118534   3.687   2.073   5.131 -2.2860  1.4493  2.6715
 6176TIP3    H218535   3.810   2.060   5.218  1.4816 -1.5325 -2.4703
 6177TIP3   OH218536   1.012   5.448   1.651 -0.2402  0.6679 -0.0918
 6177TIP3    H118537   1.016   5.417   1.742 -0.7922  0.3417 -0.1727
 6177TIP3    H218538   1.069   5.388   1.603 -0.3630  0.5102 -0.0443
 6178TIP3   OH218539   5.338   5.961   3.503  0.1869  0.1242 -0.2544
 6178TIP3    H118540   5.311   5.934   3.591 -1.2703 -0.3413 -0.8027
 6178TIP3    H218541   5.412   5.904   3.481 -0.2520 -0.6287  0.1923
 6179TIP3   OH218542   5.115   5.929   2.806  0.2892 -0.7454  0.0744
 6179TIP3    H118543   5.043   5.893   2.753  1.6088 -1.6551 -1.1906
 6179TIP3    H218544   5.076   6.000   2.855 -1.6124 -1.5852 -0.1434
 6180TIP3   OH218545   3.302   2.385   1.570 -0.3877 -0.2298 -0.2626
 6180TIP3    H118546   3.276   2.476   1.582 -0.0505 -0.3793  2.0374
 6180TIP3    H218547   3.302   2.372   1.475  0.5710  2.4405 -0.7055
 6181TIP3   OH218548   5.145   1.619   3.969  0.5778  0.4853 -0.0951
 6181TIP3    H118549   5.068   1.641   4.022 -0.3634  0.2951 -1.3269
 6181TIP3    H218550   5.109   1.573   3.893  2.0511 -0.8736 -0.0239
 6182TIP3   OH218551   1.656   2.091   0.011 -0.8400  0.3099 -0.4921
 6182TIP3    H118552   1.725   2.129  -0.044 -1.2566  0.5809 -0.8293
 6182TIP3    H218553   1.628   2.163   0.067  2.1091 -0.7681  2.7486
 6183TIP3   OH218554   1.640   3.314   3.908  0.1684  0.2083  0.2463
 6183TIP3    H118555   1.691   3.344   3.832 -0.3912 -0.2397 -0.3197
 6183TIP3    H218556   1.620   3.223   3.888 -0.3859  0.2274  0.7209
 6184TIP3   OH218557   5.349   3.066   1.400  0.1191 -0.8024 -0.5356
 6184TIP3    H118558   5.263   3.089   1.436  0.8357  1.2247  0.0517
 6184TIP3    H218559   5.405   3.056   1.477  1.0631  0.9611 -0.9309
 6185TIP3   OH218560   1.543   0.301   0.725 -0.1212  0.6017  0.8467
 6185TIP3    H118561   1.505   0.356   0.794 -0.1632  1.3444  0.2371
 6185TIP3    H218562   1.493   0.322   0.647 -0.4999 -0.7183  0.7117
 6186TIP3   OH218563   5.832   2.998   0.450  0.2844  0.4529 -0.6593
 6186TIP3    H118564   5.847   2.912   0.490 -1.6258  0.6719  0.6839
 6186TIP3    H218565   5.743   2.994   0.416  0.5046  1.6064 -1.4370
 6187TIP3   OH218566   6.274   0.827   3.463 -0.2614 -0.2940 -0.0610
 6187TIP3    H118567   6.319   0.813   3.547 -2.0761  2.3209  1.4842
 6187TIP3    H218568   6.259   0.738   3.429 -0.5125 -1.5269  2.9783
 6188TIP3   OH218569   1.063   1.497   0.308 -0.6380 -0.0399  0.1173
 6188TIP3    H118570   1.022   1.501   0.221 -1.9840 -0.8911  0.6791
 6188TIP3    H218571   0.999   1.452   0.363  1.6059 -2.8250  0.7145
 6189TIP3   OH218572   4.810   3.467   2.041  0.7314  0.0430  0.2629
 6189TIP3    H118573   4.886   3.505   2.084  1.8303 -2.0220  0.2531
 6189TIP3    H218574   4.812   3.375   2.066 -0.3975 -0.5709 -1.6937
 6190TIP3   OH218575   1.132   4.961   2.133  0.6900 -0.8586  0.0411
 6190TIP3    H118576   1.128   4.874   2.175 -0.9061  0.2771  2.5293
 6190TIP3    H218577   1.190   5.011   2.189  0.8803 -0.0625 -0.8520
 6191TIP3   OH218578  -0.005   5.254   2.115  0.0643  0.1053 -0.0523
 6191TIP3    H118579   0.002   5.269   2.209 -1.8434 -0.3256  0.1924
 6191TIP3    H218580   0.026   5.164   2.103  0.6397  0.2776  0.0926
 6192TIP3   OH218581   4.886   2.393   3.220  0.1849  0.3439  0.2017
 6192TIP3    H118582   4.921   2.305   3.218 -1.9662 -0.5948  0.7180
 6192TIP3    H218583   4.891   2.419   3.312 -0.2403  0.2937  0.2411
 6193TIP3   OH218584   0.476   0.441   1.283  0.0280 -0.4459  0.0181
 6193TIP3    H118585   0.437   0.474   1.202 -0.3295 -0.9157 -0.0087
 6193TIP3    H218586   0.431   0.358   1.298 -0.1962 -0.1666  0.9196
 6194TIP3   OH218587   0.687   5.731   0.456 -0.0867 -0.5580 -0.4234
 6194TIP3    H118588   0.666   5.757   0.366  0.0729  1.4077  0.0728
 6194TIP3    H218589   0.783   5.730   0.459 -0.0905  0.0137 -0.0998
 6195TIP3   OH218590   5.157   0.955   0.962  0.2177 -0.2268  0.3356
 6195TIP3    H118591   5.243   0.996   0.955  0.9310 -1.7484 -0.1218
 6195TIP3    H218592   5.136   0.960   1.055  1.5112 -1.1684  0.7151
 6196TIP3   OH218593   3.118   3.519   3.546  0.2286  0.4527  0.1514
 6196TIP3    H118594   3.187   3.493   3.486  0.5849 -1.2582  1.2204
 6196TIP3    H218595   3.155   3.507   3.634 -2.1820 -3.4069  0.8914
 6197TIP3   OH218596   3.055   0.981   4.409  0.1512  0.5037  0.4941
 6197TIP3    H118597   3.025   0.894   4.385 -0.0868  0.4619  0.9209
 6197TIP3    H218598   3.055   0.981   4.505  0.7728  0.7609  0.5025
 6198TIP3   OH218599   4.532   2.988   4.359 -0.0832 -0.5691 -0.2569
 6198TIP3    H118600   4.531   3.071   4.310  0.7353 -1.3819 -1.7319
 6198TIP3    H218601   4.593   3.004   4.431 -0.0909  0.1775 -0.4053
 6199TIP3   OH218602   5.862   1.065   2.969  0.0451  0.0608 -0.6419
 6199TIP3    H118603   5.817   1.144   2.938 -1.5478  0.0679  1.4601
 6199TIP3    H218604   5.921   1.096   3.037  0.4596 -0.4075 -0.7816
 6200TIP3   OH218605   6.365   4.459   2.151 -0.3047 -0.3517  0.0017
 6200TIP3    H118606   6.355   4.554   2.150 -1.1474 -0.4312  0.2974
 6200TIP3    H218607   6.308   4.429   2.223 -1.9354 -1.2657 -1.5785
 6201TIP3   OH218608   1.051   1.471   4.892  0.4851  0.5257 -0.5013
 6201TIP3    H118609   1.128   1.422   4.922  0.2852  1.4671  1.7732
 6201TIP3    H218610   0.979   1.409   4.899  0.6807  0.3071 -0.3829
 6202TIP3   OH218611   1.025   3.000   1.791 -0.7522  0.0451 -0.3346
 6202TIP3    H118612   0.999   3.092   1.787  0.6775  0.5247  0.6191
 6202TIP3    H218613   0.948   2.952   1.760 -2.4446  1.4102  1.4842
 6203TIP3   OH218614   4.641   5.274   0.892 -0.0714 -0.0717  0.1057
 6203TIP3    H118615   4.718   5.231   0.928 -0.3822 -0.6705  0.0686
 6203TIP3    H218616   4.640   5.248   0.799 -0.9703 -1.0609  0.3703
 6204TIP3   OH218617   5.844   4.277   1.844  0.5996  0.1874  0.1891
 6204TIP3    H118618   5.922   4.320   1.808  1.4011  0.8474  2.5573
 6204TIP3    H218619   5.879   4.211   1.904 -0.6750 -0.0628  0.6843
 6205TIP3   OH218620   5.259   1.582   4.893 -0.7566 -0.2544  0.5817
 6205TIP3    H118621   5.315   1.622   4.827 -1.4013 -1.5573 -0.8057
 6205TIP3    H218622   5.191   1.537   4.843 -0.6958 -2.1358  2.0801
 6206TIP3   OH218623   0.022   1.708   4.553 -0.1757  0.1394 -0.1502
 6206TIP3    H118624   0.094   1.759   4.516 -1.0324  1.2965 -0.2896
 6206TIP3    H218625  -0.022   1.671   4.477 -1.4328  1.8285 -0.3106
 6207TIP3   OH218626   0.531   3.585   2.378  1.1569  0.3329  0.0696
 6207TIP3    H118627   0.626   3.597   2.370  1.5020 -0.3810  2.3683
 6207TIP3    H218628   0.516   3.571   2.472 -1.2204  0.2687 -0.2501
 6208TIP3   OH218629   0.359   0.538   2.522  0.1238  0.0262 -0.0501
 6208TIP3    H118630   0.432   0.595   2.495  0.8430 -1.3801 -1.2333
 6208TIP3    H218631   0.319   0.509   2.439 -1.6476  0.5651  0.5722
 6209TIP3   OH218632   3.455   5.199   5.095  0.0409  0.2179 -0.1058
 6209TIP3    H118633   3.435   5.109   5.071  0.3480 -0.1677  1.0465
 6209TIP3    H218634   3.392   5.221   5.163  0.7419  0.4547  0.4783
 6210TIP3   OH218635   3.387   0.893   1.693 -0.7322  0.8106  0.5263
 6210TIP3    H118636   3.365   0.981   1.725 -2.2962  1.4224 -1.8887
 6210TIP3    H218637   3.347   0.834   1.756 -2.7046  1.9217  0.4152
 6211TIP3   OH218638   3.567   4.186   2.619 -0.2144 -0.3724  0.3236
 6211TIP3    H118639   3.493   4.130   2.597  0.3284 -1.2618  0.6912
 6211TIP3    H218640   3.594   4.225   2.535 -1.2562  0.1765  0.2349
 6212TIP3   OH218641   2.968   5.702   3.201 -0.3968 -0.1131 -0.0687
 6212TIP3    H118642   3.012   5.674   3.281  0.5223  0.6096 -0.3061
 6212TIP3    H218643   2.926   5.623   3.168  1.1131 -0.9548 -0.0743
 6213TIP3   OH218644   5.114   4.402   0.667  0.1222  0.1358 -0.2368
 6213TIP3    H118645   5.178   4.472   0.665  0.4154 -0.1368 -0.9367
 6213TIP3    H218646   5.103   4.380   0.759  0.9792  0.2343 -0.1106
 6214TIP3   OH218647   3.511   1.364   0.691 -0.4555  0.4719  0.2833
 6214TIP3    H118648   3.543   1.274   0.693 -0.2752  0.5545  2.0729
 6214TIP3    H218649   3.436   1.361   0.631 -0.9594 -1.0383  0.9455
 6215TIP3   OH218650   5.603   1.337   0.654 -0.1630  0.4916  0.0653
 6215TIP3    H118651   5.657   1.257   0.654  2.0865  1.9132  0.1547
 6215TIP3    H218652   5.594   1.360   0.747 -3.4384 -1.1983  0.3171
 6216TIP3   OH218653   2.484   3.900   1.906  0.1719  0.2794 -0.1201
 6216TIP3    H118654   2.483   3.995   1.892  2.5399  0.6029  1.5106
 6216TIP3    H218655   2.399   3.871   1.873 -0.7320  2.9882 -0.4252
 6217TIP3   OH218656   3.241   1.331   2.954  0.4584  0.9561 -0.4619
 6217TIP3    H118657   3.337   1.321   2.953  0.4328  0.7535 -1.7091
 6217TIP3    H218658   3.219   1.364   2.867 -0.6891  0.2541 -0.4565
 6218TIP3   OH218659   0.923   4.189   3.105 -0.1900 -0.1908 -0.6421
 6218TIP3    H118660   0.927   4.126   3.176  1.5684 -1.1540 -1.5349
 6218TIP3    H218661   0.829   4.199   3.087 -0.5987 -0.8741  0.9344
 6219TIP3   OH218662   6.026  -0.019   0.173 -0.1312 -0.4485 -0.3136
 6219TIP3    H118663   5.955   0.030   0.215 -0.3620  0.1870 -1.3858
 6219TIP3    H218664   6.022   0.009   0.081  0.5991 -1.4911 -0.6734
 6220TIP3   OH218665   5.798   2.808   1.669 -0.0858 -0.1037  0.1180
 6220TIP3    H118666   5.779   2.865   1.595  2.6753  0.0164 -0.5975
 6220TIP3    H218667   5.835   2.866   1.736 -1.9188 -0.3232  1.4197
 6221TIP3   OH218668   3.977   4.019   1.704  0.4619 -0.6293 -0.3390
 6221TIP3    H118669   3.982   4.091   1.767  2.2624 -1.5041  0.6116
 6221TIP3    H218670   3.968   4.062   1.619 -0.1680  0.6472  0.3432
 6222TIP3   OH218671   2.581   3.209   2.570 -0.0003  0.2632  0.1480
 6222TIP3    H118672   2.651   3.170   2.517 -0.2988 -1.2966  0.8602
 6222TIP3    H218673   2.532   3.263   2.508  0.9298  0.1775 -0.6957
 6223TIP3   OH218674   3.833   1.733   1.624  0.1491 -0.0913 -0.5340
 6223TIP3    H118675   3.910   1.785   1.647 -0.0747  0.4075 -0.9012
 6223TIP3    H218676   3.815   1.755   1.533  0.6933 -1.6311 -1.0568
 6224TIP3   OH218677   4.244   0.377   0.796 -0.2244  0.0303 -0.2710
 6224TIP3    H118678   4.159   0.386   0.752  0.3921 -1.8124 -1.9984
 6224TIP3    H218679   4.227   0.318   0.869 -0.2142 -1.4801 -1.4446
 6225TIP3   OH218680   0.653   4.254   2.660 -0.9861  0.2479 -0.2790
 6225TIP3    H118681   0.670   4.257   2.755 -2.1619 -1.0463 -0.0020
 6225TIP3    H218682   0.709   4.184   2.627  0.9152  1.9815 -0.9251
 6226TIP3   OH218683   0.586   1.351   3.518  0.1717 -0.1464 -0.1548
 6226TIP3    H118684   0.533   1.356   3.439 -1.4163  0.6029  0.9026
 6226TIP3    H218685   0.629   1.265   3.513 -0.1524 -0.2389 -1.6521
 6227TIP3   OH218686   4.876   3.937   2.089 -0.1315 -0.5535 -0.2707
 6227TIP3    H118687   4.925   3.915   2.169 -0.5632 -1.6407 -0.2897
 6227TIP3    H218688   4.847   4.027   2.103 -0.5495 -0.8614  0.9867
 6228TIP3   OH218689   2.846   2.682   3.948  0.2787 -0.3335  0.9613
 6228TIP3    H118690   2.798   2.612   3.991  0.1772 -1.5767 -1.0299
 6228TIP3    H218691   2.816   2.679   3.857  1.9076  0.8398  0.3349
 6229TIP3   OH218692   1.843   5.774   4.608  0.7235  0.1761 -0.0964
 6229TIP3    H118693   1.922   5.778   4.553  0.8162  2.4797  0.1146
 6229TIP3    H218694   1.877   5.761   4.696  0.9357  1.6017  0.0531
 6230TIP3   OH218695   2.258   3.792   3.966 -0.3980 -0.7982  0.1551
 6230TIP3    H118696   2.348   3.761   3.978 -0.3431 -1.6789 -2.0898
 6230TIP3    H218697   2.268   3.882   3.935 -0.1308 -1.5912 -2.2377
 6231TIP3   OH218698   1.806   3.329   3.067  0.3048  0.0007 -0.1250
 6231TIP3    H118699   1.894   3.367   3.058  0.2625 -0.2719 -2.3191
 6231TIP3    H218700   1.818   3.237   3.045 -0.4769 -0.1191 -0.0601
 6232TIP3   OH218701   2.854   2.378   2.853  0.2064 -0.4275 -0.4596
 6232TIP3    H118702   2.881   2.310   2.792  0.3806 -0.0124 -0.8556
 6232TIP3    H218703   2.837   2.454   2.798 -1.8329 -0.6717 -0.2412
 6233TIP3   OH218704   1.938   0.272   3.619 -0.3150  0.0569  0.3347
 6233TIP3    H118705   1.892   0.190   3.637 -0.6074  0.3186  0.7955
 6233TIP3    H218706   1.953   0.270   3.524 -0.4732 -0.4485  0.3141
 6234TIP3   OH218707   2.358   5.817   4.413 -0.1975 -0.0870  0.1144
 6234TIP3    H118708   2.332   5.753   4.479 -0.3681 -0.7457 -0.5827
 6234TIP3    H218709   2.331   5.779   4.330 -1.4624  1.4419 -0.2380
 6235TIP3   OH218710   3.504   5.736   4.955  0.1260  0.0802  0.2684
 6235TIP3    H118711   3.410   5.753   4.968  0.1382  0.5631 -0.2573
 6235TIP3    H218712   3.542   5.822   4.938  0.5005 -0.2456 -0.5655
 6236TIP3   OH218713   3.186   5.592   1.086  0.4019 -0.3344 -0.4102
 6236TIP3    H118714   3.184   5.612   1.179 -3.7284 -0.0907 -0.3802
 6236TIP3    H218715   3.279   5.596   1.062  1.3908  1.7768  3.1755
 6237TIP3   OH218716   4.748   2.796   0.714 -0.1405  0.0610  0.0419
 6237TIP3    H118717   4.731   2.702   0.719 -1.1221  0.1623 -1.0730
 6237TIP3    H218718   4.690   2.835   0.779  0.1171 -0.0781  0.3597
 6238TIP3   OH218719   1.652   5.455   4.004  0.0194  0.0725  0.0934
 6238TIP3    H118720   1.654   5.550   3.990  0.1889  0.0881  0.2196
 6238TIP3    H218721   1.743   5.432   4.020  0.0004 -0.1381 -0.0984
 6239TIP3   OH218722   4.562   3.945   0.881 -0.2183 -0.0503 -0.8960
 6239TIP3    H118723   4.561   3.878   0.812 -2.0563 -2.2167  1.0626
 6239TIP3    H218724   4.473   3.980   0.881  0.5296  1.9391 -1.3977
 6240TIP3   OH218725   5.238   5.564   0.606  0.6788 -0.1183 -0.4959
 6240TIP3    H118726   5.177   5.514   0.660  0.6180 -0.2225 -0.6619
 6240TIP3    H218727   5.192   5.645   0.586  1.6122  1.0591  1.6961
 6241TIP3   OH218728   0.841   3.613   2.354 -0.1521  0.0060 -0.2421
 6241TIP3    H118729   0.887   3.537   2.390 -0.1922  1.0609  2.2887
 6241TIP3    H218730   0.910   3.667   2.315  0.4788  0.4412  1.3958
 6242TIP3   OH218731   6.217   0.305   0.023 -0.2458 -0.1027  0.0611
 6242TIP3    H118732   6.164   0.249  -0.033  0.9268 -1.1819 -0.0028
 6242TIP3    H218733   6.206   0.269   0.111 -0.4864  0.3594  0.2280
 6243TIP3   OH218734   2.999   1.818   1.233  0.6031 -0.2193 -0.1846
 6243TIP3    H118735   3.053   1.745   1.202  0.9272 -0.1588  0.2216
 6243TIP3    H218736   2.913   1.780   1.250 -0.2844  0.1373 -3.2091
 6244TIP3   OH218737   1.654   3.708   2.135 -0.0920  0.0117  0.1784
 6244TIP3    H118738   1.584   3.654   2.099  0.0050  0.4707 -0.7406
 6244TIP3    H218739   1.729   3.649   2.141 -0.1864 -0.1433 -0.1241
 6245TIP3   OH218740   1.710   3.568   1.049  0.2446 -0.0501 -0.8022
 6245TIP3    H118741   1.724   3.475   1.066 -0.1001  0.2302  1.2643
 6245TIP3    H218742   1.615   3.578   1.041  0.2965  0.0977 -1.2923
 6246TIP3   OH218743   0.138   3.789   1.624  0.4289 -0.4266  0.0658
 6246TIP3    H118744   0.118   3.711   1.573  2.5471 -0.2902 -1.0585
 6246TIP3    H218745   0.217   3.767   1.673 -0.5192  0.0971  1.9048
 6247TIP3   OH218746   1.017   0.033   4.055 -0.0967 -0.1738 -0.5227
 6247TIP3    H118747   1.018  -0.049   4.104 -0.7762 -0.7953 -1.5241
 6247TIP3    H218748   0.933   0.032   4.009 -0.6560  1.6378  0.3598
 6248TIP3   OH218749   3.818   5.190   3.646  0.1048  0.3940  0.4179
 6248TIP3    H118750   3.781   5.203   3.559  0.8290  0.3627  0.0970
 6248TIP3    H218751   3.779   5.108   3.676 -0.8354  0.8619  0.4994
 6249TIP3   OH218752   6.079   2.313   4.247 -0.0867 -0.3213  0.4535
 6249TIP3    H118753   6.043   2.289   4.333 -0.6048  0.9690  0.6259
 6249TIP3    H218754   6.015   2.280   4.184 -2.9659  3.7831  0.8145
 6250TIP3   OH218755   2.366   4.807   4.545  0.0952 -0.0177  0.4838
 6250TIP3    H118756   2.400   4.764   4.623  1.1626  0.4327  0.2894
 6250TIP3    H218757   2.287   4.757   4.522 -0.8188  0.4542  2.4072
 6251TIP3   OH218758   5.783   5.217   1.041  0.3835 -0.5884  0.6407
 6251TIP3    H118759   5.716   5.186   0.980  1.7739 -1.8022 -0.3552
 6251TIP3    H218760   5.826   5.138   1.072  3.1985  0.1360 -0.9855
 6252TIP3   OH218761   3.155   0.341   4.267  0.7809 -0.4703 -0.5730
 6252TIP3    H118762   3.182   0.386   4.347 -1.0335  1.5183 -0.9949
 6252TIP3    H218763   3.072   0.382   4.243  0.8946 -1.5229 -3.0802
 6253TIP3   OH218764   0.511   2.354   3.059  0.5720 -0.1183  0.2177
 6253TIP3    H118765   0.557   2.272   3.077  2.8707  1.3034  1.2087
 6253TIP3    H218766   0.420   2.336   3.083  0.9745 -2.4117  0.2233
 6254TIP3   OH218767   5.373   1.201   2.367 -0.0685 -0.1861  0.6703
 6254TIP3    H118768   5.340   1.285   2.401  0.6594  0.3944 -0.0247
 6254TIP3    H218769   5.413   1.223   2.283  1.8383 -0.9025  1.3453
 6255TIP3   OH218770   1.731   3.188   2.262  0.3460  0.2164 -0.0917
 6255TIP3    H118771   1.796   3.203   2.331 -0.4813  1.7703  0.3866
 6255TIP3    H218772   1.655   3.238   2.289 -0.1955  0.4455 -1.8957
 6256TIP3   OH218773   4.163   2.577   3.557  0.6460  0.2914 -0.7058
 6256TIP3    H118774   4.101   2.539   3.495  1.0764 -1.0381 -0.3425
 6256TIP3    H218775   4.110   2.637   3.610 -0.8033 -2.2271  0.8805
 6257TIP3   OH218776   4.052   4.194   3.311 -0.0102  0.8192  0.2684
 6257TIP3    H118777   4.008   4.197   3.227  2.6692 -0.7887 -1.3368
 6257TIP3    H218778   3.987   4.156   3.371 -1.0352 -0.9431 -1.8145
 6258TIP3   OH218779   5.160   0.929   1.760  0.6536 -0.1248  0.5129
 6258TIP3    H118780   5.088   0.898   1.706 -0.6979  1.4436  1.3293
 6258TIP3    H218781   5.202   0.849   1.792 -0.7990 -1.0913  0.1153
 6259TIP3   OH218782   0.832   2.995   4.595  0.7326  0.1188  0.4771
 6259TIP3    H118783   0.900   2.930   4.580 -0.9983 -2.0320  1.3946
 6259TIP3    H218784   0.768   2.980   4.525  0.8395  1.6952 -0.0126
 6260TIP3   OH218785   2.077   4.255   1.758  0.1450 -0.2137  0.4138
 6260TIP3    H118786   2.139   4.252   1.685  0.8418 -1.0521  1.0328
 6260TIP3    H218787   1.992   4.238   1.717 -0.0677  3.0007 -0.7834
 6261TIP3   OH218788   4.004   0.569   1.448  0.7124 -0.5033 -0.3885
 6261TIP3    H118789   3.934   0.608   1.394  2.0049  0.8431 -1.1595
 6261TIP3    H218790   3.966   0.565   1.536 -0.9484 -1.4449 -1.0916
 6262TIP3   OH218791   0.206   2.106   4.145  0.6003  0.1717 -0.2771
 6262TIP3    H118792   0.118   2.139   4.126  1.0445  1.7427  0.2128
 6262TIP3    H218793   0.213   2.112   4.240  0.8744 -0.9723 -0.2115
 6263TIP3   OH218794   0.981   0.884   2.180 -0.1558  0.0035  0.0690
 6263TIP3    H118795   0.927   0.847   2.250  0.9745 -2.6548 -0.3733
 6263TIP3    H218796   1.063   0.908   2.224 -0.5434  1.2160  0.1738
 6264TIP3   OH218797   5.520   3.030   4.008 -0.1772 -0.3444 -0.1332
 6264TIP3    H118798   5.465   3.050   3.932  0.2123  0.1725 -0.2864
 6264TIP3    H218799   5.515   2.935   4.018 -2.1114 -0.2164  0.6249
 6265TIP3   OH218800   2.183   5.189   2.714 -0.3126 -0.4681  0.2742
 6265TIP3    H118801   2.251   5.256   2.728  0.3434 -0.9989 -0.2897
 6265TIP3    H218802   2.232   5.107   2.709 -0.9042 -0.7700 -0.9503
 6266TIP3   OH218803   4.331   2.993   0.286 -0.2872  0.1971  0.0894
 6266TIP3    H118804   4.292   3.015   0.371  0.9176 -0.3317  0.8100
 6266TIP3    H218805   4.388   3.068   0.266 -1.6318  0.9753 -0.9624
 6267TIP3   OH218806   1.078   1.118   4.185  0.2790  0.0586 -0.7007
 6267TIP3    H118807   1.043   1.129   4.274 -2.7905  3.6688 -2.0681
 6267TIP3    H218808   1.023   1.051   4.146  0.6762 -0.4871 -0.3427
 6268TIP3   OH218809   5.974   3.032   2.295  0.0728 -0.7169  0.9383
 6268TIP3    H118810   6.046   2.976   2.324 -1.2993 -2.8909  0.4188
 6268TIP3    H218811   6.001   3.121   2.318  3.1655 -1.3523  0.1900
 6269TIP3   OH218812   5.177   4.496   3.416 -0.1494 -0.0528  0.3198
 6269TIP3    H118813   5.252   4.476   3.471 -0.5273 -1.8711  0.2204
 6269TIP3    H218814   5.101   4.481   3.472 -0.4842  1.5704  0.3591
 6270TIP3   OH218815   1.535   0.958   4.431  0.1991  0.3847  0.2585
 6270TIP3    H118816   1.502   0.893   4.368 -1.0093  1.3639 -0.1518
 6270TIP3    H218817   1.592   1.015   4.379 -0.3795  0.8748  0.1452
 6271TIP3   OH218818   4.191   2.823   4.966  0.0786 -0.2058  0.2952
 6271TIP3    H118819   4.282   2.805   4.943 -0.0443 -0.0473 -0.3372
 6271TIP3    H218820   4.174   2.765   5.041  0.8984  0.2596  0.8630
 6272TIP3   OH218821   3.796   4.394   4.089  0.1206 -0.0740 -0.4127
 6272TIP3    H118822   3.793   4.417   4.182 -0.2235  0.2162 -0.4922
 6272TIP3    H218823   3.852   4.462   4.049 -2.1640  1.6454 -0.9133
 6273TIP3   OH218824   2.056   2.608   2.544 -0.2945  0.2244  0.5035
 6273TIP3    H118825   1.966   2.614   2.512 -0.2078 -0.4444  0.1156
 6273TIP3    H218826   2.110   2.604   2.465 -0.0709 -1.3422  0.6917
 6274TIP3   OH218827   6.160   5.505   3.805  0.0015  0.2697 -0.5672
 6274TIP3    H118828   6.225   5.511   3.735  0.8513  0.4275  0.2000
 6274TIP3    H218829   6.095   5.571   3.783 -0.2649 -0.3577 -1.7101
 6275TIP3   OH218830   4.796   0.236   4.552 -0.1268 -0.1539  0.6152
 6275TIP3    H118831   4.731   0.243   4.482  0.2569 -2.3057 -0.0024
 6275TIP3    H218832   4.804   0.142   4.569  0.2616  0.2544  3.1358
 6276TIP3   OH218833   5.529   0.267   0.198 -0.3449  0.1545  0.0477
 6276TIP3    H118834   5.478   0.267   0.279 -0.4968  1.0285 -0.0392
 6276TIP3    H218835   5.497   0.344   0.150 -0.3599 -0.4306 -0.9040
 6277TIP3   OH218836   6.249   2.675   3.870 -0.0222  0.1760 -0.1202
 6277TIP3    H118837   6.220   2.585   3.854 -0.7449  0.1768  1.0227
 6277TIP3    H218838   6.343   2.668   3.884 -0.2202 -0.5769  0.9754
 6278TIP3   OH218839   3.174   4.815   0.953 -0.7127  0.1160  0.5653
 6278TIP3    H118840   3.219   4.784   1.032 -0.2574 -1.5426 -0.2965
 6278TIP3    H218841   3.240   4.864   0.905  0.0076 -1.5982 -0.2888
 6279TIP3   OH218842   2.502   1.806   1.085 -0.1290 -0.4536  0.2897
 6279TIP3    H118843   2.539   1.888   1.119 -1.0479 -0.2165  0.7231
 6279TIP3    H218844   2.578   1.760   1.049  0.2713  1.0096 -0.8544
 6280TIP3   OH218845   2.323   3.182   2.700 -0.2098  0.2391 -0.2096
 6280TIP3    H118846   2.351   3.131   2.624  0.0995 -1.0152  0.7294
 6280TIP3    H218847   2.405   3.206   2.744 -0.4548 -0.5860  0.7134
 6281TIP3   OH218848   3.015   3.081   3.566 -0.1279 -0.0839 -0.7627
 6281TIP3    H118849   3.052   3.114   3.647 -2.2349  0.4748  0.0373
 6281TIP3    H218850   3.037   3.148   3.500 -0.2430  0.5300 -0.1862
 6282TIP3   OH218851   2.534   0.803   4.039  0.6126 -0.9292  0.4284
 6282TIP3    H118852   2.440   0.816   4.027  0.8237  0.8257  0.2846
 6282TIP3    H218853   2.574   0.853   3.967  1.6728  1.0021  2.2310
 6283TIP3   OH218854   2.666   1.246   3.930  0.1243 -0.4368 -0.5705
 6283TIP3    H118855   2.595   1.184   3.914 -0.9295  0.1855  1.4226
 6283TIP3    H218856   2.729   1.198   3.983 -1.5599  0.5930  2.5920
 6284TIP3   OH218857   1.952   1.291   1.757 -0.3060 -0.0009 -0.2920
 6284TIP3    H118858   2.013   1.261   1.824 -0.0342 -0.1451 -0.6038
 6284TIP3    H218859   1.926   1.211   1.711 -0.1458  0.1552 -0.6518
 6285TIP3   OH218860   5.195   3.556   1.194 -0.1064 -0.0855  0.5306
 6285TIP3    H118861   5.275   3.507   1.215 -1.3521 -1.3372  2.7317
 6285TIP3    H218862   5.191   3.625   1.261  0.7111  2.0632 -1.4948
 6286TIP3   OH218863   0.453   1.169   5.063  0.0630 -0.5545 -0.3865
 6286TIP3    H118864   0.424   1.149   5.152 -2.0417  3.8742  0.1955
 6286TIP3    H218865   0.386   1.129   5.006 -0.7791 -0.1432  0.2934
 6287TIP3   OH218866   4.559   5.912   4.213  0.1297 -0.6790 -0.0358
 6287TIP3    H118867   4.474   5.879   4.243  0.0565 -0.9644 -0.5522
 6287TIP3    H218868   4.543   5.940   4.122  1.0263 -2.4653 -0.7982
 6288TIP3   OH218869   1.389   1.309   3.643  0.1650  0.5884 -0.4733
 6288TIP3    H118870   1.449   1.292   3.715  0.6969 -0.0732 -1.0546
 6288TIP3    H218871   1.433   1.376   3.590  2.0975 -2.2181 -2.7506
 6289TIP3   OH218872   5.636   5.008   4.622 -0.0675  0.1524 -0.3550
 6289TIP3    H118873   5.622   4.914   4.625 -0.9669  0.2311 -1.5483
 6289TIP3    H218874   5.672   5.029   4.708 -1.1024 -1.0824  0.4222
 6290TIP3   OH218875   1.595   2.345   0.097 -0.1927  0.1188  0.4652
 6290TIP3    H118876   1.544   2.411   0.050 -1.3425  0.9768  2.8080
 6290TIP3    H218877   1.678   2.389   0.117 -0.5233  0.4634  1.0669
 6291TIP3   OH218878   4.801   5.660   4.683 -0.1333 -0.2449 -0.1097
 6291TIP3    H118879   4.735   5.721   4.648 -0.3271  0.0928  0.8232
 6291TIP3    H218880   4.753   5.579   4.699  0.3651 -1.0939 -2.4869
 6292TIP3   OH218881   4.105   4.770   2.842 -0.2026  0.3977 -0.2968
 6292TIP3    H118882   4.190   4.815   2.840  0.6082 -1.0914 -1.2117
 6292TIP3    H218883   4.109   4.715   2.920 -2.0307  3.2917  2.0538
 6293TIP3   OH218884   5.683   2.244   0.083 -0.1302 -0.1995  0.3514
 6293TIP3    H118885   5.664   2.214   0.173 -0.4007 -0.4324  0.2207
 6293TIP3    H218886   5.659   2.169   0.028  0.3071 -0.1583  0.1068
 6294TIP3   OH218887   3.007   4.711   2.423 -0.0848 -0.0046 -0.4659
 6294TIP3    H118888   2.944   4.651   2.383 -2.0647  1.4318  0.2841
 6294TIP3    H218889   2.966   4.737   2.505  1.1577  1.5682 -0.2898
 6295TIP3   OH218890   2.344   0.447   4.626  0.0219  0.1964 -0.3331
 6295TIP3    H118891   2.326   0.372   4.682 -0.7807 -0.4902 -1.4506
 6295TIP3    H218892   2.273   0.509   4.644  1.6848  1.5997  1.9694
 6296TIP3   OH218893   4.665   1.445   1.579  0.0053 -0.0677  0.2033
 6296TIP3    H118894   4.673   1.460   1.673  1.5703 -0.1464  0.0949
 6296TIP3    H218895   4.615   1.520   1.547  0.9836  0.8657  0.8333
 6297TIP3   OH218896   3.910   3.075   3.992 -0.1690  0.2518  0.1772
 6297TIP3    H118897   3.854   3.152   4.007  0.5830  0.6194  1.1897
 6297TIP3    H218898   3.871   3.006   4.045 -0.7243 -0.0252 -0.5715
 6298TIP3   OH218899   2.231   3.862   1.806  0.2149  0.2726  0.2855
 6298TIP3    H118900   2.137   3.876   1.818  0.0051 -1.4146  0.8809
 6298TIP3    H218901   2.261   3.941   1.762 -1.4828  0.8455  0.0634
 6299TIP3   OH218902   4.549   3.876   1.813  0.1680 -0.1099  0.5955
 6299TIP3    H118903   4.612   3.832   1.869  0.1389  1.3368  1.8307
 6299TIP3    H218904   4.476   3.815   1.805  1.9111 -2.0936 -1.4071
 6300TIP3   OH218905   0.204   3.343   3.957 -0.7010 -0.6985 -0.0213
 6300TIP3    H118906   0.198   3.404   3.884 -0.6829 -0.4640  0.1688
 6300TIP3    H218907   0.179   3.395   4.034 -0.8793 -0.9851  0.1169
 6301TIP3   OH218908   6.244   4.027   1.249 -0.1183  0.4228 -0.5917
 6301TIP3    H118909   6.246   4.043   1.155 -1.8923 -0.0210 -0.7267
 6301TIP3    H218910   6.219   3.935   1.257  0.0587  0.4439  0.3310
 6302TIP3   OH218911   6.021   1.600   2.614  0.0178 -0.0611 -0.2607
 6302TIP3    H118912   5.938   1.638   2.642  0.6658  1.4581 -0.2762
 6302TIP3    H218913   6.055   1.662   2.549  1.1630 -0.6533 -0.2599
 6303TIP3   OH218914   1.437   2.596   1.246  0.2458  0.0224 -0.2077
 6303TIP3    H118915   1.370   2.651   1.287 -0.2132 -1.3913  1.0141
 6303TIP3    H218916   1.423   2.609   1.152 -2.5173 -1.0401 -0.0348
 6304TIP3   OH218917   5.983   2.114   0.748  0.1525  0.0453  0.1803
 6304TIP3    H118918   5.995   2.135   0.841 -1.0952  0.5759  0.2399
 6304TIP3    H218919   5.927   2.036   0.748  0.9059 -0.5086 -0.1245
 6305TIP3   OH218920   3.908   1.958   2.602  0.1597  0.2442 -0.3586
 6305TIP3    H118921   3.831   1.996   2.645 -0.4946 -1.5425  0.1518
 6305TIP3    H218922   3.895   1.977   2.509 -0.4876  0.6735 -0.1902
 6306TIP3   OH218923   1.113   5.211   2.865 -0.2358 -0.1872  0.5803
 6306TIP3    H118924   1.089   5.213   2.957 -0.5686  0.4785  0.4840
 6306TIP3    H218925   1.072   5.289   2.827 -1.3215 -1.2230 -0.4373
 6307TIP3   OH218926   0.771   5.715   1.924  0.1067 -0.6430 -0.4982
 6307TIP3    H118927   0.789   5.750   2.011 -0.6510 -0.0912 -0.5521
 6307TIP3    H218928   0.745   5.624   1.939 -1.1763 -0.2162 -0.0220
 6308TIP3   OH218929   0.988   3.085   2.086 -0.2486  0.0700 -0.3933
 6308TIP3    H118930   1.012   2.994   2.073  1.6453  0.5563 -0.7277
 6308TIP3    H218931   0.933   3.107   2.011 -1.1269 -0.8959 -0.0564
 6309TIP3   OH218932   4.940   0.039   2.929  0.1283  0.3776 -0.6281
 6309TIP3    H118933   4.925  -0.056   2.926 -0.1514  0.3432  1.0313
 6309TIP3    H218934   4.853   0.076   2.945  0.5515  0.7258  1.0713
 6310TIP3   OH218935   0.879   1.199   4.926 -0.0559 -0.2665  0.0280
 6310TIP3    H118936   0.952   1.162   4.876 -0.8178 -0.6037 -0.8603
 6310TIP3    H218937   0.818   1.127   4.936 -0.8770  0.3584 -0.3987
 6311TIP3   OH218938   3.300   5.425   3.311  0.7166 -0.3603 -0.4793
 6311TIP3    H118939   3.211   5.447   3.336  1.0914  0.0369  0.5570
 6311TIP3    H218940   3.292   5.386   3.223 -0.4058  0.1173 -0.5992
 6312TIP3   OH218941   2.296   4.844   3.376 -0.2729 -0.2560 -0.3684
 6312TIP3    H118942   2.303   4.877   3.466 -1.7135  0.3540 -0.4519
 6312TIP3    H218943   2.291   4.923   3.322  0.4416 -0.6201 -0.9780
 6313TIP3   OH218944   5.385   0.138   3.983 -0.2028  0.7245  0.0081
 6313TIP3    H118945   5.341   0.077   4.042  1.5116 -0.0218  0.5985
 6313TIP3    H218946   5.343   0.124   3.898 -1.7951  0.8360  0.7447
 6314TIP3   OH218947   4.721   3.203   2.548 -0.0027  0.3095  0.1571
 6314TIP3    H118948   4.697   3.176   2.637  1.7639  0.1446  0.6341
 6314TIP3    H218949   4.652   3.166   2.493  0.0396 -1.5588  1.2369
 6315TIP3   OH218950   3.021   4.394   0.437  0.2213 -0.2888 -0.1442
 6315TIP3    H118951   2.938   4.395   0.485  1.4457  0.2094  2.0659
 6315TIP3    H218952   3.049   4.485   0.435  0.6475 -0.4267 -1.0491
 6316TIP3   OH218953   0.283   4.056   2.825  0.4097  0.1444 -0.2803
 6316TIP3    H118954   0.377   4.038   2.828  0.6538  1.0909 -1.5943
 6316TIP3    H218955   0.274   4.130   2.765 -1.1841  0.0483 -0.2046
 6317TIP3   OH218956   0.051   2.445   4.594 -0.0444 -0.3745  0.1239
 6317TIP3    H118957   0.107   2.458   4.670  3.1346  0.0520 -2.0855
 6317TIP3    H218958   0.036   2.350   4.591  0.6417 -0.5104  0.7329
 6318TIP3   OH218959   4.484   5.694   1.805 -0.0409  0.0526 -0.0054
 6318TIP3    H118960   4.408   5.737   1.766  1.1941 -0.2408 -3.0677
 6318TIP3    H218961   4.450   5.611   1.838 -1.2874  0.5275 -0.0566
 6319TIP3   OH218962   1.794   0.192   0.782  0.6101  0.4543 -0.2363
 6319TIP3    H118963   1.838   0.265   0.825  0.3951  0.3022  0.2480
 6319TIP3    H218964   1.716   0.229   0.743  0.9376  0.6422 -0.7200
 6320TIP3   OH218965   4.783   2.477   5.158  0.5919 -0.0760  0.4634
 6320TIP3    H118966   4.811   2.473   5.067 -1.8944  2.6836 -0.5916
 6320TIP3    H218967   4.863   2.495   5.207  1.5662  2.0648 -1.6782
 6321TIP3   OH218968   2.824   2.065   1.952  0.4355 -0.2475  0.3472
 6321TIP3    H118969   2.870   2.138   1.911  0.3849 -0.1821  0.4068
 6321TIP3    H218970   2.799   2.098   2.038 -0.8112  0.1450 -0.1478
 6322TIP3   OH218971   3.636   5.115   2.495 -1.2642  0.4661 -0.1708
 6322TIP3    H118972   3.646   5.208   2.477 -1.2069  0.7347  1.1255
 6322TIP3    H218973   3.725   5.080   2.495 -0.9976  1.0025  2.1397
 6323TIP3   OH218974   4.766   0.350   3.385  0.3492  0.0463 -0.1318
 6323TIP3    H118975   4.719   0.433   3.373  0.0314 -0.0219  0.5991
 6323TIP3    H218976   4.725   0.310   3.462  1.9680  0.2440  0.8885
 6324TIP3   OH218977   5.077   0.489   1.889 -0.0270 -0.5356 -0.0127
 6324TIP3    H118978   5.116   0.435   1.957  1.7225  1.6530  0.8618
 6324TIP3    H218979   5.134   0.478   1.813 -0.1376 -0.5348 -0.0978
 6325TIP3   OH218980   5.657   0.137   2.934  0.1107 -0.1452 -0.2013
 6325TIP3    H118981   5.736   0.155   2.985 -0.1712  1.2002 -0.2195
 6325TIP3    H218982   5.619   0.060   2.976  0.7462 -0.0277  0.6106
 6326TIP3   OH218983   5.610   2.876   4.480  0.2069  0.3352 -0.0675
 6326TIP3    H118984   5.634   2.866   4.388  0.8699  0.0020  0.1397
 6326TIP3    H218985   5.598   2.970   4.492  0.1953  0.3868 -0.4748
 6327TIP3   OH218986   1.911   5.813   0.092 -0.2356  0.6143 -0.1932
 6327TIP3    H118987   1.927   5.858   0.176 -0.6027  0.9479 -0.2973
 6327TIP3    H218988   1.998   5.787   0.062 -0.1940 -0.4719  0.8146
 6328TIP3   OH218989   4.862   5.214   2.344  0.4027  0.4826  0.3572
 6328TIP3    H118990   4.839   5.301   2.313  2.8893  0.3263 -2.4132
 6328TIP3    H218991   4.781   5.163   2.334 -0.4781  1.9276 -0.1684
 6329TIP3   OH218992   1.611   4.169   3.308 -0.2345  0.1558  0.1711
 6329TIP3    H118993   1.573   4.257   3.302  0.2554  0.3334 -0.5059
 6329TIP3    H218994   1.593   4.129   3.223 -1.9723 -1.0642  1.0437
 6330TIP3   OH218995   5.819   2.426   4.401 -0.3621  0.3729  0.7115
 6330TIP3    H118996   5.873   2.505   4.393 -2.9861  2.2250 -0.1751
 6330TIP3    H218997   5.746   2.452   4.457 -0.3550 -2.0689  2.0016
 6331TIP3   OH218998   6.132   4.821   1.341 -0.6141 -0.2512 -0.6979
 6331TIP3    H118999   6.205   4.881   1.358  0.0661 -1.4201  0.7245
 6331TIP3    H219000   6.138   4.803   1.247 -0.0139  0.8294 -0.8936
 6332TIP3   OH219001   2.734   0.909   2.712 -0.3590  0.4799  0.5017
 6332TIP3    H119002   2.756   0.927   2.620  0.6051  1.1234  0.8537
 6332TIP3    H219003   2.643   0.877   2.708  0.4567 -1.9843 -0.9470
 6333TIP3   OH219004   4.887   0.806   0.592 -0.2972  0.2083  0.3558
 6333TIP3    H119005   4.807   0.752   0.589 -0.8111  0.9504  0.4662
 6333TIP3    H219006   4.942   0.771   0.523 -1.2660  0.5207 -0.6038
 6334TIP3   OH219007   3.323   5.906   4.782 -0.1444 -0.2648 -0.0608
 6334TIP3    H119008   3.296   5.835   4.840 -0.4664  0.2891  0.4787
 6334TIP3    H219009   3.302   5.986   4.830  0.7277  0.1962 -0.4280
 6335TIP3   OH219010   4.346   2.929   3.033 -0.4405  0.2317  0.3773
 6335TIP3    H119011   4.258   2.907   3.001 -1.3429 -0.7844  3.2145
 6335TIP3    H219012   4.404   2.875   2.980 -1.8288 -1.3066  0.2971
 6336TIP3   OH219013   1.608   3.105   4.780  0.0805  0.1433  0.2342
 6336TIP3    H119014   1.563   3.172   4.831  0.8475 -0.2495  1.5004
 6336TIP3    H219015   1.594   3.130   4.689  0.7993  2.3393  0.6621
 6337TIP3   OH219016   0.982   3.040   2.375  0.2707 -0.0997  0.0422
 6337TIP3    H119017   0.986   3.074   2.285 -1.8806 -0.6918 -0.3516
 6337TIP3    H219018   0.992   2.946   2.365  0.7509 -0.1037  0.5194
 6338TIP3   OH219019   1.950   4.742   2.137 -0.1292  0.5992  0.0758
 6338TIP3    H119020   1.971   4.718   2.047  0.5940  1.8429 -0.1090
 6338TIP3    H219021   1.986   4.671   2.190  1.5785  1.0220 -0.4708
 6339TIP3   OH219022   0.036   5.460   1.933  0.7570  0.5470 -0.3289
 6339TIP3    H119023  -0.004   5.381   1.971 -0.5188  1.6499  0.7280
 6339TIP3    H219024   0.055   5.515   2.009  0.9179  1.5847 -1.1070
 6340TIP3   OH219025   2.739   1.206   0.162 -0.5041 -0.2471  0.1745
 6340TIP3    H119026   2.720   1.258   0.084  3.3307  0.3712 -0.5137
 6340TIP3    H219027   2.674   1.135   0.160 -2.0873  1.1397 -2.1314
 6341TIP3   OH219028   3.696   5.146   4.091 -0.7782  0.1898 -0.2457
 6341TIP3    H119029   3.614   5.096   4.090  0.5506 -2.1616 -0.3418
 6341TIP3    H219030   3.753   5.096   4.151  0.5776  1.7789 -0.1369
 6342TIP3   OH219031   0.238   5.001   1.233  0.6758 -0.0857  0.5425
 6342TIP3    H119032   0.150   5.007   1.195  0.4432  0.2271  1.1145
 6342TIP3    H219033   0.291   5.058   1.179  0.3204  0.4516  0.7527
 6343TIP3   OH219034   1.388   1.623   0.791  0.3509 -0.7195 -0.1738
 6343TIP3    H119035   1.324   1.694   0.793  3.1093  2.0281 -1.8735
 6343TIP3    H219036   1.388   1.589   0.881 -1.9643  0.5411  0.3839
 6344TIP3   OH219037   1.514   5.281   4.305  0.2619  0.6296  0.2445
 6344TIP3    H119038   1.470   5.310   4.225 -1.0886 -1.0524  0.3274
 6344TIP3    H219039   1.449   5.226   4.349  1.8965 -0.5816  1.2149
 6345TIP3   OH219040   1.937   5.366   2.845  0.5642 -0.1613  0.2962
 6345TIP3    H119041   1.923   5.441   2.902  2.1542  1.5154 -1.3520
 6345TIP3    H219042   2.032   5.360   2.837  0.4158 -0.9053 -1.3965
 6346TIP3   OH219043   2.965   1.220   0.802 -0.4647  0.2249  0.2414
 6346TIP3    H119044   2.899   1.155   0.775  0.0185 -0.4801  0.7150
 6346TIP3    H219045   2.925   1.263   0.878 -0.2707 -0.4161  0.7211
 6347TIP3   OH219046   3.915   0.976   2.348  0.1446 -0.0415 -0.1368
 6347TIP3    H119047   3.869   1.054   2.380  0.7274 -0.5557  2.1803
 6347TIP3    H219048   4.007   1.004   2.341  1.0292 -1.2063  4.0000
 6348TIP3   OH219049   0.776   0.548   1.087  0.0582 -0.1758 -0.5379
 6348TIP3    H119050   0.697   0.597   1.110  1.2919  1.2889  0.7397
 6348TIP3    H219051   0.789   0.567   0.994 -1.5364 -1.1587 -1.0093
 6349TIP3   OH219052   0.436   0.793   5.024 -0.0301  0.2645  0.0944
 6349TIP3    H119053   0.453   0.844   4.945 -1.9476  2.0475  0.7391
 6349TIP3    H219054   0.341   0.782   5.026 -0.1617  1.0999  2.5761
 6350TIP3   OH219055   0.575   1.904   1.005 -0.2830  0.0308  0.8848
 6350TIP3    H119056   0.644   1.903   0.938 -1.1987  0.9348 -0.1148
 6350TIP3    H219057   0.562   1.997   1.024 -2.1881 -0.0169  0.0004
 6351TIP3   OH219058   1.627   5.523   2.387  0.4772  0.1915  0.0126
 6351TIP3    H119059   1.638   5.605   2.339 -1.2129  0.0429 -0.6908
 6351TIP3    H219060   1.623   5.550   2.479 -0.9085  1.0246 -0.2628
 6352TIP3   OH219061   3.728   2.606   5.023  0.3320  0.2468  0.4356
 6352TIP3    H119062   3.638   2.607   4.991  0.8108  0.5665 -0.9634
 6352TIP3    H219063   3.732   2.678   5.085 -0.5117 -0.1054  0.9204
 6353TIP3   OH219064   2.881   5.212   0.787  0.4887  0.2064 -0.5389
 6353TIP3    H119065   2.915   5.293   0.825  1.3729 -0.6625  0.5622
 6353TIP3    H219066   2.958   5.165   0.755 -0.0193 -0.2001 -1.2266
 6354TIP3   OH219067   5.175   4.543   4.208 -0.0055  0.7262  0.1759
 6354TIP3    H119068   5.143   4.559   4.119 -3.6462 -0.7759  1.0502
 6354TIP3    H219069   5.200   4.450   4.209 -1.0976  0.4185  0.9612
 6355TIP3   OH219070   5.790   2.322   1.144  0.0920 -0.2339 -0.5548
 6355TIP3    H119071   5.698   2.348   1.154  1.3563  4.5162  1.2490
 6355TIP3    H219072   5.800   2.246   1.201 -2.0047  1.5104  2.4312
 6356TIP3   OH219073   2.843   4.589   0.754 -0.2186  0.7169 -0.3252
 6356TIP3    H119074   2.768   4.531   0.758  0.4284 -0.0835  0.5172
 6356TIP3    H219075   2.815   4.661   0.697 -1.7056  0.5718  0.1987
 6357TIP3   OH219076   2.292   0.323   3.183  0.3149 -0.5137  0.6755
 6357TIP3    H119077   2.256   0.354   3.100 -0.0341 -1.4617  0.4682
 6357TIP3    H219078   2.329   0.402   3.223 -3.8898  1.1009  1.9457
 6358TIP3   OH219079   4.568   4.693   0.744 -0.5581  0.6809  0.0325
 6358TIP3    H119080   4.627   4.764   0.766 -0.9961  0.9400  0.3851
 6358TIP3    H219081   4.599   4.618   0.795  1.3964 -0.1097 -2.1289
 6359TIP3   OH219082   2.916   4.814   3.642  0.5976 -0.2360  0.0455
 6359TIP3    H119083   2.974   4.798   3.568  2.8969  0.7407  1.5048
 6359TIP3    H219084   2.946   4.898   3.677 -0.2454 -0.7685  2.1994
 6360TIP3   OH219085   3.192   4.147   4.930 -0.2638 -0.1852  0.7885
 6360TIP3    H119086   3.120   4.131   4.991 -0.9115  2.5141  0.8618
 6360TIP3    H219087   3.270   4.124   4.980 -0.9282 -0.4790  1.7297
 6361TIP3   OH219088   5.684   0.352   1.556  0.0808 -0.5518  0.1526
 6361TIP3    H119089   5.724   0.274   1.517  0.1240  0.9967 -3.3041
 6361TIP3    H219090   5.747   0.422   1.538 -0.9809  0.6892  1.0968
 6362TIP3   OH219091   5.391   3.607   1.929  0.0669 -0.4220  0.6896
 6362TIP3    H119092   5.482   3.579   1.929  0.2371  0.1101  0.5881
 6362TIP3    H219093   5.358   3.584   2.016  1.2012  2.1698  1.9206
 6363TIP3   OH219094   5.689   3.979   4.327 -0.0223  0.5261  0.2563
 6363TIP3    H119095   5.776   3.998   4.363  0.2883 -1.0490  0.3824
 6363TIP3    H219096   5.706   3.956   4.235 -0.2714  0.0163  0.3350
 6364TIP3   OH219097   4.547   5.646   0.659  0.0401 -0.1793  0.1257
 6364TIP3    H119098   4.508   5.730   0.637 -0.7242 -1.1404 -2.6854
 6364TIP3    H219099   4.627   5.641   0.606 -0.3688 -1.5279 -0.4183
 6365TIP3   OH219100   5.887   2.824   0.857  0.1184 -0.0976  0.4861
 6365TIP3    H119101   5.917   2.913   0.875  0.3297 -0.5014  2.3057
 6365TIP3    H219102   5.832   2.802   0.932 -0.2875 -1.3493 -0.1593
 6366TIP3   OH219103   1.228   2.154   4.278  0.1523 -0.6517  0.2831
 6366TIP3    H119104   1.175   2.074   4.276  0.0382 -0.6823  2.4896
 6366TIP3    H219105   1.176   2.218   4.228 -0.2680 -1.6194 -0.5794
 6367TIP3   OH219106   5.443   5.577   3.513  0.4459  0.1376  0.7263
 6367TIP3    H119107   5.375   5.588   3.580  0.7187 -0.6177  1.1461
 6367TIP3    H219108   5.515   5.536   3.560  2.3387  3.4310  0.9890
 6368TIP3   OH219109   3.746   4.827   1.333  0.2677  0.6761  0.1513
 6368TIP3    H119110   3.663   4.783   1.351 -0.9534  2.5272 -0.5842
 6368TIP3    H219111   3.784   4.777   1.260 -0.7783  0.4728 -0.2791
 6369TIP3   OH219112   3.541   2.304   4.178 -0.0454 -0.1160  0.1438
 6369TIP3    H119113   3.445   2.300   4.170  0.0760 -0.1341 -2.1328
 6369TIP3    H219114   3.561   2.398   4.184 -0.1492  0.0795 -1.7490
 6370TIP3   OH219115   0.617   0.617   3.266  1.0476  0.2039 -0.4149
 6370TIP3    H119116   0.631   0.553   3.196  1.9117  0.4571 -0.4927
 6370TIP3    H219117   0.686   0.597   3.330  2.2734  1.9580 -1.1228
 6371TIP3   OH219118   6.243   3.841   2.352 -0.1198  0.1895 -0.3158
 6371TIP3    H119119   6.307   3.910   2.336  0.6126 -0.5505 -0.6465
 6371TIP3    H219120   6.263   3.808   2.439 -0.6251  0.5427 -0.0571
 6372TIP3   OH219121   4.961   2.539   4.078 -0.1081 -0.5358 -0.5329
 6372TIP3    H119122   5.033   2.541   4.141 -0.4287  1.0030 -0.1763
 6372TIP3    H219123   4.988   2.599   4.008 -1.1478  0.2668 -0.2622
 6373TIP3   OH219124   5.272   3.195   2.119  0.0627  0.2178 -0.3483
 6373TIP3    H119125   5.282   3.109   2.161  0.3164 -0.6017 -1.9996
 6373TIP3    H219126   5.314   3.256   2.179 -0.1968 -0.7911  0.9092
 6374TIP3   OH219127   0.636   4.898   1.029  0.2195 -0.6010 -0.3219
 6374TIP3    H119128   0.697   4.933   0.965  0.7702  2.7595  1.7815
 6374TIP3    H219129   0.688   4.887   1.109 -1.5641  1.6061  1.3086
 6375TIP3   OH219130   0.858   4.937   4.962 -0.1127  0.0105  0.1020
 6375TIP3    H119131   0.914   4.971   5.032 -0.3676 -1.2002  0.9255
 6375TIP3    H219132   0.784   4.997   4.959 -0.2369 -0.0861  1.0777
 6376TIP3   OH219133   2.829   1.225   3.650 -0.0295 -0.6106  0.2645
 6376TIP3    H119134   2.869   1.304   3.687 -0.6046 -0.5195  0.7101
 6376TIP3    H219135   2.735   1.245   3.647 -0.3859 -1.8732  1.9020
 6377TIP3   OH219136   0.673   5.428   1.866 -0.1507 -0.1674 -0.1372
 6377TIP3    H119137   0.718   5.349   1.836 -0.0838 -0.0557 -0.3297
 6377TIP3    H219138   0.691   5.431   1.960  0.0495 -0.2491 -0.1726
 6378TIP3   OH219139   2.885   2.057   3.867  0.4322  0.3846 -0.1609
 6378TIP3    H119140   2.951   2.099   3.923 -0.2858 -0.3068  1.2689
 6378TIP3    H219141   2.935   1.994   3.814  1.0972  0.8378 -0.0858
 6379TIP3   OH219142   5.350   0.203   3.149 -0.0540  0.6847 -0.3269
 6379TIP3    H119143   5.382   0.116   3.123 -1.8320 -0.1013 -0.0559
 6379TIP3    H219144   5.332   0.195   3.242 -0.2830  1.3216 -0.3099
 6380TIP3   OH219145   1.761   0.982   5.139  0.6126 -0.1482  0.2065
 6380TIP3    H119146   1.811   0.982   5.221  2.0975 -0.4645 -0.6541
 6380TIP3    H219147   1.823   1.014   5.073 -0.8060  0.9205 -0.6594
 6381TIP3   OH219148   0.519   2.222   1.279  0.1029 -0.6705  0.3615
 6381TIP3    H119149   0.472   2.252   1.201 -0.3942 -1.0883  0.4946
 6381TIP3    H219150   0.590   2.168   1.244 -0.0392 -0.7502  0.1883
 6382TIP3   OH219151   0.471   0.355   3.224  0.2574  0.0046 -0.2939
 6382TIP3    H119152   0.438   0.270   3.195 -1.7903  1.3269 -2.1187
 6382TIP3    H219153   0.566   0.346   3.218  0.0701 -1.8761 -1.2918
 6383TIP3   OH219154   3.703   2.197   4.616 -0.3487  0.6053 -0.1879
 6383TIP3    H119155   3.621   2.233   4.651 -0.1489  2.2216 -1.3124
 6383TIP3    H219156   3.768   2.213   4.685 -0.8545 -0.3383  0.5478
 6384TIP3   OH219157   4.457   0.475   3.635  0.2573 -0.3225 -0.0476
 6384TIP3    H119158   4.370   0.442   3.657 -0.5843  1.6434 -0.2172
 6384TIP3    H219159   4.457   0.478   3.539  0.3192  0.1420 -0.0338
 6385TIP3   OH219160   4.296   4.196   5.016  0.2922 -0.2325 -0.5774
 6385TIP3    H119161   4.342   4.192   4.932  1.4091 -0.3376  0.0152
 6385TIP3    H219162   4.338   4.268   5.063  1.6991 -1.9509  0.9917
 6386TIP3   OH219163   3.229   4.763   1.415 -0.1337  0.0117 -0.2551
 6386TIP3    H119164   3.162   4.831   1.407 -0.3638 -0.3316 -1.4636
 6386TIP3    H219165   3.216   4.726   1.502 -0.1936  1.3075  0.3068
 6387TIP3   OH219166   0.193   2.015   2.841  0.5281  0.0045 -0.2482
 6387TIP3    H119167   0.181   2.103   2.877  1.0834 -0.4582  1.1509
 6387TIP3    H219168   0.280   2.017   2.801  2.1359 -0.8101  2.8637
 6388TIP3   OH219169   0.254   3.051   3.965  0.0342  0.3293  0.1696
 6388TIP3    H119170   0.259   3.145   3.984  2.1383  0.8089 -2.1239
 6388TIP3    H219171   0.172   3.040   3.917 -0.5433  0.8754  1.0280
 6389TIP3   OH219172   3.931   4.482   1.136 -0.3840 -0.3005  0.5076
 6389TIP3    H119173   3.963   4.414   1.195 -0.3772 -0.8780 -0.1494
 6389TIP3    H219174   3.900   4.434   1.059  0.3248  0.4905 -0.2900
 6390TIP3   OH219175   1.281   1.901   0.788 -0.1379 -0.4930 -0.2000
 6390TIP3    H119176   1.258   1.951   0.866  0.8830 -0.2232 -0.0682
 6390TIP3    H219177   1.265   1.962   0.715  0.7772 -0.0684 -0.0615
 6391TIP3   OH219178   3.080   2.530   3.280  0.0486 -0.1219  0.1739
 6391TIP3    H119179   3.155   2.501   3.228  0.1702  1.0245 -0.3350
 6391TIP3    H219180   3.018   2.565   3.215 -0.5646 -0.2758  0.6622
 6392TIP3   OH219181   5.876   1.871   4.214  0.2749 -0.0601  0.6686
 6392TIP3    H119182   5.893   1.813   4.288 -0.3582 -2.7708 -1.1357
 6392TIP3    H219183   5.781   1.873   4.206  0.3203  0.5817  0.2407
 6393TIP3   OH219184   1.215   3.109   0.158 -0.3851 -0.3614  0.1404
 6393TIP3    H119185   1.196   3.042   0.224 -0.9352 -0.0211  0.3393
 6393TIP3    H219186   1.291   3.155   0.192 -1.0744  0.2537  0.8854
 6394TIP3   OH219187   2.216   2.487   2.754  0.0099 -0.2030  0.0584
 6394TIP3    H119188   2.187   2.536   2.677 -0.2106 -1.1817 -0.4871
 6394TIP3    H219189   2.312   2.487   2.748  0.0421  0.6670  0.3907
 6395TIP3   OH219190   4.254   5.928   2.523  0.1899 -0.1263 -0.4064
 6395TIP3    H119191   4.349   5.936   2.526  0.1606  0.2155 -0.4141
 6395TIP3    H219192   4.225   6.002   2.471 -0.1083 -0.0307 -0.1060
 6396TIP3   OH219193   0.917   1.807   5.011  0.0551  0.1394 -0.0249
 6396TIP3    H119194   0.845   1.813   4.948  0.2194 -3.1786 -0.6659
 6396TIP3    H219195   0.879   1.762   5.086  0.7975  0.8992  0.8351
 6397TIP3   OH219196   0.700   3.585   3.083 -0.4682  0.0597  0.3223
 6397TIP3    H119197   0.785   3.546   3.101 -0.2154  1.1039  1.5549
 6397TIP3    H219198   0.702   3.605   2.989  1.2474  1.3872  0.5985
 6398TIP3   OH219199   4.201   2.030   1.064 -0.3067 -0.1295 -0.1141
 6398TIP3    H119200   4.232   1.959   1.008  0.6201  1.1810 -1.3363
 6398TIP3    H219201   4.230   2.006   1.152  0.8773 -0.7802 -0.6583
 6399TIP3   OH219202   4.177   5.633   0.761 -0.1541 -0.8550  0.1727
 6399TIP3    H119203   4.181   5.556   0.817 -0.9420  0.0164  1.4823
 6399TIP3    H219204   4.184   5.707   0.821 -3.2173  0.1800 -0.5329
 6400TIP3   OH219205   0.949   4.938   0.466  0.1078 -0.2729  0.1984
 6400TIP3    H119206   0.880   4.889   0.509 -0.0778  0.7389  1.1015
 6400TIP3    H219207   0.983   4.996   0.534 -0.7040  1.9344 -1.1848
 6401TIP3   OH219208   5.261   5.709   2.661 -0.2015 -0.0695 -0.0878
 6401TIP3    H119209   5.278   5.723   2.567 -1.4305 -1.3716 -0.5378
 6401TIP3    H219210   5.259   5.798   2.698 -0.5729  0.5320 -1.4673
 6402TIP3   OH219211   1.889   1.695   0.257  0.2161  0.3094  0.0031
 6402TIP3    H119212   1.813   1.648   0.292  0.4024  0.0265  0.0246
 6402TIP3    H219213   1.854   1.780   0.231 -0.7985 -0.8184 -2.7849
 6403TIP3   OH219214   5.052   5.190   5.006  0.3433  0.2904 -0.1542
 6403TIP3    H119215   5.012   5.200   5.093 -1.4003 -1.5760 -0.6711
 6403TIP3    H219216   5.020   5.105   4.974  0.8281  0.9736 -2.6851
 6404TIP3   OH219217   3.884   1.885   0.870  0.5097 -0.6240  0.4059
 6404TIP3    H119218   3.942   1.808   0.862  1.0639 -0.0655 -1.2760
 6404TIP3    H219219   3.897   1.933   0.789  0.9918  1.8512  1.8660
 6405TIP3   OH219220   2.873   5.001   1.970 -0.0542  0.2912  0.3139
 6405TIP3    H119221   2.902   5.086   1.937  2.0095 -0.6544 -0.4992
 6405TIP3    H219222   2.919   4.991   2.054 -0.4126  0.0310  0.4823
 6406TIP3   OH219223   1.936   2.825   2.220 -0.2261  0.2746  0.2984
 6406TIP3    H119224   1.899   2.741   2.190  0.8201  0.0390 -0.4018
 6406TIP3    H219225   2.030   2.814   2.209 -0.0314  1.3047  0.8686
 6407TIP3   OH219226   5.196   1.797   5.073 -0.2911 -0.2374 -0.3033
 6407TIP3    H119227   5.273   1.847   5.101  0.2711  0.2066 -2.4779
 6407TIP3    H219228   5.232   1.722   5.025 -1.1837  0.1943 -1.7055
 6408TIP3   OH219229   6.236   5.848   1.057 -0.9215 -0.0147 -0.5168
 6408TIP3    H119230   6.244   5.918   1.122  0.0098  0.5992 -1.2579
 6408TIP3    H219231   6.229   5.768   1.108 -1.9401  0.6138  0.3493
 6409TIP3   OH219232   2.127   0.755   4.966  0.5701  0.1290 -0.0630
 6409TIP3    H119233   2.154   0.812   4.894  0.5806  1.8843  1.2481
 6409TIP3    H219234   2.134   0.810   5.044  2.4602 -2.2222  1.5977
 6410TIP3   OH219235   3.644   3.497   3.521  0.1140 -0.0835  0.0487
 6410TIP3    H119236   3.663   3.445   3.444 -1.8780 -1.8631  0.6498
 6410TIP3    H219237   3.597   3.574   3.488  0.4550 -0.1499 -0.5955
 6411TIP3   OH219238   2.786   4.836   2.311  0.2009  0.1417 -0.5100
 6411TIP3    H119239   2.798   4.741   2.306 -1.3901 -0.1310  0.3173
 6411TIP3    H219240   2.856   4.872   2.257  1.2849 -1.4720 -0.2442
 6412TIP3   OH219241   2.857   1.393   4.949  0.5466 -0.4081 -0.0703
 6412TIP3    H119242   2.852   1.366   4.857  0.2624 -0.7077  0.0334
 6412TIP3    H219243   2.802   1.472   4.954 -1.1115 -1.5365  0.2632
 6413TIP3   OH219244   4.329   0.788   3.425 -0.4335 -0.1817  0.1621
 6413TIP3    H119245   4.297   0.749   3.344 -1.0188  0.0188  0.2884
 6413TIP3    H219246   4.301   0.880   3.420 -0.2687 -0.1115  0.4862
 6414TIP3   OH219247   0.432   0.910   4.770 -0.1502 -0.6428 -0.3556
 6414TIP3    H119248   0.350   0.958   4.784 -0.5013 -0.2041 -3.2519
 6414TIP3    H219249   0.406   0.835   4.716  1.3812 -0.2044 -1.7815
 6415TIP3   OH219250   4.279   1.799   4.779  0.3806 -0.2800 -0.0162
 6415TIP3    H119251   4.326   1.775   4.699  1.0645 -0.9654  0.5742
 6415TIP3    H219252   4.188   1.805   4.752  0.3889 -2.0249 -0.5290
 6416TIP3   OH219253   1.024   0.707   1.713  0.1565  0.4184  0.1557
 6416TIP3    H119254   0.946   0.683   1.663 -0.4688  1.7051  0.4724
 6416TIP3    H219255   1.056   0.787   1.671  0.9089  0.2855  0.4560
 6417TIP3   OH219256   0.690   5.569   0.846  0.1399  0.5073  0.0935
 6417TIP3    H119257   0.610   5.518   0.838 -0.3602  1.3028 -0.0102
 6417TIP3    H219258   0.750   5.511   0.894  0.2366 -0.8973 -1.6175
 6418TIP3   OH219259   4.171   3.098   4.568  0.5559 -0.0794 -0.7382
 6418TIP3    H119260   4.147   3.007   4.586 -1.4686  0.8529  1.9691
 6418TIP3    H219261   4.250   3.113   4.621 -0.8302  0.4876  1.2506
 6419TIP3   OH219262   4.227   2.859   4.199  0.1246 -0.2314 -0.5295
 6419TIP3    H119263   4.209   2.774   4.239 -0.3142 -1.3632 -2.9486
 6419TIP3    H219264   4.317   2.852   4.167  0.5137  0.6952  0.3133
 6420TIP3   OH219265   1.232   3.109   2.496  0.6162 -0.2983 -0.5216
 6420TIP3    H119266   1.156   3.095   2.439  0.2771  0.8724 -0.3921
 6420TIP3    H219267   1.307   3.082   2.443  0.0614 -2.4288 -0.3025
 6421TIP3   OH219268   5.776   3.799   2.024 -0.1107  0.0386  0.0868
 6421TIP3    H119269   5.801   3.858   2.094  1.9103  1.9456 -2.0611
 6421TIP3    H219270   5.696   3.837   1.987 -0.7071 -0.5036  0.7949
 6422TIP3   OH219271   5.441   1.487   1.804  0.6512 -0.1798 -0.1329
 6422TIP3    H119272   5.398   1.468   1.721  0.4739 -0.9390  0.1262
 6422TIP3    H219273   5.386   1.554   1.844 -0.1539 -0.9411  0.0716
 6423TIP3   OH219274   2.730   5.626   4.833  0.1957 -0.7282  0.1297
 6423TIP3    H119275   2.820   5.595   4.839 -0.0407 -1.2580  1.0583
 6423TIP3    H219276   2.711   5.664   4.918 -0.7813 -1.5511  0.3059
 6424TIP3   OH219277   5.479   4.152   3.306  0.9883 -0.1356 -0.5288
 6424TIP3    H119278   5.471   4.130   3.399  0.7924  0.0361 -0.5029
 6424TIP3    H219279   5.509   4.071   3.265 -1.3344 -1.0077 -0.6876
 6425TIP3   OH219280   1.052   3.471   4.380 -0.4248  0.5634 -0.3071
 6425TIP3    H119281   1.020   3.402   4.436  1.2098 -0.3037 -0.3693
 6425TIP3    H219282   0.983   3.483   4.314  0.0038 -2.3719 -1.4527
 6426TIP3   OH219283   5.534   0.451   0.696  0.6707  0.1734  0.2473
 6426TIP3    H119284   5.572   0.376   0.650  1.7072  1.6227 -1.4138
 6426TIP3    H219285   5.464   0.480   0.638  1.1403  1.2583  0.2068
 6427TIP3   OH219286   0.617   0.309   2.581  0.0845  0.5796  0.1373
 6427TIP3    H119287   0.569   0.278   2.658  0.0603 -0.6532 -0.3484
 6427TIP3    H219288   0.554   0.305   2.510  0.5636  0.0959 -0.2717
 6428TIP3   OH219289   6.096   5.764   2.425  0.3304  0.0748 -1.0748
 6428TIP3    H119290   6.098   5.673   2.455  0.8960 -0.3903 -2.4480
 6428TIP3    H219291   6.031   5.764   2.354 -2.0993  1.4587  0.9856
 6429TIP3   OH219292   0.892   5.137   2.046 -0.2229 -0.3686 -0.0197
 6429TIP3    H119293   0.964   5.100   2.097 -0.1092 -1.0786 -0.6811
 6429TIP3    H219294   0.827   5.163   2.112  0.6099  0.2624  0.5826
 6430TIP3   OH219295   5.802   5.603   4.189 -0.2770 -0.2434  0.1687
 6430TIP3    H119296   5.779   5.562   4.106 -1.1034  0.8229 -0.1674
 6430TIP3    H219297   5.886   5.565   4.213  1.0332  0.8813 -2.2033
 6431TIP3   OH219298   0.759   4.475   2.536 -0.2205  0.0571  0.5688
 6431TIP3    H119299   0.724   4.394   2.573 -1.9912  0.9217  0.8838
 6431TIP3    H219300   0.825   4.503   2.600  2.6930 -2.5984 -0.9751
 6432TIP3   OH219301   4.160   5.476   3.938 -0.3938 -0.1907  0.2347
 6432TIP3    H119302   4.163   5.557   3.887 -1.9581 -0.0901  0.2581
 6432TIP3    H219303   4.119   5.413   3.879  2.7311 -1.6472 -0.6034
 6433TIP3   OH219304   3.373   3.182   3.884  0.1165  0.1216  0.6202
 6433TIP3    H119305   3.301   3.138   3.928 -0.3923  0.2177 -0.0898
 6433TIP3    H219306   3.423   3.224   3.954 -1.0452  0.8235  1.0557
 6434TIP3   OH219307   1.893   0.924   2.332 -0.4399 -0.0118  0.2729
 6434TIP3    H119308   1.931   0.873   2.403  1.8009 -0.6073 -1.2696
 6434TIP3    H219309   1.834   0.863   2.288 -0.6250 -0.1107  0.6476
 6435TIP3   OH219310   1.772   3.392   3.356  0.1065 -0.4945  0.1961
 6435TIP3    H119311   1.694   3.343   3.380 -1.4040  1.3762 -0.6244
 6435TIP3    H219312   1.772   3.392   3.260 -0.0638  1.1880  0.1520
 6436TIP3   OH219313   5.059   1.300   1.035 -0.4418 -0.2655 -0.0836
 6436TIP3    H119314   5.010   1.292   0.954 -0.3842  1.2384 -0.2915
 6436TIP3    H219315   5.150   1.289   1.009 -0.2861  1.6487 -0.5128
 6437TIP3   OH219316   4.560   5.675   1.409 -0.2609  0.2864 -0.1854
 6437TIP3    H119317   4.645   5.644   1.379 -0.5006  0.3557 -0.9747
 6437TIP3    H219318   4.530   5.609   1.472  0.1228 -0.0292 -0.3327
 6438TIP3   OH219319   3.115   1.382   4.711 -0.3118 -0.1716 -0.9860
 6438TIP3    H119320   3.088   1.369   4.621 -1.9092  1.2851 -0.7644
 6438TIP3    H219321   3.102   1.475   4.727  2.3503  0.1217  0.0202
 6439TIP3   OH219322   2.345   1.301   5.210  0.6883 -0.5749  0.0559
 6439TIP3    H119323   2.425   1.253   5.189 -0.1331 -1.8021 -0.3634
 6439TIP3    H219324   2.308   1.324   5.124  0.6008  0.0046  0.2450
 6440TIP3   OH219325   0.276   4.556   3.255  0.2238  0.7118  0.2789
 6440TIP3    H119326   0.272   4.523   3.344 -1.1850 -0.8586 -0.3209
 6440TIP3    H219327   0.366   4.543   3.228 -0.1300 -2.2669  0.2631
 6441TIP3   OH219328   1.735   5.107   4.241 -0.8879  0.0237 -0.2576
 6441TIP3    H119329   1.678   5.180   4.266 -1.8770 -0.8780  0.1751
 6441TIP3    H219330   1.820   5.129   4.280 -1.1632  0.9342 -0.1307
 6442TIP3   OH219331   3.665   2.940   2.977  0.2553 -0.0230  0.2554
 6442TIP3    H119332   3.573   2.937   2.953  0.1454 -0.4420  0.7149
 6442TIP3    H219333   3.710   2.970   2.898 -0.4206  1.5400  0.4418
 6443TIP3   OH219334   2.293   5.534   1.462 -0.0882 -0.4218  0.5379
 6443TIP3    H119335   2.318   5.492   1.380  0.8252  0.1422  0.5144
 6443TIP3    H219336   2.375   5.543   1.511 -0.2690  1.1404  0.6145
 6444TIP3   OH219337   0.120   2.991   1.406 -0.2233 -0.2071 -0.0289
 6444TIP3    H119338   0.151   2.901   1.413 -0.9679 -0.3943  1.1706
 6444TIP3    H219339   0.140   3.031   1.490  0.3543  0.8543 -0.6390
 6445TIP3   OH219340   3.327   5.209   0.949  0.7835  0.2251  0.5517
 6445TIP3    H119341   3.352   5.123   0.916  2.6476  0.7576  0.4161
 6445TIP3    H219342   3.404   5.239   0.997  0.0166  1.6381  0.9489
 6446TIP3   OH219343   5.062   1.001   0.713 -0.1527  0.8643 -0.1524
 6446TIP3    H119344   5.015   0.932   0.666 -0.5345  1.2169 -0.2903
 6446TIP3    H219345   5.102   0.956   0.788  0.6844  0.2513 -0.9543
 6447TIP3   OH219346   0.322   3.664   1.811 -0.1121 -0.0728 -0.0628
 6447TIP3    H119347   0.247   3.616   1.845  1.2106 -1.7526  0.6261
 6447TIP3    H219348   0.394   3.641   1.870  1.7641 -1.2698 -2.6453
 6448TIP3   OH219349   1.964   2.664   1.941 -0.0579  0.4603 -0.0453
 6448TIP3    H119350   1.924   2.687   1.857 -0.7179  0.5257  0.2788
 6448TIP3    H219351   1.890   2.644   1.998  0.4170 -0.3530  0.3032
 6449TIP3   OH219352   4.676   4.401   4.750  0.1078  0.3857 -0.2158
 6449TIP3    H119353   4.686   4.489   4.786 -0.1901  0.9768 -1.5161
 6449TIP3    H219354   4.586   4.376   4.773 -0.2833  1.0020 -1.0374
 6450TIP3   OH219355   1.135   3.955   4.341 -0.0104  0.2335  0.2519
 6450TIP3    H119356   1.054   3.939   4.390 -0.0379  1.2580  0.5517
 6450TIP3    H219357   1.114   3.927   4.252 -0.6425  0.3322  0.3635
 6451TIP3   OH219358   5.114   0.099   2.064 -0.2230 -0.3382  0.6613
 6451TIP3    H119359   5.151   0.187   2.070 -1.6083  0.3411 -0.3555
 6451TIP3    H219360   5.084   0.080   2.153  3.6374 -1.4930  1.9238
 6452TIP3   OH219361   4.087   4.358   0.361 -0.6157  0.0625  0.1415
 6452TIP3    H119362   4.148   4.322   0.297 -1.5447  0.4062 -0.9803
 6452TIP3    H219363   4.140   4.414   0.418  0.1768 -0.0103 -0.5196
 6453TIP3   OH219364   4.666   3.869   2.976 -0.2366 -0.6932 -0.8059
 6453TIP3    H119365   4.575   3.845   2.990 -0.6234  1.7038  1.7086
 6453TIP3    H219366   4.662   3.951   2.927  0.7313 -1.6805 -2.6602
 6454TIP3   OH219367   4.505   3.211   0.270  0.0963 -0.3452  0.3911
 6454TIP3    H119368   4.576   3.179   0.326 -0.1091 -1.0702  0.2496
 6454TIP3    H219369   4.549   3.264   0.204  0.3119  0.8000  1.4169
 6455TIP3   OH219370   4.512   2.431   0.213  0.2272  0.5233  0.5633
 6455TIP3    H119371   4.585   2.368   0.215  0.3733  0.6096 -1.0664
 6455TIP3    H219372   4.552   2.514   0.236  0.1023  0.1206  2.3672
 6456TIP3   OH219373   2.323   2.435   2.071 -0.3418 -0.1440 -0.5211
 6456TIP3    H119374   2.410   2.406   2.044 -0.7811 -1.5664 -0.4961
 6456TIP3    H219375   2.300   2.503   2.009  0.8594  0.3930 -0.4087
 6457TIP3   OH219376   3.232   1.500   3.315 -0.2738  0.3365 -0.9702
 6457TIP3    H119377   3.153   1.453   3.341  0.5601  0.1407  1.4322
 6457TIP3    H219378   3.293   1.432   3.286 -0.0335  0.2003 -0.1586
 6458TIP3   OH219379   5.443   1.893   0.800 -0.0941  0.3577  0.0416
 6458TIP3    H119380   5.502   1.937   0.738  0.9163  0.2452  0.8938
 6458TIP3    H219381   5.382   1.845   0.744  0.7654  0.2858 -0.8798
 6459TIP3   OH219382   3.600   1.816   4.742  0.2362 -0.2516  0.3218
 6459TIP3    H119383   3.581   1.889   4.683 -0.7564  0.4401  1.4489
 6459TIP3    H219384   3.560   1.740   4.699  0.1558  0.1051 -0.2496
 6460TIP3   OH219385   1.189   4.589   0.204 -0.5727  0.1925 -0.4120
 6460TIP3    H119386   1.169   4.554   0.117 -0.0880  2.5489 -1.5577
 6460TIP3    H219387   1.264   4.538   0.233 -0.1681 -0.0541 -1.7913
 6461TIP3   OH219388   0.673   2.407   0.685 -0.0162 -0.4594 -0.4022
 6461TIP3    H119389   0.622   2.445   0.614  1.0968  1.1919 -0.3635
 6461TIP3    H219390   0.615   2.413   0.762 -0.3366 -0.0684 -0.6717
 6462TIP3   OH219391   0.152   1.505   2.192  0.6983  0.0744 -0.2813
 6462TIP3    H119392   0.125   1.574   2.253  3.3704  0.8593  0.1637
 6462TIP3    H219393   0.134   1.541   2.105 -0.3565  0.1986 -0.0284
 6463TIP3   OH219394   1.451   4.577   0.672 -0.2077 -0.5308 -0.4405
 6463TIP3    H119395   1.487   4.547   0.756  0.5343 -1.1352 -0.9663
 6463TIP3    H219396   1.523   4.624   0.631 -0.4542 -0.5551 -0.8989
 6464TIP3   OH219397   4.455   2.902   1.628  0.2679  0.2845 -0.3777
 6464TIP3    H119398   4.449   2.886   1.534 -0.9228  0.0907 -0.2796
 6464TIP3    H219399   4.472   2.996   1.636 -0.3181  0.4275 -0.7746
 6465TIP3   OH219400   5.169   3.778   2.079  0.3423 -0.2457 -0.2536
 6465TIP3    H119401   5.151   3.779   1.985  0.3264 -1.2342 -0.2634
 6465TIP3    H219402   5.259   3.747   2.087 -0.0871 -1.4779  0.1046
 6466TIP3   OH219403   3.628   5.070   1.695  0.2219  0.7003  0.5197
 6466TIP3    H119404   3.629   4.974   1.686 -1.7941  0.6301  0.6019
 6466TIP3    H219405   3.606   5.085   1.788 -2.5534  1.1330 -0.1004
 6467TIP3   OH219406   0.189   0.822   4.163 -0.3807 -0.0459  0.6039
 6467TIP3    H119407   0.272   0.775   4.150 -0.7011 -0.6953  0.8682
 6467TIP3    H219408   0.212   0.914   4.150  0.2459 -0.2718 -0.0094
 6468TIP3   OH219409   5.894   3.729   3.886  0.2873  0.1363  0.0552
 6468TIP3    H119410   5.911   3.636   3.870  0.8212  0.3876 -0.8892
 6468TIP3    H219411   5.826   3.752   3.824 -0.4601  0.1867  0.8715
 6469TIP3   OH219412   4.690   5.197   2.961 -0.2650  0.1046  0.4337
 6469TIP3    H119413   4.709   5.166   3.049  0.5859 -1.7142 -0.3309
 6469TIP3    H219414   4.597   5.179   2.948 -0.6024  1.1899  1.2377
 6470TIP3   OH219415   0.736   5.427   3.555 -0.1921  0.1236  0.5352
 6470TIP3    H119416   0.694   5.511   3.536 -0.9546 -0.0212  1.4508
 6470TIP3    H219417   0.820   5.450   3.596 -0.1281  0.4342  0.2266
 6471TIP3   OH219418   5.029   0.114   2.343 -0.0863  0.0433 -0.3166
 6471TIP3    H119419   5.068   0.041   2.392 -0.3110  0.3680  0.3531
 6471TIP3    H219420   5.091   0.186   2.353  0.1531 -0.0533 -1.0076
 6472TIP3   OH219421   3.668   5.841   3.212 -0.2088  0.5385 -0.6954
 6472TIP3    H119422   3.582   5.857   3.251  0.2003 -0.6541  0.7965
 6472TIP3    H219423   3.655   5.764   3.157 -0.3140  1.0018 -1.3374
 6473TIP3   OH219424   2.322   0.227   4.067 -0.3899 -0.3726 -0.0043
 6473TIP3    H119425   2.322   0.295   3.999  1.1133 -0.6788 -0.3575
 6473TIP3    H219426   2.409   0.234   4.108 -1.1087 -0.4863  1.6107
 6474TIP3   OH219427   6.044   1.158   2.107 -0.2841  0.3384 -0.0981
 6474TIP3    H119428   6.111   1.172   2.174  0.5521 -2.4658 -0.2304
 6474TIP3    H219429   5.961   1.161   2.155  0.2589 -0.9029  0.9806
 6475TIP3   OH219430   0.255   0.630   1.377  0.3958  0.3085  0.4893
 6475TIP3    H119431   0.218   0.717   1.361  1.1906  0.6213  0.2615
 6475TIP3    H219432   0.313   0.615   1.303 -1.3525 -1.3723 -0.6254
 6476TIP3   OH219433   0.681   0.617   2.988  0.7132 -0.3074  0.7097
 6476TIP3    H119434   0.694   0.558   2.914  0.8216  0.3512  0.1913
 6476TIP3    H219435   0.767   0.623   3.030  0.7992 -0.2034  0.5197
 6477TIP3   OH219436   5.432   5.231   1.732  0.3232 -0.2480 -0.2383
 6477TIP3    H119437   5.502   5.166   1.737 -0.0994 -1.0087 -2.7556
 6477TIP3    H219438   5.457   5.288   1.659 -0.5883  0.8547  0.2829
 6478TIP3   OH219439   4.686   3.045   4.859  0.3232  0.1547 -0.1057
 6478TIP3    H119440   4.762   2.989   4.842 -1.3419 -2.4310  0.3923
 6478TIP3    H219441   4.677   3.044   4.954  0.6543  1.9224 -0.0251
 6479TIP3   OH219442   3.270   1.478   0.227  0.9176 -0.1968 -0.3622
 6479TIP3    H119443   3.180   1.507   0.215  0.5929  0.0006  2.1486
 6479TIP3    H219444   3.322   1.559   0.226  0.7629 -0.0814  0.5503
 6480TIP3   OH219445   1.421   1.139   2.271  0.3171  0.0574  0.4257
 6480TIP3    H119446   1.379   1.224   2.282  0.6345  0.5563 -1.8584
 6480TIP3    H219447   1.488   1.153   2.204  0.4409 -1.9582  0.0663
 6481TIP3   OH219448   3.093   5.684   4.390 -0.3900  0.1748 -0.5303
 6481TIP3    H119449   3.074   5.746   4.461 -0.0295  0.0186 -0.2940
 6481TIP3    H219450   3.188   5.683   4.385 -0.3981 -0.3019 -0.5918
 6482TIP3   OH219451   3.669   1.680   0.963 -0.3144  0.4474  0.4829
 6482TIP3    H119452   3.732   1.641   1.024 -0.7154  2.2593  2.1568
 6482TIP3    H219453   3.718   1.752   0.922 -0.4264 -0.0036 -0.4778
 6483TIP3   OH219454   0.474   3.100   3.315  0.0769 -0.4965  0.4774
 6483TIP3    H119455   0.486   3.006   3.326  1.6253 -0.2652  1.0429
 6483TIP3    H219456   0.535   3.123   3.244 -1.5322 -0.1660 -0.8543
 6484TIP3   OH219457   5.152   1.724   2.519  0.4654  0.8101  0.3172
 6484TIP3    H119458   5.058   1.734   2.504  0.2648  0.0807  1.0389
 6484TIP3    H219459   5.190   1.803   2.479 -0.3549  0.6775 -0.8023
 6485TIP3   OH219460   5.520   3.702   3.949  0.1459  0.2125 -0.0621
 6485TIP3    H119461   5.443   3.723   3.896 -0.2888  3.2302  1.5081
 6485TIP3    H219462   5.484   3.665   4.030  0.3475  0.9311  0.3706
 6486TIP3   OH219463   2.634   2.675   0.567 -0.1326  0.3736 -0.0162
 6486TIP3    H119464   2.705   2.618   0.598 -0.5251  0.1435  0.4777
 6486TIP3    H219465   2.576   2.616   0.518 -0.3095  0.4302  0.1217
 6487TIP3   OH219466   5.078   0.041   0.116 -0.2169 -0.0635 -0.5278
 6487TIP3    H119467   5.012   0.045   0.047 -0.9948 -0.5484  0.1716
 6487TIP3    H219468   5.075  -0.049   0.147  0.5302  0.0028 -0.2419
 6488TIP3   OH219469   6.103   4.997   4.026 -0.5590 -0.1305 -0.6166
 6488TIP3    H119470   6.165   5.025   3.958  0.7626  1.3340  1.0913
 6488TIP3    H219471   6.086   4.905   4.006  1.8221 -0.4581 -1.4578
 6489TIP3   OH219472   5.231   2.737   2.046 -0.2466 -0.3699 -0.0244
 6489TIP3    H119473   5.257   2.648   2.020 -0.5455 -1.0914  1.9085
 6489TIP3    H219474   5.158   2.723   2.106  0.1062  1.1471  0.8029
 6490TIP3   OH219475   2.753   0.035   0.447  0.1716 -0.2191  0.7153
 6490TIP3    H119476   2.774   0.095   0.518 -1.0188 -2.0453  2.6873
 6490TIP3    H219477   2.826  -0.027   0.445 -0.1170 -0.5650  0.7851
 6491TIP3   OH219478   0.911   1.067   3.245  0.1773 -0.5340 -0.1041
 6491TIP3    H119479   0.902   1.109   3.330 -0.6972 -0.5348 -0.1857
 6491TIP3    H219480   0.850   1.114   3.188  1.4793  0.1364 -1.0007
 6492TIP3   OH219481   4.369   3.672   1.951  0.4306  0.8701 -0.4969
 6492TIP3    H119482   4.447   3.624   1.922  0.4733 -0.9408  2.2413
 6492TIP3    H219483   4.297   3.611   1.934  0.1686  0.8060  0.7731
 6493TIP3   OH219484   0.118   2.962   0.245  0.4157  0.1001  0.0808
 6493TIP3    H119485   0.026   2.982   0.263 -0.2868 -1.9923 -0.8494
 6493TIP3    H219486   0.128   2.870   0.271  2.3529  0.3903  0.4955
 6494TIP3   OH219487   0.213   5.271   3.562 -0.4781  0.0025  0.6012
 6494TIP3    H119488   0.157   5.213   3.510 -0.2345 -0.4617  0.8486
 6494TIP3    H219489   0.247   5.215   3.632  0.0007  0.3713  0.6715
 6495TIP3   OH219490   3.354   1.721   1.126  0.4484  0.3071 -0.7372
 6495TIP3    H119491   3.378   1.707   1.218 -3.7643  2.7392  1.0519
 6495TIP3    H219492   3.368   1.815   1.112 -1.8572  0.6198 -1.4222
 6496TIP3   OH219493   0.478   4.617   1.031  0.1202  0.3851  0.5591
 6496TIP3    H119494   0.426   4.630   1.110 -1.1978 -0.1364 -0.1811
 6496TIP3    H219495   0.510   4.704   1.008  0.3305  0.5698  1.5464
 6497TIP3   OH219496   1.681   0.365   0.975 -0.2914  0.0925 -0.0351
 6497TIP3    H119497   1.766   0.399   0.947 -0.0336 -1.8697 -1.9760
 6497TIP3    H219498   1.626   0.443   0.986  0.2811  1.2983 -3.9929
 6498TIP3   OH219499   4.602   1.078   3.981 -0.5598 -0.6554 -0.2227
 6498TIP3    H119500   4.598   1.141   3.908 -1.0555 -0.1483  0.2324
 6498TIP3    H219501   4.598   0.993   3.938 -3.4598 -0.3743 -0.7168
 6499TIP3   OH219502   4.501   1.001   0.857 -0.0863 -0.4182  0.3815
 6499TIP3    H119503   4.563   0.947   0.905  0.0748 -0.7489 -0.1935
 6499TIP3    H219504   4.544   1.018   0.773 -0.7708 -0.6478 -0.0201
 6500TIP3   OH219505   1.735   1.180   0.706 -0.7860 -0.7099  0.0830
 6500TIP3    H119506   1.693   1.094   0.711 -0.1455 -0.9510  1.6863
 6500TIP3    H219507   1.662   1.241   0.696 -1.3005 -1.3522 -0.2085
 6501TIP3   OH219508   0.236   4.388   5.133  0.1093 -0.6205  0.6674
 6501TIP3    H119509   0.192   4.327   5.074  0.7858 -1.6023  1.1427
 6501TIP3    H219510   0.206   4.363   5.220  0.3887 -0.2736  0.8670
 6502TIP3   OH219511   3.051   3.577   3.232  0.3526  0.3548 -0.2206
 6502TIP3    H119512   2.984   3.637   3.265 -0.6538 -0.4265 -0.8148
 6502TIP3    H219513   3.130   3.631   3.227 -0.2821  1.3620  0.2246
 6503TIP3   OH219514   5.281   1.768   0.626  0.0304  0.3181  0.0835
 6503TIP3    H119515   5.291   1.740   0.535 -1.1966 -1.7511  0.5133
 6503TIP3    H219516   5.187   1.774   0.640  0.0474 -1.7711  1.7983
 6504TIP3   OH219517   5.757   0.214   4.791  0.3825 -0.2708 -0.1383
 6504TIP3    H119518   5.842   0.247   4.822 -0.0437  1.3898 -0.6322
 6504TIP3    H219519   5.778   0.137   4.738  1.5323 -0.1633  0.1456
 6505TIP3   OH219520   2.297   1.224   3.437 -0.2512  0.3316 -0.1511
 6505TIP3    H119521   2.205   1.210   3.457  0.0550 -0.8025  0.5559
 6505TIP3    H219522   2.312   1.174   3.356  0.1963 -1.2420  0.8595
 6506TIP3   OH219523   0.499   1.656   2.819 -0.1857  0.6431  0.0276
 6506TIP3    H119524   0.518   1.727   2.757 -1.3429 -0.6793 -1.9667
 6506TIP3    H219525   0.403   1.657   2.827 -0.3761 -1.5568 -1.2119
 6507TIP3   OH219526   0.411   0.715   4.342  0.0956  0.1186 -0.0022
 6507TIP3    H119527   0.323   0.685   4.364  0.5986 -1.9295 -0.5889
 6507TIP3    H219528   0.413   0.807   4.369 -2.4730  0.4566 -0.7442
 6508TIP3   OH219529   4.849   3.969   2.503  0.6202 -0.2282 -0.2110
 6508TIP3    H119530   4.916   3.955   2.436  1.4442  0.6707  0.4016
 6508TIP3    H219531   4.855   3.891   2.559  1.2796 -0.0655 -0.0546
 6509TIP3   OH219532   0.035   4.746   1.605  0.3017 -0.7109 -0.6086
 6509TIP3    H119533   0.077   4.801   1.539  1.0064  0.2199  0.5715
 6509TIP3    H219534   0.107   4.704   1.651  0.0335  1.0212  1.5423
 6510TIP3   OH219535   2.405   2.013   2.852  0.0597  0.4004  0.2451
 6510TIP3    H119536   2.366   1.962   2.781 -0.3723  0.7821  0.2022
 6510TIP3    H219537   2.342   2.084   2.868  1.1354  1.5395 -0.4177
 6511TIP3   OH219538   1.008   2.647   4.428  0.2735 -0.0505 -0.0690
 6511TIP3    H119539   1.085   2.627   4.376 -1.4986 -0.2952 -2.7823
 6511TIP3    H219540   0.967   2.722   4.384 -1.0792  0.0503  1.2541
 6512TIP3   OH219541   4.337   5.964   0.203  0.5276  0.1085  0.0407
 6512TIP3    H119542   4.290   6.034   0.159  1.2305  0.8189  0.4046
 6512TIP3    H219543   4.315   5.974   0.296 -0.4531 -1.0048 -0.0434
 6513TIP3   OH219544   4.396   5.385   4.500  0.1979  0.0084  0.2578
 6513TIP3    H119545   4.376   5.345   4.416  0.5919  0.7161 -0.1867
 6513TIP3    H219546   4.461   5.327   4.540  0.0829 -0.2775  0.0285
 6514TIP3   OH219547   0.708   3.421   4.629  0.3262  0.4073 -0.0663
 6514TIP3    H119548   0.716   3.403   4.535 -2.0989  0.7208 -0.4049
 6514TIP3    H219549   0.617   3.447   4.640 -0.0175 -1.5604  2.7265
 6515TIP3   OH219550   2.813   0.537   2.877  0.4898  0.3111 -0.1566
 6515TIP3    H119551   2.878   0.585   2.826 -0.3426  1.2721 -0.3286
 6515TIP3    H219552   2.779   0.471   2.817 -0.3402  1.3056 -0.7941
 6516TIP3   OH219553   4.458   2.525   4.739  0.3346  0.0099  0.1730
 6516TIP3    H119554   4.472   2.558   4.650 -1.8605 -2.5695 -1.3058
 6516TIP3    H219555   4.515   2.448   4.745  1.7949  1.1337  1.7540
 6517TIP3   OH219556   3.728   4.810   4.813 -0.1687 -0.4675  0.4645
 6517TIP3    H119557   3.811   4.762   4.806  1.8903  2.6459  1.4216
 6517TIP3    H219558   3.721   4.831   4.906 -1.6583  0.0135  0.2635
 6518TIP3   OH219559   5.457   2.558   4.237 -0.4031  0.6196  0.9716
 6518TIP3    H119560   5.447   2.479   4.291 -0.6423 -2.0722 -2.6395
 6518TIP3    H219561   5.548   2.586   4.252  0.1863 -1.2992  1.2493
 6519TIP3   OH219562   1.586   4.547   1.607 -0.1462 -0.2129 -0.3342
 6519TIP3    H119563   1.581   4.469   1.552 -0.5896 -0.1463 -0.3991
 6519TIP3    H219564   1.579   4.514   1.696  2.4538 -0.5076 -0.1587
 6520TIP3   OH219565   5.387   2.755   0.715 -0.8786  0.0666 -0.0858
 6520TIP3    H119566   5.409   2.836   0.761 -0.6081  0.1591 -0.3690
 6520TIP3    H219567   5.299   2.732   0.745 -0.1051 -0.7377  1.6899
 6521TIP3   OH219568   5.131   2.407   2.339  0.4134  0.3580 -0.0679
 6521TIP3    H119569   5.051   2.448   2.372  0.9029  1.0695  0.2794
 6521TIP3    H219570   5.120   2.406   2.244  0.2009  0.9192 -0.0569
 6522TIP3   OH219571   2.477   3.858   2.206 -0.2063  0.4413 -0.0012
 6522TIP3    H119572   2.520   3.840   2.122 -1.9666 -0.8122 -0.6912
 6522TIP3    H219573   2.384   3.865   2.184 -0.5515  1.5491  1.6573
 6523TIP3   OH219574   5.410   5.165   4.910 -0.3431  0.3297  0.5485
 6523TIP3    H119575   5.395   5.252   4.873 -0.1648 -0.0149 -0.3729
 6523TIP3    H219576   5.505   5.158   4.918 -0.2100 -0.4439 -1.1391
 6524TIP3   OH219577   1.221   2.239   0.972  0.0596  0.7288  0.0195
 6524TIP3    H119578   1.256   2.202   1.053 -0.7052  1.4688  0.7152
 6524TIP3    H219579   1.148   2.181   0.949  0.8214  0.0132 -0.6379
 6525TIP3   OH219580   1.040   4.325   3.430 -0.7590  0.5541 -0.0974
 6525TIP3    H119581   0.987   4.399   3.459 -0.4463  0.0828  1.7864
 6525TIP3    H219582   1.112   4.364   3.381 -0.2899  1.5754  1.3489
 6526TIP3   OH219583   3.738   3.488   2.238  0.6496  0.1067 -0.3702
 6526TIP3    H119584   3.807   3.539   2.281  0.4165 -0.0332  0.1743
 6526TIP3    H219585   3.657   3.532   2.264  0.4783 -0.2615 -0.2828
 6527TIP3   OH219586   0.813   3.643   0.367  0.1932 -0.0968 -0.1037
 6527TIP3    H119587   0.776   3.630   0.280  0.9454 -1.1971 -0.2728
 6527TIP3    H219588   0.893   3.590   0.368 -0.6600 -1.4729  1.8200
 6528TIP3   OH219589   3.793   3.656   3.765 -0.3037 -0.3345 -0.1274
 6528TIP3    H119590   3.740   3.623   3.692  0.9182 -2.5573 -0.0897
 6528TIP3    H219591   3.803   3.750   3.746 -2.2631 -0.2984 -1.3409
 6529TIP3   OH219592   1.525   3.188   1.999 -0.3782 -0.2085 -0.1516
 6529TIP3    H119593   1.609   3.214   1.961  0.2614 -1.9235 -0.0345
 6529TIP3    H219594   1.496   3.114   1.944 -1.5260 -0.0121  0.1656
 6530TIP3   OH219595   0.053   5.428   1.013  0.4190 -0.0219 -0.1331
 6530TIP3    H119596   0.053   5.514   0.970  1.9898 -0.3515 -0.8923
 6530TIP3    H219597   0.007   5.370   0.952 -0.7249  0.2762  0.4224
 6531TIP3   OH219598   3.506   5.983   1.455  0.2857  0.1741 -0.3837
 6531TIP3    H119599   3.562   5.906   1.466 -0.7984 -0.7433 -1.0539
 6531TIP3    H219600   3.427   5.949   1.413 -0.3690  1.6020 -0.3571
 6532TIP3   OH219601   4.761   0.115   4.857 -0.3184 -0.1453  0.5195
 6532TIP3    H119602   4.844   0.151   4.824  0.3786 -0.5254  1.7851
 6532TIP3    H219603   4.714   0.191   4.891 -0.2551 -0.0090  0.3102
 6533TIP3   OH219604   6.296   4.448   4.975 -0.0539  0.1756  0.0048
 6533TIP3    H119605   6.275   4.388   5.047  0.3945  0.0653  0.0465
 6533TIP3    H219606   6.307   4.533   5.017 -0.5166  0.2562 -0.0315
 6534TIP3   OH219607   2.615   3.108   1.726  0.3860 -0.1033 -0.5699
 6534TIP3    H119608   2.647   3.192   1.694  2.5392 -1.0234 -0.9488
 6534TIP3    H219609   2.693   3.060   1.754 -0.9341 -1.2707  1.4626
 6535TIP3   OH219610   2.829   5.075   3.979 -0.5823 -0.0443  0.3192
 6535TIP3    H119611   2.900   5.064   3.916 -0.2066 -0.2876  0.7767
 6535TIP3    H219612   2.752   5.095   3.926 -0.3658 -0.6989 -0.2482
 6536TIP3   OH219613   4.973   2.037   2.893 -0.1601  0.9531 -0.1237
 6536TIP3    H119614   4.920   1.977   2.945 -1.2636  1.8190 -0.2108
 6536TIP3    H219615   4.930   2.039   2.807  0.6200  0.8741 -0.5224
 6537TIP3   OH219616   4.005   4.845   1.679 -0.0320 -0.2076 -0.0356
 6537TIP3    H119617   4.042   4.869   1.764 -0.3623 -1.4855  0.4972
 6537TIP3    H219618   4.049   4.902   1.616  2.6358 -1.4205  0.5974
 6538TIP3   OH219619   5.243   0.049   4.189  0.2597  0.1400 -0.9385
 6538TIP3    H119620   5.314   0.046   4.253  0.3011 -0.9507 -1.0255
 6538TIP3    H219621   5.167   0.015   4.236 -0.4407  2.0091 -0.6013
 6539TIP3   OH219622   6.306   4.979   0.578  0.1885  0.2019  0.2636
 6539TIP3    H119623   6.349   4.985   0.664  1.5164 -1.3363 -0.2355
 6539TIP3    H219624   6.278   4.888   0.572 -0.4658  0.4556 -0.6774
 6540TIP3   OH219625   5.214   1.413   2.033 -0.0083  0.3793 -0.3158
 6540TIP3    H119626   5.163   1.493   2.025 -1.2743 -0.3003  0.6869
 6540TIP3    H219627   5.155   1.343   2.004  0.2463 -0.4407  1.0502
 6541TIP3   OH219628   6.259   5.010   3.761  0.3638  0.1114  0.5516
 6541TIP3    H119629   6.233   4.946   3.696  1.4065 -0.0749  0.3081
 6541TIP3    H219630   6.220   5.092   3.731 -0.1725 -0.2150  0.3525
 6542TIP3   OH219631   4.719   0.618   3.705 -0.3741  0.0548 -0.0067
 6542TIP3    H119632   4.774   0.541   3.723 -0.4047 -0.5022 -2.0496
 6542TIP3    H219633   4.634   0.581   3.680 -1.0966  0.8597  1.1706
 6543TIP3   OH219634   3.988   5.868   4.624 -0.1008 -0.4739  0.2141
 6543TIP3    H119635   3.982   5.957   4.657 -0.9960  0.0572 -1.2710
 6543TIP3    H219636   4.081   5.853   4.611 -0.0196  0.7436 -0.7439
 6544TIP3   OH219637   5.887   4.752   4.584  0.0436  0.1975 -0.2725
 6544TIP3    H119638   5.903   4.791   4.670  0.4408 -1.6338  0.5265
 6544TIP3    H219639   5.800   4.713   4.592  0.9286 -1.8086  0.0528
 6545TIP3   OH219640   0.731   1.458   4.930  0.0292  0.3430 -0.0643
 6545TIP3    H119641   0.767   1.523   4.869  3.1150 -0.5186  0.6917
 6545TIP3    H219642   0.723   1.378   4.878  0.7065  0.1348  0.1482
 6546TIP3   OH219643   1.345   4.070   1.392 -0.1343 -0.4257 -0.4853
 6546TIP3    H119644   1.314   4.080   1.302 -2.5369 -0.9710  0.2262
 6546TIP3    H219645   1.320   3.982   1.418 -0.0806 -0.0559  0.9464
 6547TIP3   OH219646   3.594   5.417   2.224  0.4057  0.1830  0.0764
 6547TIP3    H119647   3.588   5.510   2.244  2.4897  0.3284  0.2175
 6547TIP3    H219648   3.629   5.413   2.135  0.6966 -0.4607  0.2106
 6548TIP3   OH219649   2.840   1.620   2.872  0.4089  0.5286  0.5881
 6548TIP3    H119650   2.876   1.631   2.784  1.0852 -0.5429  0.7214
 6548TIP3    H219651   2.810   1.708   2.896 -2.7469  0.3236 -1.9567
 6549TIP3   OH219652   4.191   2.050   1.496 -0.2347 -0.6459  0.3589
 6549TIP3    H119653   4.153   2.112   1.434 -1.2886  1.8254  3.2466
 6549TIP3    H219654   4.284   2.071   1.496 -0.0828 -1.1958 -0.8457
 6550TIP3   OH219655   5.386   3.582   4.991 -0.1166  0.4240  0.0551
 6550TIP3    H119656   5.304   3.565   4.944 -0.8938 -1.4570  1.9216
 6550TIP3    H219657   5.451   3.529   4.946 -0.1545  1.0692 -0.7728
 6551TIP3   OH219658   6.064   5.311   3.966  0.4663  0.2080  0.4202
 6551TIP3    H119659   6.101   5.372   3.902 -0.6078  0.9341  0.4542
 6551TIP3    H219660   6.137   5.256   3.993  1.0793  0.3264 -0.9373
 6552TIP3   OH219661   0.839   1.499   0.671  0.0687 -0.3897  0.3795
 6552TIP3    H119662   0.814   1.592   0.669 -1.5365 -0.7923  0.3470
 6552TIP3    H219663   0.934   1.500   0.660  0.2238  1.3073  1.4109
 6553TIP3   OH219664   4.405   4.451   4.439  0.6378  0.6184  0.0427
 6553TIP3    H119665   4.379   4.445   4.347 -1.4483  0.0532  0.6269
 6553TIP3    H219666   4.390   4.542   4.463 -0.2998  0.4243  0.2195
 6554TIP3   OH219667   5.836   5.055   2.797  0.2144 -0.7810 -0.4481
 6554TIP3    H119668   5.763   5.109   2.766  1.8580  1.0228 -1.4043
 6554TIP3    H219669   5.853   4.994   2.726  0.7456 -0.0255 -0.9765
 6555TIP3   OH219670   4.226   5.579   2.969 -0.0795  0.4360  0.2389
 6555TIP3    H119671   4.132   5.562   2.961 -0.1927  0.8084  0.7353
 6555TIP3    H219672   4.258   5.578   2.879 -0.3954 -0.5952  0.1171
 6556TIP3   OH219673   3.545   2.437   4.511 -0.0051  0.4367 -0.1869
 6556TIP3    H119674   3.577   2.474   4.428 -0.9698  1.1009 -0.2836
 6556TIP3    H219675   3.592   2.486   4.579  2.6978 -1.8120 -0.2735
 6557TIP3   OH219676   5.762   2.721   2.817  0.2452 -0.2007  0.2695
 6557TIP3    H119677   5.840   2.720   2.872  1.4588  0.3878 -1.3611
 6557TIP3    H219678   5.711   2.795   2.848 -0.4103 -1.3949  2.2587
 6558TIP3   OH219679   1.399   2.599   0.273 -0.0668 -0.3893  0.0584
 6558TIP3    H119680   1.409   2.601   0.177 -2.6793 -0.7660 -0.2884
 6558TIP3    H219681   1.324   2.655   0.290 -0.9365 -1.9455  1.6711
 6559TIP3   OH219682   1.921   4.762   1.144  0.6165 -0.0274  0.2083
 6559TIP3    H119683   1.990   4.828   1.135  1.9056 -1.0312  1.9630
 6559TIP3    H219684   1.911   4.725   1.057  0.5144  1.8075 -0.6130
 6560TIP3   OH219685   3.951   2.208   3.722  0.0861 -0.1336  0.1792
 6560TIP3    H119686   4.031   2.253   3.694 -0.1679  1.3446  1.7207
 6560TIP3    H219687   3.880   2.262   3.689 -0.3179 -1.2287 -0.8285
 6561TIP3   OH219688   4.277   0.407   3.144 -0.1783  0.1222 -0.5072
 6561TIP3    H119689   4.366   0.442   3.139  0.5716 -0.8482  3.0115
 6561TIP3    H219690   4.286   0.314   3.122 -0.5307  0.2552 -1.2195
 6562TIP3   OH219691   4.130   1.317   5.047  0.0334  0.4520 -0.3397
 6562TIP3    H119692   4.119   1.346   5.137 -0.5644  0.7256 -0.4920
 6562TIP3    H219693   4.137   1.222   5.052  1.6074  0.5599  0.1347
 6563TIP3   OH219694   2.532   1.224   3.606  0.2708 -0.2694  0.2672
 6563TIP3    H119695   2.504   1.306   3.649  0.2567 -0.6231  0.9483
 6563TIP3    H219696   2.495   1.229   3.518 -0.5004  0.0461  0.6016
 6564TIP3   OH219697   5.939   5.265   1.461 -0.4818  0.1438  0.0682
 6564TIP3    H119698   5.859   5.296   1.503 -1.1383 -0.2173 -0.8715
 6564TIP3    H219699   5.958   5.181   1.502  0.3358  0.9490  1.4142
 6565TIP3   OH219700   2.583   5.073   4.522  0.9941 -0.6840  0.4895
 6565TIP3    H119701   2.630   5.117   4.593  1.1214  2.2347 -1.2536
 6565TIP3    H219702   2.652   5.028   4.472  1.8251  1.9712 -0.9380
 6566TIP3   OH219703   4.092   1.206   2.015 -0.2032  0.5336 -0.4895
 6566TIP3    H119704   4.083   1.182   2.107 -1.2518 -0.6101 -0.8559
 6566TIP3    H219705   4.024   1.271   2.000  0.1286  0.9035 -0.4052
 6567TIP3   OH219706   1.006   3.235   1.614  0.0042  0.4286 -0.0864
 6567TIP3    H119707   1.060   3.310   1.590 -0.9069  0.8526 -0.8901
 6567TIP3    H219708   0.933   3.273   1.663  0.6052 -0.1796  1.3376
 6568TIP3   OH219709   3.981   4.981   2.145 -0.4752 -0.2396 -0.1658
 6568TIP3    H119710   3.894   5.020   2.149 -0.2410  0.2647  0.1924
 6568TIP3    H219711   4.001   4.959   2.236  0.4963  1.2942  0.0188
 6569TIP3   OH219712   4.612   5.002   2.033 -0.0669  0.2615 -0.0604
 6569TIP3    H119713   4.700   5.025   2.004  0.7507 -1.0602  1.2045
 6569TIP3    H219714   4.583   4.934   1.972  0.3111 -0.1654  0.2206
 6570TIP3   OH219715   5.983   0.832   0.612 -0.4829  0.5826  0.1691
 6570TIP3    H119716   5.913   0.848   0.674  0.2620 -0.6509  1.4061
 6570TIP3    H219717   5.979   0.738   0.595  0.0487  0.7109 -0.7660
 6571TIP3   OH219718   2.536   2.800   0.234  0.1160  0.2453 -0.3407
 6571TIP3    H119719   2.621   2.772   0.201  1.0206 -0.0273  1.9822
 6571TIP3    H219720   2.503   2.724   0.282 -1.0466  0.6326 -0.4954
 6572TIP3   OH219721   3.845   0.384   0.366 -0.2380 -0.6417  0.5725
 6572TIP3    H119722   3.830   0.315   0.431  1.8801 -0.5661  1.1991
 6572TIP3    H219723   3.757   0.405   0.333 -0.9691 -3.6183  0.3398
 6573TIP3   OH219724   2.555   5.783   2.187  0.0097 -0.6632  0.4028
 6573TIP3    H119725   2.504   5.813   2.112  0.1264  0.2018  0.6664
 6573TIP3    H219726   2.570   5.690   2.169 -0.7019 -0.6713 -0.2192
 6574TIP3   OH219727   0.561   1.406   5.127  0.2772  0.2415 -0.6045
 6574TIP3    H119728   0.604   1.442   5.049  1.0354  0.4858 -0.0882
 6574TIP3    H219729   0.520   1.325   5.096 -0.1952  0.7849 -1.4499
 6575TIP3   OH219730   0.597   4.492   3.438 -0.1261  0.4458  0.4089
 6575TIP3    H119731   0.587   4.586   3.423  1.4929  0.3600 -1.6771
 6575TIP3    H219732   0.692   4.477   3.434 -0.3365 -1.2309  1.0192
 6576TIP3   OH219733   3.880   0.418   0.787  0.2057 -0.1841 -0.4226
 6576TIP3    H119734   3.891   0.431   0.881  0.0975 -0.1936 -0.4076
 6576TIP3    H219735   3.895   0.324   0.773  1.4944  0.0396 -0.6073
 6577TIP3   OH219736   5.183   4.061   3.460  0.1734 -0.1728 -0.2445
 6577TIP3    H119737   5.260   4.087   3.409  0.3674  0.7458  0.4805
 6577TIP3    H219738   5.129   4.012   3.398  0.6552  0.4444 -1.1917
 6578TIP3   OH219739   3.401   2.658   4.952  0.3419 -0.0121  0.2887
 6578TIP3    H119740   3.370   2.590   4.892 -0.5641  0.9727 -0.4006
 6578TIP3    H219741   3.385   2.623   5.039 -0.5234 -0.5030 -0.0550
 6579TIP3   OH219742   1.937   0.076   3.193  0.3220 -0.0260 -0.6278
 6579TIP3    H119743   1.903   0.004   3.246  3.3121  0.2452  1.9013
 6579TIP3    H219744   1.948   0.037   3.106 -2.5310 -1.1663 -0.5970
 6580TIP3   OH219745   3.844   2.421   0.631  0.2327  0.0995  0.4241
 6580TIP3    H119746   3.917   2.461   0.679  0.5742  1.2085 -0.9708
 6580TIP3    H219747   3.800   2.495   0.588 -1.1435 -0.6635  0.4637
 6581TIP3   OH219748   4.442   5.510   2.115  0.4244 -0.3669 -0.0726
 6581TIP3    H119749   4.453   5.606   2.117  1.9173 -0.4973 -0.4343
 6581TIP3    H219750   4.438   5.488   2.022 -3.2031 -0.4093 -0.0481
 6582TIP3   OH219751   2.531   5.726   3.606 -0.0702 -0.4704 -0.3866
 6582TIP3    H119752   2.525   5.773   3.523  0.4874 -0.6614 -0.5400
 6582TIP3    H219753   2.602   5.663   3.593 -0.1549 -0.6837  0.1446
 6583TIP3   OH219754   4.283   4.282   0.890  0.0122  0.3979 -0.1866
 6583TIP3    H119755   4.201   4.318   0.924  0.8569  1.7432  0.5133
 6583TIP3    H219756   4.338   4.271   0.967  2.0548  3.7522 -0.9575
 6584TIP3   OH219757   4.460   2.975   5.069 -0.4342  0.2299  0.1252
 6584TIP3    H119758   4.496   2.926   4.994  0.3378  2.2195 -0.8885
 6584TIP3    H219759   4.534   2.983   5.129 -0.3785  0.6878 -0.0043
 6585TIP3   OH219760   3.633   1.429   3.301  0.1858  0.4825  0.4125
 6585TIP3    H119761   3.661   1.419   3.210 -0.4073  0.3494  0.2355
 6585TIP3    H219762   3.685   1.502   3.335  1.1779 -0.1515  0.2940
 6586TIP3   OH219763   3.085   5.570   4.102 -0.4402  0.6813 -1.1490
 6586TIP3    H119764   3.068   5.592   4.194  0.8528  1.7507 -1.1367
 6586TIP3    H219765   3.142   5.639   4.071 -1.3128  0.6513 -2.9519
 6587TIP3   OH219766   3.358   0.810   4.036 -0.2452  0.0623  0.2045
 6587TIP3    H119767   3.420   0.760   3.982  1.7518  2.4494  0.0972
 6587TIP3    H219768   3.290   0.839   3.976  0.3910  0.2564 -0.4296
 6588TIP3   OH219769   0.213   2.511   1.825 -0.2486 -0.2387  0.1266
 6588TIP3    H119770   0.244   2.429   1.786  1.1215 -0.0596  0.8001
 6588TIP3    H219771   0.147   2.543   1.763 -0.8127 -1.8357 -0.1505
 6589TIP3   OH219772   0.745   0.767   5.107 -0.2886  0.0691 -0.0473
 6589TIP3    H119773   0.653   0.765   5.131 -0.2285  0.8975  0.2777
 6589TIP3    H219774   0.791   0.784   5.189 -0.0057  1.8559 -0.5368
 6590TIP3   OH219775   2.425   4.210   0.168  0.0765  0.2979 -0.5284
 6590TIP3    H119776   2.379   4.291   0.189 -1.5131 -0.9296  0.9265
 6590TIP3    H219777   2.357   4.150   0.138  1.1881 -0.6142 -1.3306
 6591TIP3   OH219778   3.431   4.992   3.048  0.0555  0.5479 -0.2174
 6591TIP3    H119779   3.482   4.993   2.967 -0.3017  0.6043 -0.4468
 6591TIP3    H219780   3.340   4.994   3.018 -0.1207 -0.8424  0.1337
 6592TIP3   OH219781   0.665   0.889   2.977 -0.4329  0.4290  0.0227
 6592TIP3    H119782   0.682   0.795   2.970 -1.2977  0.1351  1.4255
 6592TIP3    H219783   0.630   0.900   3.065  0.4675  2.2094  0.1959
 6593TIP3   OH219784   6.092   1.869   2.145 -0.2082 -0.0296 -0.3808
 6593TIP3    H119785   6.061   1.958   2.128 -0.3324 -0.1905 -1.0241
 6593TIP3    H219786   6.168   1.859   2.089 -0.4004 -0.4478 -0.5660
 6594TIP3   OH219787   2.283   1.792   0.078 -0.4440  0.1009 -0.5839
 6594TIP3    H119788   2.248   1.875   0.110 -0.1067  1.3347 -3.1907
 6594TIP3    H219789   2.206   1.737   0.064 -0.8018  0.5593 -0.4235
 6595TIP3   OH219790   0.647   0.567   2.413  0.0693 -0.5325  0.0231
 6595TIP3    H119791   0.595   0.535   2.339 -0.5526 -1.2120  0.7361
 6595TIP3    H219792   0.687   0.489   2.450 -0.4946 -0.3419  1.0585
 6596TIP3   OH219793   5.714   2.960   2.249 -0.3692  0.4718  0.0199
 6596TIP3    H119794   5.795   2.991   2.290 -0.7369 -0.7545  1.8225
 6596TIP3    H219795   5.645   3.010   2.292 -0.8162 -1.3280  1.5164
 6597TIP3   OH219796   0.828   1.278   5.187  0.2306 -0.0766  0.2650
 6597TIP3    H119797   0.750   1.324   5.156  0.6119 -0.3001 -1.0507
 6597TIP3    H219798   0.868   1.242   5.108 -0.7409 -3.8009  1.2524
 6598TIP3   OH219799   4.428   4.848   3.358  0.2491 -0.0248 -0.2716
 6598TIP3    H119800   4.490   4.806   3.299  0.4535  1.5389 -1.2346
 6598TIP3    H219801   4.348   4.858   3.305  0.0406  0.3212  0.1071
 6599TIP3   OH219802   0.423   5.073   1.012  0.1584  0.1887 -0.7110
 6599TIP3    H119803   0.409   5.054   0.920  0.3586 -2.5644 -0.2474
 6599TIP3    H219804   0.502   5.024   1.036 -1.2077 -1.1393  1.4306
 6600TIP3   OH219805   3.054   3.792   2.977  0.3007  0.5694  0.0635
 6600TIP3    H119806   3.074   3.772   2.885  0.1964  0.3996  0.0783
 6600TIP3    H219807   2.959   3.782   2.983  0.2090  1.3047  0.0081
 6601TIP3   OH219808   5.618   4.187   3.916 -0.0515 -0.1166  0.4327
 6601TIP3    H119809   5.605   4.185   4.011  0.2077 -0.1739  0.4662
 6601TIP3    H219810   5.623   4.095   3.891 -0.3001 -0.1056  0.3387
 6602TIP3   OH219811   1.344   0.767   3.788  0.1901 -0.2772  0.1814
 6602TIP3    H119812   1.260   0.787   3.747 -1.3777 -1.3500  2.6285
 6602TIP3    H219813   1.362   0.842   3.844  1.7717  0.6911 -1.5162
 6603TIP3   OH219814   2.966   0.861   4.868 -0.6138  0.2650 -0.2616
 6603TIP3    H119815   3.053   0.819   4.866 -0.8225 -0.2378  0.7097
 6603TIP3    H219816   2.943   0.863   4.960 -2.0893 -0.5411 -0.5804
 6604TIP3   OH219817   0.602   5.590   2.568  0.6242 -0.0434 -0.1699
 6604TIP3    H119818   0.549   5.511   2.572 -0.3579  0.6263  0.6365
 6604TIP3    H219819   0.607   5.611   2.475  0.3777 -0.7104 -0.3407
 6605TIP3   OH219820   2.691   5.444   5.124 -0.1182  0.0623 -0.8405
 6605TIP3    H119821   2.611   5.393   5.139 -0.1476  0.2310 -0.3895
 6605TIP3    H219822   2.660   5.535   5.121  0.1118  0.1709 -0.1659
 6606TIP3   OH219823   5.120   5.206   2.214 -0.0392 -0.0217 -0.0886
 6606TIP3    H119824   5.093   5.243   2.130  0.3034 -0.2045 -0.2802
 6606TIP3    H219825   5.038   5.188   2.259 -0.2808 -1.5676 -1.0869
 6607TIP3   OH219826   4.524   0.731   1.155 -0.6802 -0.3764  0.1468
 6607TIP3    H119827   4.437   0.692   1.165 -1.3364  1.0771  0.4499
 6607TIP3    H219828   4.582   0.676   1.208 -1.2217 -1.9007 -0.7738
 6608TIP3   OH219829   1.916   4.490   1.270  0.0675 -0.2449  0.0055
 6608TIP3    H119830   1.980   4.428   1.234 -1.3733 -1.1276 -1.1420
 6608TIP3    H219831   1.952   4.576   1.249  0.9042 -0.7131 -0.5513
 6609TIP3   OH219832   3.368   0.614   3.824  0.2632  0.1388 -0.3694
 6609TIP3    H119833   3.344   0.543   3.883 -0.2468  0.9875  0.4763
 6609TIP3    H219834   3.300   0.614   3.757  0.0541  0.0732 -0.1574
 6610TIP3   OH219835   3.688   5.421   2.525 -0.0884 -0.3134 -0.3084
 6610TIP3    H119836   3.763   5.473   2.556 -1.2279  1.1485  0.1085
 6610TIP3    H219837   3.693   5.427   2.430  0.3189 -0.2002 -0.2832
 6611TIP3   OH219838   4.501   4.679   2.521  0.4816  0.1909  0.3091
 6611TIP3    H119839   4.467   4.762   2.554  2.4906  0.7290  1.1682
 6611TIP3    H219840   4.589   4.699   2.489  0.3274 -1.2663 -1.1927
 6612TIP3   OH219841   0.587   0.155   1.765 -0.3180  0.1623  0.1694
 6612TIP3    H119842   0.655   0.212   1.800 -0.7431  0.5377  0.3933
 6612TIP3    H219843   0.563   0.098   1.838  0.5405 -0.7439 -0.2223
 6613TIP3   OH219844   2.906   3.491   4.367  0.5527  0.3032 -0.5590
 6613TIP3    H119845   2.828   3.545   4.357  0.9338  1.2210  0.9681
 6613TIP3    H219846   2.882   3.407   4.330 -1.0112  0.7051 -0.5339
 6614TIP3   OH219847   1.231   0.472   1.626  0.1304  0.1483 -0.0991
 6614TIP3    H119848   1.142   0.439   1.638  0.4863 -0.8340 -0.0661
 6614TIP3    H219849   1.253   0.451   1.536  0.8791 -1.0328  0.3359
 6615TIP3   OH219850   3.902   1.242   1.604  0.3598 -0.5559 -0.4820
 6615TIP3    H119851   3.990   1.276   1.619  0.5218 -1.7112  1.5524
 6615TIP3    H219852   3.844   1.309   1.639  0.5386 -0.7950  0.2917
 6616TIP3   OH219853   1.825   4.969   2.422  0.2675  0.3403 -0.4143
 6616TIP3    H119854   1.789   4.960   2.334 -1.4433  0.6060  0.2140
 6616TIP3    H219855   1.874   5.052   2.419  0.0358  0.4604 -1.0552
 6617TIP3   OH219856   4.249   5.219   3.364 -0.7432 -0.1350  0.6310
 6617TIP3    H119857   4.181   5.229   3.297 -1.4259  0.2039  1.3583
 6617TIP3    H219858   4.210   5.161   3.430 -0.7611  0.9575  1.6063
 6618TIP3   OH219859   2.636   0.324   0.331 -0.4139 -0.3533  0.4196
 6618TIP3    H119860   2.660   0.232   0.348  0.0755 -0.6369 -1.5982
 6618TIP3    H219861   2.714   0.362   0.290 -1.0943  0.5912 -0.0317
 6619TIP3   OH219862   0.790   0.993   2.747  0.2388 -0.0671  0.2027
 6619TIP3    H119863   0.767   0.980   2.839  1.7194  1.1973  0.8069
 6619TIP3    H219864   0.715   1.039   2.710 -0.8472 -1.5728  0.4797
 6620TIP3   OH219865   5.190   0.729   1.508  0.5633  0.3349  0.5653
 6620TIP3    H119866   5.116   0.668   1.512  1.1605 -0.4485 -0.1057
 6620TIP3    H219867   5.239   0.713   1.589  0.9255 -0.3466  0.2130
 6621TIP3   OH219868   4.691   2.183   4.282  0.2498  0.3049 -0.7283
 6621TIP3    H119869   4.702   2.237   4.203 -0.9151  0.6193 -0.6944
 6621TIP3    H219870   4.615   2.128   4.263  1.4757 -1.4624 -0.8129
 6622TIP3   OH219871   4.507   0.894   2.648 -0.3361 -0.8503  0.5560
 6622TIP3    H119872   4.505   0.801   2.627  0.2843 -0.5581 -0.9135
 6622TIP3    H219873   4.598   0.920   2.634 -0.8836  0.3853 -1.1099
 6623TIP3   OH219874   2.837   0.722   1.285  0.2201 -0.7151  0.4749
 6623TIP3    H119875   2.770   0.676   1.234  0.9431 -0.4443 -0.7584
 6623TIP3    H219876   2.879   0.654   1.337 -0.6133 -0.9786  0.8232
 6624TIP3   OH219877   2.209   4.751   0.274 -0.5559  0.4593 -0.2859
 6624TIP3    H119878   2.283   4.753   0.335 -1.0480 -1.4918  0.4443
 6624TIP3    H219879   2.248   4.726   0.190 -0.3666 -0.5928  0.1041
 6625TIP3   OH219880   3.568   2.583   4.271 -0.1892  0.2125  0.2724
 6625TIP3    H119881   3.491   2.584   4.215 -0.7351 -0.0867  0.9987
 6625TIP3    H219882   3.565   2.667   4.318  1.0603  1.1133 -1.1682
 6626TIP3   OH219883   0.431   1.619   0.147 -0.1656 -0.1193  0.6858
 6626TIP3    H119884   0.499   1.558   0.119 -0.7173  0.1183 -1.3272
 6626TIP3    H219885   0.473   1.705   0.143 -0.4590 -0.0053 -0.2523
 6627TIP3   OH219886   0.773   3.973   0.084 -0.3543  0.8453  0.4500
 6627TIP3    H119887   0.774   4.012   0.172  4.6539  1.0005  0.5556
 6627TIP3    H219888   0.793   4.046   0.026 -1.1613  0.2649 -0.5747
 6628TIP3   OH219889   0.657   2.004   2.982 -0.1336 -0.6022  0.2515
 6628TIP3    H119890   0.610   1.981   3.062  1.4815  0.2920  1.5375
 6628TIP3    H219891   0.722   1.934   2.971 -0.1696 -0.5796 -0.1446
 6629TIP3   OH219892   2.347   4.376   2.102  0.1368 -0.1289 -0.0507
 6629TIP3    H119893   2.421   4.315   2.102 -0.5837 -1.0451  1.2995
 6629TIP3    H219894   2.271   4.322   2.078 -0.8393 -0.2707  2.9555
 6630TIP3   OH219895   1.669   4.740   0.596 -0.4630 -0.0300 -0.0435
 6630TIP3    H119896   1.738   4.770   0.536 -1.3618  0.1258 -1.0426
 6630TIP3    H219897   1.612   4.817   0.606 -0.1303  0.0543  1.3208
 6631TIP3   OH219898   3.195   0.472   4.493  0.4603 -0.1210 -0.1205
 6631TIP3    H119899   3.147   0.400   4.534 -0.5289  1.1505  1.0217
 6631TIP3    H219900   3.282   0.468   4.533  0.4505 -0.7381 -0.1511
 6632TIP3   OH219901   3.092   4.988   4.473  0.7664  0.0930 -0.5227
 6632TIP3    H119902   3.098   5.030   4.559  0.8902 -0.1301 -0.4195
 6632TIP3    H219903   3.026   4.920   4.484  0.0179  0.7499 -0.8998
 6633TIP3   OH219904   0.372   5.222   1.442  0.5999 -0.0324  0.2673
 6633TIP3    H119905   0.400   5.175   1.521 -0.5113  0.9350  1.2697
 6633TIP3    H219906   0.434   5.194   1.375  1.0801 -1.5062  1.2742
 6634TIP3   OH219907   0.932   4.786   1.373 -0.5235  0.7055  0.1515
 6634TIP3    H119908   0.867   4.762   1.439 -0.3429 -0.4457 -0.0780
 6634TIP3    H219909   0.934   4.712   1.313  1.3896  0.4866  0.4475
 6635TIP3   OH219910   5.439   5.219   4.550 -0.6015  0.5432  0.2760
 6635TIP3    H119911   5.521   5.169   4.543 -0.3739  0.9996 -0.4460
 6635TIP3    H219912   5.448   5.289   4.485 -0.6478  1.9199  1.6950
 6636TIP3   OH219913   0.862   4.723   3.105  0.5966  0.1766  0.1813
 6636TIP3    H119914   0.910   4.730   3.022 -0.2359 -1.1539 -0.4572
 6636TIP3    H219915   0.899   4.645   3.147  0.9141  0.7655  1.0137
 6637TIP3   OH219916   1.665   1.316   4.442 -0.3093  0.3347 -0.3007
 6637TIP3    H119917   1.705   1.402   4.457 -0.8227  0.3588  1.0576
 6637TIP3    H219918   1.673   1.271   4.526 -0.8342 -0.6161 -0.7464
 6638TIP3   OH219919   5.119   1.440   2.991  0.1700  0.4804  0.0743
 6638TIP3    H119920   5.043   1.430   3.048  1.7809 -1.5585  2.0577
 6638TIP3    H219921   5.178   1.369   3.017  2.2476  1.2195 -2.2187
 6639TIP3   OH219922   1.257   0.403   2.239  0.3137 -0.0750  0.1492
 6639TIP3    H119923   1.329   0.366   2.188  0.2717 -2.2065  1.5043
 6639TIP3    H219924   1.185   0.341   2.228 -0.3701  0.5137  1.1101
 6640TIP3   OH219925   3.724   1.220   0.444 -0.0430 -0.0196  0.1581
 6640TIP3    H119926   3.803   1.220   0.499 -1.0399 -0.2644  1.6301
 6640TIP3    H219927   3.740   1.151   0.380  1.2553  0.4308 -0.0311
   6.35910   5.99542   5.19219   0.00000   0.00000  -2.11970   0.00000  -2.11970  -2.99771
