Title
19942
    1ASP      N    1   1.182   1.010   3.705  0.0924 -0.1520 -0.0710
    1ASP    HT1    2   1.157   1.019   3.806  1.7777 -2.2232  0.6025
    1ASP    HT2    3   1.094   0.988   3.653 -0.2373  3.0822 -1.1025
    1ASP    HT3    4   1.230   1.095   3.670  1.5462 -0.0757  1.9825
    1ASP     CA    5   1.276   0.887   3.693 -0.3113 -0.6841 -0.6368
    1ASP     HA    6   1.360   0.897   3.760 -1.0416 -0.9666  0.3429
    1ASP     CB    7   1.203   0.759   3.745 -0.1629  0.3523  0.0180
    1ASP    HB1    8   1.267   0.671   3.727 -2.7386 -1.7421  0.5267
    1ASP    HB2    9   1.108   0.755   3.687 -0.0122  0.5006 -0.2423
    1ASP     CG   10   1.180   0.753   3.891 -0.2393 -0.5700 -0.3176
    1ASP    OD1   11   1.150   0.646   3.942 -0.6528  0.1458 -0.1507
    1ASP    OD2   12   1.189   0.862   3.956  0.0348  0.1709 -0.2516
    1ASP      C   13   1.333   0.864   3.547  0.4841 -0.3866  0.1333
    1ASP      O   14   1.286   0.935   3.455  0.2806  0.5657 -0.0035
    2ALA      N   15   1.428   0.773   3.520 -0.0956  0.0124  0.1707
    2ALA     HN   16   1.470   0.712   3.587  1.4752  0.4929 -0.3251
    2ALA     CA   17   1.500   0.766   3.393  0.1695 -0.4175 -0.0538
    2ALA     HA   18   1.570   0.848   3.384  0.1952 -0.1743  1.8483
    2ALA     CB   19   1.590   0.639   3.397 -0.1124  0.2162  0.4481
    2ALA    HB1   20   1.663   0.643   3.480 -1.3649  0.7052  1.5472
    2ALA    HB2   21   1.649   0.631   3.303  2.0940 -3.5948  1.9013
    2ALA    HB3   22   1.527   0.548   3.407  1.6294 -1.1747 -0.6080
    2ALA      C   23   1.414   0.758   3.269 -0.6455 -0.0633 -0.2203
    2ALA      O   24   1.314   0.682   3.265  0.0736 -0.3791 -0.1688
    3ASP      N   25   1.459   0.833   3.163 -0.2302 -0.4098  0.0293
    3ASP     HN   26   1.536   0.895   3.176 -0.4971 -0.1624  0.4970
    3ASP     CA   27   1.393   0.830   3.033  0.3685 -0.1070  0.0668
    3ASP     HA   28   1.290   0.854   3.055  0.6240  0.0323  1.2138
    3ASP     CB   29   1.459   0.936   2.934  0.5963  0.4107 -0.2295
    3ASP    HB1   30   1.412   0.926   2.834  0.6807 -1.7793 -0.1028
    3ASP    HB2   31   1.566   0.906   2.926  0.3330 -1.4153  2.1111
    3ASP     CG   32   1.466   1.080   2.975  1.1202  0.0185 -0.3131
    3ASP    OD1   33   1.462   1.110   3.100  0.3250  0.4031  0.1882
    3ASP    OD2   34   1.484   1.169   2.889 -0.2874 -0.4767 -0.6019
    3ASP      C   35   1.410   0.695   2.969  0.2517  0.5186 -0.9895
    3ASP      O   36   1.516   0.633   2.968 -0.7508 -0.3444 -0.5021
    4GLY      N   37   1.306   0.639   2.922  0.3135 -0.1424  0.3679
    4GLY     HN   38   1.213   0.675   2.920 -0.4884 -2.1008 -0.1971
    4GLY     CA   39   1.327   0.523   2.831  0.1692 -0.6678 -0.4915
    4GLY    HA1   40   1.232   0.471   2.822 -0.8941  1.3235 -1.5291
    4GLY    HA2   41   1.404   0.458   2.870  1.0825 -0.4074 -1.7988
    4GLY      C   42   1.372   0.557   2.688 -0.4117 -0.6145  0.1865
    4GLY      O   43   1.423   0.670   2.664  0.5365  0.8248 -0.2462
    5PRO      N   44   1.360   0.465   2.598  0.3812  0.1590 -0.9967
    5PRO     CD   45   1.343   0.325   2.632  0.0325 -0.0234 -0.0605
    5PRO    HD1   46   1.243   0.301   2.673 -0.0615 -1.2936 -0.9710
    5PRO    HD2   47   1.432   0.291   2.690 -0.7264  0.5199  1.4716
    5PRO     CA   48   1.365   0.479   2.452 -0.1012  0.4325  0.6450
    5PRO     HA   49   1.469   0.503   2.440 -0.0121  0.1287  0.7997
    5PRO     CB   50   1.319   0.343   2.389  0.3433  0.6923 -0.4930
    5PRO    HB1   51   1.354   0.332   2.284 -0.4362 -0.0663 -0.6855
    5PRO    HB2   52   1.208   0.338   2.393  0.3534  1.0296  0.5890
    5PRO     CG   53   1.368   0.250   2.500  0.4253  0.1099  0.3893
    5PRO    HG1   54   1.319   0.150   2.503  0.3969  0.1410  1.1176
    5PRO    HG2   55   1.476   0.233   2.479  0.1297 -0.3071 -0.9137
    5PRO      C   56   1.292   0.600   2.394 -0.3218 -0.0950 -0.2058
    5PRO      O   57   1.188   0.650   2.442  0.1973  0.2597 -0.4293
    6GLY      N   58   1.368   0.667   2.309  0.1140  0.2636  0.0790
    6GLY     HN   59   1.460   0.632   2.292  0.0205  0.3900 -0.7486
    6GLY     CA   60   1.323   0.790   2.245  0.9187 -0.2438  0.4242
    6GLY    HA1   61   1.404   0.825   2.182 -2.0547  1.4749 -2.7310
    6GLY    HA2   62   1.293   0.862   2.320 -0.8105 -1.9976  1.5161
    6GLY      C   63   1.216   0.785   2.139  0.5093  0.1658  0.7025
    6GLY      O   64   1.158   0.679   2.111 -0.0846 -0.5300  0.4748
    7ASP      N   65   1.204   0.903   2.074  0.7982  0.0652 -0.5270
    7ASP     HN   66   1.270   0.975   2.093 -1.8331  2.7055 -0.6162
    7ASP     CA   67   1.121   0.933   1.955 -0.1348  0.1864 -0.0705
    7ASP     HA   68   1.018   0.910   1.979 -0.6085  1.0020 -1.2121
    7ASP     CB   69   1.150   1.079   1.910 -0.1819  0.1191 -0.1596
    7ASP    HB1   70   1.117   1.101   1.807  0.0562  1.6749  0.0653
    7ASP    HB2   71   1.261   1.089   1.921 -0.2519  0.3598  0.4061
    7ASP     CG   72   1.080   1.184   1.999 -0.1620 -0.0324  0.5369
    7ASP    OD1   73   1.107   1.306   1.973 -0.4481  0.2699 -0.9214
    7ASP    OD2   74   1.000   1.143   2.082  0.2250 -0.3110 -0.0717
    7ASP      C   75   1.160   0.845   1.838  0.0230 -0.0004  0.1272
    7ASP      O   76   1.276   0.799   1.828  0.1444 -0.3594 -0.3605
    8PRO      N   77   1.080   0.810   1.750 -0.0469  0.1681  0.1774
    8PRO     CD   78   0.939   0.848   1.742 -0.0546 -1.0434 -1.1438
    8PRO    HD1   79   0.925   0.958   1.753  1.3139 -0.8430 -1.2392
    8PRO    HD2   80   0.877   0.797   1.819  2.6171 -1.4551  0.8809
    8PRO     CA   81   1.115   0.727   1.632 -0.6224  0.1087  0.1827
    8PRO     HA   82   1.169   0.642   1.670  0.7492  0.6602 -0.4428
    8PRO     CB   83   0.993   0.686   1.579  0.9983  0.1595 -0.2090
    8PRO    HB1   84   0.955   0.592   1.623 -0.1760  0.4597 -0.5230
    8PRO    HB2   85   0.979   0.664   1.470 -0.4095 -0.7991  0.1309
    8PRO     CG   86   0.899   0.805   1.602  0.1031 -0.0925 -0.4432
    8PRO    HG1   87   0.920   0.876   1.520  1.1835 -0.8925 -0.8862
    8PRO    HG2   88   0.791   0.780   1.601  0.0182 -0.3307  2.6453
    8PRO      C   89   1.207   0.813   1.537  0.9924  0.5096  0.4033
    8PRO      O   90   1.317   0.765   1.505 -0.2550  0.7081  0.2520
    9ASP      N   91   1.170   0.931   1.500  0.3915  0.1168  0.0616
    9ASP     HN   92   1.077   0.958   1.522  0.2897 -0.1946  0.0081
    9ASP     CA   93   1.237   1.008   1.396 -0.0399  0.5098  0.1201
    9ASP     HA   94   1.293   0.947   1.328 -2.6051 -0.5308 -1.2002
    9ASP     CB   95   1.140   1.096   1.317 -0.0855  0.0394 -0.0600
    9ASP    HB1   96   1.193   1.164   1.247  1.4956  0.0904  1.1471
    9ASP    HB2   97   1.075   1.152   1.388  0.2078 -0.1995  0.3975
    9ASP     CG   98   1.060   1.006   1.230  0.4461 -0.1189 -0.3234
    9ASP    OD1   99   1.111   0.911   1.159  0.1645  0.0208  0.4116
    9ASP    OD2  100   0.934   1.026   1.220 -0.1738  0.0792  0.3677
    9ASP      C  101   1.333   1.109   1.460 -0.5524  0.2284 -0.5022
    9ASP      O  102   1.359   1.215   1.407  0.1927 -0.3625 -0.4759
   10ALA      N  103   1.376   1.076   1.579 -0.6274  0.0909  0.0458
   10ALA     HN  104   1.355   0.984   1.614  4.0384 -0.6836  1.5441
   10ALA     CA  105   1.455   1.154   1.673 -0.4901 -0.1945  0.1762
   10ALA     HA  106   1.380   1.195   1.739 -2.0608 -1.9233 -0.4082
   10ALA     CB  107   1.536   1.051   1.753 -0.4628 -0.5436 -0.1523
   10ALA    HB1  108   1.473   0.973   1.801 -1.1143  1.8578  3.3168
   10ALA    HB2  109   1.590   1.105   1.835  0.6659 -0.9147 -0.6353
   10ALA    HB3  110   1.612   0.995   1.695  0.1231  1.5732 -1.5469
   10ALA      C  111   1.548   1.273   1.634  0.5503  0.3607 -0.2761
   10ALA      O  112   1.629   1.255   1.549 -0.1300 -0.0036  0.4272
   11GLY      N  113   1.532   1.381   1.713 -0.6937  0.1171 -0.0206
   11GLY     HN  114   1.469   1.377   1.790 -1.3067  2.0833 -0.3849
   11GLY     CA  115   1.607   1.504   1.705  0.1226 -0.5007 -0.2497
   11GLY    HA1  116   1.542   1.577   1.752 -1.0637 -2.1350  0.7280
   11GLY    HA2  117   1.622   1.528   1.600 -0.9784 -3.5244 -1.1868
   11GLY      C  118   1.739   1.515   1.788  0.1466 -0.0591  0.1119
   11GLY    OT1  119   1.728   1.514   1.915 -0.0540  0.0790  0.8828
   11GLY    OT2  120   1.847   1.531   1.731 -0.1194  0.9484 -0.1744
   12LIT    LIT  121   4.970   4.306   3.404 -0.1533  0.6107 -0.8269
   13LIT    LIT  122   5.078   0.344   2.133 -0.3337 -1.2266 -0.2665
   14LIT    LIT  123   0.157   5.353   3.156 -0.4322  0.6583 -0.5644
   15LIT    LIT  124   1.271   0.967   0.369  0.9024  0.1077  0.3564
   16LIT    LIT  125   5.382   4.789   1.037 -0.8821 -1.5225  0.8895
   17LIT    LIT  126   4.962   1.581   3.952 -0.5516 -0.7721 -0.6136
   18LIT    LIT  127   3.823   5.311   3.829 -0.2475  0.3051  0.0436
   19LIT    LIT  128   0.938   0.892   1.077  0.7325  0.7353  0.5603
   20LIT    LIT  129   5.574   1.729   0.127 -0.7377 -0.0368  0.8798
   21LIT    LIT  130   0.078   0.567   0.406 -0.3703  0.4110  0.6464
   22LIT    LIT  131   5.050   5.426   1.902 -0.0944  0.0286  1.1565
   23LIT    LIT  132   0.772   0.321   0.461  0.5565  0.3387  0.0057
   24LIT    LIT  133   0.757   2.582   2.627  1.0313 -0.5076  1.2509
   25LIT    LIT  134   5.350   3.591   0.064  0.2992 -0.5209  0.5199
   26LIT    LIT  135   0.021   5.987   0.396  0.4546 -0.0580  1.3019
   27LIT    LIT  136   0.077   4.906   1.595  0.0367 -0.0626 -0.3450
   28LIT    LIT  137   1.013   0.535   3.982 -0.0562  0.5993 -0.0240
   29LIT    LIT  138   3.642   3.317   2.925  0.5729  0.7906  0.6762
   30LIT    LIT  139   3.908   0.618   0.232 -0.3988  0.5220 -0.1891
   31LIT    LIT  140   3.343   0.466   1.700  0.5729  0.0552 -0.3200
   32LIT    LIT  141   0.678   1.668   4.013 -0.0502 -0.8146 -0.7052
   33LIT    LIT  142   3.035   1.639   4.464 -0.7174 -0.3887  0.1291
   34CLA    CLA  143   2.540   1.162   4.885 -0.1567 -0.2108 -0.2143
   35CLA    CLA  144   3.720   2.571   2.269 -0.2855 -0.2507  0.1996
   36CLA    CLA  145   1.617   5.284   2.650  0.2456 -0.1555  0.0011
   37CLA    CLA  146   3.250   1.060   5.146  0.1121  0.3094  0.0660
   38CLA    CLA  147   5.933   2.577   2.901 -0.0165 -0.1031  0.0389
   39CLA    CLA  148   5.067   1.799   3.987 -0.1778  0.0323  0.2634
   40CLA    CLA  149   1.799   3.588   0.791  0.1655  0.0118 -0.1163
   41CLA    CLA  150   3.313   2.750   1.497  0.3580 -0.1896 -0.1048
   42CLA    CLA  151   5.336   3.928   1.451  0.1360 -0.1226 -0.3331
   43CLA    CLA  152   3.474   0.323   3.743  0.0100 -0.1824  0.0000
   44CLA    CLA  153   2.893   4.333   4.809  0.0997 -0.3173  0.7999
   45CLA    CLA  154   2.672   4.456   0.542  0.0816  0.2067 -0.1855
   46CLA    CLA  155   1.882   1.619   0.008  0.0918  0.3791  0.4707
   47CLA    CLA  156   6.174   5.188   0.560 -0.3514 -0.1431 -0.0266
   48CLA    CLA  157   4.926   0.428   1.690 -0.1436  0.2798 -0.4579
   49CLA    CLA  158   2.661   1.679   2.604 -0.1680  0.5381 -0.0097
   50CLA    CLA  159   3.430   3.754   2.963 -0.1824  0.0465 -0.1958
   51CLA    CLA  160   4.567   0.861   3.627  0.0637 -0.2899  0.0382
   52TIP3   OH2  161   5.170   0.832   3.700 -0.3460 -0.3642  0.1424
   52TIP3    H1  162   5.095   0.793   3.744  0.7222 -2.1577  0.4867
   52TIP3    H2  163   5.245   0.809   3.755  0.3661  2.6502  0.6338
   53TIP3   OH2  164   0.263   2.094   1.509  0.0806 -0.2312 -0.3728
   53TIP3    H1  165   0.285   2.029   1.442  2.7290  1.0551 -0.8906
   53TIP3    H2  166   0.344   2.104   1.559 -1.1456  0.5857  1.5257
   54TIP3   OH2  167   0.901   4.121   2.099  0.2389 -0.5329  0.1350
   54TIP3    H1  168   0.835   4.080   2.155  0.9429  0.0842  1.4567
   54TIP3    H2  169   0.963   4.160   2.160  0.7385  0.6552 -1.0923
   55TIP3   OH2  170   5.954   5.061   0.730  0.4560  0.7644  0.1449
   55TIP3    H1  171   6.031   5.089   0.680  1.0115  0.1516  0.6418
   55TIP3    H2  172   5.978   5.073   0.821  0.4300 -0.5934  0.3466
   56TIP3   OH2  173   4.370   5.144   3.300  0.0734 -0.3759  0.0418
   56TIP3    H1  174   4.446   5.202   3.299  0.4256 -0.8235 -0.4149
   56TIP3    H2  175   4.297   5.199   3.325  0.6202 -0.0211  0.8813
   57TIP3   OH2  176   1.403   4.583   0.578  0.7679  0.1845 -0.5233
   57TIP3    H1  177   1.433   4.524   0.647 -1.2807 -0.4388 -0.1139
   57TIP3    H2  178   1.459   4.561   0.503  1.4297 -0.7998  0.2278
   58TIP3   OH2  179   6.184   1.253   0.755 -0.0523 -0.3317  0.5615
   58TIP3    H1  180   6.261   1.235   0.808  2.4653  0.5931 -2.4403
   58TIP3    H2  181   6.164   1.345   0.771 -0.1561 -0.4062  0.8696
   59TIP3   OH2  182   4.115   0.862   2.494  0.2749 -0.1186  0.1423
   59TIP3    H1  183   4.063   0.937   2.463  0.2260  0.3899  1.3989
   59TIP3    H2  184   4.194   0.864   2.440 -0.3360  0.0114 -0.7664
   60TIP3   OH2  185   5.175   0.336   2.625 -0.4809 -0.3528 -0.0703
   60TIP3    H1  186   5.108   0.400   2.598 -0.1301 -0.1989 -0.5957
   60TIP3    H2  187   5.170   0.268   2.558  0.8971  0.3816 -0.9713
   61TIP3   OH2  188   3.271   3.829   3.449  0.1419  0.5527  0.6876
   61TIP3    H1  189   3.309   3.833   3.537 -0.6289  1.1114  1.0131
   61TIP3    H2  190   3.306   3.906   3.404 -1.7052  1.9523  1.4839
   62TIP3   OH2  191   4.203   4.376   0.618 -0.0113 -0.1174  0.0832
   62TIP3    H1  192   4.209   4.333   0.703  1.1391 -3.3342 -1.4279
   62TIP3    H2  193   4.267   4.447   0.621  0.5522 -0.6618  1.6674
   63TIP3   OH2  194   1.884   5.192   0.092  0.5026 -0.1064  0.1367
   63TIP3    H1  195   1.894   5.236   0.007  0.1179  2.2525  1.2395
   63TIP3    H2  196   1.791   5.198   0.112  0.0976 -3.0159 -0.3876
   64TIP3   OH2  197   4.978   5.609   0.527 -0.2479  0.8557 -0.7326
   64TIP3    H1  198   5.048   5.561   0.570 -0.1416  0.1300 -1.6685
   64TIP3    H2  199   4.898   5.560   0.550 -0.0558 -0.2932 -2.3127
   65TIP3   OH2  200   4.316   1.076   1.564 -0.3323  0.1451 -0.4151
   65TIP3    H1  201   4.264   1.156   1.566  0.4903  0.6886 -0.2612
   65TIP3    H2  202   4.252   1.006   1.574 -1.0791  0.7702 -0.6803
   66TIP3   OH2  203   0.666   1.867   2.083 -0.2411  0.1891  0.4925
   66TIP3    H1  204   0.730   1.936   2.096  0.3028 -0.4913  1.5102
   66TIP3    H2  205   0.603   1.878   2.154 -1.3136  0.8958 -0.5389
   67TIP3   OH2  206   3.395   1.709   4.660 -0.6195 -0.1502  0.0676
   67TIP3    H1  207   3.419   1.622   4.691 -1.7537 -0.8927 -1.0243
   67TIP3    H2  208   3.476   1.760   4.665 -0.7889  0.1621  5.0609
   68TIP3   OH2  209   1.190   5.677   2.401 -0.0329 -0.2059  0.1305
   68TIP3    H1  210   1.167   5.766   2.376 -1.3388 -0.4924  0.2008
   68TIP3    H2  211   1.188   5.628   2.319  0.9189 -0.1314  0.0568
   69TIP3   OH2  212   1.259   5.535   0.467  0.2944 -0.1927  0.1365
   69TIP3    H1  213   1.312   5.457   0.451 -0.1203 -0.5814  0.6478
   69TIP3    H2  214   1.323   5.604   0.485  0.7271 -0.0742 -1.6414
   70TIP3   OH2  215   0.337   5.182   0.542 -0.2122  0.2350  0.2922
   70TIP3    H1  216   0.417   5.179   0.595 -0.9031 -2.3934  1.3396
   70TIP3    H2  217   0.367   5.213   0.456  2.0087 -0.9396  0.5616
   71TIP3   OH2  218   4.355   5.121   1.457  0.0356  0.2457 -0.2631
   71TIP3    H1  219   4.434   5.070   1.474  2.2604  2.8586 -2.0654
   71TIP3    H2  220   4.321   5.141   1.545  1.1587 -1.1727  0.5478
   72TIP3   OH2  221   2.853   0.034   4.962 -0.3534  0.1769  0.2973
   72TIP3    H1  222   2.762   0.004   4.966 -0.2739  0.0315  1.2309
   72TIP3    H2  223   2.850   0.125   4.994 -0.2893  0.4573 -0.4836
   73TIP3   OH2  224   2.482   2.778   0.211  0.0053  0.1750 -0.1018
   73TIP3    H1  225   2.561   2.770   0.266 -0.0731 -0.0775 -0.0260
   73TIP3    H2  226   2.485   2.702   0.154 -0.5520 -0.2038  0.3739
   74TIP3   OH2  227   2.889   0.377   3.088  0.2544  0.5921 -0.0317
   74TIP3    H1  228   2.861   0.398   2.998 -0.4054 -1.4140 -0.3338
   74TIP3    H2  229   2.848   0.445   3.142 -0.7760  0.8304 -1.0641
   75TIP3   OH2  230   5.778   0.511   0.450 -0.0178  0.2440 -0.5053
   75TIP3    H1  231   5.796   0.495   0.357  1.1472 -2.2450  0.0447
   75TIP3    H2  232   5.862   0.493   0.493 -0.7744  0.4711  1.1210
   76TIP3   OH2  233   0.076   3.255   1.224 -0.2752  0.0843 -0.2546
   76TIP3    H1  234   0.018   3.331   1.227 -0.8248 -0.2832 -0.9267
   76TIP3    H2  235   0.162   3.288   1.250 -0.3113  1.1212 -1.3487
   77TIP3   OH2  236   3.186   3.857   0.893 -0.2442 -0.1371  0.2107
   77TIP3    H1  237   3.112   3.796   0.895 -0.5854  0.2568 -0.2735
   77TIP3    H2  238   3.260   3.804   0.922 -0.2960 -1.1249 -1.3221
   78TIP3   OH2  239   6.104   3.690   4.960  0.4587  0.9426  0.1028
   78TIP3    H1  240   6.032   3.740   4.999 -1.2876  0.1247 -1.8684
   78TIP3    H2  241   6.127   3.738   4.881  3.9925  2.6044  1.8945
   79TIP3   OH2  242   1.845   4.221   1.111  0.4810  0.2150  0.3804
   79TIP3    H1  243   1.845   4.165   1.189  2.1972 -0.0002  0.2801
   79TIP3    H2  244   1.925   4.197   1.065 -0.9889 -0.3905 -2.0158
   80TIP3   OH2  245   5.196   4.200   3.735 -0.1812 -0.3926 -0.6815
   80TIP3    H1  246   5.198   4.109   3.705 -2.4296 -0.2878 -1.3377
   80TIP3    H2  247   5.265   4.244   3.685  1.3517 -1.8055  0.0757
   81TIP3   OH2  248   2.639   2.241   1.782 -0.3318  0.5626  0.0480
   81TIP3    H1  249   2.567   2.180   1.795  1.2996 -1.4338  0.1559
   81TIP3    H2  250   2.695   2.231   1.859  1.3570  0.1379 -1.1505
   82TIP3   OH2  251   4.613   4.833   0.912  0.1774  0.2301 -0.5438
   82TIP3    H1  252   4.583   4.852   0.823  2.3243  0.6458 -1.2394
   82TIP3    H2  253   4.572   4.749   0.934  0.1899 -0.2531 -2.2150
   83TIP3   OH2  254   2.013   2.325   1.101 -0.1135  0.2390  0.0534
   83TIP3    H1  255   1.923   2.358   1.093 -0.5159 -1.1698 -1.9189
   83TIP3    H2  256   2.013   2.242   1.054  1.3492 -1.6915  3.1198
   84TIP3   OH2  257   1.452   0.469   1.921 -0.0049  0.3641  0.2298
   84TIP3    H1  258   1.536   0.430   1.899 -0.2570  0.2217 -0.5085
   84TIP3    H2  259   1.440   0.537   1.855 -0.4534  0.4093  0.3564
   85TIP3   OH2  260   3.816   0.474   3.164 -0.3046 -0.0481 -0.2408
   85TIP3    H1  261   3.864   0.467   3.247  0.1961 -0.4913 -0.5573
   85TIP3    H2  262   3.800   0.567   3.153 -0.7583 -0.0203  0.5681
   86TIP3   OH2  263   4.835   4.818   0.354 -0.3969  0.4650  0.9254
   86TIP3    H1  264   4.853   4.731   0.319  0.3506  0.5818  1.0029
   86TIP3    H2  265   4.752   4.809   0.400 -1.4265  0.3117 -0.8896
   87TIP3   OH2  266   0.923   3.413   4.955  0.3185 -0.2801 -0.6396
   87TIP3    H1  267   0.976   3.442   4.881  0.6415 -0.8572 -0.6473
   87TIP3    H2  268   0.982   3.420   5.030  0.1357 -0.1257 -0.5089
   88TIP3   OH2  269   6.120   3.662   0.800 -0.3708 -0.6758 -0.2095
   88TIP3    H1  270   6.205   3.648   0.758  0.6613  0.1925  1.4595
   88TIP3    H2  271   6.083   3.574   0.807  0.4158 -1.0843 -0.9128
   89TIP3   OH2  272   4.997   3.636   4.344  0.5184 -0.4345  0.2458
   89TIP3    H1  273   4.982   3.702   4.277  2.0527 -0.0922  0.1921
   89TIP3    H2  274   5.090   3.615   4.337  0.0928 -2.5611  0.3226
   90TIP3   OH2  275   6.048   1.791   2.987  0.4218 -0.1707 -0.1508
   90TIP3    H1  276   6.087   1.729   3.048  0.6615  0.3854  0.2700
   90TIP3    H2  277   6.104   1.868   2.991 -0.3518  0.4023 -0.0152
   91TIP3   OH2  278   1.891   4.668   3.286 -0.2101 -0.2525  0.0463
   91TIP3    H1  279   1.870   4.739   3.226 -1.7342  0.0609  0.9165
   91TIP3    H2  280   1.841   4.686   3.365  1.1099 -1.1006  1.1405
   92TIP3   OH2  281   3.457   2.642   0.964 -0.2913  0.0438 -0.3721
   92TIP3    H1  282   3.456   2.690   1.047 -0.2076 -0.6573  0.0467
   92TIP3    H2  283   3.420   2.703   0.900 -0.8617  0.4045  0.2892
   93TIP3   OH2  284   0.394   4.707   1.767  0.1902  0.5595  0.5777
   93TIP3    H1  285   0.456   4.766   1.726 -0.7739  0.9622 -0.3513
   93TIP3    H2  286   0.397   4.627   1.714 -0.4633  0.7813  0.1928
   94TIP3   OH2  287   0.227   5.638   2.401 -0.0824 -0.1099 -0.2836
   94TIP3    H1  288   0.198   5.548   2.383  0.6025 -0.6735  1.2722
   94TIP3    H2  289   0.315   5.628   2.436 -0.2369  1.1203  0.5100
   95TIP3   OH2  290   2.996   0.660   2.648 -0.2643 -0.0650  0.0317
   95TIP3    H1  291   3.085   0.623   2.644 -0.8374 -1.6412  1.1216
   95TIP3    H2  292   2.974   0.678   2.557  1.5221  1.2839 -0.1966
   96TIP3   OH2  293   2.191   1.942   3.165 -0.3726  0.2429 -0.5065
   96TIP3    H1  294   2.132   1.884   3.116  0.4233 -0.4776 -0.6364
   96TIP3    H2  295   2.275   1.936   3.118  0.5336 -0.7952  1.1449
   97TIP3   OH2  296   1.130   3.184   4.542  0.1032  0.6401  0.0614
   97TIP3    H1  297   1.038   3.166   4.559 -0.4672  1.8998 -1.4718
   97TIP3    H2  298   1.158   3.239   4.615 -0.4173  0.4806  0.3873
   98TIP3   OH2  299   6.037   2.634   1.483 -0.2117  0.1404  0.0756
   98TIP3    H1  300   6.106   2.696   1.506  1.4879 -1.4225 -0.5636
   98TIP3    H2  301   5.976   2.638   1.556  1.0031  0.9352  1.0918
   99TIP3   OH2  302   1.679   0.740   2.119 -0.3547 -0.1166  0.1225
   99TIP3    H1  303   1.651   0.829   2.097 -1.2630 -0.3379  0.3326
   99TIP3    H2  304   1.769   0.749   2.148 -0.7417  0.8781  1.0765
  100TIP3   OH2  305   1.967   1.878   3.482  0.9441  0.2590  0.6979
  100TIP3    H1  306   1.944   1.932   3.558 -0.1863  0.2442  0.3788
  100TIP3    H2  307   1.907   1.906   3.413  0.7120 -1.0156  0.3559
  101TIP3   OH2  308   5.957   4.402   0.311 -0.3243  0.0667 -0.1969
  101TIP3    H1  309   5.944   4.317   0.270  1.2791  0.6585 -2.1259
  101TIP3    H2  310   5.880   4.453   0.286 -0.8397 -0.5178  0.1722
  102TIP3   OH2  311   3.279   1.317   0.217  0.1389  0.1895 -0.2204
  102TIP3    H1  312   3.239   1.242   0.172 -1.1315  0.0623  1.0342
  102TIP3    H2  313   3.205   1.371   0.244  0.7750  0.0511  2.0320
  103TIP3   OH2  314   2.321   0.149   2.900  0.5569  0.4277 -0.3044
  103TIP3    H1  315   2.354   0.163   2.989 -2.8242 -2.9407  1.7754
  103TIP3    H2  316   2.358   0.064   2.874 -1.0613 -0.1997 -0.6637
  104TIP3   OH2  317   4.451   0.046   4.139  0.0434  0.5277  0.7128
  104TIP3    H1  318   4.534   0.093   4.142  0.5474 -0.3738  1.3266
  104TIP3    H2  319   4.386   0.110   4.168  0.8679  0.5605  2.6433
  105TIP3   OH2  320   0.568   5.236   0.671  0.4289 -0.4321  0.2871
  105TIP3    H1  321   0.561   5.303   0.603 -2.9781 -0.1781  0.6936
  105TIP3    H2  322   0.518   5.272   0.744  1.8424 -1.7998  1.9789
  106TIP3   OH2  323   5.641   4.514   3.407 -0.2931  0.4152  0.5290
  106TIP3    H1  324   5.605   4.466   3.482 -0.5672  1.1075  0.8520
  106TIP3    H2  325   5.729   4.478   3.395 -0.9549 -1.0877 -0.0750
  107TIP3   OH2  326   0.407   4.027   2.763  1.1380  0.7161  0.8570
  107TIP3    H1  327   0.407   4.034   2.668 -4.2833  1.4984  0.5856
  107TIP3    H2  328   0.384   4.115   2.793  0.0955 -0.1116  2.6674
  108TIP3   OH2  329   2.058   0.262   1.871  0.0023 -0.1854  0.0143
  108TIP3    H1  330   2.080   0.338   1.817 -0.0316 -0.5069 -0.4584
  108TIP3    H2  331   2.121   0.263   1.943  1.7319 -1.2051 -1.4009
  109TIP3   OH2  332   2.026   3.532   3.691 -0.2884 -0.0341 -0.4887
  109TIP3    H1  333   2.020   3.443   3.655 -1.8747  0.2955 -1.1094
  109TIP3    H2  334   2.102   3.529   3.749 -1.7940 -2.5428  1.5772
  110TIP3   OH2  335   1.822   1.400   0.995  0.1894 -0.5913 -0.3313
  110TIP3    H1  336   1.820   1.311   0.960 -0.7650 -0.3698 -0.8794
  110TIP3    H2  337   1.736   1.411   1.037 -0.1558  0.4596 -1.2872
  111TIP3   OH2  338   0.538   5.690   0.720  0.5353 -0.3608 -0.2880
  111TIP3    H1  339   0.606   5.633   0.685  0.7134 -0.7119  0.6091
  111TIP3    H2  340   0.474   5.697   0.649  0.9784 -0.8966 -0.7483
  112TIP3   OH2  341   1.195   3.505   0.864 -0.2780  0.1134 -0.4189
  112TIP3    H1  342   1.122   3.445   0.847 -0.8053  0.6034  0.0780
  112TIP3    H2  343   1.155   3.592   0.862  0.3062  0.3902 -0.1917
  113TIP3   OH2  344   0.278   1.622   4.292 -0.3722 -0.1669 -0.4150
  113TIP3    H1  345   0.255   1.610   4.384  1.0533  2.3487  0.3653
  113TIP3    H2  346   0.195   1.616   4.245 -0.9812 -2.6192  0.8365
  114TIP3   OH2  347   0.723   0.345   1.546 -0.2872  0.3144  0.2263
  114TIP3    H1  348   0.642   0.336   1.597 -0.9674  1.1718 -0.6571
  114TIP3    H2  349   0.714   0.430   1.503  1.0054  0.3241 -0.0451
  115TIP3   OH2  350   4.133   5.897   2.676 -0.2870  0.7521  0.5435
  115TIP3    H1  351   4.203   5.861   2.729  1.6281  1.5958 -1.2762
  115TIP3    H2  352   4.082   5.821   2.649 -0.6838  0.2167  2.6309
  116TIP3   OH2  353   0.108   5.889   3.686 -0.1492 -0.1710  0.2859
  116TIP3    H1  354   0.123   5.835   3.764 -1.2935 -0.2840  0.4387
  116TIP3    H2  355   0.159   5.969   3.703  1.1202 -0.9549  0.2917
  117TIP3   OH2  356   5.674   5.229   4.449 -0.2090  0.1636  0.7926
  117TIP3    H1  357   5.698   5.229   4.356 -0.4745  0.5915  0.7211
  117TIP3    H2  358   5.622   5.150   4.460 -1.6497  0.9805  0.1749
  118TIP3   OH2  359   1.218   0.008   1.906 -0.3779 -0.6973 -0.1922
  118TIP3    H1  360   1.279   0.072   1.869 -0.7946  0.2241  0.6778
  118TIP3    H2  361   1.142   0.059   1.932 -0.6644 -1.5193  0.6652
  119TIP3   OH2  362   5.810   5.601   0.606  0.2327  0.1545 -0.5386
  119TIP3    H1  363   5.885   5.547   0.629 -1.2278 -1.6940  0.0996
  119TIP3    H2  364   5.757   5.605   0.685 -0.5293  1.1568 -1.0680
  120TIP3   OH2  365   0.457   3.560   4.393 -0.4072  0.7090  0.0511
  120TIP3    H1  366   0.423   3.520   4.473  0.1258  0.0439 -0.0456
  120TIP3    H2  367   0.381   3.569   4.336 -0.3557 -1.3524 -0.4122
  121TIP3   OH2  368   0.568   0.342   3.892 -0.4411 -0.2795 -0.1454
  121TIP3    H1  369   0.530   0.426   3.915 -3.2178 -1.9250  2.0069
  121TIP3    H2  370   0.658   0.346   3.924 -0.6991  1.6484  0.4247
  122TIP3   OH2  371   3.412   4.449   1.359  0.0392  0.1416  0.3291
  122TIP3    H1  372   3.351   4.523   1.360  0.2981  0.3702 -0.2968
  122TIP3    H2  373   3.357   4.373   1.341 -0.1963  0.2127  0.7417
  123TIP3   OH2  374   1.272   5.382   1.349  0.3460  0.1521 -0.2853
  123TIP3    H1  375   1.225   5.462   1.325 -0.4230 -0.4949 -0.9501
  123TIP3    H2  376   1.274   5.330   1.269  2.1569  0.1258 -0.2655
  124TIP3   OH2  377   2.214   0.049   1.711 -0.0722 -0.5864 -0.1046
  124TIP3    H1  378   2.203   0.019   1.802  3.2400  0.9240  0.9396
  124TIP3    H2  379   2.166   0.132   1.707  1.9639  0.7325  1.1939
  125TIP3   OH2  380   2.952   2.176   5.100 -0.2262  0.2100 -0.0593
  125TIP3    H1  381   3.044   2.166   5.074 -0.1640 -1.8506  0.7767
  125TIP3    H2  382   2.911   2.094   5.075 -2.3561  1.7946 -2.1532
  126TIP3   OH2  383   0.935   3.638   4.402 -0.1605 -0.3877 -0.3243
  126TIP3    H1  384   0.882   3.718   4.399  1.6481  0.8963  0.4748
  126TIP3    H2  385   0.925   3.600   4.314 -0.3772  1.1659 -1.0086
  127TIP3   OH2  386   1.781   1.207   3.886 -0.3691 -0.2109 -0.5072
  127TIP3    H1  387   1.845   1.194   3.817 -0.7064  2.4684 -1.4278
  127TIP3    H2  388   1.833   1.230   3.963 -0.1422  1.1308 -1.0369
  128TIP3   OH2  389   1.839   1.958   0.774 -0.1940  0.3625  0.0515
  128TIP3    H1  390   1.827   2.002   0.859 -0.6791  1.1603 -0.4099
  128TIP3    H2  391   1.821   2.027   0.710 -0.7319 -0.4638 -0.7005
  129TIP3   OH2  392   4.158   3.912   2.873 -0.1277 -0.5115 -0.7117
  129TIP3    H1  393   4.210   3.963   2.811 -0.0589  0.3695  0.0577
  129TIP3    H2  394   4.091   3.973   2.904 -0.6962 -1.1990 -0.5712
  130TIP3   OH2  395   0.714   3.840   2.799 -0.1008 -0.3193  0.2141
  130TIP3    H1  396   0.667   3.917   2.767 -1.5497 -1.5320 -0.7403
  130TIP3    H2  397   0.776   3.874   2.864  0.2463  1.7965 -1.1285
  131TIP3   OH2  398   2.243   3.604   4.357  0.1854  0.1959  0.2596
  131TIP3    H1  399   2.166   3.660   4.346  1.0308  0.9745 -2.0963
  131TIP3    H2  400   2.278   3.629   4.443 -0.6381  1.7802  0.1706
  132TIP3   OH2  401   3.493   5.332   2.403 -0.2083 -0.2263  0.0487
  132TIP3    H1  402   3.474   5.425   2.415  1.0444 -0.0689  1.1312
  132TIP3    H2  403   3.459   5.311   2.316 -0.0145  1.3763 -0.4446
  133TIP3   OH2  404   6.005   4.102   0.274 -0.4978 -0.3477  0.0900
  133TIP3    H1  405   6.003   4.048   0.353  0.4542 -1.4518 -0.5990
  133TIP3    H2  406   6.090   4.082   0.233 -1.7614 -1.3663 -2.2396
  134TIP3   OH2  407   4.701   4.285   1.502 -0.3989 -0.3071  0.3833
  134TIP3    H1  408   4.760   4.216   1.533  0.0408  0.5745  1.5759
  134TIP3    H2  409   4.752   4.333   1.437 -1.0841 -1.7342 -1.2957
  135TIP3   OH2  410   6.328   5.154   4.373  0.7592  0.3606  0.5309
  135TIP3    H1  411   6.420   5.173   4.388  0.5045  1.4234  0.8454
  135TIP3    H2  412   6.284   5.239   4.380  0.0121  0.2113 -1.6619
  136TIP3   OH2  413   4.353   2.691   1.796  0.4242  0.0858  0.1673
  136TIP3    H1  414   4.373   2.692   1.702 -1.2537  2.2198 -0.2604
  136TIP3    H2  415   4.328   2.781   1.816  1.0659 -0.2324  2.7794
  137TIP3   OH2  416   2.255   3.144   3.373  0.4427  0.5340 -0.4868
  137TIP3    H1  417   2.224   3.064   3.331 -0.7994  0.3765  0.6470
  137TIP3    H2  418   2.319   3.180   3.312  0.3799 -0.8557 -1.4270
  138TIP3   OH2  419   4.839   4.531   0.334  0.0508 -0.2291 -0.0462
  138TIP3    H1  420   4.770   4.531   0.267 -0.5711  0.1545  0.5794
  138TIP3    H2  421   4.920   4.516   0.285 -0.2370  1.2418 -1.0594
  139TIP3   OH2  422   2.988   1.619   2.955  0.3316  0.8151 -0.1313
  139TIP3    H1  423   2.894   1.620   2.970  0.5671  0.6144  1.5062
  139TIP3    H2  424   3.027   1.640   3.040  1.7718  0.5882 -0.6986
  140TIP3   OH2  425   4.152   1.502   0.319 -0.3328  0.3405  0.1715
  140TIP3    H1  426   4.183   1.573   0.264  0.9434 -0.7381 -0.5410
  140TIP3    H2  427   4.161   1.535   0.409 -1.5439  1.7485 -0.1824
  141TIP3   OH2  428   3.677   1.952   2.854  0.0959 -0.3569  0.2621
  141TIP3    H1  429   3.764   1.918   2.871  0.8111  0.4608 -1.4677
  141TIP3    H2  430   3.646   1.983   2.939  1.3291 -0.9941  0.9724
  142TIP3   OH2  431   5.727   2.437   1.474 -0.4036 -0.2584  0.6950
  142TIP3    H1  432   5.793   2.381   1.434 -1.6941 -1.8711  0.6930
  142TIP3    H2  433   5.758   2.450   1.564 -0.5082 -1.7832  0.9833
  143TIP3   OH2  434   0.045   5.266   4.966 -0.6055 -0.3179 -0.5994
  143TIP3    H1  435   0.134   5.234   4.982  0.3540  1.6678 -1.4929
  143TIP3    H2  436   0.016   5.299   5.051  0.2977  0.6891 -0.6496
  144TIP3   OH2  437   2.768   1.105   5.110  0.2248  0.0135 -0.1646
  144TIP3    H1  438   2.697   1.135   5.052 -0.6898 -1.8380 -0.0885
  144TIP3    H2  439   2.741   1.134   5.197  0.0197  0.1277 -0.2632
  145TIP3   OH2  440   0.048   4.860   2.421 -0.3942  0.0445 -0.2320
  145TIP3    H1  441  -0.040   4.892   2.400  0.0995 -0.4211 -3.5007
  145TIP3    H2  442   0.095   4.860   2.337  2.2700 -1.1910  1.1190
  146TIP3   OH2  443   6.166   2.899   3.487 -0.7572  0.5391  0.0901
  146TIP3    H1  444   6.096   2.851   3.442  0.4926  0.0497 -1.4540
  146TIP3    H2  445   6.210   2.948   3.417 -0.4182  1.9538  1.2484
  147TIP3   OH2  446   3.641   3.207   4.267  0.2803  0.4703  0.2766
  147TIP3    H1  447   3.558   3.242   4.234  0.0309  2.3085  2.6183
  147TIP3    H2  448   3.708   3.246   4.210 -0.3403  0.3015 -0.5885
  148TIP3   OH2  449   1.611   5.182   0.778 -0.1480 -0.2236 -0.4667
  148TIP3    H1  450   1.543   5.239   0.742 -0.0216  0.1673 -0.1065
  148TIP3    H2  451   1.572   5.142   0.855 -0.0233 -0.1115 -0.3428
  149TIP3   OH2  452   3.902   0.752   4.935  0.3579  0.0919 -0.2661
  149TIP3    H1  453   3.925   0.714   5.020 -0.7179 -0.4992 -0.2229
  149TIP3    H2  454   3.826   0.807   4.953  0.5864  0.5594 -0.7150
  150TIP3   OH2  455   3.262   0.316   2.511 -0.1793 -0.7401 -0.1029
  150TIP3    H1  456   3.290   0.405   2.529 -1.6462 -0.4881  1.0564
  150TIP3    H2  457   3.287   0.301   2.419  2.4448 -0.1011  0.4171
  151TIP3   OH2  458   2.278   3.362   4.170 -0.0688 -0.1956 -0.2679
  151TIP3    H1  459   2.261   3.439   4.225  2.3389 -1.0148  1.8192
  151TIP3    H2  460   2.351   3.389   4.114 -1.1341 -0.0482 -1.6044
  152TIP3   OH2  461   2.219   1.941   4.702  0.1589 -0.1984 -0.8469
  152TIP3    H1  462   2.190   1.991   4.778  1.1060  0.6973 -1.0443
  152TIP3    H2  463   2.236   2.007   4.635 -1.0463 -0.9984 -1.9951
  153TIP3   OH2  464   3.155   5.264   4.595  0.0416 -0.0474  0.0649
  153TIP3    H1  465   3.208   5.323   4.648 -0.2786 -1.7762  2.4853
  153TIP3    H2  466   3.193   5.177   4.611 -1.2957 -0.8685 -1.0275
  154TIP3   OH2  467   5.753   0.362   3.206  0.0834  0.1353  0.0276
  154TIP3    H1  468   5.701   0.288   3.175  1.2302 -1.2712  1.3558
  154TIP3    H2  469   5.804   0.328   3.279 -0.8255  2.7127  2.0668
  155TIP3   OH2  470   2.187   2.282   4.091  0.1620  0.4194  0.1437
  155TIP3    H1  471   2.191   2.274   3.995 -0.2118 -1.9967  0.2744
  155TIP3    H2  472   2.279   2.289   4.118  0.2767  1.0045 -0.3693
  156TIP3   OH2  473   3.379   3.329   1.141 -0.3577  0.3794 -0.6963
  156TIP3    H1  474   3.387   3.328   1.237  0.7654 -2.4081 -0.7504
  156TIP3    H2  475   3.408   3.243   1.113 -0.4612  1.1883 -3.6134
  157TIP3   OH2  476   4.422   5.030   4.491  0.3268 -0.2903 -0.0504
  157TIP3    H1  477   4.334   5.059   4.467  0.2829 -2.1908 -2.6062
  157TIP3    H2  478   4.476   5.109   4.485 -0.7093  0.3547 -1.2416
  158TIP3   OH2  479   6.049   1.159   1.936  0.1844 -0.1754  0.1134
  158TIP3    H1  480   6.048   1.245   1.979 -0.0001  0.3250 -0.8601
  158TIP3    H2  481   6.121   1.112   1.978 -0.1037  0.2283  1.0864
  159TIP3   OH2  482   1.377   4.006   2.194 -0.7086  0.3403 -0.8077
  159TIP3    H1  483   1.426   3.925   2.207 -2.7749 -1.1300 -1.5815
  159TIP3    H2  484   1.434   4.075   2.229  0.7412 -1.5224  0.7065
  160TIP3   OH2  485   4.342   0.722   1.484 -0.0190  0.1181 -0.8016
  160TIP3    H1  486   4.346   0.817   1.495  3.3472  0.1648 -1.3523
  160TIP3    H2  487   4.334   0.708   1.390  1.8357 -0.0668 -0.9660
  161TIP3   OH2  488   3.427   4.579   3.384  0.1422 -0.2668 -0.5387
  161TIP3    H1  489   3.501   4.517   3.391  0.4847  0.1461 -0.4742
  161TIP3    H2  490   3.421   4.599   3.291  0.5515  0.2192 -0.4685
  162TIP3   OH2  491   5.305   0.138   3.587 -0.4289  0.3258 -0.2681
  162TIP3    H1  492   5.288   0.151   3.494 -1.4223 -0.0169 -0.1429
  162TIP3    H2  493   5.326   0.045   3.594  1.9192  0.7826 -0.4625
  163TIP3   OH2  494   6.302   1.288   4.085 -0.0246 -0.2505 -0.3538
  163TIP3    H1  495   6.326   1.216   4.143  1.7345  0.8174  0.3251
  163TIP3    H2  496   6.292   1.247   3.999 -2.2168 -1.7861  0.5078
  164TIP3   OH2  497   3.548   5.093   3.206 -0.0881  1.0903  0.2036
  164TIP3    H1  498   3.472   5.087   3.147  0.2570  0.9416 -0.2364
  164TIP3    H2  499   3.531   5.171   3.259  0.4268  2.3162 -1.3286
  165TIP3   OH2  500   0.139   3.482   2.595 -0.6360  0.5026 -0.3266
  165TIP3    H1  501   0.128   3.500   2.501  1.0397  1.0515 -0.4514
  165TIP3    H2  502   0.200   3.409   2.598  1.7972  2.4526  0.3223
  166TIP3   OH2  503   0.764   1.061   1.945  0.0693  0.4585 -0.2919
  166TIP3    H1  504   0.706   1.061   2.021  0.5277  1.0140  0.0640
  166TIP3    H2  505   0.840   1.112   1.973 -0.2836  1.7088 -1.5166
  167TIP3   OH2  506   3.417   4.128   3.977  0.1961 -0.2854 -0.1714
  167TIP3    H1  507   3.423   4.066   4.049 -0.6093 -0.7071 -0.4563
  167TIP3    H2  508   3.420   4.214   4.019 -1.6859 -0.5227  0.5143
  168TIP3   OH2  509   0.240   2.253   1.042 -0.1617 -0.1359 -0.7208
  168TIP3    H1  510   0.235   2.324   0.978  2.2715  0.7764 -0.0181
  168TIP3    H2  511   0.224   2.296   1.126 -1.3287 -0.9513 -0.5049
  169TIP3   OH2  512   2.740   3.996   3.452 -0.1363  0.6877  0.0662
  169TIP3    H1  513   2.827   3.965   3.428 -1.2053 -1.3627 -1.4276
  169TIP3    H2  514   2.756   4.079   3.496  2.6556 -0.2862  1.0854
  170TIP3   OH2  515   4.210   2.643   0.887  0.3478 -0.3734  0.8532
  170TIP3    H1  516   4.217   2.678   0.976 -1.5901  1.8736  0.2408
  170TIP3    H2  517   4.140   2.579   0.891  1.8118 -2.0047  1.3519
  171TIP3   OH2  518   1.708   5.556   0.747  0.1464 -0.3480  0.2729
  171TIP3    H1  519   1.797   5.566   0.712  0.8836 -2.6352  1.3426
  171TIP3    H2  520   1.720   5.535   0.839 -1.6092  1.0703  0.8878
  172TIP3   OH2  521   4.959   4.063   0.524 -0.3168  0.1520  0.2310
  172TIP3    H1  522   4.982   4.016   0.604  1.7684 -0.9223 -0.9170
  172TIP3    H2  523   4.864   4.055   0.517 -0.4287 -0.4998  2.1115
  173TIP3   OH2  524   5.891   0.117   4.815  0.2124  0.4162  0.3641
  173TIP3    H1  525   5.831   0.074   4.875 -0.4137  0.6214 -0.0975
  173TIP3    H2  526   5.858   0.207   4.809  0.9243  0.6917  0.5667
  174TIP3   OH2  527   3.454   4.667   3.107 -0.3590  0.3928 -0.0025
  174TIP3    H1  528   3.515   4.719   3.054 -0.6221  0.6912 -0.0193
  174TIP3    H2  529   3.369   4.708   3.092 -0.7754 -0.7578 -0.9431
  175TIP3   OH2  530   5.664   2.785   4.576 -0.4145  0.2429  0.2113
  175TIP3    H1  531   5.709   2.749   4.653  0.7571  0.8155 -0.1802
  175TIP3    H2  532   5.585   2.731   4.567  0.2237 -0.8502  0.8823
  176TIP3   OH2  533   1.985   3.026   2.736 -0.3701  0.3256  0.1050
  176TIP3    H1  534   1.920   3.074   2.788 -1.7048 -1.8474  0.5868
  176TIP3    H2  535   1.954   3.034   2.646 -0.4454  0.5490  0.1492
  177TIP3   OH2  536   0.293   5.057   4.615  0.2910  0.0644 -0.1529
  177TIP3    H1  537   0.271   5.148   4.632  1.4036  0.1967  0.7370
  177TIP3    H2  538   0.324   5.056   4.524  0.3896  0.5991 -0.1289
  178TIP3   OH2  539   3.825   3.681   3.548  0.1784  0.0090 -0.0267
  178TIP3    H1  540   3.810   3.634   3.466  1.5212 -1.8832  0.7609
  178TIP3    H2  541   3.823   3.613   3.616  2.8094  0.9503  1.0965
  179TIP3   OH2  542   5.189   5.572   5.142 -0.0563 -0.0632 -0.0619
  179TIP3    H1  543   5.199   5.522   5.222  0.6313 -0.2854 -0.2834
  179TIP3    H2  544   5.146   5.653   5.170  0.4988  0.0173  0.5898
  180TIP3   OH2  545   2.313   0.473   0.996  0.0276 -0.2102 -0.5825
  180TIP3    H1  546   2.329   0.490   0.904  0.9240 -0.8254 -0.5441
  180TIP3    H2  547   2.218   0.470   1.004 -0.0359 -0.9661 -1.6264
  181TIP3   OH2  548   4.368   1.007   3.369  0.3934  0.1290 -0.3038
  181TIP3    H1  549   4.450   0.995   3.321  0.9011  1.5503  0.1480
  181TIP3    H2  550   4.387   0.981   3.458  0.0145 -0.6085 -0.4278
  182TIP3   OH2  551   3.997   1.078   1.382 -0.7439 -0.0712  0.3428
  182TIP3    H1  552   4.055   1.016   1.425  1.1491  0.8587 -0.7497
  182TIP3    H2  553   3.938   1.023   1.330 -0.1280 -1.0038  0.6018
  183TIP3   OH2  554   1.434   0.526   4.221 -0.1691  0.5026 -0.0525
  183TIP3    H1  555   1.432   0.439   4.262  0.4921  0.0512 -0.9362
  183TIP3    H2  556   1.472   0.583   4.288  0.8578 -0.2140 -0.0012
  184TIP3   OH2  557   0.033   4.425   3.144  0.5740 -0.2546 -0.6276
  184TIP3    H1  558  -0.001   4.353   3.091 -0.3199  0.3054 -0.8261
  184TIP3    H2  559  -0.022   4.500   3.122  0.6897  0.1858  0.5044
  185TIP3   OH2  560   1.074   3.196   2.474  0.2086 -0.2849  0.7435
  185TIP3    H1  561   1.082   3.110   2.432  0.1841  0.9803 -2.1057
  185TIP3    H2  562   1.029   3.178   2.557 -0.1991 -2.9524  0.0466
  186TIP3   OH2  563   1.197   3.371   1.808 -0.1954  0.5973 -0.3465
  186TIP3    H1  564   1.273   3.329   1.767 -1.2002 -1.5844 -0.1259
  186TIP3    H2  565   1.208   3.355   1.902 -0.4461  1.1473 -0.2175
  187TIP3   OH2  566   3.493   1.033   3.285  0.7342 -0.5347  0.0167
  187TIP3    H1  567   3.547   0.984   3.223  1.1616 -1.8085  1.3389
  187TIP3    H2  568   3.408   1.042   3.242  0.9803 -1.5169 -0.7044
  188TIP3   OH2  569   4.161   1.846   4.622  0.0843 -0.5291 -0.6800
  188TIP3    H1  570   4.066   1.850   4.629  0.1179  1.4090 -0.7771
  188TIP3    H2  571   4.180   1.870   4.531  0.6603 -1.1726 -0.7387
  189TIP3   OH2  572   2.733   2.883   2.206  0.3943  0.4236 -0.0771
  189TIP3    H1  573   2.750   2.789   2.212 -3.1646 -0.3359  0.4293
  189TIP3    H2  574   2.713   2.910   2.296  1.9640  1.8680 -0.1055
  190TIP3   OH2  575   3.509   0.080   3.087 -0.0051 -0.1715  0.0814
  190TIP3    H1  576   3.414   0.075   3.093 -0.1518  2.4523  1.8130
  190TIP3    H2  577   3.540   0.011   3.146 -1.0180  1.4697  2.7235
  191TIP3   OH2  578   2.837   5.532   1.038  0.4219  0.6020 -0.1182
  191TIP3    H1  579   2.760   5.587   1.030  0.8905  1.9552  3.1704
  191TIP3    H2  580   2.900   5.569   0.976 -0.8330  0.7924 -1.3075
  192TIP3   OH2  581   3.709   0.192   2.951 -0.0054  0.1331 -0.0598
  192TIP3    H1  582   3.659   0.136   3.010 -1.1037  1.9001  0.7783
  192TIP3    H2  583   3.793   0.148   2.942  0.0386 -0.4695  2.4920
  193TIP3   OH2  584   2.831   1.613   3.193 -0.3493  0.2526  0.2796
  193TIP3    H1  585   2.815   1.576   3.280 -0.0061 -1.7990 -0.4820
  193TIP3    H2  586   2.890   1.687   3.209  2.0021 -1.7465  1.6126
  194TIP3   OH2  587   1.932   2.549   1.909 -0.1311 -0.4547 -0.0985
  194TIP3    H1  588   1.921   2.487   1.837  2.2366 -0.5383 -0.4456
  194TIP3    H2  589   1.872   2.620   1.888 -2.5533 -2.2969  0.0477
  195TIP3   OH2  590   3.046   5.228   0.794 -0.2903  0.7144  0.3888
  195TIP3    H1  591   3.055   5.236   0.889 -0.3174  1.5644  0.3280
  195TIP3    H2  592   3.082   5.142   0.773 -1.3122  0.0564  1.3009
  196TIP3   OH2  593   4.521   0.943   4.270 -0.0608  0.0105 -0.2814
  196TIP3    H1  594   4.603   0.992   4.277 -0.3465  0.5585 -0.6818
  196TIP3    H2  595   4.517   0.915   4.178  0.6617 -1.7868  0.1981
  197TIP3   OH2  596   6.357   1.303   3.771  0.0298 -0.2695 -0.3179
  197TIP3    H1  597   6.281   1.253   3.739  0.3139  0.2575 -1.8858
  197TIP3    H2  598   6.334   1.395   3.754  1.3336 -0.1419 -1.5870
  198TIP3   OH2  599   1.470   3.400   3.993 -0.3088  0.4034 -0.4901
  198TIP3    H1  600   1.391   3.452   3.979 -0.4608  0.3782  0.2371
  198TIP3    H2  601   1.535   3.439   3.934 -0.1078  2.1192  0.7820
  199TIP3   OH2  602   4.561   2.008   4.407  0.1804 -0.1215 -0.2977
  199TIP3    H1  603   4.561   1.917   4.377 -0.0832 -0.1804 -0.1232
  199TIP3    H2  604   4.469   2.026   4.428  0.3471 -0.0547  0.3858
  200TIP3   OH2  605   1.200   2.347   0.869 -0.0597  0.2171 -0.4009
  200TIP3    H1  606   1.279   2.368   0.919  0.4404  0.6893 -1.3611
  200TIP3    H2  607   1.206   2.401   0.791 -0.8153 -0.5202 -0.9896
  201TIP3   OH2  608   3.612   2.041   2.255 -0.1681  0.1119  0.3307
  201TIP3    H1  609   3.573   2.013   2.338  0.9080 -0.2891  0.7179
  201TIP3    H2  610   3.701   2.005   2.257 -0.4943 -0.9335 -1.5227
  202TIP3   OH2  611   2.648   3.286   0.773 -0.4023  0.1144 -0.1605
  202TIP3    H1  612   2.604   3.236   0.705 -0.3217  0.1596 -0.2471
  202TIP3    H2  613   2.737   3.251   0.775  0.5502  2.1738 -2.2426
  203TIP3   OH2  614   2.866   1.140   0.537  0.0938 -0.1830  0.5836
  203TIP3    H1  615   2.831   1.214   0.585  1.5121  0.0505  1.3182
  203TIP3    H2  616   2.843   1.157   0.445 -0.2505  0.7665  0.8389
  204TIP3   OH2  617   4.330   5.678   0.247  0.8571 -0.4100  0.6310
  204TIP3    H1  618   4.266   5.669   0.176  2.3035  0.4158 -0.8477
  204TIP3    H2  619   4.279   5.715   0.319 -0.4189 -0.0930 -0.3810
  205TIP3   OH2  620   1.082   4.023   4.933 -0.4242  0.5817  0.1483
  205TIP3    H1  621   1.085   3.934   4.968  0.6259  0.4732 -0.1627
  205TIP3    H2  622   1.068   4.079   5.010 -1.7684  0.1199  0.2600
  206TIP3   OH2  623   5.954   2.805   3.355 -0.1011  0.0389 -0.3427
  206TIP3    H1  624   5.984   2.764   3.274  0.1375 -0.7906  0.1597
  206TIP3    H2  625   5.858   2.797   3.351 -0.0169 -1.6033  0.2655
  207TIP3   OH2  626   0.173   0.146   3.479  0.5539 -0.3259 -0.0602
  207TIP3    H1  627   0.209   0.196   3.406  1.2945  0.0709  0.5612
  207TIP3    H2  628   0.089   0.113   3.447  1.1465 -0.6839 -1.3078
  208TIP3   OH2  629   6.343   2.984   0.302 -0.0123  0.3982 -0.3399
  208TIP3    H1  630   6.260   2.946   0.274  0.8656 -1.1781 -0.9864
  208TIP3    H2  631   6.334   2.995   0.397 -0.1863 -1.9443 -0.0132
  209TIP3   OH2  632   3.190   1.958   2.970 -0.0905 -0.4943 -0.6053
  209TIP3    H1  633   3.274   1.981   2.929 -0.2788  1.7762  0.1589
  209TIP3    H2  634   3.124   1.998   2.914 -0.3676  2.1952  1.4627
  210TIP3   OH2  635   2.759   5.497   5.051  0.0132  0.3148  0.1084
  210TIP3    H1  636   2.709   5.417   5.038  1.8600 -0.5620 -2.6126
  210TIP3    H2  637   2.719   5.539   5.127 -2.6670 -1.8775  0.0519
  211TIP3   OH2  638   1.018   5.570   0.090 -0.1829 -0.0628  0.3112
  211TIP3    H1  639   0.933   5.613   0.102 -0.9018 -1.2899 -0.1855
  211TIP3    H2  640   1.021   5.548  -0.003  0.7954  0.1672  0.2739
  212TIP3   OH2  641   4.698   2.813   0.133 -0.2757 -0.1127 -0.3887
  212TIP3    H1  642   4.693   2.803   0.228 -1.4632  2.8138 -0.0559
  212TIP3    H2  643   4.628   2.756   0.100 -2.3915  1.6296  0.8291
  213TIP3   OH2  644   4.621   0.578   3.125 -0.0528 -0.2915  0.2448
  213TIP3    H1  645   4.627   0.673   3.125  0.0844 -0.2987 -0.1004
  213TIP3    H2  646   4.617   0.554   3.217  1.7183 -0.0605  0.4088
  214TIP3   OH2  647   4.130   3.016   4.415 -0.0051 -0.2055  0.1623
  214TIP3    H1  648   4.158   2.954   4.482  0.8108 -0.5952 -0.5201
  214TIP3    H2  649   4.068   2.968   4.361 -1.1960  0.3198  1.0190
  215TIP3   OH2  650   1.103   4.059   2.961  0.2744  0.0105  0.2489
  215TIP3    H1  651   1.145   4.004   2.895 -1.1117 -2.1309  1.0610
  215TIP3    H2  652   1.101   4.005   3.040 -0.1556  1.6556  1.4200
  216TIP3   OH2  653   4.216   2.159   0.380  0.8032  0.3685  0.5938
  216TIP3    H1  654   4.214   2.105   0.301 -1.3779 -0.0317  0.8602
  216TIP3    H2  655   4.268   2.110   0.443 -1.2634 -1.6148  0.8830
  217TIP3   OH2  656   5.942   1.568   1.070 -0.5536 -0.2704 -0.1457
  217TIP3    H1  657   5.944   1.512   1.147 -0.3439  0.8171  0.6580
  217TIP3    H2  658   5.995   1.644   1.093 -0.2480 -0.0486 -1.4670
  218TIP3   OH2  659   6.218   2.018   0.248 -0.4951  0.2261  0.3097
  218TIP3    H1  660   6.229   1.927   0.276  1.0582  0.2252 -0.2267
  218TIP3    H2  661   6.163   2.058   0.316  0.9549 -0.4592  1.9577
  219TIP3   OH2  662   4.397   2.020   4.864 -0.3943 -0.2700 -0.2616
  219TIP3    H1  663   4.369   2.086   4.801  1.0296 -0.6132 -1.2838
  219TIP3    H2  664   4.393   2.065   4.949  0.4512  1.0948 -0.9183
  220TIP3   OH2  665   5.748   1.367   4.639  0.3773  0.8906  0.1436
  220TIP3    H1  666   5.808   1.388   4.568  0.9305  0.5934  0.5098
  220TIP3    H2  667   5.793   1.297   4.688 -0.5403  0.2423  0.0741
  221TIP3   OH2  668   5.774   2.004   3.022 -0.8741  0.4871  0.3636
  221TIP3    H1  669   5.799   2.011   2.930  0.0093  0.8788  0.6208
  221TIP3    H2  670   5.689   2.049   3.028 -0.8442  0.6207 -0.2167
  222TIP3   OH2  671   4.796   1.064   0.082  0.4535  0.0378 -0.6591
  222TIP3    H1  672   4.800   1.108  -0.002 -0.1520 -3.7086 -2.8929
  222TIP3    H2  673   4.879   1.016   0.088  1.8297  2.4882  2.4401
  223TIP3   OH2  674   4.262   0.273   0.120 -0.6710 -0.3694 -0.3390
  223TIP3    H1  675   4.215   0.349   0.087  0.1080  0.7315  0.9920
  223TIP3    H2  676   4.240   0.270   0.214 -0.2808 -1.4920 -0.2612
  224TIP3   OH2  677   2.502   0.280   1.013  0.6630 -0.0201 -0.4540
  224TIP3    H1  678   2.553   0.281   1.095  0.7037 -1.5905 -0.4253
  224TIP3    H2  679   2.440   0.353   1.022  0.7249 -0.1142  0.9514
  225TIP3   OH2  680   5.031   4.168   1.218 -0.2350 -0.8077  0.3568
  225TIP3    H1  681   4.999   4.196   1.132  0.5121  0.3227  0.4296
  225TIP3    H2  682   5.124   4.154   1.205  0.0016 -0.0347  1.1050
  226TIP3   OH2  683   4.254   1.724   1.599 -0.2482  0.3407 -0.0212
  226TIP3    H1  684   4.337   1.682   1.577 -0.9133 -1.0646 -0.0107
  226TIP3    H2  685   4.278   1.800   1.652  1.0050 -0.2413  0.2784
  227TIP3   OH2  686   2.389   4.745   3.360 -0.6754 -0.1814  0.6687
  227TIP3    H1  687   2.453   4.810   3.389 -0.6576  0.1503 -0.0908
  227TIP3    H2  688   2.431   4.702   3.286 -0.0239 -2.1899  2.1237
  228TIP3   OH2  689   4.715   0.781   3.895 -0.5748 -0.1292 -0.8008
  228TIP3    H1  690   4.725   0.864   3.941 -0.0183 -1.1163  1.0169
  228TIP3    H2  691   4.650   0.797   3.827 -0.3806  1.7969 -0.5788
  229TIP3   OH2  692   5.376   3.026   0.273 -0.2958 -0.7049  0.0711
  229TIP3    H1  693   5.438   3.012   0.201  0.0082  0.7361  0.0154
  229TIP3    H2  694   5.382   3.120   0.291 -1.1683 -0.8602  1.2608
  230TIP3   OH2  695   2.124   0.618   4.780  0.2167 -0.2889  0.1613
  230TIP3    H1  696   2.074   0.668   4.717  1.7260 -0.1090 -0.9348
  230TIP3    H2  697   2.096   0.527   4.767 -1.1699  0.0077  0.8847
  231TIP3   OH2  698   3.680   3.801   1.227  0.0855  0.4193 -0.1788
  231TIP3    H1  699   3.728   3.824   1.306  1.5154  0.6847 -1.0889
  231TIP3    H2  700   3.702   3.869   1.164  2.0465 -1.7142 -1.9910
  232TIP3   OH2  701   5.965   4.267   2.676 -0.1848  0.2864  0.5206
  232TIP3    H1  702   5.986   4.329   2.606  0.9531 -1.0948 -0.3991
  232TIP3    H2  703   6.004   4.306   2.755 -1.0755  1.6179  0.3516
  233TIP3   OH2  704   5.080   4.813   1.834 -0.3839  0.6053  0.9039
  233TIP3    H1  705   5.172   4.804   1.809 -0.1283  1.3877  1.5158
  233TIP3    H2  706   5.032   4.805   1.752  0.2721  0.7858  0.4917
  234TIP3   OH2  707   5.150   3.300   1.081  0.5479 -0.0304 -0.2121
  234TIP3    H1  708   5.220   3.245   1.046 -0.6413 -2.0832  0.4536
  234TIP3    H2  709   5.133   3.265   1.169  0.0448  1.7272  0.4411
  235TIP3   OH2  710   4.484   1.626   3.523  0.4604 -0.3327 -0.1480
  235TIP3    H1  711   4.561   1.680   3.504  0.2492  0.0837  0.1812
  235TIP3    H2  712   4.511   1.573   3.598  0.1706  0.3535  0.4485
  236TIP3   OH2  713   0.917   3.555   4.112 -0.6090  0.0800 -0.6622
  236TIP3    H1  714   0.837   3.526   4.155 -0.4129  0.2856 -0.1567
  236TIP3    H2  715   0.926   3.496   4.037 -1.0533 -0.1544 -0.5370
  237TIP3   OH2  716   3.478   4.412   2.766  0.2273  0.6380 -0.4147
  237TIP3    H1  717   3.566   4.450   2.766  0.8852 -0.6611 -2.9963
  237TIP3    H2  718   3.463   4.389   2.858  2.9576  0.1478  0.0064
  238TIP3   OH2  719   4.783   4.205   0.167  0.3311 -0.6699 -0.0722
  238TIP3    H1  720   4.700   4.161   0.187  1.5104 -2.5628  1.0075
  238TIP3    H2  721   4.781   4.285   0.220 -1.3868  0.0816 -1.1880
  239TIP3   OH2  722   2.888   5.956   2.349 -0.4578  0.1792  0.5791
  239TIP3    H1  723   2.857   5.922   2.265 -0.0647 -0.7286  0.8000
  239TIP3    H2  724   2.983   5.961   2.340 -0.4123  0.0717  0.9754
  240TIP3   OH2  725   0.312   2.080   2.912  0.0919  0.3557  0.1200
  240TIP3    H1  726   0.344   2.002   2.957  2.5504 -0.2378 -2.3501
  240TIP3    H2  727   0.374   2.149   2.935 -0.0446  0.6746 -0.4344
  241TIP3   OH2  728   6.116   4.046   3.952 -0.2180  0.2261 -0.1012
  241TIP3    H1  729   6.047   3.995   3.908  1.1327 -0.5598 -1.3965
  241TIP3    H2  730   6.110   4.020   4.044 -1.5439  0.0708 -0.2098
  242TIP3   OH2  731   0.761   5.353   4.753  0.4314 -0.2648 -0.1879
  242TIP3    H1  732   0.839   5.356   4.808 -0.1987  0.8616  0.6786
  242TIP3    H2  733   0.756   5.440   4.713 -0.9320  0.0300  0.5708
  243TIP3   OH2  734   2.679   2.674   0.383  0.6100 -0.2039 -0.3167
  243TIP3    H1  735   2.597   2.633   0.410  0.1324 -0.3111 -1.8252
  243TIP3    H2  736   2.740   2.657   0.455  0.0627 -2.4086 -0.3094
  244TIP3   OH2  737   0.811   3.576   3.719 -0.6477 -0.6211 -0.3946
  244TIP3    H1  738   0.749   3.513   3.756  0.3858 -0.2112  2.2024
  244TIP3    H2  739   0.872   3.522   3.669 -1.3870 -1.3451 -0.5385
  245TIP3   OH2  740   0.818   0.601   2.564 -0.0624  0.3851 -0.0445
  245TIP3    H1  741   0.761   0.665   2.521 -0.8312 -0.7035 -0.6889
  245TIP3    H2  742   0.761   0.559   2.629  0.4687  0.4370  0.4601
  246TIP3   OH2  743   4.903   5.946   2.036 -0.3748  0.1505 -0.1689
  246TIP3    H1  744   4.899   5.989   1.951  0.0473 -1.2145 -0.9021
  246TIP3    H2  745   4.970   5.994   2.084 -0.1927  0.5548 -0.8268
  247TIP3   OH2  746   3.992   1.470   4.540  0.4617  0.0009  0.3657
  247TIP3    H1  747   3.971   1.381   4.569  0.6134  0.3636  1.6716
  247TIP3    H2  748   4.070   1.459   4.486  0.4547 -0.6701  0.4793
  248TIP3   OH2  749   2.401   2.571   4.892 -0.0894  0.0356  0.0573
  248TIP3    H1  750   2.315   2.614   4.895  1.0080  2.4384 -0.5616
  248TIP3    H2  751   2.435   2.580   4.981  0.2943  0.8908 -0.1581
  249TIP3   OH2  752   5.920   2.697   5.133 -0.5794 -0.0088 -0.0573
  249TIP3    H1  753   5.919   2.633   5.063  0.0440  0.3277 -0.3826
  249TIP3    H2  754   5.944   2.647   5.211 -0.8102 -0.3000 -0.1734
  250TIP3   OH2  755   2.788   1.358   0.692 -0.4908 -0.3621 -0.5036
  250TIP3    H1  756   2.869   1.389   0.731 -1.3917  1.8901 -0.2640
  250TIP3    H2  757   2.734   1.332   0.767 -0.8815  0.5214 -0.4640
  251TIP3   OH2  758   5.083   0.233   0.934 -0.5308  0.6886 -0.0777
  251TIP3    H1  759   5.020   0.215   0.865 -0.9182  0.2466  0.3883
  251TIP3    H2  760   5.090   0.151   0.983  1.1529  0.4081 -0.7113
  252TIP3   OH2  761   5.244   5.284   2.247 -0.5019  0.4174 -0.1736
  252TIP3    H1  762   5.247   5.196   2.282  0.2531 -0.0296 -1.3105
  252TIP3    H2  763   5.210   5.338   2.319 -1.3997 -0.8571  0.3764
  253TIP3   OH2  764   0.737   5.793   3.813 -0.1113  0.2431 -0.5671
  253TIP3    H1  765   0.798   5.867   3.808 -0.0280  0.1400 -1.1226
  253TIP3    H2  766   0.793   5.717   3.826 -0.2266  0.3239  0.4834
  254TIP3   OH2  767   3.236   0.805   1.219 -0.0636  0.4165  0.3700
  254TIP3    H1  768   3.280   0.859   1.153  0.3634 -0.4937 -0.1159
  254TIP3    H2  769   3.291   0.726   1.226  0.1425  0.6732  2.1346
  255TIP3   OH2  770   5.149   2.597   1.169 -0.1186 -0.4216  0.7966
  255TIP3    H1  771   5.065   2.620   1.131  0.8013  0.3396 -0.9146
  255TIP3    H2  772   5.165   2.507   1.140 -0.1214 -0.3869  0.6855
  256TIP3   OH2  773   0.080   2.494   1.643  0.3750  0.2122  0.8341
  256TIP3    H1  774   0.168   2.507   1.606  0.9923  0.4397  2.3299
  256TIP3    H2  775   0.079   2.547   1.722 -1.6186  1.3086  0.1528
  257TIP3   OH2  776   6.311   4.702   3.328  0.0211  0.1003 -1.0601
  257TIP3    H1  777   6.357   4.786   3.325  0.8656 -0.3469 -0.7930
  257TIP3    H2  778   6.295   4.680   3.237  1.1566 -0.1796 -1.2033
  258TIP3   OH2  779   4.017   3.896   5.028  0.2542 -0.1561 -0.2510
  258TIP3    H1  780   4.061   3.819   4.992  0.8794 -0.6383  1.4932
  258TIP3    H2  781   4.085   3.945   5.072 -0.8867 -1.0530  2.7398
  259TIP3   OH2  782   1.860   3.866   2.226  0.3012 -0.0255  0.2926
  259TIP3    H1  783   1.861   3.948   2.178  0.5966 -0.3837 -0.3328
  259TIP3    H2  784   1.911   3.883   2.305 -1.3705  0.9725  1.2028
  260TIP3   OH2  785   4.331   0.815   2.345  0.3586  0.1474 -0.0935
  260TIP3    H1  786   4.365   0.750   2.284 -0.8218  0.2402 -0.8835
  260TIP3    H2  787   4.390   0.890   2.337 -1.3392  1.3350 -3.3923
  261TIP3   OH2  788   1.038   3.403   3.689  0.3105  0.0635  0.3999
  261TIP3    H1  789   1.016   3.377   3.778 -1.0904  0.1154  0.1012
  261TIP3    H2  790   1.037   3.321   3.639 -0.0590  0.1767  0.2193
  262TIP3   OH2  791   3.818   3.598   0.677  0.1152  0.1624  0.2538
  262TIP3    H1  792   3.795   3.615   0.768  0.5533  2.7749 -0.0476
  262TIP3    H2  793   3.881   3.667   0.655 -1.7145  1.0739 -2.6805
  263TIP3   OH2  794   1.340   0.795   4.180 -1.0255  0.0778 -0.0111
  263TIP3    H1  795   1.286   0.790   4.100 -0.6164  2.3292 -0.4860
  263TIP3    H2  796   1.276   0.795   4.251 -1.5719  0.7343 -0.4800
  264TIP3   OH2  797   3.418   2.938   4.769  0.1072 -0.0901  0.6564
  264TIP3    H1  798   3.387   3.028   4.776  2.5642  1.0650 -1.6565
  264TIP3    H2  799   3.351   2.893   4.717 -0.2757  0.8960  0.2770
  265TIP3   OH2  800   1.495   1.730   3.355  0.7762  0.0171 -0.0711
  265TIP3    H1  801   1.426   1.737   3.421  0.8207  0.5901 -0.0823
  265TIP3    H2  802   1.485   1.809   3.302  1.3407  0.0188 -0.1732
  266TIP3   OH2  803   0.937   1.002   2.803 -0.1863  0.2163 -0.0842
  266TIP3    H1  804   0.962   1.058   2.877  0.0702  0.7648 -0.5749
  266TIP3    H2  805   0.912   0.919   2.843  1.1426  0.0917  0.5224
  267TIP3   OH2  806   0.046   4.586   0.866 -0.0525 -0.7631  0.1560
  267TIP3    H1  807   0.095   4.556   0.790  0.6137 -0.5497  0.5017
  267TIP3    H2  808   0.090   4.545   0.941  0.0516  0.0158  0.5252
  268TIP3   OH2  809   4.003   5.594   3.084 -0.6334  0.4108  0.3311
  268TIP3    H1  810   4.038   5.561   3.166 -0.1783  1.8473  0.7531
  268TIP3    H2  811   3.978   5.685   3.103 -0.8544  0.6632 -1.0140
  269TIP3   OH2  812   1.419   5.066   2.609 -0.7466  0.4714  0.4213
  269TIP3    H1  813   1.470   5.011   2.668  0.6672  0.1004 -1.1058
  269TIP3    H2  814   1.477   5.139   2.588 -1.9402  1.6229  0.9663
  270TIP3   OH2  815   3.088   2.760   2.271  0.2412  0.1210 -0.2246
  270TIP3    H1  816   3.077   2.680   2.219  0.3350  0.1021 -0.2148
  270TIP3    H2  817   3.171   2.797   2.241  0.7963 -0.4190  0.6290
  271TIP3   OH2  818   2.021   3.015   4.433 -0.5092  0.0222  0.2780
  271TIP3    H1  819   2.032   3.110   4.432 -0.4250  0.0672 -2.2942
  271TIP3    H2  820   2.102   2.982   4.472 -0.5299  1.0014  1.1689
  272TIP3   OH2  821   2.382   4.295   3.213 -0.7264 -0.3896  0.8861
  272TIP3    H1  822   2.293   4.303   3.246 -0.7356 -0.7251  0.9456
  272TIP3    H2  823   2.382   4.342   3.130 -1.5363 -2.2310 -0.2214
  273TIP3   OH2  824   1.548   5.622   4.804  0.7486 -0.1490 -0.0157
  273TIP3    H1  825   1.570   5.704   4.761 -2.5020 -0.0674 -1.8303
  273TIP3    H2  826   1.518   5.648   4.891 -0.3644  0.6206 -0.6158
  274TIP3   OH2  827   5.458   2.526   3.558 -0.0709  0.7866  0.3806
  274TIP3    H1  828   5.538   2.518   3.609 -0.4600  1.7054  1.1571
  274TIP3    H2  829   5.486   2.518   3.467  0.7813  0.2478  0.6817
  275TIP3   OH2  830   3.983   0.377   4.563 -0.2606 -0.2137 -0.0741
  275TIP3    H1  831   4.000   0.312   4.495 -1.2228  0.2198 -0.7631
  275TIP3    H2  832   4.058   0.437   4.557  0.5301 -1.1230  0.4323
  276TIP3   OH2  833   4.367   1.676   2.602 -0.7161 -0.2802  0.1247
  276TIP3    H1  834   4.289   1.718   2.567 -0.6748  1.4590  1.9172
  276TIP3    H2  835   4.401   1.739   2.667  1.7591 -1.2877 -0.0742
  277TIP3   OH2  836   6.000   5.719   0.331 -0.1319  0.1334  0.2635
  277TIP3    H1  837   6.064   5.671   0.384 -0.2664 -0.3867 -0.0384
  277TIP3    H2  838   5.987   5.664   0.253  2.0915  2.1239 -1.6625
  278TIP3   OH2  839   1.250   4.746   2.213 -0.1137 -0.0030 -0.2966
  278TIP3    H1  840   1.190   4.805   2.168  0.9221  0.7966 -0.6674
  278TIP3    H2  841   1.317   4.803   2.250  0.2995 -0.8515  0.3039
  279TIP3   OH2  842   0.342   4.187   3.300  0.4514 -0.0106  0.2545
  279TIP3    H1  843   0.435   4.179   3.279  0.5465  1.8860 -0.2174
  279TIP3    H2  844   0.298   4.187   3.214  0.1940  0.9052  0.3804
  280TIP3   OH2  845   2.743   1.442   2.789  0.1959  0.5641  0.2784
  280TIP3    H1  846   2.787   1.390   2.722 -3.8074 -1.9274 -0.6861
  280TIP3    H2  847   2.731   1.528   2.749  0.3991 -0.0200 -1.0701
  281TIP3   OH2  848   0.966   0.548   2.315 -0.2001  0.1135 -0.2035
  281TIP3    H1  849   0.977   0.523   2.407  0.0399 -1.7531 -0.6889
  281TIP3    H2  850   1.039   0.607   2.297 -0.0630  0.2377  0.7251
  282TIP3   OH2  851   3.545   0.063   3.557 -0.4543 -0.1495 -0.1900
  282TIP3    H1  852   3.564   0.105   3.473 -1.6978  1.3001  0.2006
  282TIP3    H2  853   3.534   0.135   3.618  0.8769 -1.1928  1.3619
  283TIP3   OH2  854   6.234   3.464   5.150  0.5275  0.1839 -0.1582
  283TIP3    H1  855   6.233   3.541   5.093 -0.1917  0.2683 -0.0298
  283TIP3    H2  856   6.165   3.408   5.116 -0.0907  0.3513  0.7930
  284TIP3   OH2  857   2.402   4.491   1.671 -0.5318  0.0007 -0.2201
  284TIP3    H1  858   2.471   4.425   1.681 -0.1939  0.4326  0.4020
  284TIP3    H2  859   2.321   4.440   1.663 -0.3139 -0.5002  0.5704
  285TIP3   OH2  860   2.426   5.453   1.350 -0.3301  0.6944 -0.5442
  285TIP3    H1  861   2.495   5.386   1.357  0.8129  1.9084  0.4549
  285TIP3    H2  862   2.391   5.460   1.438 -1.9714 -0.0797 -1.0945
  286TIP3   OH2  863   2.622   0.671   2.893 -0.3378 -0.4555  0.1618
  286TIP3    H1  864   2.672   0.731   2.838 -0.0587 -1.0724 -0.2735
  286TIP3    H2  865   2.531   0.695   2.878 -0.1941  0.4448  0.6880
  287TIP3   OH2  866   2.751   2.287   0.382 -0.4888 -0.3418 -0.5049
  287TIP3    H1  867   2.671   2.300   0.433 -0.8636 -1.5154 -0.7578
  287TIP3    H2  868   2.746   2.352   0.312 -0.8022  0.1562 -0.0266
  288TIP3   OH2  869   2.366   4.853   1.199  0.0811 -0.6511 -0.4365
  288TIP3    H1  870   2.401   4.792   1.265  0.0022 -1.4056 -1.0833
  288TIP3    H2  871   2.271   4.840   1.204 -0.2343  1.6485  1.5699
  289TIP3   OH2  872   2.304   5.404   4.848 -0.1863  0.3802 -0.5382
  289TIP3    H1  873   2.291   5.495   4.876 -1.0350 -0.6805  2.8868
  289TIP3    H2  874   2.397   5.388   4.865 -0.4082  0.1344  0.4870
  290TIP3   OH2  875   0.775   0.522   1.166 -0.0049 -0.0235  0.3213
  290TIP3    H1  876   0.718   0.513   1.243 -0.3177 -0.9655 -0.0177
  290TIP3    H2  877   0.851   0.467   1.185 -0.3451 -0.7183 -0.2783
  291TIP3   OH2  878   2.842   5.851   1.755  0.0451  0.0918  0.4728
  291TIP3    H1  879   2.892   5.841   1.674  1.3343  0.3876  1.2065
  291TIP3    H2  880   2.777   5.781   1.752 -0.8426  0.9218 -1.4469
  292TIP3   OH2  881  -0.003   0.560   3.554 -0.1488 -0.3497 -0.1731
  292TIP3    H1  882   0.006   0.563   3.649 -1.1425 -0.9874 -0.0472
  292TIP3    H2  883   0.085   0.580   3.521 -0.2939  2.3215  0.8033
  293TIP3   OH2  884   3.510   0.719   3.306 -0.4226 -0.1146  0.4131
  293TIP3    H1  885   3.436   0.727   3.366  1.3299  0.0816  2.7320
  293TIP3    H2  886   3.566   0.653   3.347  0.9593  0.1537 -0.9433
  294TIP3   OH2  887   0.562   0.085   4.122 -0.6803 -0.3274 -0.2254
  294TIP3    H1  888   0.575   0.177   4.145 -0.0228 -0.4069 -0.2684
  294TIP3    H2  889   0.477   0.084   4.078 -0.6560  0.2747 -0.3030
  295TIP3   OH2  890   2.741   0.075   1.310 -0.1926  0.5446 -0.1698
  295TIP3    H1  891   2.760   0.049   1.400 -1.3420  1.0897  0.2403
  295TIP3    H2  892   2.710   0.165   1.316 -0.8636  0.3913 -1.0395
  296TIP3   OH2  893   0.251   2.550   4.911  0.0528  0.0560 -0.3992
  296TIP3    H1  894   0.292   2.637   4.907  1.6292 -0.3349  3.0928
  296TIP3    H2  895   0.302   2.497   4.850  1.6365  0.7577  0.2450
  297TIP3   OH2  896   4.687   0.612   1.899 -0.3550  0.3324  0.3155
  297TIP3    H1  897   4.627   0.585   1.829  1.5382 -1.6959 -0.6475
  297TIP3    H2  898   4.772   0.573   1.874  1.7154  3.9452  0.9858
  298TIP3   OH2  899   1.670   2.006   0.151  0.0525  0.0393  0.0975
  298TIP3    H1  900   1.647   2.099   0.140  0.8779  0.2359 -0.0734
  298TIP3    H2  901   1.599   1.959   0.107 -0.6159  0.5656  0.5862
  299TIP3   OH2  902   6.187   3.407   0.115  0.2796 -0.2064  0.7519
  299TIP3    H1  903   6.268   3.405   0.167  0.9482 -1.9019 -0.2856
  299TIP3    H2  904   6.196   3.334   0.054 -2.3880 -0.9149  1.0880
  300TIP3   OH2  905   1.897   0.448   4.675 -0.8187 -0.0240 -0.0913
  300TIP3    H1  906   1.877   0.529   4.722  0.1726  0.4989 -0.5392
  300TIP3    H2  907   1.835   0.447   4.602 -1.7713 -0.3945  0.7124
  301TIP3   OH2  908   3.666   0.560   3.768  0.0506 -0.0998  0.2095
  301TIP3    H1  909   3.737   0.547   3.831  1.1463  0.1114 -0.9359
  301TIP3    H2  910   3.603   0.491   3.788 -0.0621  0.4829  2.0793
  302TIP3   OH2  911   0.902   2.041   0.504  0.0576  0.8160 -0.1312
  302TIP3    H1  912   0.840   1.978   0.543  1.2112  1.2136  2.5444
  302TIP3    H2  913   0.856   2.125   0.508  0.5128  1.0223  1.3791
  303TIP3   OH2  914   4.294   5.046   1.175  0.6841 -0.5881 -0.1646
  303TIP3    H1  915   4.311   5.064   1.082 -2.5863 -1.8614 -1.1745
  303TIP3    H2  916   4.369   4.995   1.203  2.1213  0.4603 -1.8970
  304TIP3   OH2  917   3.283   5.524   0.423  0.2823 -0.2882 -0.3175
  304TIP3    H1  918   3.358   5.498   0.477 -0.3438 -1.4201  0.0388
  304TIP3    H2  919   3.264   5.614   0.450  1.3615 -0.0651 -0.2548
  305TIP3   OH2  920   2.324   2.078   2.072  0.1940 -0.0720  0.0227
  305TIP3    H1  921   2.361   2.010   2.014  1.4311  0.2933  0.3546
  305TIP3    H2  922   2.285   2.141   2.012  0.7088 -0.1264 -0.3772
  306TIP3   OH2  923   5.834   1.520   1.814 -0.0006  0.7839  0.4402
  306TIP3    H1  924   5.765   1.586   1.806  1.2701  2.4710  2.4123
  306TIP3    H2  925   5.821   1.483   1.901 -0.1813 -1.0423 -0.3258
  307TIP3   OH2  926   5.293   5.601   0.761 -0.2036 -0.2629 -0.6099
  307TIP3    H1  927   5.249   5.557   0.834  0.2854  0.2774  0.0227
  307TIP3    H2  928   5.274   5.694   0.773  1.4049  0.0349 -0.0837
  308TIP3   OH2  929   0.921   0.349   0.968  0.1867 -0.0252  0.0238
  308TIP3    H1  930   0.908   0.273   1.025 -0.3506  0.7887  1.0335
  308TIP3    H2  931   0.856   0.413   0.999  1.5079  1.3408  0.0785
  309TIP3   OH2  932   2.853   2.828   0.939  0.8416  0.6596  0.2678
  309TIP3    H1  933   2.791   2.884   0.985 -0.6898 -0.3455 -0.4749
  309TIP3    H2  934   2.920   2.808   1.004 -0.9233 -0.2151  1.9219
  310TIP3   OH2  935   5.684   0.348   2.084  0.0161  0.3821 -0.2322
  310TIP3    H1  936   5.768   0.317   2.117 -0.1429  1.2798  1.1243
  310TIP3    H2  937   5.670   0.300   2.002  0.7048 -1.5447  0.7375
  311TIP3   OH2  938   2.033   0.038   4.006 -0.2243 -0.5535 -0.0920
  311TIP3    H1  939   2.124   0.048   3.977 -0.2395 -1.4670 -0.4676
  311TIP3    H2  940   2.015   0.119   4.055  1.4235 -1.1741  1.6844
  312TIP3   OH2  941   5.683   4.440   2.835 -0.0953  0.5200 -0.2615
  312TIP3    H1  942   5.662   4.502   2.905  2.3678  0.2075  0.8479
  312TIP3    H2  943   5.675   4.491   2.754  0.1610  1.8182  0.5078
  313TIP3   OH2  944   5.037   0.727   4.628  0.3124 -0.6103 -0.0774
  313TIP3    H1  945   5.029   0.782   4.706 -0.0122 -0.0958 -0.4700
  313TIP3    H2  946   5.119   0.678   4.641  0.2543 -0.5374  0.5859
  314TIP3   OH2  947   4.145   5.449   0.376  0.2971  0.4941 -0.2043
  314TIP3    H1  948   4.219   5.389   0.379 -0.2914 -0.4092 -2.0064
  314TIP3    H2  949   4.136   5.481   0.465  1.8298 -0.6416  0.3979
  315TIP3   OH2  950   4.104   5.219   3.163 -0.2661  0.4319  0.1761
  315TIP3    H1  951   4.123   5.126   3.152  1.3009  0.2290  3.4734
  315TIP3    H2  952   4.010   5.222   3.180 -0.1262 -0.7759  1.3716
  316TIP3   OH2  953   0.785   2.026   1.023 -0.9340 -0.4180 -0.1294
  316TIP3    H1  954   0.778   2.121   1.034 -2.1752 -0.5463  0.4029
  316TIP3    H2  955   0.878   2.010   1.007  0.0683  0.5396  3.5885
  317TIP3   OH2  956   4.999   4.219   0.949 -0.3672 -0.7449  0.2910
  317TIP3    H1  957   5.039   4.202   0.863  1.1473 -0.1993  0.8464
  317TIP3    H2  958   4.944   4.296   0.935 -1.3702 -1.5805 -0.5249
  318TIP3   OH2  959   1.456   4.234   0.407  0.0543  0.4566 -0.1791
  318TIP3    H1  960   1.487   4.299   0.471 -2.2169  0.6374  0.8406
  318TIP3    H2  961   1.521   4.164   0.411  0.0321  0.4675  2.3516
  319TIP3   OH2  962   1.915   5.044   4.197 -0.3467  0.2241  0.2224
  319TIP3    H1  963   1.882   4.955   4.199 -1.2127  0.4781 -1.1996
  319TIP3    H2  964   1.927   5.068   4.289 -1.4340 -0.8572  0.6674
  320TIP3   OH2  965   0.806   0.675   0.735 -0.5750  0.5017  0.5636
  320TIP3    H1  966   0.724   0.671   0.785  0.5376  1.8895  2.6743
  320TIP3    H2  967   0.810   0.764   0.701  0.3851  0.7061  1.1537
  321TIP3   OH2  968   4.474   5.860   4.525 -0.9268  0.3806 -0.5322
  321TIP3    H1  969   4.499   5.935   4.580  2.1097  0.6955 -2.0958
  321TIP3    H2  970   4.398   5.891   4.476 -0.1906  2.2357 -0.6072
  322TIP3   OH2  971   2.960   5.107   4.810  0.2122 -0.6974 -0.3868
  322TIP3    H1  972   2.928   5.050   4.740  1.6512 -0.0626 -1.6214
  322TIP3    H2  973   3.046   5.136   4.779  1.1148 -0.7855  1.8780
  323TIP3   OH2  974   4.856   0.316   0.059  0.2392 -0.3415  0.6181
  323TIP3    H1  975   4.781   0.283   0.109 -0.0130  0.3443  0.7001
  323TIP3    H2  976   4.824   0.320  -0.031  0.8277 -1.9891  0.2955
  324TIP3   OH2  977   3.278   5.225   2.561 -0.6455 -0.2715 -0.3628
  324TIP3    H1  978   3.222   5.183   2.497  0.5237 -0.6031 -1.2033
  324TIP3    H2  979   3.353   5.257   2.511 -0.3887  0.7615  0.6136
  325TIP3   OH2  980   0.140   1.923   4.870  0.1051  0.0104 -0.0955
  325TIP3    H1  981   0.235   1.935   4.867  0.1118  0.5840  1.4331
  325TIP3    H2  982   0.106   1.982   4.802  0.6816  2.4145  1.5787
  326TIP3   OH2  983   0.442   2.739   3.183  0.5462 -0.1696  0.1682
  326TIP3    H1  984   0.436   2.654   3.228 -0.2638 -1.0066 -1.4255
  326TIP3    H2  985   0.361   2.744   3.132  0.1791  1.9800  0.8769
  327TIP3   OH2  986   3.312   2.030   4.523  0.3764 -0.1992  0.0825
  327TIP3    H1  987   3.372   2.075   4.583  0.4500 -0.1084 -0.0606
  327TIP3    H2  988   3.229   2.078   4.531  0.0537 -0.8590  0.9529
  328TIP3   OH2  989   0.038   3.452   0.345  0.0486  0.6282 -0.3523
  328TIP3    H1  990   0.015   3.544   0.360 -0.3972  0.2985  1.1793
  328TIP3    H2  991  -0.001   3.405   0.418 -0.5980 -0.9412 -1.6365
  329TIP3   OH2  992   5.865   2.039   4.687  0.5782  0.0491  0.2708
  329TIP3    H1  993   5.862   2.122   4.639 -1.4145 -0.4473 -0.5476
  329TIP3    H2  994   5.955   2.034   4.720  0.5563  2.8970  1.0131
  330TIP3   OH2  995   1.589   1.650   2.419  0.9055 -0.1247  0.0449
  330TIP3    H1  996   1.626   1.604   2.495 -0.3427 -1.5976 -0.2005
  330TIP3    H2  997   1.661   1.704   2.387  2.0287 -0.8974  1.1515
  331TIP3   OH2  998   2.708   5.976   2.008 -0.2600  0.4335 -0.1563
  331TIP3    H1  999   2.640   5.922   1.968  0.6788 -0.5088 -0.5334
  331TIP3    H2 1000   2.703   6.060   1.961 -0.8388  0.2122 -0.4957
  332TIP3   OH2 1001   0.436   2.490   2.041  0.3624  0.2851  0.0140
  332TIP3    H1 1002   0.476   2.438   2.111 -0.6148  1.3873  1.4418
  332TIP3    H2 1003   0.344   2.463   2.040  0.7714 -1.4282 -2.5048
  333TIP3   OH2 1004   0.542   3.489   3.089 -0.4347 -0.1288  0.5600
  333TIP3    H1 1005   0.543   3.578   3.123  1.6707 -0.1015  0.5507
  333TIP3    H2 1006   0.527   3.499   2.995  0.8652  0.3212  0.3835
  334TIP3   OH2 1007   2.032   5.590   3.822 -0.0809 -0.3011  0.5148
  334TIP3    H1 1008   1.963   5.652   3.845  0.9668  0.8366  0.6445
  334TIP3    H2 1009   2.045   5.538   3.902 -0.7554 -0.5120  0.4963
  335TIP3   OH2 1010   2.816   2.105   3.508 -0.3663 -0.0643  0.3116
  335TIP3    H1 1011   2.890   2.149   3.467 -1.4694  0.6099 -1.0393
  335TIP3    H2 1012   2.833   2.012   3.494  0.0316  0.1023 -0.3549
  336TIP3   OH2 1013   4.778   1.270   4.754  0.2361  0.2917 -0.3691
  336TIP3    H1 1014   4.793   1.252   4.662  0.7602  1.3656 -0.5179
  336TIP3    H2 1015   4.684   1.283   4.762  0.3814  2.1527 -1.1671
  337TIP3   OH2 1016   5.239   2.871   4.110 -0.1827 -0.0242 -0.2038
  337TIP3    H1 1017   5.254   2.890   4.018  2.3047  2.4812  0.5900
  337TIP3    H2 1018   5.187   2.945   4.142  0.1779 -0.1547  0.7109
  338TIP3   OH2 1019   1.921   3.844   0.584 -0.2231 -0.1055  0.3568
  338TIP3    H1 1020   1.957   3.769   0.535 -0.6099  0.0416 -0.1698
  338TIP3    H2 1021   1.859   3.805   0.645 -0.1365 -0.2485  0.3543
  339TIP3   OH2 1022   2.373   2.825   1.096 -0.3286  0.1424 -0.3340
  339TIP3    H1 1023   2.310   2.782   1.038  0.0779 -0.7171 -0.1555
  339TIP3    H2 1024   2.435   2.756   1.119  0.2702  0.8031  0.0660
  340TIP3   OH2 1025   6.113   2.140   2.376  0.4727  0.2865  0.5591
  340TIP3    H1 1026   6.154   2.169   2.457  0.4757 -0.9363  1.0281
  340TIP3    H2 1027   6.041   2.083   2.405 -1.1789  1.8607 -0.2538
  341TIP3   OH2 1028   0.197   1.545   1.953  0.1714  0.4926  0.1863
  341TIP3    H1 1029   0.120   1.597   1.978  0.5950  1.6674 -0.8541
  341TIP3    H2 1030   0.170   1.454   1.968 -1.7099  0.8176 -0.8425
  342TIP3   OH2 1031   3.880   2.810   0.263 -0.2930  0.3501  0.3963
  342TIP3    H1 1032   3.867   2.719   0.288  0.0396  0.5034  1.1550
  342TIP3    H2 1033   3.916   2.806   0.175  0.2043 -0.2756  0.6210
  343TIP3   OH2 1034   2.705   2.376   4.121 -0.2740  0.0300  0.2186
  343TIP3    H1 1035   2.760   2.342   4.050  0.6183 -0.2364  1.0169
  343TIP3    H2 1036   2.745   2.460   4.143  0.0411 -0.3331  1.0501
  344TIP3   OH2 1037   0.662   0.581   2.303  0.4137  0.4009  0.2472
  344TIP3    H1 1038   0.757   0.581   2.289  0.6431 -2.3288  1.1743
  344TIP3    H2 1039   0.626   0.539   2.225  0.2214 -0.5807  0.8428
  345TIP3   OH2 1040   6.282   2.007   3.492 -0.7462 -0.3173  0.0182
  345TIP3    H1 1041   6.254   2.055   3.570 -1.6976  0.0237 -0.5208
  345TIP3    H2 1042   6.246   2.057   3.419 -0.1766 -0.8365 -0.6270
  346TIP3   OH2 1043   1.255   0.037   2.896 -0.1213  0.3575  0.0839
  346TIP3    H1 1044   1.165   0.014   2.872  0.1681 -1.7058  0.7859
  346TIP3    H2 1045   1.252   0.049   2.991  0.0870  1.7537 -0.0633
  347TIP3   OH2 1046   4.677   0.579   1.043  0.0678  0.1229  0.2174
  347TIP3    H1 1047   4.650   0.493   1.075  2.0812 -1.2810 -1.5600
  347TIP3    H2 1048   4.768   0.588   1.071 -0.2403  1.9488  0.7960
  348TIP3   OH2 1049   6.010   2.896   0.195 -0.0252 -0.0863 -0.3205
  348TIP3    H1 1050   5.987   2.989   0.184 -2.5658 -0.4111  1.2731
  348TIP3    H2 1051   6.018   2.884   0.290  1.6985 -1.2384 -0.5708
  349TIP3   OH2 1052   5.682   4.707   3.708  0.3751 -0.5941  0.4317
  349TIP3    H1 1053   5.758   4.650   3.696  2.3634  2.1435 -1.3340
  349TIP3    H2 1054   5.681   4.724   3.802  2.9293  0.3645  0.3819
  350TIP3   OH2 1055   2.098   4.825   1.122  0.1947 -0.1595  0.0770
  350TIP3    H1 1056   2.069   4.846   1.033  3.0139  1.5176 -0.5987
  350TIP3    H2 1057   2.022   4.786   1.164 -3.1696  4.1421 -1.2810
  351TIP3   OH2 1058   0.398   2.434   3.673  0.6325 -0.0660 -0.1573
  351TIP3    H1 1059   0.346   2.482   3.737  1.0399 -0.5431  0.5399
  351TIP3    H2 1060   0.475   2.403   3.722  1.2748  0.1162 -1.0238
  352TIP3   OH2 1061   0.310   4.999   2.465 -0.1000  0.4230 -0.4223
  352TIP3    H1 1062   0.313   5.072   2.404 -0.9381  0.5462 -0.3385
  352TIP3    H2 1063   0.218   4.970   2.463  0.1395 -0.3929 -0.1856
  353TIP3   OH2 1064   4.077   0.547   4.823  0.2939 -0.2822  0.3576
  353TIP3    H1 1065   4.059   0.640   4.830 -0.3595 -0.5024  1.9873
  353TIP3    H2 1066   3.993   0.507   4.801  0.7918 -0.4144 -1.4981
  354TIP3   OH2 1067   2.563   1.535   0.224 -0.0638 -0.2599 -0.4063
  354TIP3    H1 1068   2.563   1.619   0.270  0.7069 -0.1282 -0.6329
  354TIP3    H2 1069   2.655   1.518   0.205 -0.3638 -0.1725 -2.1356
  355TIP3   OH2 1070   3.599   2.998   0.646  0.1723  0.1204  0.0854
  355TIP3    H1 1071   3.666   2.962   0.588 -0.5818  0.5885 -1.1076
  355TIP3    H2 1072   3.623   2.966   0.733  0.2777 -2.1780 -0.7282
  356TIP3   OH2 1073   5.588   4.035   1.286  0.0324 -0.4252 -0.0640
  356TIP3    H1 1074   5.513   3.998   1.332  0.3127 -0.2407  0.5534
  356TIP3    H2 1075   5.663   4.017   1.343  0.6012 -1.3555 -1.0655
  357TIP3   OH2 1076   0.910   3.321   0.527 -0.2215 -0.5738  0.1860
  357TIP3    H1 1077   0.838   3.308   0.465 -1.1001  2.2344  0.4990
  357TIP3    H2 1078   0.971   3.378   0.481  0.3777 -0.5360  1.0109
  358TIP3   OH2 1079   0.278   4.524   2.214 -0.0258 -0.3954  0.1315
  358TIP3    H1 1080   0.189   4.554   2.233 -0.7329 -2.1433 -0.2743
  358TIP3    H2 1081   0.310   4.586   2.148 -0.8687  0.3650  0.4228
  359TIP3   OH2 1082   2.116   4.778   3.079  0.3113 -0.0516  0.2349
  359TIP3    H1 1083   2.038   4.798   3.132 -0.3256 -0.6539 -0.4489
  359TIP3    H2 1084   2.097   4.692   3.041  1.6470 -0.5468  0.6574
  360TIP3   OH2 1085   6.276   1.325   2.405 -0.2314 -0.3258  0.1322
  360TIP3    H1 1086   6.272   1.305   2.498 -1.0677 -0.2474  0.1127
  360TIP3    H2 1087   6.185   1.328   2.376  0.0380 -3.0507 -1.2836
  361TIP3   OH2 1088   0.880   2.018   2.098 -0.1608 -0.4477 -0.1707
  361TIP3    H1 1089   0.914   2.107   2.089 -1.2465  0.0329  0.3147
  361TIP3    H2 1090   0.909   1.989   2.184 -0.0937 -0.4334 -0.1889
  362TIP3   OH2 1091   2.971   5.351   5.168  0.0565  0.3665 -0.3783
  362TIP3    H1 1092   2.938   5.436   5.137  1.6297  0.7948 -1.0254
  362TIP3    H2 1093   2.915   5.286   5.126 -0.2949  1.0549 -0.9972
  363TIP3   OH2 1094   4.982   4.470   3.305 -0.2750  0.0313  0.2442
  363TIP3    H1 1095   5.040   4.541   3.335  3.4230 -1.9628 -1.5570
  363TIP3    H2 1096   4.990   4.471   3.210 -1.8436 -1.4689  0.0625
  364TIP3   OH2 1097   0.942   2.196   1.298 -0.4231  0.8675  0.6438
  364TIP3    H1 1098   0.889   2.226   1.224 -0.1503  1.3728  0.6464
  364TIP3    H2 1099   1.030   2.184   1.262 -0.9438 -2.0008  0.1496
  365TIP3   OH2 1100   0.998   0.656   4.786  0.0551  0.3886 -1.0531
  365TIP3    H1 1101   0.997   0.684   4.878 -0.5431 -2.0257 -0.2437
  365TIP3    H2 1102   0.907   0.636   4.766  0.3225 -0.0682 -1.8454
  366TIP3   OH2 1103   0.264   1.884   0.186 -0.4591 -0.7890  0.7736
  366TIP3    H1 1104   0.194   1.937   0.147 -0.2179  0.1198  1.5441
  366TIP3    H2 1105   0.344   1.915   0.143 -0.0222  1.0782  2.7178
  367TIP3   OH2 1106   3.780   2.231   1.017 -0.3023  0.1159 -0.4506
  367TIP3    H1 1107   3.767   2.322   1.043 -1.1286 -0.2237  0.3935
  367TIP3    H2 1108   3.774   2.232   0.922 -3.7362  0.5075 -0.3732
  368TIP3   OH2 1109   1.924   3.650   0.394  0.0769 -0.4409 -0.4290
  368TIP3    H1 1110   1.920   3.678   0.303 -1.5911 -0.3544 -0.3573
  368TIP3    H2 1111   1.959   3.561   0.391 -2.9601 -1.7089 -1.5006
  369TIP3   OH2 1112   0.946   0.334   2.137 -0.5581 -0.1408  0.5132
  369TIP3    H1 1113   1.020   0.362   2.083 -0.1734  0.0950  1.1455
  369TIP3    H2 1114   0.944   0.398   2.208 -2.5492  1.0137 -0.4799
  370TIP3   OH2 1115   3.229   2.874   1.039 -0.2508  0.0860  0.6569
  370TIP3    H1 1116   3.200   2.952   1.086 -1.5469 -0.1166  0.2325
  370TIP3    H2 1117   3.169   2.805   1.066  1.9197 -1.2554  2.3543
  371TIP3   OH2 1118   1.085   2.195   3.804  0.3719  0.1240 -0.0385
  371TIP3    H1 1119   1.134   2.209   3.885  0.6073 -0.7561 -0.0151
  371TIP3    H2 1120   1.007   2.147   3.832  1.5076 -2.1932 -0.5629
  372TIP3   OH2 1121   5.543   2.484   4.501 -0.5312 -0.0763 -0.0205
  372TIP3    H1 1122   5.518   2.499   4.592 -2.3688 -0.9554 -0.3266
  372TIP3    H2 1123   5.475   2.426   4.467 -0.5466  1.1644 -2.2841
  373TIP3   OH2 1124   2.887   5.298   2.697  0.2021 -0.2697  0.5755
  373TIP3    H1 1125   2.810   5.254   2.660  0.6464 -0.7620  0.2082
  373TIP3    H2 1126   2.913   5.243   2.771  0.9783 -0.8670 -0.1067
  374TIP3   OH2 1127   0.124   1.348   4.454 -0.1215  0.1458 -0.4223
  374TIP3    H1 1128   0.048   1.324   4.508  0.1950 -0.4127 -0.2098
  374TIP3    H2 1129   0.139   1.440   4.473 -1.0244  0.3891 -0.8125
  375TIP3   OH2 1130   3.732   2.547   0.218  0.1146  0.2175 -0.2007
  375TIP3    H1 1131   3.806   2.529   0.159 -0.6488  0.3212 -1.2185
  375TIP3    H2 1132   3.761   2.515   0.303  0.1330 -2.6923 -1.2156
  376TIP3   OH2 1133   3.497   1.934   0.107  0.0997  0.3655 -0.1760
  376TIP3    H1 1134   3.499   2.016   0.156  0.9051  0.2477  0.0016
  376TIP3    H2 1135   3.519   1.867   0.171 -1.2674 -0.0901 -0.1530
  377TIP3   OH2 1136   5.403   3.697   1.047  0.4924 -0.1868  0.1821
  377TIP3    H1 1137   5.344   3.743   0.987  0.3756  1.2798  1.3548
  377TIP3    H2 1138   5.434   3.621   0.997 -0.0986  0.6127 -1.4779
  378TIP3   OH2 1139   6.176   3.206   1.330  0.2777  0.1808  0.2220
  378TIP3    H1 1140   6.137   3.231   1.414  2.1367  0.3851  1.0566
  378TIP3    H2 1141   6.252   3.263   1.320  1.5202 -1.4895 -0.3915
  379TIP3   OH2 1142   5.614   3.029   3.857 -0.1964  0.1841 -0.6898
  379TIP3    H1 1143   5.702   3.039   3.822  0.1088 -1.5463 -0.5147
  379TIP3    H2 1144   5.600   2.934   3.860 -1.1956  0.3360  1.4091
  380TIP3   OH2 1145   3.797   1.798   4.852 -0.3409 -0.0635  0.1708
  380TIP3    H1 1146   3.850   1.803   4.932  0.8545 -0.1647 -0.5946
  380TIP3    H2 1147   3.801   1.706   4.826 -2.9032 -0.5943  1.3876
  381TIP3   OH2 1148   3.147   1.297   4.286 -0.0892 -0.4315 -0.3512
  381TIP3    H1 1149   3.178   1.209   4.307 -0.5608  0.0441  2.7688
  381TIP3    H2 1150   3.063   1.283   4.242  0.4048 -1.5111 -1.0089
  382TIP3   OH2 1151   0.031   1.139   0.636  0.4528 -0.4722 -0.5366
  382TIP3    H1 1152   0.045   1.233   0.645 -1.0127 -0.4476  3.2838
  382TIP3    H2 1153  -0.062   1.131   0.613  0.8542 -1.0333 -2.0904
  383TIP3   OH2 1154   0.699   4.712   1.808  0.5567  0.0963  0.0894
  383TIP3    H1 1155   0.674   4.721   1.900  0.2013  2.6735 -0.1973
  383TIP3    H2 1156   0.756   4.635   1.806 -0.5207 -0.8283  2.2095
  384TIP3   OH2 1157   2.292   0.739   0.329  0.2047 -0.1066 -0.0945
  384TIP3    H1 1158   2.207   0.748   0.373 -0.2646  1.3864 -1.2428
  384TIP3    H2 1159   2.356   0.745   0.400 -0.6169 -1.0918  0.7663
  385TIP3   OH2 1160   5.452   0.192   1.487  0.5221 -0.0267  0.1519
  385TIP3    H1 1161   5.473   0.103   1.517 -0.3522 -0.3824 -0.2514
  385TIP3    H2 1162   5.374   0.217   1.536 -0.8617 -0.5743 -1.6544
  386TIP3   OH2 1163   1.816   0.738   0.975 -0.6142 -0.2073 -0.3358
  386TIP3    H1 1164   1.868   0.809   1.013  0.1876 -0.4527 -0.9487
  386TIP3    H2 1165   1.787   0.687   1.051  3.1900 -2.2625 -0.0241
  387TIP3   OH2 1166   1.125   2.401   2.945  0.0833  0.4060  0.1434
  387TIP3    H1 1167   1.197   2.413   3.006  1.8775  0.4192 -1.8846
  387TIP3    H2 1168   1.138   2.468   2.878 -2.0101  0.6111 -0.1454
  388TIP3   OH2 1169   2.475   1.364   0.444 -0.3606 -0.1586 -0.1497
  388TIP3    H1 1170   2.416   1.413   0.501 -4.1576 -3.0623 -1.1454
  388TIP3    H2 1171   2.481   1.417   0.364  0.6615  1.4100  0.9070
  389TIP3   OH2 1172   1.707   3.310   0.605 -0.1488  0.1400 -0.1668
  389TIP3    H1 1173   1.739   3.384   0.656 -0.0346  0.4837 -0.7167
  389TIP3    H2 1174   1.686   3.243   0.669  1.7621 -0.1492  0.2179
  390TIP3   OH2 1175   4.386   0.632   5.164  0.3026  0.4825 -0.0658
  390TIP3    H1 1176   4.394   0.720   5.200 -2.0418  0.0891  1.6540
  390TIP3    H2 1177   4.404   0.642   5.071  1.0139  2.5822  0.2485
  391TIP3   OH2 1178   0.054   4.658   0.432 -0.0016 -0.1639  0.3854
  391TIP3    H1 1179   0.097   4.698   0.357 -0.7490 -1.7554 -0.9851
  391TIP3    H2 1180  -0.000   4.727   0.469  0.9845  0.8676 -0.0600
  392TIP3   OH2 1181   0.759   3.989   0.681  0.3501  0.4977  0.0040
  392TIP3    H1 1182   0.703   3.961   0.609  0.9392  1.9086 -1.0473
  392TIP3    H2 1183   0.823   3.918   0.690 -1.6215 -1.2540  1.3816
  393TIP3   OH2 1184   4.101   5.503   1.844 -0.3846 -0.1675 -0.3543
  393TIP3    H1 1185   4.143   5.538   1.922 -1.7912 -0.8022  0.7425
  393TIP3    H2 1186   4.141   5.550   1.771  0.9568  0.4447  0.7480
  394TIP3   OH2 1187   6.063   1.102   0.539  0.4686  0.2948 -0.0322
  394TIP3    H1 1188   6.068   1.152   0.621  0.8683 -2.6089  1.8291
  394TIP3    H2 1189   5.977   1.060   0.542  0.8347 -0.5119 -0.7063
  395TIP3   OH2 1190   1.537   1.169   3.601 -0.0544  0.2530  0.0868
  395TIP3    H1 1191   1.564   1.085   3.639  0.8928  0.0104 -1.0752
  395TIP3    H2 1192   1.538   1.154   3.507  0.3748  1.6401 -0.1541
  396TIP3   OH2 1193   4.192   4.875   4.205 -0.1278 -0.1872 -0.1884
  396TIP3    H1 1194   4.247   4.896   4.281 -1.4388  3.7029 -0.0696
  396TIP3    H2 1195   4.107   4.852   4.242 -0.5021  0.7726 -0.4213
  397TIP3   OH2 1196   3.623   1.399   0.771 -0.0733 -0.5195 -0.0557
  397TIP3    H1 1197   3.667   1.364   0.848  0.8739  2.3703  0.8658
  397TIP3    H2 1198   3.548   1.342   0.758  2.2367 -3.8714  0.1162
  398TIP3   OH2 1199   3.542   3.558   3.731 -0.2190  0.3019  0.5430
  398TIP3    H1 1200   3.553   3.488   3.795 -3.3834  0.6228  1.6165
  398TIP3    H2 1201   3.547   3.639   3.781  0.5828  0.7274 -0.2001
  399TIP3   OH2 1202   3.374   5.268   0.830 -0.4856  0.6849  1.0496
  399TIP3    H1 1203   3.464   5.238   0.815 -0.9031  0.1098 -0.5440
  399TIP3    H2 1204   3.320   5.192   0.810 -1.3899  1.3813  0.7657
  400TIP3   OH2 1205   3.326   1.487   2.111 -0.0204 -0.5462  0.8270
  400TIP3    H1 1206   3.286   1.517   2.030  1.7747 -1.9722 -0.6881
  400TIP3    H2 1207   3.406   1.539   2.119  1.5649 -2.6568 -0.2302
  401TIP3   OH2 1208   0.385   5.910   1.727  0.4995  0.3661 -0.4563
  401TIP3    H1 1209   0.357   5.983   1.782  1.9096 -0.3221  1.2586
  401TIP3    H2 1210   0.480   5.918   1.722  0.5017 -0.2324 -1.9127
  402TIP3   OH2 1211   0.320   3.356   1.234  0.0057  0.0854  0.2151
  402TIP3    H1 1212   0.400   3.304   1.231 -1.2091 -1.8411 -0.6516
  402TIP3    H2 1213   0.326   3.414   1.159  0.3926 -0.3867 -0.1276
  403TIP3   OH2 1214   5.829   0.631   4.301  0.5854  0.2835  0.7599
  403TIP3    H1 1215   5.839   0.716   4.258  0.1402 -0.1478 -0.2125
  403TIP3    H2 1216   5.910   0.620   4.351  1.4335  0.4883 -0.5321
  404TIP3   OH2 1217   0.388   4.951   1.178  0.1016  0.4932  0.2346
  404TIP3    H1 1218   0.384   4.922   1.087 -1.3629 -0.6103  0.6343
  404TIP3    H2 1219   0.481   4.972   1.191  0.3363  0.7492 -1.5120
  405TIP3   OH2 1220   5.313   5.055   0.870 -0.3398 -0.2909 -0.4376
  405TIP3    H1 1221   5.354   5.108   0.801  0.2598 -1.0431 -0.6782
  405TIP3    H2 1222   5.235   5.018   0.829  0.8278 -1.9892 -1.2561
  406TIP3   OH2 1223   4.285   5.786   1.970  0.5315 -0.3791 -0.1966
  406TIP3    H1 1224   4.241   5.864   1.936  2.5067  2.5259  3.1442
  406TIP3    H2 1225   4.226   5.752   2.038  0.1789 -1.1492 -0.8728
  407TIP3   OH2 1226   6.054   3.772   2.632 -0.1531  0.6642  0.9269
  407TIP3    H1 1227   6.086   3.807   2.716 -1.2092  1.8139  0.8846
  407TIP3    H2 1228   6.116   3.806   2.567  0.0363  0.6895  1.1204
  408TIP3   OH2 1229   4.451   2.293   3.005  0.1839  0.1456 -0.1513
  408TIP3    H1 1230   4.413   2.276   3.091  0.2104 -0.1949 -0.2051
  408TIP3    H2 1231   4.531   2.240   3.004  0.3815  0.4403 -0.2436
  409TIP3   OH2 1232   1.152   2.038   0.392  0.5732 -0.5619 -0.4255
  409TIP3    H1 1233   1.071   2.035   0.443 -0.4865 -4.2154 -1.9977
  409TIP3    H2 1234   1.202   2.109   0.431 -3.0843  1.5070  1.0152
  410TIP3   OH2 1235   2.487   5.369   4.294  0.5718 -0.3649  0.1213
  410TIP3    H1 1236   2.489   5.375   4.389  2.5470  2.3921  0.0092
  410TIP3    H2 1237   2.439   5.446   4.266  1.5166 -0.2000 -1.1487
  411TIP3   OH2 1238   5.488   1.830   4.199 -0.1373  0.6803  0.0570
  411TIP3    H1 1239   5.404   1.873   4.216 -0.5782  1.6168 -3.5963
  411TIP3    H2 1240   5.467   1.737   4.194 -1.2908  0.9855 -1.9118
  412TIP3   OH2 1241   2.150   5.837   1.359  0.4214  0.7030 -0.1264
  412TIP3    H1 1242   2.073   5.814   1.411  1.2076  0.7845  1.1020
  412TIP3    H2 1243   2.170   5.758   1.309  0.2191  0.3120  0.4027
  413TIP3   OH2 1244   3.697   5.188   3.475  0.5688 -0.0222  0.2398
  413TIP3    H1 1245   3.767   5.130   3.445  0.1129  0.0663 -1.0551
  413TIP3    H2 1246   3.631   5.129   3.513  0.2559 -0.3473 -0.7732
  414TIP3   OH2 1247   2.168   2.683   4.904 -0.0745 -0.5321 -0.9379
  414TIP3    H1 1248   2.120   2.621   4.849 -1.2020 -0.1784 -0.3893
  414TIP3    H2 1249   2.104   2.711   4.969  1.0585 -0.4895  0.1999
  415TIP3   OH2 1250   4.381   0.643   2.579  0.3877 -0.2781  0.0558
  415TIP3    H1 1251   4.371   0.733   2.546 -1.3167 -0.1327  0.8795
  415TIP3    H2 1252   4.366   0.588   2.502  2.3393  0.1005 -0.6641
  416TIP3   OH2 1253   5.677   3.878   4.486 -0.5317 -0.5899  0.3896
  416TIP3    H1 1254   5.636   3.796   4.457  0.4200 -0.6681 -0.8428
  416TIP3    H2 1255   5.649   3.942   4.421 -0.1621 -0.2424  0.5738
  417TIP3   OH2 1256   2.091   4.928   2.522  0.7129  0.1536 -0.1215
  417TIP3    H1 1257   2.085   4.948   2.615 -2.7612  1.0042 -0.3865
  417TIP3    H2 1258   2.026   4.986   2.481  0.7322 -1.5539 -2.8202
  418TIP3   OH2 1259   0.402   3.890   3.728  0.7093 -0.1554  0.1380
  418TIP3    H1 1260   0.373   3.914   3.640  0.5135  0.6634  0.4144
  418TIP3    H2 1261   0.465   3.958   3.752 -1.1666  1.1511  1.6231
  419TIP3   OH2 1262   0.784   4.859   0.411  0.1190 -0.4689  0.2360
  419TIP3    H1 1263   0.731   4.865   0.332  0.8579 -1.6597 -0.3784
  419TIP3    H2 1264   0.809   4.767   0.416  0.4283 -0.3241  1.6367
  420TIP3   OH2 1265   1.853   4.896   5.194  0.0250 -0.5683  0.6456
  420TIP3    H1 1266   1.865   4.910   5.100 -1.5682 -0.3749  0.4486
  420TIP3    H2 1267   1.865   4.982   5.233  0.2839 -0.5735  0.5817
  421TIP3   OH2 1268   4.932   2.970   0.827 -0.1346  0.0603  0.2015
  421TIP3    H1 1269   4.946   3.043   0.767 -2.4646  0.1664 -0.3327
  421TIP3    H2 1270   4.992   2.986   0.900  1.8716  0.5950 -1.5031
  422TIP3   OH2 1271   4.801   3.233   4.393  0.4213  0.2818 -0.1333
  422TIP3    H1 1272   4.772   3.318   4.362  1.6530  0.8309  0.1566
  422TIP3    H2 1273   4.836   3.189   4.315  1.7994  0.9242  0.0988
  423TIP3   OH2 1274   2.813   5.161   5.053 -0.1183 -0.1363  0.2234
  423TIP3    H1 1275   2.854   5.155   4.967  1.3112 -1.3835  0.9459
  423TIP3    H2 1276   2.753   5.086   5.056 -0.6375  0.2684  0.0942
  424TIP3   OH2 1277   2.054   0.785   2.936  0.4826 -0.2865 -0.6116
  424TIP3    H1 1278   1.966   0.764   2.904 -0.4351  2.2256  0.0925
  424TIP3    H2 1279   2.112   0.742   2.873 -1.1329 -3.2744 -0.2730
  425TIP3   OH2 1280   4.687   2.030   1.728 -0.0349 -0.2697 -0.2930
  425TIP3    H1 1281   4.678   2.077   1.811 -0.3734  0.6330 -0.8254
  425TIP3    H2 1282   4.712   1.941   1.753 -0.6843 -0.1578  0.7962
  426TIP3   OH2 1283   5.621   3.809   3.308 -0.0608  0.3719 -0.7963
  426TIP3    H1 1284   5.558   3.833   3.240 -0.9943  0.8364  0.2026
  426TIP3    H2 1285   5.617   3.714   3.313 -1.3480  0.4379 -0.1544
  427TIP3   OH2 1286   5.515   2.687   5.014  0.6056  0.0354 -0.0226
  427TIP3    H1 1287   5.479   2.704   5.101 -0.2541 -2.4231  0.1734
  427TIP3    H2 1288   5.560   2.603   5.023 -2.9603 -2.4636 -2.8111
  428TIP3   OH2 1289   1.254   1.258   2.776  0.3074  1.0389  0.1397
  428TIP3    H1 1290   1.264   1.245   2.682 -0.9138 -0.1016  0.1517
  428TIP3    H2 1291   1.339   1.232   2.813  0.6411  1.0600 -0.5935
  429TIP3   OH2 1292   5.657   1.289   0.697  0.0966  0.1067 -0.5121
  429TIP3    H1 1293   5.631   1.381   0.693 -1.0614 -0.1350  0.7802
  429TIP3    H2 1294   5.701   1.280   0.782 -1.5019 -0.9228  0.2472
  430TIP3   OH2 1295   0.545   3.463   3.735  0.5283  0.1689  0.2140
  430TIP3    H1 1296   0.481   3.397   3.707  1.0243  0.4821 -1.8114
  430TIP3    H2 1297   0.551   3.452   3.830 -2.5880  0.1659  0.5210
  431TIP3   OH2 1298   4.447   2.683   1.519 -0.0525  0.5717  0.0967
  431TIP3    H1 1299   4.353   2.690   1.501 -0.1317  1.1356  0.7057
  431TIP3    H2 1300   4.475   2.606   1.469 -0.4964  1.3718 -1.4745
  432TIP3   OH2 1301   4.160   2.822   2.623  0.0237 -0.3408  0.4478
  432TIP3    H1 1302   4.203   2.832   2.708 -0.1617 -2.0483  0.7732
  432TIP3    H2 1303   4.147   2.728   2.613  1.4863 -0.3680 -2.1902
  433TIP3   OH2 1304   4.904   4.082   1.582 -0.1289  0.3251 -0.0750
  433TIP3    H1 1305   4.894   3.994   1.547 -0.6247 -0.0806  1.0586
  433TIP3    H2 1306   4.937   4.070   1.671  1.4495  1.3508 -0.4629
  434TIP3   OH2 1307   5.430   1.204   2.090  0.1369  0.6215  0.1326
  434TIP3    H1 1308   5.397   1.114   2.085  2.7510 -0.4084 -0.5996
  434TIP3    H2 1309   5.360   1.258   2.055 -1.5063 -1.1303  0.5702
  435TIP3   OH2 1310   2.170   1.388   4.169 -0.6044  0.1699 -0.0445
  435TIP3    H1 1311   2.224   1.418   4.241 -0.2669  1.2320 -0.7074
  435TIP3    H2 1312   2.082   1.420   4.190 -0.4374  0.7980 -0.2592
  436TIP3   OH2 1313   3.517   0.355   1.349  0.3356 -0.1627 -0.5860
  436TIP3    H1 1314   3.495   0.334   1.440  0.4844  1.2437 -0.2061
  436TIP3    H2 1315   3.433   0.351   1.303  0.2938 -1.1067 -0.4408
  437TIP3   OH2 1316   1.543   5.272   2.159  0.2621  0.0584 -0.2652
  437TIP3    H1 1317   1.617   5.256   2.216  0.5918  1.6104 -0.2171
  437TIP3    H2 1318   1.466   5.257   2.214  0.5477 -0.2688  0.0472
  438TIP3   OH2 1319   4.694   0.677   5.106  0.1164  0.2819 -0.4103
  438TIP3    H1 1320   4.755   0.714   5.169 -0.2910  0.7856 -0.3147
  438TIP3    H2 1321   4.706   0.582   5.115 -0.6874  0.3008  1.1680
  439TIP3   OH2 1322   0.593   1.760   1.834  0.1651  0.2164 -0.2811
  439TIP3    H1 1323   0.522   1.797   1.783 -0.8364  0.5252  1.2574
  439TIP3    H2 1324   0.606   1.823   1.905 -1.0277 -1.8878  1.9477
  440TIP3   OH2 1325   3.368   4.500   4.656 -1.1349  0.4758 -0.0848
  440TIP3    H1 1326   3.323   4.449   4.723 -0.0666 -0.1454  0.1868
  440TIP3    H2 1327   3.375   4.441   4.580  0.9012 -0.1780  0.5332
  441TIP3   OH2 1328   2.664   4.464   5.037 -0.3373  0.1418  0.2907
  441TIP3    H1 1329   2.716   4.540   5.064 -0.0768  0.1322 -0.1802
  441TIP3    H2 1330   2.727   4.406   4.995 -0.8184  0.3616 -0.7540
  442TIP3   OH2 1331   5.416   3.402   0.394  0.5193  0.2218 -0.1832
  442TIP3    H1 1332   5.426   3.347   0.472  0.0314 -0.0170 -0.2835
  442TIP3    H2 1333   5.376   3.482   0.426  1.1046  0.4675 -0.0581
  443TIP3   OH2 1334   1.578   2.107   1.279 -0.5155  0.6849  0.6347
  443TIP3    H1 1335   1.544   2.118   1.368  0.1126  0.1995  0.9385
  443TIP3    H2 1336   1.589   2.196   1.247 -3.2761  0.9071  0.0357
  444TIP3   OH2 1337   0.478   5.027   3.849  0.0603 -0.2547  0.3281
  444TIP3    H1 1338   0.473   5.076   3.931 -1.3060 -0.3234  0.3134
  444TIP3    H2 1339   0.572   5.018   3.832  0.4170 -1.1535  2.4128
  445TIP3   OH2 1340   1.033   1.574   1.381  0.4708 -0.1090 -0.0641
  445TIP3    H1 1341   1.008   1.646   1.440  0.0807 -0.7882  0.6260
  445TIP3    H2 1342   1.012   1.606   1.294 -2.2244 -0.3487  0.4008
  446TIP3   OH2 1343   4.603   0.473   4.880  0.1587  0.2188 -0.0560
  446TIP3    H1 1344   4.523   0.511   4.916  0.6784  1.4360 -0.1518
  446TIP3    H2 1345   4.647   0.435   4.956 -0.5016 -0.4664 -0.0033
  447TIP3   OH2 1346   5.905   4.749   1.054 -0.2477  0.0972 -0.1539
  447TIP3    H1 1347   5.853   4.775   0.977  0.2248  2.2035  0.1667
  447TIP3    H2 1348   5.980   4.703   1.018 -0.3508  0.5135 -0.9249
  448TIP3   OH2 1349   0.955   4.187   5.114 -0.1288  0.0601  0.2360
  448TIP3    H1 1350   0.868   4.149   5.103  1.1621 -3.0345 -0.3543
  448TIP3    H2 1351   0.989   4.146   5.194  0.7262  1.4392  0.6244
  449TIP3   OH2 1352   1.800   1.754   4.799  0.0809  0.1356 -0.2676
  449TIP3    H1 1353   1.839   1.667   4.802  1.1892  0.5143 -2.0945
  449TIP3    H2 1354   1.733   1.749   4.730 -1.9855 -0.0316  1.6528
  450TIP3   OH2 1355   4.070   4.183   3.873 -0.3580 -0.2590 -0.2609
  450TIP3    H1 1356   4.002   4.143   3.928 -1.5517  0.5622 -1.0971
  450TIP3    H2 1357   4.128   4.227   3.935 -0.1457 -1.5929  0.5214
  451TIP3   OH2 1358   4.776   3.666   0.670  0.0593  0.1022  0.0423
  451TIP3    H1 1359   4.694   3.637   0.631  0.5328 -0.3625 -0.6181
  451TIP3    H2 1360   4.813   3.588   0.712  0.1436  0.3181  0.3767
  452TIP3   OH2 1361   4.260   1.981   0.991  0.1567 -0.9803  0.3118
  452TIP3    H1 1362   4.327   2.042   0.961 -0.6858  1.1932  2.5388
  452TIP3    H2 1363   4.185   1.998   0.935 -0.2224  0.4326  1.2043
  453TIP3   OH2 1364   4.487   3.724   4.672 -0.3188  0.2608  0.4207
  453TIP3    H1 1365   4.400   3.685   4.664  0.2774 -0.9938 -0.3348
  453TIP3    H2 1366   4.515   3.737   4.581 -0.3511  2.1535  0.6587
  454TIP3   OH2 1367   2.943   0.655   5.006 -0.2365  0.2304  0.1079
  454TIP3    H1 1368   2.926   0.638   5.099  0.1680  0.6442  0.2603
  454TIP3    H2 1369   2.898   0.737   4.988  0.1523  0.4396  0.0805
  455TIP3   OH2 1370   0.664   0.485   3.357 -0.0464 -0.0618  0.2627
  455TIP3    H1 1371   0.596   0.462   3.421 -0.6092 -0.4055 -0.4381
  455TIP3    H2 1372   0.693   0.572   3.383 -1.3151  0.4277  0.1333
  456TIP3   OH2 1373   5.914   0.833   4.022 -0.1978  0.2008  0.0154
  456TIP3    H1 1374   5.977   0.760   4.023  0.0569  0.4236  0.5160
  456TIP3    H2 1375   5.831   0.793   3.997 -0.3705 -0.5238  1.6286
  457TIP3   OH2 1376   2.912   3.227   3.818  0.2298 -0.4468  1.0051
  457TIP3    H1 1377   2.863   3.169   3.760 -0.0088  1.3652 -0.7126
  457TIP3    H2 1378   2.959   3.168   3.877 -0.7152 -2.3332 -0.0259
  458TIP3   OH2 1379   1.911   1.081   3.677  0.1937  0.0063  0.3367
  458TIP3    H1 1380   1.822   1.055   3.655 -0.2026  1.8203 -0.4063
  458TIP3    H2 1381   1.949   1.113   3.595  1.8843 -1.5965  0.4314
  459TIP3   OH2 1382   3.697   0.804   4.021  0.8831 -0.4486  0.1756
  459TIP3    H1 1383   3.639   0.880   4.009  0.0637 -1.2422 -1.1884
  459TIP3    H2 1384   3.648   0.745   4.078  0.9008 -0.5505  0.0865
  460TIP3   OH2 1385   6.022   1.427   2.768  0.1638  0.0957  0.0160
  460TIP3    H1 1386   5.967   1.465   2.700  1.8689 -1.1418 -2.1784
  460TIP3    H2 1387   6.097   1.487   2.774  0.0231  0.2069  0.8776
  461TIP3   OH2 1388   3.627   2.109   1.244  0.6990  0.1139  0.4034
  461TIP3    H1 1389   3.712   2.122   1.202  0.3750  1.3402  0.0655
  461TIP3    H2 1390   3.576   2.186   1.218 -2.2567 -2.7360 -3.5332
  462TIP3   OH2 1391   3.760   3.561   3.278  0.4507  0.2515 -0.4847
  462TIP3    H1 1392   3.676   3.516   3.280  0.8606 -0.5219 -0.1148
  462TIP3    H2 1393   3.744   3.640   3.227 -0.6869  0.5133  0.2587
  463TIP3   OH2 1394   0.116   0.991   0.887 -0.2650 -0.7112  0.9561
  463TIP3    H1 1395   0.163   1.052   0.944  0.9806 -1.6237  0.9686
  463TIP3    H2 1396   0.062   1.047   0.830  1.8539  0.5393  0.0348
  464TIP3   OH2 1397   4.567   1.260   2.913 -0.0026 -0.3872 -0.2486
  464TIP3    H1 1398   4.659   1.284   2.900 -0.1151 -0.2256 -0.7605
  464TIP3    H2 1399   4.551   1.277   3.006  0.9773 -2.1204  0.2670
  465TIP3   OH2 1400   5.106   2.940   1.186  0.0275 -0.9603  0.1060
  465TIP3    H1 1401   5.073   2.851   1.178  1.6454 -1.7774  1.7995
  465TIP3    H2 1402   5.174   2.947   1.118 -1.6489 -0.1842 -1.5688
  466TIP3   OH2 1403   3.793   5.577   0.346  0.1286 -0.0805  0.3328
  466TIP3    H1 1404   3.790   5.672   0.337 -1.2220  0.0077  1.3799
  466TIP3    H2 1405   3.841   5.562   0.427  0.9066 -0.3434 -0.1601
  467TIP3   OH2 1406   1.646   1.463   4.543  0.6478 -0.6284  0.1729
  467TIP3    H1 1407   1.704   1.513   4.487  1.9128 -2.3863 -0.1835
  467TIP3    H2 1408   1.614   1.526   4.607  1.9919  0.6540 -0.3595
  468TIP3   OH2 1409   3.803   1.185   4.596  0.2644  0.1525 -0.0292
  468TIP3    H1 1410   3.766   1.100   4.573  0.2201  0.6308 -1.9346
  468TIP3    H2 1411   3.761   1.208   4.679 -0.0621 -1.4648  0.2754
  469TIP3   OH2 1412   5.889   1.823   2.756 -0.2504 -0.0409  0.0811
  469TIP3    H1 1413   5.929   1.910   2.764 -2.9870  1.1631  2.9834
  469TIP3    H2 1414   5.933   1.771   2.823 -0.2646 -0.1576 -0.0006
  470TIP3   OH2 1415   0.804   1.739   2.331 -0.2487 -0.2027  0.1247
  470TIP3    H1 1416   0.800   1.715   2.239 -0.6918  0.9754 -0.1775
  470TIP3    H2 1417   0.895   1.724   2.356 -0.0670 -0.2849 -0.5690
  471TIP3   OH2 1418   1.711   2.039   1.973  0.1884 -0.0961 -0.4361
  471TIP3    H1 1419   1.800   2.004   1.974  0.5327  0.7667  0.0447
  471TIP3    H2 1420   1.656   1.967   2.004  0.9399 -0.1030  0.9657
  472TIP3   OH2 1421   2.248   0.582   2.552 -0.2714 -0.1395 -0.4883
  472TIP3    H1 1422   2.302   0.567   2.474  1.4180  1.6403  0.2443
  472TIP3    H2 1423   2.209   0.668   2.538  0.7690  0.6162  0.9524
  473TIP3   OH2 1424   2.520   5.101   3.068  0.8433 -0.2766  0.3429
  473TIP3    H1 1425   2.425   5.087   3.067  0.6069  0.6274 -3.2193
  473TIP3    H2 1426   2.557   5.014   3.054  0.4345 -0.3867 -0.0945
  474TIP3   OH2 1427   0.558   2.957   3.305  0.5657  0.4671 -0.0248
  474TIP3    H1 1428   0.568   3.011   3.227  0.1992 -0.8600 -1.0431
  474TIP3    H2 1429   0.525   2.873   3.271  1.9014 -0.6762  1.3609
  475TIP3   OH2 1430   0.322   0.227   2.234 -0.2661 -0.3793  0.4685
  475TIP3    H1 1431   0.263   0.253   2.305 -0.6763  0.4351 -0.1538
  475TIP3    H2 1432   0.265   0.216   2.158  0.4627  1.4350 -0.4071
  476TIP3   OH2 1433   1.584   1.096   3.348  0.4880 -0.0818  0.1753
  476TIP3    H1 1434   1.679   1.082   3.344  0.5274  0.3724 -1.2142
  476TIP3    H2 1435   1.558   1.101   3.256 -0.9642 -0.6941  0.5362
  477TIP3   OH2 1436   6.035   5.622   2.698 -0.2198 -0.5904 -0.1539
  477TIP3    H1 1437   6.071   5.706   2.668 -1.5177 -0.1001 -0.4181
  477TIP3    H2 1438   5.994   5.643   2.782  0.7547 -1.3008  0.5150
  478TIP3   OH2 1439   3.140   3.610   1.276 -0.4982  0.4609 -0.0935
  478TIP3    H1 1440   3.200   3.684   1.273  0.1096 -0.0349 -0.7313
  478TIP3    H2 1441   3.173   3.555   1.347 -1.7522  1.4343  1.2968
  479TIP3   OH2 1442   1.601   1.495   0.156  0.1694 -0.3364 -0.3880
  479TIP3    H1 1443   1.667   1.519   0.092  1.9189  0.7578  1.6980
  479TIP3    H2 1444   1.610   1.400   0.165  3.7870  0.0427  2.0405
  480TIP3   OH2 1445   3.444   4.844   4.269  0.3755 -1.1086 -0.1699
  480TIP3    H1 1446   3.353   4.843   4.300  0.2857 -0.2889 -0.3875
  480TIP3    H2 1447   3.494   4.808   4.342 -0.1227 -1.6140 -0.0646
  481TIP3   OH2 1448   0.783   0.437   0.298 -0.1320  0.2650 -0.0451
  481TIP3    H1 1449   0.754   0.517   0.255 -2.1963  0.0252  0.8070
  481TIP3    H2 1450   0.805   0.377   0.225 -2.1154  0.3704 -0.7879
  482TIP3   OH2 1451   1.486   3.407   0.451  0.7332  0.3818 -0.7618
  482TIP3    H1 1452   1.510   3.498   0.432 -0.5832  1.5361  2.3994
  482TIP3    H2 1453   1.558   3.374   0.504 -0.1913  0.7099  0.7637
  483TIP3   OH2 1454   0.603   4.825   1.588  0.5485  0.2135 -0.2112
  483TIP3    H1 1455   0.677   4.869   1.547  1.1918 -0.9299 -0.3065
  483TIP3    H2 1456   0.641   4.781   1.664  0.4779 -2.3710 -1.5758
  484TIP3   OH2 1457   2.159   5.675   5.132  0.3147 -0.1545  0.0912
  484TIP3    H1 1458   2.146   5.580   5.139 -1.4336  0.0418 -0.2534
  484TIP3    H2 1459   2.188   5.689   5.042 -1.3397 -0.1980 -0.4822
  485TIP3   OH2 1460   6.104   1.661   4.624 -0.1270  0.4285  0.0930
  485TIP3    H1 1461   6.197   1.641   4.608 -0.1252 -0.3399  0.9526
  485TIP3    H2 1462   6.066   1.577   4.650 -0.8610  0.9319  0.6790
  486TIP3   OH2 1463   0.587   0.453   4.540 -0.0216  0.4170  0.2878
  486TIP3    H1 1464   0.523   0.384   4.524  1.5621 -1.0095 -0.2324
  486TIP3    H2 1465   0.542   0.533   4.515 -1.8301 -0.4294  0.6209
  487TIP3   OH2 1466   1.676   3.684   3.149  0.1614  0.1451  0.1243
  487TIP3    H1 1467   1.714   3.600   3.177 -0.1645 -0.1160 -0.2093
  487TIP3    H2 1468   1.718   3.749   3.205 -0.0324 -0.3096  0.8060
  488TIP3   OH2 1469   5.244   2.052   5.180 -0.0149  0.2416  0.5373
  488TIP3    H1 1470   5.158   2.090   5.161  0.2561  0.5116 -0.1941
  488TIP3    H2 1471   5.299   2.079   5.106  0.9053  0.7092  1.3639
  489TIP3   OH2 1472   3.476   4.029   2.809  0.3411 -0.2482  0.0743
  489TIP3    H1 1473   3.497   3.943   2.846  1.8869  0.3453  0.6726
  489TIP3    H2 1474   3.428   4.074   2.878 -1.3526 -0.9271 -0.5940
  490TIP3   OH2 1475   0.513   4.760   4.364  0.1870  0.7928 -0.7680
  490TIP3    H1 1476   0.507   4.682   4.308 -1.1043  1.0448 -1.0090
  490TIP3    H2 1477   0.566   4.732   4.438 -1.6112 -0.8409 -0.0206
  491TIP3   OH2 1478   4.378   3.312   0.675 -0.2170  0.0839 -0.2532
  491TIP3    H1 1479   4.376   3.292   0.768  1.0024  0.8127 -0.0399
  491TIP3    H2 1480   4.382   3.227   0.632 -0.2349 -0.2459  0.3847
  492TIP3   OH2 1481   3.724   4.300   4.697  0.2702 -0.3476 -0.4114
  492TIP3    H1 1482   3.782   4.298   4.774  1.2906 -2.3423 -1.1601
  492TIP3    H2 1483   3.645   4.255   4.726  0.8212 -1.4897 -0.5933
  493TIP3   OH2 1484   4.515   2.446   1.420 -0.1639 -0.0930 -0.3381
  493TIP3    H1 1485   4.599   2.402   1.408  0.1420  0.6227 -0.8857
  493TIP3    H2 1486   4.450   2.381   1.391  0.2787 -0.1971 -1.1439
  494TIP3   OH2 1487   4.811   1.026   4.902  0.0101 -0.0388 -0.0238
  494TIP3    H1 1488   4.793   1.119   4.890 -3.0250 -0.2100  1.9853
  494TIP3    H2 1489   4.737   0.982   4.860 -1.8704 -1.1411  3.9358
  495TIP3   OH2 1490   2.610   4.411   4.734  0.6038 -0.6501 -0.0927
  495TIP3    H1 1491   2.704   4.410   4.751  0.9814  1.1477 -1.6199
  495TIP3    H2 1492   2.570   4.421   4.820  1.9962  1.5213  0.3888
  496TIP3   OH2 1493   1.831   1.807   2.282 -0.0141 -0.0972 -0.0512
  496TIP3    H1 1494   1.775   1.759   2.221 -0.3534  0.0406  0.1525
  496TIP3    H2 1495   1.906   1.834   2.229 -0.5136  0.4020 -0.5198
  497TIP3   OH2 1496   2.197   3.149   2.531  0.8468  0.3861 -0.7476
  497TIP3    H1 1497   2.214   3.175   2.622  0.0562  2.1162 -1.0533
  497TIP3    H2 1498   2.162   3.228   2.490 -1.5543 -1.1231 -1.8247
  498TIP3   OH2 1499   2.008   4.247   4.274  0.1742 -0.3686 -0.0539
  498TIP3    H1 1500   2.012   4.166   4.224  1.4043 -0.1410 -0.3499
  498TIP3    H2 1501   2.098   4.263   4.302 -0.4157 -0.3045  1.9631
  499TIP3   OH2 1502   4.517   0.319   1.103  0.1777 -0.5682 -0.1396
  499TIP3    H1 1503   4.548   0.252   1.043  1.4878 -0.7647  0.7214
  499TIP3    H2 1504   4.508   0.274   1.187  0.6589  0.2335  0.3551
  500TIP3   OH2 1505   6.164   5.798   0.771 -0.0768  0.0915 -0.7885
  500TIP3    H1 1506   6.167   5.748   0.853 -0.6722 -2.1555 -2.0449
  500TIP3    H2 1507   6.233   5.761   0.717 -0.6013  0.5586 -1.8124
  501TIP3   OH2 1508   5.453   5.646   4.132  0.3082 -0.3137  0.2021
  501TIP3    H1 1509   5.492   5.641   4.219 -2.0193  1.8579  1.5252
  501TIP3    H2 1510   5.364   5.613   4.145  0.0239 -0.2410 -1.4244
  502TIP3   OH2 1511   0.103   3.417   3.592 -0.4754  0.2505  0.0099
  502TIP3    H1 1512   0.068   3.361   3.662  0.5883  1.0407  1.2167
  502TIP3    H2 1513   0.168   3.472   3.636  0.7402  0.2769 -1.7529
  503TIP3   OH2 1514   0.261   5.474   3.059 -0.3931 -0.3414  0.0508
  503TIP3    H1 1515   0.258   5.559   3.015 -1.1598 -0.9427 -1.1349
  503TIP3    H2 1516   0.332   5.427   3.016 -0.2045 -0.4266  0.4545
  504TIP3   OH2 1517   0.112   2.104   3.159 -0.6558 -0.5756 -0.0974
  504TIP3    H1 1518   0.205   2.088   3.176 -0.5670  0.1162  0.0911
  504TIP3    H2 1519   0.066   2.036   3.208 -0.3087 -0.0066  1.0352
  505TIP3   OH2 1520   3.695   0.948   0.768 -0.1961 -0.5416  0.0727
  505TIP3    H1 1521   3.780   0.993   0.765 -0.0846 -0.7712 -0.1829
  505TIP3    H2 1522   3.693   0.908   0.855 -0.8258  0.9738  0.7983
  506TIP3   OH2 1523   3.884   1.408   2.766 -0.0625 -0.1697  0.1168
  506TIP3    H1 1524   3.881   1.313   2.770  0.7159 -0.2654 -1.1213
  506TIP3    H2 1525   3.797   1.434   2.735 -0.1959 -0.4883  0.2232
  507TIP3   OH2 1526   0.792   0.870   4.375  0.2135  0.4403 -0.6050
  507TIP3    H1 1527   0.771   0.926   4.450 -0.8147 -0.0671 -0.4936
  507TIP3    H2 1528   0.853   0.805   4.410 -1.0881 -0.4432  0.0862
  508TIP3   OH2 1529   4.434   4.500   4.365 -0.2581  0.2580 -0.0809
  508TIP3    H1 1530   4.436   4.563   4.437 -0.9723  0.7031 -0.4392
  508TIP3    H2 1531   4.526   4.489   4.340 -0.2460  3.2826 -1.8271
  509TIP3   OH2 1532   2.941   0.398   1.819 -0.4315  0.7055  0.0979
  509TIP3    H1 1533   2.861   0.385   1.768 -0.3392  1.2150 -0.1879
  509TIP3    H2 1534   2.973   0.484   1.791  0.5433  0.2414 -0.2303
  510TIP3   OH2 1535   5.629   2.631   4.292 -0.5651 -0.3398 -0.2812
  510TIP3    H1 1536   5.721   2.651   4.310  0.1481 -2.1032 -1.6602
  510TIP3    H2 1537   5.602   2.574   4.365 -0.6440  0.3505  0.2360
  511TIP3   OH2 1538   0.891   3.680   3.435 -0.0551  0.1239  0.0691
  511TIP3    H1 1539   0.911   3.768   3.467  0.1545  0.2872 -0.4954
  511TIP3    H2 1540   0.838   3.641   3.504 -0.4307  0.8142  0.1854
  512TIP3   OH2 1541   5.037   1.545   3.400  0.1871  0.5086  0.5386
  512TIP3    H1 1542   5.082   1.575   3.479  1.5951  0.5386 -0.2450
  512TIP3    H2 1543   5.084   1.467   3.373 -2.2814 -1.4328  1.4805
  513TIP3   OH2 1544   1.219   0.321   4.959 -0.1555 -0.1998 -0.2558
  513TIP3    H1 1545   1.141   0.315   5.015  0.2044  0.5073  0.3393
  513TIP3    H2 1546   1.267   0.397   4.993  0.3826 -0.1288 -1.1404
  514TIP3   OH2 1547   1.476   5.848   2.472  0.1748 -0.8200  0.4464
  514TIP3    H1 1548   1.394   5.801   2.455  0.5323 -1.5067  0.5983
  514TIP3    H2 1549   1.473   5.869   2.566  0.2166 -0.9456  0.4770
  515TIP3   OH2 1550   5.762   5.435   2.335  0.8830  0.3740  0.6851
  515TIP3    H1 1551   5.729   5.349   2.308 -0.9791  0.6381  1.9135
  515TIP3    H2 1552   5.689   5.474   2.383  0.7270  3.7488 -1.9960
  516TIP3   OH2 1553   4.797   2.793   0.588 -0.0414 -0.3913 -0.1930
  516TIP3    H1 1554   4.761   2.750   0.665 -0.1960 -0.8273 -0.5028
  516TIP3    H2 1555   4.892   2.778   0.594 -0.1661 -1.5150 -0.7239
  517TIP3   OH2 1556   2.116   4.004   1.214  0.1614  0.2485 -0.1356
  517TIP3    H1 1557   2.037   4.024   1.264 -0.4290  0.5530 -1.1654
  517TIP3    H2 1558   2.175   4.077   1.231  0.1431  0.1242  0.4702
  518TIP3   OH2 1559   2.845   3.525   0.666 -0.1430  0.6954  0.4960
  518TIP3    H1 1560   2.785   3.530   0.592 -0.9536 -0.5288  1.0513
  518TIP3    H2 1561   2.865   3.432   0.676  0.5780  0.9169  1.3314
  519TIP3   OH2 1562   4.361   5.911   2.242 -0.2535  0.9676  0.2581
  519TIP3    H1 1563   4.338   5.886   2.153 -1.3246  0.0856  0.7580
  519TIP3    H2 1564   4.457   5.914   2.243 -0.1019 -1.5072 -0.2913
  520TIP3   OH2 1565   3.824   1.269   1.547  0.2981 -0.0134 -0.3529
  520TIP3    H1 1566   3.777   1.344   1.583  1.6795  0.2312  1.0274
  520TIP3    H2 1567   3.832   1.288   1.453 -0.2596  1.0452 -0.2057
  521TIP3   OH2 1568   1.856   0.960   4.999  0.2218  0.0453  0.0878
  521TIP3    H1 1569   1.814   0.876   5.018  1.3501 -0.8410 -1.1253
  521TIP3    H2 1570   1.867   1.002   5.084 -0.2979 -1.0845  0.7234
  522TIP3   OH2 1571   2.941   1.313   4.983 -0.0227 -0.2251 -0.3053
  522TIP3    H1 1572   3.026   1.325   4.940 -0.0042  1.5217  0.1458
  522TIP3    H2 1573   2.963   1.273   5.067  0.3788  0.3369 -0.1343
  523TIP3   OH2 1574   5.473   4.739   3.298  0.4297 -0.2595  0.0387
  523TIP3    H1 1575   5.494   4.649   3.320 -0.7296 -0.6030 -0.1789
  523TIP3    H2 1576   5.530   4.792   3.354 -0.6450 -1.1099  2.0310
  524TIP3   OH2 1577   1.183   2.560   4.403  0.1190  0.0031  0.2851
  524TIP3    H1 1578   1.109   2.540   4.460  0.6557  0.4678  1.1796
  524TIP3    H2 1579   1.244   2.487   4.417  1.1179  1.0720  1.8699
  525TIP3   OH2 1580   0.402   3.336   0.337  0.1082 -0.4239 -0.1304
  525TIP3    H1 1581   0.386   3.272   0.268  2.6783 -1.3956  0.0526
  525TIP3    H2 1582   0.404   3.420   0.291 -2.1827 -0.5333 -0.5477
  526TIP3   OH2 1583   3.669   0.529   3.465  0.3057  0.1844  0.1548
  526TIP3    H1 1584   3.607   0.462   3.435  1.1148  0.1300 -1.4957
  526TIP3    H2 1585   3.656   0.532   3.559  0.3645 -2.4127  0.3192
  527TIP3   OH2 1586   5.563   4.018   3.487 -0.4388  0.0296  0.4705
  527TIP3    H1 1587   5.639   3.993   3.540 -0.7842  0.4821  1.1815
  527TIP3    H2 1588   5.574   3.967   3.406 -0.0412 -0.8617  1.0615
  528TIP3   OH2 1589   3.120   2.256   1.864  0.3056  0.2632  0.8079
  528TIP3    H1 1590   3.138   2.167   1.897 -0.9044 -0.1384  0.4372
  528TIP3    H2 1591   3.205   2.288   1.834  0.2543 -2.2320 -2.6127
  529TIP3   OH2 1592   6.070   3.668   0.515 -0.3179  0.1006 -0.5224
  529TIP3    H1 1593   6.032   3.645   0.599  3.2447  0.2629  1.3117
  529TIP3    H2 1594   6.035   3.604   0.454 -0.5292 -2.1156  1.7807
  530TIP3   OH2 1595   5.211   3.198   5.098  0.2810  0.2678 -0.2093
  530TIP3    H1 1596   5.185   3.108   5.079 -2.0586  0.2311  2.3966
  530TIP3    H2 1597   5.299   3.191   5.134 -0.3718 -1.2626  1.2530
  531TIP3   OH2 1598   1.822   4.126   2.400 -0.3604  0.3445 -0.3040
  531TIP3    H1 1599   1.804   4.193   2.334  0.6109  1.3163  0.4043
  531TIP3    H2 1600   1.866   4.172   2.471 -0.0875 -0.9599  0.4050
  532TIP3   OH2 1601   5.885   4.799   4.870  0.4538  0.0715  0.2096
  532TIP3    H1 1602   5.810   4.793   4.929 -0.3621 -1.1466 -0.8931
  532TIP3    H2 1603   5.851   4.841   4.792  0.6960 -1.1397 -0.5833
  533TIP3   OH2 1604   4.289   4.983   0.556  0.2474 -0.2904  0.1781
  533TIP3    H1 1605   4.241   4.901   0.552 -0.4784  0.0747  1.0311
  533TIP3    H2 1606   4.246   5.033   0.625 -0.8641  1.7995 -1.8944
  534TIP3   OH2 1607   0.739   1.258   4.630  0.6703  0.0229 -0.1728
  534TIP3    H1 1608   0.714   1.253   4.537  0.6614  1.0377 -0.2367
  534TIP3    H2 1609   0.657   1.241   4.677  1.1286 -2.9926 -0.2777
  535TIP3   OH2 1610   2.780   1.381   4.337 -0.3714  0.4884  0.1988
  535TIP3    H1 1611   2.756   1.304   4.285 -0.4154  0.3137  0.4776
  535TIP3    H2 1612   2.767   1.354   4.427  1.6336  0.1109  0.4162
  536TIP3   OH2 1613   2.335   0.673   2.804  0.4752 -0.3801 -0.1430
  536TIP3    H1 1614   2.324   0.609   2.734 -0.6331  0.4194 -0.7290
  536TIP3    H2 1615   2.367   0.752   2.761 -0.0154  0.0523  0.2638
  537TIP3   OH2 1616   4.329   1.385   2.330 -0.0491 -0.4217 -0.5724
  537TIP3    H1 1617   4.265   1.366   2.400  0.0808  1.4616  0.1180
  537TIP3    H2 1618   4.411   1.399   2.377  0.1612  0.2966 -1.1374
  538TIP3   OH2 1619   2.461   2.460   2.343 -0.1141  0.3743 -0.2242
  538TIP3    H1 1620   2.440   2.368   2.328 -0.4845  0.0036  2.1276
  538TIP3    H2 1621   2.534   2.457   2.405 -0.2648  1.6478  0.0325
  539TIP3   OH2 1622   5.777   4.034   4.247 -0.2283 -0.0237  0.0702
  539TIP3    H1 1623   5.688   4.023   4.282 -0.7458 -0.3996 -1.2864
  539TIP3    H2 1624   5.821   4.090   4.311 -1.2906 -0.2254  1.0153
  540TIP3   OH2 1625   4.436   3.853   2.504  0.1233  0.2829 -0.1791
  540TIP3    H1 1626   4.352   3.890   2.477  0.7133  1.4230 -0.5258
  540TIP3    H2 1627   4.446   3.775   2.450 -0.5647  0.3120 -0.3596
  541TIP3   OH2 1628   1.983   1.192   3.443 -0.4082 -0.0066  0.2530
  541TIP3    H1 1629   1.979   1.121   3.379  1.1146  0.6583 -0.6403
  541TIP3    H2 1630   1.926   1.260   3.407 -0.0455  0.1199 -0.0914
  542TIP3   OH2 1631   5.383   0.070   0.753 -0.4198 -0.4298  0.0272
  542TIP3    H1 1632   5.429   0.046   0.833 -2.6721 -0.5639  1.3649
  542TIP3    H2 1633   5.368  -0.013   0.708 -0.5583 -0.5446  0.2835
  543TIP3   OH2 1634   1.210   2.369   2.516  0.3762  0.8828 -0.1343
  543TIP3    H1 1635   1.149   2.318   2.568  0.4869 -0.3886 -1.1746
  543TIP3    H2 1636   1.293   2.363   2.562 -0.2698  2.8435  1.4290
  544TIP3   OH2 1637   0.059   0.103   5.138  0.1992 -0.0100  1.3430
  544TIP3    H1 1638   0.094   0.186   5.171 -0.6319  0.5513  0.8464
  544TIP3    H2 1639  -0.035   0.117   5.130 -0.1257 -1.3961  2.3578
  545TIP3   OH2 1640   3.729   4.081   2.313  0.2001  0.8149  0.0608
  545TIP3    H1 1641   3.818   4.105   2.338  0.7370 -0.2616 -0.7584
  545TIP3    H2 1642   3.712   3.999   2.359 -0.1929  0.7665 -0.1657
  546TIP3   OH2 1643   4.378   4.436   2.396 -0.8564 -0.0514  0.2360
  546TIP3    H1 1644   4.435   4.421   2.472  0.5173 -0.2640 -0.7921
  546TIP3    H2 1645   4.294   4.461   2.434  0.9403  4.5633  1.9184
  547TIP3   OH2 1646   3.877   1.919   4.632 -0.0013 -0.3844  0.7611
  547TIP3    H1 1647   3.852   1.870   4.710 -0.0021 -2.3548 -0.3831
  547TIP3    H2 1648   3.811   1.895   4.567  0.2428  0.8582  0.0210
  548TIP3   OH2 1649   4.808   2.427   3.746  0.1060  0.5115 -0.2749
  548TIP3    H1 1650   4.725   2.406   3.789  0.7964  0.7354  1.2248
  548TIP3    H2 1651   4.782   2.465   3.662 -1.2900  0.0732 -0.0728
  549TIP3   OH2 1652   4.900   2.599   4.775  0.2885  0.1268  0.1509
  549TIP3    H1 1653   4.922   2.506   4.767 -1.8448 -0.4057 -0.2565
  549TIP3    H2 1654   4.879   2.627   4.685 -0.7892  0.4999  0.4984
  550TIP3   OH2 1655   1.040   3.961   0.894  0.0120 -0.2799 -0.2504
  550TIP3    H1 1656   1.012   3.911   0.971  1.3935 -0.4553  0.1717
  550TIP3    H2 1657   1.123   3.920   0.868  0.6149  1.0810 -0.5630
  551TIP3   OH2 1658   2.151   3.141   5.022  0.6939 -0.3563 -0.1423
  551TIP3    H1 1659   2.135   3.064   4.968 -0.3856  0.1741 -0.6083
  551TIP3    H2 1660   2.129   3.114   5.111  0.0085 -0.5037 -0.3508
  552TIP3   OH2 1661   2.084   4.530   2.939 -0.0125  0.1198 -0.4840
  552TIP3    H1 1662   2.159   4.502   2.885  1.4203 -1.4420  2.0911
  552TIP3    H2 1663   2.042   4.448   2.966 -1.2214  0.8871  0.0453
  553TIP3   OH2 1664   6.188   0.846   0.505  0.3399 -0.2933 -0.2094
  553TIP3    H1 1665   6.149   0.933   0.518 -0.3511 -0.5108 -0.7453
  553TIP3    H2 1666   6.243   0.832   0.582 -0.4042  0.1691  0.4160
  554TIP3   OH2 1667   5.934   4.434   0.034 -0.0445  0.2967 -0.0815
  554TIP3    H1 1668   5.854   4.457   0.082  0.4083 -0.2262  0.9724
  554TIP3    H2 1669   5.923   4.341   0.013  0.6560 -0.0215  0.8752
  555TIP3   OH2 1670   3.805   1.620   2.206  0.1970  0.2288 -0.5365
  555TIP3    H1 1671   3.870   1.552   2.187 -1.3466 -1.4682  0.0045
  555TIP3    H2 1672   3.766   1.592   2.289 -3.0247 -0.2886 -2.0810
  556TIP3   OH2 1673   3.508   5.056   3.636 -0.0306 -0.1968 -0.5772
  556TIP3    H1 1674   3.482   5.045   3.727  0.3230  0.9502 -0.3116
  556TIP3    H2 1675   3.512   4.968   3.601  0.6642 -0.7278  0.7606
  557TIP3   OH2 1676   0.326   5.778   1.040  0.0254 -0.3045  0.2441
  557TIP3    H1 1677   0.313   5.752   1.131 -2.8643 -1.0275 -0.2728
  557TIP3    H2 1678   0.389   5.850   1.044 -0.3800  0.0083  2.8406
  558TIP3   OH2 1679   0.708   5.446   2.154 -0.0560  0.0751  0.3221
  558TIP3    H1 1680   0.676   5.450   2.064 -0.6956  0.0361  0.5476
  558TIP3    H2 1681   0.776   5.378   2.153 -1.0325 -0.9236  0.1683
  559TIP3   OH2 1682   0.216   2.683   4.056  0.1881  0.0332 -1.0370
  559TIP3    H1 1683   0.215   2.713   3.965  0.4416 -0.1455 -1.0977
  559TIP3    H2 1684   0.208   2.764   4.107  1.3747  0.2728 -1.1909
  560TIP3   OH2 1685   0.298   3.759   2.830  0.3988 -0.3494  0.2028
  560TIP3    H1 1686   0.327   3.850   2.830 -0.3704 -0.0893 -0.5890
  560TIP3    H2 1687   0.210   3.763   2.869  0.9083 -0.9593  1.4802
  561TIP3   OH2 1688   3.489   3.820   0.434 -0.4642  0.0571  0.1190
  561TIP3    H1 1689   3.422   3.877   0.469  0.3492  0.8534  0.4134
  561TIP3    H2 1690   3.538   3.875   0.372  1.8199  0.4665  2.1317
  562TIP3   OH2 1691   6.314   2.561   2.140 -0.6622 -0.4415  0.3071
  562TIP3    H1 1692   6.259   2.525   2.209 -0.4468 -0.9207  0.2302
  562TIP3    H2 1693   6.253   2.609   2.083 -0.7748  0.3631  1.0860
  563TIP3   OH2 1694   0.784   5.524   3.093  0.5624 -0.0391  0.6014
  563TIP3    H1 1695   0.774   5.612   3.128  0.2965  0.0727  0.2440
  563TIP3    H2 1696   0.854   5.532   3.028  0.0252  0.0674  0.0295
  564TIP3   OH2 1697   5.248   2.445   3.780 -0.1690  0.1898 -0.1421
  564TIP3    H1 1698   5.288   2.379   3.837 -0.9832 -0.0819  0.1323
  564TIP3    H2 1699   5.299   2.524   3.795  0.2879 -0.1615  0.1692
  565TIP3   OH2 1700   5.267   4.975   3.124  0.0505  0.0946  0.2219
  565TIP3    H1 1701   5.194   4.915   3.133 -0.5570  0.7305 -0.3284
  565TIP3    H2 1702   5.289   5.001   3.214  0.2351 -0.8289  0.4516
  566TIP3   OH2 1703   1.276   2.802   0.281  0.5394  0.1715 -0.3805
  566TIP3    H1 1704   1.322   2.812   0.364 -1.2643 -0.6563  0.7902
  566TIP3    H2 1705   1.184   2.789   0.305 -0.6729  3.2594 -2.6306
  567TIP3   OH2 1706   2.515   4.238   1.569  0.4622  0.4040 -0.5160
  567TIP3    H1 1707   2.514   4.249   1.474  0.7869  0.0866 -0.5578
  567TIP3    H2 1708   2.605   4.257   1.595  0.8138 -1.1758 -0.4825
  568TIP3   OH2 1709   4.221   2.541   3.172  0.1486 -0.0926 -0.0583
  568TIP3    H1 1710   4.235   2.635   3.158  0.9109 -0.0322  0.9843
  568TIP3    H2 1711   4.191   2.509   3.087  1.7321  0.7467 -0.9933
  569TIP3   OH2 1712   5.765   3.997   2.071  0.0852  0.2879  0.6607
  569TIP3    H1 1713   5.729   3.923   2.021  2.1210 -0.5003  0.2857
  569TIP3    H2 1714   5.767   4.069   2.008  1.4707 -0.3572 -0.0652
  570TIP3   OH2 1715   2.826   3.472   3.704  0.8358 -0.4537  0.0949
  570TIP3    H1 1716   2.878   3.400   3.739 -0.5601  0.0785  3.7471
  570TIP3    H2 1717   2.735   3.447   3.724  0.1386  1.2052 -0.8240
  571TIP3   OH2 1718   3.315   5.712   1.242  0.4049 -0.0521 -0.0421
  571TIP3    H1 1719   3.298   5.708   1.336 -0.3088  0.2086 -0.1585
  571TIP3    H2 1720   3.409   5.733   1.236  0.2961  0.6634  0.6123
  572TIP3   OH2 1721   3.513   3.701   2.188 -0.3532 -0.3462  0.9904
  572TIP3    H1 1722   3.516   3.639   2.261  0.1911  0.4435  1.6442
  572TIP3    H2 1723   3.466   3.777   2.222  0.1021  0.1228  0.5982
  573TIP3   OH2 1724   1.020   1.892   3.702  0.0948  0.3396  0.3271
  573TIP3    H1 1725   1.108   1.883   3.738  0.4078 -0.5670 -0.6281
  573TIP3    H2 1726   0.974   1.946   3.766  0.5696 -1.3259  2.1878
  574TIP3   OH2 1727   0.733   4.444   3.704 -0.2325 -0.3811 -0.2325
  574TIP3    H1 1728   0.671   4.413   3.769 -0.8948 -0.1769 -0.7576
  574TIP3    H2 1729   0.703   4.404   3.622 -0.6719  1.0408 -0.7941
  575TIP3   OH2 1730   4.110   4.579   2.999 -0.1312 -0.5004 -0.0701
  575TIP3    H1 1731   4.190   4.529   3.012  0.3420  0.2647  0.0138
  575TIP3    H2 1732   4.135   4.649   2.939 -0.6567 -0.0587  0.2166
  576TIP3   OH2 1733   6.358   2.930   2.614 -0.2288 -0.3264 -0.2652
  576TIP3    H1 1734   6.289   2.983   2.574  1.2811  2.1761  0.2152
  576TIP3    H2 1735   6.357   2.848   2.564 -5.0586 -1.4898  1.2686
  577TIP3   OH2 1736   0.298   1.650   3.276 -0.2431  0.2825  0.1916
  577TIP3    H1 1737   0.226   1.619   3.220 -0.3079 -0.6701  0.7802
  577TIP3    H2 1738   0.373   1.595   3.251 -0.4125 -0.5256  1.3848
  578TIP3   OH2 1739   3.539   3.508   1.034 -0.4617  0.1803  0.0724
  578TIP3    H1 1740   3.484   3.446   1.081  0.3006  0.2973  1.1549
  578TIP3    H2 1741   3.477   3.563   0.986 -1.2227 -0.3912  0.3767
  579TIP3   OH2 1742   2.328   5.676   3.140  0.3438 -0.6235 -0.3947
  579TIP3    H1 1743   2.393   5.720   3.194  0.1497 -0.6927 -0.0988
  579TIP3    H2 1744   2.374   5.655   3.059  0.4926 -0.0467 -0.4673
  580TIP3   OH2 1745   5.748   3.928   3.991  0.5155 -0.6608 -0.0747
  580TIP3    H1 1746   5.754   3.957   4.082  1.1201  2.0609 -0.8985
  580TIP3    H2 1747   5.661   3.956   3.963  0.6585 -0.7338 -0.5914
  581TIP3   OH2 1748   3.349   2.831   0.768 -0.4715  0.2096 -0.2327
  581TIP3    H1 1749   3.395   2.915   0.756  0.1247 -0.1875 -0.7750
  581TIP3    H2 1750   3.274   2.853   0.822 -0.4538  1.1466 -0.5676
  582TIP3   OH2 1751   5.729   4.882   0.042 -0.2469  0.0796 -0.1015
  582TIP3    H1 1752   5.809   4.926   0.014 -0.0838 -0.5319 -0.6201
  582TIP3    H2 1753   5.737   4.793   0.006 -0.8133 -0.2098  0.4716
  583TIP3   OH2 1754   5.232   1.398   2.345 -0.5449 -0.2599  0.3026
  583TIP3    H1 1755   5.273   1.365   2.265 -0.1363  0.4638  0.1978
  583TIP3    H2 1756   5.253   1.491   2.346 -0.3038 -0.3091  1.4022
  584TIP3   OH2 1757   3.202   1.185   1.713  0.4287 -0.1374 -0.4020
  584TIP3    H1 1758   3.147   1.221   1.783  1.0434 -2.2711  1.2784
  584TIP3    H2 1759   3.214   1.258   1.652  0.3943  2.0521  2.0282
  585TIP3   OH2 1760   6.132   1.153   2.727  0.3102 -0.5264 -0.4048
  585TIP3    H1 1761   6.056   1.209   2.738  0.8456 -0.3022  3.7377
  585TIP3    H2 1762   6.097   1.064   2.732  0.1202 -0.4569 -0.4969
  586TIP3   OH2 1763   3.538   2.170   4.390  0.3159  0.0461 -0.0637
  586TIP3    H1 1764   3.526   2.093   4.445 -0.5606 -0.1655 -0.5449
  586TIP3    H2 1765   3.475   2.160   4.319 -1.3249  2.2076  0.9787
  587TIP3   OH2 1766   3.116   5.351   3.334 -0.2250  0.1057 -0.0079
  587TIP3    H1 1767   3.040   5.305   3.370 -0.4467 -1.6013 -2.4419
  587TIP3    H2 1768   3.191   5.307   3.373 -0.4148  0.9042  1.3470
  588TIP3   OH2 1769   5.003   2.956   5.211  0.3714 -0.1568 -1.1386
  588TIP3    H1 1770   5.001   2.885   5.147  0.8545 -1.3008  0.0679
  588TIP3    H2 1771   4.945   3.023   5.174 -2.4092 -2.3220 -1.0428
  589TIP3   OH2 1772   5.172   4.191   4.008  0.0970  0.4348 -0.3411
  589TIP3    H1 1773   5.169   4.182   3.913  2.5868 -2.9473 -0.3021
  589TIP3    H2 1774   5.085   4.165   4.037  0.0926 -1.1536 -1.6352
  590TIP3   OH2 1775   4.668   4.342   4.487 -0.4260 -0.4534  0.2817
  590TIP3    H1 1776   4.737   4.408   4.493 -1.1762  0.5724 -1.5550
  590TIP3    H2 1777   4.639   4.329   4.578 -0.4459  1.9756  0.6939
  591TIP3   OH2 1778   5.761   0.555   2.649 -0.2803 -0.0461 -0.2280
  591TIP3    H1 1779   5.675   0.592   2.665 -0.7609 -0.9853 -0.5657
  591TIP3    H2 1780   5.780   0.503   2.727 -0.4909 -0.6893 -0.5965
  592TIP3   OH2 1781   4.114   4.793   0.220  0.3237  0.3979  0.0724
  592TIP3    H1 1782   4.108   4.887   0.204  0.5743  0.8336  2.2951
  592TIP3    H2 1783   4.027   4.769   0.252  0.0530 -0.2992 -1.1106
  593TIP3   OH2 1784   5.554   2.186   3.043  0.0560 -0.2463  0.1510
  593TIP3    H1 1785   5.577   2.265   2.995 -2.4726  1.4827  1.5254
  593TIP3    H2 1786   5.492   2.140   2.986 -2.1449  1.2822  1.1591
  594TIP3   OH2 1787   3.618   2.259   4.003  0.1700 -0.1560 -0.2315
  594TIP3    H1 1788   3.679   2.274   4.076 -0.8404  1.0208  0.4074
  594TIP3    H2 1789   3.558   2.192   4.036  0.8147 -0.9928 -0.7007
  595TIP3   OH2 1790   0.506   1.724   5.075 -0.3525  0.2992  0.1717
  595TIP3    H1 1791   0.602   1.717   5.078 -0.4542 -1.7375  0.0604
  595TIP3    H2 1792   0.490   1.817   5.061  1.6580  0.5197 -1.2008
  596TIP3   OH2 1793   3.859   3.985   3.253 -0.0211  0.1746 -0.1588
  596TIP3    H1 1794   3.768   3.958   3.252 -0.3270  0.4947 -4.8770
  596TIP3    H2 1795   3.856   4.081   3.249  0.4031  0.1556 -1.4814
  597TIP3   OH2 1796   3.983   0.238   5.093 -0.0008 -0.4324 -0.1253
  597TIP3    H1 1797   4.017   0.286   5.018 -1.3966  1.6316  0.4818
  597TIP3    H2 1798   3.889   0.236   5.079 -0.0115 -3.1462 -0.1382
  598TIP3   OH2 1799   6.016   3.456   1.774 -0.4196 -0.0192 -0.2947
  598TIP3    H1 1800   5.952   3.406   1.825 -0.0361  0.9934  1.2482
  598TIP3    H2 1801   5.966   3.527   1.735 -0.4645  0.0582 -0.0979
  599TIP3   OH2 1802   1.243   3.328   2.085  0.0697  0.0332 -0.0283
  599TIP3    H1 1803   1.295   3.248   2.093  1.6470  0.9098 -1.0862
  599TIP3    H2 1804   1.248   3.368   2.173  1.1726  0.0718 -0.0908
  600TIP3   OH2 1805   1.235   4.297   0.066  0.1542  0.4488  0.0868
  600TIP3    H1 1806   1.201   4.282  -0.022  0.6261  1.9682 -0.3885
  600TIP3    H2 1807   1.328   4.318   0.054  0.0926  1.2815  0.8617
  601TIP3   OH2 1808   3.018   2.833   3.486 -0.0844 -0.7884  0.0402
  601TIP3    H1 1809   3.091   2.800   3.433  1.6830  2.4339  0.2481
  601TIP3    H2 1810   3.059   2.874   3.561 -2.2182  0.0481  0.8139
  602TIP3   OH2 1811   1.283   4.519   5.001 -0.4973 -0.0386  0.4125
  602TIP3    H1 1812   1.201   4.565   4.982  0.0578  1.1842  0.9083
  602TIP3    H2 1813   1.255   4.438   5.044 -1.4548  0.2809  0.4165
  603TIP3   OH2 1814   3.598  -0.025   1.944  0.0148  0.4846  0.1026
  603TIP3    H1 1815   3.596   0.071   1.939  1.5367  0.5803  0.7880
  603TIP3    H2 1816   3.643  -0.044   2.026  0.8548 -0.8030 -0.6287
  604TIP3   OH2 1817   6.378   1.985   2.752  0.6812  0.2333  0.0165
  604TIP3    H1 1818   6.324   1.957   2.826 -0.1066  1.3111 -0.1243
  604TIP3    H2 1819   6.348   1.930   2.679 -0.0731  0.6487 -0.0021
  605TIP3   OH2 1820   2.652   0.264   2.469 -0.0562 -0.0369 -0.0303
  605TIP3    H1 1821   2.697   0.187   2.501  2.7574  0.2294 -2.7736
  605TIP3    H2 1822   2.590   0.231   2.403 -1.1644 -0.1024  1.0023
  606TIP3   OH2 1823   0.522   3.821   4.296 -0.0997  0.0185  1.2569
  606TIP3    H1 1824   0.509   3.727   4.306  1.2185 -0.2802  0.4138
  606TIP3    H2 1825   0.436   3.855   4.272 -0.5024 -1.0251  1.1646
  607TIP3   OH2 1826   5.431   4.578   1.994 -0.1838  0.2271  0.1798
  607TIP3    H1 1827   5.512   4.593   2.043 -2.1391  3.5064  2.8150
  607TIP3    H2 1828   5.421   4.657   1.940 -1.5241 -0.2223 -0.2738
  608TIP3   OH2 1829   6.313   4.693   4.048  0.0323  0.0507 -0.3385
  608TIP3    H1 1830   6.350   4.696   3.960  2.7743 -1.3067  0.6677
  608TIP3    H2 1831   6.373   4.745   4.101  0.0121 -1.4642  1.2269
  609TIP3   OH2 1832   3.866   1.720   3.225 -0.0607 -0.4466 -0.7215
  609TIP3    H1 1833   3.862   1.691   3.134  1.5674 -1.1931 -0.5885
  609TIP3    H2 1834   3.814   1.655   3.273 -1.9102  0.5908 -1.2076
  610TIP3   OH2 1835   5.232   3.514   4.228 -0.7037  0.1288  0.2198
  610TIP3    H1 1836   5.211   3.562   4.148  0.1199 -0.1621 -0.1826
  610TIP3    H2 1837   5.324   3.491   4.218 -0.8484 -0.7285  0.8315
  611TIP3   OH2 1838   6.157   4.684   4.346  0.1857 -0.2480 -0.5721
  611TIP3    H1 1839   6.181   4.678   4.254  1.0194 -1.4142 -0.3102
  611TIP3    H2 1840   6.189   4.770   4.374  0.6660 -0.2237 -1.1703
  612TIP3   OH2 1841   5.693   1.149   4.278  0.3523  0.0973  0.1666
  612TIP3    H1 1842   5.653   1.192   4.353  1.7920 -1.2197  1.8065
  612TIP3    H2 1843   5.737   1.072   4.316  0.6450 -0.9509 -2.1247
  613TIP3   OH2 1844   0.864   4.870   1.499  0.0832 -0.1297 -0.4052
  613TIP3    H1 1845   0.886   4.891   1.590 -0.1678  0.5123 -0.4900
  613TIP3    H2 1846   0.948   4.856   1.456  0.3636  1.9940 -0.6542
  614TIP3   OH2 1847   0.736   3.195   1.280 -0.5490  0.6729  0.5238
  614TIP3    H1 1848   0.677   3.269   1.296 -1.5030  0.5478 -2.0078
  614TIP3    H2 1849   0.683   3.133   1.231  1.3942  0.0628 -0.9073
  615TIP3   OH2 1850   5.775   4.426   0.967  0.5152  0.3834  0.4788
  615TIP3    H1 1851   5.708   4.472   0.916  0.7036  0.2597  0.1120
  615TIP3    H2 1852   5.857   4.465   0.938  0.6413  0.1474  0.5172
  616TIP3   OH2 1853   1.961   0.276   4.093  0.1198 -0.4050  0.1416
  616TIP3    H1 1854   1.947   0.357   4.046  0.3835 -0.3004  0.2383
  616TIP3    H2 1855   1.907   0.284   4.172  0.5684 -0.0887  0.4194
  617TIP3   OH2 1856   0.002   5.831   0.510  0.0892 -0.5621 -0.1077
  617TIP3    H1 1857  -0.000   5.745   0.467 -0.8605 -0.8093  0.4071
  617TIP3    H2 1858   0.055   5.816   0.588 -1.4287 -1.1234  0.8526
  618TIP3   OH2 1859   2.397   5.914   4.759 -0.0664 -0.2338  0.2733
  618TIP3    H1 1860   2.447   5.982   4.804  0.3367  0.7715 -1.6055
  618TIP3    H2 1861   2.450   5.891   4.683 -1.1536 -1.1988 -0.2262
  619TIP3   OH2 1862   3.399   3.705   0.859  0.4231  0.0651 -0.5227
  619TIP3    H1 1863   3.476   3.753   0.828 -1.1976  2.1836 -1.5150
  619TIP3    H2 1864   3.367   3.659   0.782 -1.2104  1.9944 -1.0974
  620TIP3   OH2 1865   1.423   5.119   0.982 -0.1705 -0.1958 -0.0316
  620TIP3    H1 1866   1.442   5.028   1.006  0.3224 -0.1183 -0.1063
  620TIP3    H2 1867   1.343   5.140   1.029 -1.0032 -1.0734 -1.0081
  621TIP3   OH2 1868   3.121   4.575   2.768  0.0260 -0.4116 -0.4923
  621TIP3    H1 1869   3.041   4.567   2.715 -0.0323  1.3906 -0.7356
  621TIP3    H2 1870   3.169   4.494   2.751 -1.9408 -1.7483  0.0304
  622TIP3   OH2 1871   3.500   5.639   1.683  0.3494 -0.4428 -0.4676
  622TIP3    H1 1872   3.557   5.660   1.757 -1.8418 -1.2321  1.5524
  622TIP3    H2 1873   3.527   5.551   1.656 -0.0180 -0.8979  0.6093
  623TIP3   OH2 1874   0.625   3.005   5.115 -0.5857  0.0310  0.7358
  623TIP3    H1 1875   0.691   3.011   5.183  0.9067 -2.1937 -0.4003
  623TIP3    H2 1876   0.662   3.052   5.041  0.6457 -2.6584 -0.4829
  624TIP3   OH2 1877   5.630   0.806   1.409 -0.9309 -0.4473 -0.3559
  624TIP3    H1 1878   5.723   0.814   1.387 -1.6957  0.0742 -4.2081
  624TIP3    H2 1879   5.595   0.745   1.344 -3.5296  0.4739  0.0463
  625TIP3   OH2 1880   4.040   3.907   1.149  0.0136 -0.4450  0.3271
  625TIP3    H1 1881   3.997   3.848   1.087  0.0630 -1.2650  1.0680
  625TIP3    H2 1882   4.130   3.914   1.116 -0.6534  1.4914 -1.3854
  626TIP3   OH2 1883   4.744   4.384   2.878 -0.5079  0.2691 -0.4114
  626TIP3    H1 1884   4.819   4.404   2.822  0.0469 -1.3793 -0.2841
  626TIP3    H2 1885   4.685   4.333   2.823 -1.7059  1.7774 -0.5964
  627TIP3   OH2 1886   5.835   4.094   0.697  0.1087 -0.2481  1.0360
  627TIP3    H1 1887   5.898   4.032   0.659  1.4260  0.8059  1.4115
  627TIP3    H2 1888   5.835   4.074   0.791  1.9997  1.4845  1.4729
  628TIP3   OH2 1889   1.947   1.194   2.998  0.2428  0.9066 -0.0703
  628TIP3    H1 1890   2.000   1.267   2.966  1.3947  0.4143  0.6795
  628TIP3    H2 1891   1.987   1.169   3.081 -0.6988  0.0129  0.1356
  629TIP3   OH2 1892   4.331   2.577   2.395  0.4094  0.1286 -0.5116
  629TIP3    H1 1893   4.363   2.527   2.321  0.0074 -1.4932  0.3740
  629TIP3    H2 1894   4.248   2.614   2.365  0.3951 -0.2669 -0.9597
  630TIP3   OH2 1895   4.731   2.260   2.509 -0.5408 -0.2161 -0.1825
  630TIP3    H1 1896   4.748   2.349   2.478 -0.7269 -0.0964  0.0477
  630TIP3    H2 1897   4.671   2.272   2.583  0.5267 -0.4186  0.7472
  631TIP3   OH2 1898   2.098   2.552   0.797 -0.1956 -0.8643  0.5433
  631TIP3    H1 1899   2.040   2.485   0.832 -0.0082 -1.1421  0.3265
  631TIP3    H2 1900   2.077   2.556   0.704 -1.3274  0.5144  0.8272
  632TIP3   OH2 1901   1.692   2.769   3.582 -0.2633 -0.4032 -0.1908
  632TIP3    H1 1902   1.627   2.787   3.650 -0.1202  1.0594 -0.4089
  632TIP3    H2 1903   1.703   2.674   3.584 -0.9212 -0.4761  1.2218
  633TIP3   OH2 1904   3.172   4.919   0.313  0.3029  0.1846  0.1867
  633TIP3    H1 1905   3.222   4.838   0.316  0.0977  0.0325 -0.3670
  633TIP3    H2 1906   3.222   4.980   0.368  2.2064  0.6324 -1.8639
  634TIP3   OH2 1907   2.587   3.230   1.184  0.0027  0.3298 -0.6968
  634TIP3    H1 1908   2.676   3.263   1.200  0.5898 -0.5791 -1.9138
  634TIP3    H2 1909   2.563   3.186   1.265  0.2087  1.5089  0.0389
  635TIP3   OH2 1910   3.269   1.854   1.465  0.2585  0.1112 -0.1268
  635TIP3    H1 1911   3.273   1.934   1.517  0.2190  0.0761 -0.0693
  635TIP3    H2 1912   3.358   1.844   1.430  0.5568 -0.3903  0.7406
  636TIP3   OH2 1913   4.519   5.353   4.174  0.0770 -0.3400 -0.0316
  636TIP3    H1 1914   4.511   5.302   4.093  2.0074 -0.8402  0.0395
  636TIP3    H2 1915   4.553   5.437   4.146  1.9081 -0.9197  0.3233
  637TIP3   OH2 1916   3.244   0.488   0.080 -0.6093  0.3035  0.2164
  637TIP3    H1 1917   3.318   0.427   0.073  0.0412  1.2663 -2.3779
  637TIP3    H2 1918   3.209   0.472   0.168  0.8951 -2.1999  0.4853
  638TIP3   OH2 1919   3.141   4.238   2.210  0.0591  0.2144 -0.1560
  638TIP3    H1 1920   3.121   4.331   2.205 -1.2909 -0.0822 -0.8158
  638TIP3    H2 1921   3.236   4.234   2.219  0.3060  1.6202 -1.6821
  639TIP3   OH2 1922   3.534   3.306   1.374  0.0840 -0.2934 -0.4221
  639TIP3    H1 1923   3.553   3.379   1.432  1.1717 -1.1952  0.3995
  639TIP3    H2 1924   3.609   3.247   1.384 -1.3474 -2.1515 -0.0397
  640TIP3   OH2 1925   4.622   4.072   2.299 -0.0472  0.0121 -1.3290
  640TIP3    H1 1926   4.631   4.150   2.355  0.1474 -0.0633 -1.2539
  640TIP3    H2 1927   4.696   4.017   2.324 -0.6677 -0.5864 -0.7679
  641TIP3   OH2 1928   3.842   5.066   4.312 -0.1192  0.4238 -0.1268
  641TIP3    H1 1929   3.858   4.983   4.268  0.4840  1.4269 -1.8813
  641TIP3    H2 1930   3.829   5.042   4.404 -0.9336 -1.6901 -0.7291
  642TIP3   OH2 1931   4.680   0.738   4.822 -0.4478 -0.2521  0.0108
  642TIP3    H1 1932   4.687   0.743   4.918 -1.7516 -1.7382  0.2296
  642TIP3    H2 1933   4.680   0.644   4.803 -0.8792  0.0025 -1.3873
  643TIP3   OH2 1934   6.164   2.354   0.438 -0.4544  0.2267 -0.4690
  643TIP3    H1 1935   6.178   2.294   0.512 -2.7039 -1.2290 -1.1413
  643TIP3    H2 1936   6.091   2.409   0.465 -0.4983  0.5046 -1.1377
  644TIP3   OH2 1937   0.423   5.197   4.061  0.5446  0.2197 -0.1862
  644TIP3    H1 1938   0.444   5.151   4.142 -0.7795  0.9559  0.5962
  644TIP3    H2 1939   0.495   5.259   4.050  1.3416 -0.6869 -0.2257
  645TIP3   OH2 1940   1.408   4.004   2.629  0.7261 -0.3991 -0.5455
  645TIP3    H1 1941   1.494   4.035   2.657  0.6088 -0.5624 -0.0022
  645TIP3    H2 1942   1.426   3.933   2.568  0.9787 -0.1267 -0.7921
  646TIP3   OH2 1943   6.214   3.071   3.264 -0.4970 -0.2090 -0.0370
  646TIP3    H1 1944   6.155   3.139   3.294  0.7329  1.1693 -0.6458
  646TIP3    H2 1945   6.281   3.117   3.212  0.0930 -1.9210 -0.8897
  647TIP3   OH2 1946   5.172   2.332   2.533 -0.7568  0.0621  0.1037
  647TIP3    H1 1947   5.160   2.264   2.467  1.2926 -0.1786 -0.0793
  647TIP3    H2 1948   5.159   2.287   2.617  1.3421 -0.8116  0.0234
  648TIP3   OH2 1949   4.406   0.835   2.944  0.3099 -0.1292 -0.5681
  648TIP3    H1 1950   4.490   0.857   2.985 -0.0482 -0.2417  0.2504
  648TIP3    H2 1951   4.359   0.918   2.941 -0.3138 -0.4070  0.8089
  649TIP3   OH2 1952   6.229   3.364   0.888  0.2623  0.2469 -0.1783
  649TIP3    H1 1953   6.147   3.406   0.865 -0.3777 -0.3065  1.0175
  649TIP3    H2 1954   6.235   3.373   0.984  1.2002 -0.4038 -0.1598
  650TIP3   OH2 1955   4.808   4.592   4.533 -0.3470 -0.3262 -0.0344
  650TIP3    H1 1956   4.815   4.641   4.451 -1.5851  0.9151  0.5765
  650TIP3    H2 1957   4.784   4.657   4.598 -0.0330 -1.4131  1.2010
  651TIP3   OH2 1958   1.367   2.554   3.854  0.1025 -0.4581 -0.5491
  651TIP3    H1 1959   1.416   2.481   3.890  0.3272 -0.1957 -0.3207
  651TIP3    H2 1960   1.312   2.584   3.926  0.7225  0.2164 -0.3429
  652TIP3   OH2 1961   1.199   2.908   3.774 -0.4229 -0.1607  0.3086
  652TIP3    H1 1962   1.194   2.918   3.869 -1.3513  0.3778  0.2244
  652TIP3    H2 1963   1.141   2.977   3.740 -1.8168 -1.6769 -0.5721
  653TIP3   OH2 1964   0.165   4.957   2.981  0.5249  0.0353 -0.2422
  653TIP3    H1 1965   0.179   4.862   2.979 -0.5399 -0.1456 -1.9845
  653TIP3    H2 1966   0.176   4.984   2.890 -1.9276  1.1119 -0.2853
  654TIP3   OH2 1967   0.537   4.558   4.990  0.4684 -0.3826 -0.1438
  654TIP3    H1 1968   0.454   4.605   4.991  1.3291  1.2122  0.3326
  654TIP3    H2 1969   0.513   4.465   4.991 -1.3287 -0.0344 -2.3501
  655TIP3   OH2 1970   4.745   0.340   3.357  0.5568  0.2510  0.1921
  655TIP3    H1 1971   4.683   0.412   3.356 -0.6005 -0.7027  0.6821
  655TIP3    H2 1972   4.714   0.280   3.289  0.9416 -0.2455  0.4464
  656TIP3   OH2 1973   1.234   3.825   3.802 -0.3178 -0.3093 -0.0278
  656TIP3    H1 1974   1.156   3.874   3.828 -0.8208 -0.9899 -0.2461
  656TIP3    H2 1975   1.201   3.745   3.762  0.4608  0.1059 -1.5825
  657TIP3   OH2 1976   3.122   4.764   3.920  0.4234 -0.3926  0.6664
  657TIP3    H1 1977   3.117   4.826   3.848 -0.3937 -0.5755  0.5522
  657TIP3    H2 1978   3.215   4.757   3.940  0.7716 -1.0854 -1.0328
  658TIP3   OH2 1979   5.706   5.303   0.675 -0.0409 -0.3026 -0.2740
  658TIP3    H1 1980   5.644   5.374   0.663 -0.7742  0.0111  3.8825
  658TIP3    H2 1981   5.767   5.335   0.743  0.2815 -3.1481  0.9523
  659TIP3   OH2 1982   0.950   1.351   4.473 -0.2807 -0.5544  0.0412
  659TIP3    H1 1983   0.994   1.266   4.466  0.2964 -0.4478  1.9265
  659TIP3    H2 1984   0.905   1.348   4.557  0.5916  1.3885  0.6299
  660TIP3   OH2 1985   0.737   0.789   3.335 -0.2033 -0.0141 -0.0877
  660TIP3    H1 1986   0.822   0.753   3.308 -0.6203 -0.2239 -1.1449
  660TIP3    H2 1987   0.756   0.833   3.418  0.9652  0.0509 -0.3635
  661TIP3   OH2 1988   4.477   1.046   2.388  0.2048 -0.0586 -0.0076
  661TIP3    H1 1989   4.558   1.018   2.346 -0.9508 -2.5310 -0.7198
  661TIP3    H2 1990   4.503   1.069   2.477  2.3291  3.2425 -1.2869
  662TIP3   OH2 1991   3.568   5.302   0.346 -0.1484  0.8080  0.0962
  662TIP3    H1 1992   3.640   5.338   0.399  0.2734  0.8240 -0.4830
  662TIP3    H2 1993   3.529   5.379   0.304 -0.6949  0.8333  0.6276
  663TIP3   OH2 1994   3.370   4.236   1.555 -0.1630 -1.1916  0.2276
  663TIP3    H1 1995   3.420   4.314   1.578 -2.6382  0.2565  0.9325
  663TIP3    H2 1996   3.281   4.253   1.585 -1.1356 -3.7014 -0.9001
  664TIP3   OH2 1997   2.964   2.143   3.768 -0.0846  0.0130  0.2095
  664TIP3    H1 1998   2.955   2.233   3.798  1.3948  0.6095 -0.9801
  664TIP3    H2 1999   2.890   2.130   3.709 -0.1703  0.5494  0.1932
  665TIP3   OH2 2000   6.344   2.498   3.303 -0.5345 -0.0862 -0.0198
  665TIP3    H1 2001   6.424   2.526   3.260 -0.0763  0.5570  1.2170
  665TIP3    H2 2002   6.277   2.560   3.273 -0.0252  0.9223  0.8809
  666TIP3   OH2 2003   2.948   3.788   2.930  0.2183  0.0557 -0.1004
  666TIP3    H1 2004   2.869   3.736   2.944 -0.4559  0.6384 -1.5251
  666TIP3    H2 2005   3.004   3.732   2.876  0.7845 -0.3354  0.8619
  667TIP3   OH2 2006   3.893   2.101   1.443  0.4509 -0.4356  0.2247
  667TIP3    H1 2007   3.873   2.102   1.350  0.0767  1.1472  0.2843
  667TIP3    H2 2008   3.964   2.037   1.453  0.1384 -0.9956 -1.0539
  668TIP3   OH2 2009   4.662   1.432   1.370  0.0434  0.5842 -0.1173
  668TIP3    H1 2010   4.571   1.406   1.356  0.2332 -0.1916  0.0133
  668TIP3    H2 2011   4.693   1.460   1.284 -0.2879  0.7595 -0.1800
  669TIP3   OH2 2012   0.758   3.869   4.409 -0.2403  0.2525  0.4065
  669TIP3    H1 2013   0.672   3.848   4.373 -0.1553 -0.8273  0.7985
  669TIP3    H2 2014   0.741   3.892   4.500 -0.2878  1.6449  0.0782
  670TIP3   OH2 2015   3.419   2.675   0.040 -0.1399  0.0735 -0.1255
  670TIP3    H1 2016   3.448   2.584   0.035  1.3362  0.5021  0.0271
  670TIP3    H2 2017   3.424   2.697   0.133  0.0348  0.4592 -0.2214
  671TIP3   OH2 2018   0.776   2.308   1.054 -0.7949  0.2221  0.2128
  671TIP3    H1 2019   0.775   2.370   1.127 -2.0248  0.3152  0.1315
  671TIP3    H2 2020   0.705   2.336   0.997  0.4412  0.4445 -1.2991
  672TIP3   OH2 2021   5.261   5.990   3.409 -0.5475  0.1319  0.3491
  672TIP3    H1 2022   5.172   5.957   3.404  0.3628 -2.4540 -0.2231
  672TIP3    H2 2023   5.269   6.022   3.499 -1.4020 -1.6963  1.1237
  673TIP3   OH2 2024   0.507   2.164   4.926 -0.5416 -0.0215 -0.2328
  673TIP3    H1 2025   0.455   2.104   4.979  1.9241 -0.4532  1.8514
  673TIP3    H2 2026   0.536   2.112   4.851  1.0198 -1.3214  1.2162
  674TIP3   OH2 2027   1.651   5.468   0.386 -0.8581  0.2580  0.2068
  674TIP3    H1 2028   1.599   5.460   0.306 -0.1779  1.4447 -0.3696
  674TIP3    H2 2029   1.683   5.379   0.403 -1.0812 -0.0193 -0.7961
  675TIP3   OH2 2030   4.826   5.278   2.915  0.2982 -0.1973 -0.4069
  675TIP3    H1 2031   4.890   5.349   2.918 -0.7790  0.8619 -1.5580
  675TIP3    H2 2032   4.871   5.204   2.957  1.7199  0.9229  0.1428
  676TIP3   OH2 2033   0.355   2.698   1.830 -0.1712  0.2025  0.6069
  676TIP3    H1 2034   0.393   2.643   1.898 -0.0961 -1.9327 -1.0587
  676TIP3    H2 2035   0.264   2.711   1.858 -0.4326 -1.5130  0.6252
  677TIP3   OH2 2036   3.815   3.514   4.583  0.6909  0.6148 -0.3206
  677TIP3    H1 2037   3.876   3.447   4.615 -0.0736  1.0702  2.3059
  677TIP3    H2 2038   3.736   3.465   4.560  0.6984  0.4302  0.0351
  678TIP3   OH2 2039   2.607   1.919   4.660  0.3439 -0.0067  0.2082
  678TIP3    H1 2040   2.626   1.829   4.686 -0.3293  0.1687  1.3598
  678TIP3    H2 2041   2.608   1.917   4.564  1.1832 -1.0477  0.2247
  679TIP3   OH2 2042   3.747   5.204   1.809 -0.2243 -0.5672  0.6115
  679TIP3    H1 2043   3.671   5.260   1.796 -0.5631 -1.6344 -3.6860
  679TIP3    H2 2044   3.709   5.120   1.837 -0.3585 -0.4244  0.8657
  680TIP3   OH2 2045   3.478   5.427   3.356 -0.7578  0.2620 -0.1732
  680TIP3    H1 2046   3.429   5.348   3.376 -0.4516  0.3972  1.2466
  680TIP3    H2 2047   3.562   5.396   3.322 -0.6990 -0.0363  0.2311
  681TIP3   OH2 2048   5.201   2.860   3.176 -0.0150 -0.2674  0.2942
  681TIP3    H1 2049   5.277   2.890   3.225 -0.5078 -1.0097  1.5669
  681TIP3    H2 2050   5.192   2.768   3.200 -0.3599 -0.6317 -1.1189
  682TIP3   OH2 2051   3.976   4.580   4.409  0.0599 -0.1093 -0.2907
  682TIP3    H1 2052   3.911   4.575   4.479  0.8856 -1.8523  0.4239
  682TIP3    H2 2053   4.060   4.567   4.453  0.7446  0.3147 -1.4128
  683TIP3   OH2 2054   2.974   3.270   0.767 -0.5819  0.2320 -0.1032
  683TIP3    H1 2055   3.054   3.283   0.716 -0.0828 -0.4708  0.4852
  683TIP3    H2 2056   3.001   3.216   0.841 -1.8291 -0.9747 -0.4917
  684TIP3   OH2 2057   2.995   0.033   3.900  0.1810  0.1964 -0.4843
  684TIP3    H1 2058   3.059  -0.032   3.929 -1.2163 -0.4517  1.3158
  684TIP3    H2 2059   3.048   0.103   3.861  1.8077 -1.3221 -1.0965
  685TIP3   OH2 2060   2.487   2.953   2.746  0.0914 -0.6658  0.2449
  685TIP3    H1 2061   2.505   2.860   2.759 -1.8165 -1.4338 -1.8455
  685TIP3    H2 2062   2.573   2.994   2.745  1.0483 -2.5352  0.3787
  686TIP3   OH2 2063   6.261   4.855   0.529 -0.1346  0.2263  0.2589
  686TIP3    H1 2064   6.175   4.859   0.486 -0.6342 -1.6624  0.9887
  686TIP3    H2 2065   6.283   4.946   0.548 -1.1666  0.8904 -1.4875
  687TIP3   OH2 2066   5.803   0.089   0.942  0.6822 -0.6525 -0.3989
  687TIP3    H1 2067   5.736   0.056   1.002  1.6772 -2.8663 -0.4081
  687TIP3    H2 2068   5.770   0.174   0.915 -1.1789 -0.8205  1.0809
  688TIP3   OH2 2069   1.076   4.880   4.564 -0.3560  0.1066  0.6763
  688TIP3    H1 2070   1.097   4.804   4.511  1.5361  0.6552  0.5843
  688TIP3    H2 2071   0.991   4.910   4.531 -0.0784 -0.6424 -0.7646
  689TIP3   OH2 2072   3.560   2.457   1.955  0.2892 -0.2682 -0.0039
  689TIP3    H1 2073   3.502   2.532   1.969  0.1894 -0.5168  0.9465
  689TIP3    H2 2074   3.617   2.456   2.032  0.8907 -0.6398 -0.4416
  690TIP3   OH2 2075   2.295   0.059   4.201 -0.0271 -0.1225  0.5335
  690TIP3    H1 2076   2.263   0.139   4.242  0.9898  0.1957  0.7495
  690TIP3    H2 2077   2.371   0.034   4.253  0.0853 -0.8336  0.0434
  691TIP3   OH2 2078   5.829   1.193   0.158 -0.2071 -0.5528 -0.2183
  691TIP3    H1 2079   5.837   1.173   0.065  2.3478 -0.0937 -0.1495
  691TIP3    H2 2080   5.883   1.271   0.172 -1.0789 -0.1947  1.5462
  692TIP3   OH2 2081   0.314   4.274   3.006  0.3870  0.3858  0.0078
  692TIP3    H1 2082   0.219   4.261   3.006  0.2328  1.3801 -0.4084
  692TIP3    H2 2083   0.338   4.275   2.914  0.9952 -0.9775  0.1200
  693TIP3   OH2 2084   3.803   3.857   4.815  0.5900 -0.0710 -0.2334
  693TIP3    H1 2085   3.790   3.949   4.794  1.9683  0.1541 -0.1750
  693TIP3    H2 2086   3.758   3.845   4.899  0.5428  0.5769 -0.1623
  694TIP3   OH2 2087   0.073   0.694   5.035  0.2911  0.5857 -0.6663
  694TIP3    H1 2088   0.116   0.628   5.089  0.7152  0.6219 -0.9562
  694TIP3    H2 2089   0.037   0.756   5.098  2.0118  1.3994 -0.4430
  695TIP3   OH2 2090   5.121   4.338   2.384 -0.1855  0.2482  0.0872
  695TIP3    H1 2091   5.182   4.264   2.390  0.0525  0.5592  2.4832
  695TIP3    H2 2092   5.049   4.306   2.331  0.8625 -0.9967 -0.6404
  696TIP3   OH2 2093   1.696   5.748   3.450  0.2326  0.4866  0.2080
  696TIP3    H1 2094   1.672   5.685   3.518  0.2292  0.9101  0.5991
  696TIP3    H2 2095   1.761   5.702   3.398 -0.5159 -0.2229 -0.1314
  697TIP3   OH2 2096   4.682   5.171   3.699 -0.2491 -0.0776 -0.4012
  697TIP3    H1 2097   4.602   5.199   3.653 -0.4578  1.8717  1.0043
  697TIP3    H2 2098   4.656   5.092   3.746 -0.3187 -1.5115 -2.6883
  698TIP3   OH2 2099   2.738   5.724   2.213  0.3449 -0.7459  0.6089
  698TIP3    H1 2100   2.710   5.676   2.291 -0.8936 -1.2680 -0.1251
  698TIP3    H2 2101   2.656   5.744   2.167  1.1210 -1.6307 -1.2420
  699TIP3   OH2 2102   0.200   0.473   3.091 -0.5853 -0.0295  0.4903
  699TIP3    H1 2103   0.247   0.550   3.058 -1.2928  0.5962  0.9091
  699TIP3    H2 2104   0.108   0.492   3.074 -0.6518 -1.9449 -1.8226
  700TIP3   OH2 2105   1.155   0.460   4.384  0.0443 -0.6093 -0.0597
  700TIP3    H1 2106   1.146   0.442   4.478 -0.9883  2.2424  0.4782
  700TIP3    H2 2107   1.241   0.424   4.361  1.0204 -0.0056  2.3413
  701TIP3   OH2 2108   1.981   3.789   3.817 -0.3014 -0.5680  0.2359
  701TIP3    H1 2109   2.073   3.816   3.824 -0.0029 -1.7020  0.9830
  701TIP3    H2 2110   1.973   3.754   3.728 -0.2540  0.3294 -0.1373
  702TIP3   OH2 2111   2.238   5.743   0.733 -0.3459 -0.0967 -0.0247
  702TIP3    H1 2112   2.250   5.799   0.810  0.3255  2.6767 -1.9707
  702TIP3    H2 2113   2.326   5.733   0.697 -0.9786  1.7379 -2.3288
  703TIP3   OH2 2114   3.728   1.063   0.232 -0.4021 -0.2862 -0.3351
  703TIP3    H1 2115   3.764   1.151   0.219 -2.2307  0.4534 -0.6655
  703TIP3    H2 2116   3.775   1.029   0.308  1.8908  0.0848 -1.4848
  704TIP3   OH2 2117   5.297   4.641   5.103 -0.5900  0.2119  0.1399
  704TIP3    H1 2118   5.303   4.729   5.066 -1.0496 -0.1240 -0.7676
  704TIP3    H2 2119   5.358   4.642   5.177 -1.1662  1.5286  0.6393
  705TIP3   OH2 2120   1.795   3.521   0.140 -0.1199  0.5530  0.2596
  705TIP3    H1 2121   1.755   3.471   0.069  1.4538  2.0178 -1.7533
  705TIP3    H2 2122   1.808   3.456   0.209 -0.2361 -1.3191 -1.3747
  706TIP3   OH2 2123   4.434   4.705   4.547 -0.2816 -0.0665 -0.3416
  706TIP3    H1 2124   4.382   4.783   4.532 -1.8904 -0.8066  1.1506
  706TIP3    H2 2125   4.499   4.731   4.613 -1.5804 -0.2547  1.0611
  707TIP3   OH2 2126   3.735   3.687   0.916  0.2365  0.6795 -0.2325
  707TIP3    H1 2127   3.684   3.655   0.990 -2.2870 -1.3868 -2.6407
  707TIP3    H2 2128   3.674   3.744   0.869  1.5457  1.3889 -1.1166
  708TIP3   OH2 2129   5.307   2.287   3.465  0.4923 -0.0143 -0.2083
  708TIP3    H1 2130   5.318   2.366   3.518  0.3613 -0.0485 -0.1273
  708TIP3    H2 2131   5.276   2.320   3.380 -2.5458 -0.1142  0.7199
  709TIP3   OH2 2132   3.010   1.049   0.179 -0.2218 -0.1704 -0.0235
  709TIP3    H1 2133   2.925   1.082   0.149  0.7601  1.4492 -1.1695
  709TIP3    H2 2134   2.990   0.999   0.258 -2.3225 -0.4553 -0.6707
  710TIP3   OH2 2135   1.581   1.478   3.323  0.1450 -0.0969 -0.1305
  710TIP3    H1 2136   1.616   1.474   3.234 -2.3585 -1.5486 -1.1686
  710TIP3    H2 2137   1.523   1.554   3.322 -0.1294 -0.2988  0.1618
  711TIP3   OH2 2138   4.586   4.778   0.398 -0.1490 -0.2638  0.3498
  711TIP3    H1 2139   4.533   4.808   0.324 -2.7855 -0.3923  2.0547
  711TIP3    H2 2140   4.562   4.687   0.409  0.4395 -0.3228  1.1926
  712TIP3   OH2 2141   1.823   5.783   1.171  0.0715  0.3232 -0.3384
  712TIP3    H1 2142   1.861   5.706   1.129 -0.5312  0.0542 -0.4134
  712TIP3    H2 2143   1.864   5.786   1.258 -0.8702 -0.8855  0.1821
  713TIP3   OH2 2144   4.603   2.096   2.029  0.4868  0.0953  0.2308
  713TIP3    H1 2145   4.612   2.176   1.977 -2.2665  0.2696 -0.1191
  713TIP3    H2 2146   4.640   2.119   2.114 -1.4721  2.3064  0.5994
  714TIP3   OH2 2147   4.551   5.856   1.907  0.5140  0.4686  0.9523
  714TIP3    H1 2148   4.626   5.819   1.954 -0.7652  0.0356  2.7760
  714TIP3    H2 2149   4.474   5.825   1.956 -0.9318  0.1983 -1.3088
  715TIP3   OH2 2150   5.191   5.441   0.963  0.5839 -0.2859  0.3023
  715TIP3    H1 2151   5.215   5.348   0.969 -1.7724 -1.0307 -0.6037
  715TIP3    H2 2152   5.095   5.440   0.959  0.5669  1.9322 -3.1923
  716TIP3   OH2 2153   3.576   3.173   0.277 -0.6076 -0.9657 -0.1830
  716TIP3    H1 2154   3.547   3.084   0.295  0.1910 -0.9347  1.3718
  716TIP3    H2 2155   3.612   3.205   0.360 -0.1715  0.5338 -0.9050
  717TIP3   OH2 2156   6.038   3.314   1.117  0.3675 -0.2306 -0.5922
  717TIP3    H1 2157   5.948   3.286   1.133 -0.4689  3.1489  1.7376
  717TIP3    H2 2158   6.086   3.284   1.194  1.4255 -2.2709 -1.9571
  718TIP3   OH2 2159   4.692   3.189   0.225  0.5066 -0.4186  0.4985
  718TIP3    H1 2160   4.638   3.111   0.240  0.8779 -0.4251  1.8989
  718TIP3    H2 2161   4.653   3.229   0.147  1.5214 -3.0264 -1.4868
  719TIP3   OH2 2162   5.995   2.765   2.146 -0.1003 -0.2603 -0.0741
  719TIP3    H1 2163   6.000   2.858   2.168  0.2656 -0.3597  0.2740
  719TIP3    H2 2164   5.950   2.725   2.220 -0.7276 -0.2861 -0.4622
  720TIP3   OH2 2165   1.341   5.479   2.451  0.2815  0.3184 -0.2305
  720TIP3    H1 2166   1.408   5.507   2.514 -0.5270  2.6315 -0.3130
  720TIP3    H2 2167   1.273   5.546   2.457 -0.3341  0.0164 -2.8085
  721TIP3   OH2 2168   3.369   0.301   1.798 -0.6898 -0.4839  0.0353
  721TIP3    H1 2169   3.320   0.310   1.879 -1.2889 -0.8031 -0.2823
  721TIP3    H2 2170   3.392   0.208   1.793  0.8388 -0.1766  0.6736
  722TIP3   OH2 2171   4.057   3.777   2.454 -0.0250  0.0814 -0.0872
  722TIP3    H1 2172   4.006   3.729   2.389  0.1473 -1.9488  1.2004
  722TIP3    H2 2173   3.994   3.838   2.493 -1.5606 -2.3070  1.4127
  723TIP3   OH2 2174   2.959   4.818   0.063  0.1906 -0.1862 -0.3198
  723TIP3    H1 2175   3.031   4.785   0.117 -0.0477 -0.2379 -0.0277
  723TIP3    H2 2176   2.944   4.750  -0.002 -1.0883 -1.2445  0.9986
  724TIP3   OH2 2177   6.324   3.260   4.901  0.0484  0.0606 -0.7921
  724TIP3    H1 2178   6.340   3.342   4.854 -0.0195  0.7449  0.3500
  724TIP3    H2 2179   6.230   3.261   4.919 -0.4133 -1.3746 -2.7401
  725TIP3   OH2 2180   5.219   2.504   2.979  0.3190 -0.3344  0.3659
  725TIP3    H1 2181   5.236   2.433   2.917  0.5032 -1.2914  1.4718
  725TIP3    H2 2182   5.242   2.583   2.932 -2.0404 -0.7643 -1.7131
  726TIP3   OH2 2183   0.412   2.927   4.432  0.2425  0.1200 -0.2431
  726TIP3    H1 2184   0.321   2.900   4.417 -0.1671  1.3100 -0.0265
  726TIP3    H2 2185   0.421   3.008   4.382  1.3378 -0.2377 -0.6454
  727TIP3   OH2 2186   6.078   1.556   4.118 -0.1044  0.4051  0.3242
  727TIP3    H1 2187   6.026   1.625   4.158  2.6521  2.7797  0.2120
  727TIP3    H2 2188   6.030   1.475   4.135 -2.2382  2.0368  2.7175
  728TIP3   OH2 2189   6.008   4.858   1.827  0.2891  0.5498 -0.3439
  728TIP3    H1 2190   6.053   4.805   1.761  0.5963 -0.4785  0.6489
  728TIP3    H2 2191   5.916   4.832   1.819  0.5333 -0.7027  0.6050
  729TIP3   OH2 2192   3.617   1.882   3.792 -0.2418 -0.1455  0.1852
  729TIP3    H1 2193   3.567   1.803   3.773  1.2252 -0.9885 -0.2862
  729TIP3    H2 2194   3.661   1.903   3.709  1.4532 -0.3713  0.9835
  730TIP3   OH2 2195   3.836   4.626   0.648  0.5364 -0.0940 -0.1963
  730TIP3    H1 2196   3.867   4.717   0.643  2.6513 -0.8301 -1.9012
  730TIP3    H2 2197   3.903   4.582   0.701  1.6945 -1.4043 -2.6177
  731TIP3   OH2 2198   4.372   4.600   0.719 -0.0710 -0.0874  0.8255
  731TIP3    H1 2199   4.314   4.619   0.793  0.1024  1.9331  0.5054
  731TIP3    H2 2200   4.341   4.658   0.649  0.7618 -0.8032 -0.1647
  732TIP3   OH2 2201   1.144   3.227   2.826  0.1293 -0.2317  0.0076
  732TIP3    H1 2202   1.232   3.225   2.864  1.0419 -0.0863 -1.9679
  732TIP3    H2 2203   1.094   3.282   2.886  1.5193  0.1139  0.9202
  733TIP3   OH2 2204   5.126   0.164   2.084  0.5081 -0.1799  0.5761
  733TIP3    H1 2205   5.220   0.146   2.087  0.3765 -1.2479 -0.7445
  733TIP3    H2 2206   5.099   0.137   1.996 -1.0598 -0.0026  0.9733
  734TIP3   OH2 2207   5.680   1.029   5.057 -0.2387 -0.0892 -0.4128
  734TIP3    H1 2208   5.594   1.020   5.098 -1.0706  0.8844 -1.8723
  734TIP3    H2 2209   5.737   1.059   5.128 -0.6819 -2.2602  0.9733
  735TIP3   OH2 2210   4.684   0.994   2.792  0.4575  0.1144  0.0527
  735TIP3    H1 2211   4.671   0.968   2.883  0.3818 -1.7042 -0.4492
  735TIP3    H2 2212   4.602   1.039   2.769  0.0358 -0.3740  0.5624
  736TIP3   OH2 2213   0.384   0.550   0.349  0.1115 -0.0118 -0.1037
  736TIP3    H1 2214   0.411   0.481   0.289 -1.1465 -0.1177 -0.5766
  736TIP3    H2 2215   0.402   0.632   0.302 -1.0609 -0.0979 -0.7464
  737TIP3   OH2 2216   2.935   0.038   1.946  0.2999  0.1123 -0.1999
  737TIP3    H1 2217   2.927   0.124   1.988  1.6690 -0.0427  0.4255
  737TIP3    H2 2218   2.904  -0.024   2.012 -0.0583  0.0718 -0.4053
  738TIP3   OH2 2219   5.762   4.556   0.201  0.0187  0.0059  0.3307
  738TIP3    H1 2220   5.700   4.507   0.255 -0.4254  0.1608 -0.0355
  738TIP3    H2 2221   5.749   4.647   0.226 -1.8526  0.3509 -1.6660
  739TIP3   OH2 2222   5.127   0.749   2.023  0.5716  0.3984  1.0375
  739TIP3    H1 2223   5.211   0.710   1.997  0.6222  1.9823 -1.4322
  739TIP3    H2 2224   5.123   0.734   2.118  2.8558 -1.1537  0.9832
  740TIP3   OH2 2225   6.198   0.040   0.995 -0.5722 -0.2498 -0.2449
  740TIP3    H1 2226   6.218   0.103   0.927 -0.9669  0.4578  0.2879
  740TIP3    H2 2227   6.151   0.089   1.062  0.0553 -0.8540  0.6799
  741TIP3   OH2 2228   3.120   5.242   1.082  0.1148  0.1962  0.4381
  741TIP3    H1 2229   3.061   5.216   1.152  2.5757 -1.8094  1.9453
  741TIP3    H2 2230   3.141   5.333   1.100 -0.9732  0.3494  0.9882
  742TIP3   OH2 2231   3.732   4.460   2.319  0.0492 -0.4485 -0.3833
  742TIP3    H1 2232   3.753   4.418   2.402 -1.5323 -0.3721  0.0723
  742TIP3    H2 2233   3.734   4.554   2.337 -0.8898 -0.4442 -0.2722
  743TIP3   OH2 2234   3.640   2.408   5.071  0.5027  0.1704  0.1601
  743TIP3    H1 2235   3.586   2.421   4.994 -0.1281  2.6143  0.9324
  743TIP3    H2 2236   3.725   2.381   5.037 -1.0840 -3.9717 -1.0803
  744TIP3   OH2 2237   0.596   2.668   2.208  0.0399  0.1916 -0.1551
  744TIP3    H1 2238   0.668   2.617   2.244 -0.3500 -0.8918 -0.8698
  744TIP3    H2 2239   0.525   2.605   2.195 -1.4306  1.3927  1.4830
  745TIP3   OH2 2240   5.145   5.876   2.407 -0.1945 -0.2273 -0.9590
  745TIP3    H1 2241   5.157   5.939   2.336  3.0438  0.6249  0.1750
  745TIP3    H2 2242   5.118   5.929   2.482  0.1273 -0.5597 -0.6026
  746TIP3   OH2 2243   2.995   4.493   0.092 -0.0294 -0.2407 -0.2444
  746TIP3    H1 2244   2.900   4.495   0.106 -0.2470 -1.5824 -1.2486
  746TIP3    H2 2245   3.032   4.489   0.180 -0.9311 -0.3928  0.1461
  747TIP3   OH2 2246   0.761   2.235   2.342  0.4611 -0.3003 -0.1161
  747TIP3    H1 2247   0.740   2.146   2.370 -0.5811  0.0596  0.2965
  747TIP3    H2 2248   0.857   2.236   2.333  0.3670 -2.1392 -2.4643
  748TIP3   OH2 2249   5.460   2.063   1.309 -0.5139 -1.3803 -0.6196
  748TIP3    H1 2250   5.531   2.101   1.257 -1.8800  1.8940 -0.2738
  748TIP3    H2 2251   5.429   1.989   1.256  1.3789 -1.2599 -2.0106
  749TIP3   OH2 2252   3.641   3.777   4.585  0.6210  0.4624  0.1389
  749TIP3    H1 2253   3.706   3.790   4.654  1.8918  1.1221 -1.1261
  749TIP3    H2 2254   3.648   3.684   4.564 -0.5466  0.0050  1.5903
  750TIP3   OH2 2255   3.357   3.520   3.528  0.7156  0.2402 -0.0654
  750TIP3    H1 2256   3.319   3.597   3.486 -1.3137 -1.1584 -0.9808
  750TIP3    H2 2257   3.421   3.555   3.590 -1.0950  2.7471  0.5498
  751TIP3   OH2 2258   2.221   1.134   4.852  0.2004  0.2757 -0.5230
  751TIP3    H1 2259   2.315   1.134   4.868 -0.1842  0.2214  2.2241
  751TIP3    H2 2260   2.185   1.192   4.919 -1.8917 -1.2949 -0.1736
  752TIP3   OH2 2261   0.180   2.756   5.182  0.5249  0.4329 -0.2290
  752TIP3    H1 2262   0.220   2.801   5.109  1.4821 -1.6170 -1.0442
  752TIP3    H2 2263   0.236   2.776   5.257  0.5183  1.1445 -0.4085
  753TIP3   OH2 2264   5.940   4.917   2.271 -1.0120 -0.1493 -0.1926
  753TIP3    H1 2265   5.938   5.002   2.316 -1.4599  0.1837 -0.8277
  753TIP3    H2 2266   5.890   4.932   2.191 -0.6046 -0.8656 -0.5814
  754TIP3   OH2 2267   0.085   5.384   1.187  0.5147  0.1563  0.2769
  754TIP3    H1 2268   0.104   5.292   1.205  1.2953  0.3102  0.2948
  754TIP3    H2 2269   0.172   5.425   1.179  0.2113  0.5817 -1.3303
  755TIP3   OH2 2270   2.123   0.245   4.608  0.3704  0.1099  0.0775
  755TIP3    H1 2271   2.190   0.278   4.668  0.1024 -2.4566  1.9454
  755TIP3    H2 2272   2.047   0.302   4.623 -0.0137 -1.0010  3.0161
  756TIP3   OH2 2273   5.153   5.069   4.997 -0.5458 -0.0431 -0.0438
  756TIP3    H1 2274   5.236   5.026   5.017 -0.7608 -0.6233 -0.3583
  756TIP3    H2 2275   5.172   5.163   5.003  0.7788 -0.0720 -2.5222
  757TIP3   OH2 2276   4.195   4.063   4.771 -0.0055  0.2634 -0.8552
  757TIP3    H1 2277   4.155   4.138   4.728 -1.7906 -1.3920 -2.2594
  757TIP3    H2 2278   4.158   4.063   4.859 -2.8974 -0.9475 -1.9729
  758TIP3   OH2 2279   2.344   3.592   4.612 -0.2653  0.1436 -0.2508
  758TIP3    H1 2280   2.437   3.602   4.633  0.3858 -1.9474 -1.7696
  758TIP3    H2 2281   2.319   3.508   4.651 -1.4544  0.5483 -0.0986
  759TIP3   OH2 2282   0.173   1.269   1.733 -0.1667 -0.0100  0.1733
  759TIP3    H1 2283   0.251   1.323   1.727  0.4486 -0.9305 -0.3190
  759TIP3    H2 2284   0.155   1.262   1.826 -0.0885  0.7877  0.2579
  760TIP3   OH2 2285   5.589   2.329   2.622 -0.4592 -0.1938 -0.2034
  760TIP3    H1 2286   5.633   2.409   2.652  1.5797 -1.4847  0.5045
  760TIP3    H2 2287   5.548   2.354   2.540  1.1217  1.3146 -0.6105
  761TIP3   OH2 2288   2.255   1.131   2.176 -0.3154  0.3787  0.7853
  761TIP3    H1 2289   2.246   1.059   2.113  1.5338  0.0597  0.8152
  761TIP3    H2 2290   2.225   1.208   2.129 -0.5656 -0.1270  0.0974
  762TIP3   OH2 2291   3.487   1.380   1.337 -0.3316 -0.8673 -0.4388
  762TIP3    H1 2292   3.560   1.437   1.362  0.2956 -2.2144  0.9857
  762TIP3    H2 2293   3.467   1.405   1.247  0.6257  0.8285 -0.2310
  763TIP3   OH2 2294   4.383   2.840   4.814 -0.2554  0.1118 -0.1844
  763TIP3    H1 2295   4.375   2.934   4.794  2.2964 -0.0786 -2.6118
  763TIP3    H2 2296   4.439   2.837   4.891 -1.5689  0.5474  0.8438
  764TIP3   OH2 2297   2.164   1.176   3.197 -0.2720 -0.5821  0.4185
  764TIP3    H1 2298   2.246   1.162   3.244  0.3238  0.4510 -0.2762
  764TIP3    H2 2299   2.157   1.272   3.190  0.5224 -0.6524 -2.9974
  765TIP3   OH2 2300   4.601   2.415   3.914  0.2937  0.2182 -0.4117
  765TIP3    H1 2301   4.615   2.398   4.007  0.0791 -0.2279 -0.4609
  765TIP3    H2 2302   4.556   2.337   3.881 -1.1247  1.0494 -0.5461
  766TIP3   OH2 2303   3.184   1.824   3.616  0.1697 -0.3699 -0.0903
  766TIP3    H1 2304   3.176   1.902   3.561 -0.4556 -0.6752 -0.4422
  766TIP3    H2 2305   3.278   1.819   3.637  0.2773  0.2448 -0.3902
  767TIP3   OH2 2306   3.039   0.568   1.390 -0.1478 -0.1674  0.5892
  767TIP3    H1 2307   3.009   0.504   1.325  2.1648  0.5500 -1.3255
  767TIP3    H2 2308   3.066   0.644   1.338  0.1648  1.1374  2.5495
  768TIP3   OH2 2309   2.820   4.013   0.613 -0.0338  0.5162  0.3642
  768TIP3    H1 2310   2.830   4.017   0.708 -0.7082 -2.1445  0.6122
  768TIP3    H2 2311   2.742   4.065   0.595 -0.9880 -0.4661  1.5145
  769TIP3   OH2 2312   3.256   0.843   3.531 -0.3583  0.2433  0.0084
  769TIP3    H1 2313   3.244   0.834   3.626  2.1306  0.6423  0.4397
  769TIP3    H2 2314   3.266   0.937   3.518 -0.5712  0.1761 -0.6447
  770TIP3   OH2 2315   0.805   4.731   4.340 -0.1792  0.0320  0.2256
  770TIP3    H1 2316   0.845   4.662   4.393 -2.8978 -1.4551  0.5333
  770TIP3    H2 2317   0.748   4.684   4.279  0.0004  1.9040 -1.4828
  771TIP3   OH2 2318   1.956   1.512   3.678 -0.1133 -0.0904 -0.0219
  771TIP3    H1 2319   1.905   1.437   3.647 -1.6153  0.6272  0.5916
  771TIP3    H2 2320   2.019   1.475   3.740 -1.0562 -0.8282  0.5203
  772TIP3   OH2 2321   5.691   2.753   3.286  0.0934  0.4096  0.1500
  772TIP3    H1 2322   5.658   2.667   3.260 -1.8039  0.4191  2.2706
  772TIP3    H2 2323   5.617   2.812   3.271  1.3315  1.7063 -1.1653
  773TIP3   OH2 2324   2.685   0.149   0.092 -0.0400 -0.0405 -0.0420
  773TIP3    H1 2325   2.706   0.237   0.060  0.9852 -0.2578  0.0066
  773TIP3    H2 2326   2.593   0.156   0.121 -0.2949  0.7345 -0.9666
  774TIP3   OH2 2327   4.790   5.748   1.442  0.3654  0.0401 -0.4613
  774TIP3    H1 2328   4.733   5.815   1.406 -0.4933 -0.2567  0.3349
  774TIP3    H2 2329   4.743   5.666   1.427 -0.4449 -0.0316  2.0890
  775TIP3   OH2 2330   1.641   4.933   4.407 -0.3159  0.4142  0.7417
  775TIP3    H1 2331   1.714   4.977   4.450 -0.4329 -0.2903  1.7059
  775TIP3    H2 2332   1.653   4.840   4.429 -1.4851  0.2864  0.9030
  776TIP3   OH2 2333   0.373   1.975   4.746  0.1070 -0.3564 -0.2031
  776TIP3    H1 2334   0.428   2.045   4.711  0.4313 -0.1428  0.7004
  776TIP3    H2 2335   0.415   1.894   4.717  0.6595 -0.1897  0.1181
  777TIP3   OH2 2336   1.090   5.896   0.900  0.3998 -0.3910  0.3110
  777TIP3    H1 2337   1.010   5.939   0.929 -0.9280 -2.5032  0.0543
  777TIP3    H2 2338   1.069   5.864   0.812  1.0419 -2.0123  0.6942
  778TIP3   OH2 2339   5.467   2.087   1.978  0.8732 -0.0855 -0.1994
  778TIP3    H1 2340   5.458   2.144   2.055  1.1820 -1.3116  0.7882
  778TIP3    H2 2341   5.499   2.145   1.909  3.4340  0.5452  1.3725
  779TIP3   OH2 2342   5.991   0.487   3.765  0.3488 -0.1290 -0.0799
  779TIP3    H1 2343   5.975   0.459   3.674  0.2463 -0.5894  0.0733
  779TIP3    H2 2344   6.079   0.524   3.764  0.2297  0.1533 -0.4301
  780TIP3   OH2 2345   4.156   5.722   1.676  0.4990 -0.3748 -0.4180
  780TIP3    H1 2346   4.082   5.782   1.685 -0.6956 -1.6725 -1.1366
  780TIP3    H2 2347   4.230   5.778   1.654 -0.4700  0.8775 -0.5761
  781TIP3   OH2 2348   0.318   0.303   2.780 -0.1028 -0.0454 -0.0119
  781TIP3    H1 2349   0.238   0.329   2.826 -0.1093 -0.3092  0.1271
  781TIP3    H2 2350   0.315   0.207   2.779  0.3087 -0.0583  0.1614
  782TIP3   OH2 2351   3.081   1.806   4.526  0.0719 -0.3537  0.3275
  782TIP3    H1 2352   3.037   1.891   4.524  0.3173 -0.2193 -1.4990
  782TIP3    H2 2353   3.168   1.824   4.561  0.6384  0.4559 -1.4158
  783TIP3   OH2 2354   4.890   5.917   0.004  0.9174  0.1872 -0.1095
  783TIP3    H1 2355   4.849   5.997   0.034  0.9599  0.1795 -0.0307
  783TIP3    H2 2356   4.834   5.847   0.037  0.8701  0.1850 -0.1941
  784TIP3   OH2 2357   3.275   0.068   4.708 -0.4974 -0.0594  0.0690
  784TIP3    H1 2358   3.243   0.081   4.619 -1.8479 -0.1952  0.5049
  784TIP3    H2 2359   3.245   0.145   4.756 -0.6415 -0.4470  0.6138
  785TIP3   OH2 2360   1.458   4.494   4.799 -0.5961 -0.0467 -0.3752
  785TIP3    H1 2361   1.394   4.500   4.870  0.0369  0.1641  0.1953
  785TIP3    H2 2362   1.514   4.571   4.811 -0.3048 -0.1640 -0.9313
  786TIP3   OH2 2363   0.126   5.167   4.113  0.6586 -0.0102 -0.5731
  786TIP3    H1 2364   0.069   5.204   4.046  0.3099 -1.9931 -1.4531
  786TIP3    H2 2365   0.198   5.126   4.064  0.8172 -0.8134  0.3014
  787TIP3   OH2 2366   3.746   0.756   3.170  0.3686  0.1934 -0.0989
  787TIP3    H1 2367   3.662   0.752   3.216  0.4613 -1.5937 -0.0249
  787TIP3    H2 2368   3.725   0.740   3.079  0.7327 -1.4501  0.0837
  788TIP3   OH2 2369   5.343   5.360   3.379 -0.7152 -0.1129  0.2812
  788TIP3    H1 2370   5.427   5.397   3.406 -0.4755 -1.7437  1.9585
  788TIP3    H2 2371   5.288   5.367   3.457 -1.1679 -1.7357  0.1487
  789TIP3   OH2 2372   2.812   3.847   0.410  0.4746  0.0740 -0.5345
  789TIP3    H1 2373   2.819   3.910   0.338  1.2571 -0.2754 -0.7730
  789TIP3    H2 2374   2.815   3.902   0.489  0.2700  0.4042 -0.7505
  790TIP3   OH2 2375   5.472   2.202   2.230 -0.0101  0.3581  0.2294
  790TIP3    H1 2376   5.457   2.121   2.279 -0.0923  1.2399  1.7316
  790TIP3    H2 2377   5.428   2.269   2.282 -0.3295  1.3132 -1.2253
  791TIP3   OH2 2378   6.330   5.230   3.447 -0.6818  0.1347  0.2650
  791TIP3    H1 2379   6.396   5.201   3.510 -1.6142 -3.0085  0.0051
  791TIP3    H2 2380   6.267   5.279   3.500 -0.2600 -0.4449  1.3382
  792TIP3   OH2 2381   0.713   5.241   5.203 -1.0136  0.0550  0.2920
  792TIP3    H1 2382   0.807   5.259   5.198 -1.0389  0.4416  1.1777
  792TIP3    H2 2383   0.704   5.154   5.163 -0.5365  0.7711 -1.4728
  793TIP3   OH2 2384   0.426   1.800   0.846  0.1520  0.6328 -0.2886
  793TIP3    H1 2385   0.374   1.864   0.798  0.6249  1.5479  0.3928
  793TIP3    H2 2386   0.469   1.748   0.778 -0.6643  0.6677 -0.8473
  794TIP3   OH2 2387   3.040   2.285   1.604 -0.2503  0.0999 -0.1139
  794TIP3    H1 2388   3.016   2.377   1.608 -1.2745 -0.2029  1.7329
  794TIP3    H2 2389   3.054   2.259   1.695  0.0909 -1.5622 -0.5872
  795TIP3   OH2 2390   0.663   0.249   1.104  0.9738  0.4023 -0.3369
  795TIP3    H1 2391   0.675   0.155   1.112 -1.5012  0.0667  0.1922
  795TIP3    H2 2392   0.633   0.277   1.190  0.1422  1.3977 -0.9347
  796TIP3   OH2 2393   1.526   3.032   2.824 -0.2474  0.0992 -0.0371
  796TIP3    H1 2394   1.454   3.069   2.773 -1.3578  1.1492  2.1340
  796TIP3    H2 2395   1.528   3.085   2.904  3.4299  0.5643 -0.2841
  797TIP3   OH2 2396   0.480   5.345   2.937  0.0709  0.1395 -0.3016
  797TIP3    H1 2397   0.506   5.253   2.940 -1.0248 -0.1645  0.4523
  797TIP3    H2 2398   0.563   5.393   2.941  0.7008 -0.8036 -1.5154
  798TIP3   OH2 2399   0.184   4.412   4.302  0.3023 -0.3322 -0.2650
  798TIP3    H1 2400   0.128   4.334   4.301 -0.4823  0.2314 -0.3641
  798TIP3    H2 2401   0.126   4.484   4.282  1.0404  0.2877 -0.2184
  799TIP3   OH2 2402   0.107   2.669   1.884  0.3020 -0.2969 -0.3182
  799TIP3    H1 2403   0.060   2.606   1.939  0.0945 -0.7568 -1.0050
  799TIP3    H2 2404   0.079   2.755   1.917 -0.4837 -0.5639 -0.2592
  800TIP3   OH2 2405   3.960   2.725   4.576 -0.5530 -0.5222  0.4609
  800TIP3    H1 2406   4.055   2.739   4.574 -0.7074  0.7540  1.0124
  800TIP3    H2 2407   3.949   2.633   4.552  0.7428 -0.4044 -0.7041
  801TIP3   OH2 2408   2.361   4.036   4.265  0.2818 -0.5525 -0.5548
  801TIP3    H1 2409   2.335   4.114   4.216  1.2457  0.3040  0.2459
  801TIP3    H2 2410   2.334   3.963   4.210 -1.4280  0.3198 -0.9377
  802TIP3   OH2 2411   1.566   0.100   0.432  0.5549 -0.0512 -0.1616
  802TIP3    H1 2412   1.628   0.091   0.504  1.1207 -0.0702 -0.6431
  802TIP3    H2 2413   1.613   0.068   0.355  0.2793  0.8001 -0.7070
  803TIP3   OH2 2414   5.797   4.371   0.623 -0.2948 -0.2794  0.0281
  803TIP3    H1 2415   5.881   4.399   0.586 -0.5502  0.3553 -0.0929
  803TIP3    H2 2416   5.804   4.276   0.631 -0.3386 -0.4694 -1.8860
  804TIP3   OH2 2417   2.286   1.502   0.587 -0.3825  0.3773  0.1298
  804TIP3    H1 2418   2.193   1.503   0.607 -0.0770  1.0543  1.7302
  804TIP3    H2 2419   2.295   1.563   0.514 -1.1752  0.4390  0.0717
  805TIP3   OH2 2420   0.229   2.749   0.448 -0.0224  0.2475  0.7550
  805TIP3    H1 2421   0.188   2.721   0.366  0.0166  0.1096  0.7818
  805TIP3    H2 2422   0.174   2.712   0.517 -0.8478  1.5069  0.8088
  806TIP3   OH2 2423   4.174   3.950   0.173  0.1703  0.4045  0.3493
  806TIP3    H1 2424   4.086   3.970   0.204  0.0350  0.8563 -0.3081
  806TIP3    H2 2425   4.168   3.859   0.142 -0.9642  1.3919 -2.6941
  807TIP3   OH2 2426   1.143   2.572   4.867 -0.5813 -0.4072  0.2986
  807TIP3    H1 2427   1.060   2.572   4.915 -1.3034 -0.4906 -0.8999
  807TIP3    H2 2428   1.199   2.634   4.914 -1.8136  0.7109  0.3452
  808TIP3   OH2 2429   5.234   3.827   0.878  0.3582 -0.0482  0.1368
  808TIP3    H1 2430   5.146   3.863   0.873  0.7175  0.7841 -0.4118
  808TIP3    H2 2431   5.237   3.761   0.808 -1.1097 -3.1131  2.6908
  809TIP3   OH2 2432   4.429   2.557   2.946 -0.0744  0.0216  0.3209
  809TIP3    H1 2433   4.431   2.475   2.996  1.4937  0.3627  0.9045
  809TIP3    H2 2434   4.513   2.598   2.966 -0.8232  1.7743  0.0301
  810TIP3   OH2 2435   3.124   0.398   2.247  0.5367  0.0564  0.0584
  810TIP3    H1 2436   3.202   0.453   2.247 -0.5410  1.6462 -0.5052
  810TIP3    H2 2437   3.062   0.443   2.305 -0.3954 -0.5025 -0.4664
  811TIP3   OH2 2438   5.438   1.280   3.609 -0.0459  0.0056 -0.4169
  811TIP3    H1 2439   5.478   1.365   3.590 -0.5853  0.2405 -0.5223
  811TIP3    H2 2440   5.501   1.216   3.576 -0.5732  0.3907 -2.2623
  812TIP3   OH2 2441   6.010   0.825  -0.010  0.2342  0.4336 -0.2951
  812TIP3    H1 2442   6.039   0.909   0.025  2.5705 -0.1061 -0.7388
  812TIP3    H2 2443   5.927   0.807   0.035  1.0746  1.6597  1.9068
  813TIP3   OH2 2444   0.499   2.165   1.622  0.2356 -0.1543  0.0921
  813TIP3    H1 2445   0.547   2.124   1.694  1.5470  2.2024  0.6791
  813TIP3    H2 2446   0.449   2.235   1.664 -0.8599 -0.2345 -1.0226
  814TIP3   OH2 2447   0.054   2.472   3.786  0.4115 -0.3926 -0.3042
  814TIP3    H1 2448   0.107   2.552   3.777 -0.1514  0.1679  1.0167
  814TIP3    H2 2449  -0.036   2.503   3.775  0.1906 -0.8481  0.2128
  815TIP3   OH2 2450   5.509   0.600   4.437  0.1782 -0.3490  0.7393
  815TIP3    H1 2451   5.452   0.524   4.428  0.6029 -0.5166 -1.1058
  815TIP3    H2 2452   5.557   0.586   4.518 -2.0602 -0.3922  2.1549
  816TIP3   OH2 2453   2.295   4.322   2.266  0.5529  0.0713 -0.0417
  816TIP3    H1 2454   2.282   4.282   2.180 -0.6694 -0.0129  0.1653
  816TIP3    H2 2455   2.219   4.380   2.277  1.7348  1.6587  0.1175
  817TIP3   OH2 2456   2.968   4.063   4.164  0.2803  0.3156 -0.0673
  817TIP3    H1 2457   2.993   4.000   4.097  0.0371 -0.9049  0.9349
  817TIP3    H2 2458   2.878   4.087   4.142  0.1399 -0.2165 -0.1027
  818TIP3   OH2 2459   3.676   1.579   3.654 -0.2664 -0.0806 -0.4882
  818TIP3    H1 2460   3.672   1.519   3.728 -1.7133 -0.8506 -1.1428
  818TIP3    H2 2461   3.759   1.625   3.663 -0.6473  0.2339  1.9127
  819TIP3   OH2 2462   5.012   3.867   4.660 -0.2851  0.2005  0.9038
  819TIP3    H1 2463   4.928   3.908   4.639 -0.1457  0.7974  1.4648
  819TIP3    H2 2464   5.000   3.831   4.748 -0.3430 -0.8276  0.4934
  820TIP3   OH2 2465   2.723   3.926   4.597  0.1772  0.4381 -0.7562
  820TIP3    H1 2466   2.654   3.944   4.661  1.3273  1.5038  0.2251
  820TIP3    H2 2467   2.775   4.006   4.594  0.3230  0.3221 -2.8627
  821TIP3   OH2 2468   5.132   0.928   4.345 -0.3661  0.5782  0.5185
  821TIP3    H1 2469   5.051   0.916   4.394 -1.0569  1.9886 -0.2079
  821TIP3    H2 2470   5.165   1.013   4.372  0.8331  0.0833  0.7092
  822TIP3   OH2 2471   4.865   2.831   2.689 -0.2270 -0.3385  0.2590
  822TIP3    H1 2472   4.857   2.862   2.598  0.7346  1.3168  0.6906
  822TIP3    H2 2473   4.841   2.738   2.685 -1.0127 -0.1020 -1.5368
  823TIP3   OH2 2474   0.408   0.356   0.163 -0.3833  0.4128 -0.1064
  823TIP3    H1 2475   0.363   0.300   0.099  1.3688 -3.3866  1.7332
  823TIP3    H2 2476   0.471   0.405   0.110 -0.1623 -1.3217 -1.5764
  824TIP3   OH2 2477   3.227   1.733   2.313 -0.2659  0.3345 -0.3674
  824TIP3    H1 2478   3.284   1.657   2.317 -0.2227  0.3757 -0.1260
  824TIP3    H2 2479   3.270   1.793   2.252  0.8984  1.1196  1.1548
  825TIP3   OH2 2480   2.162   4.586   3.350 -0.2440 -0.4544  0.7124
  825TIP3    H1 2481   2.079   4.632   3.338  0.1776  0.5170  1.3609
  825TIP3    H2 2482   2.229   4.653   3.335  0.4827 -1.4540 -0.8338
  826TIP3   OH2 2483   4.732   0.857   2.560  0.2962  0.0922 -0.3555
  826TIP3    H1 2484   4.709   0.873   2.652 -1.7343  0.0500 -0.8137
  826TIP3    H2 2485   4.785   0.933   2.535  0.3702  0.3974  0.6644
  827TIP3   OH2 2486   4.302   2.168   5.080 -0.8154 -0.1537  0.3490
  827TIP3    H1 2487   4.300   2.262   5.061  2.9012 -0.0875 -0.4528
  827TIP3    H2 2488   4.341   2.162   5.167 -1.3934 -0.9887  0.5636
  828TIP3   OH2 2489   3.393   0.218   0.062 -0.2432 -0.8026  0.1639
  828TIP3    H1 2490   3.345   0.216   0.145 -2.9277 -2.6520 -1.2666
  828TIP3    H2 2491   3.436   0.132   0.056 -1.3200 -1.3062 -0.9450
  829TIP3   OH2 2492   5.969   3.744   1.306 -0.4572  0.4886 -0.1861
  829TIP3    H1 2493   6.004   3.686   1.373 -2.5438  0.5460  1.0362
  829TIP3    H2 2494   6.043   3.762   1.248  1.2714  0.0103  1.7879
  830TIP3   OH2 2495   2.573   5.950   3.001 -0.3284 -0.4228  0.4795
  830TIP3    H1 2496   2.663   5.917   2.989 -0.1210  0.2560  0.1278
  830TIP3    H2 2497   2.538   5.954   2.913 -0.2418  0.5941  0.4858
  831TIP3   OH2 2498   5.868   2.594   1.730  0.6551  0.3295 -0.2785
  831TIP3    H1 2499   5.836   2.620   1.816  1.1094  0.5526 -0.1713
  831TIP3    H2 2500   5.949   2.546   1.748 -0.5338 -1.8461 -0.4181
  832TIP3   OH2 2501   5.829   2.935   1.579 -0.5688  0.2179 -0.0291
  832TIP3    H1 2502   5.792   2.925   1.666 -1.0009 -1.1766 -0.3475
  832TIP3    H2 2503   5.796   2.860   1.530  1.9555 -0.6510 -0.5867
  833TIP3   OH2 2504   1.764   4.743   1.825  0.3084 -0.1067 -0.6153
  833TIP3    H1 2505   1.677   4.782   1.815  1.0125  1.9491  0.5832
  833TIP3    H2 2506   1.785   4.711   1.737 -1.6448 -0.6900 -0.9337
  834TIP3   OH2 2507   2.979   1.053   4.554 -0.1285 -0.1840  0.3800
  834TIP3    H1 2508   2.895   1.023   4.520 -0.6657  1.0784  0.5817
  834TIP3    H2 2509   2.959   1.096   4.636  0.3032  2.6294 -0.8879
  835TIP3   OH2 2510   5.407   3.375   0.832  0.3176 -0.5589  0.0629
  835TIP3    H1 2511   5.491   3.406   0.864  0.0444 -0.8471  1.1229
  835TIP3    H2 2512   5.376   3.316   0.901 -1.7509  1.2325  0.7781
  836TIP3   OH2 2513   6.222   5.189   2.223  0.4068 -0.1776 -0.7276
  836TIP3    H1 2514   6.181   5.159   2.143  0.4057 -0.0295 -0.7830
  836TIP3    H2 2515   6.157   5.247   2.264  0.5575  0.0525 -0.8135
  837TIP3   OH2 2516   5.571   1.040   2.518 -0.0678  0.4844  0.4256
  837TIP3    H1 2517   5.504   0.977   2.492  0.2435  0.4883 -0.4227
  837TIP3    H2 2518   5.523   1.113   2.557 -0.4950  0.1405  0.5401
  838TIP3   OH2 2519   2.368   5.082   0.404 -0.0680 -0.0927 -0.4822
  838TIP3    H1 2520   2.309   5.041   0.466  0.4529 -1.2688 -0.7390
  838TIP3    H2 2521   2.392   5.012   0.343  0.9800  0.5407 -0.8374
  839TIP3   OH2 2522   3.642   2.776   3.473 -0.3449  0.5138  0.4131
  839TIP3    H1 2523   3.666   2.685   3.487 -1.7571  0.2949  1.5973
  839TIP3    H2 2524   3.716   2.826   3.508 -0.2003 -0.1546  1.0745
  840TIP3   OH2 2525   3.835   2.196   3.650  0.3218 -0.2981 -0.2521
  840TIP3    H1 2526   3.831   2.238   3.735  1.3169 -0.2345 -0.2228
  840TIP3    H2 2527   3.928   2.191   3.630  0.0823  0.3022 -1.6459
  841TIP3   OH2 2528   2.363   3.955   2.683  0.2233  0.4004  0.4970
  841TIP3    H1 2529   2.322   4.021   2.738  1.6656  1.1449  0.7500
  841TIP3    H2 2530   2.342   3.982   2.593 -1.5709 -0.4407  0.6254
  842TIP3   OH2 2531   2.177   2.857   3.287 -0.1180 -0.1479  0.2867
  842TIP3    H1 2532   2.109   2.825   3.346  2.1383 -2.6642  1.7698
  842TIP3    H2 2533   2.140   2.846   3.200 -1.4843 -1.7971  1.0209
  843TIP3   OH2 2534   1.444   2.138   4.311 -0.1782  0.3468 -0.7594
  843TIP3    H1 2535   1.366   2.083   4.323  0.2950 -0.1491  0.1626
  843TIP3    H2 2536   1.511   2.096   4.364  0.9049  0.4334 -2.0265
  844TIP3   OH2 2537   0.191   1.690   0.922  0.5207  0.8172 -0.8299
  844TIP3    H1 2538   0.199   1.615   0.981 -1.8974  1.3088  0.2625
  844TIP3    H2 2539   0.281   1.717   0.905  1.3656  0.2039  2.1096
  845TIP3   OH2 2540   0.503   4.623   1.389  0.1786  0.6822  0.1473
  845TIP3    H1 2541   0.536   4.622   1.299  0.6518  0.5239  0.3248
  845TIP3    H2 2542   0.581   4.625   1.444 -0.1166  1.7156  0.5465
  846TIP3   OH2 2543   0.767   5.627   1.545 -0.3288 -0.2920  0.1493
  846TIP3    H1 2544   0.853   5.666   1.563 -1.0160  3.0925 -2.6215
  846TIP3    H2 2545   0.787   5.543   1.503  1.6453  0.2499 -0.1072
  847TIP3   OH2 2546   3.996   4.544   3.747  0.7642  0.4159  0.4437
  847TIP3    H1 2547   4.065   4.552   3.681 -0.4909  1.2327 -0.8282
  847TIP3    H2 2548   4.039   4.565   3.830  1.9605  1.2596 -0.3575
  848TIP3   OH2 2549   5.844   2.357   0.989  0.5114 -0.3519  0.1617
  848TIP3    H1 2550   5.817   2.445   1.015  0.9710 -0.5794  1.4792
  848TIP3    H2 2551   5.788   2.336   0.914 -1.8972 -0.2092  1.8228
  849TIP3   OH2 2552   3.683   5.394   2.687  0.0738 -0.0873  0.5377
  849TIP3    H1 2553   3.689   5.301   2.711  0.1560 -0.1330  0.3367
  849TIP3    H2 2554   3.746   5.437   2.745  1.8145 -0.4592 -0.9951
  850TIP3   OH2 2555   3.231   4.291   1.243  0.3597 -0.5186 -0.1415
  850TIP3    H1 2556   3.182   4.251   1.314  1.6720  1.1701  1.8497
  850TIP3    H2 2557   3.194   4.254   1.163 -1.1277 -2.5553  1.4091
  851TIP3   OH2 2558   0.697   0.249   2.058 -0.6525 -0.3640  0.1583
  851TIP3    H1 2559   0.635   0.317   2.085  0.9395  0.4606  2.0546
  851TIP3    H2 2560   0.779   0.275   2.099  0.9355 -1.5045 -2.1044
  852TIP3   OH2 2561   4.611   5.367   4.874  0.0679 -0.1910 -0.1584
  852TIP3    H1 2562   4.654   5.289   4.907  1.2296  0.7658  0.6829
  852TIP3    H2 2563   4.650   5.382   4.788  0.1892 -0.2852 -0.1200
  853TIP3   OH2 2564   4.078   4.673   3.315 -0.1687  0.0952 -0.6741
  853TIP3    H1 2565   4.004   4.613   3.299  0.4348 -1.0908  0.7514
  853TIP3    H2 2566   4.156   4.619   3.298  0.4169  0.0037  1.9617
  854TIP3   OH2 2567   1.004   5.357   4.880 -0.4596  0.0591  0.0140
  854TIP3    H1 2568   1.087   5.403   4.885 -0.3842 -0.1345  0.5844
  854TIP3    H2 2569   1.022   5.280   4.826  0.5003 -1.5705  2.5075
  855TIP3   OH2 2570   2.187   2.711   2.811  0.2413  0.1432 -0.2307
  855TIP3    H1 2571   2.176   2.737   2.720 -0.3784 -0.9280 -0.4872
  855TIP3    H2 2572   2.148   2.623   2.815 -1.3658  0.8803  1.4455
  856TIP3   OH2 2573   1.161   3.180   0.887 -0.0018 -0.3674  0.2312
  856TIP3    H1 2574   1.214   3.211   0.814 -0.8229 -1.9802 -1.1036
  856TIP3    H2 2575   1.088   3.241   0.892  0.0801 -0.2254 -0.2727
  857TIP3   OH2 2576   4.253   1.637   2.973 -0.4718 -0.3851  0.0388
  857TIP3    H1 2577   4.197   1.656   2.898  0.0490  2.2962  0.2402
  857TIP3    H2 2578   4.222   1.697   3.041  1.8199  0.2998  0.5515
  858TIP3   OH2 2579   2.754   0.375   0.383  0.4797  0.0536  0.0654
  858TIP3    H1 2580   2.681   0.394   0.324  0.7375 -0.9779 -0.6229
  858TIP3    H2 2581   2.832   0.388   0.328  0.7597 -0.0760  0.4343
  859TIP3   OH2 2582   5.599   3.653   1.617  0.0090  0.5828  0.2338
  859TIP3    H1 2583   5.507   3.663   1.590  0.0389 -0.3002 -0.2424
  859TIP3    H2 2584   5.593   3.623   1.708 -0.2006  0.1277  0.0775
  860TIP3   OH2 2585   0.645   2.374   1.840 -0.5814 -0.1195 -0.2124
  860TIP3    H1 2586   0.604   2.416   1.916 -0.8948 -0.0432 -0.4190
  860TIP3    H2 2587   0.621   2.282   1.848  0.2744 -0.3026  0.3493
  861TIP3   OH2 2588   4.938   5.622   3.734  0.4596 -0.2141  0.4033
  861TIP3    H1 2589   4.909   5.535   3.762 -1.2862  0.2762  0.1967
  861TIP3    H2 2590   4.896   5.682   3.795 -1.4342  0.7162 -1.6981
  862TIP3   OH2 2591   5.301   5.897   3.912 -0.1275  0.6218  0.3189
  862TIP3    H1 2592   5.249   5.841   3.970 -0.1195 -0.1288 -0.3937
  862TIP3    H2 2593   5.376   5.923   3.965 -0.2401  0.1340  0.7212
  863TIP3   OH2 2594   2.704   0.497   4.866  0.1683  0.0031  0.2064
  863TIP3    H1 2595   2.766   0.494   4.793  1.8038 -0.9483  1.5810
  863TIP3    H2 2596   2.756   0.477   4.943 -1.8578 -0.8505  1.4382
  864TIP3   OH2 2597   2.871   3.195   0.034  0.0891 -0.3499  0.3540
  864TIP3    H1 2598   2.835   3.264   0.091  0.0865 -0.3013  0.2935
  864TIP3    H2 2599   2.795   3.142   0.010  0.2584 -1.0685  1.3436
  865TIP3   OH2 2600   1.574   2.797   0.053 -0.0474 -0.5860 -0.1269
  865TIP3    H1 2601   1.666   2.812   0.031 -0.4961 -0.0814 -1.7182
  865TIP3    H2 2602   1.570   2.815   0.147  0.9529  2.0497 -0.4954
  866TIP3   OH2 2603   3.490   5.272   4.345  0.2160 -0.1469  0.1845
  866TIP3    H1 2604   3.567   5.324   4.321  0.2472  0.3565  1.3178
  866TIP3    H2 2605   3.470   5.298   4.435 -0.7028 -0.9816  0.2429
  867TIP3   OH2 2606   4.332   0.235   1.575  0.0014 -0.0976 -0.4097
  867TIP3    H1 2607   4.255   0.217   1.629  0.2436  1.0255  0.3698
  867TIP3    H2 2608   4.405   0.199   1.626  0.1004 -0.1483 -0.5891
  868TIP3   OH2 2609   2.244   0.077   1.238  0.1043 -0.2991  0.1637
  868TIP3    H1 2610   2.191   0.074   1.318  1.3178  1.6860  1.1076
  868TIP3    H2 2611   2.333   0.057   1.268  0.7623  1.5283 -0.4826
  869TIP3   OH2 2612   2.155   1.401   0.899  0.1744  0.5660 -0.3721
  869TIP3    H1 2613   2.197   1.483   0.924  0.7143  0.4391 -0.8455
  869TIP3    H2 2614   2.102   1.423   0.823 -1.2866  0.9018  0.7076
  870TIP3   OH2 2615   2.327   0.389   4.701 -0.6316 -0.1189  0.1568
  870TIP3    H1 2616   2.411   0.345   4.692  0.2922  1.7702 -1.0383
  870TIP3    H2 2617   2.327   0.421   4.792  0.0208 -0.0310  0.1334
  871TIP3   OH2 2618   4.487   3.355   2.064 -0.1117  0.3602  0.3587
  871TIP3    H1 2619   4.450   3.441   2.041 -0.5616  0.4376  1.3365
  871TIP3    H2 2620   4.562   3.345   2.005 -0.6792  0.9540 -0.4974
  872TIP3   OH2 2621   3.244   3.020   3.224 -0.2066 -0.2977 -0.0759
  872TIP3    H1 2622   3.278   3.013   3.313 -2.4227  0.7335  0.9456
  872TIP3    H2 2623   3.229   2.929   3.197  1.4324 -0.6712  0.1588
  873TIP3   OH2 2624   4.667   0.236   0.237 -0.1625 -0.8703  0.0141
  873TIP3    H1 2625   4.648   0.143   0.247 -0.5650 -1.3577 -3.6786
  873TIP3    H2 2626   4.590   0.281   0.271 -0.5602 -1.9394  0.5706
  874TIP3   OH2 2627   3.976   3.169   2.694 -0.1296 -0.5956 -0.5761
  874TIP3    H1 2628   3.965   3.129   2.608 -2.2034 -1.7519  0.1675
  874TIP3    H2 2629   3.980   3.095   2.755 -0.5420  0.2444  0.5043
  875TIP3   OH2 2630   0.215   0.385   1.495 -0.4923 -0.0464 -0.7544
  875TIP3    H1 2631   0.190   0.348   1.579 -2.0757  1.7326 -0.3702
  875TIP3    H2 2632   0.250   0.472   1.516 -1.0774  0.5022 -1.9352
  876TIP3   OH2 2633   2.786   2.924   2.818  0.6242 -0.3595  0.3978
  876TIP3    H1 2634   2.782   2.835   2.782 -0.3861  0.4628 -1.6876
  876TIP3    H2 2635   2.878   2.935   2.844  0.4404 -2.5449  2.2844
  877TIP3   OH2 2636   0.821   2.635   3.722  0.1967 -0.1291  0.1383
  877TIP3    H1 2637   0.860   2.707   3.772 -0.2010 -0.6218  1.1900
  877TIP3    H2 2638   0.828   2.662   3.631  2.1829  0.1897  0.3544
  878TIP3   OH2 2639   1.402   0.491   5.107 -0.0765  0.2966  0.3296
  878TIP3    H1 2640   1.390   0.477   5.200 -1.5861  1.0643  0.2930
  878TIP3    H2 2641   1.467   0.426   5.080  0.4059  0.0980  1.9052
  879TIP3   OH2 2642   3.972   3.225   3.953  0.3256 -0.1561  0.0736
  879TIP3    H1 2643   4.018   3.174   4.020 -1.4016  0.1185  1.5307
  879TIP3    H2 2644   3.929   3.295   4.001  0.7775  1.3732 -1.6174
  880TIP3   OH2 2645   5.244   1.500   3.618 -0.1456  0.7200  1.2605
  880TIP3    H1 2646   5.327   1.488   3.664 -0.1952  1.1717  1.4716
  880TIP3    H2 2647   5.251   1.444   3.540  0.5186  1.0662  1.0649
  881TIP3   OH2 2648   6.137   4.761   4.752 -0.5182 -0.4662 -0.5678
  881TIP3    H1 2649   6.183   4.845   4.747  0.8519 -0.9942  1.4818
  881TIP3    H2 2650   6.047   4.784   4.776  0.3864  0.4433  2.4561
  882TIP3   OH2 2651   1.985   5.679   0.365 -0.7268  0.2338 -0.7464
  882TIP3    H1 2652   1.987   5.586   0.346 -0.5139  0.4724 -1.9816
  882TIP3    H2 2653   1.918   5.689   0.433 -0.0842 -0.9187  0.0907
  883TIP3   OH2 2654   5.099   1.708   1.475  0.1377 -0.5004 -0.1959
  883TIP3    H1 2655   5.181   1.671   1.509 -0.6477 -0.3575  2.0403
  883TIP3    H2 2656   5.127   1.774   1.412  1.7828  0.0137  1.0054
  884TIP3   OH2 2657   1.686   0.447   1.413  1.0067 -0.3271  0.0310
  884TIP3    H1 2658   1.736   0.400   1.479  0.6577 -0.4492  0.2125
  884TIP3    H2 2659   1.716   0.538   1.420 -0.7004  0.1642  2.0219
  885TIP3   OH2 2660   3.913   0.751   1.354 -0.1090 -0.3662  0.0047
  885TIP3    H1 2661   3.865   0.670   1.335 -1.7692 -0.1268  2.6172
  885TIP3    H2 2662   3.858   0.821   1.320  1.0213 -0.2386 -1.6842
  886TIP3   OH2 2663   3.705   2.601   4.846 -0.0497  0.5633 -0.0778
  886TIP3    H1 2664   3.627   2.626   4.895  0.0077  1.7718 -0.5748
  886TIP3    H2 2665   3.672   2.564   4.764 -0.1219  2.7276 -1.0803
  887TIP3   OH2 2666   0.252   1.110   1.097  0.0984 -0.3073 -0.7032
  887TIP3    H1 2667   0.238   1.162   1.176 -1.0414 -2.1129  0.3494
  887TIP3    H2 2668   0.344   1.125   1.075  0.7190 -0.4263  1.4980
  888TIP3   OH2 2669   3.148   5.941   1.576 -0.4893 -0.0192  0.1480
  888TIP3    H1 2670   3.138   6.013   1.639 -0.3766 -0.2598  0.4452
  888TIP3    H2 2671   3.063   5.937   1.531 -0.9302 -0.4999  0.9946
  889TIP3   OH2 2672   6.153   0.379   1.321  0.3028  0.1242  0.3406
  889TIP3    H1 2673   6.168   0.335   1.404  1.5764 -0.0505  0.0324
  889TIP3    H2 2674   6.214   0.452   1.320 -0.3972  0.7295 -0.0214
  890TIP3   OH2 2675   3.167   2.515   4.313 -0.5193  0.3900 -0.7499
  890TIP3    H1 2676   3.089   2.504   4.366 -0.6239 -1.1538 -1.1749
  890TIP3    H2 2677   3.162   2.445   4.248  0.8256  0.7347 -1.2621
  891TIP3   OH2 2678   0.653   5.624   4.955  0.1757 -0.1886 -0.4117
  891TIP3    H1 2679   0.658   5.713   4.990  0.3270 -0.3275 -0.0770
  891TIP3    H2 2680   0.617   5.572   5.026 -1.9334 -0.0346 -1.2963
  892TIP3   OH2 2681   0.258   1.450   2.928  0.0843  0.1807  0.6096
  892TIP3    H1 2682   0.169   1.451   2.962  0.4091  1.6505  1.4841
  892TIP3    H2 2683   0.248   1.444   2.833 -0.8826 -1.8065  0.7892
  893TIP3   OH2 2684   4.354   5.671   4.955 -0.0019  0.1175 -0.7638
  893TIP3    H1 2685   4.335   5.710   5.041  0.0662  0.1829 -0.7780
  893TIP3    H2 2686   4.293   5.714   4.895  0.6808  0.8642 -0.9401
  894TIP3   OH2 2687   3.833   4.122   5.006  0.3906  0.1900 -0.2623
  894TIP3    H1 2688   3.911   4.068   5.021  0.8704  1.1938  1.0823
  894TIP3    H2 2689   3.868   4.211   4.996 -0.4582  0.4096 -1.4104
  895TIP3   OH2 2690   2.932   1.802   2.701  0.7073  0.1545 -0.5493
  895TIP3    H1 2691   2.957   1.782   2.791 -0.1458 -0.0247 -0.3458
  895TIP3    H2 2692   2.856   1.747   2.684  1.1602 -0.1930 -1.5566
  896TIP3   OH2 2693   5.200   5.657   3.698 -0.0902 -0.0954 -0.1787
  896TIP3    H1 2694   5.182   5.698   3.782 -0.4711 -0.4770 -0.0756
  896TIP3    H2 2695   5.127   5.598   3.683 -0.3376  0.4251 -1.0684
  897TIP3   OH2 2696   2.364   1.677   2.223  0.1209 -0.2498 -0.6006
  897TIP3    H1 2697   2.274   1.667   2.255  0.1654 -0.0557 -0.4078
  897TIP3    H2 2698   2.403   1.740   2.284  0.0152  0.6448 -1.4441
  898TIP3   OH2 2699   2.528   0.977   3.723 -0.0783  0.4292  0.2735
  898TIP3    H1 2700   2.448   1.028   3.712  0.6571  1.4535 -0.5197
  898TIP3    H2 2701   2.509   0.893   3.681 -1.1969  0.1183  1.3287
  899TIP3   OH2 2702   4.242   3.599   3.028  0.4064  0.1848 -0.3704
  899TIP3    H1 2703   4.201   3.594   2.942 -0.9305 -0.1264  0.2686
  899TIP3    H2 2704   4.192   3.666   3.075  1.8018  1.1353 -0.1671
  900TIP3   OH2 2705   6.240   2.598   2.841  0.3778  0.5721 -0.0565
  900TIP3    H1 2706   6.265   2.514   2.878  0.1604 -0.5387 -2.2442
  900TIP3    H2 2707   6.145   2.593   2.831  0.2862  1.3302  0.3372
  901TIP3   OH2 2708   4.153   1.893   5.002 -0.6176 -0.4105 -0.2470
  901TIP3    H1 2709   4.167   1.815   4.948  0.5870 -1.0632  0.9563
  901TIP3    H2 2710   4.213   1.958   4.966 -1.6879  0.0318 -1.3100
  902TIP3   OH2 2711   4.134   2.997   2.051  0.0211 -0.1076  0.1712
  902TIP3    H1 2712   4.155   3.004   1.958 -0.7619 -1.1294 -0.0990
  902TIP3    H2 2713   4.155   3.083   2.087  0.5954  0.2080 -0.8931
  903TIP3   OH2 2714   3.221   2.022   4.026  0.0342 -0.6624 -0.1343
  903TIP3    H1 2715   3.128   2.045   4.028 -0.5448 -2.8594 -0.1591
  903TIP3    H2 2716   3.223   1.930   4.000  2.2163 -0.7287  0.1002
  904TIP3   OH2 2717   4.618   1.916   5.140  0.0928  0.4436  0.0189
  904TIP3    H1 2718   4.585   1.828   5.160  0.8496  0.3513  0.9738
  904TIP3    H2 2719   4.556   1.975   5.181  0.2494  0.3115  0.4556
  905TIP3   OH2 2720   1.597   1.025   2.150 -0.3494  0.2634  0.4406
  905TIP3    H1 2721   1.617   1.088   2.081  0.5655  1.5048  1.7728
  905TIP3    H2 2722   1.522   1.063   2.196  0.7213  0.8621  1.7681
  906TIP3   OH2 2723   2.562   4.289   2.317  0.5936  0.0877 -0.2683
  906TIP3    H1 2724   2.469   4.299   2.300 -0.1461 -0.7863  2.6602
  906TIP3    H2 2725   2.602   4.369   2.283 -1.5249  1.4564  0.3080
  907TIP3   OH2 2726   5.691   0.835   2.954 -0.3291 -0.4909  0.5605
  907TIP3    H1 2727   5.640   0.885   3.017  0.2679 -0.2836  0.8822
  907TIP3    H2 2728   5.685   0.745   2.984  0.2413 -0.3488  1.1158
  908TIP3   OH2 2729   4.085   3.173   3.729  0.1004  0.2109  0.2870
  908TIP3    H1 2730   4.167   3.207   3.763 -0.1924 -0.2407  1.5078
  908TIP3    H2 2731   4.025   3.175   3.804 -0.7861 -0.1493 -0.3889
  909TIP3   OH2 2732   3.338   5.382   0.094 -0.0570  0.6272  0.3859
  909TIP3    H1 2733   3.350   5.303   0.042 -0.3144  0.6926  0.2256
  909TIP3    H2 2734   3.273   5.358   0.160 -0.2503  0.7478  0.2415
  910TIP3   OH2 2735   6.167   3.894   0.139 -0.1646  0.2923  0.4944
  910TIP3    H1 2736   6.260   3.892   0.161  0.6131 -2.4022 -2.3251
  910TIP3    H2 2737   6.162   3.940   0.055 -1.6519  1.6776  1.2710
  911TIP3   OH2 2738   5.961   0.633   3.207 -0.8084 -0.5266 -0.3293
  911TIP3    H1 2739   6.038   0.684   3.230 -0.5449 -1.5637  1.2357
  911TIP3    H2 2740   5.973   0.549   3.252 -2.7246 -0.8119 -0.2445
  912TIP3   OH2 2741   0.208   1.120   2.496  0.4568 -0.2338  0.1768
  912TIP3    H1 2742   0.150   1.061   2.545  0.7360 -0.5149  0.1775
  912TIP3    H2 2743   0.217   1.197   2.552 -0.2738  0.0073 -0.0240
  913TIP3   OH2 2744   3.820   5.845   2.711 -0.3837 -0.4416  0.3943
  913TIP3    H1 2745   3.766   5.864   2.634 -0.8977 -2.8948  0.0485
  913TIP3    H2 2746   3.761   5.860   2.785 -1.1765 -1.7858  0.0808
  914TIP3   OH2 2747   3.633   3.342   0.615 -0.3254  0.3775 -0.1591
  914TIP3    H1 2748   3.584   3.329   0.696 -0.7901  0.1147 -0.4818
  914TIP3    H2 2749   3.648   3.437   0.610  0.1450  0.3432  0.4869
  915TIP3   OH2 2750   3.259   2.790   5.089 -0.4088  0.5652 -0.5479
  915TIP3    H1 2751   3.182   2.843   5.071  0.7596  2.8249  0.6666
  915TIP3    H2 2752   3.295   2.825   5.171  1.7123 -0.6285 -0.8651
  916TIP3   OH2 2753   2.877   1.036   2.398 -0.1037 -0.4292 -0.0601
  916TIP3    H1 2754   2.786   1.060   2.380 -0.1846 -0.5190  0.2288
  916TIP3    H2 2755   2.909   1.103   2.457  0.1725 -0.1214 -0.5540
  917TIP3   OH2 2756   3.792   1.042   3.842 -0.2208 -0.1506 -0.8488
  917TIP3    H1 2757   3.697   1.045   3.846 -0.2197 -0.1556 -0.8211
  917TIP3    H2 2758   3.811   0.955   3.807 -0.1717 -0.8540  0.8438
  918TIP3   OH2 2759   5.653   1.270   3.268 -0.3393  0.1517 -0.4077
  918TIP3    H1 2760   5.650   1.361   3.299 -1.5836  0.0579 -0.1867
  918TIP3    H2 2761   5.656   1.217   3.348 -0.7130 -0.0197 -0.5028
  919TIP3   OH2 2762   2.672   1.415   5.078  0.1461  0.5529  0.4442
  919TIP3    H1 2763   2.732   1.351   5.042 -1.0286 -0.6076  0.4887
  919TIP3    H2 2764   2.728   1.474   5.129  1.3402  0.0465 -0.2355
  920TIP3   OH2 2765   0.741   0.729   0.398 -0.0265 -0.4735 -0.6525
  920TIP3    H1 2766   0.802   0.731   0.325 -0.2895  0.5729 -0.8602
  920TIP3    H2 2767   0.787   0.773   0.469  0.5112 -2.1112  0.0769
  921TIP3   OH2 2768   1.662   2.693   2.772  0.4433  0.3591 -0.1709
  921TIP3    H1 2769   1.722   2.726   2.705 -2.2392  2.7768 -1.6206
  921TIP3    H2 2770   1.646   2.767   2.829 -0.4861 -0.4619  0.6781
  922TIP3   OH2 2771   3.777   0.928   2.840 -0.0031  0.4091  0.3481
  922TIP3    H1 2772   3.750   1.002   2.894  2.0302  1.6433 -0.2306
  922TIP3    H2 2773   3.850   0.888   2.888 -0.4759 -0.6794  0.1971
  923TIP3   OH2 2774   4.254   4.526   4.181  0.1550 -0.5151  0.8704
  923TIP3    H1 2775   4.317   4.566   4.121  0.5542 -1.6350  0.5243
  923TIP3    H2 2776   4.307   4.497   4.256 -0.3614  1.0407  1.8994
  924TIP3   OH2 2777   5.937   3.140   0.224 -0.0533 -0.2502 -0.1387
  924TIP3    H1 2778   5.923   3.213   0.164 -1.3957 -0.0544  0.3660
  924TIP3    H2 2779   5.985   3.177   0.297 -2.3098  0.6471  0.9926
  925TIP3   OH2 2780   4.635   1.803   3.060 -0.4097 -0.1350  0.2854
  925TIP3    H1 2781   4.595   1.773   3.142  2.2699  1.2909  2.2874
  925TIP3    H2 2782   4.688   1.728   3.031  0.5451  0.1542  1.2398
  926TIP3   OH2 2783   4.046   5.800   4.227 -0.0968 -0.0894 -0.0119
  926TIP3    H1 2784   4.001   5.851   4.159  1.5687  0.9264 -0.4023
  926TIP3    H2 2785   3.975   5.753   4.272 -1.4889  1.0677 -0.8940
  927TIP3   OH2 2786   2.913   4.123   0.859  0.1674  0.1166  0.2109
  927TIP3    H1 2787   2.866   4.204   0.840  1.7735  1.4420  1.5972
  927TIP3    H2 2788   2.877   4.093   0.942  0.9749  0.5421  0.7254
  928TIP3   OH2 2789   5.637   0.348   0.885  0.0413  0.1122  0.2858
  928TIP3    H1 2790   5.569   0.348   0.953  0.2783 -1.1082  0.5493
  928TIP3    H2 2791   5.703   0.409   0.917  0.6455 -1.2064  1.6960
  929TIP3   OH2 2792   1.564   1.452   1.087  0.2973  0.7048 -0.4434
  929TIP3    H1 2793   1.470   1.440   1.103  0.2482  1.6851  0.0591
  929TIP3    H2 2794   1.602   1.464   1.173  0.6533  1.8356 -0.7467
  930TIP3   OH2 2795   1.330   1.114   2.510  0.3932  0.2237 -0.0181
  930TIP3    H1 2796   1.417   1.117   2.550 -0.2427 -0.5581  1.5125
  930TIP3    H2 2797   1.290   1.036   2.547 -1.2502  1.0103 -0.0570
  931TIP3   OH2 2798   0.726   2.104   4.108 -0.6987 -0.2183  0.1572
  931TIP3    H1 2799   0.772   2.021   4.121  1.1601  0.9337  1.5112
  931TIP3    H2 2800   0.673   2.114   4.187  1.3121  1.1575  1.4224
  932TIP3   OH2 2801   0.944   2.206   0.212 -0.1686 -0.5284  0.1871
  932TIP3    H1 2802   0.929   2.263   0.136 -0.9243 -0.8033  0.1250
  932TIP3    H2 2803   1.039   2.208   0.225  0.0961 -1.4053 -1.4821
  933TIP3   OH2 2804   0.405   3.322   4.573  0.0428  0.0710 -0.4916
  933TIP3    H1 2805   0.322   3.286   4.542  0.8434 -1.0462 -1.4080
  933TIP3    H2 2806   0.380   3.394   4.631 -1.5486  0.5081 -1.6587
  934TIP3   OH2 2807   5.172   4.249   0.091 -0.0000 -0.1854  0.3537
  934TIP3    H1 2808   5.124   4.203   0.161 -0.1988 -1.3242 -0.4960
  934TIP3    H2 2809   5.228   4.181   0.053  1.6131  0.9050  0.7088
  935TIP3   OH2 2810   0.291   2.559   2.621 -0.5243 -0.1863  0.3111
  935TIP3    H1 2811   0.243   2.613   2.685 -2.0120 -0.4565 -0.5306
  935TIP3    H2 2812   0.223   2.504   2.580  0.4952 -0.5105 -1.0118
  936TIP3   OH2 2813   5.662   1.111   3.048  0.4910 -0.2677 -0.6336
  936TIP3    H1 2814   5.655   1.181   3.113  3.2022 -0.1137 -0.3829
  936TIP3    H2 2815   5.744   1.129   3.002  0.5244 -2.4736 -1.5715
  937TIP3   OH2 2816   4.235   5.216   1.676 -0.1473  0.3238  0.1956
  937TIP3    H1 2817   4.168   5.211   1.744  2.2689  1.7535  2.8790
  937TIP3    H2 2818   4.245   5.310   1.659  1.6434  0.2174  0.4458
  938TIP3   OH2 2819   1.305   4.584   2.653 -0.5131 -0.5081  0.0730
  938TIP3    H1 2820   1.316   4.535   2.735  0.2450  1.3946  1.1810
  938TIP3    H2 2821   1.293   4.675   2.682 -1.5488  0.0306 -1.9022
  939TIP3   OH2 2822   0.619   1.082   2.255  0.0520  0.0649 -0.1516
  939TIP3    H1 2823   0.560   1.154   2.275  1.1808  0.8402  0.5235
  939TIP3    H2 2824   0.704   1.109   2.291  0.8523 -0.9579 -1.1733
  940TIP3   OH2 2825   5.467   0.385   3.361  0.5410  0.2699 -0.3759
  940TIP3    H1 2826   5.380   0.346   3.360  0.3760  0.6125  0.1959
  940TIP3    H2 2827   5.527   0.311   3.362  0.2299  0.0042  0.8797
  941TIP3   OH2 2828   0.878   1.683   2.762 -0.0806  1.1068 -0.4465
  941TIP3    H1 2829   0.964   1.673   2.804 -0.1977 -2.1605 -0.7481
  941TIP3    H2 2830   0.817   1.690   2.836  0.1639 -0.0315 -0.1077
  942TIP3   OH2 2831   4.690   0.894   1.976  0.4635 -0.6328  0.4311
  942TIP3    H1 2832   4.635   0.936   1.909  1.1670  1.0320  0.8454
  942TIP3    H2 2833   4.696   0.802   1.948 -1.2820 -0.5269 -0.4167
  943TIP3   OH2 2834   3.070   0.978   2.671  0.3285  0.1163  0.8345
  943TIP3    H1 2835   3.108   0.969   2.583  0.9620 -1.1685  1.2123
  943TIP3    H2 2836   3.019   1.059   2.667  1.6994  0.9686 -0.2227
  944TIP3   OH2 2837   0.135   2.665   0.190  0.2326 -0.2741  0.3488
  944TIP3    H1 2838   0.154   2.578   0.153 -0.4723 -0.6923  0.9372
  944TIP3    H2 2839   0.095   2.714   0.119  1.4884 -0.1012 -0.2705
  945TIP3   OH2 2840   5.191   4.787   0.960  0.0158  0.6786 -0.6398
  945TIP3    H1 2841   5.152   4.705   0.930  1.9758 -1.0037  1.1136
  945TIP3    H2 2842   5.116   4.844   0.978 -1.6071 -1.8049  1.0010
  946TIP3   OH2 2843   5.167   2.613   0.418 -0.4770  0.3415  0.0481
  946TIP3    H1 2844   5.101   2.648   0.357 -0.1846 -0.4811 -0.7583
  946TIP3    H2 2845   5.155   2.665   0.497 -0.6874  1.6450 -0.7935
  947TIP3   OH2 2846   5.400   0.376   4.326  0.7565 -0.1466  0.3871
  947TIP3    H1 2847   5.445   0.302   4.285  1.1569 -0.2327  0.9678
  947TIP3    H2 2848   5.331   0.336   4.378 -1.4509  0.0741 -2.1689
  948TIP3   OH2 2849   3.862   0.580   3.955 -0.1235 -0.4970  0.3690
  948TIP3    H1 2850   3.846   0.670   3.985  0.5788 -0.0651 -0.4796
  948TIP3    H2 2851   3.957   0.570   3.960  0.0100 -0.4752 -1.4078
  949TIP3   OH2 2852   5.297   1.930   2.116 -0.4657  0.0052  0.6190
  949TIP3    H1 2853   5.290   1.871   2.190  0.5627 -0.5514  0.2937
  949TIP3    H2 2854   5.387   1.962   2.119 -0.6371  0.5726  0.0540
  950TIP3   OH2 2855   1.291   2.078   3.321 -0.2752  0.0463 -0.4528
  950TIP3    H1 2856   1.357   2.122   3.374 -0.7974  1.2209 -0.7405
  950TIP3    H2 2857   1.235   2.149   3.288 -1.7543 -0.9088 -0.1113
  951TIP3   OH2 2858   0.294   5.618   0.552 -0.1398 -0.0938  0.1923
  951TIP3    H1 2859   0.217   5.569   0.523 -0.1984 -0.2604  0.6336
  951TIP3    H2 2860   0.258   5.697   0.592 -0.1245 -0.6145  1.2588
  952TIP3   OH2 2861   2.674   2.121   3.944 -0.1469  0.2444 -0.7000
  952TIP3    H1 2862   2.634   2.034   3.937 -1.6580  0.7506  0.7319
  952TIP3    H2 2863   2.613   2.179   3.899 -1.2469  1.0598  1.6414
  953TIP3   OH2 2864   2.570   3.995   3.021  0.4234  0.3216 -0.1278
  953TIP3    H1 2865   2.523   3.987   3.104  0.5295  0.1585 -0.0850
  953TIP3    H2 2866   2.662   3.999   3.045  0.4168  0.9176 -0.1964
  954TIP3   OH2 2867   6.067   0.722   1.083 -0.1198 -0.4778 -0.0260
  954TIP3    H1 2868   6.090   0.689   0.997 -0.5118  0.4004 -0.4824
  954TIP3    H2 2869   5.973   0.702   1.092 -0.2625  0.1330 -0.1344
  955TIP3   OH2 2870   2.125   3.443   2.418 -0.0002  0.6000 -0.2757
  955TIP3    H1 2871   2.072   3.384   2.364  1.5664 -0.0159 -1.2036
  955TIP3    H2 2872   2.103   3.531   2.387 -0.2388  0.3344 -0.8591
  956TIP3   OH2 2873   2.408   4.591   3.077  0.0770  0.5945  0.4264
  956TIP3    H1 2874   2.428   4.662   3.016  1.3907 -0.2196 -0.1308
  956TIP3    H2 2875   2.390   4.516   3.021  1.8724 -0.3104  1.0034
  957TIP3   OH2 2876   5.085   1.478   3.842  0.9027 -0.1185  0.1203
  957TIP3    H1 2877   5.134   1.409   3.888  0.4562  0.1393  0.9943
  957TIP3    H2 2878   5.130   1.486   3.757  1.6768 -0.6723  0.4627
  958TIP3   OH2 2879   3.464   3.549   2.392  0.6654 -0.1165 -0.5218
  958TIP3    H1 2880   3.378   3.576   2.424  1.0299  0.0396  0.3505
  958TIP3    H2 2881   3.456   3.455   2.378  1.1006 -0.6337  2.1561
  959TIP3   OH2 2882   0.187   0.982   4.721 -0.2678  0.0871  0.6632
  959TIP3    H1 2883   0.229   0.906   4.762  1.4971  0.1887 -0.7982
  959TIP3    H2 2884   0.115   1.005   4.779  1.0115 -0.8525  2.7177
  960TIP3   OH2 2885   3.533   1.713   2.323  0.4554 -0.0129  0.3401
  960TIP3    H1 2886   3.575   1.745   2.243 -0.0144  1.3475  0.6089
  960TIP3    H2 2887   3.525   1.791   2.379  0.0138 -0.7731  1.3717
  961TIP3   OH2 2888   3.257   4.895   3.121  0.6313 -0.1227  0.3583
  961TIP3    H1 2889   3.167   4.885   3.091  0.9760 -0.1300 -0.7025
  961TIP3    H2 2890   3.276   4.988   3.110  0.9299 -0.2176  0.0434
  962TIP3   OH2 2891   4.731   0.116   4.824  0.0744  0.1405  0.6792
  962TIP3    H1 2892   4.702   0.179   4.759 -1.2965 -0.1155  1.0090
  962TIP3    H2 2893   4.680   0.138   4.903  0.2860 -0.7623  1.0805
  963TIP3   OH2 2894   2.100   2.877   2.185 -0.2125  0.2028 -0.3796
  963TIP3    H1 2895   2.021   2.929   2.169 -0.7880 -0.8849 -1.1943
  963TIP3    H2 2896   2.116   2.886   2.279 -0.5894  1.4263 -0.4131
  964TIP3   OH2 2897   2.647   1.602   1.888 -0.0806 -0.0841  0.4643
  964TIP3    H1 2898   2.641   1.695   1.868 -0.0545  0.4374  2.6672
  964TIP3    H2 2899   2.558   1.577   1.913  0.0329 -0.5110  0.4520
  965TIP3   OH2 2900   5.430   1.323   0.021 -0.3481  0.3820  0.2885
  965TIP3    H1 2901   5.351   1.269   0.019 -0.5718  0.5889  1.8909
  965TIP3    H2 2902   5.499   1.265  -0.012 -1.1487  0.1917 -1.1033
  966TIP3   OH2 2903   3.610   3.396   5.029  0.5258  1.0821  0.5519
  966TIP3    H1 2904   3.679   3.453   4.997  0.7594 -0.1691 -1.3530
  966TIP3    H2 2905   3.598   3.331   4.959 -0.3228 -0.6732  2.2313
  967TIP3   OH2 2906   2.857   5.146   3.609 -0.6013 -0.2415  0.2104
  967TIP3    H1 2907   2.873   5.056   3.639  0.6725  0.1996  0.9632
  967TIP3    H2 2908   2.787   5.178   3.666  1.3329  0.3557  2.4334
  968TIP3   OH2 2909   0.059   1.847   4.444 -0.2311 -0.2116  0.4393
  968TIP3    H1 2910   0.111   1.769   4.464 -0.7197 -0.2429  1.6944
  968TIP3    H2 2911   0.051   1.847   4.349  2.4763  0.0763  0.1240
  969TIP3   OH2 2912   5.011   3.327   2.076 -0.3470 -0.5925  0.5719
  969TIP3    H1 2913   5.039   3.256   2.018 -0.3576 -4.0660  4.3870
  969TIP3    H2 2914   5.092   3.363   2.110 -0.3761 -0.8465  0.9081
  970TIP3   OH2 2915   1.296   5.668   1.934  0.9088 -0.6094 -0.2117
  970TIP3    H1 2916   1.283   5.759   1.905  0.8552 -0.8320 -0.8919
  970TIP3    H2 2917   1.336   5.624   1.859 -0.5245 -1.5368 -0.4638
  971TIP3   OH2 2918   4.486   3.014   0.193  0.1713 -0.3475 -0.0140
  971TIP3    H1 2919   4.458   3.071   0.121 -0.6097  1.2237  1.4716
  971TIP3    H2 2920   4.535   2.944   0.150 -0.4606  0.4088 -2.0894
  972TIP3   OH2 2921   1.483   4.580   3.408  0.4382  0.2544  0.4868
  972TIP3    H1 2922   1.410   4.585   3.346  0.3031 -0.8994  0.5389
  972TIP3    H2 2923   1.506   4.671   3.424  0.3578  0.5898 -1.1126
  973TIP3   OH2 2924   5.842   2.679   3.969 -0.1157 -0.2139  0.1794
  973TIP3    H1 2925   5.924   2.679   3.920 -0.5120  0.5320 -0.5308
  973TIP3    H2 2926   5.861   2.728   4.049 -0.1118  0.8882 -0.4670
  974TIP3   OH2 2927   4.154   4.553   4.624 -0.3768  0.4671 -0.3523
  974TIP3    H1 2928   4.174   4.646   4.630 -0.0961  0.5022 -1.5759
  974TIP3    H2 2929   4.225   4.516   4.572 -1.1132 -0.1979 -0.9250
  975TIP3   OH2 2930   3.276   0.424   1.519  0.3214 -0.0562 -0.3455
  975TIP3    H1 2931   3.266   0.332   1.496  0.5441 -0.7570  2.0586
  975TIP3    H2 2932   3.190   0.462   1.505  0.1999 -0.6454 -1.2514
  976TIP3   OH2 2933   4.961   3.575   4.624  0.3779 -0.0326  0.1434
  976TIP3    H1 2934   5.003   3.591   4.539  2.5160 -0.1786  1.0941
  976TIP3    H2 2935   5.022   3.613   4.687 -0.0815 -1.8126  1.7429
  977TIP3   OH2 2936   1.539   2.497   2.487 -0.6351  0.3576  0.2831
  977TIP3    H1 2937   1.565   2.572   2.540 -0.3758  0.0823  0.5500
  977TIP3    H2 2938   1.580   2.422   2.530 -2.3562 -0.1766  1.0787
  978TIP3   OH2 2939   1.770   2.303   2.901 -0.2229  0.2410  0.2109
  978TIP3    H1 2940   1.786   2.369   2.968 -0.8959 -0.1004  0.7334
  978TIP3    H2 2941   1.701   2.248   2.938  0.9742 -1.3429  0.2126
  979TIP3   OH2 2942   5.279   1.146   4.428 -0.3195 -0.9516  0.2403
  979TIP3    H1 2943   5.334   1.090   4.373  0.2951 -2.1006  1.9605
  979TIP3    H2 2944   5.339   1.187   4.489 -0.9399  0.6704 -0.1725
  980TIP3   OH2 2945   0.310   3.986   1.810 -0.5586  0.5325 -0.0937
  980TIP3    H1 2946   0.277   4.037   1.884 -0.3726  0.4905  0.0197
  980TIP3    H2 2947   0.231   3.960   1.761 -1.2369 -3.3398  2.5596
  981TIP3   OH2 2948   0.683   4.897   2.336  0.0613 -0.2655  0.2179
  981TIP3    H1 2949   0.686   4.820   2.393 -0.1316 -0.4059  0.0403
  981TIP3    H2 2950   0.656   4.968   2.393 -1.1582 -0.6032  0.1015
  982TIP3   OH2 2951   4.665   2.658   4.964 -0.6661  0.6962  0.1487
  982TIP3    H1 2952   4.668   2.751   4.941 -0.1158  0.8817  0.9130
  982TIP3    H2 2953   4.723   2.617   4.900  0.0518  1.0602  0.5490
  983TIP3   OH2 2954   5.691   4.219   3.031 -0.3591 -0.5836 -0.0774
  983TIP3    H1 2955   5.695   4.271   2.951 -1.6650 -0.8201 -0.3252
  983TIP3    H2 2956   5.598   4.223   3.057  0.1218 -0.0756  1.7089
  984TIP3   OH2 2957   1.021   0.169   4.201 -0.0432  0.2311 -0.1754
  984TIP3    H1 2958   1.105   0.179   4.155  0.2326  1.0741  0.4852
  984TIP3    H2 2959   1.017   0.245   4.259 -1.1854  0.0962 -0.0655
  985TIP3   OH2 2960   6.193   4.863   2.878  0.6474 -0.2331 -0.7986
  985TIP3    H1 2961   6.180   4.911   2.797  2.6737  2.1418  0.1491
  985TIP3    H2 2962   6.139   4.908   2.943  0.3061 -1.0846 -0.4709
  986TIP3   OH2 2963   3.874   2.439   2.037 -0.7032  0.4249  0.0902
  986TIP3    H1 2964   3.957   2.486   2.026  0.8720 -1.7690  1.6766
  986TIP3    H2 2965   3.830   2.485   2.109 -0.1671  0.7612  0.2124
  987TIP3   OH2 2966   1.642   3.433   2.341 -0.0222 -0.0756 -0.1876
  987TIP3    H1 2967   1.695   3.448   2.419  0.0047  1.2119 -0.4410
  987TIP3    H2 2968   1.572   3.498   2.346  0.4388  0.5646 -1.6240
  988TIP3   OH2 2969   5.569   1.993   4.700  0.7020  0.0411  0.6042
  988TIP3    H1 2970   5.660   1.986   4.728  1.0155  0.0191 -0.3874
  988TIP3    H2 2971   5.569   1.959   4.611 -0.0770  1.0785  0.1916
  989TIP3   OH2 2972   5.066   2.852   2.164 -0.2743 -0.1683 -0.4115
  989TIP3    H1 2973   5.070   2.811   2.250 -0.0347  0.2502 -0.2264
  989TIP3    H2 2974   4.982   2.822   2.128 -1.8927  2.0468  1.1822
  990TIP3   OH2 2975   2.575   3.674   3.169  0.0828  0.8478 -0.1909
  990TIP3    H1 2976   2.562   3.762   3.205 -0.4341  0.4753  0.5436
  990TIP3    H2 2977   2.668   3.656   3.185  0.0399  1.0029  0.2426
  991TIP3   OH2 2978   3.646   5.863   4.970  0.0593 -0.4279 -0.3222
  991TIP3    H1 2979   3.673   5.830   5.056 -0.5058 -0.6736 -0.2392
  991TIP3    H2 2980   3.551   5.871   4.975  0.1692  1.3952 -0.2672
  992TIP3   OH2 2981   6.370   4.601   4.669  0.2454  0.2159  0.0127
  992TIP3    H1 2982   6.327   4.538   4.612 -0.5266  0.8456 -0.1278
  992TIP3    H2 2983   6.298   4.649   4.710  0.7946  0.0609  1.1996
  993TIP3   OH2 2984   4.727   1.392   2.700 -0.0141 -0.5700 -0.1545
  993TIP3    H1 2985   4.638   1.359   2.712 -0.0963  0.1038  1.3050
  993TIP3    H2 2986   4.716   1.476   2.655 -0.4291  0.9229  2.4681
  994TIP3   OH2 2987   2.913   1.979   1.708  0.2436  0.3829  0.4934
  994TIP3    H1 2988   2.868   2.063   1.696 -1.7985 -0.6457  0.5280
  994TIP3    H2 2989   2.932   1.949   1.619 -1.3022 -0.2497  0.3479
  995TIP3   OH2 2990   3.288   4.312   3.241  0.1651  0.0303  0.0790
  995TIP3    H1 2991   3.197   4.338   3.257  0.2180 -0.6325  1.5732
  995TIP3    H2 2992   3.340   4.372   3.294  0.5756  0.0503 -0.3377
  996TIP3   OH2 2993   2.981   0.408   1.189  0.3974 -0.6516  0.5013
  996TIP3    H1 2994   3.013   0.318   1.181 -1.2340 -1.1477 -1.4922
  996TIP3    H2 2995   2.889   0.403   1.160  0.5219  1.7826 -0.5516
  997TIP3   OH2 2996   3.573   3.280   0.875  0.0779 -0.3123  0.0966
  997TIP3    H1 2997   3.558   3.356   0.931  0.4781  0.3745 -0.7180
  997TIP3    H2 2998   3.494   3.228   0.884 -0.5278  0.5871  0.0556
  998TIP3   OH2 2999   3.658   0.242   1.959 -0.0744 -0.4327  0.6677
  998TIP3    H1 3000   3.656   0.338   1.957  1.3630 -0.3868  0.8609
  998TIP3    H2 3001   3.739   0.220   2.005  0.0818 -1.7552 -0.1878
  999TIP3   OH2 3002   2.349   4.373   2.908 -0.5437  0.0763  0.3122
  999TIP3    H1 3003   2.295   4.332   2.840 -1.4884  1.9414 -0.1306
  999TIP3    H2 3004   2.434   4.331   2.899 -0.6904  0.1178 -1.9305
 1000TIP3   OH2 3005   2.446   2.316   4.158 -0.0712 -0.7462 -0.6451
 1000TIP3    H1 3006   2.537   2.340   4.140  0.3959 -1.5309  0.5494
 1000TIP3    H2 3007   2.407   2.395   4.195  0.4960 -0.7859  0.0538
 1001TIP3   OH2 3008   3.652   2.137   0.461 -0.2716  0.3110 -0.1195
 1001TIP3    H1 3009   3.571   2.149   0.511  0.4968 -0.9861  1.5345
 1001TIP3    H2 3010   3.689   2.055   0.494  0.9022  0.0056 -2.0185
 1002TIP3   OH2 3011   1.311   5.492   3.225  0.2908  0.3106  0.2778
 1002TIP3    H1 3012   1.345   5.416   3.272  0.1190 -0.4276 -0.7349
 1002TIP3    H2 3013   1.320   5.565   3.286  3.5968  0.1636  0.1388
 1003TIP3   OH2 3014   4.151   1.722   2.058 -0.6378 -0.2984  0.5572
 1003TIP3    H1 3015   4.239   1.750   2.035 -0.3062 -0.3439  1.6861
 1003TIP3    H2 3016   4.151   1.628   2.043 -0.7552 -0.1840 -0.2031
 1004TIP3   OH2 3017   2.807   3.493   2.133 -0.7092 -0.8163 -0.3784
 1004TIP3    H1 3018   2.782   3.553   2.203  0.4465 -2.0431  1.1895
 1004TIP3    H2 3019   2.903   3.497   2.132 -0.7036 -1.0393 -1.7119
 1005TIP3   OH2 3020   5.919   2.552   4.254  0.2615  0.0948 -0.0079
 1005TIP3    H1 3021   5.871   2.486   4.305 -1.3343  0.2060 -1.2871
 1005TIP3    H2 3022   6.005   2.513   4.240 -0.2663 -1.2308  0.2498
 1006TIP3   OH2 3023   5.110   5.081   4.662  0.6753 -0.4837 -1.0917
 1006TIP3    H1 3024   5.052   5.026   4.714  0.0600  0.6264 -0.5770
 1006TIP3    H2 3025   5.058   5.107   4.586  0.8793 -0.4073 -1.2070
 1007TIP3   OH2 3026   4.412   4.535   3.882  0.1244  0.1842  0.1349
 1007TIP3    H1 3027   4.332   4.523   3.830 -0.7671 -0.7993  1.6716
 1007TIP3    H2 3028   4.461   4.455   3.868  0.3222  0.3118  0.0975
 1008TIP3   OH2 3029   2.489   3.601   4.176  0.8735 -0.1548  0.3511
 1008TIP3    H1 3030   2.412   3.612   4.232  0.5025  3.0364 -0.6130
 1008TIP3    H2 3031   2.455   3.605   4.087  2.0208 -0.1544 -0.1092
 1009TIP3   OH2 3032   4.302   0.839   1.232  0.6558  0.1549  0.6239
 1009TIP3    H1 3033   4.360   0.822   1.159 -0.7460 -2.4038 -0.0389
 1009TIP3    H2 3034   4.215   0.845   1.193 -0.1531 -1.4410  2.0222
 1010TIP3   OH2 3035   3.309   2.256   1.070  0.0245 -0.0113  0.0488
 1010TIP3    H1 3036   3.302   2.161   1.082  0.2438  0.0825  1.0161
 1010TIP3    H2 3037   3.391   2.279   1.114 -0.0163  0.6247 -0.2028
 1011TIP3   OH2 3038   6.044   3.280   1.547 -0.6523  0.0408 -0.5062
 1011TIP3    H1 3039   6.059   3.299   1.640  0.0896 -0.3897 -0.5370
 1011TIP3    H2 3040   5.961   3.323   1.528 -1.4295 -0.8508  0.6635
 1012TIP3   OH2 3041   4.164   2.101   1.203  0.1816 -0.1057 -0.0514
 1012TIP3    H1 3042   4.180   2.041   1.130 -0.0700 -0.0479 -0.1524
 1012TIP3    H2 3043   4.069   2.106   1.210  0.2044 -0.3763  0.4998
 1013TIP3   OH2 3044   4.036   5.736   1.265  0.3828 -0.2514 -0.5026
 1013TIP3    H1 3045   4.073   5.701   1.184 -0.0224  0.6079 -1.0786
 1013TIP3    H2 3046   4.096   5.708   1.334  1.2746 -0.1491 -1.2269
 1014TIP3   OH2 3047   3.601   5.681   3.458 -0.2330 -0.3993  0.3515
 1014TIP3    H1 3048   3.562   5.654   3.542 -0.9139  0.0666  0.1893
 1014TIP3    H2 3049   3.578   5.610   3.398 -2.0612  0.4900 -0.0850
 1015TIP3   OH2 3050   0.546   4.710   3.931 -0.1881  0.1243  0.2549
 1015TIP3    H1 3051   0.599   4.632   3.916 -0.6432 -0.3514  1.0387
 1015TIP3    H2 3052   0.598   4.782   3.896  0.7056 -0.4004  0.4845
 1016TIP3   OH2 3053   4.610   3.729   1.110 -0.1423 -0.2457  0.1220
 1016TIP3    H1 3054   4.539   3.673   1.078 -1.3501 -0.7190  3.2568
 1016TIP3    H2 3055   4.673   3.668   1.149 -1.3775  0.3314  3.4078
 1017TIP3   OH2 3056   5.126   5.661   3.236  0.7720 -0.4360  0.0076
 1017TIP3    H1 3057   5.194   5.700   3.181  1.1848  1.2540  1.6048
 1017TIP3    H2 3058   5.045   5.703   3.206  1.0611  0.8567  0.9257
 1018TIP3   OH2 3059   3.469   3.557   1.560 -0.1371 -0.1760  0.5661
 1018TIP3    H1 3060   3.502   3.591   1.477  0.9019  2.8872  2.0652
 1018TIP3    H2 3061   3.392   3.506   1.536  0.7515 -0.3599 -2.3277
 1019TIP3   OH2 3062   5.877   1.075   1.208 -0.0606 -0.0197  0.1959
 1019TIP3    H1 3063   5.791   1.115   1.190 -0.1354 -0.3056 -0.1025
 1019TIP3    H2 3064   5.931   1.100   1.133  0.2397  0.4921  0.5753
 1020TIP3   OH2 3065   5.774   2.078   3.748 -0.1758 -0.5731 -0.1804
 1020TIP3    H1 3066   5.693   2.095   3.796  0.8808  0.8059  1.2332
 1020TIP3    H2 3067   5.786   2.154   3.692 -1.3404 -2.1191 -2.7277
 1021TIP3   OH2 3068   2.372   4.575   4.876  0.9334  0.3479  0.1123
 1021TIP3    H1 3069   2.335   4.551   4.792  2.2975 -3.1561  0.3640
 1021TIP3    H2 3070   2.304   4.553   4.940  0.9098  0.4154  0.1105
 1022TIP3   OH2 3071   2.769   1.856   2.389  0.8953 -0.1851  0.0285
 1022TIP3    H1 3072   2.732   1.788   2.445  1.3323 -1.3259 -0.9981
 1022TIP3    H2 3073   2.739   1.939   2.426  0.4081 -0.9414  1.3618
 1023TIP3   OH2 3074   4.851   3.108   0.565  0.0297 -0.0203  0.3281
 1023TIP3    H1 3075   4.793   3.033   0.551  0.6339 -0.0658 -2.6777
 1023TIP3    H2 3076   4.796   3.184   0.551  0.1219  0.0025  0.0827
 1024TIP3   OH2 3077   2.894   5.660   0.332 -0.5901  0.0697 -0.4466
 1024TIP3    H1 3078   2.876   5.645   0.239  1.8536  0.5160 -1.0759
 1024TIP3    H2 3079   2.855   5.745   0.351  0.4045  0.8212 -1.6007
 1025TIP3   OH2 3080   4.135   2.435   1.600  0.4724 -0.4161 -0.3637
 1025TIP3    H1 3081   4.177   2.381   1.534 -1.3247 -0.3142 -1.6674
 1025TIP3    H2 3082   4.121   2.520   1.557 -1.3026 -0.5463 -0.1173
 1026TIP3   OH2 3083   6.229   4.996   2.593  0.2098  0.1416 -0.3077
 1026TIP3    H1 3084   6.214   5.084   2.628  1.6056 -0.4130  1.9331
 1026TIP3    H2 3085   6.324   4.983   2.602 -0.2747 -2.7092  2.5176
 1027TIP3   OH2 3086   1.838   5.845   0.701 -0.1742  0.3302  0.0211
 1027TIP3    H1 3087   1.798   5.813   0.621 -0.7286  0.0685  0.3966
 1027TIP3    H2 3088   1.878   5.768   0.741  0.7040  0.5849 -0.3405
 1028TIP3   OH2 3089   0.425   2.273   4.130  0.4600  0.9330 -0.1771
 1028TIP3    H1 3090   0.368   2.281   4.207  0.0409  1.1514 -0.5004
 1028TIP3    H2 3091   0.364   2.253   4.058  1.0198 -0.9129 -0.1734
 1029TIP3   OH2 3092   3.494   5.541   0.613  0.5205  0.8139 -0.6412
 1029TIP3    H1 3093   3.482   5.555   0.707 -0.4211 -0.4696 -0.5442
 1029TIP3    H2 3094   3.562   5.474   0.607  0.9877  1.3006 -0.9119
 1030TIP3   OH2 3095   5.496   3.369   4.786  0.1141 -0.6062 -0.3783
 1030TIP3    H1 3096   5.436   3.405   4.851  1.8093 -0.2419  1.0542
 1030TIP3    H2 3097   5.459   3.284   4.763 -0.5608 -0.6976  0.9952
 1031TIP3   OH2 3098   1.767   3.931   4.358 -0.2930  0.4163 -0.0859
 1031TIP3    H1 3099   1.750   3.926   4.264 -1.6555 -1.0837  0.2023
 1031TIP3    H2 3100   1.714   4.004   4.388  1.9295  2.4615 -0.7692
 1032TIP3   OH2 3101   3.150   2.332   4.128 -0.0425  0.0745 -0.1995
 1032TIP3    H1 3102   3.182   2.320   4.039  2.0134  0.5965  0.3907
 1032TIP3    H2 3103   3.102   2.252   4.149 -0.2673 -0.1857 -1.6515
 1033TIP3   OH2 3104   2.089   4.795   5.038  0.0653 -0.1256  0.4118
 1033TIP3    H1 3105   2.065   4.783   4.947  0.3085  1.0587  0.1765
 1033TIP3    H2 3106   2.055   4.717   5.082 -0.9448 -0.2340 -0.5101
 1034TIP3   OH2 3107   4.146   1.245   3.580 -0.5467 -0.2583  0.0130
 1034TIP3    H1 3108   4.225   1.265   3.530  0.1855 -0.8550  0.9031
 1034TIP3    H2 3109   4.089   1.321   3.565  0.0249 -0.0017 -0.9600
 1035TIP3   OH2 3110   0.789   5.536   3.590 -0.3072 -0.0517  0.2745
 1035TIP3    H1 3111   0.788   5.632   3.590 -1.6690 -0.0492  0.4891
 1035TIP3    H2 3112   0.698   5.511   3.574 -0.0396 -1.3139  0.6165
 1036TIP3   OH2 3113   0.126   5.165   0.166  0.1414  0.8840  0.3399
 1036TIP3    H1 3114   0.046   5.196   0.208 -0.7161  0.3302 -0.8406
 1036TIP3    H2 3115   0.186   5.239   0.173 -0.0664  0.9277  2.2076
 1037TIP3   OH2 3116   6.119   4.324   2.894 -0.4016 -0.1472  0.7964
 1037TIP3    H1 3117   6.093   4.363   2.978  1.8083  1.6023  0.7438
 1037TIP3    H2 3118   6.123   4.230   2.913 -1.3670  0.0591  2.2296
 1038TIP3   OH2 3119   4.345   0.530   1.033 -0.3087 -0.0241 -0.4349
 1038TIP3    H1 3120   4.399   0.609   1.031 -1.0532  0.4827 -1.0569
 1038TIP3    H2 3121   4.404   0.462   1.066 -0.2363  1.2206  2.3056
 1039TIP3   OH2 3122   1.346   5.692   3.960  0.5614  0.0582  0.0238
 1039TIP3    H1 3123   1.286   5.742   3.905 -0.8563 -1.8160 -0.2012
 1039TIP3    H2 3124   1.344   5.737   4.045 -3.4730 -1.4777  0.9684
 1040TIP3   OH2 3125   0.505   3.088   1.171 -0.2765 -0.2420 -0.2333
 1040TIP3    H1 3126   0.507   3.070   1.077  0.2031 -2.5607  0.1662
 1040TIP3    H2 3127   0.467   3.010   1.210 -0.3530  0.6252  1.5441
 1041TIP3   OH2 3128   3.923   2.971   1.106 -0.0802 -0.6618 -0.2163
 1041TIP3    H1 3129   3.883   3.048   1.066 -0.3984 -0.7001  0.0245
 1041TIP3    H2 3130   3.854   2.905   1.106  0.1809 -0.9364 -0.3881
 1042TIP3   OH2 3131   0.076   2.267   3.386  0.0251 -0.0472 -0.5781
 1042TIP3    H1 3132   0.069   2.206   3.312 -3.0408 -1.1410  0.4662
 1042TIP3    H2 3133   0.037   2.348   3.354 -0.0778 -0.0912 -0.5635
 1043TIP3   OH2 3134   4.785   4.479   2.257  0.1074 -0.2497 -0.3208
 1043TIP3    H1 3135   4.821   4.455   2.172 -0.4545 -0.0662 -0.6174
 1043TIP3    H2 3136   4.692   4.454   2.252  0.2438 -0.9663  0.5185
 1044TIP3   OH2 3137   2.645   2.351   1.288  0.3919  0.3210  0.5834
 1044TIP3    H1 3138   2.591   2.430   1.292  1.1256  0.7983  1.7651
 1044TIP3    H2 3139   2.663   2.330   1.380  3.3461  1.0004  0.2615
 1045TIP3   OH2 3140   4.875   3.760   0.058 -0.6126  0.1387 -0.0412
 1045TIP3    H1 3141   4.799   3.818   0.066 -0.8302 -0.1899  0.3002
 1045TIP3    H2 3142   4.950   3.820   0.057 -0.9049  0.5136 -1.1212
 1046TIP3   OH2 3143   3.740   3.644   4.241  0.1885  0.0694  0.1854
 1046TIP3    H1 3144   3.834   3.655   4.258  0.2144  2.5546 -1.0461
 1046TIP3    H2 3145   3.734   3.640   4.145 -0.8612 -1.7020  0.2946
 1047TIP3   OH2 3146   0.151   2.830   4.368 -0.3751 -0.2970  0.0789
 1047TIP3    H1 3147   0.089   2.759   4.381  1.2787 -1.8839 -0.2051
 1047TIP3    H2 3148   0.101   2.910   4.382 -2.9059 -1.3990 -1.9075
 1048TIP3   OH2 3149   4.874   0.355   1.074 -0.0669  0.7863 -0.3199
 1048TIP3    H1 3150   4.880   0.361   1.169  0.5493  1.2879 -0.3853
 1048TIP3    H2 3151   4.958   0.318   1.047 -0.5164 -0.0273 -0.6147
 1049TIP3   OH2 3152   6.037   0.104   2.832  0.0568 -0.0399  0.0896
 1049TIP3    H1 3153   6.080   0.033   2.784 -2.6157 -0.7346 -1.4726
 1049TIP3    H2 3154   6.068   0.184   2.790 -3.0181 -0.6228 -3.9139
 1050TIP3   OH2 3155   3.069   2.729   0.772  0.2768 -0.0462  0.5082
 1050TIP3    H1 3156   2.996   2.766   0.822 -0.2246  0.2537 -0.4176
 1050TIP3    H2 3157   3.048   2.636   0.764 -0.1279  0.0821  0.0438
 1051TIP3   OH2 3158   6.296   3.404   4.332 -0.1324 -0.3971  0.4351
 1051TIP3    H1 3159   6.268   3.403   4.424 -0.4877  0.4009  0.3421
 1051TIP3    H2 3160   6.220   3.369   4.285  0.3724 -1.6603  0.5128
 1052TIP3   OH2 3161   0.698   3.440   4.254  0.4209  0.3583  0.0359
 1052TIP3    H1 3162   0.696   3.365   4.313  0.4457  1.7618  1.8929
 1052TIP3    H2 3163   0.638   3.503   4.293  0.2595  1.2576 -1.5835
 1053TIP3   OH2 3164   6.234   5.663   3.340  0.1933  0.0832  0.1477
 1053TIP3    H1 3165   6.248   5.730   3.407 -0.7038  1.5100 -1.0409
 1053TIP3    H2 3166   6.140   5.645   3.342  0.2203 -0.1545 -0.4680
 1054TIP3   OH2 3167   2.005   4.020   4.137  0.2930  0.4448 -0.1113
 1054TIP3    H1 3168   1.999   3.926   4.119 -0.3313  0.6093 -0.8430
 1054TIP3    H2 3169   2.094   4.044   4.111  0.4080  0.0844 -0.0586
 1055TIP3   OH2 3170   3.135   3.403   3.749 -0.0943  0.0263  0.4722
 1055TIP3    H1 3171   3.168   3.380   3.662 -1.2555  1.3360 -0.3583
 1055TIP3    H2 3172   3.059   3.346   3.761 -0.1004  0.0415  0.5034
 1056TIP3   OH2 3173   5.207   3.295   4.609  0.0859 -0.5590  0.4250
 1056TIP3    H1 3174   5.179   3.291   4.517  0.5808  1.0352  0.1734
 1056TIP3    H2 3175   5.285   3.239   4.613  0.8681  0.4391 -0.4567
 1057TIP3   OH2 3176   5.276   2.831   1.907 -0.6219 -0.5978  0.0600
 1057TIP3    H1 3177   5.361   2.799   1.877 -0.8029  0.4803 -1.7125
 1057TIP3    H2 3178   5.268   2.796   1.996  2.2089  0.2912  0.7662
 1058TIP3   OH2 3179   6.043   4.804   3.925 -0.1808  0.2395  0.5289
 1058TIP3    H1 3180   6.116   4.807   3.987  1.0375 -1.4946 -0.7066
 1058TIP3    H2 3181   5.986   4.734   3.958 -1.0994  1.2901  1.2453
 1059TIP3   OH2 3182   6.140   4.891   5.065 -0.5802  0.3317 -0.2102
 1059TIP3    H1 3183   6.234   4.895   5.051 -0.4179  2.2759  1.0574
 1059TIP3    H2 3184   6.107   4.836   4.994  1.5062 -0.5566 -0.5620
 1060TIP3   OH2 3185   2.118   5.944   2.243  0.4274 -0.4307  0.3161
 1060TIP3    H1 3186   2.105   5.852   2.221  2.2381 -0.7799  0.5759
 1060TIP3    H2 3187   2.040   5.988   2.210 -1.1283 -2.2327  1.4191
 1061TIP3   OH2 3188   5.740   1.560   3.309 -0.2536 -0.0891  0.2496
 1061TIP3    H1 3189   5.732   1.650   3.277 -1.2808 -0.6611 -1.1845
 1061TIP3    H2 3190   5.816   1.562   3.367  0.2869  1.5133 -0.4643
 1062TIP3   OH2 3191   3.328   1.777   0.925 -0.0302  0.1511  0.3879
 1062TIP3    H1 3192   3.303   1.688   0.903  0.9697 -0.1088  0.2338
 1062TIP3    H2 3193   3.278   1.832   0.866  0.0320 -0.3562 -0.1433
 1063TIP3   OH2 3194   2.271   1.506   1.604  0.4720 -0.2275 -0.2827
 1063TIP3    H1 3195   2.193   1.457   1.629  0.6764 -0.6873 -0.5413
 1063TIP3    H2 3196   2.345   1.452   1.632  0.7194  0.7861  1.1009
 1064TIP3   OH2 3197   4.886   5.367   4.105  0.9198  0.1734 -0.3565
 1064TIP3    H1 3198   4.863   5.360   4.013  1.0740 -1.7515 -0.2858
 1064TIP3    H2 3199   4.802   5.373   4.151  0.7268 -1.1011 -0.4978
 1065TIP3   OH2 3200   1.165   3.909   1.311 -0.3909  0.5555 -0.0769
 1065TIP3    H1 3201   1.093   3.962   1.345  1.3708  2.2603  1.2947
 1065TIP3    H2 3202   1.205   3.870   1.388 -0.6331 -1.4949 -0.9345
 1066TIP3   OH2 3203   0.685   1.671   0.443  0.0966  0.0123 -0.4088
 1066TIP3    H1 3204   0.777   1.696   0.455  0.0766 -0.8283  2.1857
 1066TIP3    H2 3205   0.687   1.582   0.409  0.3496 -0.9391  1.9234
 1067TIP3   OH2 3206   6.138   2.767   4.623  0.1715  0.6482 -0.0612
 1067TIP3    H1 3207   6.090   2.850   4.614  0.4981  0.8299 -0.1246
 1067TIP3    H2 3208   6.219   2.790   4.669  0.0625  0.2872  0.3167
 1068TIP3   OH2 3209   5.555   2.210   3.861 -0.2603 -0.0852 -0.0665
 1068TIP3    H1 3210   5.572   2.185   3.952  1.0605  0.8571 -0.0320
 1068TIP3    H2 3211   5.533   2.303   3.866  0.4936  0.1325 -0.7903
 1069TIP3   OH2 3212   4.474   3.985   4.741 -0.1783  0.0225  0.5212
 1069TIP3    H1 3213   4.485   3.892   4.723  0.5867  0.0232  0.9321
 1069TIP3    H2 3214   4.381   4.002   4.727 -0.4116 -0.9048  0.9083
 1070TIP3   OH2 3215   5.257   2.317   3.211 -0.2144  0.5146 -0.0410
 1070TIP3    H1 3216   5.253   2.356   3.124  0.0531 -1.2317 -0.8694
 1070TIP3    H2 3217   5.262   2.223   3.195  0.3330  0.1863  1.8593
 1071TIP3   OH2 3218   0.302   3.543   4.703 -0.4035  0.3959 -0.6800
 1071TIP3    H1 3219   0.340   3.596   4.772 -1.9383 -0.4261  0.8850
 1071TIP3    H2 3220   0.258   3.606   4.646 -0.5179  0.9737  0.0271
 1072TIP3   OH2 3221   4.954   0.668   1.091 -0.1874  0.4401 -0.2945
 1072TIP3    H1 3222   5.034   0.705   1.126 -0.1585  1.3637 -1.2724
 1072TIP3    H2 3223   4.983   0.598   1.032 -0.0683  0.9717 -0.8791
 1073TIP3   OH2 3224   1.075   4.362   3.786 -0.5557 -0.3291 -0.1920
 1073TIP3    H1 3225   1.014   4.421   3.829 -1.3841 -0.8831 -0.5915
 1073TIP3    H2 3226   1.141   4.420   3.748 -1.7715  0.4147 -1.2456
 1074TIP3   OH2 3227   2.734   2.582   0.634 -0.1426 -0.4348 -0.2775
 1074TIP3    H1 3228   2.736   2.581   0.729 -0.0352  0.2838 -0.2611
 1074TIP3    H2 3229   2.707   2.494   0.609  1.5487 -1.1961  0.3660
 1075TIP3   OH2 3230   4.936   2.838   1.544  0.3369  0.2683  0.4828
 1075TIP3    H1 3231   4.986   2.920   1.550 -0.4805  0.8059  0.1475
 1075TIP3    H2 3232   4.876   2.841   1.618  1.7427 -1.0580  1.7388
 1076TIP3   OH2 3233   1.473   2.187   0.810  0.4045 -0.2381  0.4842
 1076TIP3    H1 3234   1.450   2.279   0.823 -1.4837 -0.2118 -2.2211
 1076TIP3    H2 3235   1.390   2.140   0.819  0.7871 -1.2862 -1.0619
 1077TIP3   OH2 3236   2.761   3.281   4.266  0.5551  0.1187 -0.4043
 1077TIP3    H1 3237   2.723   3.212   4.320 -1.1328  2.0355  1.0141
 1077TIP3    H2 3238   2.794   3.236   4.188  0.6553 -2.4000  0.9981
 1078TIP3   OH2 3239   3.837   3.296   1.434 -0.0403 -0.0778  0.0211
 1078TIP3    H1 3240   3.927   3.271   1.411 -0.7402 -1.0776 -1.8881
 1078TIP3    H2 3241   3.791   3.213   1.443 -1.4019  0.3948 -1.9237
 1079TIP3   OH2 3242   4.371   2.271   3.529 -0.5655 -0.6307  0.1400
 1079TIP3    H1 3243   4.424   2.315   3.462 -1.6141 -0.1288 -0.3905
 1079TIP3    H2 3244   4.435   2.226   3.584  0.2919 -1.6181 -1.5847
 1080TIP3   OH2 3245   4.529   1.657   1.501 -0.6390  0.0588 -0.2190
 1080TIP3    H1 3246   4.592   1.590   1.475 -1.5411 -0.6782 -0.5489
 1080TIP3    H2 3247   4.559   1.737   1.458  0.2502 -0.2098 -0.1021
 1081TIP3   OH2 3248   0.986   2.637   3.020 -0.4386 -0.2276 -0.1341
 1081TIP3    H1 3249   0.966   2.549   2.988  0.7933 -1.9257  3.2298
 1081TIP3    H2 3250   1.082   2.640   3.021 -0.4491  1.4311 -0.6925
 1082TIP3   OH2 3251   0.986   1.597   3.669 -0.3177 -0.0753 -0.0538
 1082TIP3    H1 3252   0.950   1.607   3.581 -2.0583 -0.5015  0.5591
 1082TIP3    H2 3253   0.992   1.686   3.703  0.3128  0.0865 -0.5675
 1083TIP3   OH2 3254   1.129   3.715   4.917 -0.1253  0.0417  0.0854
 1083TIP3    H1 3255   1.192   3.737   4.849  1.3148 -0.2702  1.2648
 1083TIP3    H2 3256   1.160   3.632   4.953  0.6004  1.3443  2.7335
 1084TIP3   OH2 3257   1.355   4.639   4.287  0.7376 -0.3631  0.0101
 1084TIP3    H1 3258   1.412   4.578   4.332 -0.5176 -1.6159 -0.0204
 1084TIP3    H2 3259   1.375   4.626   4.194  1.0863 -0.0925  0.0475
 1085TIP3   OH2 3260   5.217   3.654   0.187 -0.7120  0.1563  0.3277
 1085TIP3    H1 3261   5.156   3.616   0.251 -1.3912  0.7536  0.0530
 1085TIP3    H2 3262   5.176   3.736   0.161 -0.1114  0.2441 -0.3756
 1086TIP3   OH2 3263   5.910   1.414   3.519 -0.3259 -0.2368  0.1578
 1086TIP3    H1 3264   6.002   1.439   3.523 -0.2993 -0.0024 -1.4754
 1086TIP3    H2 3265   5.864   1.489   3.556  0.0982 -0.1225  0.4678
 1087TIP3   OH2 3266   1.941   1.655   0.961  0.8625  0.1761  0.6026
 1087TIP3    H1 3267   1.945   1.687   1.052  0.9904  0.3472  0.5384
 1087TIP3    H2 3268   1.884   1.579   0.965 -0.9346  1.4400  0.4649
 1088TIP3   OH2 3269   4.310   1.327   3.357  0.3443  0.5023  0.4211
 1088TIP3    H1 3270   4.275   1.239   3.349 -0.4118  0.6375  1.8600
 1088TIP3    H2 3271   4.351   1.345   3.272  1.2954 -1.5477  0.3930
 1089TIP3   OH2 3272   1.311   4.813   5.133 -0.3184 -0.3917  0.0557
 1089TIP3    H1 3273   1.354   4.858   5.061  2.5698 -0.5463  1.5612
 1089TIP3    H2 3274   1.221   4.798   5.101  0.3550  0.9524 -2.8169
 1090TIP3   OH2 3275   0.664   5.871   4.511 -0.5939 -0.0137 -0.1380
 1090TIP3    H1 3276   0.708   5.842   4.590 -1.3377  0.4605  0.4722
 1090TIP3    H2 3277   0.591   5.810   4.500 -0.7776  0.2124 -0.1819
 1091TIP3   OH2 3278   1.331   1.971   4.978  0.7756 -0.2232 -0.3847
 1091TIP3    H1 3279   1.393   1.899   4.984  2.2929  0.9679 -1.1103
 1091TIP3    H2 3280   1.340   2.004   4.889 -2.9512 -1.7047 -1.5032
 1092TIP3   OH2 3281   5.891   0.556   1.265  0.5041  0.3445 -0.3682
 1092TIP3    H1 3282   5.923   0.634   1.310 -0.1807 -0.5772  1.8571
 1092TIP3    H2 3283   5.932   0.483   1.311 -0.7252 -0.6734 -0.8350
 1093TIP3   OH2 3284   2.177   4.496   5.034  0.1563  0.6249 -0.2143
 1093TIP3    H1 3285   2.204   4.552   5.107 -0.8098 -1.2541  1.6873
 1093TIP3    H2 3286   2.243   4.427   5.031  0.5538  1.0354 -1.6026
 1094TIP3   OH2 3287   4.445   3.511   0.945  0.4341 -0.0186  0.0305
 1094TIP3    H1 3288   4.503   3.440   0.917 -0.3712 -0.2984 -1.0123
 1094TIP3    H2 3289   4.404   3.478   1.025  0.7931 -0.3253  0.0910
 1095TIP3   OH2 3290   0.528   0.220   1.371 -0.3280 -0.0808 -0.6049
 1095TIP3    H1 3291   0.502   0.143   1.421 -2.6964  1.7820  1.2631
 1095TIP3    H2 3292   0.572   0.276   1.434  1.6294  0.0482 -2.0069
 1096TIP3   OH2 3293   1.365   2.449   3.122 -0.0745  0.3029  0.1393
 1096TIP3    H1 3294   1.399   2.489   3.202 -1.9539  2.1355  0.1082
 1096TIP3    H2 3295   1.437   2.456   3.059  2.0904 -2.7408  2.0050
 1097TIP3   OH2 3296   2.938   0.045   3.619 -0.1993  0.8650 -0.0288
 1097TIP3    H1 3297   2.921   0.076   3.708  0.4026  1.6587 -0.1833
 1097TIP3    H2 3298   2.979   0.119   3.575  1.6661 -0.2561 -0.2876
 1098TIP3   OH2 3299   5.688   3.654   4.007  0.0449  0.0051  0.2144
 1098TIP3    H1 3300   5.738   3.641   4.088  1.0931 -0.1920 -0.4318
 1098TIP3    H2 3301   5.716   3.740   3.976  1.0968 -0.7103 -0.8902
 1099TIP3   OH2 3302   4.039   2.986   4.711  0.6054  0.1771 -0.1789
 1099TIP3    H1 3303   4.049   2.954   4.800  2.6319 -0.6629 -0.6456
 1099TIP3    H2 3304   3.972   2.931   4.672  0.0830  0.2088  0.6608
 1100TIP3   OH2 3305   5.361   1.167   2.687  0.2393  0.6551 -0.1247
 1100TIP3    H1 3306   5.271   1.139   2.670  0.3495 -1.4939  2.2170
 1100TIP3    H2 3307   5.386   1.120   2.767  3.3032  1.5238 -0.4388
 1101TIP3   OH2 3308   5.322   1.708   0.667  0.0717  0.7181  0.3493
 1101TIP3    H1 3309   5.283   1.727   0.581 -3.9841 -3.3529  0.8897
 1101TIP3    H2 3310   5.398   1.653   0.647 -1.0881 -0.5685 -0.7217
 1102TIP3   OH2 3311   4.979   3.404   3.586  0.8210  0.2643 -0.4761
 1102TIP3    H1 3312   4.957   3.313   3.569 -0.8173  0.7996 -1.4448
 1102TIP3    H2 3313   5.064   3.401   3.629  0.9877 -1.6914 -0.8750
 1103TIP3   OH2 3314   4.144   5.856   3.854 -0.2459  0.4027 -0.6050
 1103TIP3    H1 3315   4.097   5.774   3.840  0.5910 -0.0451 -0.9190
 1103TIP3    H2 3316   4.084   5.911   3.904 -1.3362  0.0994 -1.5513
 1104TIP3   OH2 3317   5.735   0.017   2.028  0.1340  0.1044 -0.0137
 1104TIP3    H1 3318   5.755   0.075   2.101  1.8835  0.0261 -0.3953
 1104TIP3    H2 3319   5.789   0.049   1.956 -2.0748  0.6293 -1.5477
 1105TIP3   OH2 3320   3.515   4.249   2.331  0.4743  0.9342 -0.3637
 1105TIP3    H1 3321   3.450   4.179   2.326  1.8373 -0.3649 -0.8280
 1105TIP3    H2 3322   3.599   4.203   2.335  1.3365  2.5191  1.4109
 1106TIP3   OH2 3323   3.366   2.924   3.481  0.1152  0.0786 -0.3166
 1106TIP3    H1 3324   3.309   2.954   3.551 -0.3990 -1.2201 -0.1430
 1106TIP3    H2 3325   3.455   2.932   3.517 -0.1649 -0.9555  0.6506
 1107TIP3   OH2 3326   0.475   4.700   0.708 -0.1747 -0.0183 -0.1820
 1107TIP3    H1 3327   0.433   4.775   0.666  0.7219  1.1148  0.8909
 1107TIP3    H2 3328   0.509   4.734   0.790 -0.6349 -1.8446  0.8215
 1108TIP3   OH2 3329   4.105   1.231   4.896  0.0510  0.4918  0.3732
 1108TIP3    H1 3330   4.158   1.265   4.824  1.1838 -0.1138  0.8823
 1108TIP3    H2 3331   4.045   1.302   4.918  0.1382  0.9236 -0.7328
 1109TIP3   OH2 3332   3.005   2.504   3.392 -0.1024 -0.4545 -0.0839
 1109TIP3    H1 3333   2.924   2.554   3.388 -0.5794 -0.7811  3.0360
 1109TIP3    H2 3334   3.074   2.569   3.380 -0.7751  0.2179 -0.3754
 1110TIP3   OH2 3335   1.379   0.917   1.071  0.1852 -0.5030 -0.7673
 1110TIP3    H1 3336   1.380   1.006   1.035  1.3593 -1.3424 -2.9663
 1110TIP3    H2 3337   1.288   0.904   1.099 -0.1157  1.2083 -0.8303
 1111TIP3   OH2 3338   3.055   1.105   3.011 -0.1317 -0.2881  0.1998
 1111TIP3    H1 3339   2.991   1.164   2.970  1.2985 -0.5546 -2.6888
 1111TIP3    H2 3340   3.132   1.160   3.024  0.6902 -1.0882 -1.0784
 1112TIP3   OH2 3341   4.476   2.083   1.541 -0.0854 -0.1128 -0.3561
 1112TIP3    H1 3342   4.546   2.067   1.604 -0.9212 -0.3312  0.5419
 1112TIP3    H2 3343   4.494   2.022   1.469 -0.4690 -1.6384  0.7847
 1113TIP3   OH2 3344   0.272   1.084   1.570 -0.3785  0.1969 -0.8681
 1113TIP3    H1 3345   0.239   1.140   1.641  1.4917  0.5293 -0.2074
 1113TIP3    H2 3346   0.234   1.122   1.491 -0.1850  1.6591 -0.3075
 1114TIP3   OH2 3347   4.145   0.332   1.049  0.5142 -0.5814  0.3057
 1114TIP3    H1 3348   4.120   0.322   0.957 -1.7693  0.4347  0.7599
 1114TIP3    H2 3349   4.208   0.405   1.049 -0.7541  0.5648 -0.3082
 1115TIP3   OH2 3350   5.691   5.310   0.295 -0.4649 -0.5103 -0.3168
 1115TIP3    H1 3351   5.699   5.406   0.301 -2.1686 -0.3560 -0.1235
 1115TIP3    H2 3352   5.766   5.277   0.344  1.4332  0.6861 -2.2222
 1116TIP3   OH2 3353   0.761   4.885   3.850  0.5857 -0.2718  0.1838
 1116TIP3    H1 3354   0.783   4.970   3.813 -0.5979  0.6006  1.3795
 1116TIP3    H2 3355   0.826   4.872   3.920  0.4278 -0.0815  0.3678
 1117TIP3   OH2 3356   2.188   5.162   1.862  0.1507 -0.5620 -0.2677
 1117TIP3    H1 3357   2.098   5.185   1.884  0.1623 -0.0712 -0.6935
 1117TIP3    H2 3358   2.230   5.147   1.946 -0.3841 -1.0110 -0.0798
 1118TIP3   OH2 3359   5.280   5.130   1.125 -0.3857 -0.1710  0.2038
 1118TIP3    H1 3360   5.327   5.088   1.054 -0.7876  0.8837 -0.7102
 1118TIP3    H2 3361   5.192   5.092   1.121 -0.9490  1.1561 -1.0448
 1119TIP3   OH2 3362   1.929   5.596   3.380 -0.0089  0.0559  0.5249
 1119TIP3    H1 3363   1.965   5.607   3.292  1.5086 -1.1472  0.9459
 1119TIP3    H2 3364   1.970   5.665   3.432  1.6432 -1.2060  0.9651
 1120TIP3   OH2 3365   3.040   2.954   5.127  0.0806 -0.3536  0.0901
 1120TIP3    H1 3366   3.054   3.022   5.061 -0.3284 -1.1538 -0.8388
 1120TIP3    H2 3367   2.959   2.980   5.171  0.6917  0.5255  0.7300
 1121TIP3   OH2 3368   3.555   4.414   4.143 -0.0482 -0.1912  0.3113
 1121TIP3    H1 3369   3.624   4.393   4.079 -0.4497 -1.9400  0.4066
 1121TIP3    H2 3370   3.557   4.341   4.205  0.0467  1.2539  2.1010
 1122TIP3   OH2 3371   4.771   2.498   2.373 -0.9258 -0.9284  0.3455
 1122TIP3    H1 3372   4.757   2.463   2.285  1.0562  3.0775 -1.7881
 1122TIP3    H2 3373   4.720   2.579   2.376 -0.7014 -0.7864  2.8090
 1123TIP3   OH2 3374   3.924   5.727   0.553 -0.3751 -0.2341  0.7163
 1123TIP3    H1 3375   3.888   5.816   0.554 -0.1503 -0.1438  1.0696
 1123TIP3    H2 3376   3.950   5.710   0.644  0.5548 -0.2493  0.4646
 1124TIP3   OH2 3377   5.110   0.960   4.043 -0.3149 -0.6579  0.2641
 1124TIP3    H1 3378   5.106   0.970   4.138  0.6794  1.4947  0.1524
 1124TIP3    H2 3379   5.179   0.896   4.028  1.3862  0.9042  1.0054
 1125TIP3   OH2 3380   5.130   5.762   0.324 -0.3452 -0.1328  0.3788
 1125TIP3    H1 3381   5.079   5.746   0.404 -1.3703  0.4249 -0.1431
 1125TIP3    H2 3382   5.150   5.674   0.291 -1.7618 -0.3719  0.1142
 1126TIP3   OH2 3383   2.654   0.928   0.894  0.3995 -0.3098  0.0936
 1126TIP3    H1 3384   2.692   0.941   0.807 -2.7291  0.0462 -1.3722
 1126TIP3    H2 3385   2.602   0.847   0.885  0.0646 -0.2836  1.6338
 1127TIP3   OH2 3386   0.519   2.173   3.239 -0.1563  0.4281 -0.2725
 1127TIP3    H1 3387   0.543   2.166   3.332 -0.3921 -0.0323 -0.2426
 1127TIP3    H2 3388   0.530   2.265   3.218 -1.7885  0.8783  0.6788
 1128TIP3   OH2 3389   5.324   4.561   1.462 -0.6508  0.4710  0.2288
 1128TIP3    H1 3390   5.359   4.498   1.399 -0.6036  1.1553 -0.4415
 1128TIP3    H2 3391   5.325   4.514   1.546  1.0490  0.1713  0.0795
 1129TIP3   OH2 3392   5.034   4.585   3.063 -0.6170  0.0639  0.3770
 1129TIP3    H1 3393   5.127   4.604   3.081 -0.0251 -2.6624  0.6605
 1129TIP3    H2 3394   5.034   4.552   2.973 -1.1345 -0.8001  0.6827
 1130TIP3   OH2 3395   4.338   3.591   2.352  0.1269  0.4671 -0.0170
 1130TIP3    H1 3396   4.253   3.554   2.376 -0.5329  0.9219 -1.5303
 1130TIP3    H2 3397   4.402   3.536   2.397 -0.9653  0.4646  1.6195
 1131TIP3   OH2 3398   6.299   5.963   0.219 -0.2828 -0.2597 -0.7618
 1131TIP3    H1 3399   6.258   6.014   0.150  0.5776  0.7455 -0.5579
 1131TIP3    H2 3400   6.287   5.872   0.192 -1.5508  0.0442 -1.2990
 1132TIP3   OH2 3401   2.649   0.931   1.739  0.0750  0.3801 -0.1373
 1132TIP3    H1 3402   2.687   0.898   1.820 -0.1537  0.8454  0.1630
 1132TIP3    H2 3403   2.713   0.909   1.672 -0.6406 -1.8190 -0.1580
 1133TIP3   OH2 3404   1.568   1.980   2.373 -0.0830  0.0373  0.5326
 1133TIP3    H1 3405   1.541   1.969   2.464 -0.2232 -1.6002  0.3126
 1133TIP3    H2 3406   1.662   1.995   2.378 -0.4768  2.8273  1.0997
 1134TIP3   OH2 3407   3.847   2.347   3.886  0.1411 -0.0850  0.0240
 1134TIP3    H1 3408   3.906   2.314   3.954  1.8024 -0.1521 -1.3766
 1134TIP3    H2 3409   3.761   2.314   3.911  0.8561 -0.9143  1.5628
 1135TIP3   OH2 3410   1.323   5.571   0.924  0.1485  0.1376 -0.4714
 1135TIP3    H1 3411   1.296   5.510   0.856  1.0919 -0.3813 -0.3979
 1135TIP3    H2 3412   1.403   5.533   0.960  0.1395  0.8524  0.3346
 1136TIP3   OH2 3413   1.191   1.199   4.569 -0.0195  0.3441  0.3740
 1136TIP3    H1 3414   1.170   1.171   4.658 -1.0277  1.0488  0.3704
 1136TIP3    H2 3415   1.283   1.225   4.574  0.4889 -1.4105  0.7453
 1137TIP3   OH2 3416   3.745   5.446   3.310  0.0377  0.2195  0.1720
 1137TIP3    H1 3417   3.766   5.393   3.233  1.1879  1.5291 -0.4578
 1137TIP3    H2 3418   3.830   5.478   3.341 -0.6233  1.8360  0.4001
 1138TIP3   OH2 3419   5.586   1.065   3.509  0.0051 -0.4629  0.2648
 1138TIP3    H1 3420   5.630   0.994   3.463 -0.4587 -0.5322 -0.0809
 1138TIP3    H2 3421   5.590   1.041   3.601 -0.4545 -1.1116  0.1181
 1139TIP3   OH2 3422   3.439   5.013   2.233  0.2891 -0.2848  0.2807
 1139TIP3    H1 3423   3.419   4.983   2.144 -0.3960  0.0362  0.3174
 1139TIP3    H2 3424   3.455   4.933   2.282 -2.5255 -0.7514  0.6255
 1140TIP3   OH2 3425   3.756   2.269   0.738  0.3251  0.6900 -1.2092
 1140TIP3    H1 3426   3.815   2.257   0.664  1.4624  2.8329 -0.7383
 1140TIP3    H2 3427   3.687   2.326   0.704 -0.9491 -0.8921 -1.4369
 1141TIP3   OH2 3428   4.429   3.510   3.245  0.2712  0.2178  0.0262
 1141TIP3    H1 3429   4.360   3.515   3.179  2.0270 -0.0046 -1.8909
 1141TIP3    H2 3430   4.496   3.454   3.207  1.1959 -0.2473  2.1739
 1142TIP3   OH2 3431   1.769   2.547   5.020  0.9852 -0.4932 -0.0475
 1142TIP3    H1 3432   1.815   2.630   5.034  0.4184  0.0960 -1.4906
 1142TIP3    H2 3433   1.747   2.517   5.108  0.7499  1.1540  0.4965
 1143TIP3   OH2 3434   4.906   0.238   5.170  0.4430 -0.1658 -0.1971
 1143TIP3    H1 3435   4.958   0.213   5.094 -1.4525  0.7583 -1.8888
 1143TIP3    H2 3436   4.890   0.156   5.216  1.4205 -0.7916 -0.9240
 1144TIP3   OH2 3437   2.537   4.047   4.736 -0.1526  0.1692  0.3351
 1144TIP3    H1 3438   2.489   4.089   4.665 -0.4206  1.3212  1.1704
 1144TIP3    H2 3439   2.470   4.026   4.801  0.3165  0.7853  1.0312
 1145TIP3   OH2 3440   0.506   1.604   0.662 -0.7195  0.2781 -0.0552
 1145TIP3    H1 3441   0.562   1.661   0.611 -0.8018  0.1846 -0.2517
 1145TIP3    H2 3442   0.458   1.553   0.597  0.6828 -1.3383  0.1021
 1146TIP3   OH2 3443   3.311   2.108   1.612 -0.3315  0.3158 -0.0071
 1146TIP3    H1 3444   3.266   2.184   1.574 -0.5081  1.1743  1.8396
 1146TIP3    H2 3445   3.374   2.145   1.673 -0.6540 -1.0254  1.1973
 1147TIP3   OH2 3446   2.920   1.220   3.261  0.5974  0.0657 -0.0605
 1147TIP3    H1 3447   2.972   1.149   3.223  0.3535 -0.7177  0.9973
 1147TIP3    H2 3448   2.983   1.273   3.309  0.3561 -1.5720  2.2472
 1148TIP3   OH2 3449   3.066   6.013   3.853 -0.4670  0.2886 -0.0431
 1148TIP3    H1 3450   3.051   5.949   3.923 -1.2727 -0.8318 -1.1986
 1148TIP3    H2 3451   3.017   5.979   3.779  0.3707  1.4520 -1.1656
 1149TIP3   OH2 3452   1.745   5.203   0.396 -0.5642 -0.3341  0.5054
 1149TIP3    H1 3453   1.781   5.188   0.483 -0.4277 -1.0335  0.3390
 1149TIP3    H2 3454   1.755   5.119   0.351 -1.7942 -0.3552  0.2328
 1150TIP3   OH2 3455   6.131   1.591   3.155  0.0125 -0.0877 -0.0162
 1150TIP3    H1 3456   6.062   1.525   3.157 -3.0386  2.4747 -4.3104
 1150TIP3    H2 3457   6.112   1.647   3.230 -0.7788 -1.0282  0.5100
 1151TIP3   OH2 3458   4.701   1.873   1.100 -0.4214 -0.9523 -0.4531
 1151TIP3    H1 3459   4.668   1.928   1.029 -0.4713  0.3650  0.5275
 1151TIP3    H2 3460   4.786   1.843   1.070  0.5398  1.3448 -0.2829
 1152TIP3   OH2 3461   3.383   0.570   3.988  0.1016 -0.3701  0.1362
 1152TIP3    H1 3462   3.382   0.608   3.900  0.1559 -0.6630  0.0062
 1152TIP3    H2 3463   3.323   0.496   3.982 -0.7356  0.2567  0.6447
 1153TIP3   OH2 3464   1.763   0.226   0.626 -0.5738  0.3120  0.6349
 1153TIP3    H1 3465   1.737   0.165   0.695 -0.6455 -1.0321 -0.5138
 1153TIP3    H2 3466   1.856   0.209   0.613 -0.7031  0.0584 -0.0283
 1154TIP3   OH2 3467   2.800   4.575   4.440 -0.3875 -0.5709  0.1339
 1154TIP3    H1 3468   2.831   4.600   4.353 -1.0038  1.1536  0.3694
 1154TIP3    H2 3469   2.879   4.571   4.494 -0.2311  0.6953  0.0209
 1155TIP3   OH2 3470   4.567   3.476   0.385  0.4662 -0.1009 -0.3045
 1155TIP3    H1 3471   4.592   3.509   0.299  0.6673  0.2383 -0.1193
 1155TIP3    H2 3472   4.518   3.548   0.425 -0.2627 -0.5285 -0.4172
 1156TIP3   OH2 3473   6.244   4.819   3.604 -0.0860  0.0010  0.6416
 1156TIP3    H1 3474   6.152   4.835   3.580  0.2568  0.7402 -0.2183
 1156TIP3    H2 3475   6.290   4.810   3.521  1.0848  2.3502  0.9422
 1157TIP3   OH2 3476   3.376   0.941   4.073  0.1998 -0.2034 -0.6657
 1157TIP3    H1 3477   3.384   1.025   4.119 -1.5521 -0.4789  0.2435
 1157TIP3    H2 3478   3.392   0.875   4.141  0.5527 -0.6120 -1.1417
 1158TIP3   OH2 3479   2.360   3.933   0.625  0.3641  0.1468 -0.2610
 1158TIP3    H1 3480   2.304   3.921   0.702  1.3333  0.5679  0.5390
 1158TIP3    H2 3481   2.343   4.023   0.596  0.7458  0.3405  0.0986
 1159TIP3   OH2 3482   3.157   2.279   4.504  0.5848  0.8060 -0.5659
 1159TIP3    H1 3483   3.084   2.329   4.468 -0.1712  1.2679  1.4784
 1159TIP3    H2 3484   3.230   2.341   4.509  0.1434  1.2573  0.4020
 1160TIP3   OH2 3485   3.166   0.357   1.972  0.0652 -0.5816 -0.3209
 1160TIP3    H1 3486   3.126   0.366   2.059 -0.3401  1.2174 -0.6418
 1160TIP3    H2 3487   3.092   0.362   1.911  0.4662 -0.4523 -0.8089
 1161TIP3   OH2 3488   2.130   1.089   4.338 -0.4237  0.1840 -0.1436
 1161TIP3    H1 3489   2.188   1.128   4.404  1.2733  0.5874 -1.7931
 1161TIP3    H2 3490   2.064   1.043   4.389  0.3255  1.1942  1.8440
 1162TIP3   OH2 3491   1.901   2.801   4.997 -0.1105 -0.3293 -0.3987
 1162TIP3    H1 3492   1.869   2.846   5.076  0.0826 -1.2387  0.2071
 1162TIP3    H2 3493   1.953   2.868   4.952 -1.2851  0.5847 -0.4262
 1163TIP3   OH2 3494   5.482   0.292   0.652 -0.5020 -0.2792 -0.0283
 1163TIP3    H1 3495   5.557   0.312   0.708  1.0807 -0.1228 -2.1003
 1163TIP3    H2 3496   5.441   0.216   0.693  0.0985  0.3086  1.7559
 1164TIP3   OH2 3497   4.011   5.550   3.375 -0.6233  0.1733  0.1810
 1164TIP3    H1 3498   4.017   5.464   3.416  0.5984  1.2375  2.4339
 1164TIP3    H2 3499   4.101   5.575   3.356 -0.9695  0.8786 -0.6490
 1165TIP3   OH2 3500   1.752   1.876   1.275  0.0593  0.5355  0.1036
 1165TIP3    H1 3501   1.687   1.932   1.318 -1.1425 -0.7754  0.0698
 1165TIP3    H2 3502   1.836   1.919   1.293 -0.4555  0.5299  3.0102
 1166TIP3   OH2 3503   1.609   4.560   1.283  0.1283 -0.5083  0.1649
 1166TIP3    H1 3504   1.536   4.546   1.222  0.1533 -0.1735  0.0581
 1166TIP3    H2 3505   1.569   4.603   1.358  0.2717 -0.0553 -0.0201
 1167TIP3   OH2 3506   1.517   5.541   2.242 -0.4236  0.5785  0.1785
 1167TIP3    H1 3507   1.526   5.467   2.181  0.3359  0.2183  0.7088
 1167TIP3    H2 3508   1.430   5.530   2.280 -0.6813  0.4863 -0.4267
 1168TIP3   OH2 3509   4.778   4.060   1.246  0.6653  0.5915 -0.4594
 1168TIP3    H1 3510   4.873   4.067   1.250  0.6030  1.1224  0.2513
 1168TIP3    H2 3511   4.756   3.990   1.307  0.5758  0.6861 -0.3825
 1169TIP3   OH2 3512   5.901   4.313   1.726  0.2527 -0.0038  0.1163
 1169TIP3    H1 3513   5.891   4.245   1.658 -0.0795  0.1269  0.0353
 1169TIP3    H2 3514   5.957   4.272   1.792 -0.7175 -0.7036  0.5218
 1170TIP3   OH2 3515   4.694   3.019   3.803 -0.9097 -0.2433 -0.2267
 1170TIP3    H1 3516   4.785   2.993   3.807 -0.9826 -0.4312  0.3365
 1170TIP3    H2 3517   4.693   3.109   3.836 -0.9055 -0.1852 -0.3857
 1171TIP3   OH2 3518   3.858   1.148   3.283 -0.2190 -0.0323  0.4878
 1171TIP3    H1 3519   3.935   1.097   3.259 -0.2301 -0.0527  0.4952
 1171TIP3    H2 3520   3.856   1.146   3.378  0.4689  1.0091  0.5457
 1172TIP3   OH2 3521   0.921   3.324   3.925  0.2424 -0.3932 -0.0103
 1172TIP3    H1 3522   0.825   3.318   3.928  0.0696  1.7028 -0.1760
 1172TIP3    H2 3523   0.951   3.259   3.989 -1.3284 -0.2866  0.8927
 1173TIP3   OH2 3524   4.634   1.920   0.657 -0.1033 -0.1243  0.4985
 1173TIP3    H1 3525   4.632   1.835   0.615 -3.0035 -0.2103  0.6355
 1173TIP3    H2 3526   4.680   1.977   0.595 -0.3858 -1.2195 -0.7569
 1174TIP3   OH2 3527   4.152   2.936   3.568  0.1244  0.2024  0.1195
 1174TIP3    H1 3528   4.148   2.851   3.612  2.8288 -0.6400 -1.0646
 1174TIP3    H2 3529   4.101   2.994   3.624 -1.9938 -2.1999  0.8723
 1175TIP3   OH2 3530   0.840   4.585   1.249 -0.0324 -0.4894 -0.0326
 1175TIP3    H1 3531   0.906   4.652   1.265 -0.8014 -0.0325  1.4074
 1175TIP3    H2 3532   0.873   4.507   1.293  1.5500 -1.5941 -2.8685
 1176TIP3   OH2 3533   2.538   1.251   2.726  0.4807 -0.0449  0.3143
 1176TIP3    H1 3534   2.464   1.227   2.782  0.6992 -0.1542  0.5609
 1176TIP3    H2 3535   2.592   1.308   2.781 -0.9234  2.5816 -0.8050
 1177TIP3   OH2 3536   0.268   1.999   3.763 -0.4710 -0.0336 -0.3913
 1177TIP3    H1 3537   0.285   2.066   3.829 -0.8703  0.8416 -1.1521
 1177TIP3    H2 3538   0.292   2.040   3.680  0.2226 -1.1825 -0.7884
 1178TIP3   OH2 3539   1.084   3.927   2.392  0.2664  0.7023  0.4932
 1178TIP3    H1 3540   1.007   3.878   2.420  1.1637 -0.5900  0.7827
 1178TIP3    H2 3541   1.149   3.909   2.459  0.5908  2.4520  0.6959
 1179TIP3   OH2 3542   4.673   2.556   4.337 -0.0523 -0.5539 -0.6548
 1179TIP3    H1 3543   4.633   2.532   4.421  0.6462 -0.1911 -0.2102
 1179TIP3    H2 3544   4.715   2.640   4.354  0.3948 -0.6510 -1.2732
 1180TIP3   OH2 3545   5.592   1.892   4.452  0.7926 -0.1895 -0.4759
 1180TIP3    H1 3546   5.616   1.808   4.492  0.7071  0.2304  0.4844
 1180TIP3    H2 3547   5.556   1.869   4.366  1.3400 -1.0865 -0.4757
 1181TIP3   OH2 3548   5.587   0.586   0.200 -0.4011  0.2735  0.5288
 1181TIP3    H1 3549   5.563   0.527   0.272  0.4242  1.9662  2.2807
 1181TIP3    H2 3550   5.510   0.643   0.189 -0.1627  0.6381  0.7414
 1182TIP3   OH2 3551   3.395   2.706   3.088  0.3134 -0.4692 -0.3976
 1182TIP3    H1 3552   3.304   2.734   3.098 -0.0711 -1.6712 -0.4050
 1182TIP3    H2 3553   3.446   2.774   3.133 -0.3995  1.3412 -2.1918
 1183TIP3   OH2 3554   2.545   5.610   3.774  0.7212 -0.2033 -0.6104
 1183TIP3    H1 3555   2.553   5.600   3.679 -1.6209 -3.3327 -0.6199
 1183TIP3    H2 3556   2.465   5.661   3.786  2.5223  2.7769 -0.2082
 1184TIP3   OH2 3557   1.162   2.711   2.139  0.0396 -0.1242  0.1753
 1184TIP3    H1 3558   1.121   2.728   2.054 -1.3178  1.6471  1.1099
 1184TIP3    H2 3559   1.246   2.756   2.134 -0.0739  0.0527 -0.1996
 1185TIP3   OH2 3560   2.109   3.209   2.238 -0.0263 -0.2188 -0.3536
 1185TIP3    H1 3561   2.044   3.180   2.173  0.3209 -0.0891 -0.7680
 1185TIP3    H2 3562   2.193   3.185   2.199  0.1611 -0.6879  0.3367
 1186TIP3   OH2 3563   2.565   4.476   3.921  0.3807  0.5411  0.2730
 1186TIP3    H1 3564   2.484   4.502   3.964  0.4329  0.1746  0.5997
 1186TIP3    H2 3565   2.611   4.559   3.905  0.2169  0.7047  0.6324
 1187TIP3   OH2 3566   3.885   4.050   0.094 -0.2759  1.0379 -0.3913
 1187TIP3    H1 3567   3.876   4.135   0.138 -0.9197  1.3943 -1.1783
 1187TIP3    H2 3568   3.842   3.988   0.153 -3.5147  1.9069 -1.6130
 1188TIP3   OH2 3569   0.202   0.296   1.750  0.3133 -0.2430  0.4774
 1188TIP3    H1 3570   0.210   0.202   1.736  0.8590 -0.4657  2.0123
 1188TIP3    H2 3571   0.190   0.305   1.845 -0.9534  1.1763  0.2265
 1189TIP3   OH2 3572   1.430   4.924   3.781  0.5977 -0.6060 -0.0960
 1189TIP3    H1 3573   1.369   4.947   3.852  0.8213 -1.3945  0.3642
 1189TIP3    H2 3574   1.500   4.875   3.825  1.9807  0.9270 -0.4895
 1190TIP3   OH2 3575   3.976   1.479   3.501  0.4493 -0.0180 -0.4930
 1190TIP3    H1 3576   3.984   1.515   3.589  0.3421 -1.6767  0.2318
 1190TIP3    H2 3577   3.907   1.531   3.460 -0.6873 -0.2853  0.9902
 1191TIP3   OH2 3578   2.422   0.798   1.610  0.1667 -0.0929  0.3948
 1191TIP3    H1 3579   2.507   0.770   1.576 -0.4968 -1.1589 -0.4507
 1191TIP3    H2 3580   2.438   0.886   1.645  1.3337  0.2553 -0.9310
 1192TIP3   OH2 3581   3.604   5.035   0.109 -0.0022  0.0672  0.1490
 1192TIP3    H1 3582   3.626   5.051   0.200  2.0141  2.2161 -0.6275
 1192TIP3    H2 3583   3.533   5.096   0.090  0.5432  0.6423 -0.0693
 1193TIP3   OH2 3584   3.439   4.770   4.630  0.6583 -0.0710  0.2805
 1193TIP3    H1 3585   3.524   4.764   4.585  0.7113 -0.8370  0.4657
 1193TIP3    H2 3586   3.396   4.686   4.611 -0.7347  0.8937 -1.1199
 1194TIP3   OH2 3587   5.910   1.501   5.163 -0.0327  0.6055  0.5091
 1194TIP3    H1 3588   5.821   1.469   5.148  0.2235  0.3642 -0.5465
 1194TIP3    H2 3589   5.927   1.561   5.091  0.8663  0.2003  0.3716
 1195TIP3   OH2 3590   5.928   2.832   1.266 -0.3532  0.2298 -0.0571
 1195TIP3    H1 3591   6.004   2.873   1.224  0.0472 -1.9873 -1.6771
 1195TIP3    H2 3592   5.961   2.798   1.349 -0.0490  0.8720  0.0899
 1196TIP3   OH2 3593   5.593   3.941   2.278 -0.2831  0.0684 -0.3527
 1196TIP3    H1 3594   5.679   3.946   2.236  1.3419 -2.7576  2.2161
 1196TIP3    H2 3595   5.583   4.025   2.323  1.3848  0.2482 -0.2588
 1197TIP3   OH2 3596   1.985   5.711   2.222  0.1616  0.6845  0.3347
 1197TIP3    H1 3597   1.907   5.731   2.274  0.2662 -1.0557  1.2406
 1197TIP3    H2 3598   1.967   5.626   2.182  2.0427 -0.3976  1.6061
 1198TIP3   OH2 3599   5.961   0.967   3.280 -0.2214 -0.0511 -0.0678
 1198TIP3    H1 3600   5.975   0.923   3.196 -0.5798 -0.2027 -0.0515
 1198TIP3    H2 3601   6.031   1.033   3.285  1.0249 -1.3653  0.4291
 1199TIP3   OH2 3602   2.537   4.689   0.690 -0.3727 -0.0177 -0.5007
 1199TIP3    H1 3603   2.574   4.620   0.635 -1.4457 -1.5302  0.5710
 1199TIP3    H2 3604   2.442   4.672   0.689 -0.6437  1.3604 -0.1032
 1200TIP3   OH2 3605   3.578   0.285   4.686 -0.3007 -0.5214  0.3212
 1200TIP3    H1 3606   3.533   0.217   4.635  0.1591 -1.4670  1.1473
 1200TIP3    H2 3607   3.518   0.306   4.757 -1.0094  0.9124 -0.6281
 1201TIP3   OH2 3608   5.074   0.512   3.652 -0.4999 -0.1151  0.4234
 1201TIP3    H1 3609   5.039   0.555   3.730 -0.3071 -0.1443  0.5274
 1201TIP3    H2 3610   5.167   0.501   3.671 -0.0565  1.5568 -0.5552
 1202TIP3   OH2 3611   5.669   4.567   2.152 -0.4230 -0.0799 -0.1511
 1202TIP3    H1 3612   5.695   4.563   2.060 -0.7163 -1.9610 -0.1971
 1202TIP3    H2 3613   5.700   4.484   2.189 -1.5567  0.0155  1.0858
 1203TIP3   OH2 3614   0.143   5.752   0.714 -0.1754 -0.5966  0.1828
 1203TIP3    H1 3615   0.143   5.680   0.777  1.9980 -1.4477 -0.6884
 1203TIP3    H2 3616   0.152   5.831   0.768  0.3659 -1.2054  1.0191
 1204TIP3   OH2 3617   3.564   0.698   0.107 -0.4512 -0.0405 -0.3139
 1204TIP3    H1 3618   3.517   0.682   0.188  0.0460 -2.1145 -0.3997
 1204TIP3    H2 3619   3.572   0.613   0.065  0.9591  0.6742 -1.6381
 1205TIP3   OH2 3620   6.157   2.596   0.639  0.3971 -0.4556  0.2632
 1205TIP3    H1 3621   6.142   2.619   0.547  0.8725  0.6139  0.4381
 1205TIP3    H2 3622   6.077   2.625   0.684  1.0025  0.9386  0.4859
 1206TIP3   OH2 3623   1.177   1.054   0.065  0.3239  0.4017 -0.1908
 1206TIP3    H1 3624   1.263   1.090   0.047 -0.3579  1.4937 -1.4489
 1206TIP3    H2 3625   1.174   0.973   0.014  0.2331  0.9158 -1.0241
 1207TIP3   OH2 3626   4.191   0.292   0.387  0.0767  0.1720  0.0577
 1207TIP3    H1 3627   4.124   0.225   0.369  0.5207  0.2317 -2.1660
 1207TIP3    H2 3628   4.243   0.255   0.458 -1.6644 -0.3407  1.1270
 1208TIP3   OH2 3629   1.844   5.914   1.672 -0.0847 -0.1656  0.7226
 1208TIP3    H1 3630   1.774   5.968   1.636 -0.4991 -1.6806 -0.8888
 1208TIP3    H2 3631   1.816   5.893   1.761 -1.0624  0.2843  0.5293
 1209TIP3   OH2 3632   1.228   2.347   0.159 -0.0275  0.0344  0.7200
 1209TIP3    H1 3633   1.241   2.314   0.070  1.1748 -0.2220  0.9685
 1209TIP3    H2 3634   1.247   2.440   0.153 -2.4123  0.5639  0.2302
 1210TIP3   OH2 3635   4.854   2.578   1.337  0.0019 -0.1068  0.4939
 1210TIP3    H1 3636   4.924   2.633   1.372  0.2733 -0.3593  0.3464
 1210TIP3    H2 3637   4.866   2.493   1.379 -1.3366  0.3446  1.8977
 1211TIP3   OH2 3638   6.326   0.223   1.533  0.9020  0.3541  0.6748
 1211TIP3    H1 3639   6.383   0.298   1.514  0.6624  0.4909  0.4783
 1211TIP3    H2 3640   6.316   0.224   1.628  1.2132  0.3371  0.7105
 1212TIP3   OH2 3641   4.737   3.277   1.959  0.2047  0.2923  0.0878
 1212TIP3    H1 3642   4.768   3.187   1.970  1.9009  0.9860  1.5651
 1212TIP3    H2 3643   4.782   3.308   1.880  0.1448  0.0571 -0.0390
 1213TIP3   OH2 3644   4.995   5.014   0.821 -0.5585 -0.2459 -0.1340
 1213TIP3    H1 3645   4.951   5.094   0.791 -0.7141  0.6690  2.2974
 1213TIP3    H2 3646   4.974   4.948   0.755 -1.0095  1.5383 -1.8541
 1214TIP3   OH2 3647   4.820   5.770   4.130 -0.1972 -0.2343 -0.2779
 1214TIP3    H1 3648   4.823   5.863   4.155 -1.3813 -0.6144  1.4556
 1214TIP3    H2 3649   4.804   5.772   4.036 -0.7817  1.3416 -0.1871
 1215TIP3   OH2 3650   0.185   2.917   1.421 -0.1421 -0.4529 -0.0559
 1215TIP3    H1 3651   0.090   2.924   1.434 -0.2240 -1.4942  0.0579
 1215TIP3    H2 3652   0.223   2.973   1.488 -0.6691 -1.6097  1.2731
 1216TIP3   OH2 3653   1.647   2.346   4.575 -0.2048  0.2673  0.2596
 1216TIP3    H1 3654   1.713   2.285   4.542 -1.9709 -1.0865 -0.9228
 1216TIP3    H2 3655   1.651   2.335   4.670  1.1116  0.0767  0.2084
 1217TIP3   OH2 3656   1.644   4.811   3.923  0.2875  0.2818 -0.9225
 1217TIP3    H1 3657   1.623   4.722   3.896 -0.9095  0.1075  0.4701
 1217TIP3    H2 3658   1.739   4.818   3.912  0.4576 -1.3026 -0.6937
 1218TIP3   OH2 3659   1.982   3.679   0.076  0.1431 -0.1741  0.0692
 1218TIP3    H1 3660   1.923   3.606   0.097  0.1255  0.0993  1.0458
 1218TIP3    H2 3661   1.924   3.754   0.064  0.2003 -0.1991 -0.3870
 1219TIP3   OH2 3662   1.280   5.237   1.763  0.0676  0.3085  0.6280
 1219TIP3    H1 3663   1.268   5.189   1.845 -2.0037  0.1500  0.2597
 1219TIP3    H2 3664   1.259   5.174   1.695  0.2634  0.8934  0.0233
 1220TIP3   OH2 3665   4.308   1.194   5.109  0.2616 -0.7519 -0.5411
 1220TIP3    H1 3666   4.250   1.158   5.043 -1.4943  1.0292 -0.0514
 1220TIP3    H2 3667   4.284   1.286   5.115  0.5029 -0.7809  2.3790
 1221TIP3   OH2 3668   1.842   1.394   1.475 -0.5080  0.1611  0.2814
 1221TIP3    H1 3669   1.761   1.345   1.485 -0.8311  0.3986 -0.9969
 1221TIP3    H2 3670   1.854   1.438   1.560 -0.7657 -1.2551  1.0743
 1222TIP3   OH2 3671   1.921   4.103   1.371 -0.3510 -0.3457 -0.4027
 1222TIP3    H1 3672   1.840   4.082   1.417 -0.5121 -0.0787 -0.5594
 1222TIP3    H2 3673   1.956   4.179   1.417 -0.6348  0.0703 -0.8556
 1223TIP3   OH2 3674   3.660   2.991   4.897  0.1386 -0.3271 -0.1200
 1223TIP3    H1 3675   3.702   2.941   4.827 -0.9637 -1.7942  0.2146
 1223TIP3    H2 3676   3.568   2.964   4.894 -0.6384  2.0570 -0.2065
 1224TIP3   OH2 3677   2.477   3.475   2.679  0.9991 -0.4834 -0.1348
 1224TIP3    H1 3678   2.438   3.544   2.732 -0.1819 -0.3973 -1.0821
 1224TIP3    H2 3679   2.568   3.470   2.709  1.4435  2.2361 -0.7960
 1225TIP3   OH2 3680   3.667   2.541   4.036  0.0475  0.3101  0.1975
 1225TIP3    H1 3681   3.634   2.475   3.975  0.1888  0.0628  0.3907
 1225TIP3    H2 3682   3.591   2.564   4.090 -0.4357  1.5129 -0.9451
 1226TIP3   OH2 3683   5.888   3.080   3.436  0.5456 -0.1659 -0.7192
 1226TIP3    H1 3684   5.896   3.004   3.379  2.1029  0.1550 -0.9680
 1226TIP3    H2 3685   5.969   3.128   3.424 -0.4307  1.5894 -0.6144
 1227TIP3   OH2 3686   0.336   5.578   0.044  0.2424 -0.4182 -0.4170
 1227TIP3    H1 3687   0.379   5.621  -0.031  2.1014  1.6180  1.6617
 1227TIP3    H2 3688   0.398   5.511   0.071 -0.2621 -0.9080 -0.4747
 1228TIP3   OH2 3689   5.162   1.201   3.905  0.6169 -0.0435 -0.0132
 1228TIP3    H1 3690   5.127   1.125   3.951  1.8507  0.0160  1.0851
 1228TIP3    H2 3691   5.168   1.173   3.813  0.1097 -0.9116  0.2108
 1229TIP3   OH2 3692   5.162   0.616   4.339  0.3673  0.3980 -0.6538
 1229TIP3    H1 3693   5.197   0.706   4.342 -1.0036  0.9212  0.6998
 1229TIP3    H2 3694   5.219   0.571   4.276  1.8033  1.8961 -0.5074
 1230TIP3   OH2 3695   3.302   0.473   0.373 -0.4871 -0.6132 -0.5812
 1230TIP3    H1 3696   3.392   0.477   0.407  0.2673  0.3717 -2.5094
 1230TIP3    H2 3697   3.254   0.537   0.425  1.0250  2.1054 -2.2709
 1231TIP3   OH2 3698   4.278   0.474   2.351  0.2900  0.3646 -0.2896
 1231TIP3    H1 3699   4.332   0.508   2.280 -0.4320  0.1334 -0.9614
 1231TIP3    H2 3700   4.293   0.379   2.349  1.6703  0.5133  1.0562
 1232TIP3   OH2 3701   5.025   1.010   2.311 -0.1807  0.4230  0.9631
 1232TIP3    H1 3702   5.077   1.070   2.364  0.1404  0.0725  1.0556
 1232TIP3    H2 3703   4.987   1.064   2.242  1.2662  0.5095  0.1843
 1233TIP3   OH2 3704   3.511   0.393   3.093  0.4929  0.3950  0.4171
 1233TIP3    H1 3705   3.510   0.308   3.049  1.1204  1.3044 -1.4732
 1233TIP3    H2 3706   3.602   0.422   3.086 -0.2709  2.6508 -2.0485
 1234TIP3   OH2 3707   1.586   2.782   2.482 -0.5159  0.3172 -0.1285
 1234TIP3    H1 3708   1.586   2.840   2.405 -0.8988 -0.0733 -0.4325
 1234TIP3    H2 3709   1.670   2.797   2.524 -0.0165  0.0489 -1.0014
 1235TIP3   OH2 3710   5.360   4.400   2.718  0.0439  0.1967 -0.0586
 1235TIP3    H1 3711   5.401   4.402   2.632 -0.7591 -0.3390 -0.4664
 1235TIP3    H2 3712   5.401   4.472   2.766 -0.1332  1.0735 -1.1841
 1236TIP3   OH2 3713   1.530   4.978   2.112  0.2516 -0.0847  0.4635
 1236TIP3    H1 3714   1.548   5.069   2.090  1.4535 -0.2998  0.4400
 1236TIP3    H2 3715   1.599   4.955   2.176  0.4022 -1.1649 -0.0573
 1237TIP3   OH2 3716   1.445   3.739   1.281 -0.2198 -0.0209 -0.3007
 1237TIP3    H1 3717   1.393   3.675   1.234  0.7121 -0.9518 -0.1083
 1237TIP3    H2 3718   1.528   3.695   1.298  1.2386  1.8941 -1.9016
 1238TIP3   OH2 3719   2.818   5.035   0.977 -0.5106 -0.5729 -0.3678
 1238TIP3    H1 3720   2.749   5.017   0.913 -1.6206 -2.1780  1.1879
 1238TIP3    H2 3721   2.898   5.001   0.936 -1.2567 -1.8704 -0.7959
 1239TIP3   OH2 3722   0.211   3.733   3.292 -0.1075  0.5291 -0.2141
 1239TIP3    H1 3723   0.283   3.745   3.230  1.4528  0.3020  1.4921
 1239TIP3    H2 3724   0.146   3.799   3.266  1.0384  1.2638 -1.3162
 1240TIP3   OH2 3725   2.152  -0.002   3.278 -0.3358  0.7625 -0.3456
 1240TIP3    H1 3726   2.214  -0.035   3.343  0.7548 -0.3769 -1.8886
 1240TIP3    H2 3727   2.197   0.069   3.234 -0.7170  0.9445 -0.4497
 1241TIP3   OH2 3728   5.787   1.626   3.618  0.1110  0.2501  0.1264
 1241TIP3    H1 3729   5.771   1.599   3.708  4.3074 -0.6203  0.8391
 1241TIP3    H2 3730   5.800   1.721   3.623  0.2515  0.2142  0.4388
 1242TIP3   OH2 3731   1.257   5.950   0.346  0.1839 -0.5823 -0.2704
 1242TIP3    H1 3732   1.207   5.910   0.275 -0.9518  0.6274 -0.1955
 1242TIP3    H2 3733   1.238   6.044   0.339  0.5658 -0.3669  1.2279
 1243TIP3   OH2 3734   0.813   3.844   2.487  0.5524  0.1244 -0.1766
 1243TIP3    H1 3735   0.803   3.863   2.580 -0.3574  2.8735 -0.7361
 1243TIP3    H2 3736   0.724   3.845   2.452  0.8780 -0.9046 -1.0997
 1244TIP3   OH2 3737   6.077   2.677   0.986 -0.1158  0.5271  0.1123
 1244TIP3    H1 3738   6.041   2.659   0.899 -1.4371  0.3909  0.6613
 1244TIP3    H2 3739   6.161   2.719   0.968 -0.4460  0.6854 -1.2345
 1245TIP3   OH2 3740   2.516   5.501   1.794  0.4142  0.4451  0.1971
 1245TIP3    H1 3741   2.423   5.482   1.784  0.3292  1.2900 -0.9004
 1245TIP3    H2 3742   2.548   5.437   1.857 -1.4458  1.8230  2.6995
 1246TIP3   OH2 3743   1.767   0.577   4.175 -0.1049  0.0186  0.5676
 1246TIP3    H1 3744   1.709   0.613   4.107  1.1676 -0.7267 -0.9868
 1246TIP3    H2 3745   1.723   0.497   4.204 -0.3952  0.0445  0.2158
 1247TIP3   OH2 3746   1.694   2.509   0.690  0.3976 -0.0908 -0.1570
 1247TIP3    H1 3747   1.760   2.489   0.623  0.1347  0.1626 -0.4993
 1247TIP3    H2 3748   1.669   2.600   0.671  1.0773  0.3397  0.9308
 1248TIP3   OH2 3749   2.463   2.019   1.549  0.3292 -0.5398  0.3210
 1248TIP3    H1 3750   2.376   1.984   1.526  0.1755 -0.1973  0.3757
 1248TIP3    H2 3751   2.511   2.019   1.467  0.0086  0.0331  0.1268
 1249TIP3   OH2 3752   1.329   5.914   4.900 -0.4752  0.2218  0.3781
 1249TIP3    H1 3753   1.285   5.939   4.819 -1.6366  0.9483  1.2019
 1249TIP3    H2 3754   1.415   5.957   4.896 -0.5347  0.2705 -0.4371
 1250TIP3   OH2 3755   5.385   0.398   1.722 -0.0639 -0.0198 -0.2169
 1250TIP3    H1 3756   5.311   0.338   1.711  0.3069 -0.6004  0.3702
 1250TIP3    H2 3757   5.386   0.450   1.642 -1.5966  0.5468  0.0975
 1251TIP3   OH2 3758   2.836   3.367   4.537 -0.6841 -0.4895 -0.5605
 1251TIP3    H1 3759   2.907   3.308   4.514  1.0327  1.2671 -0.0279
 1251TIP3    H2 3760   2.791   3.385   4.454  0.4877 -0.3934 -1.1895
 1252TIP3   OH2 3761   5.204   2.170   4.152 -0.3879 -0.6128 -0.0868
 1252TIP3    H1 3762   5.242   2.257   4.143 -0.2540 -0.7208 -0.6147
 1252TIP3    H2 3763   5.114   2.179   4.121  0.0318 -0.9545 -1.4772
 1253TIP3   OH2 3764   2.182   4.555   4.672  0.0042  0.3528 -0.1125
 1253TIP3    H1 3765   2.195   4.623   4.606  0.9734 -1.7756 -2.2378
 1253TIP3    H2 3766   2.087   4.543   4.676 -0.0420  0.1308 -1.5538
 1254TIP3   OH2 3767   5.651   2.839   1.128 -0.3068  0.7326  0.2588
 1254TIP3    H1 3768   5.697   2.912   1.088  1.4686 -0.2319  0.4379
 1254TIP3    H2 3769   5.698   2.823   1.210 -1.7267  0.4644  1.0484
 1255TIP3   OH2 3770   1.558   2.561   2.200  0.0985 -0.8676 -0.2364
 1255TIP3    H1 3771   1.474   2.534   2.163 -0.6411 -1.3516  1.7037
 1255TIP3    H2 3772   1.557   2.528   2.290  2.5302 -1.2156 -0.2587
 1256TIP3   OH2 3773   2.003   4.085   0.902 -0.2077  0.3518 -0.0232
 1256TIP3    H1 3774   1.962   4.126   0.826  0.2166  0.4569 -0.1992
 1256TIP3    H2 3775   1.989   3.991   0.889 -1.0932  0.4220  0.3302
 1257TIP3   OH2 3776   4.714   5.793   5.038 -0.0626 -0.6488  0.0742
 1257TIP3    H1 3777   4.764   5.764   4.962  1.0154 -0.4028  0.6523
 1257TIP3    H2 3778   4.650   5.724   5.053 -0.7918 -0.3505 -1.4750
 1258TIP3   OH2 3779   0.471   0.684   4.926 -0.0922  0.1982  0.0920
 1258TIP3    H1 3780   0.533   0.612   4.937  1.0479  1.1118 -0.0932
 1258TIP3    H2 3781   0.458   0.719   5.014  0.1053  0.3496  0.0638
 1259TIP3   OH2 3782   0.808   1.496   2.593  0.3277  0.3227 -0.0437
 1259TIP3    H1 3783   0.867   1.425   2.617  0.6350  0.9818  1.2670
 1259TIP3    H2 3784   0.835   1.569   2.649 -1.2396  0.8717  0.0372
 1260TIP3   OH2 3785   3.782   0.127   1.682  0.2641  0.3753 -0.5334
 1260TIP3    H1 3786   3.738   0.107   1.765 -0.6749  0.0591 -1.0819
 1260TIP3    H2 3787   3.801   0.220   1.686  0.4256  0.3187  0.1268
 1261TIP3   OH2 3788   3.742   2.819   4.699 -0.0521 -0.0408 -0.4341
 1261TIP3    H1 3789   3.827   2.786   4.671  0.2502 -0.3498  0.7820
 1261TIP3    H2 3790   3.707   2.750   4.756 -1.4019 -0.1962 -1.4226
 1262TIP3   OH2 3791   1.449   5.755   0.390  0.7058 -1.1672  0.2617
 1262TIP3    H1 3792   1.392   5.826   0.417  1.1197 -0.6826 -0.1103
 1262TIP3    H2 3793   1.413   5.725   0.306  1.7615  0.0624 -0.6783
 1263TIP3   OH2 3794   1.638   3.755   2.615  0.4752  0.5340 -0.0255
 1263TIP3    H1 3795   1.671   3.831   2.664  0.3369  0.7709 -0.2962
 1263TIP3    H2 3796   1.587   3.793   2.543 -0.2303  0.1805  0.2725
 1264TIP3   OH2 3797   0.924   4.612   2.698 -0.5185  0.0590  0.2667
 1264TIP3    H1 3798   0.980   4.690   2.692 -0.8483  0.3322  0.5879
 1264TIP3    H2 3799   0.974   4.542   2.658 -0.1218  0.3943  0.1734
 1265TIP3   OH2 3800   5.616   1.313   0.247 -0.5331 -0.6057  0.2170
 1265TIP3    H1 3801   5.565   1.353   0.177 -0.6704  0.6456  0.9995
 1265TIP3    H2 3802   5.694   1.278   0.204  0.4949  2.1336 -0.2961
 1266TIP3   OH2 3803   1.112   4.527   3.478 -0.0766  0.0089 -0.2146
 1266TIP3    H1 3804   1.156   4.573   3.407  0.6754 -0.2305  0.0928
 1266TIP3    H2 3805   1.065   4.456   3.435 -0.9662  0.8401 -0.6507
 1267TIP3   OH2 3806   0.717   2.420   2.719  0.0980  0.5457  0.1681
 1267TIP3    H1 3807   0.632   2.405   2.760  0.3995 -2.6562 -0.0947
 1267TIP3    H2 3808   0.779   2.369   2.772  1.0317 -1.0303 -2.2464
 1268TIP3   OH2 3809   2.929   3.237   1.535  0.3730  0.3347 -0.3766
 1268TIP3    H1 3810   2.914   3.261   1.443  0.8410 -0.2525 -0.6178
 1268TIP3    H2 3811   2.852   3.269   1.581 -0.6708 -0.8014 -1.2526
 1269TIP3   OH2 3812   0.923   3.374   2.285 -0.2536  0.2854 -0.0341
 1269TIP3    H1 3813   0.831   3.367   2.310 -0.6935  0.4471 -1.4896
 1269TIP3    H2 3814   0.969   3.316   2.346 -1.3075  0.2313  0.7368
 1270TIP3   OH2 3815   5.839   3.332   3.213  0.3101  0.0088  0.0549
 1270TIP3    H1 3816   5.883   3.391   3.152  0.4342  0.5394  0.6520
 1270TIP3    H2 3817   5.910   3.291   3.261  0.2048 -0.2843 -0.0356
 1271TIP3   OH2 3818   4.598   5.608   4.148  0.4247  0.0216  0.3822
 1271TIP3    H1 3819   4.546   5.641   4.075 -0.1189 -0.7322  0.4068
 1271TIP3    H2 3820   4.668   5.671   4.159  0.5549  0.1068 -0.8433
 1272TIP3   OH2 3821   3.406   0.066   0.976  0.5773  0.0668  0.3059
 1272TIP3    H1 3822   3.334   0.020   0.931  0.7926  0.3721 -0.3688
 1272TIP3    H2 3823   3.417   0.019   1.058 -1.3024  0.8281  1.0449
 1273TIP3   OH2 3824   1.681   3.569   1.238  0.3391  0.1296  0.0674
 1273TIP3    H1 3825   1.630   3.595   1.162  0.6557 -0.2095 -0.2698
 1273TIP3    H2 3826   1.711   3.651   1.277  0.6299  0.2935 -0.4934
 1274TIP3   OH2 3827   3.082   0.421   3.983 -0.9072  0.3290  0.5317
 1274TIP3    H1 3828   3.054   0.506   3.949 -1.1862 -0.3097 -0.8703
 1274TIP3    H2 3829   3.010   0.394   4.041 -0.9911  0.8528  0.6822
 1275TIP3   OH2 3830   6.178   0.843   2.867 -0.3954  0.8129  0.1536
 1275TIP3    H1 3831   6.120   0.808   2.799  0.0429  0.2545  0.0640
 1275TIP3    H2 3832   6.119   0.875   2.935 -0.8524  1.6147 -0.5911
 1276TIP3   OH2 3833   1.140   4.065   3.442 -0.5336 -0.0634  0.3167
 1276TIP3    H1 3834   1.074   4.015   3.491 -0.5958  0.0450  0.3438
 1276TIP3    H2 3835   1.207   4.001   3.420  0.0164  0.0945  1.4579
 1277TIP3   OH2 3836   0.854   3.429   2.686 -0.3223 -0.4059 -0.3923
 1277TIP3    H1 3837   0.887   3.446   2.774 -0.0187  0.0460 -0.5854
 1277TIP3    H2 3838   0.920   3.372   2.646 -1.1227 -1.7288  0.1078
 1278TIP3   OH2 3839   4.772   4.803   3.026  0.5458 -1.1195  0.1510
 1278TIP3    H1 3840   4.731   4.880   2.987  1.0399 -0.9047  0.0487
 1278TIP3    H2 3841   4.736   4.800   3.115  0.2850 -0.9553  0.0533
 1279TIP3   OH2 3842   1.850   3.410   1.633 -1.0079 -0.7129  0.2320
 1279TIP3    H1 3843   1.922   3.435   1.691 -0.7164  0.9421 -0.7684
 1279TIP3    H2 3844   1.779   3.385   1.692 -0.8835  1.3364  1.3447
 1280TIP3   OH2 3845   5.402   0.981   1.166 -0.1542  0.8823 -0.3034
 1280TIP3    H1 3846   5.393   1.016   1.255  0.4793 -1.3271  0.7234
 1280TIP3    H2 3847   5.441   1.052   1.116  2.3528  1.2826  1.9582
 1281TIP3   OH2 3848   0.585   2.172   0.284  0.0717  0.0680 -0.1193
 1281TIP3    H1 3849   0.563   2.110   0.353  1.2401 -1.8885 -1.4119
 1281TIP3    H2 3850   0.680   2.172   0.280  0.1071  1.8703 -0.2677
 1282TIP3   OH2 3851   0.189   4.218   3.706 -0.3542 -0.1382 -0.6547
 1282TIP3    H1 3852   0.093   4.223   3.710 -0.5744  0.2802 -4.0272
 1282TIP3    H2 3853   0.218   4.301   3.746 -1.3300 -0.4210  0.7215
 1283TIP3   OH2 3854   0.635   0.110   3.124 -0.3416 -0.4077 -0.1436
 1283TIP3    H1 3855   0.671   0.162   3.197 -1.3585  0.1417 -0.0202
 1283TIP3    H2 3856   0.712   0.067   3.086  0.1353 -1.3754  1.7543
 1284TIP3   OH2 3857   5.381   3.754   2.344  0.5728  0.4915  0.1215
 1284TIP3    H1 3858   5.302   3.779   2.296  0.8862  0.9781 -0.1413
 1284TIP3    H2 3859   5.453   3.795   2.296  1.0945 -0.8564 -0.2908
 1285TIP3   OH2 3860   4.658   0.948   0.887  0.0496 -0.3676 -0.1762
 1285TIP3    H1 3861   4.748   0.972   0.910 -0.3336  1.6254 -0.5444
 1285TIP3    H2 3862   4.667   0.886   0.815  1.1368 -1.6688  1.0307
 1286TIP3   OH2 3863   2.102   5.950   2.516  0.0749  0.4796 -0.1486
 1286TIP3    H1 3864   2.103   5.947   2.420 -0.4381 -0.3521 -0.1383
 1286TIP3    H2 3865   2.077   6.041   2.536  1.0836  0.9165 -0.7778
 1287TIP3   OH2 3866   2.416   3.795   5.190 -0.3999 -0.2487  0.5050
 1287TIP3    H1 3867   2.475   3.825   5.260 -0.7817 -0.8639  1.0993
 1287TIP3    H2 3868   2.460   3.821   5.109  1.4157 -1.9509  0.8663
 1288TIP3   OH2 3869   1.114   5.118   3.917 -0.4718  0.0727  0.3947
 1288TIP3    H1 3870   1.185   5.137   3.979  0.1415 -1.0744  0.0720
 1288TIP3    H2 3871   1.035   5.150   3.960  0.2012  1.1005  0.8970
 1289TIP3   OH2 3872   3.274   3.173   4.760  0.1318 -0.2054 -0.1933
 1289TIP3    H1 3873   3.346   3.218   4.805  1.4977  0.4642 -2.8461
 1289TIP3    H2 3874   3.251   3.231   4.688 -1.2531 -1.6712 -0.9930
 1290TIP3   OH2 3875   1.145   1.116   4.316  0.8379 -0.3876 -0.0469
 1290TIP3    H1 3876   1.161   1.154   4.402 -1.0027 -1.3289  0.7491
 1290TIP3    H2 3877   1.165   1.023   4.326  0.0917 -0.6038 -0.4674
 1291TIP3   OH2 3878   2.647   2.682   2.707 -0.0640 -0.0697  0.4357
 1291TIP3    H1 3879   2.645   2.602   2.654 -0.4749 -1.2294  2.1125
 1291TIP3    H2 3880   2.672   2.652   2.794  1.6458  1.9109  0.7150
 1292TIP3   OH2 3881   4.850   1.565   0.074  0.6798  0.3515  0.3960
 1292TIP3    H1 3882   4.760   1.596   0.088  0.5525  0.0647  0.2313
 1292TIP3    H2 3883   4.854   1.546  -0.020  0.2438 -1.6710  0.7292
 1293TIP3   OH2 3884   0.853   2.470   0.398 -0.2436  0.4646 -0.4326
 1293TIP3    H1 3885   0.829   2.452   0.489 -2.1986 -0.5122 -1.0825
 1293TIP3    H2 3886   0.836   2.387   0.353  0.7085  0.9330 -1.6948
 1294TIP3   OH2 3887   4.870   4.060   2.519 -0.3206  0.2912  0.2249
 1294TIP3    H1 3888   4.964   4.074   2.509 -0.4076  0.7575 -0.0098
 1294TIP3    H2 3889   4.832   4.147   2.504 -0.7692  0.1550  0.5586
 1295TIP3   OH2 3890   2.457   0.546   0.456 -0.1738  0.2494 -0.4727
 1295TIP3    H1 3891   2.520   0.540   0.385 -1.6299  1.0948 -1.9077
 1295TIP3    H2 3892   2.476   0.630   0.498 -0.7864  0.8500 -1.3713
 1296TIP3   OH2 3893   5.260   4.533   0.658 -0.8447 -0.3711 -0.0547
 1296TIP3    H1 3894   5.313   4.575   0.591 -0.5891  2.1180  1.6016
 1296TIP3    H2 3895   5.319   4.470   0.700 -0.9094 -1.7004 -1.8265
 1297TIP3   OH2 3896   2.084   5.206   3.355 -0.3096  0.2492  0.1279
 1297TIP3    H1 3897   2.163   5.221   3.407  2.2978 -0.8956 -3.1191
 1297TIP3    H2 3898   2.031   5.146   3.408  0.7754  1.3549  2.5900
 1298TIP3   OH2 3899   4.771   0.214   1.869 -0.3846  0.0743  0.5157
 1298TIP3    H1 3900   4.848   0.266   1.847  0.5973 -1.1571  0.9573
 1298TIP3    H2 3901   4.704   0.279   1.891  0.4492  1.1694 -0.0473
 1299TIP3   OH2 3902   4.702   0.683   4.149  0.6598 -0.2407 -0.0565
 1299TIP3    H1 3903   4.710   0.587   4.146  0.8522 -0.2618  0.7604
 1299TIP3    H2 3904   4.713   0.711   4.058 -0.7128 -1.0853 -0.5082
 1300TIP3   OH2 3905   6.234   1.359   1.656 -0.3646 -0.4171  0.2001
 1300TIP3    H1 3906   6.242   1.371   1.562 -0.2239 -0.5138  0.1985
 1300TIP3    H2 3907   6.313   1.311   1.681  0.4667  1.1148  0.6386
 1301TIP3   OH2 3908   4.494   1.881   0.289 -0.2208 -0.4361  0.3038
 1301TIP3    H1 3909   4.496   1.921   0.376 -1.4561 -1.2180  0.7206
 1301TIP3    H2 3910   4.502   1.955   0.229 -1.6364  0.3877  1.0665
 1302TIP3   OH2 3911   1.227   4.332   3.163  0.4802 -0.3930 -0.3285
 1302TIP3    H1 3912   1.219   4.367   3.075 -1.1273  2.5775  0.8413
 1302TIP3    H2 3913   1.321   4.335   3.182  0.7569 -0.2542 -1.6364
 1303TIP3   OH2 3914   5.655   2.231   1.810  0.3154 -0.4282  0.1777
 1303TIP3    H1 3915   5.750   2.232   1.817  0.2589 -0.7831  1.0449
 1303TIP3    H2 3916   5.637   2.160   1.748  0.5457 -1.7984  1.6127
 1304TIP3   OH2 3917   1.554   0.393   0.293 -1.0363  0.4603  0.2482
 1304TIP3    H1 3918   1.631   0.416   0.346 -0.8383 -0.0736  0.1989
 1304TIP3    H2 3919   1.508   0.328   0.345 -0.0746 -1.1576 -0.8402
 1305TIP3   OH2 3920   4.764   3.992   4.610 -0.0711 -0.0667 -0.5259
 1305TIP3    H1 3921   4.802   4.033   4.688  0.5279 -2.1927  0.3723
 1305TIP3    H2 3922   4.669   4.002   4.622  0.0487  1.1471 -0.4352
 1306TIP3   OH2 3923   4.773   1.760   4.307  0.0639 -0.4654 -0.2097
 1306TIP3    H1 3924   4.838   1.749   4.377 -0.5169 -0.2750  0.3624
 1306TIP3    H2 3925   4.803   1.836   4.258 -0.4706  0.4629  0.8824
 1307TIP3   OH2 3926   1.271   0.206   4.083 -0.3215 -0.1899 -0.4436
 1307TIP3    H1 3927   1.283   0.280   4.025 -1.1466  0.2870 -0.0311
 1307TIP3    H2 3928   1.296   0.130   4.031  1.7019  0.4599 -0.4879
 1308TIP3   OH2 3929   4.263   5.183   2.586  0.2659 -0.0224  0.2972
 1308TIP3    H1 3930   4.212   5.262   2.566  0.0832 -0.4968 -1.2517
 1308TIP3    H2 3931   4.354   5.210   2.573  0.2550  0.1430  0.5566
 1309TIP3   OH2 3932   5.172   1.761   3.568 -0.0351 -0.1902 -0.5424
 1309TIP3    H1 3933   5.124   1.799   3.642  0.2817 -0.3823 -0.2355
 1309TIP3    H2 3934   5.201   1.675   3.600  0.4707 -0.0964 -0.7435
 1310TIP3   OH2 3935   5.390   4.432   0.223  0.0322  0.7918 -0.1691
 1310TIP3    H1 3936   5.422   4.483   0.148  0.5827  1.4450  0.4961
 1310TIP3    H2 3937   5.319   4.380   0.187  1.7276 -0.6181 -1.6998
 1311TIP3   OH2 3938   2.360   2.595   1.341 -0.2832  0.0296 -0.3399
 1311TIP3    H1 3939   2.389   2.679   1.376  0.9131 -1.8964  3.9674
 1311TIP3    H2 3940   2.278   2.614   1.297  0.0342  3.4360  0.2988
 1312TIP3   OH2 3941   5.637   5.236   2.195  0.0566 -0.1232 -0.5334
 1312TIP3    H1 3942   5.563   5.237   2.134  1.1064 -0.3210 -1.8461
 1312TIP3    H2 3943   5.609   5.177   2.265 -1.1970  0.1534 -0.7777
 1313TIP3   OH2 3944   3.738   5.383   3.673 -0.1786 -0.0697  0.5475
 1313TIP3    H1 3945   3.691   5.465   3.659  1.0867  0.4382 -1.0181
 1313TIP3    H2 3946   3.734   5.338   3.589  2.4064  0.2007  0.1742
 1314TIP3   OH2 3947   2.241   0.007   4.870  0.1675 -0.0308  0.0093
 1314TIP3    H1 3948   2.193   0.043   4.795  1.9373 -0.9323 -1.6653
 1314TIP3    H2 3949   2.176  -0.042   4.919 -1.0022  0.3078 -1.1473
 1315TIP3   OH2 3950   0.880   0.006   3.029 -0.3535  0.1057  0.4505
 1315TIP3    H1 3951   0.885   0.096   2.998  1.4747  0.4037  1.5130
 1315TIP3    H2 3952   0.917  -0.046   2.958  2.0665  0.6027  1.2570
 1316TIP3   OH2 3953   3.619   2.560   4.602  0.3733 -0.5720 -0.7743
 1316TIP3    H1 3954   3.561   2.635   4.587  0.9174  0.0118 -0.0626
 1316TIP3    H2 3955   3.641   2.529   4.514  1.4664  1.1727 -1.1673
 1317TIP3   OH2 3956   5.636   3.214   2.157  0.3232  0.4654  0.6911
 1317TIP3    H1 3957   5.554   3.223   2.205  0.4001  2.5144  0.5261
 1317TIP3    H2 3958   5.701   3.255   2.213  0.3876  3.0860 -1.1013
 1318TIP3   OH2 3959   4.671   4.457   4.976 -0.0997 -0.0536 -0.2007
 1318TIP3    H1 3960   4.736   4.506   4.927 -0.3936  1.8076  1.1463
 1318TIP3    H2 3961   4.629   4.401   4.912  0.6079  1.1137 -1.7401
 1319TIP3   OH2 3962   3.724   1.314   1.960  0.1530  0.0136  0.0607
 1319TIP3    H1 3963   3.758   1.400   1.936  1.4040 -0.1698  1.0535
 1319TIP3    H2 3964   3.733   1.262   1.880 -0.0970  0.6525 -0.3892
 1320TIP3   OH2 3965   6.196   4.410   2.155  0.5419 -0.3835  0.4034
 1320TIP3    H1 3966   6.186   4.416   2.060 -2.2871 -1.2569  0.5691
 1320TIP3    H2 3967   6.107   4.403   2.189  1.4307  0.4525  3.2029
 1321TIP3   OH2 3968   5.494   5.937   0.618 -0.4606 -0.2557  0.4488
 1321TIP3    H1 3969   5.520   6.026   0.643 -0.5412 -0.2034  0.3472
 1321TIP3    H2 3970   5.479   5.892   0.701  0.7476 -0.5298  0.5491
 1322TIP3   OH2 3971   5.227   1.705   4.969  0.3586  0.0320  0.0384
 1322TIP3    H1 3972   5.260   1.766   4.904  1.7665 -0.9125 -0.1730
 1322TIP3    H2 3973   5.143   1.674   4.933  0.2533  0.8628 -0.4452
 1323TIP3   OH2 3974   4.206   5.847   0.706 -0.0183  0.2782 -0.1369
 1323TIP3    H1 3975   4.295   5.872   0.680  0.2526  0.4236  0.8545
 1323TIP3    H2 3976   4.219   5.798   0.788 -0.8323  0.0808 -0.1227
 1324TIP3   OH2 3977   5.199   2.248   4.567 -0.4651  0.0404  0.1095
 1324TIP3    H1 3978   5.266   2.248   4.500  1.2811  1.8887  1.7238
 1324TIP3    H2 3979   5.171   2.339   4.574 -1.1435 -0.2287  1.3516
 1325TIP3   OH2 3980   5.621   5.418   1.792 -0.0673 -0.4911  0.3655
 1325TIP3    H1 3981   5.568   5.497   1.801  0.7359  0.1376 -0.2553
 1325TIP3    H2 3982   5.635   5.409   1.697  0.6714 -0.8056  0.4951
 1326TIP3   OH2 3983   4.595   5.852   2.558 -0.4588 -0.1495  0.5388
 1326TIP3    H1 3984   4.572   5.765   2.590 -1.7269  0.2289  0.7062
 1326TIP3    H2 3985   4.520   5.880   2.507  0.5780  0.2166 -0.8582
 1327TIP3   OH2 3986   3.680   5.948   2.505  0.1483 -0.0157 -0.0889
 1327TIP3    H1 3987   3.632   5.870   2.481 -0.7089  0.1697  0.9442
 1327TIP3    H2 3988   3.613   6.015   2.520  0.8473  0.8759 -0.7599
 1328TIP3   OH2 3989   0.604   4.194   2.899  0.0976 -0.4731 -0.2240
 1328TIP3    H1 3990   0.682   4.250   2.893 -0.6797  0.5634 -1.0688
 1328TIP3    H2 3991   0.556   4.228   2.974 -0.7440  0.5344 -1.1760
 1329TIP3   OH2 3992   0.808   1.334   1.366 -0.2949  0.1738 -0.0736
 1329TIP3    H1 3993   0.855   1.312   1.446 -1.9647  1.8881  1.4739
 1329TIP3    H2 3994   0.716   1.322   1.388 -0.8611  1.6859 -1.3875
 1330TIP3   OH2 3995   6.085   2.653   3.153  0.1801 -0.1669 -0.5676
 1330TIP3    H1 3996   6.152   2.709   3.113 -0.2084  0.8662  0.1690
 1330TIP3    H2 3997   6.017   2.646   3.086 -0.7214  2.0108  0.0233
 1331TIP3   OH2 3998   2.967   3.063   2.217  0.5717 -0.2254  0.6154
 1331TIP3    H1 3999   2.890   3.112   2.247  0.3538  0.2592 -0.6654
 1331TIP3    H2 4000   2.942   2.971   2.227 -1.2456 -0.1564 -2.1282
 1332TIP3   OH2 4001   5.509   3.277   1.920 -0.4719 -0.0780  0.3543
 1332TIP3    H1 4002   5.496   3.191   1.881 -0.5077  0.5769 -1.1335
 1332TIP3    H2 4003   5.573   3.262   1.990  1.5959 -0.9033 -1.6087
 1333TIP3   OH2 4004   3.609   4.999   4.085 -0.5961  0.0847  0.1722
 1333TIP3    H1 4005   3.548   5.064   4.118 -2.0767 -0.1284 -1.9521
 1333TIP3    H2 4006   3.623   4.940   4.159 -2.0568  0.7923  1.0588
 1334TIP3   OH2 4007   3.352   3.816   2.499 -0.1504  0.2152  0.6370
 1334TIP3    H1 4008   3.277   3.767   2.532 -0.0815  0.0678  0.5768
 1334TIP3    H2 4009   3.428   3.768   2.532 -0.0656 -0.7274 -0.8710
 1335TIP3   OH2 4010   1.812   3.463   3.217 -0.1329  0.0820  0.0120
 1335TIP3    H1 4011   1.894   3.433   3.177 -0.6803  0.0866 -1.1401
 1335TIP3    H2 4012   1.758   3.385   3.222 -0.4216  0.2727 -0.1413
 1336TIP3   OH2 4013   0.206   0.417   2.388 -0.0547 -0.0420  0.6371
 1336TIP3    H1 4014   0.252   0.447   2.467  0.6473  0.1251  0.1691
 1336TIP3    H2 4015   0.121   0.388   2.420  0.2777 -0.1112  1.4809
 1337TIP3   OH2 4016   0.712   2.273   5.055  0.5490 -0.0765  0.1261
 1337TIP3    H1 4017   0.667   2.255   5.137 -0.5998  0.8822 -0.2680
 1337TIP3    H2 4018   0.643   2.272   4.989  1.0030  1.8062 -0.4456
 1338TIP3   OH2 4019   0.489   4.765   3.139  0.1714 -0.7423 -0.1549
 1338TIP3    H1 4020   0.549   4.713   3.192  1.3367 -0.0714 -0.7826
 1338TIP3    H2 4021   0.531   4.771   3.053 -0.0412  1.0170 -0.1785
 1339TIP3   OH2 4022   3.613   5.010   1.956  0.2290  0.1656  0.2348
 1339TIP3    H1 4023   3.541   4.947   1.966 -3.3440  3.8644  0.1365
 1339TIP3    H2 4024   3.635   5.035   2.046  1.3019 -0.7224  0.2478
 1340TIP3   OH2 4025   2.561   1.794   5.193 -0.2357  0.1922  0.4657
 1340TIP3    H1 4026   2.521   1.758   5.114  1.8656  0.9110 -1.0011
 1340TIP3    H2 4027   2.574   1.886   5.174  1.9888  0.0127  0.8717
 1341TIP3   OH2 4028   0.876   2.286   2.878 -0.6609 -0.2609 -0.3612
 1341TIP3    H1 4029   0.893   2.201   2.917 -1.5961 -0.3002 -0.0173
 1341TIP3    H2 4030   0.963   2.327   2.871 -0.2048 -1.2163 -0.5106
 1342TIP3   OH2 4031   4.444   5.608   4.394 -0.0825  0.5408 -0.3402
 1342TIP3    H1 4032   4.472   5.690   4.435  1.6821 -0.5837  0.8665
 1342TIP3    H2 4033   4.503   5.597   4.319 -0.4869  0.5096 -0.6550
 1343TIP3   OH2 4034   2.699   2.981   0.026 -0.6072 -0.3730  0.3347
 1343TIP3    H1 4035   2.622   3.016   0.072  0.0820 -0.2693  1.4580
 1343TIP3    H2 4036   2.665   2.907  -0.024 -1.3449 -0.6934  1.2659
 1344TIP3   OH2 4037   5.347   0.842   4.529  0.3310  0.4965 -0.0973
 1344TIP3    H1 4038   5.255   0.863   4.514  0.4840  0.9381 -0.4541
 1344TIP3    H2 4039   5.377   0.806   4.445  0.8491  1.7009 -0.4514
 1345TIP3   OH2 4040   2.625   3.273   3.401 -0.4308 -0.0318  0.1176
 1345TIP3    H1 4041   2.602   3.259   3.309 -1.6991  0.4681  0.3316
 1345TIP3    H2 4042   2.614   3.187   3.442 -0.6153 -0.0960 -0.0626
 1346TIP3   OH2 4043   2.930   5.847   5.096 -0.1790  0.1305 -0.2464
 1346TIP3    H1 4044   2.862   5.907   5.127  1.3783  1.9451 -0.0984
 1346TIP3    H2 4045   3.010   5.877   5.140  1.0203 -0.8323 -1.6662
 1347TIP3   OH2 4046   4.307   5.406   1.065 -0.6994  0.4145 -0.0733
 1347TIP3    H1 4047   4.345   5.438   1.147 -2.0200 -1.0099  1.1547
 1347TIP3    H2 4048   4.372   5.344   1.032 -0.3666  0.6378  0.1526
 1348TIP3   OH2 4049   3.941   2.182   1.960  0.9532 -0.1407 -0.1735
 1348TIP3    H1 4050   3.914   2.268   1.993  2.3072 -0.7253  2.8297
 1348TIP3    H2 4051   3.984   2.141   2.035  0.4319 -3.4327 -1.5307
 1349TIP3   OH2 4052   0.071   3.222   1.615 -0.1016 -0.4826  0.6767
 1349TIP3    H1 4053   0.116   3.173   1.684  0.8504 -0.4997  0.0592
 1349TIP3    H2 4054   0.141   3.265   1.567 -0.7870 -0.1620 -0.0524
 1350TIP3   OH2 4055   2.369   4.398   0.396 -0.1636  0.0764 -0.7120
 1350TIP3    H1 4056   2.432   4.429   0.461 -1.8854  0.3697  0.8804
 1350TIP3    H2 4057   2.401   4.435   0.313  0.7589  1.7214  0.3201
 1351TIP3   OH2 4058   2.983   5.872   4.785 -0.4475 -0.1266  0.3561
 1351TIP3    H1 4059   2.999   5.780   4.804  1.3506  0.1561  0.3213
 1351TIP3    H2 4060   2.975   5.876   4.689 -0.3203 -0.2185  0.3420
 1352TIP3   OH2 4061   2.717   0.957   4.454 -0.2131  0.1249 -0.1601
 1352TIP3    H1 4062   2.625   0.981   4.439 -1.8392 -3.2684  2.7417
 1352TIP3    H2 4063   2.727   0.874   4.408  1.1554  0.0545  0.2323
 1353TIP3   OH2 4064   4.452   3.433   2.606 -0.5258  0.6719 -0.0208
 1353TIP3    H1 4065   4.507   3.498   2.652  0.2858 -0.6722  0.9834
 1353TIP3    H2 4066   4.381   3.415   2.667 -0.4077  0.1681 -0.0296
 1354TIP3   OH2 4067   0.868   4.720   0.766  0.2227  0.1671 -0.5438
 1354TIP3    H1 4068   0.826   4.661   0.703  1.0131  0.5825 -1.4873
 1354TIP3    H2 4069   0.804   4.728   0.837 -0.6063 -0.4805 -1.1861
 1355TIP3   OH2 4070   2.639   1.967   2.725 -0.1574 -0.0471 -0.7953
 1355TIP3    H1 4071   2.657   2.006   2.639  1.7849  0.8455 -0.0661
 1355TIP3    H2 4072   2.642   1.873   2.710  0.0120  0.0997 -1.7456
 1356TIP3   OH2 4073   3.769   3.089   3.577  0.1604 -0.3854  0.0292
 1356TIP3    H1 4074   3.826   3.166   3.588  0.4928 -0.4378 -1.2362
 1356TIP3    H2 4075   3.815   3.020   3.624  1.0566 -0.3753 -0.8116
 1357TIP3   OH2 4076   0.767   1.208   1.127  0.2319  0.6348  0.1527
 1357TIP3    H1 4077   0.764   1.260   1.207  0.7957  1.3135 -0.2617
 1357TIP3    H2 4078   0.818   1.130   1.150 -1.1083 -0.0541  0.9388
 1358TIP3   OH2 4079   4.069   4.264   1.437  0.5751  0.0267  0.6516
 1358TIP3    H1 4080   4.018   4.227   1.365  2.1847 -0.8390 -0.0987
 1358TIP3    H2 4081   4.114   4.189   1.475 -1.1833  0.2345  3.4477
 1359TIP3   OH2 4082   6.018   3.594   3.724 -0.0551  0.2661  0.1441
 1359TIP3    H1 4083   6.096   3.646   3.704  0.1538  0.1836  0.7357
 1359TIP3    H2 4084   6.036   3.554   3.809 -0.4142 -0.3969 -0.0846
 1360TIP3   OH2 4085   5.482   1.680   3.055  0.2056  0.6082 -0.1307
 1360TIP3    H1 4086   5.486   1.617   3.127 -2.1420  0.7679  0.2166
 1360TIP3    H2 4087   5.530   1.756   3.087  0.8837 -0.0508  0.4587
 1361TIP3   OH2 4088   6.009   1.367   2.376  0.0012 -0.2048 -0.2398
 1361TIP3    H1 4089   5.962   1.294   2.338 -0.5174 -0.7552  1.3790
 1361TIP3    H2 4090   5.961   1.388   2.456  2.7725 -1.2246  1.8704
 1362TIP3   OH2 4091   0.948   3.345   2.017  0.0528 -0.2427 -0.0739
 1362TIP3    H1 4092   1.032   3.378   1.983  1.1652 -1.4811  1.3289
 1362TIP3    H2 4093   0.940   3.387   2.103  0.3596 -1.7850  0.7421
 1363TIP3   OH2 4094   4.785   2.547   3.494 -0.5735 -0.6081 -0.0631
 1363TIP3    H1 4095   4.868   2.589   3.520 -0.9513 -0.1882  0.4849
 1363TIP3    H2 4096   4.779   2.564   3.400  0.6486 -1.8504 -0.3981
 1364TIP3   OH2 4097   0.297   5.144   4.990 -0.3063 -0.0721  0.6275
 1364TIP3    H1 4098   0.335   5.058   4.976 -0.9425 -0.2787  0.0957
 1364TIP3    H2 4099   0.362   5.205   4.955 -1.1647 -0.5008 -1.9187
 1365TIP3   OH2 4100   6.092   3.348   3.650  0.2620  0.0085 -0.0690
 1365TIP3    H1 4101   6.014   3.363   3.704  1.7314 -0.2391  2.2400
 1365TIP3    H2 4102   6.152   3.419   3.674  1.1940 -0.4443 -0.9842
 1366TIP3   OH2 4103   3.068   3.666   0.479 -0.6221 -0.5589  0.2892
 1366TIP3    H1 4104   2.996   3.642   0.537 -1.7323  2.3738  0.2710
 1366TIP3    H2 4105   3.027   3.680   0.394  0.2129 -0.2801 -0.0770
 1367TIP3   OH2 4106   2.472   4.499   4.322  0.1327 -0.1297  0.1459
 1367TIP3    H1 4107   2.507   4.571   4.374 -1.1634  0.5379  0.1431
 1367TIP3    H2 4108   2.415   4.541   4.258  1.3033 -0.9810 -1.5136
 1368TIP3   OH2 4109   2.027   2.353   1.699  0.1697 -0.3511  0.0247
 1368TIP3    H1 4110   2.037   2.318   1.610 -1.0259  2.0839 -1.1670
 1368TIP3    H2 4111   2.097   2.418   1.708  1.4346 -1.8450  1.6251
 1369TIP3   OH2 4112   1.900   4.692   4.861 -0.0944  0.5705 -0.3080
 1369TIP3    H1 4113   1.943   4.744   4.792  1.5353  1.1192  1.0465
 1369TIP3    H2 4114   1.923   4.602   4.841 -0.6589  0.5983 -1.1455
 1370TIP3   OH2 4115   5.580   5.919   4.837 -0.1252 -0.1197  0.3031
 1370TIP3    H1 4116   5.564   5.912   4.743 -1.2531 -0.7052  0.5236
 1370TIP3    H2 4117   5.618   5.834   4.861 -0.8854 -0.3889  0.5656
 1371TIP3   OH2 4118   3.610   2.186   3.177 -0.1374  0.5093 -1.0830
 1371TIP3    H1 4119   3.630   2.099   3.213  2.2314  1.0431 -0.9588
 1371TIP3    H2 4120   3.526   2.210   3.217 -0.9589 -1.7735 -1.2681
 1372TIP3   OH2 4121   2.598   3.874   3.966 -0.3847 -0.6415 -0.5133
 1372TIP3    H1 4122   2.597   3.908   3.876 -0.3536 -1.7073 -0.9341
 1372TIP3    H2 4123   2.657   3.798   3.963  0.4299 -0.0773  0.6530
 1373TIP3   OH2 4124   4.901   1.462   1.552 -0.3311  0.1352 -0.0294
 1373TIP3    H1 4125   4.831   1.435   1.493  0.1053  0.3336 -0.6474
 1373TIP3    H2 4126   4.949   1.529   1.504 -0.0677  0.4237  0.6194
 1374TIP3   OH2 4127   4.231   2.825   3.315  0.3510 -0.2747 -0.2926
 1374TIP3    H1 4128   4.220   2.876   3.395  1.7331  1.8467 -1.3554
 1374TIP3    H2 4129   4.292   2.756   3.339  1.3544  0.7895  0.3482
 1375TIP3   OH2 4130   3.815   0.008   4.101 -0.5795 -0.3380 -0.5778
 1375TIP3    H1 4131   3.910   0.000   4.093 -0.2821  2.1820 -0.4488
 1375TIP3    H2 4132   3.787   0.042   4.016 -0.9651  1.3373  0.1639
 1376TIP3   OH2 4133   2.535   5.192   1.021  0.0416  0.2612  0.5818
 1376TIP3    H1 4134   2.585   5.227   0.948  0.8281 -0.8696  0.5354
 1376TIP3    H2 4135   2.580   5.226   1.099  0.6959 -0.4715  0.5373
 1377TIP3   OH2 4136   2.826   3.014   0.545  0.8649  0.3267  0.7876
 1377TIP3    H1 4137   2.898   2.963   0.583  1.4481 -0.1951 -0.9602
 1377TIP3    H2 4138   2.868   3.073   0.483 -0.1883  0.1467 -0.1331
 1378TIP3   OH2 4139   5.187   5.467   4.701  0.3862  0.2910 -0.2057
 1378TIP3    H1 4140   5.207   5.552   4.742 -0.1569  1.6460 -2.5392
 1378TIP3    H2 4141   5.094   5.453   4.718  0.0454  1.0903 -1.2803
 1379TIP3   OH2 4142   3.326   3.819   5.091  0.4946 -0.3972  0.3672
 1379TIP3    H1 4143   3.268   3.746   5.115  0.3265 -0.7707 -1.0748
 1379TIP3    H2 4144   3.286   3.856   5.012  0.3056  1.5939  1.3409
 1380TIP3   OH2 4145   0.943   2.715   3.273  0.2525  0.0884 -0.4921
 1380TIP3    H1 4146   1.033   2.733   3.297 -0.6630  2.7846  1.4361
 1380TIP3    H2 4147   0.947   2.689   3.181  2.8944  0.7686 -0.6463
 1381TIP3   OH2 4148   2.769   5.461   4.241  0.2988  0.2860  0.3418
 1381TIP3    H1 4149   2.765   5.553   4.214  3.0557 -0.1421 -2.0028
 1381TIP3    H2 4150   2.678   5.438   4.260 -0.6583  3.0963 -0.3432
 1382TIP3   OH2 4151   4.391   2.878   2.473 -0.1987 -0.1926  0.4025
 1382TIP3    H1 4152   4.325   2.845   2.534  0.4142  0.2563  1.3377
 1382TIP3    H2 4153   4.345   2.885   2.389 -1.6126  0.9955  1.2339
 1383TIP3   OH2 4154   5.372   4.893   3.959 -0.0364 -0.1052 -0.3787
 1383TIP3    H1 4155   5.288   4.902   4.005  1.1749  2.5643  1.5817
 1383TIP3    H2 4156   5.424   4.834   4.013 -0.0089 -0.3114 -0.6241
 1384TIP3   OH2 4157   5.192   1.132   3.643  0.0553 -0.0722  0.0027
 1384TIP3    H1 4158   5.229   1.047   3.665 -0.2428 -0.3320 -0.4863
 1384TIP3    H2 4159   5.265   1.181   3.606 -0.0472 -0.5383 -0.8366
 1385TIP3   OH2 4160   6.128   5.827   3.941 -0.1498 -0.1846  0.6234
 1385TIP3    H1 4161   6.177   5.909   3.951 -0.0273  0.0194 -1.2710
 1385TIP3    H2 4162   6.195   5.760   3.930 -0.2418 -0.1420 -0.3308
 1386TIP3   OH2 4163   3.135   1.678   0.735 -0.2090  0.0860  0.3492
 1386TIP3    H1 4164   3.167   1.596   0.697 -2.9187 -0.8849 -0.0725
 1386TIP3    H2 4165   3.042   1.663   0.749 -0.3664  2.3444  2.3997
 1387TIP3   OH2 4166   1.661   4.638   4.518 -0.0215 -0.3425  0.5711
 1387TIP3    H1 4167   1.624   4.571   4.460  0.1542  0.1747 -0.1476
 1387TIP3    H2 4168   1.587   4.666   4.572 -0.6007  0.3902 -0.5748
 1388TIP3   OH2 4169   1.835   1.315   0.104 -0.5049 -0.4227 -0.0330
 1388TIP3    H1 4170   1.856   1.405   0.080  0.9301 -1.0020 -1.1023
 1388TIP3    H2 4171   1.845   1.312   0.199 -2.5090  0.9871  0.2888
 1389TIP3   OH2 4172   3.644   3.709   2.731 -0.4042  0.6202  0.3986
 1389TIP3    H1 4173   3.579   3.685   2.797 -1.3054  1.0591 -0.2974
 1389TIP3    H2 4174   3.687   3.627   2.708  1.5476  0.7222  3.1230
 1390TIP3   OH2 4175   5.599   0.141   3.052 -0.3750  0.5191 -0.2874
 1390TIP3    H1 4176   5.507   0.123   3.031 -0.0569  0.7397 -1.9718
 1390TIP3    H2 4177   5.648   0.092   2.986  0.7693 -0.3764  1.1739
 1391TIP3   OH2 4178   2.860   5.221   3.344  0.2767  0.5424  0.6387
 1391TIP3    H1 4179   2.864   5.141   3.292  0.4584  1.4765 -0.8338
 1391TIP3    H2 4180   2.853   5.190   3.435 -0.9940 -1.1258  0.0279
 1392TIP3   OH2 4181   6.302   2.038   2.209  0.3700 -0.1607  0.1941
 1392TIP3    H1 4182   6.367   2.007   2.272 -0.2852 -1.6684  0.1717
 1392TIP3    H2 4183   6.239   2.087   2.262  1.2684  0.9554  0.2732
 1393TIP3   OH2 4184   2.311   5.531   3.384  0.1272  0.1564  0.1328
 1393TIP3    H1 4185   2.259   5.537   3.464 -0.4933 -0.1719 -0.2394
 1393TIP3    H2 4186   2.267   5.591   3.323 -1.4742 -2.0816 -1.0725
 1394TIP3   OH2 4187   6.049   1.392   4.705 -0.0972  0.5142  0.0542
 1394TIP3    H1 4188   6.116   1.377   4.638  0.2374 -0.7915  0.6569
 1394TIP3    H2 4189   6.055   1.316   4.763 -0.4820  1.5390  1.4946
 1395TIP3   OH2 4190   1.863   2.196   4.530  0.2453 -0.2399 -0.0060
 1395TIP3    H1 4191   1.854   2.152   4.446  0.2461 -0.7865  0.2773
 1395TIP3    H2 4192   1.951   2.232   4.530  0.7103 -1.3535  0.2845
 1396TIP3   OH2 4193   5.413   4.189   2.382 -0.0912  0.2026 -0.1369
 1396TIP3    H1 4194   5.395   4.149   2.297 -0.6793 -1.1019  0.5788
 1396TIP3    H2 4195   5.408   4.284   2.365 -0.0085 -0.0265 -1.5832
 1397TIP3   OH2 4196   4.697   3.269   3.948  0.7624 -0.2938  0.0676
 1397TIP3    H1 4197   4.634   3.270   4.021 -0.9277 -2.1207 -1.2484
 1397TIP3    H2 4198   4.695   3.359   3.914 -2.7555 -0.6533 -1.1322
 1398TIP3   OH2 4199   1.755   2.402   1.626 -0.0673  0.0559 -0.5525
 1398TIP3    H1 4200   1.701   2.384   1.703 -1.3519  0.1347 -1.4071
 1398TIP3    H2 4201   1.837   2.358   1.644 -1.2042 -2.0495 -0.2004
 1399TIP3   OH2 4202   0.288   4.702   2.866 -0.6194  0.0256 -0.7434
 1399TIP3    H1 4203   0.351   4.631   2.882 -1.8408 -0.9732 -0.2082
 1399TIP3    H2 4204   0.292   4.716   2.771  0.5600  0.1306 -0.6915
 1400TIP3   OH2 4205   1.621   0.068   1.331 -0.3181  0.3028 -0.0590
 1400TIP3    H1 4206   1.649   0.148   1.287  0.1551 -0.3848 -1.0329
 1400TIP3    H2 4207   1.610   0.094   1.422  1.9645  0.9756  0.0840
 1401TIP3   OH2 4208   3.414   2.268   1.794 -0.6386  0.0451 -0.0832
 1401TIP3    H1 4209   3.425   2.243   1.886 -0.5859 -2.5170 -0.7101
 1401TIP3    H2 4210   3.491   2.321   1.774 -0.2252 -0.0733  1.1324
 1402TIP3   OH2 4211   5.015   0.582   2.608  0.5686  0.6492  0.7130
 1402TIP3    H1 4212   4.944   0.581   2.545  0.5942  0.0141  0.6920
 1402TIP3    H2 4213   4.992   0.652   2.669 -0.6292 -0.2459  1.3258
 1403TIP3   OH2 4214   4.358   0.793   0.174  0.8224  0.4437  0.2469
 1403TIP3    H1 4215   4.421   0.846   0.223  0.8159  1.1129 -0.4548
 1403TIP3    H2 4216   4.300   0.857   0.133  0.4824 -0.1302 -0.1802
 1404TIP3   OH2 4217   3.297   2.491   2.083 -0.3748 -0.5895 -0.4160
 1404TIP3    H1 4218   3.210   2.514   2.050 -0.8181 -0.5742  0.7270
 1404TIP3    H2 4219   3.352   2.566   2.062 -0.6958 -0.4962 -0.9302
 1405TIP3   OH2 4220   2.595   4.160   0.639 -0.4737 -0.1181  0.1878
 1405TIP3    H1 4221   2.503   4.163   0.665 -0.3372  0.4049  0.6270
 1405TIP3    H2 4222   2.605   4.233   0.578  0.1501  1.2711  1.8688
 1406TIP3   OH2 4223   4.531   0.066   2.025  0.1840 -0.4935 -0.6087
 1406TIP3    H1 4224   4.528   0.081   2.120  0.2051 -1.8838 -0.3708
 1406TIP3    H2 4225   4.569  -0.021   2.016  0.9825 -0.0352 -1.9484
 1407TIP3   OH2 4226   1.447   2.306   2.720 -0.3762 -0.2193  0.9017
 1407TIP3    H1 4227   1.468   2.378   2.780  1.3928  0.7123 -0.7239
 1407TIP3    H2 4228   1.531   2.261   2.708 -0.8241 -0.7252 -0.4127
 1408TIP3   OH2 4229   1.790   1.758   4.204  0.0901  0.1993 -0.1924
 1408TIP3    H1 4230   1.756   1.800   4.283  1.5224  1.4395 -0.2047
 1408TIP3    H2 4231   1.738   1.795   4.133 -0.8395 -0.5259  0.0749
 1409TIP3   OH2 4232   0.451   1.806   4.452 -0.2586 -0.4404 -0.3213
 1409TIP3    H1 4233   0.519   1.755   4.497 -1.4921 -1.0157  0.9626
 1409TIP3    H2 4234   0.382   1.742   4.434 -1.3905  0.5556  0.3736
 1410TIP3   OH2 4235   1.307   1.319   0.323 -0.2305 -0.4290  0.0799
 1410TIP3    H1 4236   1.244   1.374   0.276  0.3107  0.1194 -0.0231
 1410TIP3    H2 4237   1.343   1.261   0.257  0.4963  0.3104 -0.1961
 1411TIP3   OH2 4238   1.086   1.479   4.719  0.0223 -0.6308  0.6720
 1411TIP3    H1 4239   1.147   1.498   4.648 -1.9883  0.0927 -0.9264
 1411TIP3    H2 4240   1.110   1.391   4.748  0.3846 -1.2889 -1.4526
 1412TIP3   OH2 4241   0.759   4.353   4.770 -0.1703  0.3789  0.1829
 1412TIP3    H1 4242   0.756   4.308   4.855  0.4065  2.0773  1.1393
 1412TIP3    H2 4243   0.677   4.329   4.727 -0.3207 -0.7688  1.0600
 1413TIP3   OH2 4244   0.034   4.289   2.292 -0.5685 -0.0281 -0.9942
 1413TIP3    H1 4245  -0.042   4.340   2.267 -0.2834  0.9949  0.1436
 1413TIP3    H2 4246   0.098   4.353   2.323  0.3337 -0.9537 -0.8610
 1414TIP3   OH2 4247   1.153   4.110   3.891  0.3155 -0.1532  0.4537
 1414TIP3    H1 4248   1.169   4.148   3.977  1.7265 -0.5937  0.4143
 1414TIP3    H2 4249   1.131   4.184   3.835  0.5911  0.2892  0.9263
 1415TIP3   OH2 4250   6.366   5.727   3.117  0.5137 -0.5048  0.2838
 1415TIP3    H1 4251   6.306   5.681   3.177 -1.5683  2.6150  0.8290
 1415TIP3    H2 4252   6.364   5.818   3.147  2.6242  0.4201 -2.0804
 1416TIP3   OH2 4253   3.027   4.416   4.522 -0.4307 -0.1679  0.1479
 1416TIP3    H1 4254   3.055   4.328   4.498  0.3244  0.4300 -1.3235
 1416TIP3    H2 4255   2.984   4.406   4.606  1.4808 -1.6305  1.0252
 1417TIP3   OH2 4256   5.360   4.942   5.143 -0.3935  0.3052  0.0370
 1417TIP3    H1 4257   5.452   4.923   5.165 -0.1604  0.5496 -0.7086
 1417TIP3    H2 4258   5.312   4.916   5.222  0.3003  0.0718  0.4023
 1418TIP3   OH2 4259   2.850   4.926   1.704  0.3076  0.5692  0.0845
 1418TIP3    H1 4260   2.920   4.988   1.722 -0.5923  1.6128  0.0989
 1418TIP3    H2 4261   2.877   4.881   1.624  1.6247 -0.0261  0.8246
 1419TIP3   OH2 4262   0.532   2.985   2.189  0.5918 -0.5269  0.0990
 1419TIP3    H1 4263   0.603   2.933   2.152  3.1129  1.8698  1.1861
 1419TIP3    H2 4264   0.501   2.935   2.264  2.5051 -0.7758  0.7605
 1420TIP3   OH2 4265   1.137   0.274   3.082  0.2734 -0.4291  0.4958
 1420TIP3    H1 4266   1.076   0.302   3.151 -0.5245  0.2832 -0.4656
 1420TIP3    H2 4267   1.081   0.230   3.017  0.8993 -0.4741 -0.0269
 1421TIP3   OH2 4268   0.526   4.122   0.262  0.1160 -0.0188  0.1996
 1421TIP3    H1 4269   0.547   4.184   0.332  0.2971 -0.2180  0.3205
 1421TIP3    H2 4270   0.430   4.119   0.261  0.1000 -1.3662  1.6436
 1422TIP3   OH2 4271   1.048   4.418   2.588  0.0951  0.1681 -0.4769
 1422TIP3    H1 4272   1.044   4.437   2.494 -0.7604 -1.5289 -0.8320
 1422TIP3    H2 4273   1.137   4.388   2.603 -0.3564 -1.7983 -1.2925
 1423TIP3   OH2 4274   1.021   0.041   1.403  0.3507  0.4087 -0.1222
 1423TIP3    H1 4275   1.012  -0.011   1.324  1.1053  0.8973 -0.5413
 1423TIP3    H2 4276   1.063   0.122   1.374 -1.6155  1.6714  0.3462
 1424TIP3   OH2 4277   1.146   0.331   1.513 -0.1191 -0.0328 -0.1718
 1424TIP3    H1 4278   1.204   0.257   1.531  0.5806  0.1669 -1.4594
 1424TIP3    H2 4279   1.125   0.367   1.599  0.3347 -1.1222  0.4119
 1425TIP3   OH2 4280   4.691   2.702   3.782  0.7533 -0.2520 -0.6447
 1425TIP3    H1 4281   4.625   2.749   3.731  0.6359 -0.3501 -0.5841
 1425TIP3    H2 4282   4.640   2.646   3.841  0.8920 -0.7521 -0.9929
 1426TIP3   OH2 4283   4.519   5.298   2.555 -0.1688  0.5710 -0.0826
 1426TIP3    H1 4284   4.568   5.339   2.626  1.3073  1.8907 -1.7530
 1426TIP3    H2 4285   4.542   5.205   2.559  0.2133  0.6976  0.8740
 1427TIP3   OH2 4286   2.643   5.126   0.493 -0.1110  0.3827 -0.5164
 1427TIP3    H1 4287   2.676   5.170   0.415 -0.2022 -0.8992 -1.3146
 1427TIP3    H2 4288   2.549   5.114   0.475  0.1093 -1.0987 -0.8398
 1428TIP3   OH2 4289   3.239   1.917   1.799 -0.0099  0.0408  0.5698
 1428TIP3    H1 4290   3.288   1.987   1.756 -0.3519 -0.0744 -0.0301
 1428TIP3    H2 4291   3.305   1.851   1.822  0.0621 -0.4196 -0.8325
 1429TIP3   OH2 4292   5.069   5.381   5.013 -0.4446  0.0476 -0.7046
 1429TIP3    H1 4293   4.996   5.342   5.062  0.7305 -1.9473 -0.4225
 1429TIP3    H2 4294   5.106   5.446   5.073 -0.5195 -0.6580  0.1241
 1430TIP3   OH2 4295   2.197   4.166   4.688 -0.1318 -0.2569  0.3416
 1430TIP3    H1 4296   2.260   4.225   4.646  1.8298 -0.6898  2.4450
 1430TIP3    H2 4297   2.202   4.086   4.636  0.6115 -0.0862  0.1324
 1431TIP3   OH2 4298   0.037   0.070   4.865  0.0809  0.4441 -0.2528
 1431TIP3    H1 4299   0.034   0.030   4.952  1.6963  0.8823  0.0312
 1431TIP3    H2 4300   0.067   0.159   4.880  0.4684  0.4982 -1.2654
 1432TIP3   OH2 4301   5.774   5.593   4.614 -0.0204  0.5387 -0.5705
 1432TIP3    H1 4302   5.789   5.620   4.704  1.5767 -0.4347 -0.5026
 1432TIP3    H2 4303   5.687   5.551   4.616  0.0138  0.4892  0.5258
 1433TIP3   OH2 4304   0.494   5.294   4.848 -0.3017 -0.1536 -0.0020
 1433TIP3    H1 4305   0.430   5.341   4.795  1.4373 -0.1056 -2.2153
 1433TIP3    H2 4306   0.579   5.323   4.814  0.9939  0.2024  3.1426
 1434TIP3   OH2 4307   3.225   1.270   4.636  0.5963  0.5031 -0.2738
 1434TIP3    H1 4308   3.207   1.188   4.682  3.8943 -1.8571 -2.7229
 1434TIP3    H2 4309   3.169   1.266   4.559  0.9415  0.4096 -0.5218
 1435TIP3   OH2 4310   1.763   0.415   3.789 -0.1134  0.0200  0.2471
 1435TIP3    H1 4311   1.683   0.422   3.841 -0.0975  0.8746  0.1820
 1435TIP3    H2 4312   1.779   0.321   3.780 -1.1455 -0.1597  0.2047
 1436TIP3   OH2 4313   5.977   4.628   2.740  0.2540  0.3266 -0.2701
 1436TIP3    H1 4314   5.965   4.627   2.835 -0.4341 -0.4687 -0.3604
 1436TIP3    H2 4315   5.982   4.721   2.718 -2.7134  0.6818  0.1708
 1437TIP3   OH2 4316   2.285   0.361   3.995  0.2836 -0.3542 -0.5623
 1437TIP3    H1 4317   2.281   0.361   3.899 -0.5417  2.4862 -0.5960
 1437TIP3    H2 4318   2.202   0.399   4.023  0.0439 -2.1344  1.3756
 1438TIP3   OH2 4319   1.319   0.205   0.621 -0.1442  0.1913 -0.0892
 1438TIP3    H1 4320   1.387   0.258   0.662 -1.4664  2.1373 -0.2760
 1438TIP3    H2 4321   1.270   0.266   0.567 -0.4613 -1.6792 -2.0393
 1439TIP3   OH2 4322   3.416   2.143   4.784  0.3054 -0.1757 -0.6982
 1439TIP3    H1 4323   3.417   2.110   4.874  0.1770  0.3839 -0.4912
 1439TIP3    H2 4324   3.431   2.237   4.792 -1.1021  0.1043 -1.1579
 1440TIP3   OH2 4325   5.536   5.289   3.148 -0.6985 -0.2241 -0.0362
 1440TIP3    H1 4326   5.532   5.239   3.229  1.3895  3.1348  2.4022
 1440TIP3    H2 4327   5.629   5.311   3.138 -1.2000  1.2632 -2.1860
 1441TIP3   OH2 4328   1.164   2.867   1.118  0.5622 -0.5917  0.2335
 1441TIP3    H1 4329   1.153   2.798   1.185 -0.3086  0.3449  1.0813
 1441TIP3    H2 4330   1.190   2.944   1.168  3.1264 -0.6251 -0.8558
 1442TIP3   OH2 4331   1.573   5.879   5.177 -0.1797  0.0872 -0.5581
 1442TIP3    H1 4332   1.609   5.923   5.099  0.2776  0.5889 -0.0728
 1442TIP3    H2 4333   1.645   5.880   5.240 -0.6165 -0.1237 -0.0514
 1443TIP3   OH2 4334   0.890   1.643   2.008 -0.1644 -0.4974  0.1479
 1443TIP3    H1 4335   0.931   1.630   1.922  0.2611 -2.1922  0.5795
 1443TIP3    H2 4336   0.811   1.693   1.989  1.7400  2.4904 -0.7837
 1444TIP3   OH2 4337   4.636   1.064   1.534  0.6152 -0.1930 -0.3461
 1444TIP3    H1 4338   4.655   1.136   1.594 -0.9549  0.3307 -0.4166
 1444TIP3    H2 4339   4.543   1.076   1.512  0.5449 -1.7674 -1.0082
 1445TIP3   OH2 4340   4.127   0.564   3.219  0.2345  0.5755 -0.2910
 1445TIP3    H1 4341   4.111   0.589   3.128  0.8308 -2.0072 -1.1924
 1445TIP3    H2 4342   4.040   0.548   3.255  0.0785 -0.6226 -1.1416
 1446TIP3   OH2 4343   0.321   1.561   2.301 -0.4126  0.0907 -0.3058
 1446TIP3    H1 4344   0.412   1.561   2.331 -0.5548  2.8114  0.3499
 1446TIP3    H2 4345   0.319   1.622   2.228 -1.4920 -1.0094 -1.2466
 1447TIP3   OH2 4346   5.279   1.959   2.491  0.0664  0.0069  0.0364
 1447TIP3    H1 4347   5.245   1.949   2.580  1.1391 -0.2096  0.4326
 1447TIP3    H2 4348   5.226   2.029   2.453  0.4558  1.0096  1.2798
 1448TIP3   OH2 4349   5.363   5.182   4.693  0.0692  0.3023  0.0025
 1448TIP3    H1 4350   5.353   5.188   4.788  0.2168 -2.0768  0.2374
 1448TIP3    H2 4351   5.277   5.154   4.661  0.8870 -2.4281 -0.0725
 1449TIP3   OH2 4352   1.898   3.077   4.109  0.5565 -0.0616  0.2528
 1449TIP3    H1 4353   1.811   3.112   4.128  1.1041  0.9088  1.1107
 1449TIP3    H2 4354   1.895   2.986   4.139 -0.8373 -0.7833 -1.8293
 1450TIP3   OH2 4355   1.330   5.271   0.403 -0.0025 -0.1226  0.2801
 1450TIP3    H1 4356   1.258   5.223   0.443 -1.2458  1.3515 -0.0914
 1450TIP3    H2 4357   1.295   5.302   0.319  1.1887  0.3267 -0.0799
 1451TIP3   OH2 4358   0.273   4.045   4.211 -0.1606 -0.3237 -0.5784
 1451TIP3    H1 4359   0.222   3.972   4.247 -0.0234  0.0062  0.3183
 1451TIP3    H2 4360   0.263   4.037   4.116  1.1589 -2.4587 -0.5862
 1452TIP3   OH2 4361   4.539   3.175   1.005  0.0698  0.1183  0.2263
 1452TIP3    H1 4362   4.445   3.185   0.991  0.2304  1.7174  0.0801
 1452TIP3    H2 4363   4.560   3.089   0.970 -0.8565  0.9169 -2.5721
 1453TIP3   OH2 4364   5.570   3.977   0.934  0.0329  0.1797 -0.5437
 1453TIP3    H1 4365   5.574   4.064   0.974 -0.1303  0.3406 -0.8788
 1453TIP3    H2 4366   5.526   3.923   1.000  1.3605  0.0239  0.2351
 1454TIP3   OH2 4367   0.855   2.049   3.885  0.5404  0.2792 -0.1745
 1454TIP3    H1 4368   0.808   2.092   3.814  2.2872 -0.6998 -2.0295
 1454TIP3    H2 4369   0.819   2.087   3.965 -1.1144  1.8269 -1.5834
 1455TIP3   OH2 4370   5.040   3.024   4.677  0.1601 -0.0841 -0.4821
 1455TIP3    H1 4371   5.035   3.120   4.683  0.3555 -0.0742 -0.4728
 1455TIP3    H2 4372   4.957   2.998   4.638  0.7287  0.2072 -1.9438
 1456TIP3   OH2 4373   2.607   5.205   4.066  0.3186 -0.0415  0.0178
 1456TIP3    H1 4374   2.613   5.193   4.161  1.7208  0.5478  0.0295
 1456TIP3    H2 4375   2.544   5.276   4.054  1.4805  1.1495  0.6414
 1457TIP3   OH2 4376   3.001   5.577   0.023  0.4482  0.1386 -0.1075
 1457TIP3    H1 4377   3.078   5.630  -0.001 -0.0324 -0.5956 -3.8911
 1457TIP3    H2 4378   3.037   5.493   0.049  1.0048  0.0200 -1.1983
 1458TIP3   OH2 4379   5.619   1.253   2.306 -0.1015  0.1319 -0.5962
 1458TIP3    H1 4380   5.543   1.230   2.253 -1.1071  2.0936 -0.0916
 1458TIP3    H2 4381   5.589   1.243   2.397  0.5608 -0.0099 -0.3855
 1459TIP3   OH2 4382   0.790   4.746   0.061  0.3046  0.5398 -0.5698
 1459TIP3    H1 4383   0.764   4.654   0.053  0.8897  0.2895  0.2599
 1459TIP3    H2 4384   0.886   4.744   0.066  0.3243  1.1984 -0.5433
 1460TIP3   OH2 4385   1.613   2.709   4.067 -0.0986  0.0812  0.4093
 1460TIP3    H1 4386   1.633   2.697   4.160  1.6652  0.0653  0.0723
 1460TIP3    H2 4387   1.612   2.620   4.032  0.6196  0.1645  0.1689
 1461TIP3   OH2 4388   5.862   1.704   4.225 -0.1531 -0.0016  0.9223
 1461TIP3    H1 4389   5.831   1.760   4.154 -1.2842 -0.4265  1.0624
 1461TIP3    H2 4390   5.849   1.757   4.304 -1.8055 -0.6366  1.1247
 1462TIP3   OH2 4391   1.021   2.778   4.542 -0.1440 -0.6355 -0.1898
 1462TIP3    H1 4392   1.035   2.684   4.553 -1.0025 -1.1263 -2.7037
 1462TIP3    H2 4393   1.092   2.808   4.485 -0.1568  0.1661  0.1872
 1463TIP3   OH2 4394   5.021   4.616   5.071 -0.1114  0.1559 -0.5700
 1463TIP3    H1 4395   4.991   4.695   5.116  0.5906 -0.4469  1.0094
 1463TIP3    H2 4396   5.117   4.619   5.079 -0.1149 -1.3655  0.4369
 1464TIP3   OH2 4397   4.213   4.695   0.513  0.5753  0.1860 -0.0070
 1464TIP3    H1 4398   4.262   4.622   0.477 -3.1577 -3.2659  1.2018
 1464TIP3    H2 4399   4.169   4.734   0.437  1.6239  0.3994 -0.5144
 1465TIP3   OH2 4400   5.167   3.415   1.756 -0.0293  0.0109  0.0085
 1465TIP3    H1 4401   5.214   3.488   1.714 -0.3207  1.2882  1.7754
 1465TIP3    H2 4402   5.083   3.412   1.710  0.0541  0.6762 -0.2071
 1466TIP3   OH2 4403   4.993   3.426   0.508 -0.6599  0.4130 -0.1173
 1466TIP3    H1 4404   4.983   3.447   0.601  1.2991 -0.7524  0.4192
 1466TIP3    H2 4405   5.007   3.511   0.466 -0.9093  0.8997  0.7499
 1467TIP3   OH2 4406   1.362   3.006   5.164 -0.2185 -0.2270 -0.3712
 1467TIP3    H1 4407   1.295   3.042   5.222 -1.0281 -0.1259 -1.3391
 1467TIP3    H2 4408   1.346   3.048   5.080  0.9808 -0.3179 -0.6609
 1468TIP3   OH2 4409   4.486   3.565   1.753 -0.3730 -0.3793  0.3390
 1468TIP3    H1 4410   4.432   3.587   1.829 -0.6846 -0.6386  0.1996
 1468TIP3    H2 4411   4.576   3.582   1.780 -0.5178 -0.0736  0.6239
 1469TIP3   OH2 4412   1.295   3.483   4.996 -0.4394  0.3488  0.3966
 1469TIP3    H1 4413   1.378   3.441   5.018  0.1134  1.4349  0.4256
 1469TIP3    H2 4414   1.236   3.459   5.068  0.0711  0.2059  0.7700
 1470TIP3   OH2 4415   0.482   0.909   3.280  0.2521  0.5355  0.0183
 1470TIP3    H1 4416   0.557   0.870   3.324 -0.5248  1.5278  2.3918
 1470TIP3    H2 4417   0.503   0.904   3.187  1.7983 -2.0809  0.4275
 1471TIP3   OH2 4418   6.036   2.045   2.789 -0.2045 -0.4170 -0.4905
 1471TIP3    H1 4419   6.109   2.077   2.737  0.2199 -1.9111 -0.8767
 1471TIP3    H2 4420   5.983   2.123   2.807  1.3985  0.6682 -0.2984
 1472TIP3   OH2 4421   4.010   2.735   1.854 -0.1499  0.2992  0.2712
 1472TIP3    H1 4422   4.066   2.711   1.928 -0.9325  0.1399  0.8221
 1472TIP3    H2 4423   3.921   2.727   1.888 -0.5412 -0.5507 -0.9225
 1473TIP3   OH2 4424   3.792   1.180   5.142  0.5829  0.5809 -0.6335
 1473TIP3    H1 4425   3.738   1.112   5.183  1.0838  1.0532  0.8859
 1473TIP3    H2 4426   3.877   1.137   5.128  0.5434  0.5497 -0.7811
 1474TIP3   OH2 4427   2.681   5.169   2.545  0.1773 -0.1956  0.2943
 1474TIP3    H1 4428   2.689   5.170   2.449  0.2261 -1.5649  0.2668
 1474TIP3    H2 4429   2.696   5.077   2.569  1.4518  0.3632  1.7293
 1475TIP3   OH2 4430   3.671   0.923   1.513 -0.2746  0.2423  0.2695
 1475TIP3    H1 4431   3.618   1.000   1.530 -0.5976 -0.1060  0.8552
 1475TIP3    H2 4432   3.741   0.954   1.455 -0.7968  0.8170 -0.0571
 1476TIP3   OH2 4433   0.859   1.321   0.885 -0.2625  0.6310  0.1201
 1476TIP3    H1 4434   0.841   1.273   0.965  0.0698 -0.2858 -0.3452
 1476TIP3    H2 4435   0.781   1.376   0.872 -1.8419 -1.6333 -0.6724
 1477TIP3   OH2 4436   5.497   0.897   0.073 -0.4797 -0.0501 -0.0856
 1477TIP3    H1 4437   5.584   0.863   0.095  0.1486  2.3375  1.5722
 1477TIP3    H2 4438   5.442   0.819   0.066  1.5956 -1.5837 -0.3149
 1478TIP3   OH2 4439   0.644   1.864   1.476 -0.3501 -0.2020 -0.1930
 1478TIP3    H1 4440   0.590   1.936   1.444 -1.0006 -0.5471  0.0903
 1478TIP3    H2 4441   0.587   1.787   1.468  0.1981 -0.6180 -0.1307
 1479TIP3   OH2 4442   2.516   3.223   2.557 -0.2277 -0.4610 -0.0701
 1479TIP3    H1 4443   2.507   3.316   2.575  0.7195 -0.4302  0.2802
 1479TIP3    H2 4444   2.457   3.181   2.619  1.1101 -0.2138  1.4238
 1480TIP3   OH2 4445   2.230   3.772   0.171 -0.4165 -0.0063 -0.3069
 1480TIP3    H1 4446   2.149   3.728   0.142 -1.5225  0.4577  1.8697
 1480TIP3    H2 4447   2.212   3.865   0.156  0.7659 -0.0156 -2.1422
 1481TIP3   OH2 4448   3.854   3.523   4.965  0.3944 -0.0740 -0.2864
 1481TIP3    H1 4449   3.919   3.592   4.954  2.0538 -1.5085  0.0891
 1481TIP3    H2 4450   3.897   3.443   4.935 -0.5281 -1.3926  1.6017
 1482TIP3   OH2 4451   3.718   3.738   3.906 -0.5369 -0.3718  0.0016
 1482TIP3    H1 4452   3.765   3.656   3.917 -2.6745 -1.4494  1.9325
 1482TIP3    H2 4453   3.771   3.802   3.954 -0.4835 -1.3345  1.2748
 1483TIP3   OH2 4454   0.396   3.912   1.533  0.0084  0.3519 -0.2550
 1483TIP3    H1 4455   0.391   3.821   1.504  1.1517 -0.3305  1.4963
 1483TIP3    H2 4456   0.314   3.926   1.581 -0.1829  0.2531 -0.5514
 1484TIP3   OH2 4457   1.164   5.773   3.674  0.0573 -0.1840  0.1749
 1484TIP3    H1 4458   1.123   5.781   3.760  1.0007 -1.9181  0.8497
 1484TIP3    H2 4459   1.094   5.792   3.612 -0.3391  2.3788  1.2765
 1485TIP3   OH2 4460   0.969   3.351   0.798  0.2134 -0.0469  0.0606
 1485TIP3    H1 4461   0.885   3.364   0.843  0.4490 -1.0078  0.8085
 1485TIP3    H2 4462   0.944   3.324   0.709 -0.2520  1.7786 -0.4071
 1486TIP3   OH2 4463   6.109   0.371   2.799 -0.2129 -0.3448 -0.1068
 1486TIP3    H1 4464   6.030   0.395   2.848  0.1920  0.0193  0.3842
 1486TIP3    H2 4465   6.177   0.365   2.866 -0.1014 -2.0517 -0.3192
 1487TIP3   OH2 4466   0.056   0.395   4.153  0.1462  0.3901 -0.6382
 1487TIP3    H1 4467   0.100   0.457   4.094 -1.2652  2.0147 -0.0734
 1487TIP3    H2 4468   0.127   0.341   4.188  1.2657  0.7667 -2.2055
 1488TIP3   OH2 4469   1.267   5.280   4.144 -0.0686  0.3379  0.6363
 1488TIP3    H1 4470   1.237   5.247   4.228  0.7595  0.4306  0.9794
 1488TIP3    H2 4471   1.346   5.330   4.164  1.6200 -1.7113 -0.4348
 1489TIP3   OH2 4472   3.085   3.064   3.970  0.5678 -0.2326  0.1566
 1489TIP3    H1 4473   3.156   3.004   3.995 -0.6879 -1.6390  0.5031
 1489TIP3    H2 4474   3.032   3.073   4.049 -0.1838  0.0221 -0.3662
 1490TIP3   OH2 4475   5.824   3.015   2.605  0.1494 -0.0770 -0.3021
 1490TIP3    H1 4476   5.836   2.944   2.668 -0.8246 -1.1904 -1.3099
 1490TIP3    H2 4477   5.738   2.998   2.566  1.5100 -0.6187 -3.3265
 1491TIP3   OH2 4478   5.318   5.745   3.051  0.0147  0.1446  0.5528
 1491TIP3    H1 4479   5.352   5.816   3.105  0.3523 -0.6455  1.4120
 1491TIP3    H2 4480   5.302   5.785   2.965 -1.1365  1.5673  1.3931
 1492TIP3   OH2 4481   4.992   2.077   0.454 -0.0469 -0.1918 -0.0599
 1492TIP3    H1 4482   4.958   1.988   0.461  0.0990 -0.2543 -0.1518
 1492TIP3    H2 4483   4.927   2.123   0.401  0.1272 -0.3718 -0.4334
 1493TIP3   OH2 4484   1.489   4.039   4.188 -0.0370 -0.2120 -0.3372
 1493TIP3    H1 4485   1.515   3.971   4.126  0.3078 -2.3807  2.0089
 1493TIP3    H2 4486   1.564   4.097   4.194  1.4179 -2.0856  0.7067
 1494TIP3   OH2 4487   3.205   5.910   2.299  0.4393  0.0076 -1.2251
 1494TIP3    H1 4488   3.234   5.907   2.207 -0.2933 -1.1247 -1.4317
 1494TIP3    H2 4489   3.182   5.820   2.320 -0.2565  0.4143 -0.1983
 1495TIP3   OH2 4490   6.311   3.712   0.352 -0.0576  0.2067  0.1567
 1495TIP3    H1 4491   6.233   3.732   0.404  0.0437  0.3652  0.2489
 1495TIP3    H2 4492   6.328   3.793   0.304 -0.3767 -0.0616 -0.4136
 1496TIP3   OH2 4493   5.769   4.924   2.052 -0.0668 -0.2161  0.0418
 1496TIP3    H1 4494   5.766   4.867   1.975  1.6506 -0.4653  0.1304
 1496TIP3    H2 4495   5.756   5.012   2.017  1.1114 -0.2873 -0.6090
 1497TIP3   OH2 4496   0.358   2.379   1.718  0.2101 -0.3943 -0.0700
 1497TIP3    H1 4497   0.385   2.466   1.745  0.0634 -0.4478  0.2507
 1497TIP3    H2 4498   0.263   2.379   1.729  0.1973 -0.5599 -0.1739
 1498TIP3   OH2 4499   1.350   0.746   4.652  0.0480 -0.0716 -0.0875
 1498TIP3    H1 4500   1.293   0.816   4.683 -0.6046 -0.6869  0.1495
 1498TIP3    H2 4501   1.367   0.693   4.731 -2.9446 -2.5938 -0.9302
 1499TIP3   OH2 4502   4.222   5.868   3.029 -0.4819 -0.2195 -0.2074
 1499TIP3    H1 4503   4.129   5.855   3.046 -0.8356  1.4150 -0.7560
 1499TIP3    H2 4504   4.244   5.803   2.962 -0.9582 -1.2928  0.6353
 1500TIP3   OH2 4505   5.079   1.215   2.488 -0.3063  0.1196  0.3803
 1500TIP3    H1 4506   5.064   1.265   2.568 -0.1658  1.5597 -0.4655
 1500TIP3    H2 4507   5.101   1.281   2.422  1.5454 -1.1825 -0.3885
 1501TIP3   OH2 4508   1.558   3.544   4.747 -0.1549 -0.1545 -0.5051
 1501TIP3    H1 4509   1.622   3.587   4.803 -0.5463  0.7468 -0.7416
 1501TIP3    H2 4510   1.602   3.534   4.663 -0.1199 -0.0803 -0.4950
 1502TIP3   OH2 4511   0.520   0.038   3.546 -0.3102 -0.1617  0.0654
 1502TIP3    H1 4512   0.575  -0.030   3.507 -0.7747 -0.5437  0.0730
 1502TIP3    H2 4513   0.430   0.006   3.536 -0.5852  0.7399 -0.5040
 1503TIP3   OH2 4514   0.769   4.185   1.337  0.3030  0.5819 -0.1578
 1503TIP3    H1 4515   0.844   4.244   1.347  1.2518 -0.3157 -1.7020
 1503TIP3    H2 4516   0.705   4.217   1.402  1.9585  1.4168  1.1425
 1504TIP3   OH2 4517   5.792   2.930   3.652  0.1031  0.1612  0.3166
 1504TIP3    H1 4518   5.808   2.991   3.580  2.2648 -0.9403 -0.2157
 1504TIP3    H2 4519   5.853   2.957   3.721  1.1696 -1.3843  0.0409
 1505TIP3   OH2 4520   1.893   2.937   1.131 -1.0508 -0.1734 -0.4079
 1505TIP3    H1 4521   1.903   3.028   1.159 -0.1055 -0.4686  0.2921
 1505TIP3    H2 4522   1.848   2.894   1.204 -0.7236 -0.4440 -0.3606
 1506TIP3   OH2 4523   0.811   2.960   0.464  0.6240 -0.0495 -0.4185
 1506TIP3    H1 4524   0.791   3.050   0.438  0.3937  0.4098  1.2042
 1506TIP3    H2 4525   0.729   2.913   0.451  0.0557  0.5268  0.8450
 1507TIP3   OH2 4526   5.971   4.675   0.673 -0.5615  0.2568  0.1464
 1507TIP3    H1 4527   5.998   4.587   0.646 -0.1443  0.2081  0.7019
 1507TIP3    H2 4528   6.046   4.709   0.723 -1.6074  0.0306  1.9590
 1508TIP3   OH2 4529   3.723   3.845   2.465 -0.0846  0.0144 -0.1356
 1508TIP3    H1 4530   3.706   3.762   2.421 -1.1953 -0.1765  0.6077
 1508TIP3    H2 4531   3.697   3.830   2.555 -2.4309  1.7840 -0.4272
 1509TIP3   OH2 4532   1.524   4.081   3.202 -1.1529 -0.6887 -0.0472
 1509TIP3    H1 4533   1.523   4.173   3.176 -3.3936 -0.9453 -1.1981
 1509TIP3    H2 4534   1.534   4.082   3.297  0.2703  0.6487 -0.1814
 1510TIP3   OH2 4535   6.286   3.475   1.244  0.7290 -0.2384  0.1835
 1510TIP3    H1 4536   6.331   3.542   1.294  0.2733 -0.0180  0.3032
 1510TIP3    H2 4537   6.216   3.522   1.198  1.7152 -0.2564 -1.4228
 1511TIP3   OH2 4538   1.703   1.524   0.516 -0.0743  0.5230 -0.5127
 1511TIP3    H1 4539   1.618   1.512   0.474 -0.2905 -1.4307  0.3325
 1511TIP3    H2 4540   1.734   1.609   0.486 -1.8513  0.8077 -1.6655
 1512TIP3   OH2 4541   4.187   5.520   2.731  0.4550  0.8245  0.8327
 1512TIP3    H1 4542   4.107   5.561   2.698  0.8783 -0.1303 -1.5826
 1512TIP3    H2 4543   4.156   5.451   2.789 -0.5239  0.2944 -0.2710
 1513TIP3   OH2 4544   4.774   5.394   0.167 -0.2301 -0.0292 -0.5148
 1513TIP3    H1 4545   4.832   5.331   0.210 -0.7088  0.5595  1.0720
 1513TIP3    H2 4546   4.787   5.476   0.216  0.6584  1.2555 -2.7548
 1514TIP3   OH2 4547   3.476   1.022   4.901 -0.1098  0.5694 -0.3706
 1514TIP3    H1 4548   3.456   0.990   4.812 -0.2923 -1.2395  0.2732
 1514TIP3    H2 4549   3.390   1.038   4.940 -0.0970 -0.2264  0.0044
 1515TIP3   OH2 4550   5.307   4.489   3.779  0.2095 -0.2519  0.1178
 1515TIP3    H1 4551   5.379   4.465   3.838  0.4409  1.9712  0.8144
 1515TIP3    H2 4552   5.336   4.570   3.738 -2.4359  1.5081  1.4577
 1516TIP3   OH2 4553   3.774   0.955   1.252  0.1576 -0.1644  0.2933
 1516TIP3    H1 4554   3.692   1.006   1.257  0.6031  0.6258 -0.2316
 1516TIP3    H2 4555   3.762   0.899   1.176  0.5666  0.8383 -0.5458
 1517TIP3   OH2 4556   5.559   0.619   3.676 -0.5668  0.0314 -0.0702
 1517TIP3    H1 4557   5.618   0.582   3.741 -0.0362 -0.8177 -1.0106
 1517TIP3    H2 4558   5.616   0.651   3.606 -1.1264  0.8897 -0.1573
 1518TIP3   OH2 4559   6.046   2.350   2.735  0.3662 -0.0201  0.1506
 1518TIP3    H1 4560   6.025   2.422   2.794 -1.6771  0.0377 -0.5661
 1518TIP3    H2 4561   6.003   2.372   2.653  0.5573 -1.5750 -0.4132
 1519TIP3   OH2 4562   1.075   1.237   3.439  0.2711  0.0077  0.0353
 1519TIP3    H1 4563   1.157   1.222   3.390 -0.1807 -0.0496 -0.7256
 1519TIP3    H2 4564   1.012   1.263   3.372  0.3437  2.8866  0.9253
 1520TIP3   OH2 4565   1.319   5.090   1.361  0.4816 -0.5173 -0.2999
 1520TIP3    H1 4566   1.280   5.156   1.304 -0.7228  0.2270  1.3083
 1520TIP3    H2 4567   1.286   5.007   1.326 -1.8974  0.0363  0.4356
 1521TIP3   OH2 4568   6.116   2.153   1.597  1.2371  0.6879  0.6614
 1521TIP3    H1 4569   6.139   2.235   1.555 -0.2845  0.5910 -0.4527
 1521TIP3    H2 4570   6.200   2.112   1.619  2.1226  0.9548 -1.8932
 1522TIP3   OH2 4571   3.962   2.235   0.525  0.1208 -0.2545  0.0896
 1522TIP3    H1 4572   3.949   2.140   0.533  0.3838 -0.2102  1.0914
 1522TIP3    H2 4573   4.054   2.244   0.499  0.0599 -0.2726 -0.1387
 1523TIP3   OH2 4574   2.171   3.735   2.973 -0.3360 -0.1083  0.0404
 1523TIP3    H1 4575   2.079   3.711   2.960 -0.5380  0.9040 -0.4976
 1523TIP3    H2 4576   2.169   3.806   3.037  0.3563 -2.3092  2.6548
 1524TIP3   OH2 4577   4.409   5.610   0.812 -0.1238 -0.1927 -0.8783
 1524TIP3    H1 4578   4.448   5.640   0.894  0.1634  2.0613 -1.7743
 1524TIP3    H2 4579   4.472   5.636   0.745 -1.2864 -0.1640 -1.9970
 1525TIP3   OH2 4580   5.957   5.525   4.124 -0.1459  0.5779 -0.6390
 1525TIP3    H1 4581   6.029   5.571   4.167 -0.8810  2.9418 -1.7514
 1525TIP3    H2 4582   5.886   5.590   4.119 -1.1701 -0.5731 -2.5724
 1526TIP3   OH2 4583   3.356   4.880   1.999 -0.3686  0.1499  0.1218
 1526TIP3    H1 4584   3.316   4.813   2.054 -1.0742  0.5689  0.1260
 1526TIP3    H2 4585   3.290   4.901   1.934  0.0694  0.4267 -0.2432
 1527TIP3   OH2 4586   3.719   4.086   0.634  0.1178 -0.0954 -0.0615
 1527TIP3    H1 4587   3.645   4.111   0.690 -0.4361  1.3305 -1.3618
 1527TIP3    H2 4588   3.778   4.162   0.637  2.0047 -1.5105  1.5989
 1528TIP3   OH2 4589   4.590   4.988   3.899  0.3612  0.1480 -0.3428
 1528TIP3    H1 4590   4.634   4.928   3.959  0.6471 -0.1668 -0.8625
 1528TIP3    H2 4591   4.529   4.933   3.851 -1.9883  0.8362  1.6041
 1529TIP3   OH2 4592   1.763   4.874   0.337  0.1371  0.0862 -0.8041
 1529TIP3    H1 4593   1.833   4.890   0.274  1.3708  0.6744  0.6590
 1529TIP3    H2 4594   1.790   4.795   0.384 -0.9384 -0.5439 -1.1968
 1530TIP3   OH2 4595   6.287   0.072   3.388 -0.0679 -0.1672 -0.0722
 1530TIP3    H1 4596   6.265   0.018   3.312 -0.5322 -1.9163  1.2312
 1530TIP3    H2 4597   6.213   0.061   3.448 -0.5247  2.5533 -0.0015
 1531TIP3   OH2 4598   3.539   2.305   2.311  0.7744 -0.1678  0.3446
 1531TIP3    H1 4599   3.600   2.236   2.285  0.5631  0.1777 -1.2144
 1531TIP3    H2 4600   3.587   2.387   2.299  0.2773  0.0661 -0.1203
 1532TIP3   OH2 4601   0.726   1.384   0.117 -0.2704 -0.1309 -0.6040
 1532TIP3    H1 4602   0.786   1.349   0.050 -1.8405 -0.4074 -1.9208
 1532TIP3    H2 4603   0.659   1.431   0.067 -1.9454 -1.0297  0.7062
 1533TIP3   OH2 4604   1.268   5.407   2.759 -0.2206 -0.2629 -0.5246
 1533TIP3    H1 4605   1.202   5.465   2.721  0.7857  1.2097 -0.1192
 1533TIP3    H2 4606   1.348   5.427   2.711  0.6739  0.3744  1.1522
 1534TIP3   OH2 4607   2.817   4.720   5.089  0.3763 -0.2800  0.3246
 1534TIP3    H1 4608   2.771   4.764   5.159 -1.9917  0.8474 -1.7718
 1534TIP3    H2 4609   2.901   4.765   5.082  0.9384 -0.8383  2.7371
 1535TIP3   OH2 4610   3.530   2.177   0.231 -0.5685  0.0034  0.4801
 1535TIP3    H1 4611   3.450   2.187   0.283  0.0567  0.7352  1.3271
 1535TIP3    H2 4612   3.598   2.159   0.296 -0.2239 -1.8635 -0.3205
 1536TIP3   OH2 4613   3.700   1.091   3.044 -0.0277  0.0638  0.0459
 1536TIP3    H1 4614   3.680   1.184   3.051  2.2780  0.8313 -2.1654
 1536TIP3    H2 4615   3.775   1.078   3.101  0.1725 -0.2518 -0.2825
 1537TIP3   OH2 4616   5.916   2.293   4.634  0.0172 -0.7056  0.1004
 1537TIP3    H1 4617   5.965   2.373   4.654  0.7401 -1.1363  0.0904
 1537TIP3    H2 4618   5.850   2.320   4.570 -2.0217  0.6018  2.5841
 1538TIP3   OH2 4619   0.835   0.701   2.071 -1.1190  0.2880 -0.2802
 1538TIP3    H1 4620   0.918   0.683   2.116  0.5477  1.1092 -2.8205
 1538TIP3    H2 4621   0.810   0.788   2.101  0.2523  1.0573 -1.2689
 1539TIP3   OH2 4622   4.955   2.256   1.883 -0.0295  0.2060  0.4947
 1539TIP3    H1 4623   4.938   2.170   1.922  1.4980 -0.5980 -0.5238
 1539TIP3    H2 4624   5.047   2.253   1.858 -0.5249  1.2787 -1.6763
 1540TIP3   OH2 4625   3.175   1.374   3.001  0.1678  0.2373 -0.6830
 1540TIP3    H1 4626   3.080   1.379   3.009  0.2274  0.4976 -0.0211
 1540TIP3    H2 4627   3.207   1.421   3.079  0.8336  0.4255 -1.0687
 1541TIP3   OH2 4628   5.996   0.128   3.687  0.0765 -0.1663  0.1246
 1541TIP3    H1 4629   5.915   0.179   3.688 -0.3140 -0.7724  0.8554
 1541TIP3    H2 4630   6.065   0.192   3.703 -0.5327 -0.0361  2.6141
 1542TIP3   OH2 4631   1.256   3.831   2.912  0.0190  0.4031 -0.1373
 1542TIP3    H1 4632   1.221   3.796   2.994 -2.2167  0.9881 -0.7688
 1542TIP3    H2 4633   1.343   3.862   2.934 -0.3953  0.2319  1.9361
 1543TIP3   OH2 4634   4.316   1.127   2.190  0.1662 -0.1884  0.3493
 1543TIP3    H1 4635   4.320   1.223   2.194 -0.4846 -0.1704  0.6854
 1543TIP3    H2 4636   4.376   1.097   2.258  2.8490 -0.0860 -1.7614
 1544TIP3   OH2 4637   2.391   3.681   2.400  0.1665 -0.0074  0.1849
 1544TIP3    H1 4638   2.441   3.611   2.358 -0.9026 -1.2903  0.9744
 1544TIP3    H2 4639   2.407   3.670   2.493  1.9670  2.3885  0.2710
 1545TIP3   OH2 4640   3.289   5.801   0.660 -0.2335  0.0243  0.4794
 1545TIP3    H1 4641   3.311   5.711   0.684  0.6531  0.6496  2.2293
 1545TIP3    H2 4642   3.225   5.793   0.589 -0.9894 -1.9870  1.3321
 1546TIP3   OH2 4643   2.235   2.881   4.595  0.3300 -0.0972  0.0107
 1546TIP3    H1 4644   2.223   2.788   4.578 -1.5965  0.1710 -0.3151
 1546TIP3    H2 4645   2.312   2.905   4.544 -0.2551 -1.1283 -1.4202
 1547TIP3   OH2 4646   0.794   3.260   2.912 -0.9222 -0.0746 -0.1098
 1547TIP3    H1 4647   0.840   3.344   2.911 -0.0126 -0.5430 -1.0572
 1547TIP3    H2 4648   0.718   3.274   2.856 -0.4928  0.0013 -0.6983
 1548TIP3   OH2 4649   1.624   2.648   4.819 -0.1667 -0.2500 -0.2304
 1548TIP3    H1 4650   1.604   2.556   4.805 -1.1169 -0.1017  0.0679
 1548TIP3    H2 4651   1.667   2.651   4.905  1.0118 -0.5468 -0.7872
 1549TIP3   OH2 4652   2.829   1.726   0.276 -0.2008  0.1213 -0.9876
 1549TIP3    H1 4653   2.785   1.734   0.191 -1.1017  1.7412 -0.4128
 1549TIP3    H2 4654   2.882   1.805   0.282  2.3318 -1.4316 -1.3305
 1550TIP3   OH2 4655   4.579   4.341   3.771 -0.1911 -0.2205 -0.2767
 1550TIP3    H1 4656   4.553   4.269   3.714 -2.0906  1.1432 -1.2539
 1550TIP3    H2 4657   4.584   4.417   3.713 -1.5288  1.0893  1.2009
 1551TIP3   OH2 4658   2.875   0.468   2.841  0.4075  0.3013  0.3312
 1551TIP3    H1 4659   2.951   0.435   2.794  0.5445  0.4808  0.4255
 1551TIP3    H2 4660   2.849   0.547   2.794 -0.2812 -0.2568 -0.2482
 1552TIP3   OH2 4661   1.562   0.033   3.868 -0.3602  0.2460 -0.1638
 1552TIP3    H1 4662   1.617   0.109   3.845 -2.4421  2.0780  0.5302
 1552TIP3    H2 4663   1.546   0.043   3.961 -0.9429 -0.8939 -0.1368
 1553TIP3   OH2 4664   3.696   0.091   3.878 -0.2569 -1.0365 -0.0808
 1553TIP3    H1 4665   3.618   0.118   3.830  1.3175  0.0029 -2.2151
 1553TIP3    H2 4666   3.744   0.035   3.816  0.9461 -1.2105  0.9644
 1554TIP3   OH2 4667   3.969   2.978   2.489  0.1924 -0.4889  0.0297
 1554TIP3    H1 4668   4.022   2.905   2.522  0.7845 -0.7134 -1.3176
 1554TIP3    H2 4669   3.879   2.949   2.500  0.4090 -1.1045  0.2256
 1555TIP3   OH2 4670   3.737   4.749   2.370  0.2245 -0.1873 -0.7215
 1555TIP3    H1 4671   3.715   4.842   2.378 -0.7144 -0.3231 -1.5962
 1555TIP3    H2 4672   3.828   4.749   2.340  0.3106  0.4423 -0.4784
 1556TIP3   OH2 4673   0.409   3.226   3.699  0.3345 -0.6511  0.1669
 1556TIP3    H1 4674   0.369   3.183   3.623 -0.5617  0.4494 -0.0132
 1556TIP3    H2 4675   0.388   3.169   3.773 -2.7960  0.4623  0.3162
 1557TIP3   OH2 4676   5.846   3.217   4.592 -0.1961 -0.1283  0.1208
 1557TIP3    H1 4677   5.807   3.304   4.579  1.2045  0.7769  1.6442
 1557TIP3    H2 4678   5.788   3.174   4.655 -0.4601  0.0110 -0.0256
 1558TIP3   OH2 4679   1.062   3.006   1.867  0.2214  0.2619 -0.2568
 1558TIP3    H1 4680   0.973   2.972   1.872 -0.4449  1.8712 -0.5855
 1558TIP3    H2 4681   1.114   2.934   1.831 -0.4494 -1.5184  2.1370
 1559TIP3   OH2 4682   6.196   1.046   4.651  0.3157  0.4528  0.5430
 1559TIP3    H1 4683   6.224   0.971   4.599  0.3552 -1.3901  3.0587
 1559TIP3    H2 4684   6.106   1.027   4.676  0.2007  1.4217  0.9214
 1560TIP3   OH2 4685   5.958   3.860   3.790 -0.5548 -0.5184  0.2288
 1560TIP3    H1 4686   6.024   3.794   3.768  0.0085 -0.3654  1.3578
 1560TIP3    H2 4687   5.907   3.821   3.860 -1.0279 -0.2430  0.0411
 1561TIP3   OH2 4688   2.749   5.590   0.089  0.2013 -0.0110 -0.3958
 1561TIP3    H1 4689   2.705   5.521   0.139  0.3483  0.6165  0.6121
 1561TIP3    H2 4690   2.829   5.549   0.057  0.7178 -0.0753  0.9314
 1562TIP3   OH2 4691   5.380   1.958   2.926  0.0253 -0.4239  0.1654
 1562TIP3    H1 4692   5.361   1.864   2.935  1.7946 -0.8175  0.0994
 1562TIP3    H2 4693   5.374   1.974   2.832  1.0784 -0.7912  0.0295
 1563TIP3   OH2 4694   4.773   5.390   3.852 -0.2880 -0.7358  0.0975
 1563TIP3    H1 4695   4.700   5.452   3.845 -0.2966 -0.8143 -0.5688
 1563TIP3    H2 4696   4.750   5.319   3.792  0.6008 -0.4909 -0.5577
 1564TIP3   OH2 4697   2.291   4.896   2.890  0.0873 -0.4670  0.1140
 1564TIP3    H1 4698   2.378   4.859   2.906  0.3375 -0.1342 -0.4567
 1564TIP3    H2 4699   2.231   4.830   2.925  0.5773  0.2828  2.6236
 1565TIP3   OH2 4700   2.116   2.097   4.921 -0.1774 -0.2030  0.1118
 1565TIP3    H1 4701   2.162   2.143   4.991  0.7482 -2.7367  1.2824
 1565TIP3    H2 4702   2.045   2.050   4.964 -0.0105 -1.2743 -0.7266
 1566TIP3   OH2 4703   1.987   0.810   0.497  0.1207  0.7602  0.2145
 1566TIP3    H1 4704   1.971   0.825   0.403 -0.4943 -0.3493  0.1306
 1566TIP3    H2 4705   1.967   0.894   0.538  2.1533  1.8422 -0.8212
 1567TIP3   OH2 4706   2.786   1.925   5.032 -0.3915 -0.0707  0.2736
 1567TIP3    H1 4707   2.811   1.889   5.117 -0.3361 -1.2532 -0.2176
 1567TIP3    H2 4708   2.708   1.978   5.050 -1.2899 -1.5293  0.8494
 1568TIP3   OH2 4709   4.378   1.791   3.894 -0.6933 -0.1579  0.2452
 1568TIP3    H1 4710   4.395   1.868   3.839  0.3304  1.4837  2.6888
 1568TIP3    H2 4711   4.287   1.769   3.876 -0.4587  0.3802 -1.9469
 1569TIP3   OH2 4712   2.794   4.068   1.089  0.3906 -0.3685  0.4011
 1569TIP3    H1 4713   2.721   4.127   1.105  0.9667  0.8500 -1.1236
 1569TIP3    H2 4714   2.754   3.982   1.076 -0.7498  0.2226 -0.1190
 1570TIP3   OH2 4715   5.973   1.455   0.193  0.2270  0.3095  0.0749
 1570TIP3    H1 4716   5.959   1.548   0.212 -0.0980  0.5683 -1.3024
 1570TIP3    H2 4717   5.998   1.453   0.101  0.0528 -0.9978  0.0350
 1571TIP3   OH2 4718   2.943   3.247   0.387  0.4628 -0.2716  0.3360
 1571TIP3    H1 4719   2.998   3.282   0.458  0.3394  2.0989 -0.6384
 1571TIP3    H2 4720   2.897   3.324   0.353 -0.8807 -1.6537 -1.1152
 1572TIP3   OH2 4721   4.344   2.937   3.868 -0.2526  0.2930  0.1032
 1572TIP3    H1 4722   4.308   2.977   3.788 -0.4539  0.4475  0.2699
 1572TIP3    H2 4723   4.313   2.847   3.864  1.1708 -0.1848 -0.8656
 1573TIP3   OH2 4724   3.922   1.193   2.520 -0.2834 -0.0447 -0.0475
 1573TIP3    H1 4725   3.936   1.194   2.425 -1.6347 -0.8877 -0.2768
 1573TIP3    H2 4726   3.827   1.200   2.530 -0.1574 -0.0695  1.2521
 1574TIP3   OH2 4727   1.598   5.943   0.263 -0.7200 -0.4072  0.1962
 1574TIP3    H1 4728   1.562   5.861   0.296 -0.7331 -0.4554  0.0641
 1574TIP3    H2 4729   1.637   5.985   0.340 -0.2360 -0.7855  0.1697
 1575TIP3   OH2 4730   3.003   4.352   3.270 -0.3875 -0.1893  0.3329
 1575TIP3    H1 4731   3.027   4.420   3.334 -1.1718  0.0517  0.3831
 1575TIP3    H2 4732   2.911   4.334   3.289 -0.5872 -0.2082 -0.6484
 1576TIP3   OH2 4733   6.329   2.170   1.266 -0.4508  0.1578  0.4121
 1576TIP3    H1 4734   6.407   2.217   1.295  1.1403 -2.1956  0.2059
 1576TIP3    H2 4735   6.267   2.182   1.338  0.8639  0.3278  1.5755
 1577TIP3   OH2 4736   0.390   3.124   0.142  0.5758 -0.2848 -0.3303
 1577TIP3    H1 4737   0.313   3.074   0.117  0.8691 -0.9000 -0.0397
 1577TIP3    H2 4738   0.464   3.071   0.111  0.9419 -0.9425  1.5389
 1578TIP3   OH2 4739   0.887   2.599   2.494  0.1919  0.0042 -0.2222
 1578TIP3    H1 4740   0.980   2.582   2.508 -0.0215 -2.9204 -1.5459
 1578TIP3    H2 4741   0.877   2.601   2.399 -1.1088  0.2431 -0.0990
 1579TIP3   OH2 4742   5.049   4.948   2.823 -0.6817  0.3930  0.2538
 1579TIP3    H1 4743   5.091   4.862   2.827  0.8769  1.1391  0.7056
 1579TIP3    H2 4744   4.986   4.940   2.751  0.1783 -0.8099 -0.4115
 1580TIP3   OH2 4745   3.184   5.319   1.616 -0.0033  0.0104 -0.0793
 1580TIP3    H1 4746   3.222   5.318   1.528 -1.1485 -0.4449 -0.5849
 1580TIP3    H2 4747   3.151   5.409   1.626  1.8237  0.6469  0.6670
 1581TIP3   OH2 4748   1.945   5.909   4.270  0.3001 -0.1500 -0.0553
 1581TIP3    H1 4749   2.009   5.839   4.277 -1.0233 -1.2682  2.1221
 1581TIP3    H2 4750   1.867   5.874   4.314 -0.8607  2.1989 -0.1074
 1582TIP3   OH2 4751   0.032   5.479   0.640 -0.2272  0.8319 -0.6089
 1582TIP3    H1 4752   0.032   5.387   0.666 -2.0826  0.9915  0.0943
 1582TIP3    H2 4753   0.065   5.526   0.717 -2.1317  0.9732  0.1754
 1583TIP3   OH2 4754   1.616   5.864   1.406  1.0543 -0.3291  0.2831
 1583TIP3    H1 4755   1.584   5.778   1.432  0.0194 -0.1638 -0.4163
 1583TIP3    H2 4756   1.683   5.846   1.340 -1.2241 -0.5836 -2.1255
 1584TIP3   OH2 4757   6.238   4.615   2.648  0.6385 -0.6798  0.0405
 1584TIP3    H1 4758   6.158   4.608   2.700  1.2603 -1.2293  0.9460
 1584TIP3    H2 4759   6.209   4.654   2.565 -0.4688 -0.3575  0.5573
 1585TIP3   OH2 4760   0.248   5.227   4.354  0.7475  0.0702  0.4717
 1585TIP3    H1 4761   0.343   5.241   4.356  1.0241 -1.5575  0.7006
 1585TIP3    H2 4762   0.226   5.227   4.261  1.2473 -0.9361  0.3288
 1586TIP3   OH2 4763   2.850   0.456   0.615  0.5068 -0.6999 -0.6216
 1586TIP3    H1 4764   2.784   0.462   0.683  0.5756  3.7781 -0.6544
 1586TIP3    H2 4765   2.801   0.432   0.536 -0.8104  0.6791 -0.2727
 1587TIP3   OH2 4766   3.630   4.558   4.936  0.2262 -0.2656  0.1307
 1587TIP3    H1 4767   3.668   4.643   4.960 -0.9476 -0.1441  1.7584
 1587TIP3    H2 4768   3.562   4.580   4.872  0.6999 -0.1127 -0.3221
 1588TIP3   OH2 4769   3.929   2.904   4.985 -0.8177 -0.1957 -0.2977
 1588TIP3    H1 4770   3.837   2.927   4.992 -0.8177  0.1202 -1.1835
 1588TIP3    H2 4771   3.952   2.869   5.071 -0.8937  2.8368  1.1097
 1589TIP3   OH2 4772   3.563   5.575   4.420  0.1607  0.0217 -0.1516
 1589TIP3    H1 4773   3.467   5.569   4.414  0.3106 -0.9790 -2.5416
 1589TIP3    H2 4774   3.585   5.529   4.501 -1.3092 -0.5124 -0.0294
 1590TIP3   OH2 4775   3.956   0.305   1.249  0.7500  0.2381  0.0890
 1590TIP3    H1 4776   3.927   0.218   1.225 -1.7364  1.4996 -2.0063
 1590TIP3    H2 4777   4.013   0.332   1.176  1.8140  0.2749  0.9075
 1591TIP3   OH2 4778   2.392   3.389   4.901  0.2638 -1.0842 -0.1592
 1591TIP3    H1 4779   2.342   3.353   4.975 -0.0762  0.6083  0.5024
 1591TIP3    H2 4780   2.475   3.415   4.940  0.2342 -0.5397 -0.4566
 1592TIP3   OH2 4781   6.165   0.602   4.895  0.4244 -0.6833 -0.1810
 1592TIP3    H1 4782   6.225   0.672   4.921  0.3619 -0.1584 -1.3635
 1592TIP3    H2 4783   6.149   0.552   4.975  1.1650  0.1348  0.4925
 1593TIP3   OH2 4784   3.590   0.369   4.024  0.0930  0.4834  0.1731
 1593TIP3    H1 4785   3.556   0.337   3.940  0.5701  1.6812 -0.5073
 1593TIP3    H2 4786   3.559   0.459   4.029 -0.8431  0.1102  1.8209
 1594TIP3   OH2 4787   1.279   4.457   0.853 -0.1978  0.3910 -0.0338
 1594TIP3    H1 4788   1.220   4.528   0.877 -0.5978 -0.6063  2.2537
 1594TIP3    H2 4789   1.221   4.382   0.838  0.3372 -0.0719  0.1530
 1595TIP3   OH2 4790   4.400   3.242   4.484 -0.1825 -0.1485  0.2331
 1595TIP3    H1 4791   4.448   3.312   4.438  0.8343 -1.8175 -1.3803
 1595TIP3    H2 4792   4.343   3.289   4.545  1.1568  2.0519 -0.0787
 1596TIP3   OH2 4793   0.990   0.036   0.271  0.1895  0.6521  0.2294
 1596TIP3    H1 4794   1.058   0.041   0.204  1.7138  2.0825  1.7912
 1596TIP3    H2 4795   0.962  -0.055   0.270  1.3787  0.2687 -1.1703
 1597TIP3   OH2 4796   1.001   2.092   0.769 -0.3935  0.0089 -0.4694
 1597TIP3    H1 4797   0.945   2.088   0.691  1.1021 -2.5471 -1.5411
 1597TIP3    H2 4798   1.076   2.145   0.741 -0.7489  0.7017 -0.1175
 1598TIP3   OH2 4799   1.750   1.000   0.455  0.3279  0.4230  0.0222
 1598TIP3    H1 4800   1.665   1.042   0.465 -0.1903  0.1289 -2.4622
 1598TIP3    H2 4801   1.749   0.927   0.518 -0.5239  1.4577  1.2392
 1599TIP3   OH2 4802   5.304   2.849   2.926 -0.2627 -0.3006 -0.7752
 1599TIP3    H1 4803   5.273   2.911   2.860  0.5787  0.6174 -0.3468
 1599TIP3    H2 4804   5.244   2.863   3.000  1.1843  1.6350  0.1365
 1600TIP3   OH2 4805   3.658   5.103   0.591 -0.1280 -0.5605 -0.4880
 1600TIP3    H1 4806   3.691   5.091   0.680  1.1467  0.7697 -0.7661
 1600TIP3    H2 4807   3.583   5.042   0.586  0.4908 -1.5236  1.0846
 1601TIP3   OH2 4808   6.155   5.779   1.408 -0.0070  0.3239  0.1598
 1601TIP3    H1 4809   6.197   5.822   1.334 -0.3507  0.3936  0.0022
 1601TIP3    H2 4810   6.126   5.694   1.374 -1.2186  0.8284 -0.1241
 1602TIP3   OH2 4811   5.015   3.699   0.431  0.0218 -0.1708  0.4003
 1602TIP3    H1 4812   4.946   3.747   0.385  1.8366  1.4276 -0.8170
 1602TIP3    H2 4813   5.016   3.736   0.519  0.6355  1.2896 -0.1892
 1603TIP3   OH2 4814   2.695   1.119   3.405  0.6002 -0.3528  0.2557
 1603TIP3    H1 4815   2.707   1.028   3.379  0.0996 -0.1850 -0.5809
 1603TIP3    H2 4816   2.757   1.169   3.351 -0.3637 -0.0170 -0.5738
 1604TIP3   OH2 4817   2.100   5.672   4.242 -0.5401 -0.2482 -0.4700
 1604TIP3    H1 4818   2.149   5.688   4.161  0.9503  1.0358  0.5990
 1604TIP3    H2 4819   2.159   5.618   4.295 -0.6993  0.4426  0.4404
 1605TIP3   OH2 4820   0.508   5.628   4.728 -0.5055  0.2800  0.3768
 1605TIP3    H1 4821   0.559   5.614   4.808 -0.8070  0.4486  0.6036
 1605TIP3    H2 4822   0.425   5.665   4.759 -1.3076 -1.2415  0.1535
 1606TIP3   OH2 4823   1.879   2.325   3.334 -0.3255 -0.1665 -0.0822
 1606TIP3    H1 4824   1.895   2.418   3.323  0.2637 -0.2340  0.1467
 1606TIP3    H2 4825   1.940   2.282   3.274  0.0024 -0.4185  0.4156
 1607TIP3   OH2 4826   1.379   2.777   0.534  0.0919 -0.1360 -0.0666
 1607TIP3    H1 4827   1.295   2.752   0.574 -0.1865 -0.1142 -0.6251
 1607TIP3    H2 4828   1.444   2.721   0.578 -0.0115  0.8185  1.3600
 1608TIP3   OH2 4829   2.642   4.506   2.172  0.1263 -0.1668 -0.4442
 1608TIP3    H1 4830   2.658   4.528   2.080 -1.8025 -1.0984 -1.0528
 1608TIP3    H2 4831   2.569   4.563   2.198  1.9009  1.5313  1.1787
 1609TIP3   OH2 4832   0.450   3.530   1.057 -0.2704  0.8435  0.1282
 1609TIP3    H1 4833   0.416   3.537   0.968  0.1792  0.9588 -0.0376
 1609TIP3    H2 4834   0.535   3.488   1.047 -0.5010  0.2593  0.5709
 1610TIP3   OH2 4835   5.427   4.261   4.147 -0.1724 -0.1076  0.3677
 1610TIP3    H1 4836   5.439   4.338   4.092 -0.0458 -0.5711 -0.2661
 1610TIP3    H2 4837   5.360   4.209   4.102  1.0051 -1.2126 -0.1626
 1611TIP3   OH2 4838   5.220   3.981   3.564  0.3675 -0.6046  0.1019
 1611TIP3    H1 4839   5.290   3.915   3.560 -0.6606 -1.6887 -1.5352
 1611TIP3    H2 4840   5.204   4.004   3.473 -1.2941 -0.2625  0.4468
 1612TIP3   OH2 4841   2.156   4.424   3.580  0.5559 -0.4454 -0.2622
 1612TIP3    H1 4842   2.161   4.476   3.500  0.7028  0.3291  0.2417
 1612TIP3    H2 4843   2.245   4.423   3.614  0.0813  1.4631  1.2616
 1613TIP3   OH2 4844   3.475   4.793   1.402 -0.0747  0.0907  0.4037
 1613TIP3    H1 4845   3.442   4.742   1.477  0.5697 -0.2473  0.4626
 1613TIP3    H2 4846   3.551   4.840   1.437  0.3303 -0.1991 -0.0835
 1614TIP3   OH2 4847   3.272   5.919   1.832 -0.1420  0.5611 -0.1254
 1614TIP3    H1 4848   3.188   5.888   1.866 -0.1808 -0.3707 -1.0596
 1614TIP3    H2 4849   3.289   5.999   1.882 -1.2962  0.4471  0.4855
 1615TIP3   OH2 4850   2.733   1.459   3.820 -0.5009  0.1479 -0.0960
 1615TIP3    H1 4851   2.756   1.383   3.767 -0.9393  0.1636 -0.3070
 1615TIP3    H2 4852   2.662   1.429   3.876 -0.0740  0.1432  0.4557
 1616TIP3   OH2 4853  -0.016   1.061   1.713  0.1920  0.6826 -0.0442
 1616TIP3    H1 4854   0.061   1.105   1.749 -0.4264  0.8184  1.1784
 1616TIP3    H2 4855  -0.025   0.982   1.766  0.4760 -0.2252 -1.3116
 1617TIP3   OH2 4856   5.161   3.135   2.942  0.5998 -0.4436  0.2071
 1617TIP3    H1 4857   5.105   3.206   2.908 -0.2505 -0.8411  0.7266
 1617TIP3    H2 4858   5.138   3.059   2.888  1.7196 -0.2706 -0.5385
 1618TIP3   OH2 4859   1.047   4.786   0.048 -0.1448  0.3924  0.2871
 1618TIP3    H1 4860   1.036   4.880   0.039 -1.8107  0.2894  0.9090
 1618TIP3    H2 4861   1.033   4.752  -0.041 -0.1710  0.6759  0.1818
 1619TIP3   OH2 4862   0.887   0.130   3.887  0.8257  0.1453  0.1411
 1619TIP3    H1 4863   0.900   0.046   3.930  1.0614  0.1487  0.0774
 1619TIP3    H2 4864   0.793   0.133   3.867  0.6112  0.3748  1.1395
 1620TIP3   OH2 4865   6.191   2.182   0.652  0.5001  0.1979 -0.1792
 1620TIP3    H1 4866   6.184   2.120   0.725  2.0589 -1.6117 -1.4723
 1620TIP3    H2 4867   6.249   2.251   0.685  0.6935 -0.2727  0.4937
 1621TIP3   OH2 4868   1.956   2.065   1.049 -0.6653 -0.0298  0.0278
 1621TIP3    H1 4869   1.868   2.100   1.035 -0.6982 -0.3185 -0.5057
 1621TIP3    H2 4870   1.967   2.065   1.144 -0.6100  1.5730  0.0467
 1622TIP3   OH2 4871   2.260   5.954   3.900 -0.2200 -0.6377  0.1709
 1622TIP3    H1 4872   2.286   6.028   3.846  1.0670 -1.3050 -0.1540
 1622TIP3    H2 4873   2.306   5.968   3.983 -3.6760  1.4392  1.9817
 1623TIP3   OH2 4874   2.581   3.040   0.662 -0.2315 -0.8588  0.0545
 1623TIP3    H1 4875   2.656   3.028   0.604  0.1600 -1.2412  0.6231
 1623TIP3    H2 4876   2.571   2.955   0.705  0.0005 -0.3550  1.1370
 1624TIP3   OH2 4877   3.758   1.246   4.316 -0.1021 -0.4403 -0.3081
 1624TIP3    H1 4878   3.766   1.214   4.406  0.9565 -1.6902 -0.8121
 1624TIP3    H2 4879   3.805   1.182   4.263  0.4306  0.9494 -1.6178
 1625TIP3   OH2 4880   0.411   2.322   2.748 -0.3005 -0.1725  0.3682
 1625TIP3    H1 4881   0.381   2.410   2.724 -0.6817 -0.5080 -0.4159
 1625TIP3    H2 4882   0.425   2.326   2.843 -0.3544  0.7186  0.3449
 1626TIP3   OH2 4883   1.712   5.426   4.006 -0.6161 -0.7997 -0.0279
 1626TIP3    H1 4884   1.792   5.397   3.963 -0.7658  0.4328 -1.1884
 1626TIP3    H2 4885   1.641   5.379   3.962 -0.8689  1.2671 -1.9869
 1627TIP3   OH2 4886   0.035   2.129   1.654 -0.2320  0.2942 -0.0026
 1627TIP3    H1 4887   0.098   2.137   1.582 -0.3740 -1.9416 -0.4511
 1627TIP3    H2 4888   0.064   2.052   1.703 -3.1145 -1.4717 -0.8255
 1628TIP3   OH2 4889   0.784   4.227   4.227 -0.1953  0.2526  0.1093
 1628TIP3    H1 4890   0.793   4.206   4.321 -1.1616 -0.0990  0.1350
 1628TIP3    H2 4891   0.749   4.146   4.189 -1.2218  0.8778 -0.2979
 1629TIP3   OH2 4892   0.341   3.609   0.680 -0.0954 -0.2861 -1.0398
 1629TIP3    H1 4893   0.411   3.559   0.721 -1.0282  0.0782  1.1512
 1629TIP3    H2 4894   0.385   3.684   0.640  0.8799 -0.7025 -0.7834
 1630TIP3   OH2 4895   3.154   1.426   4.847 -0.4975  0.3899  0.1269
 1630TIP3    H1 4896   3.188   1.382   4.769 -2.0826 -1.0915  0.2299
 1630TIP3    H2 4897   3.163   1.519   4.828 -0.2809  0.0438 -1.5676
 1631TIP3   OH2 4898   2.966   2.358   1.362 -0.4316 -0.6985 -0.8457
 1631TIP3    H1 4899   2.890   2.415   1.371  1.2655  1.5753  0.0222
 1631TIP3    H2 4900   2.960   2.299   1.437  0.1086  1.3626  0.9224
 1632TIP3   OH2 4901   2.743   5.529   1.444 -0.9511  0.7398 -0.1142
 1632TIP3    H1 4902   2.782   5.595   1.386 -0.1916  2.1396  1.8570
 1632TIP3    H2 4903   2.673   5.576   1.490 -0.0932  0.3461  1.6655
 1633TIP3   OH2 4904   5.158   5.699   4.032  0.5350  0.3467  0.3662
 1633TIP3    H1 4905   5.140   5.635   4.102 -1.8399  0.5233 -0.0047
 1633TIP3    H2 4906   5.117   5.780   4.062  0.7694  0.8354 -0.5856
 1634TIP3   OH2 4907   2.749   0.982   1.991  0.0563 -0.4573 -0.0815
 1634TIP3    H1 4908   2.815   1.016   2.052 -0.7615 -1.7680  1.5886
 1634TIP3    H2 4909   2.740   1.052   1.926  1.2584  0.8232  1.0427
 1635TIP3   OH2 4910   1.966   2.078   1.324  0.0753  0.1356 -0.1752
 1635TIP3    H1 4911   1.904   2.078   1.397 -1.6214 -0.2081 -1.5533
 1635TIP3    H2 4912   2.018   2.158   1.336 -1.6079  1.2070  0.2545
 1636TIP3   OH2 4913   0.022   5.303   3.890 -0.2721 -0.4554  0.2237
 1636TIP3    H1 4914   0.067   5.374   3.845 -2.9025 -0.2945 -2.4594
 1636TIP3    H2 4915  -0.030   5.259   3.822 -1.1715 -3.0170  2.3404
 1637TIP3   OH2 4916   1.683   4.053   2.719 -0.1097 -0.5040  0.3479
 1637TIP3    H1 4917   1.774   4.023   2.720 -0.0204 -0.2211  0.7037
 1637TIP3    H2 4918   1.689   4.145   2.696 -0.2709 -0.3495  0.9322
 1638TIP3   OH2 4919   1.962   5.157   2.353 -0.4174 -0.0012 -0.4736
 1638TIP3    H1 4920   1.948   5.251   2.366 -0.1479 -0.2044  1.7374
 1638TIP3    H2 4921   1.876   5.122   2.333 -1.0843  0.3633  1.5202
 1639TIP3   OH2 4922   0.559   4.654   4.665  0.2943 -0.2064  0.1192
 1639TIP3    H1 4923   0.575   4.604   4.745 -0.3982 -0.0568  0.3553
 1639TIP3    H2 4924   0.542   4.743   4.695 -0.2123 -0.2017 -0.1789
 1640TIP3   OH2 4925   3.231   4.437   0.848  0.0119  0.7327  0.0666
 1640TIP3    H1 4926   3.141   4.423   0.877  0.1803  0.5846  0.5341
 1640TIP3    H2 4927   3.230   4.523   0.806 -0.5443  0.3271 -0.7608
 1641TIP3   OH2 4928   6.260   1.004   2.034  0.0231  0.0659 -0.2766
 1641TIP3    H1 4929   6.332   0.997   2.096  0.5238 -0.2045 -0.8688
 1641TIP3    H2 4930   6.246   0.913   2.005 -0.6037  0.1075 -0.1159
 1642TIP3   OH2 4931   2.424   2.870   1.390 -0.8671 -0.1727  0.5768
 1642TIP3    H1 4932   2.443   2.959   1.361  1.6796 -0.9394 -0.4227
 1642TIP3    H2 4933   2.459   2.866   1.479 -0.2240 -0.3919  0.3173
 1643TIP3   OH2 4934   2.284   2.562   3.454 -0.3192 -0.3775  0.1251
 1643TIP3    H1 4935   2.313   2.653   3.459 -0.7829 -0.3004  2.3314
 1643TIP3    H2 4936   2.365   2.511   3.446 -0.0548  0.1916 -1.0684
 1644TIP3   OH2 4937   5.935   4.458   3.339 -0.1882  0.2860 -0.1306
 1644TIP3    H1 4938   5.951   4.404   3.416  1.9889  1.9372  0.6473
 1644TIP3    H2 4939   5.960   4.402   3.265  0.5958 -0.2976  0.5615
 1645TIP3   OH2 4940   5.924   4.627   4.136 -0.2784 -0.5270  0.0067
 1645TIP3    H1 4941   5.943   4.533   4.135  1.6070 -0.2100 -1.4235
 1645TIP3    H2 4942   5.955   4.656   4.221 -0.2674 -1.0973  0.2049
 1646TIP3   OH2 4943   4.458   0.408   0.321 -0.2811  0.1194  0.2334
 1646TIP3    H1 4944   4.437   0.444   0.235 -0.6186  2.4193  1.2265
 1646TIP3    H2 4945   4.387   0.438   0.378  1.9538  2.0877  2.1607
 1647TIP3   OH2 4946   3.330   1.641   0.142  0.0424  0.3560 -0.2532
 1647TIP3    H1 4947   3.399   1.678   0.196  1.0084 -0.1474 -1.1076
 1647TIP3    H2 4948   3.308   1.559   0.184  0.0133  0.4829 -0.0188
 1648TIP3   OH2 4949   3.904   4.961   1.863  0.6259 -0.2345 -0.4872
 1648TIP3    H1 4950   3.872   5.051   1.866  2.1199  0.2977  1.0592
 1648TIP3    H2 4951   3.966   4.960   1.790 -0.3975 -0.4207 -1.3923
 1649TIP3   OH2 4952   4.607   5.219   1.836  0.2933 -0.3591  0.2499
 1649TIP3    H1 4953   4.514   5.204   1.852 -0.0173  0.7079 -0.4426
 1649TIP3    H2 4954   4.629   5.296   1.889  0.4818  0.1032 -0.4763
 1650TIP3   OH2 4955   3.092   0.087   0.497  0.1102  0.4053  0.5466
 1650TIP3    H1 4956   3.045   0.107   0.416 -0.1303  0.6551  0.7429
 1650TIP3    H2 4957   3.184   0.093   0.474  0.1693  4.2038  1.1021
 1651TIP3   OH2 4958   2.698   0.606   2.259 -0.6700 -0.3583  0.3183
 1651TIP3    H1 4959   2.657   0.680   2.214  0.1189 -0.3959 -0.4904
 1651TIP3    H2 4960   2.707   0.539   2.192  2.6088  0.3802 -0.1420
 1652TIP3   OH2 4961   3.351   0.179   0.691 -0.1407  0.7755 -0.0776
 1652TIP3    H1 4962   3.274   0.151   0.740  0.6841 -4.8557 -1.4022
 1652TIP3    H2 4963   3.426   0.152   0.745  0.8343  0.7234 -1.4024
 1653TIP3   OH2 4964   5.548   2.576   0.629  0.0704  0.0374  0.4237
 1653TIP3    H1 4965   5.513   2.491   0.656  1.5214  0.3385  3.6197
 1653TIP3    H2 4966   5.623   2.554   0.572 -0.0332 -0.7971  0.6001
 1654TIP3   OH2 4967   6.234   3.054   1.624 -0.1178 -0.0862  0.2345
 1654TIP3    H1 4968   6.308   3.111   1.606  0.4769 -0.9908 -0.2670
 1654TIP3    H2 4969   6.160   3.096   1.581 -0.0002  1.0245  1.0585
 1655TIP3   OH2 4970   0.765   1.662   5.032  0.2984  0.5065  0.1175
 1655TIP3    H1 4971   0.788   1.574   5.002 -0.9439  0.9536 -2.5354
 1655TIP3    H2 4972   0.790   1.719   4.959 -1.8766  1.9122  0.3696
 1656TIP3   OH2 4973   1.813   3.056   2.102  0.6665 -0.1003  0.6615
 1656TIP3    H1 4974   1.802   3.149   2.124  0.8216  0.2715 -0.7462
 1656TIP3    H2 4975   1.876   3.056   2.029  0.2978 -1.2763  0.3246
 1657TIP3   OH2 4976   1.163   2.010   2.566  0.1152 -0.1909 -0.5873
 1657TIP3    H1 4977   1.230   1.943   2.579 -1.0088 -0.9725  1.8570
 1657TIP3    H2 4978   1.173   2.069   2.641 -0.0320  1.4415 -1.7861
 1658TIP3   OH2 4979   0.269   3.842   2.055  0.1465 -0.6451  0.9480
 1658TIP3    H1 4980   0.247   3.912   2.117  0.7997  1.2785 -0.8971
 1658TIP3    H2 4981   0.364   3.839   2.054  0.1896  0.1987 -0.8080
 1659TIP3   OH2 4982   3.801   4.664   4.026 -0.2387 -0.2465  0.3409
 1659TIP3    H1 4983   3.750   4.663   3.945 -1.0773 -1.5854  0.8416
 1659TIP3    H2 4984   3.788   4.577   4.063  2.1466 -0.5151  0.6911
 1660TIP3   OH2 4985   4.130   4.283   4.116  0.2770  0.3123 -0.4061
 1660TIP3    H1 4986   4.165   4.366   4.149  2.6861 -0.0296 -1.8807
 1660TIP3    H2 4987   4.103   4.236   4.195  0.3428  1.8671  0.5817
 1661TIP3   OH2 4988   0.200   2.316   1.330  0.2044 -0.4244 -0.5099
 1661TIP3    H1 4989   0.249   2.239   1.358  2.5031  0.8729 -0.7329
 1661TIP3    H2 4990   0.251   2.390   1.362 -1.2084  1.0284 -1.4724
 1662TIP3   OH2 4991   4.262   5.581   4.177 -0.0283 -0.3560  0.4342
 1662TIP3    H1 4992   4.324   5.564   4.248 -2.2811 -1.3605  2.3010
 1662TIP3    H2 4993   4.192   5.631   4.218 -0.5747  0.5949 -1.5528
 1663TIP3   OH2 4994   4.387   2.194   4.149 -0.0074  0.0548  0.4316
 1663TIP3    H1 4995   4.350   2.150   4.226  2.7658 -0.9934  1.2579
 1663TIP3    H2 4996   4.411   2.281   4.181 -0.8725  0.4283  0.1130
 1664TIP3   OH2 4997   5.140   2.994   3.567 -0.4748 -0.1571 -0.0581
 1664TIP3    H1 4998   5.136   2.918   3.509 -0.7379  1.0013 -1.6334
 1664TIP3    H2 4999   5.223   3.036   3.546 -0.3680  0.0470  0.7406
 1665TIP3   OH2 5000   5.760   3.663   2.849  0.6189  0.4694 -0.7706
 1665TIP3    H1 5001   5.726   3.702   2.768  0.7373  2.9921  0.3182
 1665TIP3    H2 5002   5.813   3.732   2.888  1.1340 -0.9412  1.1364
 1666TIP3   OH2 5003   5.675   5.590   3.445 -0.5049 -0.4768 -0.0421
 1666TIP3    H1 5004   5.698   5.578   3.537 -0.1462 -0.0238 -0.0671
 1666TIP3    H2 5005   5.594   5.641   3.447 -0.5432 -0.5398  0.0234
 1667TIP3   OH2 5006   0.843   4.173   4.524  0.4531 -0.2300  0.5970
 1667TIP3    H1 5007   0.872   4.102   4.581  1.0221  0.0626  0.6817
 1667TIP3    H2 5008   0.834   4.249   4.582 -0.9889 -0.4226  0.6705
 1668TIP3   OH2 5009   0.222   1.301   1.315  0.5422  0.1342  0.1631
 1668TIP3    H1 5010   0.176   1.382   1.337  0.6376  0.6034 -1.2755
 1668TIP3    H2 5011   0.174   1.233   1.363  0.4999  1.0282  1.4430
 1669TIP3   OH2 5012   3.712   0.230   3.321 -0.7583  0.0566 -0.2895
 1669TIP3    H1 5013   3.617   0.246   3.320 -0.6917  0.6458  0.9025
 1669TIP3    H2 5014   3.746   0.288   3.253 -1.1652  0.5937 -0.0476
 1670TIP3   OH2 5015   3.709   2.510   1.052 -0.3576  0.3852  0.4781
 1670TIP3    H1 5016   3.753   2.588   1.085 -1.1136  0.9073  0.2594
 1670TIP3    H2 5017   3.650   2.542   0.985  0.7599 -0.5879 -1.0524
 1671TIP3   OH2 5018   0.721   5.759   1.787 -0.0858  0.7057  0.3628
 1671TIP3    H1 5019   0.778   5.722   1.854 -0.1742  0.5180  0.3348
 1671TIP3    H2 5020   0.729   5.699   1.713 -0.4307  0.5966  0.4091
 1672TIP3   OH2 5021   2.644   3.847   4.344  0.1065 -0.2828 -0.3525
 1672TIP3    H1 5022   2.689   3.865   4.427 -1.1791  0.3753  0.2422
 1672TIP3    H2 5023   2.615   3.933   4.314 -0.7744 -0.6860 -0.6878
 1673TIP3   OH2 5024   3.140   5.804   0.424 -0.4366 -0.2964 -0.1268
 1673TIP3    H1 5025   3.114   5.889   0.461 -0.2490  0.0534 -0.7710
 1673TIP3    H2 5026   3.057   5.759   0.408 -0.4941 -1.1617  2.2505
 1674TIP3   OH2 5027   0.629   3.442   1.376  0.1156  0.0487 -0.2805
 1674TIP3    H1 5028   0.605   3.439   1.469 -1.6037 -0.2105 -0.6927
 1674TIP3    H2 5029   0.651   3.534   1.360 -1.4106  0.4896 -0.0081
 1675TIP3   OH2 5030   1.788   4.809   2.640 -0.5278 -0.2318 -0.2016
 1675TIP3    H1 5031   1.824   4.893   2.667 -0.8371 -0.1386 -0.0784
 1675TIP3    H2 5032   1.846   4.744   2.681 -0.7626 -0.0853  0.3659
 1676TIP3   OH2 5033   1.562   4.081   4.831  0.0032 -0.6133  0.0383
 1676TIP3    H1 5034   1.574   4.170   4.799  1.9861 -1.1974 -0.9675
 1676TIP3    H2 5035   1.481   4.052   4.789 -0.0825  0.3419 -0.5005
 1677TIP3   OH2 5036   1.130   0.608   0.180 -0.0107 -0.2448 -0.0216
 1677TIP3    H1 5037   1.225   0.605   0.188  0.0868  1.3929 -0.2958
 1677TIP3    H2 5038   1.106   0.520   0.150  1.4102 -0.6745  0.0328
 1678TIP3   OH2 5039   0.496   1.713   4.103 -0.3307 -0.2407  0.5154
 1678TIP3    H1 5040   0.430   1.770   4.064 -1.3199 -0.7501  1.3610
 1678TIP3    H2 5041   0.454   1.679   4.182  0.2210 -2.0886  0.0781
 1679TIP3   OH2 5042   3.786   4.567   4.587  0.3919 -0.1652 -0.2210
 1679TIP3    H1 5043   3.819   4.619   4.660  1.1744 -0.5376 -0.2962
 1679TIP3    H2 5044   3.753   4.487   4.628  2.1291 -1.0107 -0.3571
 1680TIP3   OH2 5045   2.999   4.738   3.415  0.3790  0.3178  0.1580
 1680TIP3    H1 5046   3.090   4.757   3.396  0.4649 -0.3177 -0.1010
 1680TIP3    H2 5047   3.001   4.682   3.493  0.1950  0.5240  0.3134
 1681TIP3   OH2 5048   6.343   2.814   4.791  0.2752  0.1173 -0.0087
 1681TIP3    H1 5049   6.394   2.894   4.783  3.2407 -1.8048 -2.0891
 1681TIP3    H2 5050   6.325   2.806   4.885 -0.4505  3.2787  0.2251
 1682TIP3   OH2 5051   5.799   3.251   0.711 -0.0905 -0.1084  0.0690
 1682TIP3    H1 5052   5.842   3.169   0.687 -1.0564 -0.7300  0.3969
 1682TIP3    H2 5053   5.782   3.295   0.628 -1.9360 -1.4804 -0.3231
 1683TIP3   OH2 5054   4.517   2.396   1.699 -0.2816 -0.2455 -0.2948
 1683TIP3    H1 5055   4.444   2.457   1.705  0.5680  0.8166 -0.5771
 1683TIP3    H2 5056   4.535   2.389   1.605  1.1201  0.8923 -0.1271
 1684TIP3   OH2 5057   1.826   4.468   4.217  0.2367 -0.3055 -0.5264
 1684TIP3    H1 5058   1.745   4.435   4.257  0.9429  0.5959  1.8443
 1684TIP3    H2 5059   1.894   4.406   4.244  0.8367  0.6475  0.2112
 1685TIP3   OH2 5060   1.752   0.963   0.749 -0.7572 -0.1966  0.1128
 1685TIP3    H1 5061   1.712   1.030   0.804  0.8239  1.9203 -1.1586
 1685TIP3    H2 5062   1.841   0.954   0.783 -0.5277 -0.6658 -0.5838
 1686TIP3   OH2 5063   6.132   0.399   4.706 -0.0414 -0.0948  0.3429
 1686TIP3    H1 5064   6.227   0.412   4.703  0.1710 -0.8761  2.1004
 1686TIP3    H2 5065   6.102   0.460   4.774 -0.5289 -1.0577  1.0181
 1687TIP3   OH2 5066   3.422   4.288   0.993 -0.5564 -0.5226 -0.1363
 1687TIP3    H1 5067   3.364   4.362   0.976 -0.6050 -0.4581  0.2850
 1687TIP3    H2 5068   3.364   4.220   1.028 -0.2396 -0.0807  1.3510
 1688TIP3   OH2 5069   1.054   2.951   0.038  0.1207  0.3902 -0.7139
 1688TIP3    H1 5070   1.085   2.863   0.059  0.4654  0.5747 -0.4351
 1688TIP3    H2 5071   1.081   3.004   0.113  1.8720  1.1916 -1.8431
 1689TIP3   OH2 5072   4.102   5.059   0.186 -0.0928 -0.0270  0.5316
 1689TIP3    H1 5073   4.175   5.084   0.129 -1.3249 -1.5201 -1.8482
 1689TIP3    H2 5074   4.044   5.135   0.184 -0.3696 -0.2506 -0.6683
 1690TIP3   OH2 5075   3.118   5.343   0.248  0.1353 -0.1841  0.2294
 1690TIP3    H1 5076   3.023   5.353   0.260  0.1442 -0.8147  0.9796
 1690TIP3    H2 5077   3.156   5.396   0.318  0.2835 -1.1338  0.8984
 1691TIP3   OH2 5078   2.070   3.357   3.112 -0.6266  0.9620  0.0156
 1691TIP3    H1 5079   2.155   3.382   3.075 -0.3310 -1.0265 -0.7495
 1691TIP3    H2 5080   2.080   3.264   3.134 -2.3541  0.8985  0.6637
 1692TIP3   OH2 5081   3.904   2.576   4.200 -0.6075  0.0157 -0.1007
 1692TIP3    H1 5082   3.818   2.572   4.157  0.6286  0.0010 -2.7220
 1692TIP3    H2 5083   3.967   2.555   4.131  1.4905 -0.8743  1.9508
 1693TIP3   OH2 5084   1.571   4.393   3.606 -0.6017  0.0291  0.0780
 1693TIP3    H1 5085   1.608   4.459   3.548 -0.2571 -0.7608 -0.6314
 1693TIP3    H2 5086   1.485   4.373   3.568 -0.6354 -0.0559  0.1970
 1694TIP3   OH2 5087   5.102   3.156   1.340  0.1572 -0.3034  0.5056
 1694TIP3    H1 5088   5.096   3.079   1.284  0.1926 -2.5451  3.3665
 1694TIP3    H2 5089   5.011   3.184   1.352  0.2299  1.2959 -1.8802
 1695TIP3   OH2 5090   2.103   3.007   3.694  0.2728  0.5077  0.8573
 1695TIP3    H1 5091   2.049   2.986   3.770 -0.9091  1.4174  0.2972
 1695TIP3    H2 5092   2.048   2.986   3.619  0.1816  2.6394  0.2624
 1696TIP3   OH2 5093   4.663   1.555   3.235  0.0816  0.6374  0.0296
 1696TIP3    H1 5094   4.601   1.495   3.194  0.8744  0.0913 -0.3845
 1696TIP3    H2 5095   4.691   1.510   3.315 -0.0149  0.8666  0.1954
 1697TIP3   OH2 5096   6.298   4.671   1.910 -0.6169 -0.5960 -0.1753
 1697TIP3    H1 5097   6.372   4.616   1.884  0.7458 -0.0519  2.2552
 1697TIP3    H2 5098   6.324   4.760   1.887 -0.9793 -0.5275 -0.3144
 1698TIP3   OH2 5099   0.216   2.445   0.802  0.3611  0.4258 -0.0069
 1698TIP3    H1 5100   0.226   2.486   0.888  0.6248  1.5011 -0.5446
 1698TIP3    H2 5101   0.122   2.424   0.797  0.3524  0.3155  0.5564
 1699TIP3   OH2 5102   2.471   5.956   2.743 -0.2208  0.1696 -0.4820
 1699TIP3    H1 5103   2.429   6.028   2.696  1.4686  0.5537 -1.4892
 1699TIP3    H2 5104   2.526   5.913   2.678 -1.7186 -2.5799 -0.1325
 1700TIP3   OH2 5105   4.291   2.093   4.409  0.1279  0.2699  0.4397
 1700TIP3    H1 5106   4.243   2.026   4.360 -0.1292  2.0981 -1.9753
 1700TIP3    H2 5107   4.224   2.138   4.460  0.1646 -0.6558  1.3412
 1701TIP3   OH2 5108   4.329   2.565   3.911  0.0990 -0.4638  0.1212
 1701TIP3    H1 5109   4.419   2.557   3.942  1.0208  0.7967 -1.9535
 1701TIP3    H2 5110   4.312   2.483   3.865 -0.1434 -1.0438  1.2144
 1702TIP3   OH2 5111   5.383   4.678   1.197  0.9082 -0.2553 -0.2347
 1702TIP3    H1 5112   5.474   4.650   1.186  1.2460  1.3946 -1.9052
 1702TIP3    H2 5113   5.351   4.623   1.269  3.2436 -0.7792  0.5098
 1703TIP3   OH2 5114   5.637   5.055   1.469  0.2823  0.5283 -0.3124
 1703TIP3    H1 5115   5.566   5.061   1.405  1.6344 -1.5023 -2.1483
 1703TIP3    H2 5116   5.594   5.064   1.554 -2.1974 -0.7375 -1.3517
 1704TIP3   OH2 5117   2.956   4.619   3.684  0.4269 -0.6000 -0.2214
 1704TIP3    H1 5118   2.891   4.559   3.722  1.5610 -1.8401 -0.1585
 1704TIP3    H2 5119   3.029   4.617   3.746  0.2537  1.3761  0.1029
 1705TIP3   OH2 5120   5.645   4.190   1.893 -0.5118  0.5174 -0.1984
 1705TIP3    H1 5121   5.568   4.246   1.880 -0.8343 -0.1169 -1.1408
 1705TIP3    H2 5122   5.630   4.115   1.835  0.0763 -0.3801  0.7723
 1706TIP3   OH2 5123   4.748   3.503   3.790 -0.1182  0.1023 -0.5350
 1706TIP3    H1 5124   4.747   3.515   3.695  1.2030 -0.5892 -0.6464
 1706TIP3    H2 5125   4.836   3.472   3.810 -0.0059  1.3193  1.0564
 1707TIP3   OH2 5126   3.800   5.640   1.730 -0.6598  0.1311  0.1098
 1707TIP3    H1 5127   3.795   5.693   1.810 -1.7610  2.2335 -1.2580
 1707TIP3    H2 5128   3.870   5.577   1.748 -0.8706  0.5084  2.7100
 1708TIP3   OH2 5129   4.966   5.616   4.918 -0.3595 -0.2255  0.1912
 1708TIP3    H1 5130   4.933   5.611   4.829 -2.0538 -0.1489  0.7836
 1708TIP3    H2 5131   4.997   5.528   4.938  0.3978 -0.1473 -0.5886
 1709TIP3   OH2 5132   3.030   5.871   1.944 -0.2464  0.1824 -0.3849
 1709TIP3    H1 5133   3.006   5.822   2.023  1.2820  0.3665  0.2216
 1709TIP3    H2 5134   2.967   5.843   1.878 -1.1252 -0.4885  0.7179
 1710TIP3   OH2 5135   4.651   0.127   4.446 -0.1032 -0.2049  0.1270
 1710TIP3    H1 5136   4.675   0.189   4.378 -2.5209  0.3713 -0.2859
 1710TIP3    H2 5137   4.611   0.180   4.514 -0.0244 -1.0624  0.8647
 1711TIP3   OH2 5138   1.412   4.601   1.727  0.8864 -0.0234  0.1966
 1711TIP3    H1 5139   1.461   4.536   1.777 -0.2223 -1.2167 -0.2374
 1711TIP3    H2 5140   1.430   4.684   1.772 -0.6351 -1.1106  3.0920
 1712TIP3   OH2 5141   0.128   5.329   0.400 -0.4835 -0.2726  0.3546
 1712TIP3    H1 5142   0.155   5.249   0.444 -1.9486  0.0001  1.8961
 1712TIP3    H2 5143   0.058   5.364   0.456 -0.1008  1.9070 -0.4302
 1713TIP3   OH2 5144   1.641   3.374   2.905 -0.0902  0.7268  0.5454
 1713TIP3    H1 5145   1.601   3.411   2.984  1.7367  0.5508  1.6164
 1713TIP3    H2 5146   1.641   3.446   2.842  0.0217  1.4214  1.3184
 1714TIP3   OH2 5147   3.531   4.717   0.869  0.0811 -0.0352 -0.0823
 1714TIP3    H1 5148   3.579   4.635   0.859 -2.1700 -1.3208 -1.2412
 1714TIP3    H2 5149   3.508   4.720   0.962  0.9876 -0.2167  0.1550
 1715TIP3   OH2 5150   3.286   1.504   2.489 -0.4629  0.2959  0.0134
 1715TIP3    H1 5151   3.199   1.510   2.529  0.5051 -1.3965  2.7251
 1715TIP3    H2 5152   3.333   1.581   2.520 -1.1374  1.6588 -2.1315
 1716TIP3   OH2 5153   5.660   1.072   4.759 -0.6681  0.2674 -0.4001
 1716TIP3    H1 5154   5.651   1.079   4.854 -0.0044  1.0107 -0.3750
 1716TIP3    H2 5155   5.571   1.063   4.726 -0.8304 -5.0794  0.5699
 1717TIP3   OH2 5156   4.150   0.584   0.825  0.4369 -0.4310 -0.2372
 1717TIP3    H1 5157   4.225   0.579   0.884  1.0412  0.4473 -0.9000
 1717TIP3    H2 5158   4.148   0.675   0.797 -0.9869 -0.4002 -0.1132
 1718TIP3   OH2 5159   4.944   3.280   2.537  0.3549  0.4527 -0.2812
 1718TIP3    H1 5160   4.976   3.350   2.480  0.7660  0.4196 -0.1010
 1718TIP3    H2 5161   4.850   3.296   2.545  0.5032  1.2423  0.0871
 1719TIP3   OH2 5162   0.761   2.818   2.016 -0.0062 -0.0985  0.4487
 1719TIP3    H1 5163   0.755   2.750   1.950 -1.1911  0.4112  0.0094
 1719TIP3    H2 5164   0.753   2.771   2.099  2.3805 -0.8525  0.3380
 1720TIP3   OH2 5165   0.528   1.961   0.456 -0.0153 -0.1234  0.3331
 1720TIP3    H1 5166   0.541   1.943   0.549  0.4667 -1.1774  0.0758
 1720TIP3    H2 5167   0.561   1.883   0.412 -0.2522  0.3610 -0.7249
 1721TIP3   OH2 5168   3.458   4.380   3.031 -0.4261  0.5898 -0.3813
 1721TIP3    H1 5169   3.387   4.327   3.068 -1.2738  1.8658 -0.0948
 1721TIP3    H2 5170   3.452   4.464   3.078 -0.2108  1.5319 -1.9734
 1722TIP3   OH2 5171   3.840   0.016   1.074  0.2122 -0.0557  0.4208
 1722TIP3    H1 5172   3.802   0.055   1.153 -1.8006  0.5582 -0.7844
 1722TIP3    H2 5173   3.897  -0.053   1.108 -0.9517 -0.1454  2.4287
 1723TIP3   OH2 5174   0.051   4.565   5.103  0.1703  0.4737 -0.0218
 1723TIP3    H1 5175   0.005   4.503   5.161 -0.0634  1.2430  0.6262
 1723TIP3    H2 5176  -0.017   4.595   5.043  0.4282 -0.3789 -0.7727
 1724TIP3   OH2 5177   4.849   5.376   2.283 -0.1767  0.1973 -0.3868
 1724TIP3    H1 5178   4.843   5.432   2.360 -0.1281  0.5304 -0.6255
 1724TIP3    H2 5179   4.875   5.291   2.318 -0.8580  0.1551  0.0452
 1725TIP3   OH2 5180   2.261   3.690   3.475  0.0858  0.0020  0.3675
 1725TIP3    H1 5181   2.261   3.602   3.437  3.1700  0.3902 -0.7893
 1725TIP3    H2 5182   2.323   3.685   3.548  0.3062  1.1969  0.2846
 1726TIP3   OH2 5183   0.077   1.461   3.421 -0.2603 -0.1937 -0.3611
 1726TIP3    H1 5184   0.036   1.534   3.467  0.9086 -0.0931  0.5534
 1726TIP3    H2 5185   0.121   1.411   3.489  1.3734 -0.1371 -1.3257
 1727TIP3   OH2 5186   0.886   0.899   0.580  0.0914 -0.4316 -0.7390
 1727TIP3    H1 5187   0.845   0.983   0.562  0.6092 -0.2088 -0.9140
 1727TIP3    H2 5188   0.975   0.908   0.545 -0.0039 -1.2251 -1.2163
 1728TIP3   OH2 5189   2.305   1.868   2.409 -0.8804  0.0486 -0.2870
 1728TIP3    H1 5190   2.251   1.849   2.333 -0.3635  1.6083 -1.0896
 1728TIP3    H2 5191   2.245   1.910   2.471 -0.6749  1.7603 -1.1688
 1729TIP3   OH2 5192   2.263   5.780   2.838  0.3226  0.6219 -0.1133
 1729TIP3    H1 5193   2.295   5.696   2.806 -3.7032 -0.4805 -1.7962
 1729TIP3    H2 5194   2.336   5.841   2.823  2.5928 -2.0766 -0.8067
 1730TIP3   OH2 5195   5.384   5.385   1.234  0.0809 -0.0733  0.9733
 1730TIP3    H1 5196   5.338   5.428   1.307 -1.5595 -0.0249 -0.0313
 1730TIP3    H2 5197   5.335   5.304   1.220  0.7047 -0.3347  0.2503
 1731TIP3   OH2 5198   3.845   4.420   4.131  0.2772  0.5672 -0.8233
 1731TIP3    H1 5199   3.854   4.327   4.109 -3.7334 -0.4301  0.8680
 1731TIP3    H2 5200   3.848   4.423   4.226 -0.5150  2.0649 -0.8229
 1732TIP3   OH2 5201   1.162   5.210   2.924  0.2852 -0.2166 -0.0523
 1732TIP3    H1 5202   1.202   5.259   2.852  0.7701 -0.7609 -0.1690
 1732TIP3    H2 5203   1.126   5.276   2.982  1.4004  0.2966  0.0767
 1733TIP3   OH2 5204   4.443   3.686   5.119  0.1781  0.2391 -0.1034
 1733TIP3    H1 5205   4.414   3.775   5.138 -0.9825 -0.2304  0.4533
 1733TIP3    H2 5206   4.434   3.639   5.202  0.1019 -0.5543 -0.5424
 1734TIP3   OH2 5207   5.528   0.141   3.866 -0.1230 -0.0454 -0.1915
 1734TIP3    H1 5208   5.511   0.047   3.862  2.7362 -0.6674  0.0423
 1734TIP3    H2 5209   5.444   0.180   3.891 -1.4558 -2.4791 -0.6192
 1735TIP3   OH2 5210   2.588   4.935   4.835  0.5157 -0.8309 -0.3087
 1735TIP3    H1 5211   2.627   4.849   4.816 -0.1526 -1.6765  1.8446
 1735TIP3    H2 5212   2.529   4.918   4.908  0.8290  1.5918  0.5807
 1736TIP3   OH2 5213   6.099   0.590   0.823 -0.2113 -0.1433 -0.3037
 1736TIP3    H1 5214   6.082   0.498   0.844  0.1640  0.0726  1.0019
 1736TIP3    H2 5215   6.019   0.619   0.779  0.1575 -1.4229 -1.9442
 1737TIP3   OH2 5216   4.647   2.176   5.204 -0.0878  0.5130 -0.6259
 1737TIP3    H1 5217   4.689   2.096   5.176  0.5624  0.2071  1.0895
 1737TIP3    H2 5218   4.689   2.245   5.153  0.3620 -0.1008 -1.0919
 1738TIP3   OH2 5219   0.564   5.937   3.337 -0.4981  0.2131 -0.1357
 1738TIP3    H1 5220   0.556   5.968   3.428  0.3908  3.1725 -0.9393
 1738TIP3    H2 5221   0.565   6.017   3.285 -1.8547 -1.4286 -2.8872
 1739TIP3   OH2 5222   3.312   0.138   1.492 -0.0062 -0.1516 -0.1771
 1739TIP3    H1 5223   3.273   0.088   1.563 -0.6679  0.9309  0.2533
 1739TIP3    H2 5224   3.401   0.104   1.485 -0.2108 -0.8851  0.5698
 1740TIP3   OH2 5225   4.175   4.912   1.415  0.3449  0.0897  0.1913
 1740TIP3    H1 5226   4.139   4.917   1.326  1.2762 -2.4632 -0.4208
 1740TIP3    H2 5227   4.230   4.990   1.423 -0.7778  1.0473 -0.9586
 1741TIP3   OH2 5228   5.305   4.419   3.160 -0.2263  0.1639 -0.4702
 1741TIP3    H1 5229   5.294   4.446   3.251 -2.7720  0.4474 -0.7943
 1741TIP3    H2 5230   5.281   4.496   3.108 -2.7971 -1.1346 -1.3630
 1742TIP3   OH2 5231   3.087   3.281   3.458  0.2044  0.6455 -0.3309
 1742TIP3    H1 5232   3.004   3.326   3.444  1.1693  2.2713 -1.0252
 1742TIP3    H2 5233   3.063   3.188   3.465 -1.5088  0.8922 -2.1434
 1743TIP3   OH2 5234   6.152   2.888   4.059  0.0209 -0.1686 -0.2707
 1743TIP3    H1 5235   6.098   2.866   4.135 -0.0127 -0.9394 -0.5173
 1743TIP3    H2 5236   6.143   2.813   4.000  2.2520 -0.8455  0.1576
 1744TIP3   OH2 5237   1.259   1.845   3.888  0.2270 -0.4434  0.2895
 1744TIP3    H1 5238   1.190   1.829   3.952 -0.3964 -0.1444 -0.2967
 1744TIP3    H2 5239   1.325   1.777   3.907 -1.0474 -1.9037 -0.2843
 1745TIP3   OH2 5240   4.577   5.564   1.384  0.2337  0.2442  0.2126
 1745TIP3    H1 5241   4.555   5.574   1.477 -1.5328  0.7864 -0.2299
 1745TIP3    H2 5242   4.530   5.486   1.357 -0.3988  0.8790 -0.5476
 1746TIP3   OH2 5243   3.648   1.241   3.625 -0.2232  0.0594 -0.5146
 1746TIP3    H1 5244   3.735   1.203   3.639 -0.4476 -1.3581 -2.5150
 1746TIP3    H2 5245   3.593   1.196   3.689  0.1303 -0.6244 -0.6783
 1747TIP3   OH2 5246   1.829   3.327   2.140 -0.0883 -0.2887  0.0412
 1747TIP3    H1 5247   1.889   3.401   2.131  0.0017 -0.3519  0.1256
 1747TIP3    H2 5248   1.749   3.365   2.176 -0.2950 -0.1057 -0.5887
 1748TIP3   OH2 5249   1.774   0.719   0.048  0.1074 -0.3193 -0.1955
 1748TIP3    H1 5250   1.722   0.675  -0.018 -0.2591  1.2217 -0.9788
 1748TIP3    H2 5251   1.822   0.786   0.000  0.6616  0.1244  0.9427
 1749TIP3   OH2 5252   2.713   0.540   3.933  0.1153 -0.3820 -0.3199
 1749TIP3    H1 5253   2.755   0.625   3.943 -1.9582  0.5715  0.8061
 1749TIP3    H2 5254   2.677   0.521   4.019 -2.3241 -0.7986 -1.3679
 1750TIP3   OH2 5255   1.622   2.951   2.249 -0.0243 -0.0467 -0.4079
 1750TIP3    H1 5256   1.585   3.034   2.279 -0.7090 -0.8310  0.9839
 1750TIP3    H2 5257   1.706   2.975   2.211  0.8843  1.0559  2.0952
 1751TIP3   OH2 5258   5.938   4.738   3.272  0.4455  0.4880  0.3538
 1751TIP3    H1 5259   5.929   4.647   3.301 -0.5951  0.1600 -0.9313
 1751TIP3    H2 5260   5.993   4.733   3.194  0.1481  0.9311  0.1139
 1752TIP3   OH2 5261   1.054   4.870   2.507 -0.3011 -0.2373  0.6230
 1752TIP3    H1 5262   1.080   4.865   2.599 -0.8328 -1.9109  0.7116
 1752TIP3    H2 5263   1.129   4.910   2.463  0.6330 -0.9064  1.5440
 1753TIP3   OH2 5264   3.420   2.092   2.798 -0.9009  0.6132 -0.4639
 1753TIP3    H1 5265   3.412   2.117   2.706 -0.0726  2.4064 -0.0907
 1753TIP3    H2 5266   3.504   2.046   2.802 -2.3008 -2.2248 -1.0991
 1754TIP3   OH2 5267   1.033   3.617   1.788 -0.7601 -0.6437 -0.3356
 1754TIP3    H1 5268   1.083   3.540   1.762 -0.4640 -0.1707 -1.2269
 1754TIP3    H2 5269   1.052   3.628   1.881  2.5083  0.7305 -1.0289
 1755TIP3   OH2 5270   4.603   4.222   2.724 -0.1139 -0.5166 -0.1196
 1755TIP3    H1 5271   4.577   4.131   2.740 -1.2669 -0.1901 -0.0467
 1755TIP3    H2 5272   4.637   4.222   2.635 -0.5649 -0.9266 -0.2984
 1756TIP3   OH2 5273   6.306   1.970   1.084 -0.1138  0.3016  0.0500
 1756TIP3    H1 5274   6.319   2.044   1.144 -0.0370  0.5236 -0.2349
 1756TIP3    H2 5275   6.330   2.005   0.998 -0.9656  0.2170 -0.2289
 1757TIP3   OH2 5276   0.062   0.920   2.612 -0.3581 -0.1182 -0.1736
 1757TIP3    H1 5277  -0.020   0.884   2.576 -0.6416  1.1994 -0.9296
 1757TIP3    H2 5278   0.036   0.962   2.694 -0.5818  0.8393 -0.7175
 1758TIP3   OH2 5279   5.760   1.571   2.703 -0.0175 -0.2123 -0.1843
 1758TIP3    H1 5280   5.668   1.593   2.717 -0.2455 -1.4566  0.4118
 1758TIP3    H2 5281   5.807   1.654   2.716 -0.8811  0.0781  1.2863
 1759TIP3   OH2 5282   0.262   2.681   1.506  0.1591 -0.4533  0.3801
 1759TIP3    H1 5283   0.213   2.760   1.483  2.8401  1.0034 -0.7968
 1759TIP3    H2 5284   0.314   2.707   1.582  0.0832 -1.5397  0.8160
 1760TIP3   OH2 5285   6.310   3.968   2.839 -0.5438  0.3227  0.2877
 1760TIP3    H1 5286   6.239   3.920   2.883 -0.3456  0.0806  0.3409
 1760TIP3    H2 5287   6.343   3.908   2.772  0.6782 -0.2000  1.3088
 1761TIP3   OH2 5288   3.257   1.134   3.540 -0.4994  0.4718 -0.6322
 1761TIP3    H1 5289   3.246   1.149   3.446  0.0584  3.2519 -0.3332
 1761TIP3    H2 5290   3.302   1.212   3.572  1.0097 -1.2205  1.6723
 1762TIP3   OH2 5291   1.099   5.167   0.495  0.2325 -0.2918  0.1601
 1762TIP3    H1 5292   1.100   5.131   0.406  2.3486  0.1101 -0.0223
 1762TIP3    H2 5293   1.040   5.109   0.543 -1.1528 -0.3656 -1.5461
 1763TIP3   OH2 5294   1.280   1.525   1.509  0.0097 -0.4619 -0.2805
 1763TIP3    H1 5295   1.204   1.508   1.453  0.0106 -0.7283 -0.2013
 1763TIP3    H2 5296   1.253   1.494   1.595  0.0406 -0.1342 -0.1492
 1764TIP3   OH2 5297   6.235   0.372   5.048 -0.0307  0.1073 -0.6064
 1764TIP3    H1 5298   6.282   0.390   5.130 -2.1315  2.1196  0.2572
 1764TIP3    H2 5299   6.304   0.372   4.981  1.4155  1.2856  0.7903
 1765TIP3   OH2 5300   1.311   1.221   1.017  0.3698  0.2291  0.0486
 1765TIP3    H1 5301   1.228   1.236   0.971  0.3182 -0.5021 -0.1049
 1765TIP3    H2 5302   1.306   1.278   1.093 -0.7341 -0.5405  0.5913
 1766TIP3   OH2 5303   2.486   1.571   0.894  0.1456 -0.0490  0.0037
 1766TIP3    H1 5304   2.477   1.479   0.872 -2.8150  0.3521 -0.9866
 1766TIP3    H2 5305   2.415   1.587   0.957  0.1086  1.7019 -0.4263
 1767TIP3   OH2 5306   3.136   5.373   3.055 -0.5267 -0.0792  0.3980
 1767TIP3    H1 5307   3.096   5.315   3.120  1.2643 -0.1238  1.5160
 1767TIP3    H2 5308   3.162   5.451   3.105  0.6218  0.0038 -0.3001
 1768TIP3   OH2 5309   2.319   0.147   0.843  0.0296  0.2985  0.1258
 1768TIP3    H1 5310   2.385   0.181   0.904 -1.8466  2.9566  0.8849
 1768TIP3    H2 5311   2.263   0.091   0.897  0.3654 -0.1281  0.0288
 1769TIP3   OH2 5312   2.070   2.262   2.726  0.7259  0.3252 -0.2140
 1769TIP3    H1 5313   2.033   2.181   2.761  0.5688  0.8232  0.7862
 1769TIP3    H2 5314   2.031   2.271   2.639  1.9673 -1.5026 -1.0245
 1770TIP3   OH2 5315   4.519   4.894   0.672  0.2006  0.5551  0.2993
 1770TIP3    H1 5316   4.445   4.946   0.640  0.6624  0.2033 -1.4931
 1770TIP3    H2 5317   4.585   4.902   0.603  1.6103  0.3561  1.5660
 1771TIP3   OH2 5318   3.200   0.157   3.727  0.6260  0.1200  0.0974
 1771TIP3    H1 5319   3.262   0.230   3.733  1.4195 -0.3587 -1.8295
 1771TIP3    H2 5320   3.183   0.147   3.633  0.0860 -1.8212  0.3690
 1772TIP3   OH2 5321   0.458   3.451   5.010 -0.0692 -0.8315 -0.1463
 1772TIP3    H1 5322   0.378   3.403   4.989  0.4920 -1.8973  0.0356
 1772TIP3    H2 5323   0.442   3.488   5.096  0.1653 -2.3262  0.5726
 1773TIP3   OH2 5324   3.803   5.762   1.979  0.1596  0.1989  0.4948
 1773TIP3    H1 5325   3.831   5.753   2.070 -2.4063  0.3040  1.3853
 1773TIP3    H2 5326   3.746   5.840   1.979 -0.4939 -0.2383 -1.0270
 1774TIP3   OH2 5327   0.565   0.949   4.560 -0.6427  0.0806  0.2305
 1774TIP3    H1 5328   0.587   0.986   4.645  1.8909  0.7652 -0.6561
 1774TIP3    H2 5329   0.552   1.024   4.503  3.3334 -0.1552 -1.2811
 1775TIP3   OH2 5330   4.096   3.663   4.891  0.3868  0.1370 -0.1129
 1775TIP3    H1 5331   4.064   3.697   4.807  1.0797  0.4298 -0.2709
 1775TIP3    H2 5332   4.152   3.589   4.866  1.2591  0.7357  0.0246
 1776TIP3   OH2 5333   2.551   3.118   5.138 -0.3655 -0.0607  0.5142
 1776TIP3    H1 5334   2.458   3.140   5.149 -0.5739 -0.7052  0.0874
 1776TIP3    H2 5335   2.554   3.022   5.140  0.0887 -0.1042 -0.9264
 1777TIP3   OH2 5336   4.785   1.671   2.617 -0.1147  0.2371  0.3432
 1777TIP3    H1 5337   4.860   1.693   2.563  0.0073  0.4099  0.5806
 1777TIP3    H2 5338   4.729   1.749   2.615 -0.0107  0.3229  0.6290
 1778TIP3   OH2 5339   1.949   2.547   4.759 -0.0060 -0.2650  0.2828
 1778TIP3    H1 5340   1.929   2.469   4.811  1.0099  0.3802  1.7021
 1778TIP3    H2 5341   1.875   2.606   4.775  0.2368 -0.1229  0.9174
 1779TIP3   OH2 5342   2.601   0.773   2.496 -0.5574 -0.5291 -0.1098
 1779TIP3    H1 5343   2.559   0.846   2.450 -0.2333 -0.7001 -0.6853
 1779TIP3    H2 5344   2.546   0.697   2.476  0.7879 -1.0489 -2.0747
 1780TIP3   OH2 5345   2.117   2.831   1.023 -0.3315  0.1052  0.2440
 1780TIP3    H1 5346   2.090   2.802   0.936 -0.2314  1.6042 -0.3126
 1780TIP3    H2 5347   2.049   2.894   1.050  1.8041  3.0083 -0.6576
 1781TIP3   OH2 5348   2.759   4.879   0.549  0.0913  0.2777  0.2183
 1781TIP3    H1 5349   2.711   4.961   0.540 -1.1350 -0.3718  0.6626
 1781TIP3    H2 5350   2.764   4.864   0.643  1.2832  0.3872  0.1858
 1782TIP3   OH2 5351   0.933   4.872   1.039  0.1674 -0.1025 -0.8551
 1782TIP3    H1 5352   0.885   4.794   1.010 -0.3942  0.1219 -0.5382
 1782TIP3    H2 5353   1.002   4.882   0.973  0.7683 -1.3383 -0.4556
 1783TIP3   OH2 5354   1.389   0.532   0.114  0.0518  0.1222  0.1296
 1783TIP3    H1 5355   1.421   0.473   0.182  1.0669  0.5027 -0.0092
 1783TIP3    H2 5356   1.437   0.508   0.035 -0.6336  0.1319 -0.3017
 1784TIP3   OH2 5357   1.166   0.835   4.394 -0.3262  0.3933  0.5571
 1784TIP3    H1 5358   1.217   0.873   4.466  1.8567 -1.0145 -0.1296
 1784TIP3    H2 5359   1.088   0.799   4.436  0.9968 -0.6299  2.3400
 1785TIP3   OH2 5360   4.209   3.613   2.714 -0.1550  0.4621  0.8938
 1785TIP3    H1 5361   4.161   3.570   2.643  0.6387 -0.1072  0.6815
 1785TIP3    H2 5362   4.265   3.677   2.670  0.9810 -0.4962  0.9047
 1786TIP3   OH2 5363   4.409   1.513   0.784  0.0460  0.3094  0.0021
 1786TIP3    H1 5364   4.464   1.591   0.794  0.5199 -0.2055  2.0020
 1786TIP3    H2 5365   4.437   1.455   0.855  0.1819 -2.0140 -1.8342
 1787TIP3   OH2 5366   1.322   3.317   0.246 -0.1925 -0.3726  0.1264
 1787TIP3    H1 5367   1.399   3.322   0.301  0.7356 -0.9493 -1.0757
 1787TIP3    H2 5368   1.349   3.356   0.163 -1.8628  1.4315  0.3657
 1788TIP3   OH2 5369   6.250   3.888   2.457  0.2731 -0.1467  0.3013
 1788TIP3    H1 5370   6.336   3.881   2.498  1.4726 -1.0412 -2.1265
 1788TIP3    H2 5371   6.225   3.980   2.469  0.0609 -0.5459  3.7175
 1789TIP3   OH2 5372   6.185   0.948   1.191 -0.1333  0.2966 -0.0670
 1789TIP3    H1 5373   6.147   0.869   1.153  1.4215 -0.6640  0.2832
 1789TIP3    H2 5374   6.184   1.012   1.119 -0.7997 -0.2456 -0.5546
 1790TIP3   OH2 5375   1.213   1.937   2.927 -0.5323  0.0077 -0.1013
 1790TIP3    H1 5376   1.252   1.997   2.863  0.2090 -1.3403 -0.9378
 1790TIP3    H2 5377   1.186   1.861   2.876 -1.3896 -0.4252  0.9586
 1791TIP3   OH2 5378   3.444   0.696   4.231  0.4884 -0.1214  0.2911
 1791TIP3    H1 5379   3.410   0.655   4.151 -0.3949  0.1680  0.5038
 1791TIP3    H2 5380   3.388   0.661   4.301  0.9764 -0.0382  0.7214
 1792TIP3   OH2 5381   5.867   2.480   4.974  0.1021  0.2039  0.4877
 1792TIP3    H1 5382   5.921   2.459   4.898  1.4247  3.1214  0.4957
 1792TIP3    H2 5383   5.787   2.429   4.961  0.7343 -0.2526 -2.2789
 1793TIP3   OH2 5384   4.622   5.917   1.311 -0.3685 -0.9237  0.0987
 1793TIP3    H1 5385   4.534   5.891   1.337 -0.3736  0.0381  1.1146
 1793TIP3    H2 5386   4.611   6.002   1.269  0.0864 -0.6754  0.4594
 1794TIP3   OH2 5387   5.499   3.025   3.580 -0.2993  0.6742  0.2151
 1794TIP3    H1 5388   5.578   2.982   3.612 -1.3153 -1.5400 -0.0961
 1794TIP3    H2 5389   5.436   3.015   3.651 -1.6009 -1.5233 -1.1442
 1795TIP3   OH2 5390   0.471   1.440   0.425  0.2808 -0.1979  0.3341
 1795TIP3    H1 5391   0.403   1.491   0.381  0.2732  0.3796  0.9990
 1795TIP3    H2 5392   0.553   1.471   0.385  0.1070 -2.0180 -1.6130
 1796TIP3   OH2 5393   0.372   3.006   3.069 -0.0074  0.3819  0.2309
 1796TIP3    H1 5394   0.402   3.095   3.086 -0.0696  0.3712  0.3965
 1796TIP3    H2 5395   0.423   2.977   2.993 -0.1711  0.6501  0.0151
 1797TIP3   OH2 5396   4.214   1.332   4.003  0.3533 -0.3514  0.2744
 1797TIP3    H1 5397   4.222   1.253   3.950 -0.7881  0.2825 -0.9315
 1797TIP3    H2 5398   4.167   1.304   4.081 -0.7663 -0.7407 -0.5091
 1798TIP3   OH2 5399   3.749  -0.004   4.943 -0.3603  0.4019 -0.2825
 1798TIP3    H1 5400   3.842   0.016   4.951 -0.5714  0.5786  2.3536
 1798TIP3    H2 5401   3.733  -0.002   4.848  2.9029 -2.4460 -1.1033
 1799TIP3   OH2 5402   1.355   4.605   4.000 -0.1998 -0.3294 -0.1072
 1799TIP3    H1 5403   1.430   4.604   3.940  0.9334  0.0517  1.2328
 1799TIP3    H2 5404   1.324   4.696   3.998 -0.8246 -0.5508 -0.8748
 1800TIP3   OH2 5405   6.329   4.112   4.730 -0.0693  0.1630 -0.5687
 1800TIP3    H1 5406   6.359   4.197   4.762 -0.6611  0.4215 -0.6954
 1800TIP3    H2 5407   6.344   4.117   4.635  0.5306 -0.1366 -0.4959
 1801TIP3   OH2 5408   1.365   0.159   3.225  0.3642  0.1337  0.5758
 1801TIP3    H1 5409   1.438   0.192   3.277 -0.5979 -0.3143  2.2872
 1801TIP3    H2 5410   1.348   0.228   3.161 -1.2703  2.9624  3.7130
 1802TIP3   OH2 5411   1.397   4.881   4.069 -0.3737  0.4765 -0.3018
 1802TIP3    H1 5412   1.403   4.939   4.144 -1.5422 -1.9680  1.8087
 1802TIP3    H2 5413   1.480   4.832   4.070 -2.5403 -3.7759  3.2946
 1803TIP3   OH2 5414   3.910   0.777   3.647  0.7232 -0.2063 -0.2572
 1803TIP3    H1 5415   3.924   0.810   3.558  0.2703 -0.4182 -0.4063
 1803TIP3    H2 5416   3.835   0.719   3.640 -1.1170  1.8887  0.7663
 1804TIP3   OH2 5417   4.360   3.363   2.906  0.3369 -0.1271 -0.0007
 1804TIP3    H1 5418   4.431   3.373   2.969 -0.4844 -0.0333  0.9318
 1804TIP3    H2 5419   4.302   3.437   2.922  0.6923  0.5600 -1.6746
 1805TIP3   OH2 5420   4.334   3.661   4.367  0.1707  0.3065 -0.1685
 1805TIP3    H1 5421   4.407   3.722   4.360  0.2378  0.1516 -0.8021
 1805TIP3    H2 5422   4.282   3.676   4.288 -0.8502  0.8853  0.5763
 1806TIP3   OH2 5423   1.004   1.351   0.497 -0.0227 -0.4384 -0.2290
 1806TIP3    H1 5424   1.043   1.378   0.414  0.0094 -2.3948 -0.9101
 1806TIP3    H2 5425   1.053   1.398   0.564 -0.2229  1.3852 -1.3131
 1807TIP3   OH2 5426   4.587   0.090   2.343 -0.0071  0.2957 -0.3428
 1807TIP3    H1 5427   4.647   0.160   2.318 -0.1149  0.0496 -1.3320
 1807TIP3    H2 5428   4.637   0.036   2.404  1.4142 -0.8152 -2.3500
 1808TIP3   OH2 5429   6.132   4.099   3.041 -0.1200 -0.0325  0.1575
 1808TIP3    H1 5430   6.208   4.117   3.097  1.0739 -1.1449 -1.0070
 1808TIP3    H2 5431   6.109   4.008   3.062  0.2141 -0.3918 -0.9747
 1809TIP3   OH2 5432   4.539   2.924   4.090 -0.0691 -0.0048 -0.0558
 1809TIP3    H1 5433   4.491   2.983   4.149  0.3578  2.3461 -1.9213
 1809TIP3    H2 5434   4.486   2.921   4.010  0.2645 -1.6953 -0.2595
 1810TIP3   OH2 5435   0.773   2.256   0.632  0.1536  0.2701  0.0850
 1810TIP3    H1 5436   0.848   2.293   0.678 -0.0202 -0.0848  0.6666
 1810TIP3    H2 5437   0.710   2.235   0.702  0.0547 -0.6665 -0.2750
 1811TIP3   OH2 5438   6.302   4.237   4.256  0.0455  0.2025 -0.1501
 1811TIP3    H1 5439   6.308   4.146   4.227  0.5984 -0.0416  0.6895
 1811TIP3    H2 5440   6.282   4.286   4.176 -1.1071 -0.7362 -0.4655
 1812TIP3   OH2 5441   3.314   3.527   2.092  0.0901  0.3071  0.2946
 1812TIP3    H1 5442   3.371   3.599   2.119 -0.0043  0.5408 -0.1234
 1812TIP3    H2 5443   3.346   3.502   2.005 -0.2451  0.2304  0.1899
 1813TIP3   OH2 5444   2.892   2.201   0.838  0.1854 -0.1107  0.1380
 1813TIP3    H1 5445   2.868   2.240   0.922  0.2425  0.4151 -0.0869
 1813TIP3    H2 5446   2.808   2.173   0.800  0.0713  0.4258 -0.0095
 1814TIP3   OH2 5447   3.933   4.723   4.777  0.7128  0.5750  0.0227
 1814TIP3    H1 5448   4.026   4.743   4.760  1.5280 -1.5530  1.5267
 1814TIP3    H2 5449   3.913   4.770   4.858  0.2740  1.4687 -0.5852
 1815TIP3   OH2 5450   1.055   0.010   4.446 -0.3395  0.0194 -0.2282
 1815TIP3    H1 5451   0.961  -0.003   4.460 -0.2996 -0.3567 -0.3056
 1815TIP3    H2 5452   1.062   0.036   4.354 -0.3628 -0.0015 -0.2361
 1816TIP3   OH2 5453   1.700   0.456   4.462  0.0388  0.0907  0.0374
 1816TIP3    H1 5454   1.649   0.401   4.522  0.3823 -0.3517 -0.0672
 1816TIP3    H2 5455   1.660   0.543   4.469  1.4031  0.6083  2.5548
 1817TIP3   OH2 5456   3.302   4.504   4.060 -0.2220  0.3530 -0.4931
 1817TIP3    H1 5457   3.385   4.467   4.091 -0.5065 -0.6570 -0.9139
 1817TIP3    H2 5458   3.253   4.523   4.140 -0.0933 -0.2287 -0.2742
 1818TIP3   OH2 5459   3.982   2.928   2.857 -0.7654 -0.0952  0.1546
 1818TIP3    H1 5460   3.890   2.907   2.873 -0.5265 -0.3830  1.2268
 1818TIP3    H2 5461   4.028   2.897   2.935  0.2305  0.1583 -0.3090
 1819TIP3   OH2 5462   3.104   1.115   3.899 -0.0989 -0.3232  0.1908
 1819TIP3    H1 5463   3.051   1.160   3.965  0.8403  0.9053  0.1311
 1819TIP3    H2 5464   3.056   1.125   3.818 -0.7225 -0.9063  0.4769
 1820TIP3   OH2 5465   2.784   1.264   3.611  0.0842 -0.4140 -0.0838
 1820TIP3    H1 5466   2.859   1.207   3.629 -1.9347 -2.0457  4.7611
 1820TIP3    H2 5467   2.730   1.214   3.551  0.9939 -0.9448 -0.4888
 1821TIP3   OH2 5468   5.156   5.233   3.580  0.0768 -1.0487 -0.8766
 1821TIP3    H1 5469   5.062   5.221   3.565  0.1778 -1.9746 -0.8026
 1821TIP3    H2 5470   5.170   5.204   3.669  0.4108 -0.7334 -0.8259
 1822TIP3   OH2 5471   1.418   2.211   1.506 -0.1631  0.2642 -0.7724
 1822TIP3    H1 5472   1.350   2.170   1.559  0.7077  0.2868  0.4062
 1822TIP3    H2 5473   1.414   2.304   1.528  0.8734  0.1312  0.0713
 1823TIP3   OH2 5474   3.576   2.421   3.522  0.4382  0.5589 -0.3005
 1823TIP3    H1 5475   3.518   2.467   3.582  0.4602  2.5860 -1.7419
 1823TIP3    H2 5476   3.571   2.329   3.549  0.1990  1.3094  2.5497
 1824TIP3   OH2 5477   3.547   5.098   1.530 -0.2299 -0.4709 -0.2918
 1824TIP3    H1 5478   3.636   5.078   1.560  0.3423  0.4511 -1.3153
 1824TIP3    H2 5479   3.553   5.101   1.435 -1.1918  0.3406 -0.3475
 1825TIP3   OH2 5480   5.686   4.018   5.088  1.0070 -0.7705 -0.2990
 1825TIP3    H1 5481   5.612   4.045   5.143  3.1501 -1.5518  3.2191
 1825TIP3    H2 5482   5.734   4.099   5.071  0.9336 -0.6822 -0.0814
 1826TIP3   OH2 5483   3.123   2.764   3.119 -0.8131 -0.3163 -0.4778
 1826TIP3    H1 5484   3.029   2.784   3.127 -0.7215 -0.6176  3.0289
 1826TIP3    H2 5485   3.126   2.682   3.070 -2.2679  0.2966 -1.6794
 1827TIP3   OH2 5486   2.484   0.118   4.489 -0.7659 -0.0143 -0.3544
 1827TIP3    H1 5487   2.503   0.168   4.410  0.2806  1.2463  0.6540
 1827TIP3    H2 5488   2.510   0.175   4.561 -0.6310 -1.5627  0.8889
 1828TIP3   OH2 5489   0.577   5.499   0.164 -0.2702  0.2263  0.3174
 1828TIP3    H1 5490   0.621   5.428   0.116 -2.3346 -0.3244 -0.9298
 1828TIP3    H2 5491   0.646   5.542   0.213  1.5107 -0.9813 -1.0029
 1829TIP3   OH2 5492   0.759   5.837   0.879  0.1954 -0.4264  0.4906
 1829TIP3    H1 5493   0.833   5.780   0.858  0.5030  0.2200 -0.2252
 1829TIP3    H2 5494   0.684   5.794   0.838  0.7887  0.8263 -2.1139
 1830TIP3   OH2 5495   5.133   1.572   0.898  0.6606  0.4523 -0.9786
 1830TIP3    H1 5496   5.160   1.518   0.823  1.7146  0.7959 -0.8623
 1830TIP3    H2 5497   5.124   1.660   0.861 -1.6064  0.1383 -1.2927
 1831TIP3   OH2 5498   0.093   5.804   4.329 -0.6565  0.4067  0.2017
 1831TIP3    H1 5499   0.113   5.886   4.284  0.1081  0.5040  0.7020
 1831TIP3    H2 5500   0.154   5.801   4.403 -2.4366  0.6263  1.7256
 1832TIP3   OH2 5501   1.468   3.588   2.758 -0.0166 -0.4051  0.0207
 1832TIP3    H1 5502   1.514   3.658   2.712 -0.9314 -0.5426 -1.1578
 1832TIP3    H2 5503   1.426   3.632   2.832 -2.0049  0.7147 -1.6592
 1833TIP3   OH2 5504   6.164   0.096   0.698 -0.3258  0.1676 -0.3136
 1833TIP3    H1 5505   6.088   0.044   0.723  0.6179 -0.0399  2.4736
 1833TIP3    H2 5506   6.239   0.042   0.724  0.7151  1.6479 -0.1589
 1834TIP3   OH2 5507   6.242   0.982   3.631 -0.0136 -0.0213  0.1129
 1834TIP3    H1 5508   6.191   1.017   3.704 -0.2972  0.5765 -0.3540
 1834TIP3    H2 5509   6.201   0.897   3.612 -1.2683  0.7179 -0.6538
 1835TIP3   OH2 5510   5.219   2.354   0.275  0.3281  0.0786  0.1481
 1835TIP3    H1 5511   5.226   2.383   0.366 -1.0106  1.1139 -0.0463
 1835TIP3    H2 5512   5.190   2.432   0.228  0.4914 -0.5859 -1.0928
 1836TIP3   OH2 5513   4.513   3.476   4.426 -0.4031  0.4050 -0.1284
 1836TIP3    H1 5514   4.449   3.518   4.369 -0.5244 -0.3069 -0.5310
 1836TIP3    H2 5515   4.572   3.546   4.451 -0.5072  0.7866 -0.9131
 1837TIP3   OH2 5516   0.593   4.323   1.507  0.5712  0.7486  0.1481
 1837TIP3    H1 5517   0.626   4.408   1.534 -1.8712  1.0088  2.8376
 1837TIP3    H2 5518   0.501   4.338   1.485  0.4395 -0.9631 -0.6933
 1838TIP3   OH2 5519   4.158   0.624   2.952 -0.5976  0.6023  0.3436
 1838TIP3    H1 5520   4.098   0.660   2.887  0.2279  1.3795  0.0032
 1838TIP3    H2 5521   4.240   0.672   2.940 -0.4942  0.9559  2.1216
 1839TIP3   OH2 5522   5.786   3.607   0.039  0.4676 -0.1700  0.0813
 1839TIP3    H1 5523   5.743   3.621  -0.045 -0.4359  1.0582  0.7128
 1839TIP3    H2 5524   5.871   3.650   0.030  0.6029 -0.5293 -0.3823
 1840TIP3   OH2 5525   4.286   4.001   4.298 -0.2088  0.2023  0.3528
 1840TIP3    H1 5526   4.279   4.091   4.330  2.1894  1.4704 -2.2126
 1840TIP3    H2 5527   4.198   3.965   4.307 -1.5665  3.2276  0.3299
 1841TIP3   OH2 5528   3.303   4.050   3.279 -0.4529  0.2665  0.3703
 1841TIP3    H1 5529   3.250   4.013   3.208  1.1318 -1.2044 -0.1125
 1841TIP3    H2 5530   3.303   4.144   3.261 -0.0625 -0.0560 -1.6418
 1842TIP3   OH2 5531   4.355   1.083   0.661 -0.0093  0.3687 -0.3326
 1842TIP3    H1 5532   4.400   1.096   0.745  2.7219  0.5854 -1.7432
 1842TIP3    H2 5533   4.308   1.166   0.647  0.9464  1.0177  0.1656
 1843TIP3   OH2 5534   2.065   1.045   1.700  0.3182 -0.9525  0.0554
 1843TIP3    H1 5535   2.109   1.089   1.627  1.4050 -1.6582  0.2654
 1843TIP3    H2 5536   1.992   1.103   1.722  1.8205  0.8867  0.4736
 1844TIP3   OH2 5537   5.426   5.434   2.942  0.1374  0.4644  0.5550
 1844TIP3    H1 5538   5.448   5.380   3.017  1.4277  1.4898  0.9429
 1844TIP3    H2 5539   5.353   5.489   2.972 -0.8359 -0.6557  0.3174
 1845TIP3   OH2 5540   5.015   0.528   4.934 -0.2850  0.1436  0.2469
 1845TIP3    H1 5541   5.085   0.577   4.978 -1.0389  1.3843  0.1084
 1845TIP3    H2 5542   4.954   0.506   5.005 -0.3919  0.1967  0.1714
 1846TIP3   OH2 5543   0.926   5.395   0.462  0.4693 -0.3542  0.3978
 1846TIP3    H1 5544   0.997   5.331   0.451  0.8386  0.0712  0.2574
 1846TIP3    H2 5545   0.958   5.473   0.418  0.4377  0.2431  1.4023
 1847TIP3   OH2 5546   3.394   1.880   0.484  0.1187  0.6479  0.2959
 1847TIP3    H1 5547   3.374   1.895   0.576 -0.6883 -0.1518  0.2663
 1847TIP3    H2 5548   3.362   1.959   0.440 -1.3038  0.2173  0.4882
 1848TIP3   OH2 5549   5.122   1.921   2.693 -0.5846  0.3819  0.3411
 1848TIP3    H1 5550   5.043   1.942   2.742  1.1616  1.7501  2.7868
 1848TIP3    H2 5551   5.168   1.857   2.749 -0.0736 -0.6156 -1.1671
 1849TIP3   OH2 5552   1.067   2.670   1.265 -0.2238  0.3101  0.1126
 1849TIP3    H1 5553   1.053   2.638   1.354  1.7251 -1.0366 -0.0207
 1849TIP3    H2 5554   1.068   2.591   1.211 -3.5655  1.2147 -1.5203
 1850TIP3   OH2 5555   4.908   0.995   5.152  1.0300  0.4630  0.1502
 1850TIP3    H1 5556   4.874   0.992   5.062  2.8711 -0.4709 -0.5885
 1850TIP3    H2 5557   4.849   1.053   5.199  0.8689  2.2346 -2.0631
 1851TIP3   OH2 5558   4.739   4.523   3.100 -0.7387 -0.1032  0.5346
 1851TIP3    H1 5559   4.820   4.574   3.094 -1.9451  2.0092  1.0512
 1851TIP3    H2 5560   4.732   4.479   3.015 -0.1581  1.5040 -0.3957
 1852TIP3   OH2 5561   4.821   5.291   5.094 -0.2507 -0.2907  0.3300
 1852TIP3    H1 5562   4.801   5.223   5.029 -2.7954  0.0831  0.6133
 1852TIP3    H2 5563   4.805   5.249   5.178  1.1772 -0.2156  0.6491
 1853TIP3   OH2 5564   4.354   0.693   3.780 -0.2890  0.0040 -0.2283
 1853TIP3    H1 5565   4.277   0.745   3.756 -0.4014 -0.3813 -0.7162
 1853TIP3    H2 5566   4.418   0.712   3.712  0.3964  1.0425  0.6765
 1854TIP3   OH2 5567   3.299   3.875   2.065  0.0146  0.3544 -0.5770
 1854TIP3    H1 5568   3.255   3.896   2.147 -0.3765 -0.3928 -0.5879
 1854TIP3    H2 5569   3.302   3.959   2.018 -0.3479  0.6529 -0.0849
 1855TIP3   OH2 5570   6.151   3.882   1.691 -1.0020 -0.0121 -0.3125
 1855TIP3    H1 5571   6.161   3.820   1.763  0.0214 -0.0462 -0.4732
 1855TIP3    H2 5572   6.061   3.914   1.700 -1.1249 -0.5540  0.5405
 1856TIP3   OH2 5573   5.353   3.171   4.340 -0.0705 -0.0467 -0.3556
 1856TIP3    H1 5574   5.420   3.104   4.355 -1.0618 -0.6642  1.6890
 1856TIP3    H2 5575   5.270   3.124   4.349 -0.7879  1.3429  0.7397
 1857TIP3   OH2 5576   4.576   1.997   0.907 -0.0646  0.2035  0.1044
 1857TIP3    H1 5577   4.548   2.089   0.910 -1.6803 -0.2552  0.6728
 1857TIP3    H2 5578   4.603   1.983   0.817  1.4254  1.5454  0.2946
 1858TIP3   OH2 5579   4.446   0.266   3.423 -0.3872 -0.5874  0.7141
 1858TIP3    H1 5580   4.436   0.248   3.329 -0.3039 -0.2558  0.6388
 1858TIP3    H2 5581   4.405   0.352   3.435 -2.4743 -1.6229  1.4026
 1859TIP3   OH2 5582   5.971   5.109   2.952  0.2460  0.3092 -0.8767
 1859TIP3    H1 5583   5.913   5.185   2.960  0.2455  0.3228 -1.0028
 1859TIP3    H2 5584   6.015   5.122   2.868 -0.0341 -0.0267 -1.0781
 1860TIP3   OH2 5585   1.879   2.072   3.697  0.4927  0.4060 -0.0941
 1860TIP3    H1 5586   1.789   2.101   3.713  1.0416  1.4846  1.2804
 1860TIP3    H2 5587   1.904   2.026   3.777  1.0165 -0.2928 -0.6491
 1861TIP3   OH2 5588   5.166   2.604   3.276  0.2741  0.1093 -0.3130
 1861TIP3    H1 5589   5.110   2.546   3.328  1.1947 -0.7204 -0.2137
 1861TIP3    H2 5590   5.154   2.574   3.186 -0.8984  1.1909 -0.5492
 1862TIP3   OH2 5591   1.716   0.928   4.743 -0.2610 -0.2356  0.1714
 1862TIP3    H1 5592   1.765   0.936   4.825 -1.1797 -1.1007  0.8330
 1862TIP3    H2 5593   1.667   1.010   4.735 -0.3132 -0.2236  0.5918
 1863TIP3   OH2 5594   4.807   3.553   1.171  0.5349  0.1291 -0.4598
 1863TIP3    H1 5595   4.855   3.557   1.253 -2.6979 -0.1384  1.6302
 1863TIP3    H2 5596   4.756   3.472   1.176  0.4231 -0.0368 -2.8778
 1864TIP3   OH2 5597   0.221   5.990   0.349 -0.3217 -0.0392  0.0390
 1864TIP3    H1 5598   0.295   6.042   0.380  1.3997 -2.1922 -0.1876
 1864TIP3    H2 5599   0.257   5.937   0.278 -1.6983 -2.1216  0.7857
 1865TIP3   OH2 5600   3.463   3.973   1.611  0.4391  0.1966 -0.2382
 1865TIP3    H1 5601   3.524   3.982   1.685 -0.0714  0.5083  0.1523
 1865TIP3    H2 5602   3.436   4.063   1.591  1.2872  0.2034 -1.4209
 1866TIP3   OH2 5603   3.957   4.769   2.618 -0.5447 -0.6088  0.2007
 1866TIP3    H1 5604   3.935   4.858   2.589 -1.2282 -0.9218 -0.2726
 1866TIP3    H2 5605   3.982   4.724   2.537 -2.5117 -1.5085  0.0428
 1867TIP3   OH2 5606   5.442   5.865   0.884 -0.1735 -0.3006  0.4078
 1867TIP3    H1 5607   5.483   5.789   0.926  0.6365  0.0318  0.2303
 1867TIP3    H2 5608   5.469   5.939   0.937  1.1821  0.1762 -0.8811
 1868TIP3   OH2 5609   5.662   5.823   3.248 -0.3253 -0.5645  0.0068
 1868TIP3    H1 5610   5.583   5.875   3.233 -0.3677  0.0098  1.8582
 1868TIP3    H2 5611   5.681   5.838   3.341  2.3396 -0.1583 -0.5474
 1869TIP3   OH2 5612   1.300   1.090   3.985  0.0651  0.1125 -0.0397
 1869TIP3    H1 5613   1.280   0.997   3.993  1.4152 -0.2448 -0.4376
 1869TIP3    H2 5614   1.243   1.133   4.049 -0.7077 -0.9577  0.0238
 1870TIP3   OH2 5615   5.243   2.454   4.173  0.2620  0.0630 -0.1907
 1870TIP3    H1 5616   5.209   2.518   4.110  0.4281  0.4440  0.1027
 1870TIP3    H2 5617   5.219   2.489   4.259 -1.0177 -1.0432 -0.0590
 1871TIP3   OH2 5618   5.237   1.718   2.829 -0.1049  0.1024  0.9442
 1871TIP3    H1 5619   5.168   1.658   2.859  0.1001 -0.6153  0.0447
 1871TIP3    H2 5620   5.315   1.663   2.820  0.3960  0.7550  1.2282
 1872TIP3   OH2 5621   4.037   1.403   0.011 -0.3794 -0.7344 -0.0789
 1872TIP3    H1 5622   4.034   1.488   0.054 -0.9616 -0.6799 -0.2185
 1872TIP3    H2 5623   3.964   1.353   0.049 -0.1445 -1.1117 -0.1154
 1873TIP3   OH2 5624   5.909   5.345   5.023 -0.5730  0.0278  0.0545
 1873TIP3    H1 5625   5.838   5.396   5.063 -0.4272  0.3818 -0.1352
 1873TIP3    H2 5626   5.896   5.256   5.056  0.6742  0.6636  2.3962
 1874TIP3   OH2 5627   3.094   0.104   4.487  0.1312 -0.8839  0.2683
 1874TIP3    H1 5628   3.097   0.044   4.413  1.0594 -1.8042  1.0379
 1874TIP3    H2 5629   3.000   0.124   4.497 -0.4868 -3.8720  1.3038
 1875TIP3   OH2 5630   1.427   4.321   2.768 -0.2444 -0.1282 -0.0780
 1875TIP3    H1 5631   1.464   4.364   2.691 -0.2179 -0.6395 -0.3607
 1875TIP3    H2 5632   1.500   4.271   2.805 -0.0171  0.8359  0.8225
 1876TIP3   OH2 5633   5.982   4.863   3.530 -0.1897 -0.1734  0.2544
 1876TIP3    H1 5634   5.891   4.886   3.548 -0.7471 -3.0183  1.5265
 1876TIP3    H2 5635   5.981   4.826   3.442 -0.2293 -0.0895  0.2195
 1877TIP3   OH2 5636   2.368   2.956   4.934  0.5476 -0.1690  0.5350
 1877TIP3    H1 5637   2.331   3.043   4.947  0.8645 -0.3661  3.4495
 1877TIP3    H2 5638   2.301   2.907   4.887  0.4844  1.6839 -1.4188
 1878TIP3   OH2 5639   3.120   1.362   3.350  0.4153 -0.1726  0.2587
 1878TIP3    H1 5640   3.210   1.371   3.319  0.5087 -0.1365  0.5407
 1878TIP3    H2 5641   3.110   1.431   3.415 -0.5533  1.3726 -1.4393
 1879TIP3   OH2 5642   2.478   2.768   2.465 -1.1372  0.1319 -0.1449
 1879TIP3    H1 5643   2.476   2.764   2.561 -1.6820  1.2614 -0.0959
 1879TIP3    H2 5644   2.554   2.714   2.441  0.3253  1.5252  1.0565
 1880TIP3   OH2 5645   4.702   5.308   1.563  0.7172  0.0962 -0.4576
 1880TIP3    H1 5646   4.629   5.295   1.503 -0.6932  1.0091  1.0005
 1880TIP3    H2 5647   4.667   5.289   1.650  2.4081 -0.1324  0.2199
 1881TIP3   OH2 5648   3.122   5.775   2.611  0.1833 -0.0621 -0.4071
 1881TIP3    H1 5649   3.047   5.834   2.612  0.9316  0.9447 -0.9613
 1881TIP3    H2 5650   3.099   5.708   2.546 -0.0345  0.5205 -0.9389
 1882TIP3   OH2 5651   0.169   5.008   0.661 -0.1618 -0.3180  0.2798
 1882TIP3    H1 5652   0.209   4.924   0.637  0.1115  0.0623 -0.6152
 1882TIP3    H2 5653   0.227   5.074   0.624 -0.6063  0.2689  0.6138
 1883TIP3   OH2 5654   3.965   0.377   4.149  0.4618  0.5301 -0.3059
 1883TIP3    H1 5655   4.034   0.347   4.090  0.3320 -0.6623  0.1209
 1883TIP3    H2 5656   3.887   0.385   4.094  0.5739  0.3899 -0.4841
 1884TIP3   OH2 5657   2.679   5.199   3.800 -0.2720 -0.0984  0.3172
 1884TIP3    H1 5658   2.692   5.202   3.895 -1.4075 -1.8045  0.5665
 1884TIP3    H2 5659   2.589   5.228   3.787 -0.0300  0.4136 -0.2953
 1885TIP3   OH2 5660   1.421   2.035   4.725 -0.0113  0.1020 -0.4063
 1885TIP3    H1 5661   1.497   2.018   4.671 -0.7902  0.7250 -1.7626
 1885TIP3    H2 5662   1.384   2.117   4.690  0.7881  1.9153  2.6004
 1886TIP3   OH2 5663   0.718   4.134   4.944  0.6655  0.0527  0.2046
 1886TIP3    H1 5664   0.634   4.088   4.944  0.3206  0.6298 -1.5686
 1886TIP3    H2 5665   0.768   4.094   4.874  1.3123  0.6945  0.2862
 1887TIP3   OH2 5666   4.328   2.998   0.715 -0.1006  0.0824  0.2195
 1887TIP3    H1 5667   4.237   3.028   0.714 -0.5667 -1.2677 -0.3689
 1887TIP3    H2 5668   4.341   2.957   0.630  0.5956 -1.0418  0.8367
 1888TIP3   OH2 5669   2.560   3.909   2.331  0.0767 -0.7159  0.0797
 1888TIP3    H1 5670   2.605   3.946   2.407 -1.7790  3.3867 -0.5530
 1888TIP3    H2 5671   2.510   3.835   2.366  2.0046 -1.1676  2.0764
 1889TIP3   OH2 5672   5.086   3.914   0.086 -0.0775 -0.0954  0.1368
 1889TIP3    H1 5673   5.071   3.965   0.166  0.2478  0.8428 -0.3789
 1889TIP3    H2 5674   5.138   3.973   0.030  0.4301 -1.0598 -0.4233
 1890TIP3   OH2 5675   0.940   4.910   4.024 -0.5567  0.3092 -0.0793
 1890TIP3    H1 5676   0.964   4.873   4.109 -1.0211 -0.1816 -0.1519
 1890TIP3    H2 5677   1.017   4.959   3.996 -0.1421 -0.1122  0.3032
 1891TIP3   OH2 5678   5.714   5.596   0.363  0.1709  0.2550  0.2239
 1891TIP3    H1 5679   5.788   5.647   0.329  1.0882  0.1017  1.8688
 1891TIP3    H2 5680   5.714   5.615   0.457 -0.3125 -1.7000  0.6509
 1892TIP3   OH2 5681   0.257   5.564   4.340  0.3843  0.3808  0.1625
 1892TIP3    H1 5682   0.211   5.498   4.391 -0.2129  0.1401 -0.6648
 1892TIP3    H2 5683   0.200   5.580   4.265  0.1904  2.2984  0.6566
 1893TIP3   OH2 5684   4.110   4.375   3.379 -0.3543  0.2029 -0.3035
 1893TIP3    H1 5685   4.200   4.352   3.354  0.1170  0.1741  1.2630
 1893TIP3    H2 5686   4.100   4.338   3.467 -1.1151  2.1537  0.4932
 1894TIP3   OH2 5687   5.817   1.750   3.148 -0.1998 -0.4682  0.0755
 1894TIP3    H1 5688   5.870   1.724   3.072 -3.8957 -0.8694 -2.6557
 1894TIP3    H2 5689   5.812   1.846   3.141  1.7919 -0.1631  1.6982
 1895TIP3   OH2 5690   1.977   2.325   3.877  0.1652 -0.4016 -0.0115
 1895TIP3    H1 5691   1.992   2.234   3.904  0.1725 -0.1191  0.9741
 1895TIP3    H2 5692   1.944   2.368   3.956  0.0227  0.4253 -0.5096
 1896TIP3   OH2 5693   3.630   2.806   4.253  0.1174 -0.0944  0.2355
 1896TIP3    H1 5694   3.670   2.858   4.323 -1.3156  1.2987  0.0761
 1896TIP3    H2 5695   3.596   2.728   4.298  1.7639 -0.6504  0.5808
 1897TIP3   OH2 5696   3.047   3.981   2.242 -0.1976  0.4186 -0.3891
 1897TIP3    H1 5697   2.958   3.950   2.226 -0.1237  0.0335 -0.0586
 1897TIP3    H2 5698   3.045   4.073   2.215 -0.7771  0.4946 -0.1107
 1898TIP3   OH2 5699   2.617   3.352   4.035 -0.1321 -0.0531  0.6247
 1898TIP3    H1 5700   2.614   3.443   4.006  0.8527  0.2057  1.2857
 1898TIP3    H2 5701   2.637   3.357   4.128 -2.6629 -0.8919  1.2834
 1899TIP3   OH2 5702   5.192   2.293   1.072  0.0518 -0.2009 -0.4127
 1899TIP3    H1 5703   5.171   2.259   1.159 -0.1276  2.1754  0.5479
 1899TIP3    H2 5704   5.112   2.281   1.021 -0.7665  0.7936  0.5885
 1900TIP3   OH2 5705   2.449   0.448   3.173 -0.4613  0.3943 -0.2027
 1900TIP3    H1 5706   2.411   0.526   3.133 -1.2553  1.0723  1.7621
 1900TIP3    H2 5707   2.513   0.482   3.236  0.4441 -0.6248 -0.5299
 1901TIP3   OH2 5708   4.383   5.398   0.501 -0.1762  0.2884  0.2851
 1901TIP3    H1 5709   4.433   5.377   0.579 -0.9169 -0.0015  0.6950
 1901TIP3    H2 5710   4.445   5.443   0.444  0.4962  0.0881  0.8443
 1902TIP3   OH2 5711   3.361   2.633   0.315  0.1070 -0.1850  0.1083
 1902TIP3    H1 5712   3.393   2.637   0.405 -1.0973 -1.8624  0.6519
 1902TIP3    H2 5713   3.267   2.644   0.323  0.0290  0.0095 -0.9959
 1903TIP3   OH2 5714   0.499   0.766   2.771 -0.4769 -0.3096  0.3324
 1903TIP3    H1 5715   0.417   0.796   2.732 -0.9440  0.7818  2.0749
 1903TIP3    H2 5716   0.566   0.786   2.705 -1.1857  1.7894  0.1995
 1904TIP3   OH2 5717   4.067   0.678   2.234 -0.8266  0.6168  0.4159
 1904TIP3    H1 5718   4.131   0.616   2.269 -1.6579 -1.1605 -1.0588
 1904TIP3    H2 5719   4.104   0.764   2.253  1.0959 -0.3312  1.2157
 1905TIP3   OH2 5720   6.054   5.382   2.320 -0.0720  0.0311 -0.1998
 1905TIP3    H1 5721   6.104   5.460   2.347 -0.8242 -0.2474  2.2590
 1905TIP3    H2 5722   5.977   5.418   2.276 -0.9221  0.7878  1.8013
 1906TIP3   OH2 5723   2.763   1.245   2.571  0.2905  0.5424 -0.0080
 1906TIP3    H1 5724   2.676   1.223   2.603 -0.2217 -1.0411 -2.2106
 1906TIP3    H2 5725   2.750   1.319   2.512  0.3501  0.0889 -0.6045
 1907TIP3   OH2 5726   4.353   5.292   4.691  0.0654  0.4764  0.3332
 1907TIP3    H1 5727   4.271   5.294   4.740 -0.7018 -1.8896 -0.6801
 1907TIP3    H2 5728   4.421   5.291   4.758 -0.8410  0.2725  1.2750
 1908TIP3   OH2 5729   3.402   2.900   4.120  0.1231 -0.4001  0.0470
 1908TIP3    H1 5730   3.477   2.855   4.157  0.6081  0.2131 -0.1815
 1908TIP3    H2 5731   3.421   2.993   4.131  0.6420 -0.1635 -2.4063
 1909TIP3   OH2 5732   0.542   2.403   0.957  0.0001  0.0189 -0.4314
 1909TIP3    H1 5733   0.448   2.400   0.979  0.1779 -0.7575  0.2961
 1909TIP3    H2 5734   0.553   2.486   0.912 -1.0225  0.1828 -0.4180
 1910TIP3   OH2 5735   2.108   1.983   2.226  0.3835 -0.2327 -0.6508
 1910TIP3    H1 5736   2.051   2.060   2.233 -0.2366 -0.7342 -0.0417
 1910TIP3    H2 5737   2.182   2.013   2.173  0.8231  1.1758  0.6842
 1911TIP3   OH2 5738   2.321   0.340   1.634  0.0807 -0.0268  0.4390
 1911TIP3    H1 5739   2.333   0.406   1.566 -1.5487  0.9565  1.0636
 1911TIP3    H2 5740   2.385   0.272   1.613  2.6727  2.2652  0.4820
 1912TIP3   OH2 5741   4.570   2.757   0.351  0.1889 -0.0402 -0.8445
 1912TIP3    H1 5742   4.509   2.813   0.399  0.5323  0.3770 -0.8900
 1912TIP3    H2 5743   4.582   2.680   0.407 -1.5027 -0.8174 -1.4779
 1913TIP3   OH2 5744   5.245   2.866   3.847  0.1165  0.3448  0.2951
 1913TIP3    H1 5745   5.271   2.958   3.839 -0.9989  0.5673 -1.1233
 1913TIP3    H2 5746   5.278   2.825   3.768 -3.2748  0.5608 -1.4173
 1914TIP3   OH2 5747   0.517   5.422   5.151  0.2261 -0.0455  0.1361
 1914TIP3    H1 5748   0.443   5.362   5.151 -0.3315  0.5971  1.4436
 1914TIP3    H2 5749   0.594   5.366   5.152 -0.2726 -0.7340  0.4091
 1915TIP3   OH2 5750   1.999   0.745   3.360  0.1529 -0.0096  0.2281
 1915TIP3    H1 5751   2.058   0.722   3.432 -0.5795 -0.4806  0.6977
 1915TIP3    H2 5752   2.048   0.808   3.307  0.2911  1.2988  1.8155
 1916TIP3   OH2 5753   2.778   3.246   2.253 -0.2384 -0.3090 -0.2064
 1916TIP3    H1 5754   2.788   3.282   2.342  0.1140  0.1707 -0.4369
 1916TIP3    H2 5755   2.771   3.323   2.197  0.3566 -0.5996 -0.6902
 1917TIP3   OH2 5756   2.079   4.008   0.114 -0.2238  0.3307 -0.3985
 1917TIP3    H1 5757   2.024   4.021   0.037 -1.3702  1.4024  0.5535
 1917TIP3    H2 5758   2.138   4.084   0.115 -0.8008  0.7842  0.2322
 1918TIP3   OH2 5759   0.161   3.767   3.556  0.1478  0.5362  0.7777
 1918TIP3    H1 5760   0.188   3.757   3.464 -0.5698 -2.1642  0.7610
 1918TIP3    H2 5761   0.161   3.861   3.571 -0.3069  1.1234 -2.1814
 1919TIP3   OH2 5762   0.058   1.310   0.899 -0.2814 -0.3726 -0.0728
 1919TIP3    H1 5763   0.041   1.291   0.991 -0.1845 -0.8481 -0.1502
 1919TIP3    H2 5764   0.115   1.387   0.900  0.1685 -0.7074  0.2832
 1920TIP3   OH2 5765   5.840   0.053   1.786  0.0285  0.0480 -0.5937
 1920TIP3    H1 5766   5.773   0.016   1.730  0.0530  2.0208 -2.0566
 1920TIP3    H2 5767   5.909   0.082   1.726  0.5074  1.3741  0.5241
 1921TIP3   OH2 5768   4.144   0.488   4.329 -0.2649 -0.3508 -0.0936
 1921TIP3    H1 5769   4.173   0.561   4.274 -0.3954  0.4213  0.8552
 1921TIP3    H2 5770   4.061   0.460   4.290  0.3948 -0.8298 -1.2097
 1922TIP3   OH2 5771   1.929   1.141   1.277 -0.4848  0.0143  0.0273
 1922TIP3    H1 5772   1.960   1.160   1.366  1.0106 -1.0533 -0.2480
 1922TIP3    H2 5773   1.838   1.113   1.290 -0.6483  0.9237  1.0842
 1923TIP3   OH2 5774   4.862   1.897   2.836 -0.3806  0.1151 -0.0529
 1923TIP3    H1 5775   4.816   1.919   2.755  1.1934  1.2269 -0.6963
 1923TIP3    H2 5776   4.849   1.973   2.892  2.3095  1.4306 -1.0364
 1924TIP3   OH2 5777   2.723   4.509   1.681 -0.2662 -0.2515  0.0906
 1924TIP3    H1 5778   2.734   4.475   1.770 -1.7998  0.1791  0.4705
 1924TIP3    H2 5779   2.662   4.582   1.690 -1.4765 -0.9993 -1.4642
 1925TIP3   OH2 5780   0.316   2.876   0.935 -0.3707 -0.4532  0.0929
 1925TIP3    H1 5781   0.375   2.804   0.912 -0.9235 -0.7123 -0.5458
 1925TIP3    H2 5782   0.366   2.955   0.917 -0.5878 -0.6522 -1.5140
 1926TIP3   OH2 5783   2.128   0.769   3.607 -0.3772 -0.1846 -0.2262
 1926TIP3    H1 5784   2.103   0.853   3.645  2.3012  1.1699 -1.1828
 1926TIP3    H2 5785   2.170   0.722   3.678  0.6980  0.5361 -0.3555
 1927TIP3   OH2 5786   2.863   0.047   4.154 -0.7559 -0.4009  0.4222
 1927TIP3    H1 5787   2.939   0.006   4.194  0.9240  1.6506 -0.4439
 1927TIP3    H2 5788   2.871   0.028   4.061 -0.4193  1.0426  0.1210
 1928TIP3   OH2 5789   1.079   3.190   1.622 -0.3683  0.0708 -0.5134
 1928TIP3    H1 5790   1.037   3.135   1.689 -0.6459  0.4271 -0.3880
 1928TIP3    H2 5791   1.118   3.262   1.672  1.8353 -1.0966 -0.4516
 1929TIP3   OH2 5792   5.735   2.102   4.390  0.6361  0.0219 -0.2957
 1929TIP3    H1 5793   5.688   2.036   4.440  1.4200 -0.2053  0.1559
 1929TIP3    H2 5794   5.820   2.062   4.370  1.2808  1.0151  0.3144
 1930TIP3   OH2 5795   6.032   1.538   3.813 -0.7115 -0.5723 -0.1962
 1930TIP3    H1 5796   6.066   1.552   3.901 -0.7689 -2.2058  0.1144
 1930TIP3    H2 5797   5.938   1.523   3.826 -0.8877  0.1136 -0.6425
 1931TIP3   OH2 5798   3.756   4.479   0.358 -0.0871  1.1677  0.3813
 1931TIP3    H1 5799   3.677   4.508   0.403 -2.4153  1.3883 -3.4178
 1931TIP3    H2 5800   3.796   4.559   0.324  0.2063  0.8666  0.0003
 1932TIP3   OH2 5801   1.447   2.769   3.717  0.4629 -0.5022  0.6914
 1932TIP3    H1 5802   1.367   2.815   3.741  1.0221 -0.6448  3.1908
 1932TIP3    H2 5803   1.438   2.683   3.757  0.9200 -1.3614 -0.9585
 1933TIP3   OH2 5804   3.148   3.476   1.029  0.7972  0.8199 -0.1177
 1933TIP3    H1 5805   3.127   3.551   1.086  0.1408  0.1910  0.4833
 1933TIP3    H2 5806   3.233   3.446   1.061 -0.3522 -0.6347  1.7660
 1934TIP3   OH2 5807   1.291   3.823   3.385 -0.7691 -0.1191  0.0097
 1934TIP3    H1 5808   1.375   3.867   3.386 -1.8937  2.1800 -0.0547
 1934TIP3    H2 5809   1.306   3.740   3.430  1.5014  0.2183 -0.0431
 1935TIP3   OH2 5810   3.955   5.431   3.880 -0.1474  0.0758 -0.2705
 1935TIP3    H1 5811   4.046   5.440   3.909 -0.0285 -0.6288 -0.3870
 1935TIP3    H2 5812   3.931   5.517   3.845  0.4908  0.2515 -0.2826
 1936TIP3   OH2 5813   5.332   3.653   4.784 -0.6941  0.4214  0.3655
 1936TIP3    H1 5814   5.379   3.570   4.799 -0.4968  0.1909 -1.3544
 1936TIP3    H2 5815   5.388   3.719   4.826  0.1189 -0.0965  0.1347
 1937TIP3   OH2 5816   4.035   4.358   2.185 -0.7326 -0.2671  0.3669
 1937TIP3    H1 5817   4.038   4.272   2.226 -0.7136 -0.0438  0.8354
 1937TIP3    H2 5818   3.952   4.358   2.137  0.4358 -1.5192 -1.8246
 1938TIP3   OH2 5819   1.782   3.117   1.726  0.3040 -0.4859  0.2148
 1938TIP3    H1 5820   1.722   3.190   1.742  0.1073 -0.3805 -0.8954
 1938TIP3    H2 5821   1.853   3.130   1.789  0.1196  0.4979  0.2427
 1939TIP3   OH2 5822   1.398   1.178   5.183  0.4971 -0.1321  0.2359
 1939TIP3    H1 5823   1.346   1.106   5.220 -1.6039  1.4108  0.4678
 1939TIP3    H2 5824   1.429   1.144   5.100  0.6478 -1.7423  0.9017
 1940TIP3   OH2 5825   0.688   4.014   2.229  0.3165 -0.4365 -0.1526
 1940TIP3    H1 5826   0.750   3.964   2.282 -1.1771 -1.6664  0.5387
 1940TIP3    H2 5827   0.647   3.948   2.172 -1.0541  0.1332  0.1238
 1941TIP3   OH2 5828   3.119   5.161   4.205 -0.0139  0.4144 -0.6557
 1941TIP3    H1 5829   3.062   5.224   4.162  0.1391  2.0856  1.3996
 1941TIP3    H2 5830   3.207   5.193   4.188  0.1192  0.2047 -0.3732
 1942TIP3   OH2 5831   4.735   3.917   4.262  0.2661  0.3829  0.2589
 1942TIP3    H1 5832   4.813   3.972   4.271 -0.2432  1.3164 -0.8994
 1942TIP3    H2 5833   4.688   3.953   4.188 -1.6303  0.2497  1.3379
 1943TIP3   OH2 5834   5.188   1.846   0.876 -0.2460  0.3362  0.5031
 1943TIP3    H1 5835   5.138   1.913   0.829 -2.1514 -0.7238  0.9194
 1943TIP3    H2 5836   5.255   1.819   0.814 -0.3606  1.5873 -0.2108
 1944TIP3   OH2 5837   4.799   0.643   2.791 -0.6768  0.3435 -0.4800
 1944TIP3    H1 5838   4.706   0.659   2.802 -0.9653 -1.3817 -0.1009
 1944TIP3    H2 5839   4.815   0.559   2.835  1.0663  0.6412 -0.4560
 1945TIP3   OH2 5840   3.214   1.994   0.696  0.3018  0.3751  0.4333
 1945TIP3    H1 5841   3.160   1.977   0.774 -0.2424  0.6233  0.1148
 1945TIP3    H2 5842   3.157   1.970   0.623  1.3016 -1.2412  0.1419
 1946TIP3   OH2 5843   1.861   2.667   0.266  0.5200 -0.0512  0.6144
 1946TIP3    H1 5844   1.871   2.683   0.172  1.6838 -0.6621  0.6091
 1946TIP3    H2 5845   1.868   2.572   0.274 -0.1120 -0.0437  1.2685
 1947TIP3   OH2 5846   3.399   3.688   4.108  0.5522 -0.0610  0.3638
 1947TIP3    H1 5847   3.339   3.677   4.034  0.1490 -0.1969  0.7040
 1947TIP3    H2 5848   3.386   3.778   4.136 -0.1700 -0.3595  1.0106
 1948TIP3   OH2 5849   5.667   2.429   2.979  0.3632 -0.3658  0.3283
 1948TIP3    H1 5850   5.624   2.473   3.052 -0.2398 -0.3394 -0.0322
 1948TIP3    H2 5851   5.728   2.494   2.944 -1.0154  0.4598 -0.6322
 1949TIP3   OH2 5852   1.173   1.855   2.084 -0.2648 -0.0059 -0.1103
 1949TIP3    H1 5853   1.226   1.800   2.026  0.9914  0.8737  0.1403
 1949TIP3    H2 5854   1.154   1.799   2.159  2.7264  0.3867  1.0975
 1950TIP3   OH2 5855   4.271   5.428   4.481 -0.5267 -0.3392  0.1374
 1950TIP3    H1 5856   4.343   5.483   4.449 -2.0372  0.6469 -1.7810
 1950TIP3    H2 5857   4.305   5.389   4.562  2.9242 -1.5735 -1.6896
 1951TIP3   OH2 5858   2.331   3.907   2.007 -0.2243 -0.0500  0.0016
 1951TIP3    H1 5859   2.309   3.815   1.993 -0.3024 -0.0935  0.3966
 1951TIP3    H2 5860   2.426   3.911   1.994 -0.3103 -0.0630 -0.6534
 1952TIP3   OH2 5861   2.027   3.294   4.030 -0.6607 -0.3018 -0.1897
 1952TIP3    H1 5862   1.980   3.216   4.060 -0.6204 -0.2009  0.1310
 1952TIP3    H2 5863   2.047   3.343   4.109 -0.1816 -0.2444 -0.3428
 1953TIP3   OH2 5864   6.079   0.653   2.269  0.0768  0.0213 -0.6884
 1953TIP3    H1 5865   6.114   0.679   2.355  2.1665  0.3829 -1.5755
 1953TIP3    H2 5866   6.017   0.722   2.247  0.1672  0.3876  0.1606
 1954TIP3   OH2 5867   5.992   4.191   1.490  0.3397 -0.5287 -0.1413
 1954TIP3    H1 5868   5.985   4.107   1.536  0.8911 -1.0840 -1.0323
 1954TIP3    H2 5869   6.086   4.202   1.475  0.2674  0.2451 -0.0532
 1955TIP3   OH2 5870   1.389   3.739   1.750 -0.2017  0.5064  0.8432
 1955TIP3    H1 5871   1.310   3.743   1.697  1.6238  2.0926 -2.0382
 1955TIP3    H2 5872   1.439   3.666   1.713  1.8127  2.6141 -0.9071
 1956TIP3   OH2 5873   2.444   5.015   4.325 -0.0516  0.2252 -0.0118
 1956TIP3    H1 5874   2.398   5.080   4.377  0.9836 -0.4615  1.8814
 1956TIP3    H2 5875   2.536   5.042   4.329 -0.0660  1.0073 -2.8490
 1957TIP3   OH2 5876   5.786   0.240   1.343  0.3605 -0.7320 -0.0746
 1957TIP3    H1 5877   5.726   0.298   1.390  0.2382  0.5738 -1.7361
 1957TIP3    H2 5878   5.761   0.152   1.370  0.2838 -0.0631  2.2242
 1958TIP3   OH2 5879   4.079   0.006   3.964 -0.0128 -0.5373  0.3020
 1958TIP3    H1 5880   4.091   0.101   3.959  0.6737 -0.6663 -2.3672
 1958TIP3    H2 5881   4.157  -0.025   4.010  1.6304  0.0219 -1.8686
 1959TIP3   OH2 5882   2.511   1.470   4.209 -0.5184  0.1994 -0.1807
 1959TIP3    H1 5883   2.440   1.483   4.271 -0.9466 -0.9007 -0.4253
 1959TIP3    H2 5884   2.589   1.503   4.254 -0.8490 -0.4308  0.8744
 1960TIP3   OH2 5885   0.827   2.043   3.245 -0.4511  0.2739  0.0937
 1960TIP3    H1 5886   0.758   2.040   3.312 -0.3743 -0.0873  0.1589
 1960TIP3    H2 5887   0.908   2.030   3.294 -0.3876  0.0907 -0.0594
 1961TIP3   OH2 5888   4.077   4.310   0.349 -0.7042 -0.3501 -0.1200
 1961TIP3    H1 5889   4.162   4.283   0.314 -1.6350 -1.2761 -1.7764
 1961TIP3    H2 5890   4.096   4.342   0.437  1.1400 -1.9606  0.1195
 1962TIP3   OH2 5891   5.328   1.090   0.137  1.0185 -0.4399  0.3479
 1962TIP3    H1 5892   5.376   1.009   0.122  2.2302  0.2850  0.2100
 1962TIP3    H2 5893   5.275   1.072   0.215  1.6931 -1.1843  0.6437
 1963TIP3   OH2 5894   4.626   4.491   0.777 -0.0100 -1.0974  0.3379
 1963TIP3    H1 5895   4.616   4.428   0.848 -1.4036  0.6219  1.7618
 1963TIP3    H2 5896   4.537   4.519   0.756  0.4981 -0.3680 -0.9901
 1964TIP3   OH2 5897   2.924   5.013   4.309  0.4584 -0.3117  0.3233
 1964TIP3    H1 5898   2.908   4.940   4.248  1.4721 -0.6918  0.4981
 1964TIP3    H2 5899   2.991   5.066   4.266 -1.9488  1.9262 -0.9556
 1965TIP3   OH2 5900   3.007   3.829   3.332  0.0650 -0.0891 -0.0143
 1965TIP3    H1 5901   3.101   3.844   3.321 -0.2793  2.3655 -0.0385
 1965TIP3    H2 5902   2.995   3.822   3.426  0.0053  1.8971  0.1545
 1966TIP3   OH2 5903   0.974   3.077   3.688 -0.4286  0.3197 -1.1039
 1966TIP3    H1 5904   0.930   3.161   3.701 -0.3015  0.0394  1.7621
 1966TIP3    H2 5905   1.003   3.079   3.597 -2.1120  2.5406 -1.6744
 1967TIP3   OH2 5906   1.703   1.322   2.431 -0.1612  0.5490  0.2450
 1967TIP3    H1 5907   1.697   1.241   2.481 -1.0206  1.5469  1.8322
 1967TIP3    H2 5908   1.614   1.356   2.427  0.3669  2.0840  0.7711
 1968TIP3   OH2 5909   4.930   5.523   1.083 -0.2948 -0.0820 -0.2052
 1968TIP3    H1 5910   4.946   5.530   1.177  0.3174  0.9445 -0.3751
 1968TIP3    H2 5911   4.834   5.527   1.075 -0.3110  0.6808  0.3124
 1969TIP3   OH2 5912   2.192   4.140   2.461  0.1373  0.6219 -0.0217
 1969TIP3    H1 5913   2.115   4.147   2.405  0.0902  2.1884  0.1968
 1969TIP3    H2 5914   2.249   4.212   2.434  1.2202 -0.0755  0.3060
 1970TIP3   OH2 5915   0.209   3.652   2.329  0.0870  0.1434  0.4198
 1970TIP3    H1 5916   0.198   3.673   2.236 -1.2761 -0.1860  0.4841
 1970TIP3    H2 5917   0.279   3.587   2.331  0.6726  0.7389 -0.2922
 1971TIP3   OH2 5918   4.061   2.527   0.273  0.6665 -0.4085 -0.1616
 1971TIP3    H1 5919   4.033   2.612   0.305 -0.5386  0.1712 -2.5324
 1971TIP3    H2 5920   4.153   2.539   0.250  0.6398  0.0917 -0.0153
 1972TIP3   OH2 5921   0.183   3.543   1.863  0.0194  0.0762 -0.0841
 1972TIP3    H1 5922   0.103   3.491   1.868 -0.4998  0.9472  1.5697
 1972TIP3    H2 5923   0.249   3.492   1.911  0.4113 -0.4985 -1.1875
 1973TIP3   OH2 5924   4.750   2.827   1.784  0.2985 -0.2304 -0.1849
 1973TIP3    H1 5925   4.695   2.890   1.830 -1.0157 -2.1207  0.9585
 1973TIP3    H2 5926   4.689   2.777   1.729  1.0544 -1.4351  0.0255
 1974TIP3   OH2 5927   5.056   4.498   4.243  0.3456  0.0762 -0.1728
 1974TIP3    H1 5928   5.148   4.527   4.250  0.6273 -1.0812  1.6029
 1974TIP3    H2 5929   5.062   4.406   4.217 -0.4110  0.5307 -2.0537
 1975TIP3   OH2 5930   4.966   3.794   3.156  0.0683 -0.3258  0.5231
 1975TIP3    H1 5931   4.904   3.787   3.229  0.9576 -1.0644  1.2352
 1975TIP3    H2 5932   4.999   3.705   3.145  0.1197 -0.1749 -0.6450
 1976TIP3   OH2 5933   1.284   5.667   0.143  0.2706 -0.3129 -0.0298
 1976TIP3    H1 5934   1.197   5.629   0.138  0.5687 -1.3928  2.0505
 1976TIP3    H2 5935   1.343   5.595   0.122  0.7251 -0.1832  0.7500
 1977TIP3   OH2 5936   3.992   3.743   4.661 -0.6371  0.5480 -0.2757
 1977TIP3    H1 5937   3.943   3.677   4.611 -0.5902 -1.5017  2.1610
 1977TIP3    H2 5938   3.924   3.795   4.704 -0.7439 -0.2741  0.6042
 1978TIP3   OH2 5939   4.893   4.367   4.710  0.2984 -0.2752 -0.0812
 1978TIP3    H1 5940   4.848   4.451   4.715 -0.0233 -0.4622  0.1849
 1978TIP3    H2 5941   4.984   4.387   4.732  0.2377  0.0159 -0.0968
 1979TIP3   OH2 5942   5.663   0.689   4.067  0.4693 -0.0257  0.0782
 1979TIP3    H1 5943   5.654   0.641   3.985 -1.7215  0.6798 -0.1680
 1979TIP3    H2 5944   5.707   0.628   4.126  1.3415 -0.8453 -1.3729
 1980TIP3   OH2 5945   4.759   3.556   1.838 -0.4989 -0.1517  0.4922
 1980TIP3    H1 5946   4.755   3.520   1.926 -0.9326  1.3881  1.1320
 1980TIP3    H2 5947   4.785   3.647   1.850 -0.4059  0.0397 -0.9810
 1981TIP3   OH2 5948   5.778   2.405   4.020 -0.4132 -0.1984 -0.2421
 1981TIP3    H1 5949   5.831   2.483   4.030 -1.1351  0.2193  0.4783
 1981TIP3    H2 5950   5.827   2.336   4.064  0.8821 -0.5052 -2.0360
 1982TIP3   OH2 5951   0.072   1.476   0.446  0.1922 -0.0712  0.1737
 1982TIP3    H1 5952  -0.022   1.457   0.441  0.1704  0.3177 -1.7866
 1982TIP3    H2 5953   0.081   1.533   0.522 -1.1953  0.0254  0.2871
 1983TIP3   OH2 5954   4.997   0.264   3.448 -0.4435 -0.2890 -0.3005
 1983TIP3    H1 5955   4.989   0.262   3.543 -1.8691 -1.1688 -0.4069
 1983TIP3    H2 5956   4.910   0.289   3.417 -0.4336 -1.4598 -1.3925
 1984TIP3   OH2 5957   4.585   4.001   0.229  0.4874 -0.0524  0.6366
 1984TIP3    H1 5958   4.571   3.968   0.140  1.6804  0.1385  0.3598
 1984TIP3    H2 5959   4.499   4.032   0.257 -0.3072 -1.8047  0.2562
 1985TIP3   OH2 5960   2.285   2.371   1.042  0.2647  0.0910 -0.2508
 1985TIP3    H1 5961   2.201   2.409   1.068  1.8818  2.6830  1.7003
 1985TIP3    H2 5962   2.301   2.302   1.105 -0.9977 -1.4639 -1.5457
 1986TIP3   OH2 5963   2.058   0.231   3.082  0.3833  0.1684 -0.3549
 1986TIP3    H1 5964   2.151   0.221   3.102 -0.0906 -0.1595  1.9757
 1986TIP3    H2 5965   2.044   0.326   3.080  0.7633  0.2195 -0.7393
 1987TIP3   OH2 5966   1.241   2.119   2.125  0.6093  0.1314 -0.0213
 1987TIP3    H1 5967   1.226   2.026   2.110  1.1801  0.2762 -1.6828
 1987TIP3    H2 5968   1.319   2.121   2.180 -1.6486 -0.4236  3.5317
 1988TIP3   OH2 5969   2.017   0.575   2.757  0.0901 -0.5573  0.1702
 1988TIP3    H1 5970   2.088   0.556   2.697 -1.1471 -0.5772 -1.3653
 1988TIP3    H2 5971   2.005   0.494   2.807  1.5130 -0.3482  0.9055
 1989TIP3   OH2 5972   1.522   0.390   3.107 -0.0557  0.0035  0.0440
 1989TIP3    H1 5973   1.493   0.469   3.060 -0.9536 -0.2871  0.0887
 1989TIP3    H2 5974   1.550   0.330   3.038  0.9369  0.4701  0.0271
 1990TIP3   OH2 5975   5.235   0.087   0.484  0.1557  0.6633 -0.4810
 1990TIP3    H1 5976   5.200   0.166   0.442  0.5280  1.7339  1.1673
 1990TIP3    H2 5977   5.183   0.078   0.564 -0.0220 -0.9003 -0.7503
 1991TIP3   OH2 5978   2.561   0.148   3.974 -0.2581 -0.3145  0.1794
 1991TIP3    H1 5979   2.498   0.126   3.906  0.2819 -0.3933 -0.2977
 1991TIP3    H2 5980   2.568   0.068   4.027 -2.1967  0.3514  1.5801
 1992TIP3   OH2 5981   4.398   2.668   3.488  0.2919 -0.0737 -0.1841
 1992TIP3    H1 5982   4.314   2.656   3.533 -0.0884 -1.0736 -1.1185
 1992TIP3    H2 5983   4.451   2.719   3.549 -0.1322 -1.5714  1.5078
 1993TIP3   OH2 5984   4.290   2.796   0.493  0.6131  0.3132 -0.5515
 1993TIP3    H1 5985   4.217   2.850   0.463  0.6948  0.6229 -0.2097
 1993TIP3    H2 5986   4.255   2.707   0.496 -0.4448  0.7116  1.6758
 1994TIP3   OH2 5987   2.882   1.833   1.100  0.7025 -0.4441  0.2798
 1994TIP3    H1 5988   2.944   1.868   1.164 -0.1774 -1.2840  1.6320
 1994TIP3    H2 5989   2.813   1.900   1.096 -0.5123 -1.4954  2.1683
 1995TIP3   OH2 5990   2.958   4.589   1.567  0.4314  0.0482 -0.3180
 1995TIP3    H1 5991   2.869   4.561   1.586 -0.1059  2.3184  0.8371
 1995TIP3    H2 5992   2.948   4.658   1.501  1.1986  1.0449  0.5729
 1996TIP3   OH2 5993   0.133   1.644   2.706  0.2784  0.1612 -0.2733
 1996TIP3    H1 5994   0.181   1.726   2.708 -1.6244  1.3998 -1.7467
 1996TIP3    H2 5995   0.139   1.613   2.616 -0.7722 -0.1849 -0.2473
 1997TIP3   OH2 5996   4.930   0.127   4.511  0.3909  0.1847 -0.2615
 1997TIP3    H1 5997   4.925   0.032   4.523  1.0028 -0.0253 -1.4746
 1997TIP3    H2 5998   4.846   0.160   4.541 -0.5158 -0.9470 -1.4466
 1998TIP3   OH2 5999   1.145   3.118   0.539  0.3459 -0.0106 -0.5826
 1998TIP3    H1 6000   1.179   3.096   0.453 -2.4571 -1.3445 -1.4760
 1998TIP3    H2 6001   1.082   3.188   0.523  0.1054  0.0310  0.4549
 1999TIP3   OH2 6002   0.241   3.785   4.309 -0.1758  0.7151 -0.5919
 1999TIP3    H1 6003   0.186   3.707   4.306  0.8854 -0.1260  0.5968
 1999TIP3    H2 6004   0.264   3.794   4.402  2.3787  0.4894 -1.1281
 2000TIP3   OH2 6005   3.955   1.304   1.261 -0.3210  0.3360  0.1339
 2000TIP3    H1 6006   4.019   1.371   1.287 -0.5005  0.7396 -0.4490
 2000TIP3    H2 6007   3.982   1.226   1.309  0.7804  0.4243 -0.3117
 2001TIP3   OH2 6008   1.881   0.546   1.888 -0.8322 -0.1559  0.2809
 2001TIP3    H1 6009   1.966   0.519   1.853 -1.8784 -2.1691 -0.9517
 2001TIP3    H2 6010   1.883   0.521   1.980  0.4590  1.3178  0.6809
 2002TIP3   OH2 6011   6.112   5.207   2.740  0.1951 -0.0039 -0.9353
 2002TIP3    H1 6012   6.159   5.284   2.772  1.4625 -0.8803 -0.6320
 2002TIP3    H2 6013   6.058   5.240   2.668  0.3360  1.2525 -0.4818
 2003TIP3   OH2 6014   2.000   3.794   0.884  0.2987  0.2574  0.1787
 2003TIP3    H1 6015   2.079   3.740   0.879  0.3426  0.1970  1.3097
 2003TIP3    H2 6016   1.930   3.739   0.848  0.2673 -0.7249  1.6884
 2004TIP3   OH2 6017   5.714   0.210   2.626 -0.2209 -0.4193 -0.1434
 2004TIP3    H1 6018   5.769   0.259   2.565 -0.5184  1.4686  1.0231
 2004TIP3    H2 6019   5.627   0.249   2.616 -0.5182 -0.8483  0.6590
 2005TIP3   OH2 6020   4.599   3.602   0.112  0.3016  0.3938  0.1101
 2005TIP3    H1 6021   4.691   3.628   0.108  0.0407  1.3021 -0.2803
 2005TIP3    H2 6022   4.554   3.663   0.053 -0.4634 -0.4516 -0.2102
 2006TIP3   OH2 6023   1.931   4.857   0.090 -0.2844 -0.2151 -0.5955
 2006TIP3    H1 6024   1.960   4.846   0.180  1.8881  0.5367 -1.1514
 2006TIP3    H2 6025   2.007   4.892   0.044 -1.3216 -0.6124 -2.7431
 2007TIP3   OH2 6026   0.074   4.695   3.794  1.2926 -0.5614 -0.0732
 2007TIP3    H1 6027   0.126   4.775   3.796  0.8011 -0.2421  0.7562
 2007TIP3    H2 6028   0.057   4.680   3.701  0.1294  1.1574 -0.1914
 2008TIP3   OH2 6029   0.748   2.550   3.406 -0.0106  0.0448  0.5945
 2008TIP3    H1 6030   0.801   2.622   3.372 -0.7185  0.1700 -0.2809
 2008TIP3    H2 6031   0.667   2.591   3.435  0.0742 -0.2413  1.2777
 2009TIP3   OH2 6032   1.804   0.687   3.684 -0.1323 -0.3125 -0.1708
 2009TIP3    H1 6033   1.842   0.612   3.638 -0.2894  0.2807 -1.3033
 2009TIP3    H2 6034   1.854   0.694   3.765  0.5653 -1.0131 -0.5336
 2010TIP3   OH2 6035   3.031   5.541   1.902 -0.5457  0.1007 -0.1352
 2010TIP3    H1 6036   3.009   5.589   1.982  0.1272 -1.2322  0.9018
 2010TIP3    H2 6037   3.126   5.546   1.897 -0.6323  0.8631 -1.3316
 2011TIP3   OH2 6038   5.532   5.024   4.570  0.3864  0.8094  0.7739
 2011TIP3    H1 6039   5.481   5.081   4.628 -1.7905 -2.3649  2.2757
 2011TIP3    H2 6040   5.593   4.978   4.627 -0.2224 -0.7494  0.2267
 2012TIP3   OH2 6041   1.645   2.977   0.557 -0.5465 -0.1513  0.2720
 2012TIP3    H1 6042   1.632   2.903   0.616  0.5906  0.1947  0.9738
 2012TIP3    H2 6043   1.593   3.048   0.596 -1.3631 -0.4624 -0.2184
 2013TIP3   OH2 6044   4.120   0.889   1.607  0.1529 -0.3478 -0.4231
 2013TIP3    H1 6045   4.173   0.864   1.682  0.1676 -1.1630 -0.7043
 2013TIP3    H2 6046   4.032   0.859   1.629  0.3260 -1.3810 -1.1093
 2014TIP3   OH2 6047   2.953   5.991   0.678  0.7758  0.7047  0.0716
 2014TIP3    H1 6048   2.878   5.979   0.735  0.3809  1.5767 -0.2478
 2014TIP3    H2 6049   3.029   5.981   0.736  0.4129  0.1477  0.4581
 2015TIP3   OH2 6050   4.961   2.947   3.855  0.4474 -0.4477 -0.0369
 2015TIP3    H1 6051   4.930   2.869   3.808  0.4417 -1.1042  1.0145
 2015TIP3    H2 6052   5.055   2.934   3.864  0.5319 -0.0560 -0.3510
 2016TIP3   OH2 6053   1.117   2.848   4.039  0.5411  0.6109 -0.5500
 2016TIP3    H1 6054   1.209   2.861   4.061  1.1682 -1.8366 -1.3630
 2016TIP3    H2 6055   1.111   2.756   4.014 -2.4324  0.2893  0.8510
 2017TIP3   OH2 6056   5.621   3.267   0.232 -0.1872  0.2317 -0.0834
 2017TIP3    H1 6057   5.686   3.256   0.302  0.2838 -0.2573 -0.5783
 2017TIP3    H2 6058   5.548   3.313   0.273 -0.2333 -0.6903  0.9218
 2018TIP3   OH2 6059   6.138   3.200   5.138 -0.0023  0.2261  0.3883
 2018TIP3    H1 6060   6.233   3.189   5.134  0.0303  0.1183  1.3052
 2018TIP3    H2 6061   6.103   3.112   5.125 -0.0376  0.4576 -1.3106
 2019TIP3   OH2 6062   1.480   1.299   3.921  0.4451  1.1904  0.0771
 2019TIP3    H1 6063   1.419   1.229   3.941  0.5946  0.5043 -1.6766
 2019TIP3    H2 6064   1.553   1.256   3.878  1.0437  2.3033 -0.0778
 2020TIP3   OH2 6065   0.432   1.374   1.740  0.0781 -0.1980  0.1618
 2020TIP3    H1 6066   0.493   1.306   1.711 -0.1265 -0.5016  0.4372
 2020TIP3    H2 6067   0.459   1.395   1.829  0.3789  0.3596 -0.0559
 2021TIP3   OH2 6068   3.693   1.481   1.657  0.0331 -0.4854 -0.1892
 2021TIP3    H1 6069   3.606   1.517   1.642 -0.0781 -1.1504 -1.2459
 2021TIP3    H2 6070   3.737   1.546   1.712  0.0830  1.6102 -2.5409
 2022TIP3   OH2 6071   2.143   4.298   0.997 -0.1200  0.0348 -0.8475
 2022TIP3    H1 6072   2.227   4.285   1.040 -1.3705 -0.3473  1.6407
 2022TIP3    H2 6073   2.126   4.215   0.952 -0.3317 -0.8985  0.8658
 2023TIP3   OH2 6074   5.561   1.596   0.582 -0.2868 -0.1405 -0.4647
 2023TIP3    H1 6075   5.496   1.595   0.511  0.0303 -0.9376 -0.7588
 2023TIP3    H2 6076   5.645   1.605   0.537 -0.1465  0.2457 -0.1289
 2024TIP3   OH2 6077   4.101   1.177   4.501  0.2806 -0.3672 -0.4027
 2024TIP3    H1 6078   4.061   1.098   4.535 -4.0799  2.0444  0.8954
 2024TIP3    H2 6079   4.082   1.175   4.407  2.5525 -1.9407 -0.8980
 2025TIP3   OH2 6080   0.176   4.893   0.289  0.4388  0.1350  0.1966
 2025TIP3    H1 6081   0.169   4.984   0.261  0.3697  0.2887  0.7192
 2025TIP3    H2 6082   0.119   4.846   0.228 -0.9076  0.6683  1.0091
 2026TIP3   OH2 6083   3.019   3.699   0.203 -0.4170 -0.3836 -0.6442
 2026TIP3    H1 6084   3.006   3.696   0.108 -2.0682 -1.5644 -0.4184
 2026TIP3    H2 6085   3.083   3.630   0.221 -1.3300 -1.2754 -0.7468
 2027TIP3   OH2 6086   5.263   5.956   1.139  0.0953 -0.0060 -0.4454
 2027TIP3    H1 6087   5.351   5.985   1.115  0.4362 -0.9960 -0.4576
 2027TIP3    H2 6088   5.264   5.862   1.122 -0.7590 -0.1396  0.1859
 2028TIP3   OH2 6089   4.567   0.372   3.812 -0.3123 -0.0068  0.2512
 2028TIP3    H1 6090   4.634   0.395   3.748 -2.4116  1.9299 -1.3988
 2028TIP3    H2 6091   4.523   0.295   3.774 -1.5414  1.1269 -0.7128
 2029TIP3   OH2 6092   1.160   2.802   1.710 -0.0998 -0.3874 -0.2323
 2029TIP3    H1 6093   1.107   2.809   1.630 -0.6934  0.0052  0.1873
 2029TIP3    H2 6094   1.250   2.804   1.679 -0.3199  0.1589 -0.8723
 2030TIP3   OH2 6095   5.443   4.624   4.784 -0.5166 -0.3814  0.6021
 2030TIP3    H1 6096   5.382   4.698   4.790  0.5211  0.7681 -1.5887
 2030TIP3    H2 6097   5.529   4.662   4.803  0.0225 -0.9958 -0.5135
 2031TIP3   OH2 6098   3.910   4.962   4.594  0.3075 -0.2829 -0.3613
 2031TIP3    H1 6099   3.874   4.876   4.613  0.1535 -0.0366  0.5094
 2031TIP3    H2 6100   3.876   5.019   4.663  0.1796  0.5416 -1.0848
 2032TIP3   OH2 6101   5.800   1.687   2.098  0.3635  0.0949  0.4478
 2032TIP3    H1 6102   5.721   1.739   2.083  0.0905 -0.6731 -0.9232
 2032TIP3    H2 6103   5.778   1.633   2.174 -0.3195  0.1035  0.2680
 2033TIP3   OH2 6104   0.519   3.610   2.816  0.0004  0.5147  0.1095
 2033TIP3    H1 6105   0.579   3.684   2.819 -0.4179  1.0026 -2.0110
 2033TIP3    H2 6106   0.433   3.649   2.804 -0.3220 -0.2790 -0.2292
 2034TIP3   OH2 6107   1.733   1.242   2.000 -0.3273 -0.0729 -0.0556
 2034TIP3    H1 6108   1.809   1.265   2.054 -1.0715 -0.8490  1.3861
 2034TIP3    H2 6109   1.696   1.326   1.974 -0.4402  0.3406  1.3823
 2035TIP3   OH2 6110   0.630   3.749   0.111  0.0670 -0.1836  0.2061
 2035TIP3    H1 6111   0.569   3.740   0.185  0.3231  0.2130  0.4668
 2035TIP3    H2 6112   0.699   3.806   0.144  1.6951 -2.2823  0.6404
 2036TIP3   OH2 6113   4.424   2.365   2.012 -0.1017  0.0620  0.5298
 2036TIP3    H1 6114   4.453   2.441   2.062 -0.4302  0.5744 -0.0439
 2036TIP3    H2 6115   4.484   2.361   1.937  0.8667 -1.1481  1.3201
 2037TIP3   OH2 6116   5.407   2.610   0.287 -0.1821  0.0357 -1.1377
 2037TIP3    H1 6117   5.409   2.540   0.222  1.2992 -0.4877 -0.5728
 2037TIP3    H2 6118   5.319   2.607   0.324 -1.4237  0.9834 -3.7573
 2038TIP3   OH2 6119   5.348   1.249   4.103 -0.8838  0.1018 -0.2653
 2038TIP3    H1 6120   5.369   1.162   4.139 -1.9131  0.2034  0.6288
 2038TIP3    H2 6121   5.278   1.233   4.040  0.1365  0.0781 -1.4356
 2039TIP3   OH2 6122   5.544   0.180   2.268 -0.2208  0.4432  0.1034
 2039TIP3    H1 6123   5.570   0.123   2.341  0.3139 -0.3313 -0.6689
 2039TIP3    H2 6124   5.627   0.216   2.235 -0.2849 -0.4327 -1.0854
 2040TIP3   OH2 6125   1.129   2.409   2.232 -0.3581 -0.0116  0.2187
 2040TIP3    H1 6126   1.159   2.372   2.316  1.2393  0.6815 -0.0120
 2040TIP3    H2 6127   1.051   2.460   2.254  0.9719  1.5238  1.6063
 2041TIP3   OH2 6128   1.193   2.696   3.361  0.0010  0.0275 -0.6726
 2041TIP3    H1 6129   1.269   2.700   3.302 -1.6103 -1.7326 -3.0598
 2041TIP3    H2 6130   1.220   2.638   3.431  0.7335 -1.0130 -1.7758
 2042TIP3   OH2 6131   3.434   2.105   3.557 -0.2560  0.2176  0.1606
 2042TIP3    H1 6132   3.432   2.090   3.651 -1.1340 -0.8115 -0.0073
 2042TIP3    H2 6133   3.497   2.041   3.524  0.4134  0.8994  0.0910
 2043TIP3   OH2 6134   0.161   5.541   0.884  0.1124  0.1175  0.2927
 2043TIP3    H1 6135   0.226   5.471   0.879 -1.4480 -1.3724 -0.1115
 2043TIP3    H2 6136   0.176   5.583   0.969  1.5175 -0.2383  0.2400
 2044TIP3   OH2 6137   5.055   2.193   2.768  0.3569 -0.3668  0.6047
 2044TIP3    H1 6138   4.974   2.215   2.813 -1.1100  2.1402 -2.7616
 2044TIP3    H2 6139   5.027   2.145   2.690  1.6690  2.5851 -1.8943
 2045TIP3   OH2 6140   1.205   2.170   2.797 -0.1732  0.7154  0.0975
 2045TIP3    H1 6141   1.182   2.217   2.877 -2.1809  0.2654 -0.1606
 2045TIP3    H2 6142   1.285   2.212   2.766  0.5822  0.9705  2.2570
 2046TIP3   OH2 6143   3.247   5.823   4.977  0.3057  0.2157  0.0599
 2046TIP3    H1 6144   3.202   5.858   4.900  1.0820  0.7553 -0.1560
 2046TIP3    H2 6145   3.205   5.868   5.051  0.8688  1.1596 -0.1773
 2047TIP3   OH2 6146   1.184   2.587   2.771  0.1665 -0.0836  0.3524
 2047TIP3    H1 6147   1.115   2.652   2.753  1.3352  1.4590  1.1251
 2047TIP3    H2 6148   1.264   2.627   2.736  0.8672 -1.3041  0.5125
 2048TIP3   OH2 6149   1.187   4.228   4.125  0.3918  0.3709  0.0870
 2048TIP3    H1 6150   1.216   4.231   4.216 -0.6911  0.5071  0.4346
 2048TIP3    H2 6151   1.110   4.285   4.122 -0.9632 -1.3916 -0.3799
 2049TIP3   OH2 6152   2.042   5.666   1.012  0.0481  0.2951  0.7011
 2049TIP3    H1 6153   2.083   5.753   1.001  1.6322 -0.4069  0.7264
 2049TIP3    H2 6154   2.093   5.609   0.955  0.3102 -0.9937  2.1516
 2050TIP3   OH2 6155   4.015   4.761   2.334  0.2922  0.2294 -0.6536
 2050TIP3    H1 6156   4.074   4.827   2.371  0.5768 -0.0694 -0.5679
 2050TIP3    H2 6157   3.996   4.792   2.246  0.0889  0.6402 -0.4712
 2051TIP3   OH2 6158   1.378   5.236   4.550 -0.3176 -0.2109 -0.6370
 2051TIP3    H1 6159   1.385   5.331   4.546 -1.1984 -0.1676 -1.7905
 2051TIP3    H2 6160   1.425   5.211   4.630  1.1564  1.0562 -1.0577
 2052TIP3   OH2 6161   3.902   1.389   3.128 -0.1106  0.2449 -0.5607
 2052TIP3    H1 6162   3.895   1.316   3.190  1.4843  0.1131 -0.5075
 2052TIP3    H2 6163   3.821   1.383   3.077 -0.2905 -1.2061 -0.1791
 2053TIP3   OH2 6164   1.573   4.547   3.832  0.0680  0.8466 -0.1045
 2053TIP3    H1 6165   1.625   4.490   3.888  1.5444  1.1119 -1.1520
 2053TIP3    H2 6166   1.565   4.499   3.750  2.9790  2.7946 -1.7003
 2054TIP3   OH2 6167   1.746   5.725   2.740  0.5357  0.3434  0.7056
 2054TIP3    H1 6168   1.833   5.737   2.702 -0.6975 -1.1930 -3.1717
 2054TIP3    H2 6169   1.703   5.810   2.728  0.9853  0.6227  1.0639
 2055TIP3   OH2 6170   1.179   1.770   0.046 -0.2069  0.1680  0.1331
 2055TIP3    H1 6171   1.142   1.761   0.134 -0.6470  0.9054  0.0306
 2055TIP3    H2 6172   1.124   1.713  -0.008 -1.0434  1.0296  0.0372
 2056TIP3   OH2 6173   2.736   3.739   2.631  0.0423  0.0112  0.0235
 2056TIP3    H1 6174   2.702   3.829   2.627 -1.1925 -0.4371 -0.1275
 2056TIP3    H2 6175   2.730   3.715   2.723 -1.2986 -0.5114 -0.1860
 2057TIP3   OH2 6176   5.374   4.021   0.740  0.4697 -0.0511 -0.1323
 2057TIP3    H1 6177   5.317   3.973   0.800 -0.3387 -0.1458 -0.9708
 2057TIP3    H2 6178   5.461   3.982   0.755  0.0538 -0.9243  0.0847
 2058TIP3   OH2 6179   3.161   3.536   4.413  0.0785 -0.2724  0.6084
 2058TIP3    H1 6180   3.067   3.539   4.427  0.4443 -1.8621  4.6032
 2058TIP3    H2 6181   3.197   3.599   4.476  1.7720  0.0161 -0.5585
 2059TIP3   OH2 6182   4.030   2.252   4.088 -0.3716  0.1048  0.2741
 2059TIP3    H1 6183   3.990   2.171   4.056 -0.1329 -0.2344  0.8050
 2059TIP3    H2 6184   4.024   2.245   4.184  2.4385 -0.8009  0.5056
 2060TIP3   OH2 6185   0.843   3.465   1.190  0.0618 -0.2485  0.2357
 2060TIP3    H1 6186   0.853   3.384   1.240 -1.5067 -0.1285  0.8033
 2060TIP3    H2 6187   0.852   3.535   1.254 -0.2699 -0.0378  0.0593
 2061TIP3   OH2 6188   2.857   5.370   0.332 -0.1093  0.0047  0.2784
 2061TIP3    H1 6189   2.769   5.373   0.295  0.7198 -0.7339 -1.9174
 2061TIP3    H2 6190   2.871   5.457   0.369 -0.2617  1.6499 -3.1637
 2062TIP3   OH2 6191   4.973   3.483   4.041  0.2500  0.1902  0.2880
 2062TIP3    H1 6192   4.901   3.469   4.102  1.5615 -0.6355  1.7097
 2062TIP3    H2 6193   4.978   3.402   3.990 -2.2537  1.6571 -2.6055
 2063TIP3   OH2 6194   4.499   4.416   2.143  0.2642 -0.7873 -0.8583
 2063TIP3    H1 6195   4.431   4.427   2.077  0.3948 -1.6193 -1.1504
 2063TIP3    H2 6196   4.452   4.412   2.227  0.1597  1.0174 -0.8107
 2064TIP3   OH2 6197   4.849   0.003   0.915  0.3330 -0.6689 -0.4895
 2064TIP3    H1 6198   4.920   0.026   0.976  1.8457 -2.2814 -1.5338
 2064TIP3    H2 6199   4.778  -0.027   0.971  1.7409 -2.2604  0.5560
 2065TIP3   OH2 6200   1.535   1.017   4.235  0.4475 -0.0841  0.9398
 2065TIP3    H1 6201   1.458   0.960   4.237  0.9870 -0.9042 -0.3318
 2065TIP3    H2 6202   1.562   1.018   4.143  0.8514  1.7135  1.0462
 2066TIP3   OH2 6203   3.403   3.182   4.100 -0.1709 -0.5232 -0.3231
 2066TIP3    H1 6204   3.334   3.245   4.121 -1.8380 -1.3903 -2.7338
 2066TIP3    H2 6205   3.407   3.181   4.004  2.8968 -0.9086 -0.2962
 2067TIP3   OH2 6206   1.898   3.654   2.946  0.3953  0.6408 -0.0234
 2067TIP3    H1 6207   1.886   3.562   2.921  1.0906  0.9984 -1.8615
 2067TIP3    H2 6208   1.820   3.675   2.997 -0.9682 -0.3367 -1.5896
 2068TIP3   OH2 6209   4.511   4.001   0.986  0.0304  0.0444 -0.5880
 2068TIP3    H1 6210   4.436   3.979   1.041  1.4870 -1.2067  1.0142
 2068TIP3    H2 6211   4.571   3.928   0.997  0.5493 -0.1045 -3.6686
 2069TIP3   OH2 6212   3.382   2.406   4.850 -0.2053  0.1849  0.6464
 2069TIP3    H1 6213   3.412   2.495   4.832  0.1626 -0.0401  0.1458
 2069TIP3    H2 6214   3.287   2.410   4.841 -0.2684  0.7194  1.4700
 2070TIP3   OH2 6215   4.296   2.235   4.707 -0.1984  0.0801  0.0231
 2070TIP3    H1 6216   4.209   2.197   4.720 -0.8829  1.6078  0.0605
 2070TIP3    H2 6217   4.283   2.304   4.643  1.1882 -0.3102 -0.7132
 2071TIP3   OH2 6218   6.060   4.274   3.473 -0.1093  0.3203 -0.6142
 2071TIP3    H1 6219   6.117   4.198   3.468 -0.8510 -0.1655 -2.3113
 2071TIP3    H2 6220   6.119   4.348   3.489  1.1704 -0.0095 -3.3370
 2072TIP3   OH2 6221   5.827   1.022   0.405 -0.0404  0.3281  0.0236
 2072TIP3    H1 6222   5.841   1.095   0.344 -0.4253  0.5482  0.1931
 2072TIP3    H2 6223   5.755   1.052   0.462 -1.4552 -0.8989 -1.0476
 2073TIP3   OH2 6224   0.114   4.859   1.395 -0.4093  0.0211  0.5927
 2073TIP3    H1 6225   0.037   4.844   1.340 -0.0317  0.6222 -0.1315
 2073TIP3    H2 6226   0.182   4.886   1.333  0.3029 -0.2229  1.2547
 2074TIP3   OH2 6227   5.297   2.248   2.886  0.0573  0.0136  0.1590
 2074TIP3    H1 6228   5.357   2.220   2.817 -0.1379  0.5236 -0.2266
 2074TIP3    H2 6229   5.212   2.212   2.861  0.2098 -0.7937  0.7583
 2075TIP3   OH2 6230   3.483   4.780   3.571  0.4111  0.2866  0.1328
 2075TIP3    H1 6231   3.475   4.727   3.650 -2.3512  1.5489  0.8204
 2075TIP3    H2 6232   3.503   4.717   3.502  0.0406 -1.2537  1.3763
 2076TIP3   OH2 6233   3.738   5.803   3.217  0.6790 -0.1851 -0.1124
 2076TIP3    H1 6234   3.668   5.738   3.218  1.3877 -1.0549  2.7832
 2076TIP3    H2 6235   3.761   5.815   3.309  3.8104  0.6465 -0.8790
 2077TIP3   OH2 6236   0.313   0.634   0.914 -0.8598  0.1137 -0.8713
 2077TIP3    H1 6237   0.219   0.647   0.912 -0.8573  0.3215  0.2101
 2077TIP3    H2 6238   0.350   0.719   0.889 -0.9375  0.5734  0.5350
 2078TIP3   OH2 6239   4.702   5.003   2.821 -0.1290  0.2435  0.0356
 2078TIP3    H1 6240   4.762   5.073   2.846  2.3560 -2.5669  2.8899
 2078TIP3    H2 6241   4.743   4.963   2.744  0.2651 -0.0182  0.3729
 2079TIP3   OH2 6242   5.871   1.137   2.246 -0.1321 -0.6007  0.0839
 2079TIP3    H1 6243   5.844   1.096   2.164  1.2990  0.6927 -1.0838
 2079TIP3    H2 6244   5.789   1.166   2.286 -0.8240 -0.8839 -1.0749
 2080TIP3   OH2 6245   4.715   2.394   3.218 -0.4698  0.2979  0.1117
 2080TIP3    H1 6246   4.625   2.424   3.224 -1.3945 -2.4418  1.4102
 2080TIP3    H2 6247   4.716   2.309   3.262  2.3139 -0.7404 -1.6518
 2081TIP3   OH2 6248   6.336   2.934   2.213 -1.1027  0.0557  0.4399
 2081TIP3    H1 6249   6.386   2.989   2.274  0.4927  0.2361 -0.9458
 2081TIP3    H2 6250   6.248   2.970   2.215 -0.4997  1.6030  0.8363
 2082TIP3   OH2 6251   4.762   5.123   4.895  0.5008  0.3624  0.2212
 2082TIP3    H1 6252   4.825   5.066   4.851  0.5882  0.0170  0.7830
 2082TIP3    H2 6253   4.679   5.103   4.853  0.4802 -0.3996  0.5990
 2083TIP3   OH2 6254   4.921   3.054   1.992 -0.0045  0.2300  0.5540
 2083TIP3    H1 6255   4.913   3.036   2.085 -0.8395 -0.3765  0.3743
 2083TIP3    H2 6256   5.013   3.079   1.980  0.4287 -0.9078  1.3405
 2084TIP3   OH2 6257   6.143   5.733   0.029  0.0849  0.1775  0.3562
 2084TIP3    H1 6258   6.219   5.722  -0.028 -0.1516  2.4629 -0.5019
 2084TIP3    H2 6259   6.085   5.661   0.005  1.5803 -1.1125  0.4329
 2085TIP3   OH2 6260   2.237   2.370   4.750  0.0566 -0.4658 -0.3482
 2085TIP3    H1 6261   2.228   2.405   4.839  0.6146 -1.5515  0.1471
 2085TIP3    H2 6262   2.283   2.287   4.761  0.9866 -0.1705 -1.7567
 2086TIP3   OH2 6263   1.986   4.901   0.871  0.8461  0.0631 -0.2173
 2086TIP3    H1 6264   1.974   4.840   0.798 -1.2892  0.8882 -0.6196
 2086TIP3    H2 6265   1.993   4.987   0.829 -0.1352  0.5178  0.5185
 2087TIP3   OH2 6266   1.097   2.244   4.876 -0.5295 -0.1725 -0.4539
 2087TIP3    H1 6267   1.187   2.247   4.845  0.7484 -2.7189  2.4420
 2087TIP3    H2 6268   1.083   2.329   4.917  1.2753 -0.3512  0.6337
 2088TIP3   OH2 6269   4.607   3.771   3.264  0.8860 -0.1722 -0.0512
 2088TIP3    H1 6270   4.574   3.684   3.285 -0.2748  0.1538 -0.4346
 2088TIP3    H2 6271   4.633   3.765   3.172  0.8741 -0.1334 -0.0571
 2089TIP3   OH2 6272   5.953   5.559   4.392 -0.2012  0.2037  0.1375
 2089TIP3    H1 6273   5.970   5.650   4.367 -2.1456  1.1343  1.9162
 2089TIP3    H2 6274   5.893   5.565   4.467  1.3463 -2.4955  1.7647
 2090TIP3   OH2 6275   4.875   1.963   4.757 -0.3197 -0.5317 -0.3803
 2090TIP3    H1 6276   4.894   2.048   4.716 -2.0996  0.1607  0.1428
 2090TIP3    H2 6277   4.908   1.972   4.846  1.0814 -1.0498 -0.8281
 2091TIP3   OH2 6278   3.482   0.985   0.159  0.0020 -0.0619  0.0540
 2091TIP3    H1 6279   3.559   1.043   0.161 -1.1715  1.5459  0.0627
 2091TIP3    H2 6280   3.515   0.904   0.120  1.6570  0.6515 -0.1300
 2092TIP3   OH2 6281   0.464   3.090   0.871  0.5036 -0.0730 -0.1789
 2092TIP3    H1 6282   0.425   3.129   0.793  0.1336  0.1450  0.1113
 2092TIP3    H2 6283   0.558   3.104   0.860  0.3597  1.2777  0.1079
 2093TIP3   OH2 6284   1.189   3.425   0.454 -0.3438  0.4177 -0.3317
 2093TIP3    H1 6285   1.212   3.382   0.371 -0.2159 -2.4713  1.0803
 2093TIP3    H2 6286   1.274   3.446   0.494 -0.2416 -1.5252  0.6062
 2094TIP3   OH2 6287   5.513   2.460   1.779  0.0679 -0.0257  0.0544
 2094TIP3    H1 6288   5.479   2.457   1.869  2.6952  0.1401  1.1355
 2094TIP3    H2 6289   5.583   2.395   1.778  0.4390  0.3600 -1.7418
 2095TIP3   OH2 6290   2.137   4.673   1.475 -0.2521 -0.0173 -0.0050
 2095TIP3    H1 6291   2.122   4.590   1.429  2.2010 -1.6155  1.7853
 2095TIP3    H2 6292   2.233   4.680   1.480 -0.3744  3.2779 -0.5939
 2096TIP3   OH2 6293   3.489   2.500   2.634  0.0794  0.1632 -0.4878
 2096TIP3    H1 6294   3.489   2.520   2.540 -1.3775  0.3984 -0.4523
 2096TIP3    H2 6295   3.461   2.408   2.638  1.1977 -0.1869 -0.3255
 2097TIP3   OH2 6296   2.979   4.397   0.963 -0.3048  0.1841 -0.1798
 2097TIP3    H1 6297   2.969   4.484   1.001 -0.6979 -0.5144  1.4148
 2097TIP3    H2 6298   2.892   4.377   0.927 -0.3234  0.2903 -0.1946
 2098TIP3   OH2 6299   3.326   5.609   3.936 -0.0827 -0.5342  0.6476
 2098TIP3    H1 6300   3.270   5.634   4.010 -1.3564  1.5227 -0.8982
 2098TIP3    H2 6301   3.268   5.562   3.877 -0.3213  1.6699 -1.0038
 2099TIP3   OH2 6302   2.933   5.300   4.067  0.3216 -0.1672  0.0396
 2099TIP3    H1 6303   2.860   5.338   4.117 -0.4684  0.1495 -1.3089
 2099TIP3    H2 6304   2.903   5.301   3.976  2.2309  0.5032 -0.6331
 2100TIP3   OH2 6305   1.746   0.027   3.535  0.6297  1.0938  0.2073
 2100TIP3    H1 6306   1.781   0.051   3.449  2.3269 -1.5089  0.0501
 2100TIP3    H2 6307   1.660  -0.011   3.517  0.9576  0.6040 -0.3642
 2101TIP3   OH2 6308   0.059   5.218   3.061  0.1856  0.1256  0.0950
 2101TIP3    H1 6309   0.091   5.129   3.047  0.1548  0.6003 -4.0058
 2101TIP3    H2 6310  -0.036   5.208   3.071  0.2848 -0.3474  0.6344
 2102TIP3   OH2 6311   4.205   1.491   1.125  0.2398  0.1146 -0.0930
 2102TIP3    H1 6312   4.179   1.414   1.073 -0.5998 -0.3257  0.9445
 2102TIP3    H2 6313   4.282   1.461   1.173  2.0292  1.0259 -2.2210
 2103TIP3   OH2 6314   2.262   4.628   0.635  0.1244 -0.0049 -0.2228
 2103TIP3    H1 6315   2.262   4.543   0.593 -0.2398 -0.7580  1.2353
 2103TIP3    H2 6316   2.173   4.638   0.669 -0.1495  1.4287 -1.2467
 2104TIP3   OH2 6317   1.304   4.976   2.391  0.7466 -0.1682  0.2960
 2104TIP3    H1 6318   1.365   5.001   2.460  1.6315  0.5504 -0.7218
 2104TIP3    H2 6319   1.295   5.054   2.336 -0.9200 -0.3210  0.2788
 2105TIP3   OH2 6320   1.219   1.907   1.312  0.4448  0.3354  0.1939
 2105TIP3    H1 6321   1.284   1.859   1.364  0.8631  0.9630  0.2647
 2105TIP3    H2 6322   1.206   1.853   1.234  0.8201  0.0555  0.3204
 2106TIP3   OH2 6323   4.480   3.004   3.409  0.3392 -0.2462 -0.0282
 2106TIP3    H1 6324   4.404   3.061   3.394  0.3957 -0.3671 -0.8131
 2106TIP3    H2 6325   4.469   2.933   3.346  0.9738 -0.4048  0.0380
 2107TIP3   OH2 6326   4.953   3.481   1.363  0.3602  0.5037  0.0052
 2107TIP3    H1 6327   5.032   3.525   1.393  1.8385 -1.3435 -0.9720
 2107TIP3    H2 6328   4.949   3.400   1.414 -1.1045  0.7022  0.2613
 2108TIP3   OH2 6329   3.327   0.611   4.453  0.3868  0.1169  0.3792
 2108TIP3    H1 6330   3.349   0.608   4.546 -0.0274 -0.5909  0.4596
 2108TIP3    H2 6331   3.278   0.531   4.437  1.4644 -0.3575 -0.7228
 2109TIP3   OH2 6332   5.283   4.862   4.716 -0.2151  0.3159 -0.6634
 2109TIP3    H1 6333   5.364   4.896   4.754 -0.0036  1.2192 -1.8518
 2109TIP3    H2 6334   5.248   4.936   4.667 -1.7034 -0.1092 -0.2727
 2110TIP3   OH2 6335   0.234   0.042   2.818 -0.2859 -0.1462  0.5125
 2110TIP3    H1 6336   0.207  -0.050   2.819  0.4300 -0.3617  0.1961
 2110TIP3    H2 6337   0.286   0.052   2.897  0.7871 -0.3709 -0.1478
 2111TIP3   OH2 6338   3.853   0.820   1.685  0.3667 -0.2911  0.2327
 2111TIP3    H1 6339   3.777   0.853   1.637  0.4637 -0.7227 -0.2303
 2111TIP3    H2 6340   3.827   0.732   1.713 -0.0126  0.2670  1.7366
 2112TIP3   OH2 6341   6.104   1.261   4.346 -0.1096 -0.6113  0.3855
 2112TIP3    H1 6342   6.060   1.190   4.299 -1.4561  0.1509  0.4375
 2112TIP3    H2 6343   6.151   1.309   4.278  0.2834 -1.1707  0.2552
 2113TIP3   OH2 6344   3.872   5.709   3.558  0.5069 -0.3613 -0.0581
 2113TIP3    H1 6345   3.782   5.705   3.526  0.9607  0.3264 -1.4979
 2113TIP3    H2 6346   3.914   5.632   3.519  0.9818  0.3039 -0.9013
 2114TIP3   OH2 6347   2.565   5.695   1.587  0.3092 -0.3883 -0.3498
 2114TIP3    H1 6348   2.531   5.628   1.647 -0.8796  0.3257 -0.1937
 2114TIP3    H2 6349   2.505   5.769   1.598  1.0228  0.3406 -1.2503
 2115TIP3   OH2 6350   4.456   0.083   0.028 -0.9793 -0.0888  0.3847
 2115TIP3    H1 6351   4.488   0.053   0.113 -0.4419 -0.6662 -0.0151
 2115TIP3    H2 6352   4.385   0.143   0.050  1.4953  2.7669  1.4222
 2116TIP3   OH2 6353   4.766   3.511   2.101  0.0688  1.3371  0.0600
 2116TIP3    H1 6354   4.729   3.499   2.189  1.0715 -2.8570  0.0997
 2116TIP3    H2 6355   4.800   3.425   2.077 -0.2776  2.2517 -4.5829
 2117TIP3   OH2 6356   2.233   2.495   2.192  0.0723  0.0421  0.1996
 2117TIP3    H1 6357   2.235   2.581   2.150 -0.2114 -0.8352 -1.7474
 2117TIP3    H2 6358   2.304   2.498   2.256 -0.3611  1.9219  0.6484
 2118TIP3   OH2 6359   4.705   1.798   3.531  0.2041 -0.5963  0.2115
 2118TIP3    H1 6360   4.741   1.812   3.619  0.9660  1.0330 -0.3327
 2118TIP3    H2 6361   4.777   1.816   3.472 -1.7024  4.6725 -1.0285
 2119TIP3   OH2 6362   1.387   0.737   4.970 -0.2279  0.4699 -0.0848
 2119TIP3    H1 6363   1.402   0.665   5.032  0.3696  1.2005  0.6487
 2119TIP3    H2 6364   1.293   0.752   4.973 -0.3826 -0.3907 -0.3794
 2120TIP3   OH2 6365   3.044   2.982   0.314 -0.2476  0.9403  0.0751
 2120TIP3    H1 6366   3.020   3.067   0.277  1.2311  1.2793 -0.1324
 2120TIP3    H2 6367   3.058   2.999   0.407 -0.2766  0.8391  0.0991
 2121TIP3   OH2 6368   4.531   3.113   4.743  0.0810 -0.1281  0.0702
 2121TIP3    H1 6369   4.560   3.194   4.701 -0.6513 -0.0170 -0.2320
 2121TIP3    H2 6370   4.436   3.121   4.748  0.1834  0.1755  2.4115
 2122TIP3   OH2 6371   6.078   5.655   1.008 -0.0154 -0.2785 -0.0830
 2122TIP3    H1 6372   6.051   5.573   0.967 -0.4608 -1.3226  2.1661
 2122TIP3    H2 6373   5.995   5.696   1.035  0.2024  0.9451 -1.1866
 2123TIP3   OH2 6374   5.338   3.263   1.398  0.0190  0.4854  0.1952
 2123TIP3    H1 6375   5.383   3.182   1.374 -1.0222  0.2602 -1.1578
 2123TIP3    H2 6376   5.245   3.242   1.385 -0.2440  2.0197 -0.6105
 2124TIP3   OH2 6377   2.037   1.381   1.814 -0.5367 -0.2116  0.1885
 2124TIP3    H1 6378   1.966   1.436   1.782 -1.7886 -0.8992  1.6550
 2124TIP3    H2 6379   2.017   1.294   1.781 -0.8182 -0.5571  1.2254
 2125TIP3   OH2 6380   3.239   4.810   2.689 -0.4168 -0.1134  0.1636
 2125TIP3    H1 6381   3.160   4.857   2.664 -0.5298  0.1791  1.0602
 2125TIP3    H2 6382   3.207   4.731   2.733 -0.2107 -0.4877 -0.3357
 2126TIP3   OH2 6383   4.338   4.455   1.229  0.1047 -1.4177 -0.1047
 2126TIP3    H1 6384   4.349   4.371   1.274 -0.8423 -1.4912  0.0154
 2126TIP3    H2 6385   4.318   4.517   1.298  0.4565 -1.1576 -0.2342
 2127TIP3   OH2 6386   3.642   4.143   2.590 -0.3853 -0.1228 -0.1855
 2127TIP3    H1 6387   3.586   4.188   2.526 -2.4123 -1.3513  0.6083
 2127TIP3    H2 6388   3.581   4.114   2.658  1.5697  0.3507  1.8780
 2128TIP3   OH2 6389   1.288   2.909   3.503 -0.5714 -0.1043 -0.2361
 2128TIP3    H1 6390   1.241   2.847   3.448  0.7204 -2.6355  1.3143
 2128TIP3    H2 6391   1.249   2.899   3.590 -0.0457  0.9459  0.1399
 2129TIP3   OH2 6392   0.905   0.941   2.243  0.0743 -0.5220 -0.2954
 2129TIP3    H1 6393   0.919   0.956   2.336 -0.6274  0.9146 -0.4008
 2129TIP3    H2 6394   0.946   1.016   2.200 -1.0233 -0.3318 -1.0390
 2130TIP3   OH2 6395   2.629   3.990   0.148 -0.0992 -0.2475 -0.1765
 2130TIP3    H1 6396   2.697   4.029   0.203  0.3774  0.5983 -1.3277
 2130TIP3    H2 6397   2.559   3.967   0.209  1.0161 -0.7295  0.9871
 2131TIP3   OH2 6398   4.252   1.734   0.540 -0.5971  0.4276  0.3965
 2131TIP3    H1 6399   4.319   1.693   0.484 -1.9510 -0.4147 -0.6775
 2131TIP3    H2 6400   4.248   1.677   0.617 -1.2939 -0.5434 -0.3358
 2132TIP3   OH2 6401   6.385   4.627   2.181  0.2265  0.2897 -0.8503
 2132TIP3    H1 6402   6.329   4.614   2.104 -0.6142  0.7289 -0.3258
 2132TIP3    H2 6403   6.331   4.678   2.241  1.2446  0.8416 -0.3856
 2133TIP3   OH2 6404   2.548   0.386   4.125  0.6009 -0.4756  0.3670
 2133TIP3    H1 6405   2.541   0.296   4.093  1.0714  0.0247 -1.2372
 2133TIP3    H2 6406   2.474   0.431   4.085  1.3479  0.2253 -0.2472
 2134TIP3   OH2 6407   4.554   1.276   3.496  0.6134  0.6228 -0.5220
 2134TIP3    H1 6408   4.635   1.299   3.450  0.6436  0.3968 -0.5860
 2134TIP3    H2 6409   4.486   1.326   3.452  0.2983 -1.1889 -2.2617
 2135TIP3   OH2 6410   1.322   3.218   4.327 -0.6672  0.5586  0.4438
 2135TIP3    H1 6411   1.248   3.194   4.383 -1.7645  1.2115 -0.6836
 2135TIP3    H2 6412   1.304   3.308   4.300  1.4091  1.3508  1.4726
 2136TIP3   OH2 6413   1.110   1.224   4.864  0.1628 -0.4533  0.3569
 2136TIP3    H1 6414   1.196   1.199   4.897  0.3668  0.9417  0.9652
 2136TIP3    H2 6415   1.049   1.169   4.914  0.6285 -0.3905  1.0147
 2137TIP3   OH2 6416   6.232   1.675   0.607 -0.2379 -0.1066  0.0477
 2137TIP3    H1 6417   6.253   1.707   0.695  0.1638  1.4809 -0.5899
 2137TIP3    H2 6418   6.142   1.641   0.615 -0.6555  1.1230  0.8113
 2138TIP3   OH2 6419   4.151   2.450   1.919  0.0518  0.2615 -0.4822
 2138TIP3    H1 6420   4.171   2.452   1.825 -0.6719  1.0335 -0.6243
 2138TIP3    H2 6421   4.223   2.399   1.957  1.2401  1.3121 -1.2420
 2139TIP3   OH2 6422   4.443   1.458   1.855  0.2730  0.4576 -0.6586
 2139TIP3    H1 6423   4.386   1.535   1.864  0.5858  1.0877 -3.2499
 2139TIP3    H2 6424   4.512   1.472   1.920 -0.5313  1.5518 -0.0046
 2140TIP3   OH2 6425   2.692   2.016   0.497 -0.1081 -0.0807  0.3274
 2140TIP3    H1 6426   2.602   2.014   0.464 -0.9602 -1.7922  2.4571
 2140TIP3    H2 6427   2.717   2.108   0.496 -2.6395  0.7023  1.4346
 2141TIP3   OH2 6428   5.868   5.551   1.609  0.5794 -0.0587  0.2640
 2141TIP3    H1 6429   5.851   5.496   1.533  0.6103  0.4219 -0.0943
 2141TIP3    H2 6430   5.942   5.509   1.653  2.2839  1.0707 -1.3999
 2142TIP3   OH2 6431   5.249   3.770   4.553  0.1618 -0.1167 -0.1214
 2142TIP3    H1 6432   5.185   3.839   4.572  0.8687  1.1591 -2.0807
 2142TIP3    H2 6433   5.266   3.729   4.638 -3.0782 -0.4058  0.5251
 2143TIP3   OH2 6434   0.208   3.509   4.289 -0.1706 -0.1878  0.0230
 2143TIP3    H1 6435   0.122   3.490   4.326 -0.8880  2.5054 -0.0137
 2143TIP3    H2 6436   0.202   3.481   4.198 -0.7548 -0.6835  0.2069
 2144TIP3   OH2 6437   5.564   1.207   1.456 -0.7646  0.4563 -0.6446
 2144TIP3    H1 6438   5.582   1.223   1.364 -0.1779  0.1634 -0.5885
 2144TIP3    H2 6439   5.638   1.153   1.486  0.1157  2.1798  0.4687
 2145TIP3   OH2 6440   4.079   3.554   1.832 -0.0774 -0.5792  0.2224
 2145TIP3    H1 6441   3.997   3.516   1.802 -1.2937  2.1748 -0.3309
 2145TIP3    H2 6442   4.082   3.534   1.926 -0.9440 -1.4205  0.0844
 2146TIP3   OH2 6443   6.114   2.486   3.730 -0.3707 -0.2979 -0.2594
 2146TIP3    H1 6444   6.118   2.421   3.800 -1.7726 -0.7418 -0.5764
 2146TIP3    H2 6445   6.115   2.434   3.649 -2.6774 -0.0359 -0.5038
 2147TIP3   OH2 6446   5.632   3.939   1.789 -0.0610 -0.5642  0.1949
 2147TIP3    H1 6447   5.565   3.885   1.831 -0.1022  0.3597  1.3649
 2147TIP3    H2 6448   5.584   3.987   1.721 -0.8453  0.7875  1.6309
 2148TIP3   OH2 6449   3.059   5.810   1.181  0.3075  0.0769  0.2381
 2148TIP3    H1 6450   3.057   5.783   1.089  0.1617  1.4425 -0.1932
 2148TIP3    H2 6451   3.150   5.794   1.208  0.8897  1.4115 -0.7505
 2149TIP3   OH2 6452   0.535   3.954   3.008 -0.3151  0.1606 -0.6183
 2149TIP3    H1 6453   0.499   3.997   2.930 -1.0317  0.9837  0.1393
 2149TIP3    H2 6454   0.626   3.936   2.985 -0.7997 -0.6246 -2.0458
 2150TIP3   OH2 6455   2.761   0.860   2.714  0.0979  0.5282  0.6277
 2150TIP3    H1 6456   2.715   0.824   2.638  1.0715 -0.4621  0.4743
 2150TIP3    H2 6457   2.853   0.850   2.693  0.4274 -1.0322  2.4739
 2151TIP3   OH2 6458   4.656   5.568   1.122 -0.2705  0.0814 -0.0347
 2151TIP3    H1 6459   4.626   5.574   1.212 -2.3248  0.7530 -0.7034
 2151TIP3    H2 6460   4.598   5.626   1.073  0.0230 -1.1543 -1.9804
 2152TIP3   OH2 6461   5.712   0.872   3.365 -0.0087  0.8666  0.2005
 2152TIP3    H1 6462   5.646   0.851   3.299  0.4647 -0.3839  0.1001
 2152TIP3    H2 6463   5.788   0.901   3.316  0.5548 -0.6378  0.1102
 2153TIP3   OH2 6464   0.346   3.434   2.297  0.5280  0.5333 -0.6414
 2153TIP3    H1 6465   0.333   3.353   2.345  0.7092  0.3628 -0.8808
 2153TIP3    H2 6466   0.330   3.411   2.206  0.3979  0.8067 -0.6883
 2154TIP3   OH2 6467   3.743   4.281   1.693 -0.7440 -0.3672  0.2804
 2154TIP3    H1 6468   3.659   4.245   1.722 -1.2338  1.2997  1.0258
 2154TIP3    H2 6469   3.785   4.208   1.648 -2.2596 -1.4675  0.5487
 2155TIP3   OH2 6470   2.642   3.699   2.892 -0.5056 -0.3564 -0.6755
 2155TIP3    H1 6471   2.634   3.704   2.988  1.7285  0.8704 -0.4916
 2155TIP3    H2 6472   2.552   3.690   2.862 -1.3647  0.1750  1.5036
 2156TIP3   OH2 6473   0.908   5.266   4.036  0.8096 -0.7958 -0.4295
 2156TIP3    H1 6474   0.965   5.343   4.029  0.0893 -0.2878 -0.8511
 2156TIP3    H2 6475   0.825   5.295   4.000  1.0371 -2.3297 -2.3660
 2157TIP3   OH2 6476   5.915   3.897   4.610 -0.0655  0.1848 -0.0926
 2157TIP3    H1 6477   5.909   3.988   4.640 -0.2629 -0.1778  1.0246
 2157TIP3    H2 6478   5.827   3.876   4.579 -0.2242  0.1394  0.3799
 2158TIP3   OH2 6479   5.503   2.273   0.316 -0.4899  0.2436  0.6619
 2158TIP3    H1 6480   5.418   2.240   0.287 -0.9191  1.7667  0.0637
 2158TIP3    H2 6481   5.530   2.333   0.247 -0.0831  1.6258  1.9735
 2159TIP3   OH2 6482   4.330   0.182   4.721 -0.0235 -0.2130 -0.1745
 2159TIP3    H1 6483   4.330   0.108   4.660  1.0193  0.1861 -0.6752
 2159TIP3    H2 6484   4.323   0.259   4.665 -0.0841  0.1173  0.2829
 2160TIP3   OH2 6485   0.987   0.481   5.103 -0.0668  0.0331 -0.5957
 2160TIP3    H1 6486   1.028   0.420   5.164  0.8941  0.6267 -0.6332
 2160TIP3    H2 6487   0.928   0.427   5.050  0.0298 -0.6864  0.0206
 2161TIP3   OH2 6488   1.432   2.279   3.519  0.9151 -0.4691  0.3056
 2161TIP3    H1 6489   1.402   2.370   3.517 -1.0736 -1.0845 -0.5907
 2161TIP3    H2 6490   1.499   2.275   3.450 -0.2238 -0.0459 -0.8719
 2162TIP3   OH2 6491   3.322   1.180   2.657 -0.0464  0.5205  0.4080
 2162TIP3    H1 6492   3.292   1.109   2.713 -0.3003 -0.4175 -0.8626
 2162TIP3    H2 6493   3.241   1.221   2.625  0.0974  1.9384  1.7817
 2163TIP3   OH2 6494   3.454   1.007   0.434  0.2118  0.1282 -0.4660
 2163TIP3    H1 6495   3.460   0.930   0.490  0.4157 -0.9150 -1.8727
 2163TIP3    H2 6496   3.489   0.978   0.350 -0.0561  1.6612 -1.1323
 2164TIP3   OH2 6497   1.843   1.730   3.818 -0.1308  0.8135 -0.2066
 2164TIP3    H1 6498   1.897   1.690   3.750 -2.1382  1.4509 -2.2857
 2164TIP3    H2 6499   1.841   1.665   3.888  1.2889 -0.2446 -1.0965
 2165TIP3   OH2 6500   3.250   1.039  -0.003 -0.4494  0.1038  0.0557
 2165TIP3    H1 6501   3.170   0.987   0.007 -0.8619  0.9539  1.4212
 2165TIP3    H2 6502   3.302   1.016   0.074  0.0777  0.5062 -0.1788
 2166TIP3   OH2 6503   5.290   5.083   2.853  0.2927 -0.1707 -0.1824
 2166TIP3    H1 6504   5.231   5.012   2.832  1.9345 -1.8686  0.6378
 2166TIP3    H2 6505   5.297   5.082   2.949 -0.9338  2.2280  0.0116
 2167TIP3   OH2 6506   5.293   3.907   4.291  0.3152 -0.2081  0.7896
 2167TIP3    H1 6507   5.251   3.831   4.331 -0.5025 -0.0003  0.3592
 2167TIP3    H2 6508   5.311   3.880   4.201  1.2270 -0.3335  1.0056
 2168TIP3   OH2 6509   3.163   4.146   4.342 -0.0299 -0.5709 -0.5749
 2168TIP3    H1 6510   3.116   4.141   4.259 -0.6085 -1.7603 -0.2074
 2168TIP3    H2 6511   3.126   4.075   4.395  1.1989 -0.6419  0.2465
 2169TIP3   OH2 6512   2.415   0.789   1.061  0.0896  0.3894 -0.2202
 2169TIP3    H1 6513   2.427   0.834   1.144 -1.3500  0.7021 -0.1503
 2169TIP3    H2 6514   2.488   0.727   1.056 -0.6733 -0.8347  2.0976
 2170TIP3   OH2 6515   2.686   5.603   2.475 -0.2632  0.1579 -0.4553
 2170TIP3    H1 6516   2.703   5.645   2.559 -0.1495 -0.5957 -0.0868
 2170TIP3    H2 6517   2.632   5.527   2.497 -1.4238  0.7240 -1.2325
 2171TIP3   OH2 6518   1.079   1.798   4.914 -0.1988  0.2583 -0.5173
 2171TIP3    H1 6519   1.069   1.892   4.898  0.2420  0.3243 -0.4128
 2171TIP3    H2 6520   1.172   1.786   4.930 -0.1108 -0.3191 -1.3479
 2172TIP3   OH2 6521   3.386   3.167   1.753  0.1576  0.0468  0.1020
 2172TIP3    H1 6522   3.378   3.137   1.663  1.5650 -1.8989  0.5424
 2172TIP3    H2 6523   3.312   3.126   1.799 -0.9325  1.5514 -0.2326
 2173TIP3   OH2 6524   3.864   4.454   3.053  0.3930 -0.0276  0.0933
 2173TIP3    H1 6525   3.840   4.426   2.965 -0.5468 -2.2630  0.9677
 2173TIP3    H2 6526   3.954   4.485   3.045 -0.4016  2.0407 -2.0211
 2174TIP3   OH2 6527   1.508   0.820   0.661  0.0637 -0.1250  0.1840
 2174TIP3    H1 6528   1.579   0.874   0.695  2.1093 -1.5857 -1.4588
 2174TIP3    H2 6529   1.487   0.760   0.732  0.1699  0.5916  0.8334
 2175TIP3   OH2 6530   5.871   5.573   0.104 -0.2961  0.3061 -0.0580
 2175TIP3    H1 6531   5.833   5.516   0.037  0.9584 -0.2212 -0.3637
 2175TIP3    H2 6532   5.824   5.655   0.095 -2.2014 -0.6774  0.4331
 2176TIP3   OH2 6533   1.416   2.727   3.220  0.0261  0.1612 -0.4305
 2176TIP3    H1 6534   1.393   2.788   3.149 -0.8377  1.4904  0.9229
 2176TIP3    H2 6535   1.485   2.773   3.269 -0.4947 -0.0033  0.4903
 2177TIP3   OH2 6536   4.602   0.828   1.319 -0.4373  0.3233 -0.4701
 2177TIP3    H1 6537   4.600   0.733   1.312  1.1347  0.2629 -0.4713
 2177TIP3    H2 6538   4.631   0.845   1.409  0.4591  0.7663 -0.8299
 2178TIP3   OH2 6539   5.658   4.380   1.622 -0.0628  0.5133 -0.7133
 2178TIP3    H1 6540   5.731   4.354   1.677 -0.4736  1.0148  0.0929
 2178TIP3    H2 6541   5.591   4.314   1.638  0.1773  0.0954 -1.3944
 2179TIP3   OH2 6542   1.676   5.741   3.023 -0.2007  0.5102  0.1633
 2179TIP3    H1 6543   1.687   5.726   2.929 -1.8699  1.3387 -0.1931
 2179TIP3    H2 6544   1.673   5.652   3.060 -2.5533  0.0259 -0.9832
 2180TIP3   OH2 6545   0.852   2.625   0.178 -0.3326  0.0966  0.8320
 2180TIP3    H1 6546   0.860   2.556   0.245  0.4292 -1.4183 -0.7241
 2180TIP3    H2 6547   0.758   2.637   0.167 -0.5417 -1.6681  0.2679
 2181TIP3   OH2 6548   1.516   4.418   2.504 -0.7255  0.0589  0.4574
 2181TIP3    H1 6549   1.445   4.461   2.456 -0.3391 -1.6036 -1.7693
 2181TIP3    H2 6550   1.594   4.467   2.480 -0.8856  0.9838  1.7387
 2182TIP3   OH2 6551   5.810   4.128   4.683 -0.7005  0.3135 -0.6867
 2182TIP3    H1 6552   5.816   4.211   4.729 -0.6204  0.5905 -1.1903
 2182TIP3    H2 6553   5.728   4.089   4.714 -0.3371  0.1984  0.1635
 2183TIP3   OH2 6554   3.448   4.704   1.137  0.1496 -0.1104 -0.0017
 2183TIP3    H1 6555   3.462   4.751   1.220 -1.1550 -0.4328  0.4136
 2183TIP3    H2 6556   3.416   4.618   1.163 -0.2687 -0.2171 -0.8473
 2184TIP3   OH2 6557   3.445   5.553   0.872  0.1581  0.2325 -0.0048
 2184TIP3    H1 6558   3.432   5.459   0.877  0.5890  0.2315  1.7143
 2184TIP3    H2 6559   3.531   5.568   0.911 -0.5089  1.4339  1.1277
 2185TIP3   OH2 6560   0.382   1.865   1.687  0.2392 -0.3930 -0.0928
 2185TIP3    H1 6561   0.328   1.943   1.674  0.9280  0.0987 -0.1081
 2185TIP3    H2 6562   0.324   1.792   1.670 -0.2866  0.1306 -0.6060
 2186TIP3   OH2 6563   0.681   4.112   2.620 -0.3284 -0.0116 -0.0390
 2186TIP3    H1 6564   0.644   4.125   2.707 -2.3709  0.2555 -0.9009
 2186TIP3    H2 6565   0.710   4.199   2.593  0.6207 -0.1509  0.4690
 2187TIP3   OH2 6566   0.715   1.542   1.711 -0.1815 -0.0352  0.1698
 2187TIP3    H1 6567   0.671   1.614   1.757  0.6619 -0.3077  1.4745
 2187TIP3    H2 6568   0.732   1.477   1.779 -0.0318 -1.0385 -0.7999
 2188TIP3   OH2 6569   6.098   0.802   3.455 -0.1667 -0.5875 -0.1573
 2188TIP3    H1 6570   6.030   0.853   3.410  0.6584  0.7293  0.0436
 2188TIP3    H2 6571   6.158   0.775   3.386 -0.5176 -1.1725 -0.2414
 2189TIP3   OH2 6572   0.565   0.576   4.183 -0.6676  0.7009  0.4487
 2189TIP3    H1 6573   0.494   0.607   4.127 -0.9140 -1.3575 -0.4893
 2189TIP3    H2 6574   0.631   0.644   4.178 -1.1397  1.0924 -1.5218
 2190TIP3   OH2 6575   3.886   0.612   0.929  0.7997  0.3660 -0.0481
 2190TIP3    H1 6576   3.833   0.534   0.913  0.1361  0.6622  0.6440
 2190TIP3    H2 6577   3.974   0.587   0.902  0.6076 -0.6470  0.2208
 2191TIP3   OH2 6578   4.213   2.478   0.626 -0.5088 -0.0733  0.1157
 2191TIP3    H1 6579   4.174   2.409   0.680 -0.2980  0.4638  0.9789
 2191TIP3    H2 6580   4.261   2.532   0.688 -1.2769  1.2825 -0.4196
 2192TIP3   OH2 6581   4.382   0.054   1.223 -0.1926 -0.6931 -0.2255
 2192TIP3    H1 6582   4.318   0.125   1.235  0.0581 -0.4109 -0.5437
 2192TIP3    H2 6583   4.352  -0.015   1.282  0.3805  0.2238  1.1899
 2193TIP3   OH2 6584   5.389   1.655   1.492 -0.3302 -0.3052 -0.2445
 2193TIP3    H1 6585   5.374   1.587   1.427 -0.3810 -0.7567  0.2363
 2193TIP3    H2 6586   5.483   1.652   1.509 -0.3215 -0.2061 -0.2714
 2194TIP3   OH2 6587   1.030   5.373   4.420 -0.3956 -0.1476 -0.2186
 2194TIP3    H1 6588   0.982   5.301   4.381 -1.3846 -0.5246  1.5770
 2194TIP3    H2 6589   1.057   5.341   4.506 -1.7263  1.8993  1.0623
 2195TIP3   OH2 6590   3.810   3.443   2.225 -1.0854  0.1346 -0.0362
 2195TIP3    H1 6591   3.827   3.352   2.251  0.9930  0.1535 -1.1114
 2195TIP3    H2 6592   3.762   3.436   2.142 -1.0192  0.0195 -0.0649
 2196TIP3   OH2 6593   5.840   4.024   3.582 -0.2317 -0.3766  0.0595
 2196TIP3    H1 6594   5.882   3.984   3.659 -1.2515 -0.3604  0.6420
 2196TIP3    H2 6595   5.834   4.117   3.604 -2.7278 -0.7034  1.0596
 2197TIP3   OH2 6596   2.122   4.152   3.622  0.2641 -0.4421 -0.3740
 2197TIP3    H1 6597   2.121   4.240   3.584  2.9444 -0.2008 -0.0702
 2197TIP3    H2 6598   2.175   4.101   3.562  2.2965 -0.7294  1.5466
 2198TIP3   OH2 6599   6.373   5.431   3.258 -0.0225 -0.1564  0.0296
 2198TIP3    H1 6600   6.329   5.510   3.287 -1.6538 -1.2264  0.5855
 2198TIP3    H2 6601   6.352   5.365   3.324 -1.0251 -1.7682 -1.7882
 2199TIP3   OH2 6602   4.817   5.133   0.267  0.0722 -0.6280  0.1797
 2199TIP3    H1 6603   4.898   5.084   0.279 -0.0222 -0.5794  1.0893
 2199TIP3    H2 6604   4.776   5.133   0.353 -0.6402 -0.1941 -0.1468
 2200TIP3   OH2 6605   2.487   2.662   1.852 -0.0332  0.3542 -0.2623
 2200TIP3    H1 6606   2.524   2.633   1.935 -1.0659  0.7338  0.3453
 2200TIP3    H2 6607   2.412   2.604   1.837  1.1321 -0.8521 -1.8141
 2201TIP3   OH2 6608   0.435   4.137   4.409 -0.2464  0.3537 -0.1945
 2201TIP3    H1 6609   0.502   4.070   4.422 -0.2208  0.4064 -0.0514
 2201TIP3    H2 6610   0.390   4.111   4.329 -0.6444 -0.1708  0.1946
 2202TIP3   OH2 6611   5.871   3.681   1.691  0.2175  0.2226  0.2298
 2202TIP3    H1 6612   5.796   3.710   1.639 -0.1893 -0.5512  0.3828
 2202TIP3    H2 6613   5.855   3.717   1.778 -0.9889 -1.5602  0.7870
 2203TIP3   OH2 6614   0.266   5.872   3.417 -0.3140 -0.3783  0.5367
 2203TIP3    H1 6615   0.227   5.843   3.500  2.2129  0.5631  2.1583
 2203TIP3    H2 6616   0.313   5.796   3.384  0.0712 -0.2760  0.8493
 2204TIP3   OH2 6617   4.580   2.827   4.370 -0.1439 -0.4458 -0.1675
 2204TIP3    H1 6618   4.554   2.786   4.452  1.4289 -3.8394 -1.1673
 2204TIP3    H2 6619   4.505   2.881   4.344 -1.2791 -0.5168  2.6535
 2205TIP3   OH2 6620   2.246   2.078   0.243 -0.2094  0.2176 -0.3858
 2205TIP3    H1 6621   2.325   2.042   0.201  0.6764  1.3249  0.2728
 2205TIP3    H2 6622   2.248   2.042   0.332 -0.2847  0.4739 -0.2804
 2206TIP3   OH2 6623   5.870   0.508   2.910 -0.0042  0.2585  0.4268
 2206TIP3    H1 6624   5.925   0.561   2.969  0.0512  0.3071  0.3317
 2206TIP3    H2 6625   5.826   0.446   2.968  1.0087 -0.5338  0.3896
 2207TIP3   OH2 6626   3.452   0.243   3.350  0.1968  0.0732 -0.5255
 2207TIP3    H1 6627   3.386   0.246   3.419  0.2494  2.2608 -0.4863
 2207TIP3    H2 6628   3.402   0.228   3.269  0.1678 -2.8495 -0.0736
 2208TIP3   OH2 6629   4.928   2.364   0.543  0.4531 -0.0513 -0.4681
 2208TIP3    H1 6630   4.947   2.454   0.518  0.8515 -0.1178 -0.4214
 2208TIP3    H2 6631   5.006   2.315   0.516  0.3881 -0.3205 -0.1779
 2209TIP3   OH2 6632   1.638   2.292   3.745  0.6028 -0.0184 -0.4255
 2209TIP3    H1 6633   1.701   2.346   3.696  0.0104 -0.2042 -1.4212
 2209TIP3    H2 6634   1.573   2.265   3.679 -0.3893 -0.0287  0.5309
 2210TIP3   OH2 6635   5.198   0.772   1.511 -0.1223  0.3401 -0.2537
 2210TIP3    H1 6636   5.178   0.810   1.596  1.0829 -0.1729  0.2816
 2210TIP3    H2 6637   5.124   0.715   1.491 -0.1571  0.0455  0.7063
 2211TIP3   OH2 6638   5.560   1.144   0.918 -0.2870  0.1540 -0.0525
 2211TIP3    H1 6639   5.622   1.072   0.934 -0.1652  0.5981  1.5385
 2211TIP3    H2 6640   5.578   1.170   0.827  0.9392 -0.6091 -0.0560
 2212TIP3   OH2 6641   3.261   3.273   4.480 -0.2783 -0.4964 -0.1663
 2212TIP3    H1 6642   3.245   3.357   4.436  2.4104 -0.1738 -0.7145
 2212TIP3    H2 6643   3.178   3.225   4.472 -1.4494  1.5506 -1.0689
 2213TIP3   OH2 6644   5.395   5.679   3.485 -0.0317  0.6071  0.0006
 2213TIP3    H1 6645   5.371   5.729   3.407  0.7590  1.2457  0.1511
 2213TIP3    H2 6646   5.311   5.655   3.525 -0.4854 -0.4911 -1.4977
 2214TIP3   OH2 6647   4.988   0.090   0.169 -0.1618 -0.3162  0.1209
 2214TIP3    H1 6648   5.073   0.100   0.125 -0.5760  1.7205 -0.3183
 2214TIP3    H2 6649   4.939   0.168   0.144 -2.3034 -1.5962  0.1258
 2215TIP3   OH2 6650   2.819   3.678   1.682  0.6161 -0.0491  0.2292
 2215TIP3    H1 6651   2.832   3.657   1.590  0.0644  2.3031 -0.4406
 2215TIP3    H2 6652   2.844   3.770   1.690 -0.2030  0.0537  2.2372
 2216TIP3   OH2 6653   3.792   0.481   4.723  0.6840  0.0323 -0.0930
 2216TIP3    H1 6654   3.715   0.423   4.721  0.9248 -0.5650  2.7142
 2216TIP3    H2 6655   3.846   0.453   4.649 -0.3940 -1.6125 -0.3060
 2217TIP3   OH2 6656   4.494   1.469   0.133  0.3147 -0.0894 -0.0794
 2217TIP3    H1 6657   4.475   1.418   0.054  2.1619 -1.0274  0.0188
 2217TIP3    H2 6658   4.553   1.538   0.102  0.7361 -0.2274  0.4051
 2218TIP3   OH2 6659   1.733   2.858   1.356  0.0207 -0.4943  0.0298
 2218TIP3    H1 6660   1.739   2.827   1.446  0.7596 -0.1224  0.1237
 2218TIP3    H2 6661   1.644   2.890   1.347 -0.0038 -0.3567  0.6963
 2219TIP3   OH2 6662   3.796   1.435   4.099  0.3406  0.3145  0.0275
 2219TIP3    H1 6663   3.880   1.481   4.095  0.0927  0.7829  0.0824
 2219TIP3    H2 6664   3.805   1.373   4.171  0.6467  0.3568  0.0237
 2220TIP3   OH2 6665   5.127   3.717   3.990  0.4034 -0.2032 -0.4788
 2220TIP3    H1 6666   5.069   3.774   3.941  0.0054  1.8186  2.0963
 2220TIP3    H2 6667   5.075   3.639   4.007 -1.6705  1.4754  1.5998
 2221TIP3   OH2 6668   6.111   3.982   1.150  0.4369 -0.0819  0.0145
 2221TIP3    H1 6669   6.118   3.985   1.054  0.4870 -0.8449 -0.0111
 2221TIP3    H2 6670   6.047   4.050   1.171 -0.4296 -0.6678 -0.6528
 2222TIP3   OH2 6671   0.111   0.338   4.884  0.2716 -0.2071  0.1829
 2222TIP3    H1 6672   0.118   0.386   4.802 -3.8758 -0.2542 -0.4374
 2222TIP3    H2 6673   0.196   0.350   4.927  1.8219  1.7079 -3.0461
 2223TIP3   OH2 6674   5.388   4.396   1.269  0.2154 -0.0779  0.0740
 2223TIP3    H1 6675   5.394   4.410   1.175  0.0341  2.3870  0.3651
 2223TIP3    H2 6676   5.391   4.301   1.280 -1.0186 -0.4826 -2.4932
 2224TIP3   OH2 6677   5.579   3.737   2.641 -0.1986  0.1457 -0.2154
 2224TIP3    H1 6678   5.521   3.661   2.642 -0.1218  0.0810 -0.5331
 2224TIP3    H2 6679   5.532   3.804   2.591 -1.3641  1.2027  2.1434
 2225TIP3   OH2 6680   4.303   5.160   0.019  0.4733  0.2679 -0.5172
 2225TIP3    H1 6681   4.272   5.245  -0.010  3.3532  1.9452  0.7991
 2225TIP3    H2 6682   4.398   5.164   0.005  0.6199 -3.1241 -1.2409
 2226TIP3   OH2 6683   0.640   5.643   2.823 -0.2826 -1.0995 -0.0984
 2226TIP3    H1 6684   0.734   5.630   2.815 -0.5586 -3.3414 -0.2080
 2226TIP3    H2 6685   0.631   5.703   2.898  1.2419  0.3834 -1.0354
 2227TIP3   OH2 6686   3.127   5.196   3.589 -0.1793 -0.0078 -0.1458
 2227TIP3    H1 6687   3.036   5.165   3.587 -0.1273 -0.1360 -0.9926
 2227TIP3    H2 6688   3.172   5.136   3.648 -0.8557  0.6835  1.1191
 2228TIP3   OH2 6689   2.313   0.476   4.446  0.1164  0.0283 -0.0313
 2228TIP3    H1 6690   2.281   0.461   4.535  0.1903  0.3562  0.0530
 2228TIP3    H2 6691   2.268   0.411   4.393  1.1392 -1.1203  0.4637
 2229TIP3   OH2 6692   3.390   5.253   2.156  0.2265 -0.5640 -0.0650
 2229TIP3    H1 6693   3.412   5.162   2.174  0.0995 -1.0955 -2.3291
 2229TIP3    H2 6694   3.297   5.260   2.175  0.4111 -0.6582  0.9241
 2230TIP3   OH2 6695   3.522   1.103   3.830 -0.1234 -0.0591 -0.2610
 2230TIP3    H1 6696   3.511   1.133   3.920  0.3771  1.1749 -0.5949
 2230TIP3    H2 6697   3.433   1.091   3.798 -0.4111  2.1918 -0.4558
 2231TIP3   OH2 6698   1.758   3.122   3.640  0.1855 -0.0278  0.5943
 2231TIP3    H1 6699   1.664   3.110   3.655  0.1932  0.3918  1.0114
 2231TIP3    H2 6700   1.800   3.067   3.706  0.3294 -3.7228 -2.2365
 2232TIP3   OH2 6701   6.101   5.774   5.173 -0.1166  0.2547 -0.3914
 2232TIP3    H1 6702   6.194   5.766   5.150  0.2060  1.1158  0.5824
 2232TIP3    H2 6703   6.071   5.683   5.183  0.5422 -0.0366 -0.9744
 2233TIP3   OH2 6704   1.918   1.514   4.188 -0.0521 -0.3961  0.1487
 2233TIP3    H1 6705   1.902   1.572   4.262 -0.9523 -0.1482 -0.2281
 2233TIP3    H2 6706   1.832   1.481   4.164  0.2493 -0.6051 -0.6789
 2234TIP3   OH2 6707   0.507   1.234   4.173 -0.2357 -0.3008  0.1471
 2234TIP3    H1 6708   0.516   1.156   4.118 -2.2474 -1.5697  1.4655
 2234TIP3    H2 6709   0.492   1.306   4.111  1.4950 -0.9391 -1.0871
 2235TIP3   OH2 6710   2.076   0.600   0.651  0.0952  0.0338 -0.1071
 2235TIP3    H1 6711   2.058   0.666   0.585 -0.4738  0.6506  0.6416
 2235TIP3    H2 6712   1.995   0.593   0.702  0.3062 -0.8854  0.1353
 2236TIP3   OH2 6713   5.249   0.757   2.751 -0.1042 -0.0937 -0.2228
 2236TIP3    H1 6714   5.235   0.807   2.671 -0.4528  1.0185  0.5062
 2236TIP3    H2 6715   5.209   0.811   2.820  1.7886 -0.1083  0.9630
 2237TIP3   OH2 6716   5.743   0.118   5.135 -0.1239 -0.0379  0.9502
 2237TIP3    H1 6717   5.777   0.107   5.224  0.0080 -1.2358  0.7745
 2237TIP3    H2 6718   5.739   0.028   5.100  1.2438  0.5316 -0.7810
 2238TIP3   OH2 6719   3.642   4.187   2.989 -0.4372  0.2801  0.1244
 2238TIP3    H1 6720   3.577   4.255   3.004  0.1713  0.6047  1.4580
 2238TIP3    H2 6721   3.614   4.144   2.908 -1.9521  0.7878  0.3562
 2239TIP3   OH2 6722   4.690   2.340   1.020 -0.0525  0.2846 -0.2504
 2239TIP3    H1 6723   4.602   2.372   1.000 -0.0922  1.5384  1.6359
 2239TIP3    H2 6724   4.702   2.360   1.113  2.0504 -0.2978 -0.3429
 2240TIP3   OH2 6725   5.419   1.360   1.646  0.5667 -0.5548  0.0810
 2240TIP3    H1 6726   5.417   1.412   1.566  1.6906  1.2761  1.1766
 2240TIP3    H2 6727   5.482   1.290   1.629  0.0267 -0.8188 -0.9447
 2241TIP3   OH2 6728   0.862   0.995   0.928  1.4667 -0.0892  0.1293
 2241TIP3    H1 6729   0.892   1.081   0.898  1.2893  0.1408  0.5879
 2241TIP3    H2 6730   0.776   0.984   0.887  1.8430 -0.4191 -0.5900
 2242TIP3   OH2 6731   5.309   0.389  -0.001 -0.0192  0.2724  0.1518
 2242TIP3    H1 6732   5.231   0.342   0.028  0.6491 -0.0704  1.4413
 2242TIP3    H2 6733   5.382   0.337   0.032  0.8267 -0.2289 -2.2807
 2243TIP3   OH2 6734   3.924   2.479   4.475  0.3990  0.4003  0.2329
 2243TIP3    H1 6735   3.858   2.412   4.494  0.5222 -0.3735 -1.7901
 2243TIP3    H2 6736   3.900   2.512   4.388  0.1583  3.2627  1.2892
 2244TIP3   OH2 6737   2.906   4.867   4.048  0.2142  0.2946  0.0083
 2244TIP3    H1 6738   2.828   4.858   3.993  0.0830  0.2942  0.1930
 2244TIP3    H2 6739   2.979   4.848   3.989 -0.0555 -3.5412  0.6535
 2245TIP3   OH2 6740   2.604   2.000   3.271 -0.1455 -0.1721  0.2771
 2245TIP3    H1 6741   2.590   1.945   3.194 -0.9598  0.8728 -0.3561
 2245TIP3    H2 6742   2.661   1.948   3.328 -0.9095 -1.6725 -0.2718
 2246TIP3   OH2 6743   5.645   0.104   3.336 -0.0540  0.1649  0.7147
 2246TIP3    H1 6744   5.645   0.131   3.244  1.1130  1.8889  1.1726
 2246TIP3    H2 6745   5.608   0.016   3.335 -2.4475  1.0794 -1.1210
 2247TIP3   OH2 6746   4.311   1.994   3.033 -0.1273 -0.3832  0.0400
 2247TIP3    H1 6747   4.266   1.937   3.096  3.4275 -2.3938  1.0373
 2247TIP3    H2 6748   4.348   2.064   3.087 -0.8945  0.5407 -0.5889
 2248TIP3   OH2 6749   0.636   0.576   1.388  0.1037 -0.3648  0.3733
 2248TIP3    H1 6750   0.630   0.633   1.465 -1.9415  0.5498 -0.3989
 2248TIP3    H2 6751   0.574   0.612   1.326 -0.0521 -2.4918 -0.8143
 2249TIP3   OH2 6752   1.456   5.047   0.582  0.1253 -0.0699 -0.1604
 2249TIP3    H1 6753   1.426   5.076   0.495  0.0274  1.7808  0.4502
 2249TIP3    H2 6754   1.462   5.127   0.633  1.4710 -0.9802  1.1772
 2250TIP3   OH2 6755   2.399   5.635   4.117 -0.5503  0.7959  0.4888
 2250TIP3    H1 6756   2.418   5.566   4.052 -2.0230  0.9441 -0.1565
 2250TIP3    H2 6757   2.424   5.716   4.074  0.0421  0.7653  0.7712
 2251TIP3   OH2 6758   3.522   2.538   2.922  0.3129  0.0919 -0.2821
 2251TIP3    H1 6759   3.524   2.566   2.831 -0.2860  2.8903  0.4807
 2251TIP3    H2 6760   3.509   2.618   2.972  0.8061 -1.3263  2.3073
 2252TIP3   OH2 6761   2.369   3.578   1.664 -0.5256 -0.3427  0.0962
 2252TIP3    H1 6762   2.308   3.505   1.651 -0.7378 -0.5422  1.9536
 2252TIP3    H2 6763   2.387   3.579   1.758  2.6640 -0.5224 -0.3953
 2253TIP3   OH2 6764   4.815   1.153   4.516 -0.3604  0.1619  0.5033
 2253TIP3    H1 6765   4.800   1.089   4.446 -2.5211  1.2077 -0.0783
 2253TIP3    H2 6766   4.908   1.146   4.535 -0.1823 -1.8936 -0.7605
 2254TIP3   OH2 6767   1.639   4.899   2.451  0.0094 -0.1373  0.0727
 2254TIP3    H1 6768   1.602   4.818   2.417  0.2917 -0.2256 -0.0259
 2254TIP3    H2 6769   1.696   4.872   2.523  0.8027 -0.1122 -0.5316
 2255TIP3   OH2 6770   5.458   0.959   1.656 -0.1393  0.2483  0.5352
 2255TIP3    H1 6771   5.543   1.002   1.659 -0.0831  0.0896  1.8479
 2255TIP3    H2 6772   5.451   0.926   1.566  0.6067  1.3831  0.0332
 2256TIP3   OH2 6773   3.548   4.133   4.809 -0.2861 -0.1677 -0.1165
 2256TIP3    H1 6774   3.501   4.052   4.831 -1.4319  0.9114  1.5471
 2256TIP3    H2 6775   3.528   4.193   4.880  0.3383  1.6933 -1.4459
 2257TIP3   OH2 6776   5.340   5.805   2.567  0.4036 -0.3165 -0.8124
 2257TIP3    H1 6777   5.428   5.816   2.531 -0.1795  1.9738 -1.7078
 2257TIP3    H2 6778   5.281   5.829   2.495 -0.9516 -0.8062  0.0801
 2258TIP3   OH2 6779   3.622   4.613   1.986  0.0866  0.2015 -0.1853
 2258TIP3    H1 6780   3.550   4.671   2.013  0.4047  0.6170 -0.2131
 2258TIP3    H2 6781   3.655   4.653   1.905 -1.4768 -1.5538 -1.7765
 2259TIP3   OH2 6782   4.105   4.157   3.154 -0.2158  0.3171  0.6455
 2259TIP3    H1 6783   4.042   4.091   3.184 -0.9654  0.2608 -0.9494
 2259TIP3    H2 6784   4.079   4.237   3.199 -0.6285  0.0003  0.9778
 2260TIP3   OH2 6785   2.447   1.124   4.351  0.1138  0.4329 -0.0815
 2260TIP3    H1 6786   2.392   1.116   4.430 -1.4573  0.3500 -1.1252
 2260TIP3    H2 6787   2.450   1.035   4.316 -0.8555  0.7915 -1.1383
 2261TIP3   OH2 6788   4.237   3.214   0.141  0.3897 -0.2550  0.0055
 2261TIP3    H1 6789   4.161   3.266   0.166  0.1778  1.1878 -3.1358
 2261TIP3    H2 6790   4.311   3.260   0.180 -0.1473 -0.5910  1.5040
 2262TIP3   OH2 6791   5.697   4.246   2.669  0.2301  0.1348  0.2557
 2262TIP3    H1 6792   5.688   4.304   2.744  0.6439 -0.5650  0.8654
 2262TIP3    H2 6793   5.792   4.234   2.660  0.1691 -0.0182 -0.1838
 2263TIP3   OH2 6794   4.639   2.078   3.011 -0.4864  0.3346  0.4754
 2263TIP3    H1 6795   4.634   1.983   3.007 -1.0967  0.3593  0.6410
 2263TIP3    H2 6796   4.694   2.097   3.087  1.5709  0.0794 -0.8828
 2264TIP3   OH2 6797   2.049   3.756   1.395 -0.2163  0.1835 -0.3684
 2264TIP3    H1 6798   2.097   3.832   1.362 -0.6065  0.3393 -0.5891
 2264TIP3    H2 6799   2.012   3.786   1.478  1.5263 -0.4959  0.7145
 2265TIP3   OH2 6800   0.000   3.521   1.568 -0.5576  0.3725  0.1751
 2265TIP3    H1 6801  -0.006   3.460   1.642 -0.5630  0.5679  0.3367
 2265TIP3    H2 6802   0.085   3.502   1.528 -1.1978 -0.7917 -0.7001
 2266TIP3   OH2 6803   1.820   2.540   2.996 -0.3450  0.0985 -0.2721
 2266TIP3    H1 6804   1.884   2.528   2.925  0.9958  0.9501  0.7456
 2266TIP3    H2 6805   1.816   2.635   3.008 -2.5171  0.1234 -0.9046
 2267TIP3   OH2 6806   5.106   4.867   2.508 -0.0129  0.1877 -0.1204
 2267TIP3    H1 6807   5.107   4.808   2.433 -0.4026 -0.8948  0.6900
 2267TIP3    H2 6808   5.159   4.822   2.575  1.8017  1.9273 -0.2899
 2268TIP3   OH2 6809   5.746   2.576   2.640  0.1050  0.1196  0.2886
 2268TIP3    H1 6810   5.811   2.591   2.708  0.7899  1.1114 -0.5671
 2268TIP3    H2 6811   5.696   2.658   2.637 -0.7661 -0.3922  0.4748
 2269TIP3   OH2 6812   6.170   4.374   1.146 -0.0523  0.2138  0.2296
 2269TIP3    H1 6813   6.256   4.332   1.144 -0.1882 -0.0586 -0.9076
 2269TIP3    H2 6814   6.184   4.457   1.191  1.3790  1.3516 -2.1483
 2270TIP3   OH2 6815   1.728   5.222   1.110  0.5361 -0.5786  0.0401
 2270TIP3    H1 6816   1.748   5.136   1.147  1.0718  0.0341  1.2489
 2270TIP3    H2 6817   1.729   5.281   1.185 -2.0039  0.1605 -0.4058
 2271TIP3   OH2 6818   6.019   0.690   2.700 -0.0095  0.1036  0.0709
 2271TIP3    H1 6819   6.053   0.604   2.677 -0.2739 -0.7985  2.7142
 2271TIP3    H2 6820   5.924   0.679   2.699 -0.0371  0.1438  1.0249
 2272TIP3   OH2 6821   3.798   5.032   0.366 -0.2773  0.2359  0.0874
 2272TIP3    H1 6822   3.824   5.113   0.323 -0.5980 -0.3047 -1.1920
 2272TIP3    H2 6823   3.744   5.059   0.440 -0.1752  1.1837 -0.1766
 2273TIP3   OH2 6824   4.163   2.691   1.483  0.3194 -0.1269 -0.0298
 2273TIP3    H1 6825   4.128   2.741   1.557 -0.7869 -0.1076 -0.5369
 2273TIP3    H2 6826   4.169   2.756   1.412 -2.5470 -0.9174 -1.1436
 2274TIP3   OH2 6827   4.162   1.548   4.872  0.0231 -0.2165 -0.0898
 2274TIP3    H1 6828   4.220   1.607   4.823 -0.4455 -0.2679 -0.7130
 2274TIP3    H2 6829   4.173   1.463   4.829 -0.5886 -0.2053 -0.2773
 2275TIP3   OH2 6830   2.498   3.950   3.287 -0.6703 -0.3508 -0.3066
 2275TIP3    H1 6831   2.412   3.956   3.330 -0.3360  0.4702  0.2575
 2275TIP3    H2 6832   2.553   4.012   3.334  0.2105 -0.7896 -0.7422
 2276TIP3   OH2 6833   1.657   1.822   1.000  0.3423  0.3983  0.4274
 2276TIP3    H1 6834   1.634   1.854   1.087  0.8165 -0.4072  0.8574
 2276TIP3    H2 6835   1.752   1.837   0.994  0.3214  0.3829  0.0742
 2277TIP3   OH2 6836   1.825   0.981   3.339  0.5419 -0.1691 -0.2885
 2277TIP3    H1 6837   1.865   0.897   3.362  2.7595  0.8652 -0.0739
 2277TIP3    H2 6838   1.824   0.982   3.244 -2.5275 -1.7122 -0.3858
 2278TIP3   OH2 6839   1.977   2.861   3.497 -0.1002  0.2461  0.0569
 2278TIP3    H1 6840   1.884   2.865   3.519 -0.7886 -0.3053 -2.3849
 2278TIP3    H2 6841   2.000   2.769   3.504 -0.2528  0.1055 -1.0634
 2279TIP3   OH2 6842   5.661   4.702   0.460  0.4610 -0.8574  0.0632
 2279TIP3    H1 6843   5.664   4.786   0.505 -2.2346 -0.2784 -0.6472
 2279TIP3    H2 6844   5.727   4.649   0.503  1.0453  1.0766  1.6880
 2280TIP3   OH2 6845   2.962   5.028   2.969  0.8213  0.0363  0.4909
 2280TIP3    H1 6846   2.985   4.935   2.969  1.8405  0.2638 -0.7137
 2280TIP3    H2 6847   3.043   5.072   2.943  0.0347  1.1664 -0.0977
 2281TIP3   OH2 6848   1.083   0.586   0.592  0.1429 -0.2931  0.0226
 2281TIP3    H1 6849   1.140   0.598   0.668 -0.0466 -0.0198  0.1267
 2281TIP3    H2 6850   0.995   0.584   0.629  0.1125 -1.1262 -0.0991
 2282TIP3   OH2 6851   5.448   5.724   1.904  0.6025 -0.4792  0.3628
 2282TIP3    H1 6852   5.420   5.715   1.995  0.6740  2.0066  0.7070
 2282TIP3    H2 6853   5.435   5.817   1.884  1.0662 -0.8580 -2.0148
 2283TIP3   OH2 6854   4.715   2.296   0.720  0.1729  0.5220  0.3389
 2283TIP3    H1 6855   4.778   2.328   0.655  1.0102 -0.6494  0.5412
 2283TIP3    H2 6856   4.749   2.327   0.804  0.2157  0.3031  0.4039
 2284TIP3   OH2 6857   1.866   3.610   4.632  0.1475 -0.0785 -0.1472
 2284TIP3    H1 6858   1.861   3.665   4.710 -0.2916  2.2415 -1.7273
 2284TIP3    H2 6859   1.954   3.625   4.597 -0.2542  0.2474 -1.0306
 2285TIP3   OH2 6860   3.478   4.711   2.279  0.8076 -0.1158 -0.2260
 2285TIP3    H1 6861   3.568   4.694   2.307  0.8692 -1.8829 -1.3511
 2285TIP3    H2 6862   3.423   4.669   2.345  0.7760  0.9657  0.4625
 2286TIP3   OH2 6863   1.785   4.027   1.842  0.5951 -0.1452  0.1430
 2286TIP3    H1 6864   1.698   3.998   1.871  0.6555  0.3744  0.8596
 2286TIP3    H2 6865   1.815   4.086   1.911  1.8618 -0.9440  0.3031
 2287TIP3   OH2 6866   1.229   1.585   3.244 -0.4245  0.2880  0.0323
 2287TIP3    H1 6867   1.265   1.563   3.330  1.0488 -0.9244 -0.8356
 2287TIP3    H2 6868   1.153   1.639   3.262 -0.1277  0.0712  2.0944
 2288TIP3   OH2 6869   0.599   0.877   1.808  0.5232  0.2098 -0.0171
 2288TIP3    H1 6870   0.665   0.930   1.852  1.6596 -0.7340 -0.5611
 2288TIP3    H2 6871   0.627   0.787   1.822 -1.3451 -0.3023  0.8457
 2289TIP3   OH2 6872   6.285   0.548   3.835 -0.3504  0.4638  0.2260
 2289TIP3    H1 6873   6.368   0.592   3.853  1.6002 -3.1276  1.0875
 2289TIP3    H2 6874   6.272   0.491   3.910 -1.6714 -1.7165 -1.5315
 2290TIP3   OH2 6875   2.354   1.416   0.135  0.2414  0.5977 -0.0637
 2290TIP3    H1 6876   2.444   1.449   0.143 -0.0886  1.1799  1.7616
 2290TIP3    H2 6877   2.299   1.494   0.138 -0.3272  0.3148 -2.0818
 2291TIP3   OH2 6878   3.046   3.348   1.851 -0.1543  0.5932  0.4137
 2291TIP3    H1 6879   3.091   3.432   1.839 -0.1536  0.6549  0.8547
 2291TIP3    H2 6880   2.954   3.367   1.833  0.0394  0.3701 -0.9570
 2292TIP3   OH2 6881   1.993   1.606   3.411 -0.0123 -0.3397  0.3243
 2292TIP3    H1 6882   2.014   1.700   3.407 -1.9214  0.0720 -2.2240
 2292TIP3    H2 6883   1.983   1.588   3.505  0.7542  1.9009  0.9042
 2293TIP3   OH2 6884   1.635   4.139   0.059 -0.4056 -0.0388  0.0023
 2293TIP3    H1 6885   1.687   4.180   0.128  1.0745  0.0302 -1.0989
 2293TIP3    H2 6886   1.595   4.213   0.013  0.1270  0.0370 -0.3511
 2294TIP3   OH2 6887   2.958   0.017   3.000  0.0109  0.4609  0.1754
 2294TIP3    H1 6888   2.990   0.056   2.918 -0.1880  0.6725  0.1989
 2294TIP3    H2 6889   2.863   0.028   2.996  0.1448  2.9450  1.6601
 2295TIP3   OH2 6890   0.191   5.490   3.741 -0.3324  0.1356 -0.3454
 2295TIP3    H1 6891   0.266   5.501   3.683  0.4402  0.5616  0.6968
 2295TIP3    H2 6892   0.116   5.520   3.690  0.0112 -1.3787 -1.8185
 2296TIP3   OH2 6893   1.078   2.836   2.705 -0.2255  0.4973  0.0698
 2296TIP3    H1 6894   1.051   2.926   2.685 -2.9078  0.1175  1.4843
 2296TIP3    H2 6895   1.135   2.811   2.633 -1.8701  2.2910 -1.9777
 2297TIP3   OH2 6896   4.065   5.096   5.107 -0.5640  0.1718  0.1984
 2297TIP3    H1 6897   4.031   5.172   5.154 -0.0631 -0.4267  1.5781
 2297TIP3    H2 6898   4.064   5.026   5.171  1.0164 -0.4550 -0.4121
 2298TIP3   OH2 6899   4.883   0.179   2.852 -0.0002 -0.9041  0.0096
 2298TIP3    H1 6900   4.817   0.238   2.888 -0.2199 -1.6002  0.7767
 2298TIP3    H2 6901   4.945   0.165   2.923  1.7909  0.8101 -1.0957
 2299TIP3   OH2 6902   0.873   3.681   0.718  0.0657 -0.2565 -0.0358
 2299TIP3    H1 6903   0.897   3.661   0.808  0.5238  1.5220  0.2723
 2299TIP3    H2 6904   0.956   3.693   0.672 -0.1600  0.6769 -0.2306
 2300TIP3   OH2 6905   3.468   5.528   2.636  0.0478 -0.0908  0.1377
 2300TIP3    H1 6906   3.539   5.466   2.656  0.6773  0.3748 -0.6401
 2300TIP3    H2 6907   3.407   5.517   2.709  0.7498 -0.7425  0.6484
 2301TIP3   OH2 6908   2.462   1.536   4.879  0.2384 -0.0751  0.2256
 2301TIP3    H1 6909   2.533   1.492   4.927  1.3386 -0.2389 -1.4734
 2301TIP3    H2 6910   2.407   1.573   4.948  2.8146  1.3880  1.6796
 2302TIP3   OH2 6911   5.541   5.499   0.756  0.2190 -0.0880  0.1240
 2302TIP3    H1 6912   5.457   5.545   0.750  0.7295  1.1345  1.5330
 2302TIP3    H2 6913   5.563   5.502   0.849  1.0385 -1.8890  0.0339
 2303TIP3   OH2 6914   0.568   4.891   0.206 -0.1632  0.1433 -0.0679
 2303TIP3    H1 6915   0.613   4.806   0.200  1.0915  0.6325  1.4951
 2303TIP3    H2 6916   0.501   4.888   0.138 -0.2679 -2.1654  0.0497
 2304TIP3   OH2 6917   5.640   4.968   3.599  0.4252  0.1811  0.0437
 2304TIP3    H1 6918   5.687   5.007   3.673  2.1827  0.0930 -0.9676
 2304TIP3    H2 6919   5.666   4.875   3.602  0.8463  0.2592 -0.9060
 2305TIP3   OH2 6920   6.198   2.846   1.446  0.1744 -0.5319 -0.7214
 2305TIP3    H1 6921   6.228   2.905   1.515 -0.7470 -1.9782  0.9980
 2305TIP3    H2 6922   6.193   2.901   1.368  0.9959  1.2316  0.4063
 2306TIP3   OH2 6923   2.874   2.406   3.837 -0.6620 -0.5020 -0.0147
 2306TIP3    H1 6924   2.784   2.411   3.805 -0.0208  0.6947 -1.7340
 2306TIP3    H2 6925   2.920   2.476   3.792  0.8753 -0.2538  1.8062
 2307TIP3   OH2 6926   2.922   0.524   3.422 -0.1126  0.2772  0.4482
 2307TIP3    H1 6927   2.988   0.582   3.382 -2.1447  2.9043  0.5997
 2307TIP3    H2 6928   2.940   0.529   3.516  1.8034 -2.2003  0.3057
 2308TIP3   OH2 6929   2.326   5.258   3.474 -0.2292  0.1562 -0.3796
 2308TIP3    H1 6930   2.394   5.231   3.412  0.7760  0.7579  0.4345
 2308TIP3    H2 6931   2.322   5.353   3.467  0.5814  0.3452  1.1145
 2309TIP3   OH2 6932   5.339   5.898   5.187  0.1183  0.3293 -0.0276
 2309TIP3    H1 6933   5.254   5.855   5.177  0.3847 -0.5189  1.2229
 2309TIP3    H2 6934   5.402   5.826   5.198  0.8555  0.9757  0.0870
 2310TIP3   OH2 6935   4.347   4.385   4.782 -0.0543  0.2263  0.5916
 2310TIP3    H1 6936   4.334   4.461   4.839  0.0325 -0.2321  1.2289
 2310TIP3    H2 6937   4.261   4.343   4.779  0.5188 -1.2593  2.5870
 2311TIP3   OH2 6938   3.728   4.175   3.991  0.0076 -0.0006 -0.3617
 2311TIP3    H1 6939   3.637   4.167   3.962 -0.4349  2.9519 -0.1293
 2311TIP3    H2 6940   3.772   4.220   3.920  0.9296 -0.0951  0.1364
 2312TIP3   OH2 6941   2.494   3.508   0.794 -0.1991  0.2709  0.5534
 2312TIP3    H1 6942   2.564   3.445   0.777  1.9324  2.5183  0.3158
 2312TIP3    H2 6943   2.488   3.511   0.890 -0.9585 -0.8827  0.5618
 2313TIP3   OH2 6944   0.212   0.961   0.515  0.1501  0.3135 -0.4157
 2313TIP3    H1 6945   0.154   1.003   0.579  0.1432 -0.0040 -0.2072
 2313TIP3    H2 6946   0.224   1.026   0.446  0.4466  0.7972  0.0850
 2314TIP3   OH2 6947   1.489   5.974   0.797 -0.5566  0.2006  0.0102
 2314TIP3    H1 6948   1.464   5.972   0.890 -0.5216 -0.9645  0.0042
 2314TIP3    H2 6949   1.583   5.992   0.798 -0.6216  0.5543  0.1750
 2315TIP3   OH2 6950   0.526   1.417   2.914 -0.2111  0.3213  0.2595
 2315TIP3    H1 6951   0.559   1.470   2.841  1.1351  1.4875  1.6489
 2315TIP3    H2 6952   0.433   1.438   2.919 -0.3959 -0.0074 -1.2743
 2316TIP3   OH2 6953   4.383   4.779   2.080  0.1783  0.0380  0.2061
 2316TIP3    H1 6954   4.360   4.779   1.987  1.2201  1.0188 -0.0731
 2316TIP3    H2 6955   4.314   4.727   2.122  0.1195 -1.0782 -1.2067
 2317TIP3   OH2 6956   5.177   1.087   5.121  0.3195 -0.3527  0.0197
 2317TIP3    H1 6957   5.158   1.169   5.166 -0.9123 -1.3416  1.3851
 2317TIP3    H2 6958   5.093   1.041   5.117 -0.2324  0.4267 -5.1530
 2318TIP3   OH2 6959   1.069   4.671   3.705 -0.0411  0.4907 -0.2556
 2318TIP3    H1 6960   1.098   4.615   3.634  0.3283 -0.1056  0.3498
 2318TIP3    H2 6961   1.098   4.759   3.680  0.3549  0.2387 -0.6936
 2319TIP3   OH2 6962   1.801   0.550   3.105 -0.7137 -0.6899  0.0757
 2319TIP3    H1 6963   1.821   0.639   3.078 -0.7814 -0.3819  0.9996
 2319TIP3    H2 6964   1.747   0.515   3.035  1.9299 -1.1245 -1.9002
 2320TIP3   OH2 6965   5.351   3.478   2.388  0.5264 -0.0620  0.3358
 2320TIP3    H1 6966   5.364   3.572   2.377  0.7788 -0.1033  0.2837
 2320TIP3    H2 6967   5.316   3.449   2.304 -1.4964  0.3223  0.9793
 2321TIP3   OH2 6968   2.954   0.289   4.750  0.3510 -0.2988 -0.0265
 2321TIP3    H1 6969   2.906   0.233   4.689  0.2138 -0.3199  0.1008
 2321TIP3    H2 6970   2.955   0.375   4.707  0.4947 -0.3800 -0.1858
 2322TIP3   OH2 6971   0.815   5.486   1.166 -0.2245  0.7224 -0.8368
 2322TIP3    H1 6972   0.895   5.529   1.134 -0.8373  1.0528 -1.9714
 2322TIP3    H2 6973   0.749   5.555   1.167 -0.5340  0.4234 -0.0184
 2323TIP3   OH2 6974   1.640   0.821   2.677  0.4319 -0.4645 -0.1734
 2323TIP3    H1 6975   1.602   0.900   2.640  1.1618 -0.1310 -0.2238
 2323TIP3    H2 6976   1.573   0.754   2.664  0.6730 -0.3777 -2.1365
 2324TIP3   OH2 6977   0.167   1.981   2.397 -0.0306  0.2498  0.3408
 2324TIP3    H1 6978   0.180   1.957   2.489  0.0594 -1.4017 -0.0691
 2324TIP3    H2 6979   0.250   1.960   2.354  0.2207  1.7887 -0.0052
 2325TIP3   OH2 6980   4.549   3.603   4.053  0.6550  0.4757 -0.4062
 2325TIP3    H1 6981   4.458   3.602   4.024  0.3093  1.4761  0.5700
 2325TIP3    H2 6982   4.599   3.625   3.975  0.2060 -1.2690 -1.2406
 2326TIP3   OH2 6983   1.553   5.112   3.414 -0.4461  0.8482  0.3947
 2326TIP3    H1 6984   1.615   5.164   3.363 -0.4806 -0.0507 -0.6167
 2326TIP3    H2 6985   1.499   5.176   3.460  0.7167  1.6592  0.6832
 2327TIP3   OH2 6986   5.091   4.525   0.879 -0.0198 -0.4268 -0.3551
 2327TIP3    H1 6987   5.108   4.512   0.785 -1.2606  0.2399 -0.6856
 2327TIP3    H2 6988   5.167   4.485   0.922 -0.3550 -2.5639 -1.5550
 2328TIP3   OH2 6989   1.864   1.509   2.339 -0.0431 -0.1025 -0.3218
 2328TIP3    H1 6990   1.818   1.575   2.287 -0.2263  1.3650  1.5980
 2328TIP3    H2 6991   1.796   1.466   2.390  0.4720  1.1450  1.5185
 2329TIP3   OH2 6992   2.245   5.423   2.109 -0.0458 -0.0109  0.2604
 2329TIP3    H1 6993   2.157   5.426   2.145  0.2051 -1.0957  1.0085
 2329TIP3    H2 6994   2.302   5.442   2.184  0.3729  0.6165 -0.2010
 2330TIP3   OH2 6995   3.375   0.545   3.558  0.7065 -0.1254  0.1420
 2330TIP3    H1 6996   3.395   0.470   3.613  0.3921  1.0590  1.9580
 2330TIP3    H2 6997   3.373   0.620   3.618  0.1680  1.2201 -1.4509
 2331TIP3   OH2 6998   0.870   4.201   0.797  0.0425  0.1624  0.2490
 2331TIP3    H1 6999   0.916   4.235   0.721 -0.4736  0.5610  0.1066
 2331TIP3    H2 7000   0.836   4.116   0.768  3.6048 -1.8766  1.4267
 2332TIP3   OH2 7001   1.558   4.542   0.863 -0.7411 -0.1922  0.1656
 2332TIP3    H1 7002   1.467   4.571   0.861 -0.6116  0.3187  0.9918
 2332TIP3    H2 7003   1.603   4.608   0.918 -0.4401 -1.9433  2.1415
 2333TIP3   OH2 7004   0.476   3.745   3.176 -0.5893 -0.0984 -0.1474
 2333TIP3    H1 7005   0.505   3.780   3.260 -0.5929  1.1378 -0.6291
 2333TIP3    H2 7006   0.500   3.813   3.113 -0.8165 -0.8917 -1.1041
 2334TIP3   OH2 7007   6.181   0.821   1.433  0.6254  0.2195 -0.1837
 2334TIP3    H1 7008   6.174   0.884   1.360  1.0120  1.2137  0.6096
 2334TIP3    H2 7009   6.134   0.864   1.505 -0.2001 -0.9812  0.0188
 2335TIP3   OH2 7010   4.996   0.694   3.864  0.1006 -0.1404 -0.3260
 2335TIP3    H1 7011   4.999   0.632   3.936 -1.6243 -0.0598 -0.1280
 2335TIP3    H2 7012   4.903   0.716   3.856  0.4983  1.3187 -1.3208
 2336TIP3   OH2 7013   0.930   0.351   3.257 -0.6968  0.2411 -0.2099
 2336TIP3    H1 7014   0.885   0.280   3.303  0.1312 -0.8902 -1.0918
 2336TIP3    H2 7015   0.898   0.431   3.300 -1.6267 -0.6465  0.8298
 2337TIP3   OH2 7016   0.779   1.391   4.917 -0.0909 -0.1079 -0.0585
 2337TIP3    H1 7017   0.849   1.365   4.977  0.9355  1.3477 -0.5387
 2337TIP3    H2 7018   0.813   1.371   4.830 -1.0912 -1.1516 -0.2271
 2338TIP3   OH2 7019   0.609   3.125   4.108 -0.1594 -0.5313 -0.0319
 2338TIP3    H1 7020   0.553   3.051   4.085  0.2327 -0.5268 -1.0027
 2338TIP3    H2 7021   0.569   3.200   4.065 -0.0497 -0.3254  0.2181
 2339TIP3   OH2 7022   1.003   0.890   4.131 -0.6610 -0.2636  0.0487
 2339TIP3    H1 7023   1.050   0.879   4.213 -0.5540  1.2396  0.2143
 2339TIP3    H2 7024   1.066   0.864   4.063  1.1170  3.1683  0.1511
 2340TIP3   OH2 7025   5.920   3.857   3.339  0.0995  0.5147 -0.4859
 2340TIP3    H1 7026   5.922   3.931   3.399 -2.5953  0.3052 -0.0121
 2340TIP3    H2 7027   5.828   3.849   3.313  0.6644 -1.3318 -2.2198
 2341TIP3   OH2 7028   0.106   5.471   0.149  0.0286  0.5602  0.1496
 2341TIP3    H1 7029   0.190   5.512   0.128  0.3091  0.4344  0.9889
 2341TIP3    H2 7030   0.119   5.432   0.235 -0.6385 -0.1920 -0.0801
 2342TIP3   OH2 7031   3.118   2.020   2.019  0.0974  0.0383  0.0957
 2342TIP3    H1 7032   3.059   1.950   2.043 -1.6009  0.7825 -1.6400
 2342TIP3    H2 7033   3.162   1.989   1.940  0.4862  0.3066  0.2024
 2343TIP3   OH2 7034   2.643   1.656   4.719 -0.0316  0.0643  0.1576
 2343TIP3    H1 7035   2.574   1.614   4.770  0.0655 -0.2023  0.0725
 2343TIP3    H2 7036   2.723   1.609   4.744 -0.0113 -0.1916 -0.3749
 2344TIP3   OH2 7037   5.447   5.442   3.819 -0.5220 -0.1780  0.4709
 2344TIP3    H1 7038   5.508   5.393   3.765  0.1849  0.2068  0.8921
 2344TIP3    H2 7039   5.422   5.517   3.765  1.1340  0.8744  1.0710
 2345TIP3   OH2 7040   0.522   4.186   1.860  1.0282 -0.2494  0.6700
 2345TIP3    H1 7041   0.485   4.265   1.821  1.6368 -0.4111 -0.2809
 2345TIP3    H2 7042   0.503   4.117   1.796  0.6288 -0.8507  1.4191
 2346TIP3   OH2 7043   3.078   3.982   0.410  0.9367  0.0287  0.0381
 2346TIP3    H1 7044   3.038   3.898   0.433  0.8263 -0.4139 -1.6370
 2346TIP3    H2 7045   3.121   4.011   0.490 -1.4176 -0.2205  1.4762
 2347TIP3   OH2 7046   4.787   1.125   0.391  0.0513 -0.4002  0.0808
 2347TIP3    H1 7047   4.769   1.197   0.330 -0.5270  1.9306  2.7949
 2347TIP3    H2 7048   4.845   1.163   0.456  1.7898 -3.2011  0.3024
 2348TIP3   OH2 7049   3.322   1.434   1.537  0.2135 -0.4901  0.5326
 2348TIP3    H1 7050   3.385   1.431   1.465 -0.3914  0.2997 -0.0535
 2348TIP3    H2 7051   3.351   1.506   1.593 -0.5981  0.4229 -0.1808
 2349TIP3   OH2 7052   3.087   3.624   2.207 -0.3955  0.2799  0.1770
 2349TIP3    H1 7053   3.032   3.696   2.175  1.2852  1.9570  0.8569
 2349TIP3    H2 7054   3.163   3.625   2.149  0.2184 -0.1278  0.9645
 2350TIP3   OH2 7055   3.169   1.189   0.514  0.0698  0.4544 -0.2423
 2350TIP3    H1 7056   3.189   1.165   0.424 -0.7669  3.4010 -1.3404
 2350TIP3    H2 7057   3.077   1.167   0.525 -0.1293  1.1442 -0.5093
 2351TIP3   OH2 7058   4.402   4.263   5.062  0.3602  0.0786 -0.8521
 2351TIP3    H1 7059   4.452   4.288   5.140 -1.9886  1.6677  0.2556
 2351TIP3    H2 7060   4.443   4.311   4.990  0.4084  1.3681  0.0152
 2352TIP3   OH2 7061   0.823   5.553   0.668 -0.2414 -0.5620 -0.5650
 2352TIP3    H1 7062   0.822   5.486   0.600 -1.0147 -0.2462 -0.8742
 2352TIP3    H2 7063   0.897   5.609   0.646  1.3642 -2.1210  0.5248
 2353TIP3   OH2 7064   2.312   3.170   3.693 -0.5532 -0.0149 -0.5887
 2353TIP3    H1 7065   2.325   3.175   3.598  0.2332  1.4251 -0.4374
 2353TIP3    H2 7066   2.228   3.125   3.704  0.1684 -1.8341 -1.8958
 2354TIP3   OH2 7067   2.875   4.415   2.653  0.2642  0.3770 -0.3891
 2354TIP3    H1 7068   2.883   4.328   2.614  1.4980  0.0266  0.5698
 2354TIP3    H2 7069   2.867   4.474   2.578  2.4635 -0.2895 -1.2507
 2355TIP3   OH2 7070   4.027   1.519   0.602 -0.3577 -0.1550 -0.1406
 2355TIP3    H1 7071   3.979   1.482   0.676  0.8852  1.9025  1.8135
 2355TIP3    H2 7072   4.071   1.596   0.638  4.0128 -1.5497 -1.8802
 2356TIP3   OH2 7073   4.134   2.387   2.940  0.2832  0.0541 -0.2490
 2356TIP3    H1 7074   4.208   2.331   2.917  0.5787 -0.7606  2.3309
 2356TIP3    H2 7075   4.062   2.355   2.886  1.1553 -0.9557 -0.8409
 2357TIP3   OH2 7076   4.345   5.395   2.066  0.0041 -0.2198  0.0478
 2357TIP3    H1 7077   4.347   5.306   2.031 -0.2160  0.3593 -1.4954
 2357TIP3    H2 7078   4.267   5.398   2.120 -0.1806 -0.8604 -0.1724
 2358TIP3   OH2 7079   1.972   0.499   3.946 -0.3550  0.1593  0.2478
 2358TIP3    H1 7080   1.906   0.475   3.881 -0.7192 -0.5933  0.8746
 2358TIP3    H2 7081   2.003   0.585   3.918  0.0083 -0.4459 -1.3167
 2359TIP3   OH2 7082   4.666   5.674   0.731  0.1605 -1.3944 -0.0579
 2359TIP3    H1 7083   4.694   5.609   0.667  0.5481 -0.8400 -0.4659
 2359TIP3    H2 7084   4.736   5.676   0.796  0.1734 -1.3491 -0.0729
 2360TIP3   OH2 7085   5.900   2.896   2.874  0.4436  0.0182  0.5978
 2360TIP3    H1 7086   5.860   2.817   2.910  0.2886 -1.2444 -2.1422
 2360TIP3    H2 7087   5.986   2.868   2.845 -1.0908 -0.4735 -4.3299
 2361TIP3   OH2 7088   2.786   0.385   1.574 -0.2434 -0.1413 -0.0793
 2361TIP3    H1 7089   2.833   0.302   1.563  1.9824  1.0574 -0.3570
 2361TIP3    H2 7090   2.855   0.451   1.566 -1.3648  1.6406  3.2556
 2362TIP3   OH2 7091   5.683   3.110   4.778 -0.0773  0.0812 -0.0418
 2362TIP3    H1 7092   5.741   3.134   4.851 -0.4630  0.3977  0.1615
 2362TIP3    H2 7093   5.611   3.061   4.819 -0.7935  1.0880 -0.0816
 2363TIP3   OH2 7094   6.292   1.328   1.153 -0.4862  0.2389 -0.4839
 2363TIP3    H1 7095   6.226   1.282   1.205  0.0441 -0.2504 -0.2352
 2363TIP3    H2 7096   6.334   1.387   1.215 -0.2327  0.0581 -0.4810
 2364TIP3   OH2 7097   0.548   2.866   1.735 -0.2307  0.0378 -0.4397
 2364TIP3    H1 7098   0.615   2.798   1.734 -1.0516 -0.8405 -2.5780
 2364TIP3    H2 7099   0.469   2.821   1.766  0.0228  0.9726  1.7054
 2365TIP3   OH2 7100   4.793   2.257   2.804  0.5945 -0.3760  0.7179
 2365TIP3    H1 7101   4.801   2.316   2.879 -3.0739  2.5924 -0.8969
 2365TIP3    H2 7102   4.726   2.194   2.830  0.6711 -0.5184  0.5717
 2366TIP3   OH2 7103   3.421   5.916   0.931 -0.0076 -0.1338  0.6787
 2366TIP3    H1 7104   3.391   5.829   0.905 -2.1699  0.4948  0.9217
 2366TIP3    H2 7105   3.416   5.915   1.027 -1.6770  0.7653  0.6299
 2367TIP3   OH2 7106   5.323   3.398   0.019  0.7423 -0.0622  0.2195
 2367TIP3    H1 7107   5.254   3.333   0.004  1.4547 -0.7095 -0.2970
 2367TIP3    H2 7108   5.405   3.351   0.003  1.3095  0.7206  0.7393
 2368TIP3   OH2 7109   2.040   0.367   2.483 -0.1756  0.2853 -0.3852
 2368TIP3    H1 7110   2.045   0.458   2.512 -0.1712  0.3468 -0.5823
 2368TIP3    H2 7111   2.074   0.317   2.558  2.3178  0.6056 -1.2141
 2369TIP3   OH2 7112   4.280   0.251   4.220  0.2100 -0.7186  0.1240
 2369TIP3    H1 7113   4.201   0.251   4.275 -0.5022 -2.9302 -0.7620
 2369TIP3    H2 7114   4.252   0.295   4.139  0.3609 -0.1101  0.4017
 2370TIP3   OH2 7115   2.895   2.670   3.964  0.5815 -0.5846  0.0624
 2370TIP3    H1 7116   2.813   2.651   3.918  0.9628  0.3397 -1.0393
 2370TIP3    H2 7117   2.887   2.624   4.048 -1.3294 -0.0087  0.2441
 2371TIP3   OH2 7118   2.532   1.571   2.947 -0.0729 -0.0942 -0.2736
 2371TIP3    H1 7119   2.514   1.499   3.008 -0.2027  0.4383  0.3256
 2371TIP3    H2 7120   2.613   1.546   2.904  0.8838  0.2359  1.2529
 2372TIP3   OH2 7121   2.991   3.817   3.623 -0.2468  0.2799 -0.1782
 2372TIP3    H1 7122   3.023   3.810   3.713  0.4682 -0.5015 -0.4752
 2372TIP3    H2 7123   3.016   3.905   3.596 -0.1326  0.3884  0.2713
 2373TIP3   OH2 7124   0.559   2.193   1.363 -0.4655 -0.2932 -0.1007
 2373TIP3    H1 7125   0.625   2.257   1.336 -2.3024  1.0823 -1.6131
 2373TIP3    H2 7126   0.553   2.203   1.458  0.4998  0.5458 -0.1098
 2374TIP3   OH2 7127   3.457   4.737   1.675  0.4438  0.0301 -0.1526
 2374TIP3    H1 7128   3.398   4.810   1.657 -0.8816 -0.8461  0.5089
 2374TIP3    H2 7129   3.531   4.777   1.722  1.2587  1.4173 -2.4559
 2375TIP3   OH2 7130   1.181   5.196   1.167  0.0162 -0.6734 -0.1243
 2375TIP3    H1 7131   1.143   5.238   1.090  1.0298  0.7226  0.1154
 2375TIP3    H2 7132   1.105   5.166   1.217 -0.8367  1.9857  0.3157
 2376TIP3   OH2 7133   4.694   3.982   0.473  0.1856  0.1021  0.3124
 2376TIP3    H1 7134   4.656   3.894   0.474  1.2048 -0.3795 -0.4838
 2376TIP3    H2 7135   4.674   4.015   0.385 -2.0803  1.5767  1.3058
 2377TIP3   OH2 7136   5.311   0.766   4.066  0.6497 -0.1306 -0.0360
 2377TIP3    H1 7137   5.376   0.798   4.003 -0.5280  0.4873 -0.9738
 2377TIP3    H2 7138   5.303   0.673   4.045  0.4673  0.0112 -0.6239
 2378TIP3   OH2 7139   5.635   2.111   4.118 -0.3085 -0.2470  0.2281
 2378TIP3    H1 7140   5.673   2.032   4.078  0.7584  1.4157 -2.2836
 2378TIP3    H2 7141   5.664   2.108   4.209  1.7134 -1.5852 -0.3893
 2379TIP3   OH2 7142   4.249   3.409   1.671  0.0619 -0.2591  0.2651
 2379TIP3    H1 7143   4.333   3.431   1.711  0.0146 -0.6800  0.6073
 2379TIP3    H2 7144   4.186   3.467   1.715  0.4397  1.5271 -1.4327
 2380TIP3   OH2 7145   0.912   1.723   1.167  0.7246 -0.2917 -0.3707
 2380TIP3    H1 7146   0.830   1.739   1.214 -0.7404 -0.8111 -2.6084
 2380TIP3    H2 7147   0.940   1.810   1.138  1.1093 -0.0943  0.5348
 2381TIP3   OH2 7148   3.647   5.963   1.431 -0.0534 -0.1117 -0.1188
 2381TIP3    H1 7149   3.583   5.958   1.501  0.4740 -1.3055  0.2932
 2381TIP3    H2 7150   3.720   5.908   1.460  0.9859  0.8769 -0.7571
 2382TIP3   OH2 7151   2.040   3.843   4.896 -0.5366 -0.1228 -0.2143
 2382TIP3    H1 7152   1.949   3.874   4.899 -0.4223  0.1647  0.4562
 2382TIP3    H2 7153   2.060   3.837   4.802 -1.4125 -0.6958 -0.3847
 2383TIP3   OH2 7154   0.363   2.540   1.311  0.3606 -0.8405  0.3476
 2383TIP3    H1 7155   0.458   2.550   1.312  0.4041 -1.1584 -0.1939
 2383TIP3    H2 7156   0.333   2.594   1.384  0.9218 -0.3942  0.2609
 2384TIP3   OH2 7157   6.010   4.810   0.445 -0.3370  0.4870  0.0639
 2384TIP3    H1 7158   5.967   4.750   0.506 -1.6015  0.7395 -0.5398
 2384TIP3    H2 7159   5.996   4.770   0.359 -0.4563  1.2231 -0.2600
 2385TIP3   OH2 7160   2.531   3.996   3.641  0.2542  0.4477  0.0626
 2385TIP3    H1 7161   2.486   4.070   3.601  1.7536  1.2334 -0.2485
 2385TIP3    H2 7162   2.605   3.979   3.583 -0.0052 -1.2513  0.1791
 2386TIP3   OH2 7163   0.650   3.600   0.549  0.1055  0.0267 -0.2029
 2386TIP3    H1 7164   0.738   3.638   0.549 -0.9515  2.7295  1.3378
 2386TIP3    H2 7165   0.649   3.542   0.625  0.2030  1.0470  0.6041
 2387TIP3   OH2 7166   4.924   1.982   2.265 -0.0727 -0.1177  1.1469
 2387TIP3    H1 7167   4.919   2.015   2.175 -0.3853  1.5480  1.7520
 2387TIP3    H2 7168   4.847   1.925   2.273  1.3773 -2.4822 -0.4282
 2388TIP3   OH2 7169   2.898   4.560   2.419 -0.2780 -0.3567 -0.8872
 2388TIP3    H1 7170   2.914   4.524   2.331  0.4610  0.0695 -0.9356
 2388TIP3    H2 7171   2.951   4.640   2.422  0.2456 -0.7274  0.1923
 2389TIP3   OH2 7172   1.805   3.163   2.913  0.4136 -0.4384  0.7593
 2389TIP3    H1 7173   1.791   3.129   3.002  1.0959 -0.7727  0.7437
 2389TIP3    H2 7174   1.753   3.243   2.910 -0.4441 -0.9600  1.1220
 2390TIP3   OH2 7175   0.366   2.242   0.667 -0.5520  0.3093  0.3656
 2390TIP3    H1 7176   0.327   2.309   0.723 -1.0321  1.8327 -1.6777
 2390TIP3    H2 7177   0.326   2.256   0.581 -1.8197 -3.5441  0.1024
 2391TIP3   OH2 7178   4.981   0.717   2.288 -0.3155 -0.2927  0.1483
 2391TIP3    H1 7179   4.979   0.811   2.308 -1.0266 -0.1157 -0.7016
 2391TIP3    H2 7180   5.058   0.685   2.335 -0.9558  0.4035  1.7507
 2392TIP3   OH2 7181   0.831   4.388   2.889 -0.2269  0.0102 -0.3048
 2392TIP3    H1 7182   0.850   4.447   2.962  2.1685 -0.5971 -0.3604
 2392TIP3    H2 7183   0.909   4.391   2.835 -1.5617 -0.3188 -2.3540
 2393TIP3   OH2 7184   4.775   1.625   3.893  0.1064 -0.3593  0.1626
 2393TIP3    H1 7185   4.721   1.586   3.825  0.2403 -1.2250  0.5441
 2393TIP3    H2 7186   4.712   1.664   3.954  0.0009  1.2722 -0.9176
 2394TIP3   OH2 7187   1.034   4.411   1.109 -0.4563  0.4715 -0.7992
 2394TIP3    H1 7188   0.969   4.355   1.066  2.8591 -3.8392 -0.8569
 2394TIP3    H2 7189   1.037   4.380   1.199  0.5351  1.6257 -0.4002
 2395TIP3   OH2 7190   3.181   1.227   2.115 -0.0052  0.1374  0.1688
 2395TIP3    H1 7191   3.115   1.255   2.051 -1.1747 -1.7240  0.5125
 2395TIP3    H2 7192   3.221   1.309   2.144 -1.5408  1.2553 -0.7029
 2396TIP3   OH2 7193   4.127   0.636   4.004 -0.5114  0.4667 -0.8165
 2396TIP3    H1 7194   4.157   0.715   3.959  0.4530  0.1719 -0.7033
 2396TIP3    H2 7195   4.204   0.580   4.009 -0.5721  0.4683  1.1444
 2397TIP3   OH2 7196   5.528   1.325   2.545  0.0593 -0.1352  0.1472
 2397TIP3    H1 7197   5.465   1.278   2.600  1.5729 -2.2377  0.2099
 2397TIP3    H2 7198   5.510   1.418   2.562 -0.8576 -0.6866  2.6523
 2398TIP3   OH2 7199   5.739   2.136   2.488 -0.1969 -0.0086  0.2247
 2398TIP3    H1 7200   5.744   2.185   2.570 -0.7892 -0.3936  0.4967
 2398TIP3    H2 7201   5.780   2.194   2.423 -0.9483  0.8932  0.5202
 2399TIP3   OH2 7202   1.154   2.632   2.409  0.4787 -0.2141  0.1454
 2399TIP3    H1 7203   1.186   2.659   2.324  0.0903 -0.3396 -0.0421
 2399TIP3    H2 7204   1.215   2.564   2.437  0.4609 -0.3514 -0.1457
 2400TIP3   OH2 7205   0.875   1.961   2.726 -0.3643 -0.3130  0.2297
 2400TIP3    H1 7206   0.892   1.867   2.723  0.0552 -0.3008  1.5645
 2400TIP3    H2 7207   0.905   1.988   2.813  0.9532  1.3341 -0.6795
 2401TIP3   OH2 7208   1.478   3.069   3.646  0.2033 -0.3914  0.3359
 2401TIP3    H1 7209   1.450   3.069   3.554  0.7296  1.9066  0.1369
 2401TIP3    H2 7210   1.397   3.054   3.695 -0.2672 -0.4796 -0.4470
 2402TIP3   OH2 7211   3.266   5.568   3.476 -0.3791 -0.0405 -0.5308
 2402TIP3    H1 7212   3.348   5.541   3.435 -0.2741 -1.1723  0.3678
 2402TIP3    H2 7213   3.204   5.500   3.451 -0.7564  0.2108 -0.2818
 2403TIP3   OH2 7214   4.107   0.275   4.861  0.5616 -0.6570  0.2344
 2403TIP3    H1 7215   4.109   0.371   4.858  0.9609 -0.5595  2.2172
 2403TIP3    H2 7216   4.191   0.248   4.823  0.6658 -0.1932  0.1325
 2404TIP3   OH2 7217   0.975   2.043   2.968 -0.2321  0.0223  0.7773
 2404TIP3    H1 7218   0.948   2.039   3.060 -1.0340  1.2593  0.6275
 2404TIP3    H2 7219   1.056   1.993   2.964 -0.5570 -0.6347  2.0179
 2405TIP3   OH2 7220   1.275   3.178   4.905 -0.2437 -0.2078 -0.4213
 2405TIP3    H1 7221   1.272   3.236   4.981 -1.4512 -0.7717 -0.0165
 2405TIP3    H2 7222   1.304   3.234   4.833 -1.5600  0.9631 -0.0850
 2406TIP3   OH2 7223   2.990   2.354   3.156 -0.5009  0.0471 -0.5108
 2406TIP3    H1 7224   2.984   2.413   3.231  1.0593 -0.6487  0.2094
 2406TIP3    H2 7225   3.026   2.407   3.085  0.8142  0.0039  0.1071
 2407TIP3   OH2 7226   1.170   2.283   3.203 -0.0471 -0.0789  0.1904
 2407TIP3    H1 7227   1.135   2.272   3.114  0.3828 -1.1620  0.1382
 2407TIP3    H2 7228   1.232   2.356   3.195 -0.2093  0.0086 -0.3455
 2408TIP3   OH2 7229   0.899   2.054   4.924  0.0812 -0.0929 -0.2626
 2408TIP3    H1 7230   0.847   2.116   4.976 -1.4201 -1.5681  0.0978
 2408TIP3    H2 7231   0.984   2.097   4.913 -0.9993  2.1617 -0.3489
 2409TIP3   OH2 7232   2.449   1.914   0.121 -0.2406 -0.2108 -0.0422
 2409TIP3    H1 7233   2.442   1.850   0.050  0.6307  0.9385 -1.2005
 2409TIP3    H2 7234   2.497   1.868   0.190  1.4588 -0.4554 -1.3261
 2410TIP3   OH2 7235   5.168   2.795   4.491 -0.1803  0.3494  0.2052
 2410TIP3    H1 7236   5.150   2.880   4.531  2.6351  0.9206  0.4243
 2410TIP3    H2 7237   5.217   2.815   4.411 -0.1455 -1.0469 -0.1574
 2411TIP3   OH2 7238   0.642   3.492   1.654 -0.1993 -0.3844 -0.2702
 2411TIP3    H1 7239   0.704   3.563   1.642 -0.4195 -0.1750 -0.1717
 2411TIP3    H2 7240   0.694   3.420   1.690 -0.0526 -0.1367  0.0208
 2412TIP3   OH2 7241   1.437   3.177   0.582 -0.1948 -0.4452  0.2939
 2412TIP3    H1 7242   1.436   3.271   0.563  0.4081 -0.7921 -1.6477
 2412TIP3    H2 7243   1.352   3.145   0.553  0.2774 -0.7774 -0.7866
 2413TIP3   OH2 7244   5.248   0.614   2.976  0.1949 -0.1583 -0.0303
 2413TIP3    H1 7245   5.304   0.536   2.979 -1.5328 -1.4505  0.1121
 2413TIP3    H2 7246   5.260   0.648   2.887  1.4399 -0.1814  0.1023
 2414TIP3   OH2 7247   3.103   1.867   0.187  0.8223 -0.1758 -0.1975
 2414TIP3    H1 7248   3.133   1.797   0.245  0.0039 -0.3148  0.0796
 2414TIP3    H2 7249   3.064   1.932   0.246  1.0593  0.2451 -0.5014
 2415TIP3   OH2 7250   2.818   0.803   4.014  0.0865  0.0298 -0.0075
 2415TIP3    H1 7251   2.854   0.868   4.074  2.2468  0.2850 -1.4616
 2415TIP3    H2 7252   2.821   0.845   3.928 -1.8128 -0.7506 -0.5190
 2416TIP3   OH2 7253   6.208   4.013   3.523  0.3317 -0.4564  0.3253
 2416TIP3    H1 7254   6.170   3.928   3.544  0.2653 -1.1353 -2.2249
 2416TIP3    H2 7255   6.286   3.992   3.470 -1.1257  0.9984 -2.6562
 2417TIP3   OH2 7256   1.355   3.053   2.576 -0.0066  0.0269 -0.2216
 2417TIP3    H1 7257   1.415   3.053   2.502 -0.1949 -0.8462 -0.3850
 2417TIP3    H2 7258   1.321   3.143   2.579  0.6723  0.3057 -0.6370
 2418TIP3   OH2 7259   5.872   3.803   5.155  0.5668 -0.6565  0.4987
 2418TIP3    H1 7260   5.807   3.758   5.209  0.1905 -0.8913 -0.1366
 2418TIP3    H2 7261   5.824   3.878   5.118  0.8298 -0.4776  0.5215
 2419TIP3   OH2 7262   6.188   5.377   0.043 -0.3585  0.0930 -0.2017
 2419TIP3    H1 7263   6.157   5.321   0.115  0.3115  0.5863  0.4867
 2419TIP3    H2 7264   6.265   5.422   0.079 -0.1177  0.4856 -1.1737
 2420TIP3   OH2 7265   5.953   3.061   3.906 -0.1798  0.5170  0.4525
 2420TIP3    H1 7266   6.019   3.027   3.845 -0.6176  0.1830  0.1604
 2420TIP3    H2 7267   5.979   3.025   3.991  0.5696  1.1798  0.5108
 2421TIP3   OH2 7268   5.300   3.300   3.617  0.1207  0.0890 -0.4509
 2421TIP3    H1 7269   5.288   3.342   3.531  0.9773 -0.7024 -0.9682
 2421TIP3    H2 7270   5.394   3.306   3.634 -0.1563  1.0060  0.8466
 2422TIP3   OH2 7271   5.788   4.375   4.867  0.0462  0.3749 -0.4554
 2422TIP3    H1 7272   5.785   4.419   4.782 -0.9578  1.7787  0.2694
 2422TIP3    H2 7273   5.697   4.372   4.896 -0.0691 -2.9415 -0.7716
 2423TIP3   OH2 7274   0.344   1.093   5.065 -0.6166  0.1467 -0.3453
 2423TIP3    H1 7275   0.272   1.147   5.097  0.3022 -0.5728  3.4574
 2423TIP3    H2 7276   0.411   1.156   5.038 -1.3130  0.8479 -0.4603
 2424TIP3   OH2 7277   0.445   3.300   1.719 -0.2012 -0.1327 -0.1332
 2424TIP3    H1 7278   0.441   3.293   1.814 -0.5555 -0.1223 -0.1459
 2424TIP3    H2 7279   0.497   3.380   1.703 -0.6362  0.1886  0.0561
 2425TIP3   OH2 7280   3.882   5.307   4.588  0.4324 -0.6517 -0.4667
 2425TIP3    H1 7281   3.916   5.304   4.498  0.4435  0.4811 -0.5079
 2425TIP3    H2 7282   3.960   5.304   4.643  0.4122 -1.6533 -0.4781
 2426TIP3   OH2 7283   4.012   0.109   2.184  0.5612  0.5282 -0.0868
 2426TIP3    H1 7284   4.005   0.196   2.147  1.0479 -0.5921 -3.0457
 2426TIP3    H2 7285   3.956   0.112   2.262 -0.5856  3.0334 -0.9007
 2427TIP3   OH2 7286   0.926   2.408   0.796  0.0309 -0.6699 -0.0611
 2427TIP3    H1 7287   0.945   2.497   0.768 -0.4979 -0.8796 -1.1458
 2427TIP3    H2 7288   1.006   2.380   0.841  0.6083 -0.0129 -0.6464
 2428TIP3   OH2 7289   6.038   0.545   4.446  0.3788  0.4622 -0.3155
 2428TIP3    H1 7290   6.017   0.577   4.534  2.2787  0.8224  0.0584
 2428TIP3    H2 7291   6.035   0.450   4.453  0.9207  0.4835  0.2522
 2429TIP3   OH2 7292   0.287   2.548   1.036  0.0433  0.6200 -0.7270
 2429TIP3    H1 7293   0.294   2.564   1.130  0.7661  0.4743 -0.7473
 2429TIP3    H2 7294   0.362   2.595   0.999  0.6898 -0.6545 -1.0620
 2430TIP3   OH2 7295   3.396   2.954   0.288  0.0765  0.1559  0.1582
 2430TIP3    H1 7296   3.409   2.863   0.314 -0.6714  0.2538  0.9453
 2430TIP3    H2 7297   3.312   2.954   0.242 -0.8019  0.6941  1.6740
 2431TIP3   OH2 7298   5.346   0.482   4.066  0.9991  0.2239  0.1520
 2431TIP3    H1 7299   5.383   0.453   4.150  0.2013  0.2414  0.5254
 2431TIP3    H2 7300   5.390   0.429   4.000 -0.4728 -1.9376  0.8161
 2432TIP3   OH2 7301   0.067   3.222   2.109  0.1875 -0.6427 -0.3432
 2432TIP3    H1 7302   0.106   3.167   2.177 -0.6606 -0.8910 -0.0506
 2432TIP3    H2 7303  -0.023   3.236   2.138  0.4535  1.1116 -0.2992
 2433TIP3   OH2 7304   5.324   1.689   3.806 -0.1346  0.0331 -0.1472
 2433TIP3    H1 7305   5.329   1.777   3.770 -1.4805 -0.1161 -0.7396
 2433TIP3    H2 7306   5.258   1.695   3.875 -0.7004 -0.6380 -0.6146
 2434TIP3   OH2 7307   5.466   4.642   2.779 -0.0049 -0.0225 -0.3660
 2434TIP3    H1 7308   5.441   4.733   2.762  1.0291  0.2013 -0.7636
 2434TIP3    H2 7309   5.559   4.647   2.800 -0.3803 -0.7529  1.6601
 2435TIP3   OH2 7310   3.771   2.036   2.602  0.1176  0.0572 -0.1103
 2435TIP3    H1 7311   3.744   1.989   2.681  0.5401 -0.7143 -0.4210
 2435TIP3    H2 7312   3.728   2.122   2.610 -0.6526 -0.3671  0.4639
 2436TIP3   OH2 7313   3.053   3.212   5.032  0.7099 -0.8588  0.3305
 2436TIP3    H1 7314   3.136   3.259   5.037 -0.6430  1.8695 -0.5923
 2436TIP3    H2 7315   3.002   3.260   4.966 -2.6704 -0.5730  2.8860
 2437TIP3   OH2 7316   3.157   1.729   0.427 -0.4142  0.4113 -0.1972
 2437TIP3    H1 7317   3.232   1.753   0.482 -0.5440 -1.6549  0.9964
 2437TIP3    H2 7318   3.082   1.773   0.469 -0.1312  0.9991 -0.3044
 2438TIP3   OH2 7319   1.362   3.757   2.352 -0.2285  0.2304 -0.1349
 2438TIP3    H1 7320   1.340   3.687   2.414  0.0735  0.6496  0.4465
 2438TIP3    H2 7321   1.306   3.830   2.378  0.5074  0.6894  0.1893
 2439TIP3   OH2 7322   3.320   5.363   1.382 -0.1711 -0.0618 -0.2815
 2439TIP3    H1 7323   3.412   5.387   1.374 -0.4051  0.8248 -0.4360
 2439TIP3    H2 7324   3.277   5.408   1.309 -1.0272  1.2416  0.9597
 2440TIP3   OH2 7325   2.800   2.222   2.005  0.0417 -0.1608 -0.6534
 2440TIP3    H1 7326   2.871   2.267   2.050  0.0085  1.2802 -1.9387
 2440TIP3    H2 7327   2.772   2.154   2.066  1.9396 -0.2196  0.2313
 2441TIP3   OH2 7328   4.320   2.430   5.043  0.2215 -0.0735  0.3549
 2441TIP3    H1 7329   4.291   2.511   4.999 -0.6284  0.1081  1.2158
 2441TIP3    H2 7330   4.299   2.444   5.135 -0.6914 -1.5906  0.4086
 2442TIP3   OH2 7331   3.706   5.370   0.581  0.2872 -0.2814  0.1606
 2442TIP3    H1 7332   3.773   5.390   0.646 -1.0862  0.2788  1.4866
 2442TIP3    H2 7333   3.680   5.280   0.599  0.8264 -0.5808 -0.5088
 2443TIP3   OH2 7334   0.833   3.999   2.977 -0.2800 -0.1259  0.1602
 2443TIP3    H1 7335   0.851   4.053   3.054 -0.0018 -0.0991  0.0774
 2443TIP3    H2 7336   0.908   4.013   2.920  0.5757 -1.8090  0.8002
 2444TIP3   OH2 7337   5.971   4.478   2.492  0.1378  0.1819 -0.1844
 2444TIP3    H1 7338   5.947   4.537   2.421  1.8669  0.9562 -0.1821
 2444TIP3    H2 7339   5.952   4.528   2.572  0.1174  0.1213 -0.1517
 2445TIP3   OH2 7340   3.765   5.986   0.438 -0.1495 -0.4066  0.4411
 2445TIP3    H1 7341   3.698   5.978   0.506  1.2410 -0.4657  1.8656
 2445TIP3    H2 7342   3.727   5.943   0.362 -2.5319  1.3346  0.5599
 2446TIP3   OH2 7343   4.353   0.185   3.169  1.1368  0.1793 -0.0695
 2446TIP3    H1 7344   4.266   0.193   3.207  0.7669  0.2940 -0.9173
 2446TIP3    H2 7345   4.354   0.249   3.098  2.0809  0.5157  0.2305
 2447TIP3   OH2 7346   5.829   5.311   3.088  0.1690 -0.2756 -0.0874
 2447TIP3    H1 7347   5.895   5.316   3.157 -0.2467 -0.3030  0.3082
 2447TIP3    H2 7348   5.830   5.397   3.047  1.5363 -0.7199 -1.0902
 2448TIP3   OH2 7349   2.788   1.159   0.036 -0.1634  0.3298  0.2586
 2448TIP3    H1 7350   2.724   1.095   0.006  0.5294 -0.6851  0.8816
 2448TIP3    H2 7351   2.757   1.184   0.124  0.1499  0.0367  0.4525
 2449TIP3   OH2 7352   4.073   1.765   1.155 -0.4342  0.7204 -0.1676
 2449TIP3    H1 7353   3.983   1.787   1.131 -0.1127  0.8503 -1.3069
 2449TIP3    H2 7354   4.086   1.676   1.122 -0.4957  0.2354  1.0319
 2450TIP3   OH2 7355   5.001   1.775   2.502  0.6064 -0.4247  0.1279
 2450TIP3    H1 7356   4.959   1.838   2.442 -1.0611 -0.3665  1.2795
 2450TIP3    H2 7357   5.032   1.828   2.575  0.0803 -0.7924  0.6343
 2451TIP3   OH2 7358   0.317   5.622   3.286 -0.2474 -0.1684  0.4776
 2451TIP3    H1 7359   0.353   5.573   3.213  0.7281  1.2531 -0.0483
 2451TIP3    H2 7360   0.224   5.631   3.266  0.2711  1.5285 -1.4286
 2452TIP3   OH2 7361   4.525   4.200   1.303 -0.0246  0.4154 -0.2352
 2452TIP3    H1 7362   4.550   4.173   1.391 -1.1415  0.8936  0.2514
 2452TIP3    H2 7363   4.601   4.180   1.249  0.3680 -0.6570  0.6834
 2453TIP3   OH2 7364   0.719   2.570   4.704 -0.3037 -0.6788 -0.1458
 2453TIP3    H1 7365   0.687   2.568   4.794  0.7988  0.4000  0.2944
 2453TIP3    H2 7366   0.640   2.567   4.650 -0.9880 -1.0897  0.8539
 2454TIP3   OH2 7367   5.527   4.124   0.459 -0.1054 -0.2399  0.4645
 2454TIP3    H1 7368   5.606   4.069   0.463  0.1312 -0.1881 -1.8906
 2454TIP3    H2 7369   5.462   4.071   0.413 -1.5029 -0.2875  2.3907
 2455TIP3   OH2 7370   5.375   1.445   5.008  0.1827 -0.1236 -0.1995
 2455TIP3    H1 7371   5.455   1.486   5.040  0.1377  0.3122 -0.6433
 2455TIP3    H2 7372   5.307   1.510   5.025 -0.2513 -0.8679  1.0654
 2456TIP3   OH2 7373   2.938   2.426   4.442 -0.6285  0.2509  0.3928
 2456TIP3    H1 7374   2.898   2.449   4.358 -0.4164  0.5705  0.3754
 2456TIP3    H2 7375   2.867   2.430   4.505 -0.7581  0.1584  0.2537
 2457TIP3   OH2 7376   3.912   4.476   1.099 -0.9084  0.1371  0.4793
 2457TIP3    H1 7377   3.901   4.498   1.191 -0.8480  0.5084  0.3990
 2457TIP3    H2 7378   3.935   4.383   1.099  1.1906  0.5942  0.9797
 2458TIP3   OH2 7379   6.083   4.448   0.553  0.7152 -0.2799  0.6182
 2458TIP3    H1 7380   6.179   4.439   0.552  0.6668 -0.8820 -0.0441
 2458TIP3    H2 7381   6.057   4.431   0.462  0.0419  0.6982  0.6209
 2459TIP3   OH2 7382   2.680   3.610   2.405 -0.1758  0.1729  0.3928
 2459TIP3    H1 7383   2.692   3.663   2.484 -0.2653  0.1554  0.4182
 2459TIP3    H2 7384   2.720   3.526   2.426  1.5466  0.7812 -0.2603
 2460TIP3   OH2 7385   2.023   1.829   4.502 -0.0240  0.0874  0.5313
 2460TIP3    H1 7386   2.085   1.820   4.430 -1.0761 -0.8813 -0.2788
 2460TIP3    H2 7387   2.071   1.880   4.568  0.4080  2.4532 -1.4645
 2461TIP3   OH2 7388   2.361   5.850   4.337  0.1528  0.1526 -0.7561
 2461TIP3    H1 7389   2.363   5.914   4.267  1.0353  1.5811  0.5116
 2461TIP3    H2 7390   2.338   5.768   4.294 -0.6212  1.2205 -2.4882
 2462TIP3   OH2 7391   5.909   1.259   2.971 -0.9115 -0.2334 -0.0897
 2462TIP3    H1 7392   5.897   1.301   3.056  0.1091  0.0334 -0.0662
 2462TIP3    H2 7393   5.930   1.331   2.911 -1.7145 -0.4063 -0.6006
 2463TIP3   OH2 7394   5.815   3.359   0.425  0.1462 -0.3068 -0.1231
 2463TIP3    H1 7395   5.874   3.400   0.362 -1.1394 -0.7556 -1.7151
 2463TIP3    H2 7396   5.767   3.432   0.464  0.0248 -0.0970 -0.6561
 2464TIP3   OH2 7397   4.500   2.375   4.828  0.1897 -0.1429  0.1332
 2464TIP3    H1 7398   4.442   2.304   4.800  1.4546 -1.3060  0.3583
 2464TIP3    H2 7399   4.467   2.401   4.914 -0.8143  0.1705 -0.3287
 2465TIP3   OH2 7400   2.784   2.884   1.549  0.5644 -0.0483 -0.0240
 2465TIP3    H1 7401   2.878   2.898   1.536  0.4265  0.4319 -0.5429
 2465TIP3    H2 7402   2.766   2.919   1.636  0.9693 -0.6715  0.3191
 2466TIP3   OH2 7403   4.103   2.516   4.050  0.2085  0.1402  0.7430
 2466TIP3    H1 7404   4.135   2.558   3.970 -0.4863  0.1617  0.4723
 2466TIP3    H2 7405   4.139   2.427   4.045  1.2632  0.5310  1.0700
 2467TIP3   OH2 7406   5.185   5.365   4.455  0.0401 -0.5463  0.3555
 2467TIP3    H1 7407   5.199   5.391   4.546  0.2931  1.0437 -0.0978
 2467TIP3    H2 7408   5.098   5.324   4.454 -0.8025  1.1392  1.0083
 2468TIP3   OH2 7409   5.516   5.922   4.059 -0.5758 -0.4791  0.4909
 2468TIP3    H1 7410   5.494   5.828   4.064  0.3072 -0.7105  0.1557
 2468TIP3    H2 7411   5.607   5.926   4.087 -0.2478  0.1410 -0.6381
 2469TIP3   OH2 7412   1.828   2.823   3.053  0.5521  0.4661 -0.5183
 2469TIP3    H1 7413   1.912   2.867   3.044  0.0351  1.6245  0.1209
 2469TIP3    H2 7414   1.766   2.893   3.074 -0.3899 -0.4976  0.0171
 2470TIP3   OH2 7415   3.544   1.858   1.374 -0.6014  0.4194  0.1305
 2470TIP3    H1 7416   3.571   1.933   1.321 -1.8630  1.1885  0.5313
 2470TIP3    H2 7417   3.603   1.860   1.449  0.6753 -0.2034 -0.8202
 2471TIP3   OH2 7418   3.828   1.642   2.951 -0.3391  0.4724 -0.2525
 2471TIP3    H1 7419   3.857   1.552   2.965 -1.1285  0.4779  1.6679
 2471TIP3    H2 7420   3.752   1.634   2.894  0.4595  0.0806 -1.3095
 2472TIP3   OH2 7421   2.512   1.785   0.354 -0.0223 -0.3319 -0.0125
 2472TIP3    H1 7422   2.424   1.781   0.390  0.4988 -0.7892  1.2992
 2472TIP3    H2 7423   2.568   1.752   0.425  1.1988 -0.0282 -0.8015
 2473TIP3   OH2 7424   1.482   5.489   0.094  0.1652 -0.0286  0.2490
 2473TIP3    H1 7425   1.546   5.511   0.026  0.2556  0.7473  0.5689
 2473TIP3    H2 7426   1.495   5.396   0.112 -1.6000 -0.9940 -2.6625
 2474TIP3   OH2 7427   0.063   1.393   2.177  0.4788 -0.3428 -0.0319
 2474TIP3    H1 7428   0.008   1.465   2.146  0.2792 -0.6078 -0.3107
 2474TIP3    H2 7429   0.017   1.359   2.253  1.0092  0.3588  0.6130
 2475TIP3   OH2 7430   0.984   3.096   4.079  0.3586 -0.9373  0.1315
 2475TIP3    H1 7431   1.035   3.015   4.077  2.3366  0.1461  2.1855
 2475TIP3    H2 7432   0.942   3.096   4.166  1.5238  0.8238  0.7535
 2476TIP3   OH2 7433   4.068   3.224   2.998 -0.2906  1.0436  0.8231
 2476TIP3    H1 7434   4.029   3.184   2.921 -0.1315  2.0128  0.2223
 2476TIP3    H2 7435   4.144   3.169   3.018 -1.0100  0.1042  1.0149
 2477TIP3   OH2 7436   1.502   3.788   3.803  0.0392  0.0844  0.7907
 2477TIP3    H1 7437   1.542   3.851   3.744 -0.8967 -1.5728 -1.7695
 2477TIP3    H2 7438   1.409   3.791   3.782 -0.7621  1.1319  3.9431
 2478TIP3   OH2 7439   1.485   2.416   0.535 -0.4388  0.2957 -0.1083
 2478TIP3    H1 7440   1.512   2.465   0.458  0.7695 -2.5234 -1.6197
 2478TIP3    H2 7441   1.564   2.413   0.590 -0.3573 -0.3300 -0.2538
 2479TIP3   OH2 7442   3.083   5.074   1.680  0.7160  0.0813 -0.3013
 2479TIP3    H1 7443   3.135   5.149   1.651  0.7006 -0.0149 -0.5814
 2479TIP3    H2 7444   3.130   4.998   1.644  1.4359 -0.1294  1.0215
 2480TIP3   OH2 7445   4.689   0.006   0.510 -0.3578 -0.6097  0.2947
 2480TIP3    H1 7446   4.630   0.013   0.435  2.0224  0.8418 -1.5912
 2480TIP3    H2 7447   4.668   0.082   0.564 -0.8296 -0.6411  0.1647
 2481TIP3   OH2 7448   3.321   4.968   1.579 -0.2123 -0.2743  0.1669
 2481TIP3    H1 7449   3.290   4.941   1.492  1.5204  2.2616 -1.3832
 2481TIP3    H2 7450   3.391   5.030   1.561  0.8553 -0.3490  3.4491
 2482TIP3   OH2 7451   4.960   4.599   2.000  0.5495 -0.6337  0.3122
 2482TIP3    H1 7452   4.955   4.682   1.953  0.9586 -0.9810 -0.3634
 2482TIP3    H2 7453   4.895   4.543   1.958  0.4247 -0.7178  0.6207
 2483TIP3   OH2 7454   1.955   1.574   2.759  0.1124 -0.4406 -0.3349
 2483TIP3    H1 7455   1.990   1.596   2.673  1.2684 -0.6747  0.0439
 2483TIP3    H2 7456   2.003   1.494   2.784 -0.0945 -0.2922  0.5747
 2484TIP3   OH2 7457   3.111   5.190   1.956  0.2450 -0.1522 -0.1855
 2484TIP3    H1 7458   3.198   5.213   1.924  0.7553 -3.6906 -1.9028
 2484TIP3    H2 7459   3.060   5.172   1.877 -0.7197 -2.0953  0.7991
 2485TIP3   OH2 7460   0.356   4.137   1.078  0.7505  0.2415 -0.1130
 2485TIP3    H1 7461   0.396   4.087   1.007  0.0001 -0.1219 -0.2897
 2485TIP3    H2 7462   0.374   4.085   1.156  0.2618 -0.1412 -0.2506
 2486TIP3   OH2 7463   2.038   3.868   2.468 -0.1507 -0.2816 -0.7060
 2486TIP3    H1 7464   2.062   3.941   2.525 -0.9505  1.0480 -2.0082
 2486TIP3    H2 7465   1.996   3.805   2.527  0.4334  0.3473  0.4227
 2487TIP3   OH2 7466   5.030   2.089   3.490  0.2615  0.6180  0.2292
 2487TIP3    H1 7467   5.090   2.137   3.432 -1.1557  2.0867 -0.1089
 2487TIP3    H2 7468   5.073   2.090   3.576  0.9196  1.2440 -0.0970
 2488TIP3   OH2 7469   1.712   3.089   3.170  0.1522  0.7762 -0.3152
 2488TIP3    H1 7470   1.651   3.030   3.215  0.0523  0.6107 -0.6652
 2488TIP3    H2 7471   1.776   3.112   3.237 -1.6905  2.9997  0.8279
 2489TIP3   OH2 7472   4.481   5.707   3.336 -0.4219 -0.3549  0.2140
 2489TIP3    H1 7473   4.557   5.650   3.325 -1.0404 -1.0634 -0.4808
 2489TIP3    H2 7474   4.498   5.754   3.418  0.5225 -0.8680  0.3264
 2490TIP3   OH2 7475   6.177   4.028   5.000  0.5882  0.0294  0.1173
 2490TIP3    H1 7476   6.206   4.030   4.909 -0.1909  0.4476 -0.1279
 2490TIP3    H2 7477   6.089   4.065   4.999  0.3737 -0.4125  0.9752
 2491TIP3   OH2 7478   5.832   5.431   0.921  0.0370  0.2486 -0.0433
 2491TIP3    H1 7479   5.851   5.369   0.991  1.0620 -0.7700 -1.1810
 2491TIP3    H2 7480   5.798   5.508   0.966 -2.6242 -1.5856  1.3451
 2492TIP3   OH2 7481   5.464   5.561   4.587 -0.5572  1.3770 -0.0882
 2492TIP3    H1 7482   5.460   5.554   4.683  4.0104  0.5330  0.2696
 2492TIP3    H2 7483   5.413   5.485   4.556  0.7876 -0.4566  1.8597
 2493TIP3   OH2 7484   0.077   5.880   1.484 -0.0923 -0.1344 -0.6905
 2493TIP3    H1 7485   0.089   5.822   1.559 -0.7735 -0.3352 -0.7311
 2493TIP3    H2 7486   0.087   5.968   1.520 -2.3446 -0.1269  0.0676
 2494TIP3   OH2 7487   6.269   5.628   4.258  0.2667 -0.2792  0.1654
 2494TIP3    H1 7488   6.320   5.685   4.314  0.0830 -2.9482  3.3338
 2494TIP3    H2 7489   6.333   5.572   4.215  0.3225  0.9703 -1.4828
 2495TIP3   OH2 7490   0.955   4.186   1.698  0.2603  0.1144 -0.2521
 2495TIP3    H1 7491   1.027   4.182   1.761  0.3000 -0.6378 -0.3445
 2495TIP3    H2 7492   0.884   4.227   1.746  0.7000  0.7378 -0.1161
 2496TIP3   OH2 7493   2.128   3.681   2.286  0.3192  0.5326  0.0454
 2496TIP3    H1 7494   2.219   3.662   2.311 -0.5161 -1.8044  1.6713
 2496TIP3    H2 7495   2.107   3.763   2.330  1.3581  0.6329  0.3764
 2497TIP3   OH2 7496   3.028   4.780   3.002 -0.5367 -0.0101  0.4356
 2497TIP3    H1 7497   3.080   4.718   2.951 -0.1537  1.5227 -1.1441
 2497TIP3    H2 7498   2.941   4.739   3.007 -0.8101  0.0661 -2.1648
 2498TIP3   OH2 7499   0.733   3.222   4.975  0.4449 -0.5434 -0.3375
 2498TIP3    H1 7500   0.691   3.214   4.890 -0.7950  2.8846 -0.2092
 2498TIP3    H2 7501   0.807   3.280   4.960 -0.6520  1.3409  1.0709
 2499TIP3   OH2 7502   4.572   0.071   1.715 -0.5279 -0.5277 -0.2301
 2499TIP3    H1 7503   4.564   0.081   1.809 -1.0195  0.0261 -0.3268
 2499TIP3    H2 7504   4.664   0.088   1.696 -0.3492 -1.0147  0.1896
 2500TIP3   OH2 7505   2.756   3.601   1.168  0.6393 -0.1021 -0.2256
 2500TIP3    H1 7506   2.755   3.671   1.103  0.7203 -0.6694 -0.8393
 2500TIP3    H2 7507   2.780   3.646   1.250 -0.1394  0.7300 -0.4314
 2501TIP3   OH2 7508   3.781   0.293   0.369 -0.0245  0.0748  0.1435
 2501TIP3    H1 7509   3.844   0.235   0.326 -1.1366  0.0231 -1.4969
 2501TIP3    H2 7510   3.753   0.244   0.446 -0.7600 -1.5345 -1.0675
 2502TIP3   OH2 7511   2.335   0.636   3.753  0.1595  0.6064 -0.0666
 2502TIP3    H1 7512   2.386   0.674   3.682  1.3957 -0.4087  0.2627
 2502TIP3    H2 7513   2.374   0.672   3.833  2.2432 -2.2156  0.3439
 2503TIP3   OH2 7514   5.003   5.691   4.333 -0.2183 -0.7638  0.4343
 2503TIP3    H1 7515   5.052   5.619   4.295  0.3546 -1.7391  2.8450
 2503TIP3    H2 7516   4.933   5.708   4.270  0.0896 -2.8839 -0.5739
 2504TIP3   OH2 7517   2.540   4.701   1.750 -0.0007  0.4579  0.3820
 2504TIP3    H1 7518   2.480   4.634   1.719 -0.9294  1.5891 -0.3477
 2504TIP3    H2 7519   2.504   4.729   1.834  0.4890 -0.0866  0.7731
 2505TIP3   OH2 7520   2.698   2.105   2.460  0.1799 -0.0476 -0.2148
 2505TIP3    H1 7521   2.618   2.147   2.429 -0.2130 -0.3311  0.4072
 2505TIP3    H2 7522   2.761   2.177   2.467 -0.2525  0.3114  0.0446
 2506TIP3   OH2 7523   5.668   4.568   1.194 -0.1712  0.0916 -0.4628
 2506TIP3    H1 7524   5.714   4.502   1.245 -1.7606 -0.4062  0.4064
 2506TIP3    H2 7525   5.677   4.539   1.103 -1.2205 -1.6223 -0.0651
 2507TIP3   OH2 7526   4.915   0.266   0.665 -0.3467  0.3926 -0.1147
 2507TIP3    H1 7527   4.841   0.298   0.614 -0.3047 -0.3710 -0.6814
 2507TIP3    H2 7528   4.968   0.216   0.602  0.9993  1.4618  0.1204
 2508TIP3   OH2 7529   2.061   5.125   0.568 -0.3719  0.9255 -0.0026
 2508TIP3    H1 7530   1.982   5.071   0.570 -0.0377  0.3368 -1.3410
 2508TIP3    H2 7531   2.131   5.068   0.600 -0.0681  0.5959 -1.1693
 2509TIP3   OH2 7532   1.832   5.084   2.767  0.4747 -0.0093 -0.0416
 2509TIP3    H1 7533   1.866   5.142   2.835 -1.6838 -0.1433  1.2474
 2509TIP3    H2 7534   1.775   5.140   2.714  0.5214 -0.3661 -0.4764
 2510TIP3   OH2 7535   0.300   4.473   0.210  0.2590 -0.4699  0.0152
 2510TIP3    H1 7536   0.357   4.488   0.285  0.7090 -0.9964 -0.2171
 2510TIP3    H2 7537   0.246   4.399   0.235 -0.2597 -0.0401  0.1918
 2511TIP3   OH2 7538   2.649   0.527   3.349  0.1132 -0.1302 -0.3282
 2511TIP3    H1 7539   2.691   0.580   3.281 -0.0497  0.8966  0.3415
 2511TIP3    H2 7540   2.717   0.514   3.415 -0.0043 -0.3095 -0.2420
 2512TIP3   OH2 7541   4.682   4.385   1.115  0.1778  0.1563  0.1984
 2512TIP3    H1 7542   4.637   4.337   1.046 -1.5018  1.3691  0.3938
 2512TIP3    H2 7543   4.733   4.452   1.069  0.3199 -0.0447  0.0633
 2513TIP3   OH2 7544   3.387   5.820   2.078  0.0169  0.0876 -0.2479
 2513TIP3    H1 7545   3.353   5.850   1.994  1.4120  0.5724 -0.6636
 2513TIP3    H2 7546   3.471   5.864   2.088 -0.8821  1.4832  2.2682
 2514TIP3   OH2 7547   2.984   1.293   1.934  0.0480  0.5027 -0.0276
 2514TIP3    H1 7548   2.941   1.377   1.948 -0.3530  0.0312  1.7936
 2514TIP3    H2 7549   2.922   1.243   1.881 -1.4113  0.1042  1.9252
 2515TIP3   OH2 7550   3.600   0.567   4.934 -0.4654  0.3797 -0.2079
 2515TIP3    H1 7551   3.682   0.542   4.892  0.2051 -0.3233  1.4273
 2515TIP3    H2 7552   3.542   0.492   4.921  0.5020 -0.8390  1.9883
 2516TIP3   OH2 7553   5.431   1.609   0.138  0.1109 -0.3982 -0.2482
 2516TIP3    H1 7554   5.448   1.523   0.099 -2.3297 -0.9960 -0.1654
 2516TIP3    H2 7555   5.337   1.624   0.123 -0.1673  0.9344  2.2998
 2517TIP3   OH2 7556   3.551   4.972   1.002 -0.1781  0.0073 -0.5349
 2517TIP3    H1 7557   3.456   4.978   1.007 -0.1433  0.6578 -0.5506
 2517TIP3    H2 7558   3.568   4.886   0.965 -0.7931  0.2298 -1.3606
 2518TIP3   OH2 7559   5.136   5.493   4.219  0.2213 -0.2304  0.0491
 2518TIP3    H1 7560   5.175   5.455   4.298 -2.0835 -0.2759  1.2413
 2518TIP3    H2 7561   5.085   5.422   4.180  1.0639 -0.1126 -1.3511
 2519TIP3   OH2 7562   0.498   0.437   3.613  1.1706 -0.0055  0.0081
 2519TIP3    H1 7563   0.442   0.389   3.675  0.6262 -1.5025 -1.5630
 2519TIP3    H2 7564   0.557   0.487   3.669 -1.5030  1.4388  1.7478
 2520TIP3   OH2 7565   3.413   4.438   2.161 -0.0206 -0.0406  0.6074
 2520TIP3    H1 7566   3.452   4.510   2.210  0.7930 -0.1229  0.0946
 2520TIP3    H2 7567   3.465   4.361   2.184  0.4745 -0.0503 -0.4971
 2521TIP3   OH2 7568   3.998   2.240   0.161 -0.3741 -0.0365  0.1542
 2521TIP3    H1 7569   3.927   2.177   0.148 -0.0689 -0.3404 -0.0590
 2521TIP3    H2 7570   4.005   2.249   0.256 -1.5724  1.0011  0.1719
 2522TIP3   OH2 7571   4.630   1.819   4.784 -0.4618  0.2429 -0.1276
 2522TIP3    H1 7572   4.563   1.881   4.756 -1.1429 -0.9877 -1.3283
 2522TIP3    H2 7573   4.713   1.865   4.767 -0.9320  2.0210  1.9627
 2523TIP3   OH2 7574   0.464   5.940   0.663  0.0131 -0.4434 -0.4456
 2523TIP3    H1 7575   0.500   5.857   0.690 -1.2519 -0.4072  1.5556
 2523TIP3    H2 7576   0.539   5.992   0.634  1.0213 -1.6722 -0.0749
 2524TIP3   OH2 7577   2.476   4.701   1.422 -0.2999 -0.0765  0.5667
 2524TIP3    H1 7578   2.490   4.780   1.474  0.1173  0.6055 -0.5548
 2524TIP3    H2 7579   2.468   4.631   1.487  0.2094  0.7501  1.5452
 2525TIP3   OH2 7580   6.056   5.201   2.009  0.0203 -0.1975 -0.2123
 2525TIP3    H1 7581   5.973   5.157   1.994 -0.5572  0.2708  1.3516
 2525TIP3    H2 7582   6.032   5.294   2.017  0.7019 -0.0385  0.0493
 2526TIP3   OH2 7583   4.606   5.328   3.264  0.1572 -0.2371 -0.2374
 2526TIP3    H1 7584   4.680   5.276   3.233 -0.2898 -0.3063 -1.2492
 2526TIP3    H2 7585   4.642   5.414   3.284  0.6617 -0.5320  0.1225
 2527TIP3   OH2 7586   0.892   5.020   3.487 -0.0756 -0.0848 -0.1406
 2527TIP3    H1 7587   0.798   5.007   3.475 -0.4310  2.3104 -0.4502
 2527TIP3    H2 7588   0.909   5.107   3.452  2.1612 -0.2040  0.4921
 2528TIP3   OH2 7589   4.740   2.962   2.451 -0.3535  0.8938 -0.4323
 2528TIP3    H1 7590   4.666   3.023   2.445 -1.6890 -0.4248  1.4753
 2528TIP3    H2 7591   4.710   2.884   2.406  0.2213  0.6298 -0.3658
 2529TIP3   OH2 7592   1.189   2.221   4.066  0.1844  0.1260 -0.0132
 2529TIP3    H1 7593   1.239   2.287   4.115  1.2712 -1.2576  0.8276
 2529TIP3    H2 7594   1.105   2.217   4.111  0.4570  0.2648  0.5242
 2530TIP3   OH2 7595   4.208   2.840   2.258  0.2872  0.5248 -0.1004
 2530TIP3    H1 7596   4.144   2.772   2.278 -0.0219  0.6182 -0.7652
 2530TIP3    H2 7597   4.173   2.886   2.182  0.9323  0.8490 -0.2148
 2531TIP3   OH2 7598   3.043   4.536   0.349 -0.8846  0.0404  0.0609
 2531TIP3    H1 7599   2.999   4.600   0.404 -0.3566 -0.9614  1.7310
 2531TIP3    H2 7600   3.035   4.453   0.397  0.2768 -0.7188 -0.9851
 2532TIP3   OH2 7601   2.399   0.564   2.302  0.5135  0.6173  0.3698
 2532TIP3    H1 7602   2.372   0.543   2.212 -1.1573  1.5355  0.6288
 2532TIP3    H2 7603   2.494   0.552   2.301  0.4009 -0.5415 -1.1983
 2533TIP3   OH2 7604   5.887   0.754   0.611 -0.1071  0.0707  0.2464
 2533TIP3    H1 7605   5.935   0.766   0.529  0.3049  0.7304  0.5825
 2533TIP3    H2 7606   5.824   0.684   0.591 -1.1143  1.3020 -1.1096
 2534TIP3   OH2 7607   0.487   5.271   0.925  0.2529 -0.3712  0.0164
 2534TIP3    H1 7608   0.562   5.256   0.982  1.3343  1.6427 -0.7696
 2534TIP3    H2 7609   0.458   5.360   0.946 -1.3439 -0.7712 -0.3528
 2535TIP3   OH2 7610   5.760   5.673   4.895  0.3485  0.1191  0.0772
 2535TIP3    H1 7611   5.811   5.672   4.976 -1.3448  1.3372  1.2381
 2535TIP3    H2 7612   5.680   5.625   4.917  0.1246 -0.0782 -1.0938
 2536TIP3   OH2 7613   0.051   3.848   3.907 -0.0095 -0.6301  0.6570
 2536TIP3    H1 7614   0.002   3.884   3.981  0.8250 -1.7468  1.7940
 2536TIP3    H2 7615   0.103   3.921   3.875  0.2521 -0.3291  1.7233
 2537TIP3   OH2 7616   2.350   2.763   2.118  0.6221 -0.0396  0.0356
 2537TIP3    H1 7617   2.276   2.808   2.158  0.4384 -0.0408 -0.2992
 2537TIP3    H2 7618   2.318   2.736   2.032  0.7124 -0.8651  0.2589
 2538TIP3   OH2 7619   4.393   5.872   1.567 -0.6758  0.6292 -0.3211
 2538TIP3    H1 7620   4.452   5.810   1.610  0.3235  0.9203 -1.2357
 2538TIP3    H2 7621   4.411   5.956   1.610 -1.2449  0.5173  0.1609
 2539TIP3   OH2 7622   0.742   2.664   1.785  0.5519 -0.5524 -0.1387
 2539TIP3    H1 7623   0.767   2.702   1.701  1.2027 -0.5995  0.0266
 2539TIP3    H2 7624   0.723   2.572   1.765 -0.0502 -0.3804 -0.3656
 2540TIP3   OH2 7625   2.105   5.083   4.007 -0.1910 -0.3752  0.2148
 2540TIP3    H1 7626   2.062   5.059   4.089  0.9884 -2.5027  0.2681
 2540TIP3    H2 7627   2.176   5.141   4.033  0.2778 -1.1714  0.7307
 2541TIP3   OH2 7628   1.584   0.275   3.349 -0.0320 -0.1170  0.3822
 2541TIP3    H1 7629   1.677   0.272   3.370  0.1514  0.8364 -0.2360
 2541TIP3    H2 7630   1.579   0.330   3.271 -1.2755  1.3170  1.4138
 2542TIP3   OH2 7631   4.266   1.340   0.622 -0.3124  0.1281  0.4720
 2542TIP3    H1 7632   4.300   1.404   0.686 -0.0437  0.2410  0.2215
 2542TIP3    H2 7633   4.171   1.353   0.623 -0.2243  0.9056  0.0430
 2543TIP3   OH2 7634   2.926   0.711   0.173 -0.3983 -0.6759 -0.4422
 2543TIP3    H1 7635   2.853   0.739   0.118 -0.8758 -1.5617 -0.2900
 2543TIP3    H2 7636   3.003   0.751   0.134 -0.9071 -0.1399 -0.9091
 2544TIP3   OH2 7637   4.579   5.303   1.022  0.8327 -0.3757  0.3953
 2544TIP3    H1 7638   4.659   5.250   1.028  1.5201  0.5219 -0.5058
 2544TIP3    H2 7639   4.594   5.375   1.083  1.1012  0.2569 -0.3941
 2545TIP3   OH2 7640   5.956   4.197   1.176  0.4977 -0.1044 -0.1819
 2545TIP3    H1 7641   6.020   4.268   1.175  0.7333 -0.3120 -0.6625
 2545TIP3    H2 7642   5.905   4.211   1.255  1.0105  0.1826  0.1017
 2546TIP3   OH2 7643   5.801   1.363   2.567  0.0626  0.1481  0.0526
 2546TIP3    H1 7644   5.711   1.334   2.554 -0.2320  1.0184  0.0317
 2546TIP3    H2 7645   5.792   1.448   2.611  0.8124  0.9710 -1.3242
 2547TIP3   OH2 7646   2.741   2.625   2.361  0.1155 -0.0272 -0.4171
 2547TIP3    H1 7647   2.792   2.545   2.346  1.4332  0.1027  2.7061
 2547TIP3    H2 7648   2.803   2.687   2.398 -1.8160  0.9356  1.3937
 2548TIP3   OH2 7649   6.072   4.032   4.263 -0.0312  0.0819  0.1266
 2548TIP3    H1 7650   5.985   4.004   4.238  0.2960 -0.1500 -0.8020
 2548TIP3    H2 7651   6.059   4.116   4.306 -0.8492 -0.6730  1.3895
 2549TIP3   OH2 7652   5.125   3.174   0.509  0.3023  0.1900  0.3562
 2549TIP3    H1 7653   5.033   3.145   0.510  0.0889  0.5622  4.2348
 2549TIP3    H2 7654   5.121   3.268   0.527  1.4609  0.5667 -1.1177
 2550TIP3   OH2 7655   3.896   4.678   1.380 -0.2590 -0.2346  0.1539
 2550TIP3    H1 7656   3.972   4.624   1.403  0.3253  1.0643  1.4689
 2550TIP3    H2 7657   3.821   4.630   1.414  0.4633  0.9584  3.8657
 2551TIP3   OH2 7658   1.682   5.371   4.808 -0.1970  0.0729 -0.1327
 2551TIP3    H1 7659   1.771   5.390   4.837 -0.9866 -0.6786  3.3698
 2551TIP3    H2 7660   1.639   5.456   4.806  0.5984  0.4621 -2.0443
 2552TIP3   OH2 7661   0.437   5.143   2.152 -0.2307 -0.5465 -0.2497
 2552TIP3    H1 7662   0.472   5.166   2.238 -1.5450 -0.9898  0.4250
 2552TIP3    H2 7663   0.396   5.223   2.121 -1.9077 -1.0188  0.6447
 2553TIP3   OH2 7664   2.620   4.288   1.886 -0.1784 -0.2246 -0.3679
 2553TIP3    H1 7665   2.575   4.280   1.970  0.8616 -1.2253  0.1132
 2553TIP3    H2 7666   2.569   4.232   1.827  0.1192 -0.9305  0.0394
 2554TIP3   OH2 7667   4.223   4.574   2.189  0.0869 -0.3406 -0.0614
 2554TIP3    H1 7668   4.275   4.548   2.265 -0.7684 -2.2576 -0.0824
 2554TIP3    H2 7669   4.154   4.508   2.183 -2.1639  1.8808 -0.2569
 2555TIP3   OH2 7670   6.056   0.058   1.600 -0.5352  0.7054 -0.4678
 2555TIP3    H1 7671   6.093   0.012   1.525  0.6406 -0.7994  0.9420
 2555TIP3    H2 7672   6.049   0.149   1.573  1.3312  0.4752 -1.8525
 2556TIP3   OH2 7673   0.040   4.934   4.984  0.2440  0.3541  0.6444
 2556TIP3    H1 7674   0.071   4.918   4.894 -1.7048  0.2488 -0.0607
 2556TIP3    H2 7675   0.092   5.008   5.015  0.6083  0.7072 -0.7443
 2557TIP3   OH2 7676   1.818   1.970   2.548 -0.9825  0.9993 -0.4877
 2557TIP3    H1 7677   1.807   1.950   2.641  0.3657  1.2528 -0.2524
 2557TIP3    H2 7678   1.835   1.886   2.506 -0.6787  1.0029 -0.3661
 2558TIP3   OH2 7679   4.263   4.565   3.630  0.5747 -0.3335  0.0188
 2558TIP3    H1 7680   4.346   4.556   3.583 -0.1588  0.4627 -1.4578
 2558TIP3    H2 7681   4.210   4.491   3.601  0.6429 -0.6814  0.7448
 2559TIP3   OH2 7682   5.810   1.237   3.711  0.1567  0.2514  0.2638
 2559TIP3    H1 7683   5.813   1.265   3.620  1.6002  0.0256  0.2244
 2559TIP3    H2 7684   5.779   1.315   3.759 -0.5626  0.3795 -0.3945
 2560TIP3   OH2 7685   2.539   0.182   1.542 -0.1917  0.1516  0.2429
 2560TIP3    H1 7686   2.611   0.143   1.592  0.0054 -0.3733 -0.4404
 2560TIP3    H2 7687   2.500   0.109   1.495 -0.2999  0.6544 -0.4668
 2561TIP3   OH2 7688   6.122   0.360   4.130 -0.2585 -0.0859  0.1147
 2561TIP3    H1 7689   6.215   0.337   4.138 -0.1185  0.0787 -0.8842
 2561TIP3    H2 7690   6.076   0.279   4.149  0.1158 -0.3246  0.0193
 2562TIP3   OH2 7691   1.058   3.621   2.068 -0.1286  0.5173  0.2266
 2562TIP3    H1 7692   1.097   3.559   2.130  1.2806  0.2955 -0.8255
 2562TIP3    H2 7693   1.031   3.695   2.123  1.3333  0.4525  1.1028
 2563TIP3   OH2 7694   4.566   5.888   0.594  0.0494  0.5355  0.3875
 2563TIP3    H1 7695   4.606   5.969   0.625  2.2922 -0.4544  0.2432
 2563TIP3    H2 7696   4.600   5.820   0.652  0.3358 -0.6591 -1.1154
 2564TIP3   OH2 7697   4.366   0.057   0.509  0.2259  0.7070  0.2851
 2564TIP3    H1 7698   4.294   0.057   0.572  1.7354 -0.8030  2.1384
 2564TIP3    H2 7699   4.443   0.079   0.560  1.0318  3.4163 -1.8563
 2565TIP3   OH2 7700   1.935   3.758   4.076 -0.4454 -0.0584 -0.1900
 2565TIP3    H1 7701   1.922   3.667   4.052 -1.5615  0.3860 -1.3661
 2565TIP3    H2 7702   1.933   3.806   3.993 -2.3543  1.2968  0.5803
 2566TIP3   OH2 7703   3.022   4.968   2.636  0.5448 -0.1012 -0.1050
 2566TIP3    H1 7704   2.930   4.955   2.615  0.5888  1.2074 -1.2250
 2566TIP3    H2 7705   3.054   5.030   2.570  2.1039 -0.1402  0.5571
 2567TIP3   OH2 7706   3.373   2.231   2.073  0.4999  0.3205  0.6473
 2567TIP3    H1 7707   3.439   2.252   2.139 -0.1964  1.6619  0.9399
 2567TIP3    H2 7708   3.320   2.310   2.065 -0.9196 -0.6276  0.2306
 2568TIP3   OH2 7709   3.916   5.154   0.732  0.2046 -0.1954  0.1748
 2568TIP3    H1 7710   4.010   5.140   0.741  0.3707  0.9286  0.3310
 2568TIP3    H2 7711   3.902   5.245   0.757 -0.7573  0.0272 -1.0169
 2569TIP3   OH2 7712   5.319   0.573   1.935 -0.4635  0.0473  0.3982
 2569TIP3    H1 7713   5.382   0.561   2.006 -0.2513 -0.3898  0.1394
 2569TIP3    H2 7714   5.360   0.531   1.859 -1.1342 -0.3618  0.2597
 2570TIP3   OH2 7715   3.020   1.942   0.883 -0.1965 -0.1381 -0.0740
 2570TIP3    H1 7716   2.985   2.031   0.879  1.2891  0.4655 -0.5411
 2570TIP3    H2 7717   2.981   1.904   0.962  0.7788  1.6734  1.3540
 2571TIP3   OH2 7718   1.316   1.803   1.672  0.3877  0.0290  0.0235
 2571TIP3    H1 7719   1.242   1.853   1.709  0.9136  0.3614  0.6542
 2571TIP3    H2 7720   1.394   1.848   1.705  0.8999 -1.9252  1.6688
 2572TIP3   OH2 7721   2.464   2.940   1.664 -0.3059 -0.1663  0.2253
 2572TIP3    H1 7722   2.458   2.922   1.758 -0.7604 -0.4153  0.1525
 2572TIP3    H2 7723   2.429   3.028   1.653 -0.4497 -0.2192  0.2627
 2573TIP3   OH2 7724   1.001   1.168   3.063  0.5162  0.1517 -0.0996
 2573TIP3    H1 7725   0.945   1.092   3.080  2.4670 -1.4512 -0.3686
 2573TIP3    H2 7726   1.088   1.139   3.089  1.3821  2.2292 -0.5032
 2574TIP3   OH2 7727   4.422   5.556   1.876 -0.0335 -0.1098 -0.5398
 2574TIP3    H1 7728   4.404   5.500   1.951  0.7734  0.1767 -0.1217
 2574TIP3    H2 7729   4.387   5.642   1.901  0.9600  0.1933 -0.1381
 2575TIP3   OH2 7730   6.158   4.491   3.759 -0.0387 -0.3664  0.1339
 2575TIP3    H1 7731   6.172   4.584   3.775  2.3299 -0.8465  1.3055
 2575TIP3    H2 7732   6.221   4.468   3.692  0.3833 -1.3972  0.8639
 2576TIP3   OH2 7733   2.165   4.899   3.448  0.8360 -0.0359 -0.1615
 2576TIP3    H1 7734   2.183   4.935   3.534  0.5312 -0.7557  0.2089
 2576TIP3    H2 7735   2.243   4.847   3.426 -0.3288 -2.4775  1.0880
 2577TIP3   OH2 7736   1.161  -0.023   3.189 -0.0594 -0.2794 -0.0916
 2577TIP3    H1 7737   1.232   0.042   3.195 -1.3880  1.3600 -1.4017
 2577TIP3    H2 7738   1.112  -0.013   3.271 -0.3979  0.5566 -0.3915
 2578TIP3   OH2 7739   5.753   1.764   0.485 -0.2849  0.4085  0.1897
 2578TIP3    H1 7740   5.672   1.804   0.517  0.3471  1.2719  0.7494
 2578TIP3    H2 7741   5.773   1.813   0.405  0.4253  1.1782  0.8123
 2579TIP3   OH2 7742   4.204   0.450   2.664 -0.0636 -0.1849  0.6674
 2579TIP3    H1 7743   4.192   0.461   2.758  1.0167 -0.9247  0.9104
 2579TIP3    H2 7744   4.220   0.539   2.631 -1.1668  0.1748  1.0518
 2580TIP3   OH2 7745   2.149   6.005   4.514  0.1830 -0.2021 -0.2497
 2580TIP3    H1 7746   2.080   5.957   4.560  0.7869 -0.3312  0.5264
 2580TIP3    H2 7747   2.196   5.938   4.465  0.7335 -0.3453  0.4643
 2581TIP3   OH2 7748   0.972   3.320   1.384  0.0394  0.1590  0.2862
 2581TIP3    H1 7749   1.020   3.278   1.456  0.7176  1.8678  0.8865
 2581TIP3    H2 7750   0.882   3.290   1.395 -0.0661  1.0237  2.4267
 2582TIP3   OH2 7751   3.108   1.152   1.023 -0.2216 -0.1045  0.0231
 2582TIP3    H1 7752   3.117   1.238   0.981  1.9381  0.0185  0.6221
 2582TIP3    H2 7753   3.013   1.138   1.028 -0.7450  2.9858  1.4005
 2583TIP3   OH2 7754   1.730   0.072   4.510  0.3077 -0.1314 -0.2243
 2583TIP3    H1 7755   1.747  -0.022   4.515 -0.9802 -0.3172  1.3823
 2583TIP3    H2 7756   1.757   0.105   4.596 -0.2537  0.7934 -0.3982
 2584TIP3   OH2 7757   5.976   0.572   4.034 -0.1441 -0.1339 -0.5208
 2584TIP3    H1 7758   5.973   0.528   3.949  0.4385 -0.5116 -0.3605
 2584TIP3    H2 7759   6.045   0.525   4.082 -0.9795 -0.4171  0.4346
 2585TIP3   OH2 7760   4.743   3.835   2.028  0.3989  0.5274 -0.4411
 2585TIP3    H1 7761   4.651   3.849   2.052  0.7835  1.1908  0.6993
 2585TIP3    H2 7762   4.740   3.816   1.934 -0.7658  2.3757 -0.8394
 2586TIP3   OH2 7763   3.193   4.652   0.674  0.1640  0.2322 -0.2003
 2586TIP3    H1 7764   3.101   4.661   0.650  0.0199  0.8824  0.5361
 2586TIP3    H2 7765   3.219   4.740   0.702  0.7851 -0.1142  0.3447
 2587TIP3   OH2 7766   5.361   2.363   0.692 -0.0680 -0.0581 -0.3561
 2587TIP3    H1 7767   5.372   2.386   0.784  1.1950  2.3255 -1.0157
 2587TIP3    H2 7768   5.410   2.282   0.682 -1.7989 -1.4303  1.3962
 2588TIP3   OH2 7769   4.668   5.946   1.006 -0.4177  0.5063  0.1586
 2588TIP3    H1 7770   4.709   5.905   0.930 -0.1963  3.5034 -1.4987
 2588TIP3    H2 7771   4.723   5.919   1.080  0.4167 -1.0769 -0.9829
 2589TIP3   OH2 7772   1.325   2.204   0.490  0.2066  0.0481  0.1286
 2589TIP3    H1 7773   1.418   2.201   0.515  0.1311  1.0716  0.5821
 2589TIP3    H2 7774   1.308   2.296   0.473 -0.2259 -0.3682 -1.9479
 2590TIP3   OH2 7775   5.021   5.692   1.599 -0.2094  0.5503  0.0670
 2590TIP3    H1 7776   4.947   5.735   1.556  1.1408  3.3678  0.3181
 2590TIP3    H2 7777   5.062   5.762   1.650  2.2916 -1.0427  0.3782
 2591TIP3   OH2 7778   0.216   5.391   4.723  0.2170  0.4611 -0.6149
 2591TIP3    H1 7779   0.154   5.331   4.762  0.1303  0.0433 -1.3859
 2591TIP3    H2 7780   0.170   5.475   4.721  0.3872  0.6062  0.5802
 2592TIP3   OH2 7781   3.103   2.995   1.297  0.2689  0.4685  0.0639
 2592TIP3    H1 7782   3.159   3.057   1.345 -1.6794  1.2074  1.5058
 2592TIP3    H2 7783   3.101   2.918   1.353  1.4903 -0.3975 -1.0218
 2593TIP3   OH2 7784   1.758   2.486   4.354  0.0624  0.3731 -0.0167
 2593TIP3    H1 7785   1.741   2.462   4.445  0.2084  0.4084  0.0190
 2593TIP3    H2 7786   1.734   2.578   4.348  0.4715  0.4845  0.0914
 2594TIP3   OH2 7787   1.178   1.807   0.649  0.0323 -0.0049  0.1471
 2594TIP3    H1 7788   1.249   1.847   0.599 -1.3185  1.6523 -0.5411
 2594TIP3    H2 7789   1.186   1.843   0.737  0.8865 -0.9527  0.4735
 2595TIP3   OH2 7790   2.028   5.484   4.537  0.1974 -0.5463 -0.0016
 2595TIP3    H1 7791   1.987   5.457   4.455 -0.7340 -1.0855  0.6107
 2595TIP3    H2 7792   1.994   5.421   4.602  0.9226 -0.1432  0.7848
 2596TIP3   OH2 7793   0.079   4.575   1.435  0.1679  0.6769  0.2798
 2596TIP3    H1 7794  -0.006   4.558   1.394 -1.5852  1.6755  3.1864
 2596TIP3    H2 7795   0.115   4.649   1.386  0.2352 -0.7948 -2.0507
 2597TIP3   OH2 7796   1.749   2.801   1.629 -0.7137  0.2230  0.3623
 2597TIP3    H1 7797   1.672   2.813   1.684  0.5317 -0.3217  2.2861
 2597TIP3    H2 7798   1.823   2.811   1.688  0.6613 -1.4834 -0.9670
 2598TIP3   OH2 7799   0.448   4.897   5.042  0.3440  0.2973 -0.0846
 2598TIP3    H1 7800   0.537   4.866   5.057  0.0075 -0.9083 -0.4499
 2598TIP3    H2 7801   0.430   4.873   4.950 -0.3250  0.5814 -0.0317
 2599TIP3   OH2 7802   4.730   0.663   2.182 -0.1769 -0.4824 -0.2946
 2599TIP3    H1 7803   4.822   0.688   2.175 -0.5675  0.7917 -1.4171
 2599TIP3    H2 7804   4.699   0.658   2.091 -1.7909  1.5362  0.0625
 2600TIP3   OH2 7805   6.208   2.427   4.804 -0.8135 -0.3458  0.1992
 2600TIP3    H1 7806   6.164   2.512   4.803 -0.8800 -0.3834 -0.6836
 2600TIP3    H2 7807   6.274   2.433   4.735 -1.6410 -1.4244 -0.7301
 2601TIP3   OH2 7808   2.257   0.824   4.641  0.2073 -0.0815 -0.2786
 2601TIP3    H1 7809   2.178   0.820   4.587 -1.0770  1.9860  1.3149
 2601TIP3    H2 7810   2.252   0.746   4.696  0.8448 -1.5008 -2.1376
 2602TIP3   OH2 7811   5.413   4.281   0.661  0.3225 -0.2228 -0.0293
 2602TIP3    H1 7812   5.413   4.196   0.706  0.8329  0.0328  0.4718
 2602TIP3    H2 7813   5.449   4.263   0.574 -0.2150 -0.6400 -0.1664
 2603TIP3   OH2 7814   1.482   3.575   3.423 -0.1346 -1.1856 -0.7481
 2603TIP3    H1 7815   1.452   3.494   3.466  0.5263  0.0338  2.2797
 2603TIP3    H2 7816   1.576   3.577   3.440 -0.2224  0.4321 -0.3490
 2604TIP3   OH2 7817   4.884   1.899   3.337 -0.4107 -0.8687 -0.1121
 2604TIP3    H1 7818   4.948   1.828   3.332  0.1700 -0.2652 -2.0765
 2604TIP3    H2 7819   4.919   1.959   3.403  1.4628 -0.2065 -1.6287
 2605TIP3   OH2 7820   2.885   2.373   2.606 -0.2694  0.2266 -0.1121
 2605TIP3    H1 7821   2.806   2.424   2.589 -0.1178  0.3299 -0.5207
 2605TIP3    H2 7822   2.926   2.417   2.681  1.1171  2.2197 -1.9139
 2606TIP3   OH2 7823   4.828   2.848   3.461 -0.0170  0.0263 -0.6737
 2606TIP3    H1 7824   4.847   2.795   3.384 -1.7154 -0.0724 -1.0689
 2606TIP3    H2 7825   4.799   2.785   3.527 -0.6961  0.3056 -0.6931
 2607TIP3   OH2 7826   5.408   4.236   3.541  0.4473 -0.2907 -0.0283
 2607TIP3    H1 7827   5.477   4.285   3.586  0.4747  0.1251 -0.5167
 2607TIP3    H2 7828   5.445   4.149   3.528  0.1923 -0.6322  1.3455
 2608TIP3   OH2 7829   3.051   5.778   4.378  0.2359 -0.1298  0.1934
 2608TIP3    H1 7830   3.114   5.837   4.418 -1.8712  1.8239  0.8696
 2608TIP3    H2 7831   2.977   5.777   4.438 -1.3193 -0.4545 -1.6117
 2609TIP3   OH2 7832   5.972   1.536   1.563  0.0647  0.1750  0.1451
 2609TIP3    H1 7833   5.961   1.631   1.574  0.8786  0.1791  1.0815
 2609TIP3    H2 7834   5.905   1.498   1.621 -3.3133  0.0661 -3.4179
 2610TIP3   OH2 7835   5.811   1.028   2.010 -0.2641 -0.4491 -0.1425
 2610TIP3    H1 7836   5.875   1.068   1.951 -0.2339 -2.1929 -1.3468
 2610TIP3    H2 7837   5.727   1.044   1.967 -0.6892  1.6098  1.3057
 2611TIP3   OH2 7838   3.798   5.050   4.838 -0.3319  0.2170 -0.0028
 2611TIP3    H1 7839   3.817   5.106   4.914  0.1978  0.6859 -0.4789
 2611TIP3    H2 7840   3.783   4.963   4.876 -0.5799  0.5541  0.6886
 2612TIP3   OH2 7841   5.313   2.830   1.568 -0.1308 -0.0713 -0.5288
 2612TIP3    H1 7842   5.338   2.816   1.477 -0.0553 -0.2131 -0.4868
 2612TIP3    H2 7843   5.366   2.767   1.618  0.9461  1.0474 -0.2299
 2613TIP3   OH2 7844   2.503   1.049   0.347  0.2164 -0.2189  0.1713
 2613TIP3    H1 7845   2.452   1.101   0.285  3.9034  2.1113 -1.2868
 2613TIP3    H2 7846   2.472   1.077   0.433 -1.6005  0.2825 -0.5964
 2614TIP3   OH2 7847   1.861   2.006   1.573 -0.3179 -0.8312  0.0968
 2614TIP3    H1 7848   1.851   2.029   1.666 -1.5560  1.2057 -0.4825
 2614TIP3    H2 7849   1.835   1.914   1.569 -2.0881 -0.4588  1.5060
 2615TIP3   OH2 7850   2.545   2.351   3.471 -0.2439  0.1013  0.0823
 2615TIP3    H1 7851   2.589   2.311   3.396 -2.0853 -0.0157 -0.9902
 2615TIP3    H2 7852   2.470   2.293   3.488 -0.9258  1.1653  0.7787
 2616TIP3   OH2 7853   1.792   3.931   4.841  0.0400  0.2442 -0.4303
 2616TIP3    H1 7854   1.714   3.982   4.818 -0.7205 -1.1247 -0.9901
 2616TIP3    H2 7855   1.759   3.842   4.853  1.4422 -0.2453 -0.1148
 2617TIP3   OH2 7856   6.227   0.275   1.800 -0.3276 -0.4179 -0.6442
 2617TIP3    H1 7857   6.257   0.358   1.837  1.5714 -0.2664 -2.3490
 2617TIP3    H2 7858   6.153   0.299   1.744 -1.7138 -0.3508  1.1016
 2618TIP3   OH2 7859   4.308   3.205   1.496 -0.3096 -0.5820  0.0654
 2618TIP3    H1 7860   4.227   3.168   1.462 -1.1079 -0.0125  1.2718
 2618TIP3    H2 7861   4.280   3.279   1.550  0.9599 -0.7966  1.0589
 2619TIP3   OH2 7862   0.513   5.879   2.531 -0.1179 -0.3333 -0.4749
 2619TIP3    H1 7863   0.482   5.794   2.562 -0.6877 -0.6243 -1.7514
 2619TIP3    H2 7864   0.434   5.933   2.526  0.3332  0.5151  0.9725
 2620TIP3   OH2 7865   0.422   3.212   0.613 -0.1946 -0.2942  0.6926
 2620TIP3    H1 7866   0.396   3.122   0.596 -2.6259  0.4203  0.2332
 2620TIP3    H2 7867   0.429   3.251   0.525 -0.9094  0.3743  0.9170
 2621TIP3   OH2 7868   2.171   4.408   3.879 -0.3777  0.1846  0.2652
 2621TIP3    H1 7869   2.083   4.421   3.915 -0.3832 -1.1475  0.7896
 2621TIP3    H2 7870   2.161   4.429   3.786 -1.8388 -2.0921 -0.1634
 2622TIP3   OH2 7871   3.779   1.521   2.486  0.3742 -0.2370  0.1018
 2622TIP3    H1 7872   3.744   1.433   2.470 -1.2144  0.6321 -1.5951
 2622TIP3    H2 7873   3.712   1.564   2.539 -0.0286  0.6643 -1.0823
 2623TIP3   OH2 7874   5.422   3.055   1.784  0.4755 -0.3183 -0.1894
 2623TIP3    H1 7875   5.385   3.068   1.697  3.6777  1.9842 -1.4038
 2623TIP3    H2 7876   5.352   3.014   1.835 -3.0113  2.1221 -2.6365
 2624TIP3   OH2 7877   4.442   0.590   2.189  0.4534 -0.3114 -0.5002
 2624TIP3    H1 7878   4.537   0.600   2.195  0.5867 -0.8924 -1.4139
 2624TIP3    H2 7879   4.426   0.561   2.099 -0.8868  2.6970 -1.3612
 2625TIP3   OH2 7880   1.126   4.525   1.665  0.4854  0.6836  0.4670
 2625TIP3    H1 7881   1.131   4.496   1.574  0.1575  0.2386  0.5905
 2625TIP3    H2 7882   1.214   4.558   1.684  1.0907 -0.8890  0.5395
 2626TIP3   OH2 7883   2.468   0.737   3.535  0.5435  0.6625  0.5084
 2626TIP3    H1 7884   2.438   0.736   3.444 -0.7860  0.2648  0.9282
 2626TIP3    H2 7885   2.548   0.683   3.535 -0.0622 -0.2601 -0.2239
 2627TIP3   OH2 7886   2.289   1.159   4.571  0.1003 -0.4650  0.1676
 2627TIP3    H1 7887   2.332   1.239   4.599  1.9159 -1.1947 -0.3539
 2627TIP3    H2 7888   2.256   1.119   4.652 -2.8312  1.7783  0.2499
 2628TIP3   OH2 7889   6.264   4.470   3.515  0.5562  0.1972  0.2380
 2628TIP3    H1 7890   6.350   4.429   3.521  0.9014  1.0917  1.6815
 2628TIP3    H2 7891   6.272   4.532   3.442  0.8984 -0.2160 -0.0831
 2629TIP3   OH2 7892   4.356   3.586   3.521  0.0805 -0.0726  0.4972
 2629TIP3    H1 7893   4.347   3.574   3.427 -0.5277 -1.9387  0.7628
 2629TIP3    H2 7894   4.444   3.555   3.541  0.5648  1.1900  0.4522
 2630TIP3   OH2 7895   0.250   4.572   3.276  0.4967 -0.2305  0.6354
 2630TIP3    H1 7896   0.285   4.649   3.231  0.1425 -0.2587  0.3035
 2630TIP3    H2 7897   0.193   4.530   3.211 -0.8844  0.3234  1.4320
 2631TIP3   OH2 7898   4.072   1.165   4.201 -0.3095  0.3081  0.5269
 2631TIP3    H1 7899   4.130   1.090   4.213 -1.4579 -0.3595  2.1593
 2631TIP3    H2 7900   4.003   1.132   4.143 -0.4522  0.3062  0.6978
 2632TIP3   OH2 7901   6.237   0.774   4.572  0.2603  0.1087  0.1052
 2632TIP3    H1 7902   6.158   0.731   4.605  0.0797  0.5212  0.2170
 2632TIP3    H2 7903   6.287   0.704   4.532 -0.2424 -0.1334 -0.1167
 2633TIP3   OH2 7904   3.406   2.181   4.155 -0.2681  0.1733  0.5325
 2633TIP3    H1 7905   3.346   2.118   4.115  0.1495  1.5178 -2.4654
 2633TIP3    H2 7906   3.370   2.267   4.133  2.5986  1.0437 -1.4268
 2634TIP3   OH2 7907   5.154   5.879   0.823 -0.6367 -0.2402 -0.0059
 2634TIP3    H1 7908   5.177   5.889   0.731 -2.5386  3.4750 -0.2938
 2634TIP3    H2 7909   5.235   5.898   0.871 -0.1089 -0.2110 -0.8930
 2635TIP3   OH2 7910   5.377   2.135   0.904  0.3156  0.2050 -0.0789
 2635TIP3    H1 7911   5.303   2.119   0.845  0.6008  0.4473 -0.5069
 2635TIP3    H2 7912   5.343   2.198   0.968  0.5270  1.3349 -1.0400
 2636TIP3   OH2 7913   2.201   4.626   4.300  0.4363  0.4126 -0.1215
 2636TIP3    H1 7914   2.262   4.689   4.339  0.5010 -0.2234  0.8338
 2636TIP3    H2 7915   2.128   4.622   4.361  0.4582 -0.4743 -0.1373
 2637TIP3   OH2 7916   4.183   3.785   0.524  0.4151 -0.0498 -0.2946
 2637TIP3    H1 7917   4.198   3.706   0.576  1.2298  0.6444  0.5548
 2637TIP3    H2 7918   4.151   3.850   0.587 -0.2069  0.3179 -0.9732
 2638TIP3   OH2 7919   3.180   5.501   0.771  0.7837 -0.1366 -0.3398
 2638TIP3    H1 7920   3.274   5.485   0.772  0.7428 -0.5397 -1.7416
 2638TIP3    H2 7921   3.141   5.415   0.756  0.1826  0.0136  0.3081
 2639TIP3   OH2 7922   6.244   1.597   2.815  0.2855  0.3859  0.3077
 2639TIP3    H1 7923   6.334   1.602   2.784  0.5147  0.0214  0.8997
 2639TIP3    H2 7924   6.224   1.686   2.846  1.1312  0.0202  2.0263
 2640TIP3   OH2 7925   6.121   2.030   4.814  0.2685 -0.2955  0.3383
 2640TIP3    H1 7926   6.137   2.083   4.892 -2.8789 -0.7835  1.4816
 2640TIP3    H2 7927   6.188   2.057   4.752  1.8712  1.3328  2.6094
 2641TIP3   OH2 7928   0.484   2.550   4.570  0.4832  0.0808 -0.1530
 2641TIP3    H1 7929   0.521   2.527   4.485  0.1088  1.8133 -0.8171
 2641TIP3    H2 7930   0.443   2.635   4.557  2.2882  1.4790  2.2522
 2642TIP3   OH2 7931   3.990   3.419   0.563  0.6242  0.1568  0.1672
 2642TIP3    H1 7932   3.957   3.330   0.550  1.7201 -0.0470 -1.4922
 2642TIP3    H2 7933   3.924   3.460   0.619 -0.7406 -1.2132 -0.3493
 2643TIP3   OH2 7934   1.935   4.742   4.437 -0.3514 -0.1092 -0.0613
 2643TIP3    H1 7935   1.860   4.689   4.465  0.7759 -1.4469  0.5689
 2643TIP3    H2 7936   1.930   4.741   4.342 -0.0349 -1.8785 -0.0853
 2644TIP3   OH2 7937   0.377   4.980   0.915 -0.4489  0.1266  0.4230
 2644TIP3    H1 7938   0.317   4.974   0.841 -1.2456  3.0620  0.7160
 2644TIP3    H2 7939   0.399   5.073   0.921  1.1697 -0.3131  2.6752
 2645TIP3   OH2 7940   4.744   5.964   4.466 -0.5147  0.1252  0.0218
 2645TIP3    H1 7941   4.677   5.915   4.419  1.4895  0.0698 -3.0085
 2645TIP3    H2 7942   4.716   6.055   4.462 -0.1974  0.1693 -1.7216
 2646TIP3   OH2 7943   2.531   5.831   4.002  0.3406  0.2242 -0.4787
 2646TIP3    H1 7944   2.536   5.914   4.049 -4.6856  0.7433 -0.3445
 2646TIP3    H2 7945   2.527   5.856   3.910 -2.4448  0.4062 -0.3852
 2647TIP3   OH2 7946   2.993   0.192   1.510 -0.0822  0.3374  0.4919
 2647TIP3    H1 7947   3.057   0.161   1.574 -0.8420 -0.1382  1.0315
 2647TIP3    H2 7948   3.025   0.158   1.426 -0.0625 -0.5786  0.8645
 2648TIP3   OH2 7949   3.184   5.486   1.163 -0.5050  0.1038 -0.4406
 2648TIP3    H1 7950   3.233   5.567   1.177 -0.3250  0.0330 -0.6453
 2648TIP3    H2 7951   3.098   5.503   1.202 -0.9864  0.9477 -1.7865
 2649TIP3   OH2 7952   0.795   5.175   3.751  0.0711  0.3500 -0.4243
 2649TIP3    H1 7953   0.732   5.246   3.740  0.7802  0.8062 -1.7015
 2649TIP3    H2 7954   0.842   5.171   3.668  1.7698  0.0666  0.4874
 2650TIP3   OH2 7955   5.231   1.813   3.274  0.2924 -0.1520 -0.0443
 2650TIP3    H1 7956   5.154   1.784   3.226 -0.7678  1.1334  0.7970
 2650TIP3    H2 7957   5.215   1.786   3.364  0.5440  0.5986  0.2364
 2651TIP3   OH2 7958   5.187   0.072   2.788  0.2663 -0.2020  0.0273
 2651TIP3    H1 7959   5.175   0.160   2.751  0.7828 -0.6039 -1.1557
 2651TIP3    H2 7960   5.119   0.020   2.746 -1.3360  0.0127  2.2117
 2652TIP3   OH2 7961   2.519   0.795   0.206  0.0705 -0.1122 -0.0038
 2652TIP3    H1 7962   2.528   0.872   0.263  0.0316 -0.6840  0.8031
 2652TIP3    H2 7963   2.428   0.769   0.218  0.3544 -0.8893  0.5470
 2653TIP3   OH2 7964   5.731   2.946   0.348 -0.0607  0.2368  0.4172
 2653TIP3    H1 7965   5.654   2.990   0.312  0.7071  1.4294  0.1920
 2653TIP3    H2 7966   5.805   2.985   0.302  0.6233 -1.9588 -0.4928
 2654TIP3   OH2 7967   1.672   3.630   4.458  0.6684 -0.0941 -0.4787
 2654TIP3    H1 7968   1.620   3.710   4.446  0.4002  0.1118  1.7350
 2654TIP3    H2 7969   1.730   3.649   4.531  0.4948 -1.9755  0.2043
 2655TIP3   OH2 7970   5.476   0.846   1.893 -0.2959 -0.1726 -0.4204
 2655TIP3    H1 7971   5.518   0.760   1.892  1.4227  0.6066  0.3482
 2655TIP3    H2 7972   5.457   0.864   1.801  0.6674 -0.7639 -0.7520
 2656TIP3   OH2 7973   5.735   0.723   4.800 -0.7583 -0.5242  0.2884
 2656TIP3    H1 7974   5.648   0.761   4.785 -0.1573  1.5777  1.5939
 2656TIP3    H2 7975   5.753   0.740   4.893  1.5066  0.1889 -0.2131
 2657TIP3   OH2 7976   1.160   1.762   0.347 -0.2137 -0.0993 -0.2480
 2657TIP3    H1 7977   1.153   1.854   0.322  0.9687 -0.5295 -2.4002
 2657TIP3    H2 7978   1.224   1.761   0.418  0.9430  0.6233 -1.2444
 2658TIP3   OH2 7979   0.813   4.282   3.214 -0.0430  0.4971  0.8401
 2658TIP3    H1 7980   0.799   4.355   3.154  0.2364 -0.2877 -0.2015
 2658TIP3    H2 7981   0.882   4.312   3.273  0.1357  1.0328  0.3679
 2659TIP3   OH2 7982   4.783   2.156   4.377  0.3548  0.1929 -0.2912
 2659TIP3    H1 7983   4.705   2.112   4.411  0.9752 -0.6546  0.0654
 2659TIP3    H2 7984   4.828   2.089   4.326  1.1213  0.5231 -0.0518
 2660TIP3   OH2 7985   5.783   5.015   3.837  0.4268 -0.1340 -0.4161
 2660TIP3    H1 7986   5.741   5.015   3.923  2.2441 -0.4349  0.5319
 2660TIP3    H2 7987   5.846   4.943   3.841  1.0090  0.2661 -1.7555
 2661TIP3   OH2 7988   1.259   2.859   4.751  0.2099 -0.1006 -0.0247
 2661TIP3    H1 7989   1.250   2.816   4.667 -0.9498  1.7778 -0.9417
 2661TIP3    H2 7990   1.333   2.919   4.740  1.3269 -1.2396  0.9823
 2662TIP3   OH2 7991   2.390   3.519   3.050  0.0582 -0.3323 -0.6224
 2662TIP3    H1 7992   2.318   3.583   3.051  0.9148  0.6903 -1.5172
 2662TIP3    H2 7993   2.462   3.564   3.094  0.3881 -1.0522 -0.4194
 2663TIP3   OH2 7994   3.377   5.652   0.159 -0.0350  0.1748 -0.1927
 2663TIP3    H1 7995   3.367   5.672   0.252  0.4304  0.8177 -0.2716
 2663TIP3    H2 7996   3.379   5.556   0.154  0.0703  0.1427  0.4685
 2664TIP3   OH2 7997   1.390   2.841   2.190 -0.1525 -0.3041 -0.1342
 2664TIP3    H1 7998   1.479   2.853   2.159 -0.4803  0.8407 -0.7261
 2664TIP3    H2 7999   1.395   2.852   2.285  0.1786  0.9368 -0.2812
 2665TIP3   OH2 8000   2.959   1.611   4.292 -0.4680 -0.5764  0.6385
 2665TIP3    H1 8001   2.913   1.530   4.271 -0.4110 -0.5985  0.6024
 2665TIP3    H2 8002   2.946   1.667   4.216 -1.5259 -0.1069  1.1358
 2666TIP3   OH2 8003   0.433   2.936   2.799  0.0466  0.6673  0.2805
 2666TIP3    H1 8004   0.509   2.984   2.767  0.1851  0.2645  0.0032
 2666TIP3    H2 8005   0.446   2.846   2.769  0.4708  0.1380  1.9150
 2667TIP3   OH2 8006   0.525   0.835   1.528 -0.0402  0.1677  0.3327
 2667TIP3    H1 8007   0.545   0.897   1.459 -0.7580  0.0754  0.0291
 2667TIP3    H2 8008   0.557   0.877   1.608  0.2334  0.5525  0.0253
 2668TIP3   OH2 8009   5.153   1.584   0.104 -0.3088  0.5362 -0.1483
 2668TIP3    H1 8010   5.058   1.585   0.117 -0.6099 -0.3136 -1.8877
 2668TIP3    H2 8011   5.164   1.549   0.015  1.7713 -3.9639  1.5405
 2669TIP3   OH2 8012   3.476   3.605   1.279 -0.6648  0.3199  0.4226
 2669TIP3    H1 8013   3.537   3.678   1.272  1.5792 -1.3774  0.9664
 2669TIP3    H2 8014   3.502   3.544   1.210 -2.1284 -0.2307  0.3034
 2670TIP3   OH2 8015   5.121   3.868   2.796  0.2112  0.2075  0.5921
 2670TIP3    H1 8016   5.207   3.836   2.824  0.9949 -0.5778 -2.3416
 2670TIP3    H2 8017   5.138   3.951   2.752 -0.3025 -0.4866 -1.0124
 2671TIP3   OH2 8018   0.936   3.487   2.936  0.3585  0.0576 -0.3783
 2671TIP3    H1 8019   0.903   3.557   2.992 -0.9768 -0.4406 -0.5076
 2671TIP3    H2 8020   1.002   3.443   2.989 -2.5995 -1.9889  1.8863
 2672TIP3   OH2 8021   1.800   3.866   3.304 -0.1013 -0.4565  0.2190
 2672TIP3    H1 8022   1.864   3.812   3.350  2.0784  0.9369 -1.0088
 2672TIP3    H2 8023   1.803   3.950   3.350 -1.7247 -0.5983  0.6591
 2673TIP3   OH2 8024   3.455   1.801   1.903  0.0101 -0.2353  0.0206
 2673TIP3    H1 8025   3.542   1.838   1.920 -0.7333  1.6621 -0.0644
 2673TIP3    H2 8026   3.404   1.825   1.980 -1.0048  0.6192 -0.8858
 2674TIP3   OH2 8027   5.332   4.112   1.142 -0.1820  0.0035  0.5053
 2674TIP3    H1 8028   5.323   4.052   1.216 -0.3603  0.7839  1.1344
 2674TIP3    H2 8029   5.427   4.125   1.134  0.2243 -3.2755 -2.0778
 2675TIP3   OH2 8030   0.337   5.908   2.193 -0.3515  0.0048  0.0724
 2675TIP3    H1 8031   0.247   5.885   2.217 -0.1537  0.8762  1.8516
 2675TIP3    H2 8032   0.372   5.829   2.154 -1.4959 -0.7861  0.5705
 2676TIP3   OH2 8033   1.496   1.298   4.216  0.0043  0.5552 -0.4487
 2676TIP3    H1 8034   1.519   1.207   4.236  0.2121  0.7962  0.4507
 2676TIP3    H2 8035   1.505   1.304   4.121 -1.0898 -0.6471 -0.6519
 2677TIP3   OH2 8036   3.497   4.831   0.321 -0.5856 -0.1449  0.3878
 2677TIP3    H1 8037   3.549   4.833   0.241  1.0128 -1.9157  1.2869
 2677TIP3    H2 8038   3.421   4.778   0.299  0.2042 -1.2382  0.1923
 2678TIP3   OH2 8039   1.180   4.306   4.593 -0.1211 -0.3846 -0.1737
 2678TIP3    H1 8040   1.150   4.362   4.665  1.9927  0.8865 -0.2173
 2678TIP3    H2 8041   1.129   4.335   4.518 -0.5011  0.0659  0.2516
 2679TIP3   OH2 8042   3.158   4.155   0.994  0.6295  0.2334 -0.4101
 2679TIP3    H1 8043   3.078   4.185   0.951 -0.3510 -1.0850  0.4294
 2679TIP3    H2 8044   3.166   4.063   0.968  1.3514  0.0881  0.2877
 2680TIP3   OH2 8045   4.731   2.762   0.851  0.1296 -0.1227  0.7545
 2680TIP3    H1 8046   4.784   2.840   0.834  0.7720 -0.8659 -0.8519
 2680TIP3    H2 8047   4.652   2.796   0.894 -0.2213  1.6116 -1.0669
 2681TIP3   OH2 8048   2.947   1.472   2.548 -0.0802 -0.5359  0.0887
 2681TIP3    H1 8049   2.892   1.548   2.571  1.4281  0.6256  0.0366
 2681TIP3    H2 8050   2.934   1.461   2.454 -2.4848 -2.1938  0.5301
 2682TIP3   OH2 8051   4.194   2.939   1.002  0.1018  0.1265  0.0365
 2682TIP3    H1 8052   4.104   2.969   1.010  0.1094  0.3654 -0.6396
 2682TIP3    H2 8053   4.193   2.881   0.926  0.1565 -1.3720  1.1451
 2683TIP3   OH2 8054   5.931   3.125   1.897 -0.0940 -0.4088 -0.6099
 2683TIP3    H1 8055   5.925   3.220   1.895 -2.0657 -0.3498  1.9934
 2683TIP3    H2 8056   5.860   3.095   1.841 -0.5752 -0.2881 -0.0770
 2684TIP3   OH2 8057   0.025   1.731   5.057  0.2679  0.0702 -0.1072
 2684TIP3    H1 8058   0.061   1.681   5.130  0.7874 -2.3912 -1.9080
 2684TIP3    H2 8059   0.094   1.794   5.035  0.9464 -0.5166  0.2868
 2685TIP3   OH2 8060   6.250   2.318   5.048 -0.2985 -0.0719 -0.1028
 2685TIP3    H1 8061   6.330   2.359   5.079 -1.0910  1.3593  0.1459
 2685TIP3    H2 8062   6.250   2.332   4.954 -0.4901  0.3658 -0.0383
 2686TIP3   OH2 8063   1.918   1.893   0.119 -0.2519 -0.1369  0.2815
 2686TIP3    H1 8064   1.889   1.813   0.074 -0.7817 -0.2007  0.7288
 2686TIP3    H2 8065   1.837   1.934   0.150  0.1034 -0.1137  1.2033
 2687TIP3   OH2 8066   2.837   3.460   3.438 -0.5789 -0.0779  0.5031
 2687TIP3    H1 8067   2.760   3.403   3.438 -0.9106  0.3408 -0.8726
 2687TIP3    H2 8068   2.839   3.497   3.526 -2.4077  0.4983  0.3449
 2688TIP3   OH2 8069   4.529   5.038   4.770 -0.4083  0.3451 -0.9320
 2688TIP3    H1 8070   4.465   5.046   4.699 -1.8277 -2.6856 -0.1529
 2688TIP3    H2 8071   4.477   5.042   4.850  0.6725 -0.0022 -0.1918
 2689TIP3   OH2 8072   4.314   5.985   0.074  0.1217  0.2681 -0.1004
 2689TIP3    H1 8073   4.232   5.946   0.042  1.0363 -1.4539 -0.5087
 2689TIP3    H2 8074   4.308   5.980   0.169 -0.1868 -0.0157 -0.1332
 2690TIP3   OH2 8075   0.824   0.512   4.420 -0.4605 -0.2365  0.0855
 2690TIP3    H1 8076   0.752   0.529   4.481 -0.4308 -0.9908  0.3387
 2690TIP3    H2 8077   0.841   0.418   4.429  0.7155 -0.0212  0.2156
 2691TIP3   OH2 8078   3.305   3.944   0.603 -0.3759 -0.9273 -0.1245
 2691TIP3    H1 8079   3.241   3.908   0.664  1.2680 -0.4456  1.9725
 2691TIP3    H2 8080   3.307   4.038   0.622  1.2191 -0.9970  0.1414
 2692TIP3   OH2 8081   1.885   5.413   4.281  0.2644  0.6978  0.2158
 2692TIP3    H1 8082   1.865   5.506   4.268  0.8898  0.9600  1.0723
 2692TIP3    H2 8083   1.922   5.385   4.197  0.7377  1.4020  0.1859
 2693TIP3   OH2 8084   5.851   4.270   3.702 -0.3525 -0.3359 -0.2062
 2693TIP3    H1 8085   5.931   4.319   3.685 -0.3000 -0.2169  0.3669
 2693TIP3    H2 8086   5.844   4.267   3.797 -0.5746 -1.0830 -0.2371
 2694TIP3   OH2 8087   5.043   0.060   1.131 -0.2430  0.3091  0.0354
 2694TIP3    H1 8088   5.087  -0.022   1.156  0.9723  0.7692 -0.4853
 2694TIP3    H2 8089   5.070   0.123   1.197  1.2049  0.9776 -1.1172
 2695TIP3   OH2 8090   2.629   2.663   2.989 -0.1365 -0.4426 -0.5621
 2695TIP3    H1 8091   2.544   2.705   3.001  0.7985  1.3596  0.1006
 2695TIP3    H2 8092   2.615   2.573   3.019 -1.2691  0.3916  1.6205
 2696TIP3   OH2 8093   5.456   4.099   2.635  0.1037  0.0034 -0.1194
 2696TIP3    H1 8094   5.506   4.172   2.671 -2.1250  1.2760  0.5961
 2696TIP3    H2 8095   5.449   4.119   2.542  2.5041 -1.2417 -0.6638
 2697TIP3   OH2 8096   6.060   0.227   0.165  0.0907 -0.3610  0.8814
 2697TIP3    H1 8097   6.056   0.191   0.253  0.3021 -0.9326  0.6564
 2697TIP3    H2 8098   6.035   0.319   0.176  2.4207  0.2075  1.8907
 2698TIP3   OH2 8099   0.526   0.832   2.231  0.0181 -0.1749  0.1065
 2698TIP3    H1 8100   0.586   0.904   2.248  0.2444  0.2542 -2.2615
 2698TIP3    H2 8101   0.571   0.755   2.268  1.4509  0.3397 -0.4861
 2699TIP3   OH2 8102   6.138   0.929   4.339  0.0211  0.3100 -0.1896
 2699TIP3    H1 8103   6.191   0.893   4.410  1.1541  0.1049 -1.1187
 2699TIP3    H2 8104   6.177   0.894   4.259 -0.7989  1.1044 -0.9623
 2700TIP3   OH2 8105   1.777   5.754   2.379  0.1620 -0.1828  0.0838
 2700TIP3    H1 8106   1.748   5.664   2.396  1.2505 -0.5834 -0.1273
 2700TIP3    H2 8107   1.702   5.808   2.404 -0.3816 -1.1243  0.5474
 2701TIP3   OH2 8108   3.599   1.435   4.391  0.2787 -0.4295 -0.4832
 2701TIP3    H1 8109   3.554   1.390   4.462 -0.0545 -0.0029 -0.4195
 2701TIP3    H2 8110   3.655   1.368   4.351  1.0906 -0.4731  0.6920
 2702TIP3   OH2 8111   2.476   5.800   1.974  0.2042 -0.4769  0.0244
 2702TIP3    H1 8112   2.463   5.715   1.932 -2.1503 -1.0168  1.6498
 2702TIP3    H2 8113   2.418   5.798   2.051  0.5167  2.3782  0.4408
 2703TIP3   OH2 8114   1.402   2.614   1.082  0.6915  0.0548  0.3601
 2703TIP3    H1 8115   1.441   2.611   1.169 -0.4356  0.3008  0.8907
 2703TIP3    H2 8116   1.322   2.664   1.093 -0.4971 -1.5897 -0.3982
 2704TIP3   OH2 8117   1.049   1.745   4.065 -0.8549  0.0568  0.1862
 2704TIP3    H1 8118   1.086   1.700   4.141  0.2259  0.6143  0.0083
 2704TIP3    H2 8119   0.993   1.680   4.022 -0.5900 -0.5969  0.8332
 2705TIP3   OH2 8120   4.470   0.124   4.953  0.3458 -0.2417  0.5621
 2705TIP3    H1 8121   4.434   0.188   5.014  0.7757  0.7154 -0.1426
 2705TIP3    H2 8122   4.411   0.127   4.878  1.2079  0.5005 -0.1202
 2706TIP3   OH2 8123   5.803   4.133   2.411  0.3257 -0.0539  0.2759
 2706TIP3    H1 8124   5.814   4.044   2.443 -3.2202 -0.9003 -0.4331
 2706TIP3    H2 8125   5.758   4.179   2.481  1.7209  1.1181  0.4525
 2707TIP3   OH2 8126   5.744   2.027   3.382 -0.5401  0.0843  0.4508
 2707TIP3    H1 8127   5.655   2.040   3.414 -1.2105 -0.8254 -0.9099
 2707TIP3    H2 8128   5.762   2.104   3.329 -0.7555 -0.0005  0.2512
 2708TIP3   OH2 8129   2.939   2.579   1.700 -0.1780 -0.1896 -0.3860
 2708TIP3    H1 8130   2.887   2.547   1.773 -0.7026  1.3602 -0.0394
 2708TIP3    H2 8131   2.962   2.669   1.724  0.8256 -0.1133 -1.5103
 2709TIP3   OH2 8132   4.425   1.414   3.118 -0.7085  0.0084  0.0703
 2709TIP3    H1 8133   4.415   1.506   3.095  0.7928 -0.1510 -1.3927
 2709TIP3    H2 8134   4.364   1.368   3.060 -1.3259  0.0471  0.6752
 2710TIP3   OH2 8135   0.069   0.737   0.979 -0.1149  0.0612 -0.1412
 2710TIP3    H1 8136   0.081   0.707   1.069 -0.3352  0.3617 -0.0106
 2710TIP3    H2 8137   0.095   0.829   0.981  0.7901 -0.1653 -0.5913
 2711TIP3   OH2 8138   1.369   3.511   1.134  0.0395 -1.3374  0.3428
 2711TIP3    H1 8139   1.301   3.509   1.067 -1.1809 -1.9425  1.5597
 2711TIP3    H2 8140   1.442   3.462   1.095 -0.0486 -0.3834 -1.1187
 2712TIP3   OH2 8141   6.049   5.120   3.829 -0.4049  0.0089  0.2806
 2712TIP3    H1 8142   6.130   5.070   3.837  0.3952  1.1130 -0.6843
 2712TIP3    H2 8143   5.985   5.070   3.881  0.6926 -1.2644  0.4595
 2713TIP3   OH2 8144   1.450   4.294   4.595  0.1239 -0.2178  0.1234
 2713TIP3    H1 8145   1.356   4.296   4.581  0.1723  0.0217 -0.1906
 2713TIP3    H2 8146   1.469   4.372   4.647  0.1492 -0.2583  0.1747
 2714TIP3   OH2 8147   3.749   4.918   1.548 -0.3461  0.2545  0.2061
 2714TIP3    H1 8148   3.735   4.878   1.634 -0.0236 -0.5785 -0.1166
 2714TIP3    H2 8149   3.843   4.909   1.532 -0.6481 -1.2751 -1.0083
 2715TIP3   OH2 8150   2.898   1.349   1.454 -0.0996 -0.0337  0.4207
 2715TIP3    H1 8151   2.920   1.291   1.527  1.8420  1.4601  1.1118
 2715TIP3    H2 8152   2.977   1.350   1.400 -1.5163 -1.1327 -1.7845
 2716TIP3   OH2 8153   6.342   4.046   2.005  0.4793 -0.3168  0.0604
 2716TIP3    H1 8154   6.398   4.058   2.082  0.1919 -2.2421  0.6353
 2716TIP3    H2 8155   6.257   4.021   2.041 -0.1401  0.3754 -0.8650
 2717TIP3   OH2 8156   4.406   4.275   3.346 -0.0581  0.2719 -0.1296
 2717TIP3    H1 8157   4.365   4.252   3.430 -1.9684  1.1805 -0.7480
 2717TIP3    H2 8158   4.474   4.209   3.333  0.8610  0.5643  2.5126
 2718TIP3   OH2 8159   2.323   5.860   3.428  0.1948 -0.4712  0.1318
 2718TIP3    H1 8160   2.411   5.858   3.390 -0.5256 -0.0565 -1.6542
 2718TIP3    H2 8161   2.280   5.935   3.386 -0.4980  0.3815  2.2196
 2719TIP3   OH2 8162   0.079   3.761   4.746 -0.6605 -0.4425  0.1294
 2719TIP3    H1 8163  -0.003   3.792   4.708 -0.6421 -0.4016  0.1231
 2719TIP3    H2 8164   0.068   3.773   4.840 -0.4874 -0.0073  0.0998
 2720TIP3   OH2 8165   0.825   1.093   4.169  0.3198 -0.2125  0.0603
 2720TIP3    H1 8166   0.869   1.008   4.168 -1.0960 -0.9583 -1.0946
 2720TIP3    H2 8167   0.894   1.155   4.196  1.9702 -1.3835 -1.2731
 2721TIP3   OH2 8168   3.955   4.132   1.891 -0.5904 -0.0277  0.2237
 2721TIP3    H1 8169   3.910   4.109   1.810  0.5666  0.1794 -0.4898
 2721TIP3    H2 8170   3.944   4.055   1.947  2.6185 -2.2446 -1.8523
 2722TIP3   OH2 8171   4.234   2.575   4.285  0.3374  0.5781 -0.5748
 2722TIP3    H1 8172   4.309   2.612   4.238  0.5486  0.0485 -0.6614
 2722TIP3    H2 8173   4.172   2.552   4.216  0.8135 -0.5734 -0.6479
 2723TIP3   OH2 8174   4.888   5.412   2.576  0.2668 -0.1409 -0.2042
 2723TIP3    H1 8175   4.878   5.322   2.546 -2.0770  0.2281 -0.7399
 2723TIP3    H2 8176   4.981   5.430   2.568  0.5329 -1.9133 -1.8475
 2724TIP3   OH2 8177   1.333   2.595   0.114 -0.1637 -0.3056 -0.1684
 2724TIP3    H1 8178   1.300   2.682   0.135 -2.0021 -1.1661  0.7026
 2724TIP3    H2 8179   1.309   2.582   0.022 -1.0313 -0.3693  0.0609
 2725TIP3   OH2 8180   5.797   1.974   2.122  0.2120  0.4700  0.2772
 2725TIP3    H1 8181   5.834   2.060   2.104  1.1792  0.1642  0.7660
 2725TIP3    H2 8182   5.766   1.943   2.037  0.5534  0.9724 -0.0373
 2726TIP3   OH2 8183   0.329   0.959   2.120  0.5159 -0.1200  0.1610
 2726TIP3    H1 8184   0.326   1.048   2.155  1.6768 -0.3237  0.8396
 2726TIP3    H2 8185   0.411   0.923   2.154 -0.3329 -1.7324  0.5775
 2727TIP3   OH2 8186   1.362   0.201   1.306 -0.1806 -0.0252  0.0902
 2727TIP3    H1 8187   1.332   0.177   1.394 -1.0534 -3.7819 -1.0631
 2727TIP3    H2 8188   1.448   0.160   1.298  1.8334  3.6328  0.3900
 2728TIP3   OH2 8189   1.566   6.002   2.226  0.7240  0.4786  0.1430
 2728TIP3    H1 8190   1.540   5.922   2.271  1.1421  1.2743  1.8851
 2728TIP3    H2 8191   1.644   6.032   2.273 -0.0342  2.4562  0.2403
 2729TIP3   OH2 8192   0.079   0.484   4.625 -0.1501  0.0880 -0.5853
 2729TIP3    H1 8193   0.045   0.519   4.542  2.9666 -0.6597 -2.3613
 2729TIP3    H2 8194   0.120   0.559   4.668  0.1974  0.0476 -0.8421
 2730TIP3   OH2 8195   0.016   1.048   2.299 -0.0682  0.1007 -0.4771
 2730TIP3    H1 8196  -0.053   1.112   2.318 -1.7988 -1.2056 -1.9779
 2730TIP3    H2 8197   0.091   1.077   2.350 -1.2276  2.5125 -0.0289
 2731TIP3   OH2 8198   6.151   2.452   2.321 -0.5595 -0.1310 -0.2842
 2731TIP3    H1 8199   6.077   2.465   2.380 -0.0642 -1.4322  0.6832
 2731TIP3    H2 8200   6.152   2.358   2.304  1.3564 -0.2979  0.4228
 2732TIP3   OH2 8201   5.636   3.179   3.327  0.5184  0.1785 -0.6758
 2732TIP3    H1 8202   5.694   3.129   3.384 -0.0784 -2.2726 -2.0863
 2732TIP3    H2 8203   5.694   3.226   3.268  1.0982  0.0531 -0.2094
 2733TIP3   OH2 8204   1.729   5.071   3.804  0.0803 -0.2637  0.0019
 2733TIP3    H1 8205   1.740   4.976   3.793 -1.9310 -0.6326  0.7138
 2733TIP3    H2 8206   1.702   5.081   3.895 -1.4423  0.8081 -0.5414
 2734TIP3   OH2 8207   2.363   5.185   4.680 -0.3067 -0.3587 -0.0507
 2734TIP3    H1 8208   2.456   5.168   4.664 -0.4483  0.0065 -1.4288
 2734TIP3    H2 8209   2.362   5.267   4.730  0.1189 -0.2082 -0.2770
 2735TIP3   OH2 8210   3.916   4.033   2.601 -0.6105 -0.0848 -0.3484
 2735TIP3    H1 8211   3.941   4.064   2.688 -0.3061 -2.4023  0.4574
 2735TIP3    H2 8212   3.821   4.047   2.596 -0.7172 -0.4385  0.5984
 2736TIP3   OH2 8213   0.386   1.992   5.138  0.2073  0.0770  0.6310
 2736TIP3    H1 8214   0.454   1.960   5.197 -0.0336  2.2931  2.2588
 2736TIP3    H2 8215   0.354   2.073   5.180 -1.6281  0.4942 -1.3798
 2737TIP3   OH2 8216   1.605   3.082   0.204 -0.6191  0.2811  0.5717
 2737TIP3    H1 8217   1.647   3.093   0.290 -0.0377 -0.1028  0.3480
 2737TIP3    H2 8218   1.611   2.987   0.188 -3.5322 -0.1551  1.5069
 2738TIP3   OH2 8219   4.371   3.232   3.802 -0.3189 -0.0332 -0.2375
 2738TIP3    H1 8220   4.425   3.241   3.724 -1.1147  2.1403 -0.6060
 2738TIP3    H2 8221   4.424   3.181   3.863  0.7059 -0.9278 -1.8110
 2739TIP3   OH2 8222   1.620   4.830   0.641 -0.1753 -0.4392 -0.0492
 2739TIP3    H1 8223   1.585   4.754   0.595 -2.1462 -0.8287  1.9281
 2739TIP3    H2 8224   1.551   4.896   0.632  0.8948  0.6520 -0.5275
 2740TIP3   OH2 8225   4.027   5.233   1.862 -0.1790  0.0292 -0.2122
 2740TIP3    H1 8226   3.977   5.204   1.938  1.0720  0.7777  0.9207
 2740TIP3    H2 8227   4.023   5.328   1.864  0.3448  0.0735 -0.7544
 2741TIP3   OH2 8228   2.055   2.594   2.539 -0.3448  0.1966  0.2031
 2741TIP3    H1 8229   1.994   2.578   2.468  2.2783 -1.0328 -1.9313
 2741TIP3    H2 8230   2.077   2.687   2.532 -1.5312  0.5318  0.6905
 2742TIP3   OH2 8231   5.601   1.099   1.844 -0.1106 -0.1883  0.6011
 2742TIP3    H1 8232   5.532   1.162   1.822  0.5529 -0.3713 -2.3483
 2742TIP3    H2 8233   5.554   1.024   1.881 -1.0845  1.1578  2.2255
 2743TIP3   OH2 8234   3.735   3.528   0.345 -0.0488  0.8320  0.2354
 2743TIP3    H1 8235   3.793   3.539   0.270 -0.5319 -0.4661 -0.3667
 2743TIP3    H2 8236   3.778   3.574   0.417  1.0564  1.0065 -0.5264
 2744TIP3   OH2 8237   0.473   1.583   1.528 -0.4480  0.1771  0.3216
 2744TIP3    H1 8238   0.485   1.504   1.475 -0.0411 -0.2021  0.9655
 2744TIP3    H2 8239   0.552   1.588   1.582 -1.3714 -0.1218  1.7583
 2745TIP3   OH2 8240   0.572   1.088   2.577 -0.5879  0.1741  0.2855
 2745TIP3    H1 8241   0.519   1.157   2.537 -1.7894  0.4756  2.2748
 2745TIP3    H2 8242   0.570   1.108   2.671  1.9116 -0.6237  0.5798
 2746TIP3   OH2 8243   5.382   1.972   3.746 -0.3808  0.1184 -0.1885
 2746TIP3    H1 8244   5.434   2.047   3.778  0.8903 -1.6146  2.1834
 2746TIP3    H2 8245   5.291   1.999   3.759  0.0446  1.1934  0.8087
 2747TIP3   OH2 8246   4.115   4.886   3.140 -0.4506 -0.1596  0.0288
 2747TIP3    H1 8247   4.198   4.860   3.099 -0.5063  0.2612 -0.3601
 2747TIP3    H2 8248   4.100   4.820   3.208 -0.5838 -1.1435 -0.9292
 2748TIP3   OH2 8249   4.936   2.095   2.515  0.4083  0.2020  0.4812
 2748TIP3    H1 8250   4.941   2.079   2.421 -1.5534 -1.4458  0.5912
 2748TIP3    H2 8251   4.888   2.177   2.524  0.0342  0.0293  0.0575
 2749TIP3   OH2 8252   3.103   5.128   0.495 -0.0716 -0.0740 -0.2838
 2749TIP3    H1 8253   3.141   5.178   0.423 -1.8451  1.1589 -0.4375
 2749TIP3    H2 8254   3.021   5.093   0.459  0.1262 -1.3520  0.4606
 2750TIP3   OH2 8255   3.355   1.361   3.651 -0.6382  0.5720  0.3348
 2750TIP3    H1 8256   3.290   1.361   3.722 -0.0541 -1.8907  0.9471
 2750TIP3    H2 8257   3.437   1.386   3.694 -0.0021 -2.1937  0.9377
 2751TIP3   OH2 8258   3.870   5.445   2.906 -0.5511 -0.7837  0.0958
 2751TIP3    H1 8259   3.894   5.353   2.923  2.1351 -0.3294 -0.6796
 2751TIP3    H2 8260   3.934   5.496   2.956 -1.6653  0.6807  0.0886
 2752TIP3   OH2 8261   2.287   5.700   3.801 -0.0324  0.0402 -0.1886
 2752TIP3    H1 8262   2.255   5.786   3.830 -0.0648 -0.1312  0.3085
 2752TIP3    H2 8263   2.212   5.642   3.812 -0.3965  0.1954 -1.7547
 2753TIP3   OH2 8264   0.624   1.020   0.806  0.2671 -0.6669 -0.2469
 2753TIP3    H1 8265   0.626   1.105   0.762 -1.4756 -0.2069  0.5032
 2753TIP3    H2 8266   0.543   0.979   0.776 -0.6753 -0.5805  2.0395
 2754TIP3   OH2 8267   4.318   3.001   1.750  0.2980  0.0967  0.0618
 2754TIP3    H1 8268   4.282   3.083   1.783  0.0034 -0.1259  0.3023
 2754TIP3    H2 8269   4.361   3.024   1.668 -3.9862 -0.3053 -2.5643
 2755TIP3   OH2 8270   0.552   5.838   3.011 -0.0665 -0.0857 -0.0522
 2755TIP3    H1 8271   0.570   5.829   3.105  0.2171 -2.3059 -0.2525
 2755TIP3    H2 8272   0.458   5.823   3.004 -0.3332  1.4720 -0.0057
 2756TIP3   OH2 8273   1.532   5.429   2.938 -0.8166 -0.4020  0.2650
 2756TIP3    H1 8274   1.583   5.372   2.881 -0.6670 -0.7052  0.7002
 2756TIP3    H2 8275   1.442   5.396   2.930 -0.5508 -1.4863  1.4437
 2757TIP3   OH2 8276   3.665   1.681   0.766 -0.3645  1.0629 -0.4145
 2757TIP3    H1 8277   3.663   1.587   0.748 -0.0750  1.1148 -0.7357
 2757TIP3    H2 8278   3.645   1.688   0.860  0.2325  0.6377 -0.2468
 2758TIP3   OH2 8279   4.543   4.936   3.227 -0.0803  0.3993 -0.2308
 2758TIP3    H1 8280   4.497   4.890   3.157  0.2397  0.7563 -0.6816
 2758TIP3    H2 8281   4.482   5.004   3.256  0.6013  1.7075 -1.6968
 2759TIP3   OH2 8282   4.541   1.264   0.521 -0.1080  0.3129 -0.3566
 2759TIP3    H1 8283   4.470   1.253   0.583  0.2186  0.6453  0.0779
 2759TIP3    H2 8284   4.611   1.307   0.571  0.5542 -0.3901 -0.6576
 2760TIP3   OH2 8285   1.605   5.249   5.093  0.3393  0.2074  0.0496
 2760TIP3    H1 8286   1.593   5.337   5.130 -2.5870 -0.7259  1.6679
 2760TIP3    H2 8287   1.667   5.206   5.151  1.2658  0.9724 -0.3554
 2761TIP3   OH2 8288   1.073   4.557   2.059  0.0608 -0.4075  0.1742
 2761TIP3    H1 8289   1.048   4.613   2.132  1.9171  1.0841 -0.2640
 2761TIP3    H2 8290   1.168   4.560   2.058  0.1292 -1.9407 -1.1467
 2762TIP3   OH2 8291   4.291   3.396   4.698  0.1533  0.2216  0.4280
 2762TIP3    H1 8292   4.324   3.424   4.783  0.3727 -1.4192  0.9219
 2762TIP3    H2 8293   4.255   3.475   4.659 -2.4436  0.6104  3.1781
 2763TIP3   OH2 8294   1.434   0.931   0.258  0.5330  0.0992  0.2275
 2763TIP3    H1 8295   1.452   0.940   0.165  0.4354  0.9105  0.2811
 2763TIP3    H2 8296   1.505   0.876   0.291  0.6467 -0.0732 -0.3006
 2764TIP3   OH2 8297   4.069   1.607   2.730 -0.3020 -0.0370  0.1418
 2764TIP3    H1 8298   4.118   1.587   2.650  0.6339  0.0913  0.6642
 2764TIP3    H2 8299   4.010   1.533   2.742  1.3526 -1.3326  0.7097
 2765TIP3   OH2 8300   3.619   2.522   4.326  0.5562  0.1168  0.1565
 2765TIP3    H1 8301   3.647   2.436   4.293  0.6035 -0.2339  1.0908
 2765TIP3    H2 8302   3.534   2.537   4.284  1.2482  0.3470 -1.2502
 2766TIP3   OH2 8303   5.493   5.590   1.048 -0.3046 -0.0854  0.2371
 2766TIP3    H1 8304   5.427   5.526   1.075 -0.6036  0.5810  1.1234
 2766TIP3    H2 8305   5.529   5.624   1.130  0.4229  0.3014 -0.2267
 2767TIP3   OH2 8306   6.132   5.165   3.170  0.4407 -0.1232  0.3061
 2767TIP3    H1 8307   6.060   5.116   3.130  0.5152  0.0670 -0.0688
 2767TIP3    H2 8308   6.091   5.215   3.241  0.1884  0.0337  0.0529
 2768TIP3   OH2 8309   1.732   4.520   1.986 -0.0051  0.2282 -0.4815
 2768TIP3    H1 8310   1.797   4.511   1.916 -0.8873  0.0756 -1.3024
 2768TIP3    H2 8311   1.669   4.583   1.952 -2.3956 -2.4466 -1.3673
 2769TIP3   OH2 8312   4.921   0.963   0.996 -0.3077 -0.2336 -0.5782
 2769TIP3    H1 8313   4.991   0.907   0.964  0.4132 -1.2332  2.3856
 2769TIP3    H2 8314   4.890   0.920   1.076 -3.4880  0.8359 -1.1080
 2770TIP3   OH2 8315   2.331   1.405   4.396  0.3441  0.2931 -0.0101
 2770TIP3    H1 8316   2.348   1.424   4.488 -0.9014 -0.1120  0.3178
 2770TIP3    H2 8317   2.358   1.314   4.385 -0.6625 -0.0512  0.2760
 2771TIP3   OH2 8318   3.249   3.967   4.628 -0.1495  0.4025 -0.3978
 2771TIP3    H1 8319   3.254   4.029   4.701  0.1777 -1.0521  0.8900
 2771TIP3    H2 8320   3.159   3.975   4.597 -0.9307 -0.2995  1.4953
 2772TIP3   OH2 8321   0.546   3.309   2.764 -0.1355 -0.2727  0.2141
 2772TIP3    H1 8322   0.459   3.296   2.803 -1.2785 -1.1561 -2.3660
 2772TIP3    H2 8323   0.553   3.403   2.752 -0.3363 -0.1165  1.2583
 2773TIP3   OH2 8324   2.436   0.297   0.620 -0.1127  0.0624 -0.3354
 2773TIP3    H1 8325   2.402   0.229   0.678 -0.3517  0.7859  0.3899
 2773TIP3    H2 8326   2.451   0.252   0.537 -3.3251 -0.2505 -0.8934
 2774TIP3   OH2 8327   2.811   2.477   1.928  0.1523  0.0446  0.3952
 2774TIP3    H1 8328   2.810   2.382   1.931  0.0382  0.0619  2.6809
 2774TIP3    H2 8329   2.726   2.503   1.963  0.1552  1.0127 -0.2718
 2775TIP3   OH2 8330   0.332   2.350   4.750  0.2264  0.3204  0.2336
 2775TIP3    H1 8331   0.400   2.358   4.683 -1.2839  0.0833 -1.4001
 2775TIP3    H2 8332   0.367   2.285   4.812  0.3755 -1.9492 -2.0564
 2776TIP3   OH2 8333   0.646   0.520   2.774  0.9832 -0.3122  0.5048
 2776TIP3    H1 8334   0.598   0.602   2.780  0.6038 -0.4649 -0.3316
 2776TIP3    H2 8335   0.639   0.481   2.861  1.3146  0.6181  0.9598
 2777TIP3   OH2 8336   2.093   0.000   2.521  0.1957 -0.2928  0.5264
 2777TIP3    H1 8337   2.113  -0.008   2.428  0.3296 -0.7827  0.5949
 2777TIP3    H2 8338   2.010   0.048   2.524  0.0968 -0.4386  0.1479
 2778TIP3   OH2 8339   2.700   4.874   2.634 -0.6426 -0.7472  0.3764
 2778TIP3    H1 8340   2.722   4.787   2.668  0.9205 -0.4338  0.2432
 2778TIP3    H2 8341   2.669   4.858   2.545  0.4423 -1.1258  0.0462
 2779TIP3   OH2 8342   1.211   2.091   1.687  0.0316 -0.5242 -0.2779
 2779TIP3    H1 8343   1.140   2.054   1.739  0.0807  0.1257  0.2600
 2779TIP3    H2 8344   1.285   2.096   1.747  0.7854 -1.9122 -1.0278
 2780TIP3   OH2 8345   2.960   4.650   1.053  0.3490  0.2220 -0.1043
 2780TIP3    H1 8346   3.001   4.735   1.068 -1.0201  0.6918  1.3019
 2780TIP3    H2 8347   2.873   4.671   1.021 -0.8998 -0.4837  2.5135
 2781TIP3   OH2 8348   4.570   0.557   3.404 -0.0522 -0.9318 -0.0409
 2781TIP3    H1 8349   4.486   0.585   3.441 -0.2374 -0.2928 -0.8983
 2781TIP3    H2 8350   4.635   0.607   3.454 -0.3257  0.3037 -0.8740
 2782TIP3   OH2 8351   4.279   4.275   1.725  0.6058  0.0124  0.3812
 2782TIP3    H1 8352   4.207   4.334   1.703  0.2484 -0.2451  0.8386
 2782TIP3    H2 8353   4.246   4.188   1.701  0.6338 -0.1428  0.9089
 2783TIP3   OH2 8354   0.938   3.081   2.725  0.0011 -0.1725  0.0839
 2783TIP3    H1 8355   0.858   3.132   2.741 -0.1585 -0.5859  0.6440
 2783TIP3    H2 8356   1.004   3.123   2.780 -0.0841 -0.4401  0.3981
 2784TIP3   OH2 8357   2.159   1.226   1.480  0.4457  0.5278  0.3964
 2784TIP3    H1 8358   2.112   1.283   1.419 -1.7496 -0.0157  1.4938
 2784TIP3    H2 8359   2.248   1.261   1.482 -0.8579  4.1496  1.2884
 2785TIP3   OH2 8360   2.179   1.887   0.769 -0.1052  0.3456 -0.2724
 2785TIP3    H1 8361   2.090   1.852   0.773  0.0701 -0.0246  0.7541
 2785TIP3    H2 8362   2.171   1.977   0.800 -0.0275  0.1046  0.4587
 2786TIP3   OH2 8363   6.078   3.996   2.105  0.1840  0.1581 -0.3705
 2786TIP3    H1 8364   5.985   3.976   2.094 -0.0495  1.0928 -0.1899
 2786TIP3    H2 8365   6.080   4.069   2.166  1.0489  0.0779 -0.2876
 2787TIP3   OH2 8366   0.205   1.786   3.525 -0.2630 -0.3409 -0.0190
 2787TIP3    H1 8367   0.188   1.843   3.600 -1.0711 -0.5228 -0.0452
 2787TIP3    H2 8368   0.263   1.836   3.468  0.2467 -0.1486  0.6635
 2788TIP3   OH2 8369   1.684   4.185   5.098  0.6051  0.6606 -0.4076
 2788TIP3    H1 8370   1.772   4.150   5.110  0.2696 -0.0007  0.2814
 2788TIP3    H2 8371   1.646   4.132   5.028  0.1245 -0.3686  0.5817
 2789TIP3   OH2 8372   6.164   4.205   0.770 -0.2537  0.0703  1.3295
 2789TIP3    H1 8373   6.101   4.218   0.840 -1.0882 -0.1017  0.6239
 2789TIP3    H2 8374   6.139   4.268   0.702 -1.5064 -1.9111 -0.1824
 2790TIP3   OH2 8375   4.076   4.317   4.753 -0.5361  0.3279  0.1907
 2790TIP3    H1 8376   4.012   4.338   4.821 -2.0008  0.0642 -1.0665
 2790TIP3    H2 8377   4.086   4.399   4.704 -1.8524 -0.2633 -1.1453
 2791TIP3   OH2 8378   4.687   4.772   1.671 -0.0318  0.1948  0.2999
 2791TIP3    H1 8379   4.707   4.852   1.718  2.1231 -1.4862  2.4974
 2791TIP3    H2 8380   4.639   4.718   1.734  0.2678 -0.9838 -0.4393
 2792TIP3   OH2 8381   5.756   3.632   0.468  0.2914  0.3779  0.3482
 2792TIP3    H1 8382   5.709   3.644   0.551 -0.9507  0.9213 -0.3981
 2792TIP3    H2 8383   5.762   3.721   0.431 -0.6663 -0.0384 -0.8992
 2793TIP3   OH2 8384   0.987   1.720   3.277  0.4732  0.0567 -0.5055
 2793TIP3    H1 8385   0.916   1.668   3.314  0.8665 -1.4905 -1.7905
 2793TIP3    H2 8386   0.986   1.801   3.327 -0.9094 -0.7240  0.8279
 2794TIP3   OH2 8387   0.290   0.304   1.240  0.0130  0.0073 -0.3077
 2794TIP3    H1 8388   0.248   0.347   1.316  0.3426  1.1139 -0.7310
 2794TIP3    H2 8389   0.368   0.263   1.276 -1.5989 -2.4830  0.5875
 2795TIP3   OH2 8390   4.558   5.516   0.322  0.7708  0.0863  0.2531
 2795TIP3    H1 8391   4.488   5.568   0.283  0.6792 -1.6546 -2.1089
 2795TIP3    H2 8392   4.606   5.480   0.247  1.9488 -1.7381  1.7885
 2796TIP3   OH2 8393   1.289   3.023   1.541  0.4107 -0.4543 -0.2866
 2796TIP3    H1 8394   1.194   3.026   1.554  0.4833 -1.2186  0.4717
 2796TIP3    H2 8395   1.313   3.114   1.520 -0.2996  0.0230  0.8811
 2797TIP3   OH2 8396   6.043   0.025   4.539 -0.0233 -0.3387  0.2113
 2797TIP3    H1 8397   5.965   0.009   4.486 -0.4648  1.6097  0.2054
 2797TIP3    H2 8398   6.011   0.023   4.629  0.0872 -0.3797  0.2491
 2798TIP3   OH2 8399   2.851   5.820   2.959  0.3168  0.4548 -0.0978
 2798TIP3    H1 8400   2.838   5.816   3.054  0.5772 -0.1871 -0.0814
 2798TIP3    H2 8401   2.938   5.782   2.946 -0.1359 -0.4172 -0.6817
 2799TIP3   OH2 8402   0.302   3.826   4.572  0.6175  0.1405 -0.6140
 2799TIP3    H1 8403   0.390   3.858   4.594 -0.0770  1.5695  0.2160
 2799TIP3    H2 8404   0.246   3.859   4.642 -0.5417 -1.0818 -0.9122
 2800TIP3   OH2 8405   3.798   0.736   4.602  0.0967  0.3303 -0.4312
 2800TIP3    H1 8406   3.791   0.694   4.688 -2.4175  1.8020  0.1766
 2800TIP3    H2 8407   3.765   0.670   4.541  0.0005 -0.0046 -0.0251
 2801TIP3   OH2 8408   2.055   4.379   1.952  0.2142 -0.0683  0.4704
 2801TIP3    H1 8409   2.044   4.438   1.878 -1.2225 -1.5415 -0.5542
 2801TIP3    H2 8410   2.137   4.334   1.934  0.3176  0.2093  0.2338
 2802TIP3   OH2 8411   4.393   3.870   3.018  0.2518  0.3308  0.1431
 2802TIP3    H1 8412   4.315   3.872   2.962 -0.4328 -0.9380  1.0145
 2802TIP3    H2 8413   4.377   3.798   3.079  2.7936 -1.0326 -0.6453
 2803TIP3   OH2 8414   5.207   5.380   1.802  0.1640  0.1138 -0.0381
 2803TIP3    H1 8415   5.260   5.446   1.757  2.3920 -0.2993  1.7907
 2803TIP3    H2 8416   5.230   5.298   1.759 -0.4143  0.1553 -0.4350
 2804TIP3   OH2 8417   5.964   5.607   3.298 -0.1490 -0.1112  0.0182
 2804TIP3    H1 8418   5.918   5.536   3.343 -2.0952 -0.2464 -1.9984
 2804TIP3    H2 8419   5.924   5.687   3.333 -0.2059 -0.1390  0.0172
 2805TIP3   OH2 8420   5.305   3.636   0.487  0.2078 -0.5129  0.1701
 2805TIP3    H1 8421   5.272   3.619   0.575 -1.0131  0.5796 -0.0439
 2805TIP3    H2 8422   5.284   3.728   0.471  3.3877  0.3150  0.0085
 2806TIP3   OH2 8423   2.490   0.655   4.908 -0.3751 -0.0120  0.2386
 2806TIP3    H1 8424   2.562   0.593   4.891 -0.2262  0.1448  0.2945
 2806TIP3    H2 8425   2.497   0.720   4.838 -0.6181 -0.1349  0.0999
 2807TIP3   OH2 8426  -0.029   0.537   1.842  0.4057 -0.3649  0.1249
 2807TIP3    H1 8427   0.009   0.592   1.773  0.9924  0.9349  1.4333
 2807TIP3    H2 8428   0.046   0.490   1.879  0.5083  0.8203  1.4973
 2808TIP3   OH2 8429   0.407   0.812   5.162  0.0268 -0.2669 -0.2996
 2808TIP3    H1 8430   0.353   0.873   5.112 -1.7039 -1.5757 -0.1261
 2808TIP3    H2 8431   0.433   0.861   5.240 -0.9513  0.4079 -0.3848
 2809TIP3   OH2 8432   5.819   0.421   0.186  0.1980  0.2381  0.2318
 2809TIP3    H1 8433   5.898   0.475   0.177  0.2210  0.1022 -0.4701
 2809TIP3    H2 8434   5.753   0.468   0.135 -0.2840  0.5508  1.1311
 2810TIP3   OH2 8435   3.714   1.562   4.719 -0.2673 -0.5696 -0.0396
 2810TIP3    H1 8436   3.774   1.523   4.656 -0.5643 -2.4915  0.8004
 2810TIP3    H2 8437   3.641   1.501   4.725  0.8900 -1.9265  3.9533
 2811TIP3   OH2 8438   6.221   5.782   3.620 -0.2218 -0.0239 -0.0276
 2811TIP3    H1 8439   6.152   5.848   3.630 -0.0294  0.5391 -1.9107
 2811TIP3    H2 8440   6.297   5.821   3.663  0.3754  1.8789 -2.5020
 2812TIP3   OH2 8441   0.679   3.366   0.998 -0.0512 -0.6277  0.1215
 2812TIP3    H1 8442   0.732   3.389   1.075 -0.7844 -0.0499  0.4638
 2812TIP3    H2 8443   0.674   3.270   1.001 -0.4683 -0.5914  1.0784
 2813TIP3   OH2 8444   3.066   0.135   2.768 -0.4397  0.3379  0.0231
 2813TIP3    H1 8445   3.083   0.062   2.709 -0.3263  0.1174  0.3235
 2813TIP3    H2 8446   3.038   0.207   2.711  1.1166  0.6018 -0.4716
 2814TIP3   OH2 8447   2.374   1.574   1.953  0.5811 -0.6196 -0.0446
 2814TIP3    H1 8448   2.367   1.608   2.042  1.1481 -2.8117  0.9075
 2814TIP3    H2 8449   2.335   1.486   1.958 -0.4403 -0.3564 -2.2500
 2815TIP3   OH2 8450   4.867   4.956   2.298  0.1104  0.1003 -0.0500
 2815TIP3    H1 8451   4.906   4.878   2.339  2.0179  0.4551 -1.0487
 2815TIP3    H2 8452   4.780   4.962   2.336  0.1773 -2.1021  0.5976
 2816TIP3   OH2 8453   1.680   1.526   0.780  0.1616  0.6870  0.2532
 2816TIP3    H1 8454   1.716   1.511   0.693 -0.6055 -0.2869  0.0878
 2816TIP3    H2 8455   1.737   1.477   0.839 -0.9172 -0.9613 -0.0214
 2817TIP3   OH2 8456   2.311   2.107   4.476 -0.0473  0.0886 -0.3308
 2817TIP3    H1 8457   2.380   2.135   4.535 -1.2584  0.4722  0.9685
 2817TIP3    H2 8458   2.349   2.033   4.428  0.6881 -0.8807  1.6285
 2818TIP3   OH2 8459   2.981   0.744   3.124 -0.2163  0.2526 -0.5447
 2818TIP3    H1 8460   3.040   0.763   3.051  0.4549 -1.2836 -0.4283
 2818TIP3    H2 8461   3.038   0.714   3.195 -0.9847  0.4340  0.1716
 2819TIP3   OH2 8462   0.004   3.160   0.786  0.3335  0.3694 -0.0812
 2819TIP3    H1 8463  -0.033   3.221   0.850  1.9949  0.8736  0.4665
 2819TIP3    H2 8464   0.098   3.179   0.787  0.5189 -0.2034 -2.0697
 2820TIP3   OH2 8465   2.454   2.918   3.289  0.0155 -0.7774 -0.1077
 2820TIP3    H1 8466   2.363   2.898   3.310 -0.2343 -0.3377 -0.7413
 2820TIP3    H2 8467   2.452   2.947   3.198  0.6970 -0.1032  0.0838
 2821TIP3   OH2 8468   5.390   4.250   4.488  0.0041  0.6792  0.2194
 2821TIP3    H1 8469   5.347   4.283   4.566 -0.9171 -1.6878  0.8004
 2821TIP3    H2 8470   5.444   4.177   4.518  0.7689  0.6230 -1.1649
 2822TIP3   OH2 8471   2.821   0.715   4.301  0.5718  0.7707  0.6199
 2822TIP3    H1 8472   2.896   0.673   4.344  1.9518  2.1500 -0.3264
 2822TIP3    H2 8473   2.829   0.689   4.209  0.1918  1.3576  0.4179
 2823TIP3   OH2 8474   4.246   4.478   0.974 -0.1884 -0.0938  0.1716
 2823TIP3    H1 8475   4.277   4.472   1.065  1.2906  0.1212 -0.2854
 2823TIP3    H2 8476   4.251   4.388   0.941 -2.3856 -0.4970  0.7694
 2824TIP3   OH2 8477   5.013   3.005   2.483 -0.1166 -0.4060  0.4392
 2824TIP3    H1 8478   4.920   3.002   2.461  0.0898  2.5094 -1.3563
 2824TIP3    H2 8479   5.030   3.097   2.503  2.6588 -0.5363 -0.8200
 2825TIP3   OH2 8480   2.525   5.396   2.617 -0.0615 -0.4021 -0.8542
 2825TIP3    H1 8481   2.489   5.390   2.706 -0.1783 -1.2629 -0.9485
 2825TIP3    H2 8482   2.586   5.323   2.611  2.1549  1.3259 -0.5367
 2826TIP3   OH2 8483   5.930   1.327   4.131 -0.6564 -0.2400 -0.2924
 2826TIP3    H1 8484   5.960   1.239   4.153 -0.6449 -0.6670 -1.8882
 2826TIP3    H2 8485   5.836   1.317   4.115 -0.8071  0.2021  0.2739
 2827TIP3   OH2 8486   3.802   0.345   0.900  0.5330 -0.3259  0.1591
 2827TIP3    H1 8487   3.832   0.255   0.903 -0.7757 -0.7477  1.9187
 2827TIP3    H2 8488   3.708   0.340   0.918  0.3256  1.3447 -0.2689
 2828TIP3   OH2 8489   4.592   5.556   2.310 -0.4140  0.0615 -0.0594
 2828TIP3    H1 8490   4.504   5.576   2.278 -0.6020 -0.5521  0.0806
 2828TIP3    H2 8491   4.581   5.537   2.403  0.1495  1.9329  0.4437
 2829TIP3   OH2 8492   5.793   3.857   2.526 -0.8968 -0.2376 -0.5471
 2829TIP3    H1 8493   5.722   3.816   2.575 -0.9883  0.5112 -0.0444
 2829TIP3    H2 8494   5.873   3.821   2.565 -0.9790 -0.1093 -0.2638
 2830TIP3   OH2 8495   4.232   2.106   3.929 -0.3699  0.0657  0.5728
 2830TIP3    H1 8496   4.301   2.102   3.995 -1.4684  1.4911  1.8802
 2830TIP3    H2 8497   4.189   2.190   3.945 -3.1456 -1.2685  0.5821
 2831TIP3   OH2 8498   1.113   0.171   4.673  0.0605  0.4714 -0.2165
 2831TIP3    H1 8499   1.103   0.120   4.592 -0.9765 -0.3067  0.3779
 2831TIP3    H2 8500   1.207   0.186   4.680  0.6047 -2.5130  0.2366
 2832TIP3   OH2 8501   5.269   0.194   2.405  0.2377 -0.1175  0.0690
 2832TIP3    H1 8502   5.268   0.113   2.354  1.3333 -0.4479  0.5293
 2832TIP3    H2 8503   5.351   0.189   2.456  0.5914  1.5160 -0.2891
 2833TIP3   OH2 8504   4.574   3.199   3.594  0.0221 -0.3727 -0.1265
 2833TIP3    H1 8505   4.537   3.143   3.526 -0.6628 -0.7655  0.5477
 2833TIP3    H2 8506   4.634   3.142   3.642 -0.8277 -0.6115  0.6881
 2834TIP3   OH2 8507   6.041   2.162   0.066 -0.3139  0.6064 -0.0335
 2834TIP3    H1 8508   6.009   2.113   0.142  0.1926 -0.4559 -0.4831
 2834TIP3    H2 8509   6.102   2.225   0.102  2.1223 -1.7341  0.2732
 2835TIP3   OH2 8510   1.901   4.763   3.790  0.3412 -0.7842  0.7340
 2835TIP3    H1 8511   1.925   4.681   3.833  2.2586  0.7289  2.7819
 2835TIP3    H2 8512   1.984   4.807   3.775 -0.6361  0.7169 -0.4733
 2836TIP3   OH2 8513   1.137   3.875   3.164  0.4587 -0.6111  0.5701
 2836TIP3    H1 8514   1.208   3.855   3.225  0.4711  0.4260  0.9070
 2836TIP3    H2 8515   1.083   3.939   3.210 -0.7988 -1.4976  0.3945
 2837TIP3   OH2 8516   3.815   2.380   1.433 -0.2503 -0.2734 -0.1642
 2837TIP3    H1 8517   3.724   2.351   1.422  0.8561 -3.8480 -1.5756
 2837TIP3    H2 8518   3.851   2.320   1.499  1.3690  0.2824 -0.4983
 2838TIP3   OH2 8519   0.152   0.307   2.015  0.0310 -0.2208  0.7893
 2838TIP3    H1 8520   0.170   0.399   2.034 -2.5767  0.8486 -1.2199
 2838TIP3    H2 8521   0.064   0.293   2.050 -0.4610 -1.2832 -0.7848
 2839TIP3   OH2 8522   0.889   2.581   2.197  0.3827  0.4919 -0.0194
 2839TIP3    H1 8523   0.890   2.526   2.119 -0.9693  0.6861 -0.1822
 2839TIP3    H2 8524   0.963   2.640   2.185  0.8532 -0.1992 -0.6185
 2840TIP3   OH2 8525   0.155   3.548   3.971 -0.2081 -0.1208 -0.6802
 2840TIP3    H1 8526   0.182   3.522   3.882  0.4743  0.6187 -0.7005
 2840TIP3    H2 8527   0.167   3.643   3.972  1.0539 -0.2635  0.6144
 2841TIP3   OH2 8528   0.245   3.456   0.155  0.5927 -0.0691  0.2342
 2841TIP3    H1 8529   0.173   3.453   0.218  0.3327 -1.2313 -0.0917
 2841TIP3    H2 8530   0.224   3.530   0.098  1.5324  1.8955  2.2749
 2842TIP3   OH2 8531   2.420   2.546   3.974 -0.1422  0.4358  0.2772
 2842TIP3    H1 8532   2.338   2.568   3.929 -0.5223 -0.2322  0.6396
 2842TIP3    H2 8533   2.425   2.451   3.970  0.4553  0.4539  0.5449
 2843TIP3   OH2 8534   3.757   1.348   0.101  0.0298  0.2788 -0.4912
 2843TIP3    H1 8535   3.676   1.334   0.151  1.6546  0.6831  2.5456
 2843TIP3    H2 8536   3.783   1.438   0.123  1.5004  0.0253 -1.0631
 2844TIP3   OH2 8537   0.168   0.021   3.869  0.0256 -0.0924  0.0807
 2844TIP3    H1 8538   0.172   0.019   3.965  0.6081 -2.2175  0.0635
 2844TIP3    H2 8539   0.080  -0.012   3.848  0.0642 -0.0672 -0.1241
 2845TIP3   OH2 8540   0.251   4.037   3.510  0.0494 -0.3130 -0.5298
 2845TIP3    H1 8541   0.277   4.087   3.433  2.5678  0.5626  0.7488
 2845TIP3    H2 8542   0.222   4.103   3.573 -2.5257 -1.0547 -0.8388
 2846TIP3   OH2 8543   3.660   2.747   2.684  0.1050  0.6322 -0.6896
 2846TIP3    H1 8544   3.690   2.683   2.620 -0.2691  0.6683 -0.8968
 2846TIP3    H2 8545   3.712   2.728   2.762  0.7329  0.7413 -1.0727
 2847TIP3   OH2 8546   4.091   0.513   3.634 -0.5656 -0.1300  0.4428
 2847TIP3    H1 8547   4.029   0.571   3.678  1.1144  0.5951  2.0125
 2847TIP3    H2 8548   4.075   0.427   3.673  0.8587  0.4888  2.5918
 2848TIP3   OH2 8549   4.297   2.247   3.248 -0.2382  0.0775  0.4757
 2848TIP3    H1 8550   4.305   2.205   3.333 -0.5292  1.9015  1.4537
 2848TIP3    H2 8551   4.204   2.269   3.241  0.0721  1.5269  0.5243
 2849TIP3   OH2 8552   6.164   1.741   2.284  0.3692  0.2180 -0.3242
 2849TIP3    H1 8553   6.215   1.766   2.360  0.9650  1.3927 -1.0740
 2849TIP3    H2 8554   6.102   1.675   2.316  0.3966  0.9184  1.2156
 2850TIP3   OH2 8555   3.658   3.803   3.160 -0.5139 -0.3943  0.3258
 2850TIP3    H1 8556   3.622   3.851   3.235 -0.6032 -1.4971  1.0196
 2850TIP3    H2 8557   3.583   3.782   3.106 -0.2446  2.2502 -1.2651
 2851TIP3   OH2 8558   6.232   2.242   2.586 -0.5234  0.6250 -0.1371
 2851TIP3    H1 8559   6.160   2.268   2.644 -1.4198 -0.7139 -0.6075
 2851TIP3    H2 8560   6.309   2.240   2.643 -1.1705  0.4873  0.7482
 2852TIP3   OH2 8561   1.238   2.173   1.175  0.1588 -0.1112 -0.3518
 2852TIP3    H1 8562   1.274   2.137   1.094  0.7617 -1.2405  0.4071
 2852TIP3    H2 8563   1.218   2.097   1.229 -1.4094  0.5802  0.0895
 2853TIP3   OH2 8564   4.870   4.121   4.854  0.2497  0.5280  0.1577
 2853TIP3    H1 8565   4.873   4.201   4.801  1.3208  1.3281  1.3780
 2853TIP3    H2 8566   4.948   4.125   4.908 -0.3230 -0.7492  1.1245
 2854TIP3   OH2 8567   2.651   0.638   1.570  0.3333  0.0769 -0.2342
 2854TIP3    H1 8568   2.606   0.559   1.541  0.3427  0.4144 -1.1923
 2854TIP3    H2 8569   2.738   0.633   1.530  1.2322 -0.6059  1.6584
 2855TIP3   OH2 8570   3.979   3.247   4.624  0.3775  0.3563  0.3612
 2855TIP3    H1 8571   3.988   3.154   4.603  1.1857  0.8182 -1.5774
 2855TIP3    H2 8572   4.018   3.292   4.549  2.4300  2.2494  2.4193
 2856TIP3   OH2 8573   5.989   5.388   2.586  0.0531 -0.3759 -0.5076
 2856TIP3    H1 8574   6.021   5.475   2.610 -0.0003 -0.4188 -0.2727
 2856TIP3    H2 8575   5.994   5.385   2.491 -1.1970  0.3687 -0.6064
 2857TIP3   OH2 8576   6.018   3.630   4.444 -0.3937  0.7047 -0.0356
 2857TIP3    H1 8577   5.980   3.662   4.526  0.0989  1.2664 -0.0226
 2857TIP3    H2 8578   6.106   3.601   4.467 -0.7852 -0.6004 -0.0675
 2858TIP3   OH2 8579   5.981   5.306   3.361 -0.3238 -0.6467 -0.1894
 2858TIP3    H1 8580   6.014   5.314   3.450  0.3197 -0.5613 -0.4322
 2858TIP3    H2 8581   5.930   5.225   3.362  0.2640 -1.0231  0.0799
 2859TIP3   OH2 8582   2.234   1.845   4.304 -0.0542 -0.2009  0.8533
 2859TIP3    H1 8583   2.225   1.798   4.221 -0.4448 -1.4497  1.5642
 2859TIP3    H2 8584   2.328   1.845   4.321  0.0725  0.4563  0.2112
 2860TIP3   OH2 8585   0.913   5.105   2.449 -0.1882  0.0312  0.0026
 2860TIP3    H1 8586   0.938   5.012   2.451 -1.7897 -0.5570 -2.5757
 2860TIP3    H2 8587   0.823   5.106   2.482 -0.8745  0.3361 -1.7895
 2861TIP3   OH2 8588   0.299   3.090   3.933  0.2464 -0.7289  0.2403
 2861TIP3    H1 8589   0.206   3.069   3.942 -0.6509  1.8942 -1.7758
 2861TIP3    H2 8590   0.343   3.026   3.989 -2.8506 -0.9307  2.7423
 2862TIP3   OH2 8591   3.355   1.218   0.934 -0.2006 -0.7134  0.3658
 2862TIP3    H1 8592   3.375   1.184   0.847 -3.1255 -0.0135 -0.7004
 2862TIP3    H2 8593   3.271   1.179   0.957 -0.1947  0.2405  2.2716
 2863TIP3   OH2 8594   5.343   3.375   3.342 -0.0882 -0.6757 -0.1943
 2863TIP3    H1 8595   5.267   3.354   3.288 -1.2210  0.5831  0.8319
 2863TIP3    H2 8596   5.415   3.329   3.300 -0.9362  0.0823 -2.6886
 2864TIP3   OH2 8597   6.245   1.801   1.400 -0.0812 -0.4888 -0.3913
 2864TIP3    H1 8598   6.335   1.821   1.374 -0.3290  0.9744 -0.1756
 2864TIP3    H2 8599   6.255   1.744   1.477  0.6953  1.0708  0.7212
 2865TIP3   OH2 8600   0.145   2.471   5.127  0.4171 -0.3868 -0.1962
 2865TIP3    H1 8601   0.134   2.553   5.176  1.8726 -0.9402  1.1569
 2865TIP3    H2 8602   0.182   2.498   5.043 -0.5921  0.4584 -0.3904
 2866TIP3   OH2 8603   4.093   1.516   1.723 -0.0674 -0.4504  0.1391
 2866TIP3    H1 8604   4.017   1.564   1.756  0.7956  0.4562  0.8911
 2866TIP3    H2 8605   4.145   1.583   1.679 -0.9914 -1.5336 -2.8468
 2867TIP3   OH2 8606   4.694   1.339   3.977  0.1287 -0.1594  0.2652
 2867TIP3    H1 8607   4.698   1.415   4.035  1.9732  0.4532 -0.6196
 2867TIP3    H2 8608   4.785   1.312   3.965 -0.1979 -0.4251 -2.1177
 2868TIP3   OH2 8609   4.559   4.039   3.241 -0.4279  0.4856 -0.5008
 2868TIP3    H1 8610   4.599   4.064   3.158 -0.4273 -0.3762 -0.7692
 2868TIP3    H2 8611   4.516   3.955   3.223 -2.8176  1.5983 -0.3675
 2869TIP3   OH2 8612   6.187   5.033   4.107  0.4598 -0.0337  0.7211
 2869TIP3    H1 8613   6.226   5.096   4.167 -0.4331 -0.1869  1.4867
 2869TIP3    H2 8614   6.249   5.028   4.033  0.9581  1.0776  1.0470
 2870TIP3   OH2 8615   0.710   1.937   4.764 -0.0568 -0.3225  0.2326
 2870TIP3    H1 8616   0.771   1.958   4.835 -1.2349 -0.1255  1.2193
 2870TIP3    H2 8617   0.732   1.847   4.740  2.0302  0.4370 -0.9289
 2871TIP3   OH2 8618   2.865   4.112   0.268  0.2962  0.4288  0.2251
 2871TIP3    H1 8619   2.859   4.207   0.259  1.9946  0.5129 -0.4174
 2871TIP3    H2 8620   2.943   4.097   0.322  0.6367 -0.6012 -0.5037
 2872TIP3   OH2 8621   2.565   5.686   1.177 -0.4020  0.8200 -0.0342
 2872TIP3    H1 8622   2.534   5.608   1.223  0.8240  0.5780  0.4240
 2872TIP3    H2 8623   2.639   5.717   1.229  0.4361  1.0765 -1.3267
 2873TIP3   OH2 8624   4.551   2.987   1.937 -0.0281  0.4942  0.1043
 2873TIP3    H1 8625   4.484   3.038   1.890  0.4483  0.7153 -0.3451
 2873TIP3    H2 8626   4.503   2.944   2.008 -0.6215  0.7672 -0.1239
 2874TIP3   OH2 8627   2.766   0.026   1.688 -0.2246 -0.5116 -0.1549
 2874TIP3    H1 8628   2.789  -0.051   1.741  2.2429 -1.2322 -2.0795
 2874TIP3    H2 8629   2.843   0.082   1.692 -1.1028  0.7706 -0.6823
 2875TIP3   OH2 8630   0.584   5.629   1.207  0.1878  0.4453 -0.3522
 2875TIP3    H1 8631   0.498   5.635   1.248  1.4673  1.0444  2.4912
 2875TIP3    H2 8632   0.601   5.717   1.173 -0.6654  0.0745 -1.8443
 2876TIP3   OH2 8633   6.067   2.929   5.074  0.1465  0.1575  0.2028
 2876TIP3    H1 8634   6.125   2.871   5.025  1.3094  0.3489  1.3015
 2876TIP3    H2 8635   6.012   2.870   5.126  1.2358  0.0018  1.2161
 2877TIP3   OH2 8636   0.704   0.210   3.367 -0.7424  0.2399 -0.3205
 2877TIP3    H1 8637   0.673   0.128   3.406 -0.1706 -0.0030 -0.3712
 2877TIP3    H2 8638   0.670   0.279   3.425  1.4989 -0.1714  1.6430
 2878TIP3   OH2 8639   6.001   0.278   4.421 -0.1467  0.3746  0.1423
 2878TIP3    H1 8640   6.042   0.213   4.478  3.2850  1.8165 -0.4518
 2878TIP3    H2 8641   5.988   0.232   4.337  1.8982  0.2948 -0.1632
 2879TIP3   OH2 8642   5.550   5.459   1.499 -0.2022 -0.6730 -0.9061
 2879TIP3    H1 8643   5.533   5.550   1.473 -1.4801  0.1139  2.1485
 2879TIP3    H2 8644   5.481   5.408   1.457 -2.0299  0.4793  0.5095
 2880TIP3   OH2 8645   4.562   5.658   1.641 -0.1227  0.3101  0.1204
 2880TIP3    H1 8646   4.651   5.694   1.640 -0.6193  1.5677 -0.3582
 2880TIP3    H2 8647   4.546   5.637   1.733  0.7809 -0.2326  0.1628
 2881TIP3   OH2 8648   5.981   2.961   4.579  0.3167  0.0075 -0.3381
 2881TIP3    H1 8649   5.971   3.049   4.543  1.0607 -0.3375 -1.4126
 2881TIP3    H2 8650   5.920   2.959   4.653  1.1316  1.8228  0.4643
 2882TIP3   OH2 8651   1.111   0.337   0.190 -0.0758  0.4445  0.2286
 2882TIP3    H1 8652   1.044   0.279   0.225  0.0889 -0.0750 -0.2967
 2882TIP3    H2 8653   1.161   0.365   0.267 -0.2274 -0.0217  0.5003
 2883TIP3   OH2 8654   2.688   1.475   2.374  0.9915 -0.4058 -0.2952
 2883TIP3    H1 8655   2.663   1.546   2.432  1.7949  0.1051 -0.5617
 2883TIP3    H2 8656   2.613   1.465   2.315  0.9282  0.3291 -0.3531
 2884TIP3   OH2 8657   2.057   4.066   3.186 -0.0767  0.1159  0.0732
 2884TIP3    H1 8658   2.101   4.149   3.202 -1.0626  0.5884  0.4137
 2884TIP3    H2 8659   1.965   4.083   3.207 -0.2983 -1.0500  0.1111
 2885TIP3   OH2 8660   4.581   0.399   2.461 -0.0543  0.2655  0.8168
 2885TIP3    H1 8661   4.660   0.440   2.496  1.1874 -0.4877 -0.9209
 2885TIP3    H2 8662   4.546   0.463   2.399  2.1932 -1.2441 -2.3157
 2886TIP3   OH2 8663   1.802   5.045   0.639  0.3564  0.6720 -0.1445
 2886TIP3    H1 8664   1.768   4.956   0.626  0.8503  0.2135  1.5442
 2886TIP3    H2 8665   1.726   5.094   0.672  0.5644  0.3770  0.7987
 2887TIP3   OH2 8666   4.931   2.219   0.974  0.2365 -0.3981 -0.4783
 2887TIP3    H1 8667   4.858   2.280   0.975  1.9801  1.7923  0.0782
 2887TIP3    H2 8668   4.892   2.134   0.998 -1.8333  1.0241  1.6188
 2888TIP3   OH2 8669   5.307   4.687   2.384  0.0533 -0.0737 -0.2105
 2888TIP3    H1 8670   5.247   4.667   2.312  0.5215  0.2016 -0.6878
 2888TIP3    H2 8671   5.346   4.771   2.360 -0.2022  0.3000  0.6440
 2889TIP3   OH2 8672   0.617   4.645   3.352 -0.2983 -0.2892 -0.4350
 2889TIP3    H1 8673   0.676   4.665   3.425  1.0685 -0.2901 -1.4885
 2889TIP3    H2 8674   0.543   4.599   3.392  0.5864 -0.6006  0.8974
 2890TIP3   OH2 8675   5.221   0.747   1.238 -0.0017 -0.0947 -0.4626
 2890TIP3    H1 8676   5.214   0.758   1.333  1.2269  1.2693 -0.4930
 2890TIP3    H2 8677   5.280   0.817   1.210 -1.6466  0.5928 -2.4702
 2891TIP3   OH2 8678   3.622   0.237   2.569 -0.1370  0.0356  0.5743
 2891TIP3    H1 8679   3.569   0.198   2.639 -1.4726 -0.4156 -0.6436
 2891TIP3    H2 8680   3.612   0.331   2.581 -1.7951 -0.0294 -0.0103
 2892TIP3   OH2 8681   3.044   1.373   0.867  0.0608 -0.5118 -0.1798
 2892TIP3    H1 8682   3.095   1.377   0.786 -1.3420 -0.3699 -1.0850
 2892TIP3    H2 8683   3.065   1.454   0.912  0.2516 -0.2184 -0.7836
 2893TIP3   OH2 8684   5.184   1.466   4.600 -0.9102 -0.1470  0.0556
 2893TIP3    H1 8685   5.118   1.527   4.632 -0.5167 -0.3847  1.3915
 2893TIP3    H2 8686   5.206   1.412   4.676 -0.4319 -1.2127 -0.8113
 2894TIP3   OH2 8687   6.035   2.160   1.023  1.2365 -0.3032  0.5377
 2894TIP3    H1 8688   6.118   2.199   1.049  1.4636 -0.5583  0.1933
 2894TIP3    H2 8689   5.977   2.235   1.008  0.9577 -0.1382  2.1894
 2895TIP3   OH2 8690   3.250   0.718   2.020  0.7135  0.2460  0.0746
 2895TIP3    H1 8691   3.344   0.720   2.039  1.2086 -0.4411 -2.0255
 2895TIP3    H2 8692   3.216   0.649   2.078  1.7012 -0.2211  0.1305
 2896TIP3   OH2 8693   2.022   3.451   1.847 -0.3150 -0.2664 -0.1235
 2896TIP3    H1 8694   2.013   3.497   1.930 -1.2498  1.3529 -1.0659
 2896TIP3    H2 8695   2.111   3.416   1.848 -0.1422  0.1666  1.3367
 2897TIP3   OH2 8696   1.819   5.477   0.988  0.0813 -0.1335 -0.0216
 2897TIP3    H1 8697   1.904   5.520   0.997 -0.5426  1.1845 -0.2106
 2897TIP3    H2 8698   1.839   5.384   0.998  1.4734  0.1764  0.4211
 2898TIP3   OH2 8699   2.708   1.207   0.300  0.1112  0.3809 -0.3556
 2898TIP3    H1 8700   2.629   1.156   0.318  0.9768 -0.0902  2.7239
 2898TIP3    H2 8701   2.687   1.295   0.332  1.0200  0.0510  1.2777
 2899TIP3   OH2 8702   0.241   1.579   1.322  0.2449  0.3675 -0.1586
 2899TIP3    H1 8703   0.320   1.603   1.371 -0.5816  0.3184  1.2503
 2899TIP3    H2 8704   0.185   1.656   1.328  0.6500  0.8818 -2.2444
 2900TIP3   OH2 8705   0.990   4.465   5.026  0.0884  0.1180  0.1735
 2900TIP3    H1 8706   0.941   4.463   4.943  0.2994 -0.4826  0.0590
 2900TIP3    H2 8707   0.985   4.375   5.059 -1.7815  0.7617  1.8798
 2901TIP3   OH2 8708   0.912   5.639   2.855  0.2077  0.2672 -0.4418
 2901TIP3    H1 8709   0.969   5.632   2.778 -0.3531  0.5557 -0.8925
 2901TIP3    H2 8710   0.970   5.668   2.925  0.8605 -0.6406 -0.5859
 2902TIP3   OH2 8711   0.948   5.399   2.427 -0.4448 -0.6778 -0.7056
 2902TIP3    H1 8712   0.920   5.320   2.475 -2.7219  0.1595 -0.5268
 2902TIP3    H2 8713   0.898   5.396   2.346 -0.1868  0.3260 -0.9108
 2903TIP3   OH2 8714   2.930   5.078   0.281  0.4637 -0.0830 -0.0080
 2903TIP3    H1 8715   2.968   5.148   0.228 -0.1620 -0.9203 -1.6337
 2903TIP3    H2 8716   2.987   5.003   0.266 -1.4808 -1.2537 -2.1921
 2904TIP3   OH2 8717   0.938   4.896   3.199 -0.4207 -0.5002 -0.5751
 2904TIP3    H1 8718   0.925   4.863   3.288 -0.8582  0.4066 -0.2933
 2904TIP3    H2 8719   0.958   4.817   3.147  1.5239 -0.8726  0.6086
 2905TIP3   OH2 8720   1.616   1.991   0.420 -0.2451  0.1520 -0.4158
 2905TIP3    H1 8721   1.669   1.914   0.402  0.6331  0.7818 -0.6120
 2905TIP3    H2 8722   1.526   1.963   0.406  0.0428 -0.9175 -0.1600
 2906TIP3   OH2 8723   3.860   2.853   1.420  0.1462  0.1564 -0.0507
 2906TIP3    H1 8724   3.822   2.778   1.465 -3.6985  1.6522 -0.4107
 2906TIP3    H2 8725   3.938   2.874   1.470  0.6905 -3.2543  0.7786
 2907TIP3   OH2 8726   0.704   1.722   3.016 -0.0881 -0.1456 -0.4165
 2907TIP3    H1 8727   0.753   1.798   3.049  0.5270 -0.3006 -0.9460
 2907TIP3    H2 8728   0.654   1.691   3.091  1.1158 -0.3517  0.3260
 2908TIP3   OH2 8729   0.040   1.694   4.765  0.2106 -0.2845 -0.4338
 2908TIP3    H1 8730   0.064   1.768   4.822  0.1700  0.3851 -1.2649
 2908TIP3    H2 8731  -0.024   1.645   4.816  0.6011 -0.0159  0.3280
 2909TIP3   OH2 8732   0.997   0.077   2.230  0.8325  0.3485  0.0821
 2909TIP3    H1 8733   0.963   0.160   2.199  1.1227  0.9296  1.2589
 2909TIP3    H2 8734   1.092   0.082   2.215  0.8459  0.2208  0.1191
 2910TIP3   OH2 8735   2.470   4.249   4.550 -0.0227  0.2122 -0.0683
 2910TIP3    H1 8736   2.546   4.245   4.492 -0.0553  2.5909 -0.3512
 2910TIP3    H2 8737   2.503   4.289   4.630 -0.2084 -2.1205  1.2739
 2911TIP3   OH2 8738   1.616   3.423   0.976  0.6345 -0.0114  0.1737
 2911TIP3    H1 8739   1.587   3.343   0.933  2.4522  0.5180 -2.2223
 2911TIP3    H2 8740   1.659   3.473   0.907  1.8696  1.8708  2.1942
 2912TIP3   OH2 8741   1.180   5.165   2.014  0.5071 -0.1360  0.1311
 2912TIP3    H1 8742   1.249   5.166   2.081  0.4215  0.9483  0.2173
 2912TIP3    H2 8743   1.149   5.074   2.013  0.2300 -0.0946  1.8549
 2913TIP3   OH2 8744   0.456   2.621   0.596  0.0902 -0.3316  0.3390
 2913TIP3    H1 8745   0.380   2.650   0.545  0.7079  1.8856  0.5966
 2913TIP3    H2 8746   0.525   2.607   0.530  0.2985  0.5698  0.3489
 2914TIP3   OH2 8747   1.178   5.047   4.966 -0.6636 -0.0245 -0.4424
 2914TIP3    H1 8748   1.258   4.996   4.958  0.1019  0.9332  0.7657
 2914TIP3    H2 8749   1.146   5.055   4.876  0.5419 -0.5187 -0.9379
 2915TIP3   OH2 8750   5.217   2.086   0.301 -0.2401  0.3361  0.1882
 2915TIP3    H1 8751   5.224   2.173   0.263 -2.6049 -0.3046 -1.9904
 2915TIP3    H2 8752   5.153   2.097   0.372 -0.4397  0.4156 -0.0010
 2916TIP3   OH2 8753   5.639   0.221   3.629 -0.1258  0.0773 -0.0062
 2916TIP3    H1 8754   5.584   0.166   3.573  1.3693 -0.2895 -1.1653
 2916TIP3    H2 8755   5.605   0.207   3.718 -1.2521 -0.8991 -0.5687
 2917TIP3   OH2 8756   6.041   4.523   0.945  0.4212 -0.4888 -0.3793
 2917TIP3    H1 8757   6.115   4.561   0.898 -0.1234  0.5962 -0.3887
 2917TIP3    H2 8758   6.080   4.457   1.001  1.3805 -0.0621 -0.5165
 2918TIP3   OH2 8759   1.915   3.136   3.324 -0.5119 -0.3165 -0.2722
 2918TIP3    H1 8760   1.916   3.062   3.386 -0.8716 -0.2331 -0.1634
 2918TIP3    H2 8761   1.967   3.204   3.367  2.5500 -1.5447 -1.7053
 2919TIP3   OH2 8762   3.389   3.193   3.044  0.2352 -0.3492 -0.2618
 2919TIP3    H1 8763   3.348   3.144   3.116 -0.8601  0.4476 -0.3108
 2919TIP3    H2 8764   3.428   3.125   2.988 -0.3298 -1.0936  0.2242
 2920TIP3   OH2 8765   4.029   4.839   1.633  0.1203  0.6657  0.1791
 2920TIP3    H1 8766   4.018   4.744   1.633 -0.5638  0.6677  2.5322
 2920TIP3    H2 8767   4.088   4.857   1.560 -1.2552 -1.3391 -1.5479
 2921TIP3   OH2 8768   3.223   0.608   1.764  0.4267 -0.3561 -0.0980
 2921TIP3    H1 8769   3.140   0.648   1.737 -1.3843 -4.1118 -0.6995
 2921TIP3    H2 8770   3.234   0.637   1.855 -1.0972  0.8625 -0.2472
 2922TIP3   OH2 8771   3.765   4.620   3.327 -0.5903  0.0251 -0.1251
 2922TIP3    H1 8772   3.763   4.556   3.256 -2.4929 -0.6777  0.5192
 2922TIP3    H2 8773   3.748   4.704   3.283  1.7216  0.1563 -0.9383
 2923TIP3   OH2 8774   0.681   2.668   3.039 -0.0884  0.6810  0.3006
 2923TIP3    H1 8775   0.730   2.749   3.032 -0.1485  0.6644 -0.4508
 2923TIP3    H2 8776   0.589   2.695   3.038 -0.1240  0.5737 -0.6898
 2924TIP3   OH2 8777   1.107   3.500   3.365  0.7814 -0.0638  0.8539
 2924TIP3    H1 8778   1.154   3.529   3.443 -0.6200 -0.4926  1.9067
 2924TIP3    H2 8779   1.027   3.554   3.365 -1.1150 -2.6402  1.9595
 2925TIP3   OH2 8780   5.287   1.478   3.124  0.7226  0.1090  0.1172
 2925TIP3    H1 8781   5.218   1.544   3.132  1.1543  0.3442  2.8095
 2925TIP3    H2 8782   5.257   1.421   3.053 -1.3994  1.1912  0.0624
 2926TIP3   OH2 8783   0.564   3.435   0.760 -0.0257 -0.1317  0.2249
 2926TIP3    H1 8784   0.608   3.419   0.844 -0.8043 -0.8175  0.5184
 2926TIP3    H2 8785   0.548   3.347   0.725 -1.0722  0.1018  0.0882
 2927TIP3   OH2 8786   0.326   4.317   1.513  0.2684 -0.5721  0.9536
 2927TIP3    H1 8787   0.278   4.235   1.509 -0.2412 -0.3514  2.1078
 2927TIP3    H2 8788   0.265   4.382   1.477 -0.3203 -0.2905  2.4256
 2928TIP3   OH2 8789   0.403   3.642   1.501 -0.1958  0.3963 -0.6175
 2928TIP3    H1 8790   0.428   3.650   1.593 -0.9308  1.3881 -0.4821
 2928TIP3    H2 8791   0.359   3.557   1.495 -0.0136  0.2594 -0.0909
 2929TIP3   OH2 8792   3.071   3.017   1.622 -0.5963 -0.0959  0.6112
 2929TIP3    H1 8793   3.156   3.015   1.579 -1.1050 -0.0062 -0.4269
 2929TIP3    H2 8794   3.044   3.109   1.617 -1.3654 -0.3507 -0.3339
 2930TIP3   OH2 8795   4.022   2.091   2.196 -0.2429 -0.2271 -0.4944
 2930TIP3    H1 8796   4.016   2.096   2.291  1.1066 -3.3011 -0.1250
 2930TIP3    H2 8797   4.110   2.122   2.175 -0.1544 -0.5533 -0.6130
 2931TIP3   OH2 8798   4.379   1.838   4.183  0.0991 -0.3398  0.0738
 2931TIP3    H1 8799   4.446   1.787   4.228  1.5812  0.4661 -1.1184
 2931TIP3    H2 8800   4.358   1.786   4.105 -0.8910 -0.7187  0.5780
 2932TIP3   OH2 8801   3.507   3.162   4.518 -0.2407 -0.4671  0.1345
 2932TIP3    H1 8802   3.553   3.164   4.434 -0.3883  1.7389  0.0327
 2932TIP3    H2 8803   3.415   3.173   4.495 -0.3576 -0.5802  0.5413
 2933TIP3   OH2 8804   0.950   4.009   1.492 -0.6609  0.6250 -0.4853
 2933TIP3    H1 8805   0.871   4.031   1.443 -1.2265  1.0665  0.5994
 2933TIP3    H2 8806   0.953   4.072   1.563 -0.7891 -1.0406  1.0736
 2934TIP3   OH2 8807   1.437   3.177   1.780  0.2024 -0.3453 -0.4258
 2934TIP3    H1 8808   1.390   3.124   1.844  1.1776  1.2660  1.7479
 2934TIP3    H2 8809   1.435   3.125   1.700 -0.9747 -2.5183  0.9213
 2935TIP3   OH2 8810   2.243   2.508   3.161 -0.0594  0.0993  0.5912
 2935TIP3    H1 8811   2.318   2.493   3.219  1.5688  0.8746 -1.1686
 2935TIP3    H2 8812   2.272   2.578   3.102 -2.5678  1.1022  0.4203
 2936TIP3   OH2 8813   0.371   4.023   2.476 -0.1739  0.3640  0.3099
 2936TIP3    H1 8814   0.388   4.107   2.433 -0.1456  0.6593  0.8918
 2936TIP3    H2 8815   0.424   3.960   2.426 -0.3383  0.6573 -0.2428
 2937TIP3   OH2 8816   2.489   0.912   5.128 -0.5039 -0.0467  0.3606
 2937TIP3    H1 8817   2.417   0.858   5.095  0.2305 -1.0740  0.4091
 2937TIP3    H2 8818   2.515   0.965   5.053 -1.6155  0.6949  0.4706
 2938TIP3   OH2 8819   1.846   5.037   1.606  0.1100  0.7088 -0.0506
 2938TIP3    H1 8820   1.925   4.995   1.639 -0.2999  0.5148  0.7082
 2938TIP3    H2 8821   1.870   5.128   1.595  0.1705  0.8532  1.1338
 2939TIP3   OH2 8822   4.534   1.008   0.160 -0.1132  0.2142 -0.1379
 2939TIP3    H1 8823   4.486   1.090   0.170  0.3548  0.7015 -1.6001
 2939TIP3    H2 8824   4.626   1.034   0.151  0.0730 -0.4858 -0.3809
 2940TIP3   OH2 8825   2.087   1.742   1.745 -0.0757  0.1021  0.2315
 2940TIP3    H1 8826   2.012   1.709   1.696 -0.8744  2.5699 -0.3530
 2940TIP3    H2 8827   2.162   1.693   1.711 -0.8315  0.5757 -2.3067
 2941TIP3   OH2 8828   1.652   5.141   4.080 -0.0266 -0.6093 -0.3675
 2941TIP3    H1 8829   1.624   5.202   4.148  1.7432  0.5075 -0.5699
 2941TIP3    H2 8830   1.724   5.093   4.118 -0.0853 -1.1445 -0.9101
 2942TIP3   OH2 8831   2.990   0.521   4.376  0.2316 -0.6597 -0.5321
 2942TIP3    H1 8832   2.958   0.472   4.300 -0.5706 -0.2230 -0.4850
 2942TIP3    H2 8833   3.078   0.486   4.391 -0.3466 -2.1864 -0.4329
 2943TIP3   OH2 8834   3.931   2.597   3.762  0.6004  0.2110 -0.4238
 2943TIP3    H1 8835   3.894   2.544   3.832  0.0236  0.5500 -0.4681
 2943TIP3    H2 8836   3.893   2.563   3.682 -0.0713  0.9282 -0.4205
 2944TIP3   OH2 8837   0.770   5.746   3.256  0.5447  0.1712 -0.0411
 2944TIP3    H1 8838   0.791   5.729   3.348  0.4532 -0.8815 -0.2035
 2944TIP3    H2 8839   0.714   5.823   3.259  1.3311  0.7355  0.7016
 2945TIP3   OH2 8840   3.282   4.665   0.267  0.0299  0.0169 -0.0566
 2945TIP3    H1 8841   3.216   4.613   0.312 -0.3587  0.5891  0.0491
 2945TIP3    H2 8842   3.307   4.613   0.191  0.2956 -0.7145  0.5274
 2946TIP3   OH2 8843   5.027   1.563   4.863  0.2378  0.2135  0.1725
 2946TIP3    H1 8844   5.009   1.471   4.887 -1.4771  0.5225  0.2288
 2946TIP3    H2 8845   4.945   1.608   4.882  1.0828  1.7885  0.1945
 2947TIP3   OH2 8846   3.968   5.328   4.303  0.2257  0.0505 -0.0523
 2947TIP3    H1 8847   4.055   5.298   4.274 -0.0175 -0.4447 -0.2795
 2947TIP3    H2 8848   3.911   5.253   4.289 -0.2264  0.3468  0.1816
 2948TIP3   OH2 8849   2.577   5.819   0.061 -0.2425 -0.0502  0.2155
 2948TIP3    H1 8850   2.628   5.742   0.084 -0.5727 -1.2016 -2.4710
 2948TIP3    H2 8851   2.633   5.868   0.001 -1.4243 -0.2167 -1.0802
 2949TIP3   OH2 8852   6.151   4.957   4.499 -0.1642  0.2722  0.3161
 2949TIP3    H1 8853   6.134   4.989   4.587 -0.0983  0.7589  0.1576
 2949TIP3    H2 8854   6.226   5.009   4.469 -0.9217  0.9557 -0.4613
 2950TIP3   OH2 8855   6.246   3.707   2.242 -0.2427 -0.0999  0.1948
 2950TIP3    H1 8856   6.284   3.723   2.155 -0.3930 -1.1028 -0.0679
 2950TIP3    H2 8857   6.269   3.785   2.293 -0.1084  0.4824 -0.7254
 2951TIP3   OH2 8858   4.487   4.613   1.021 -0.0794  0.2834 -0.2726
 2951TIP3    H1 8859   4.498   4.546   1.088  0.4963  0.9123  0.2807
 2951TIP3    H2 8860   4.404   4.592   0.978  0.4914 -1.2527 -0.6617
 2952TIP3   OH2 8861   4.914   5.018   4.241 -0.2151 -0.2327 -0.0119
 2952TIP3    H1 8862   4.987   5.051   4.189  0.4609 -2.8273 -0.8995
 2952TIP3    H2 8863   4.841   5.014   4.180 -0.6834  0.8753  0.4578
 2953TIP3   OH2 8864   2.445   0.754   3.990 -0.1121  0.2842 -0.4480
 2953TIP3    H1 8865   2.401   0.713   4.064  1.3908 -0.8365 -0.1323
 2953TIP3    H2 8866   2.507   0.815   4.031  2.0755 -1.6850 -0.6107
 2954TIP3   OH2 8867   1.503   5.572   2.648 -0.2622  0.5307 -0.4487
 2954TIP3    H1 8868   1.544   5.512   2.710 -0.0317  1.0532 -0.0903
 2954TIP3    H2 8869   1.537   5.658   2.671 -0.2404  0.7447 -1.2509
 2955TIP3   OH2 8870   2.192   2.915   0.514  0.3966  0.2725  0.0117
 2955TIP3    H1 8871   2.228   2.879   0.595  1.8807  0.5886 -0.4938
 2955TIP3    H2 8872   2.147   2.841   0.473 -0.1778  0.0515  0.9857
 2956TIP3   OH2 8873   4.537   0.568   1.351  0.4640 -0.0086 -0.7548
 2956TIP3    H1 8874   4.493   0.591   1.433  0.2985  1.0531 -1.1279
 2956TIP3    H2 8875   4.468   0.528   1.298  0.4648 -0.2825 -0.5561
 2957TIP3   OH2 8876   5.815   3.383   1.937  0.0946  0.3112 -0.0845
 2957TIP3    H1 8877   5.798   3.299   1.979 -0.1114 -0.1975 -1.1357
 2957TIP3    H2 8878   5.798   3.448   2.005 -1.3637 -0.4125  0.2882
 2958TIP3   OH2 8879   3.397   2.566   4.129 -0.1741  0.6855  0.0386
 2958TIP3    H1 8880   3.346   2.503   4.179  1.2480 -1.4594 -1.0475
 2958TIP3    H2 8881   3.354   2.570   4.044  0.4972  0.1076 -0.3405
 2959TIP3   OH2 8882   3.716   1.254   4.878 -0.1014  0.0029 -0.0400
 2959TIP3    H1 8883   3.699   1.194   4.951 -0.4313 -0.4004 -0.4481
 2959TIP3    H2 8884   3.792   1.305   4.907  1.1922 -1.6782 -0.3282
 2960TIP3   OH2 8885   2.286   3.856   4.074 -0.1148 -0.0191  0.0332
 2960TIP3    H1 8886   2.317   3.912   4.003 -0.1621 -1.1087 -0.8901
 2960TIP3    H2 8887   2.313   3.768   4.048  1.2717 -0.3041  2.1379
 2961TIP3   OH2 8888   0.011   2.353   3.003  0.9648 -0.0431  1.0241
 2961TIP3    H1 8889   0.036   2.287   3.067 -0.0298 -1.7277 -0.2664
 2961TIP3    H2 8890   0.035   2.315   2.918 -2.3769 -0.1546 -0.0013
 2962TIP3   OH2 8891   4.054   2.853   3.972  0.0138 -0.0832 -0.1517
 2962TIP3    H1 8892   4.090   2.782   4.026  1.2696  2.2363  2.2595
 2962TIP3    H2 8893   3.960   2.850   3.990  0.2374 -0.2391  1.1156
 2963TIP3   OH2 8894   4.405   1.228   4.248 -0.2642 -0.1418 -0.3030
 2963TIP3    H1 8895   4.360   1.177   4.182 -0.6998  0.0808 -0.1785
 2963TIP3    H2 8896   4.484   1.260   4.204 -1.1724  1.0564 -1.1045
 2964TIP3   OH2 8897   0.800   2.105   1.519 -0.2780 -0.4269 -0.3154
 2964TIP3    H1 8898   0.854   2.149   1.453  0.5697 -0.8477  0.0875
 2964TIP3    H2 8899   0.737   2.054   1.469 -1.4415  1.3902 -0.8111
 2965TIP3   OH2 8900   5.661   2.589   0.894  0.0366 -0.0244 -0.2826
 2965TIP3    H1 8901   5.698   2.637   0.968  0.7523  0.9506 -1.2487
 2965TIP3    H2 8902   5.567   2.584   0.913  0.2171  0.2046  0.6920
 2966TIP3   OH2 8903   6.183   2.088   1.966 -0.1368 -0.3338  0.2360
 2966TIP3    H1 8904   6.229   2.081   2.049  0.9903  2.6012 -0.0294
 2966TIP3    H2 8905   6.092   2.105   1.990  0.1433  0.2958  0.8608
 2967TIP3   OH2 8906   2.796   3.942   1.822  0.0494  0.3087  0.7663
 2967TIP3    H1 8907   2.706   3.956   1.793  0.5150 -0.2090 -1.0971
 2967TIP3    H2 8908   2.850   3.979   1.752  1.2768 -1.3076  0.7936
 2968TIP3   OH2 8909   5.475   1.898   1.671 -1.1819  0.1561  0.1374
 2968TIP3    H1 8910   5.527   1.965   1.626  0.2883  0.1252  1.6845
 2968TIP3    H2 8911   5.476   1.823   1.613 -0.0707  0.4074 -0.1915
 2969TIP3   OH2 8912   3.873   5.600   4.409  0.3412  0.9081 -0.7003
 2969TIP3    H1 8913   3.869   5.511   4.373  0.6597  0.6734 -0.1703
 2969TIP3    H2 8914   3.782   5.626   4.419  0.2299  0.3645 -0.2076
 2970TIP3   OH2 8915   4.149   0.956   0.039  0.0350 -0.4966  0.0205
 2970TIP3    H1 8916   4.171   1.046   0.062  1.0234 -0.6362 -0.3414
 2970TIP3    H2 8917   4.092   0.964  -0.038 -0.0908 -0.1675  0.1496
 2971TIP3   OH2 8918   2.413   3.186   0.951  0.2982 -0.2123 -0.2119
 2971TIP3    H1 8919   2.488   3.206   0.895 -0.4627 -1.1722 -1.6163
 2971TIP3    H2 8920   2.447   3.195   1.040  2.0865 -0.6626 -0.8117
 2972TIP3   OH2 8921   1.430   1.800   0.500  0.8161  0.5643  0.0129
 2972TIP3    H1 8922   1.449   1.722   0.448  1.2821  0.7365 -0.0745
 2972TIP3    H2 8923   1.509   1.816   0.551  1.3473  1.9497 -1.2024
 2973TIP3   OH2 8924   4.868   5.739   0.879 -0.0814  0.1145 -0.0107
 2973TIP3    H1 8925   4.942   5.773   0.828 -0.7746 -0.4032 -1.3965
 2973TIP3    H2 8926   4.909   5.681   0.943  0.9174  1.7421  0.9165
 2974TIP3   OH2 8927   3.490   0.001   1.233 -0.1627  1.0004  0.4582
 2974TIP3    H1 8928   3.537  -0.067   1.184 -0.5026  1.1006 -0.0196
 2974TIP3    H2 8929   3.544   0.079   1.222 -0.0229  0.9259  0.5999
 2975TIP3   OH2 8930   4.767   1.211   1.069 -0.2461  0.1063  0.1259
 2975TIP3    H1 8931   4.821   1.142   1.030 -1.3366 -0.9204  0.3722
 2975TIP3    H2 8932   4.766   1.190   1.162 -0.6801  0.3893  0.1841
 2976TIP3   OH2 8933   0.185   3.161   1.869  0.2752 -0.4084  0.1124
 2976TIP3    H1 8934   0.165   3.077   1.910 -0.0919 -0.1607  0.4519
 2976TIP3    H2 8935   0.128   3.224   1.914  0.0569 -0.0883 -0.5929
 2977TIP3   OH2 8936   5.585   5.285   3.606 -0.6912  0.5059  0.1013
 2977TIP3    H1 8937   5.666   5.300   3.654 -0.5511 -0.6630  0.2685
 2977TIP3    H2 8938   5.541   5.215   3.655 -0.9365 -0.1281 -0.9851
 2978TIP3   OH2 8939   3.392   4.101   1.948  0.0498 -0.1419  0.4388
 2978TIP3    H1 8940   3.460   4.125   2.012 -1.0912  3.5559  0.5021
 2978TIP3    H2 8941   3.427   4.130   1.864 -1.4442  2.0318  0.5088
 2979TIP3   OH2 8942   2.831   3.814   2.144 -0.4417 -0.0933  0.4700
 2979TIP3    H1 8943   2.752   3.802   2.197 -1.5617 -2.5918 -1.5880
 2979TIP3    H2 8944   2.799   3.825   2.055  1.5204 -0.3066 -0.3005
 2980TIP3   OH2 8945   3.111   3.455   3.215 -0.4557  0.0028  0.3696
 2980TIP3    H1 8946   3.168   3.525   3.245 -0.5303 -0.8479  2.7133
 2980TIP3    H2 8947   3.109   3.393   3.288 -2.6610 -1.0346 -0.4884
 2981TIP3   OH2 8948   5.901   2.259   1.355  0.0286  0.3945 -0.2209
 2981TIP3    H1 8949   5.924   2.219   1.438  0.0153  1.2909  0.2237
 2981TIP3    H2 8950   5.952   2.210   1.290  0.3259 -0.0655  0.3501
 2982TIP3   OH2 8951   6.085   1.195   1.380  0.4857 -0.1222 -0.1010
 2982TIP3    H1 8952   6.025   1.131   1.342  0.2435  0.4584 -0.7200
 2982TIP3    H2 8953   6.063   1.198   1.473 -0.5142  0.1598 -0.3395
 2983TIP3   OH2 8954   2.567   5.237   3.328  0.2997 -0.1085 -0.0488
 2983TIP3    H1 8955   2.565   5.190   3.245 -0.5406  0.5550 -0.4183
 2983TIP3    H2 8956   2.657   5.267   3.336  0.5965 -0.9076 -0.3001
 2984TIP3   OH2 8957   6.350   3.871   3.265  0.2614  0.1533  0.0382
 2984TIP3    H1 8958   6.305   3.940   3.216 -0.4188 -0.5741 -0.3908
 2984TIP3    H2 8959   6.288   3.798   3.264  0.4966 -0.0857  1.4598
 2985TIP3   OH2 8960   0.886   0.266   4.541  0.5226 -0.3053  0.1723
 2985TIP3    H1 8961   0.964   0.271   4.596 -0.2529 -1.2486  1.4064
 2985TIP3    H2 8962   0.856   0.176   4.548 -0.0853 -0.2343 -1.1431
 2986TIP3   OH2 8963   1.762   1.316   0.361  0.8930  0.3299  0.1225
 2986TIP3    H1 8964   1.765   1.369   0.441  0.9105  0.1088  0.2690
 2986TIP3    H2 8965   1.707   1.242   0.384  1.0020  0.2016 -0.0321
 2987TIP3   OH2 8966   1.362   1.093   2.235 -0.2842 -0.2121 -0.0274
 2987TIP3    H1 8967   1.351   1.091   2.330 -1.0250  0.5714 -0.0799
 2987TIP3    H2 8968   1.280   1.131   2.203  0.7159  1.3825 -0.8306
 2988TIP3   OH2 8969   3.976   5.292   3.566  0.2312  0.6064  0.2318
 2988TIP3    H1 8970   3.899   5.236   3.556 -0.3887  1.6962 -1.7552
 2988TIP3    H2 8971   4.046   5.232   3.593 -1.3883 -0.3126  2.7536
 2989TIP3   OH2 8972   1.702   4.960   4.763  0.0016 -0.3280  0.4207
 2989TIP3    H1 8973   1.785   4.924   4.730 -0.2492  0.9013 -1.6898
 2989TIP3    H2 8974   1.729   5.024   4.829  0.8121  0.4369 -0.6084
 2990TIP3   OH2 8975   0.372   1.254   0.135  0.8235  0.0328 -0.3935
 2990TIP3    H1 8976   0.333   1.342   0.134  0.2668 -0.2091 -1.0217
 2990TIP3    H2 8977   0.361   1.223   0.225 -1.1021 -0.3068 -0.7012
 2991TIP3   OH2 8978   2.673   1.447   1.332 -0.3078 -0.1967 -0.0159
 2991TIP3    H1 8979   2.728   1.373   1.359 -2.2956 -2.7831 -2.4988
 2991TIP3    H2 8980   2.730   1.498   1.274 -0.0815 -2.2219 -1.6977
 2992TIP3   OH2 8981   3.476   0.802   0.630 -0.1739  0.1747 -0.1565
 2992TIP3    H1 8982   3.413   0.761   0.689  0.5486 -1.2707 -0.3696
 2992TIP3    H2 8983   3.526   0.862   0.686 -1.2361  0.8139  0.1516
 2993TIP3   OH2 8984   1.734   0.295   2.920  0.2349  0.8424 -0.0648
 2993TIP3    H1 8985   1.824   0.312   2.947 -0.3049 -0.2773  2.6846
 2993TIP3    H2 8986   1.738   0.210   2.875  0.4070  0.1839  1.1528
 2994TIP3   OH2 8987   2.099   0.261   2.738  0.4771  0.3319  0.0949
 2994TIP3    H1 8988   2.057   0.177   2.752 -0.8384  0.4802 -2.4186
 2994TIP3    H2 8989   2.184   0.253   2.782  0.6514 -2.5322 -0.5896
 2995TIP3   OH2 8990   0.616   0.316   4.273  0.3337  0.1437 -0.0147
 2995TIP3    H1 8991   0.628   0.293   4.365 -1.2354 -1.9821 -0.2552
 2995TIP3    H2 8992   0.619   0.412   4.271  1.1909  0.2065  2.1025
 2996TIP3   OH2 8993   4.179   1.796   3.209  0.0690 -0.3790  0.4518
 2996TIP3    H1 8994   4.201   1.735   3.279  0.5497 -0.4560  0.2338
 2996TIP3    H2 8995   4.083   1.793   3.204 -0.1276  0.9651  2.3208
 2997TIP3   OH2 8996   3.888   5.030   2.556 -0.4040 -0.5035  0.0043
 2997TIP3    H1 8997   3.827   5.095   2.519  0.2522 -1.3258 -2.8197
 2997TIP3    H2 8998   3.913   5.066   2.641 -3.3583  0.7700  0.4801
 2998TIP3   OH2 8999   5.736   5.828   0.768 -0.6721 -0.3278 -0.6562
 2998TIP3    H1 9000   5.676   5.835   0.693  0.1888  0.3801 -1.3054
 2998TIP3    H2 9001   5.821   5.853   0.732  0.1470 -1.8580  0.1029
 2999TIP3   OH2 9002   3.802   5.478   1.319 -0.5132  0.6793  0.1923
 2999TIP3    H1 9003   3.832   5.444   1.403  0.5266  0.1360 -0.3808
 2999TIP3    H2 9004   3.871   5.455   1.257 -1.6191  0.3679 -0.9741
 3000TIP3   OH2 9005   2.278   5.563   4.454  0.0314  0.1450 -0.2763
 3000TIP3    H1 9006   2.360   5.531   4.493 -0.4813 -0.8218  0.0369
 3000TIP3    H2 9007   2.209   5.525   4.508 -0.6750 -0.6168 -1.6502
 3001TIP3   OH2 9008   1.454   1.732   4.398  0.6032  0.6689 -0.4017
 3001TIP3    H1 9009   1.519   1.799   4.373  1.8569 -0.4865 -0.3675
 3001TIP3    H2 9010   1.436   1.685   4.317  1.3992 -0.3246 -0.0239
 3002TIP3   OH2 9011   4.859   0.890   1.256 -0.3106 -0.6477  0.1150
 3002TIP3    H1 9012   4.917   0.849   1.319 -0.2098 -0.8206 -0.0903
 3002TIP3    H2 9013   4.784   0.831   1.250 -0.5203 -0.4149  0.3949
 3003TIP3   OH2 9014   6.046   4.474   1.541  0.7193  0.1905 -0.4952
 3003TIP3    H1 9015   6.009   4.404   1.595  1.7325 -0.4356 -0.5720
 3003TIP3    H2 9016   6.098   4.429   1.475  0.1150  0.9787 -1.5446
 3004TIP3   OH2 9017   6.049   0.729   1.789 -0.0404 -0.6149 -0.3672
 3004TIP3    H1 9018   6.104   0.747   1.865  0.1875  0.9409 -0.8736
 3004TIP3    H2 9019   5.978   0.674   1.823  0.0313  0.0862  0.9687
 3005TIP3   OH2 9020   1.905   4.471   4.676  0.2603  0.4230  0.6974
 3005TIP3    H1 9021   1.852   4.403   4.634  1.8897 -1.6401  1.7833
 3005TIP3    H2 9022   1.944   4.428   4.753  4.6789  1.2303 -0.7749
 3006TIP3   OH2 9023   1.478   3.957   1.944  0.6481 -0.4122  0.1602
 3006TIP3    H1 9024   1.413   3.985   2.009  0.8761 -1.4416  0.8480
 3006TIP3    H2 9025   1.435   3.886   1.896  0.7839 -0.1989 -0.2906
 3007TIP3   OH2 9026   4.353   2.013   0.595  0.2146 -0.4026  0.2363
 3007TIP3    H1 9027   4.316   1.926   0.579 -0.1142 -0.8444  2.9232
 3007TIP3    H2 9028   4.443   1.997   0.624  0.3995  0.2078  0.0213
 3008TIP3   OH2 9029   5.911   0.923   4.974  0.4111 -0.5289 -0.2686
 3008TIP3    H1 9030   5.823   0.960   4.977  1.0049  0.9232  1.3131
 3008TIP3    H2 9031   5.905   0.841   5.024 -0.3409 -1.2243 -1.4664
 3009TIP3   OH2 9032   5.062   4.961   1.183  0.3622 -0.4849  0.2126
 3009TIP3    H1 9033   5.076   4.901   1.257 -0.0839  0.3854  1.0346
 3009TIP3    H2 9034   4.973   4.941   1.153  0.1375 -0.1224  0.6149
 3010TIP3   OH2 9035   4.886   0.928   1.638  0.2199  0.4302  0.3118
 3010TIP3    H1 9036   4.800   0.968   1.649 -0.1276 -0.3919  0.6968
 3010TIP3    H2 9037   4.917   0.915   1.728  0.1773 -0.4613  0.2009
 3011TIP3   OH2 9038   5.564   3.441   1.277  0.0296 -0.2287  0.1321
 3011TIP3    H1 9039   5.500   3.384   1.321 -0.2595  0.7062  0.9485
 3011TIP3    H2 9040   5.546   3.529   1.311 -0.5957  0.6589 -2.2737
 3012TIP3   OH2 9041   5.343   2.712   1.324 -0.0272  0.3551  0.3197
 3012TIP3    H1 9042   5.259   2.686   1.286  0.8253  0.3514 -1.6939
 3012TIP3    H2 9043   5.382   2.630   1.355 -0.1076  0.1166 -0.1894
 3013TIP3   OH2 9044   2.117   0.821   1.450 -0.6730 -0.0494 -0.3525
 3013TIP3    H1 9045   2.162   0.894   1.409  0.6003 -0.2982  0.5506
 3013TIP3    H2 9046   2.116   0.842   1.543  0.5879 -1.6064  0.0583
 3014TIP3   OH2 9047   4.088   1.516   1.378  0.5114  0.5798 -0.1571
 3014TIP3    H1 9048   4.148   1.472   1.437 -0.3105 -3.6143 -2.0574
 3014TIP3    H2 9049   4.144   1.555   1.311  1.2978 -1.3169 -0.6779
 3015TIP3   OH2 9050   2.619   4.919   0.798  0.1309  0.0023 -0.1744
 3015TIP3    H1 9051   2.543   4.950   0.848  0.1980 -0.8749  0.5026
 3015TIP3    H2 9052   2.583   4.849   0.742  0.5103 -0.7396  0.4913
 3016TIP3   OH2 9053   3.421   0.759   2.509  0.3129 -0.0033 -0.3062
 3016TIP3    H1 9054   3.495   0.790   2.561  0.4438 -1.3359  0.3429
 3016TIP3    H2 9055   3.386   0.838   2.469  2.3183  0.6217 -0.9529
 3017TIP3   OH2 9056   5.646   0.973   4.063  0.0528 -0.4335  0.2512
 3017TIP3    H1 9057   5.649   0.886   4.103  0.5505 -0.5844 -0.0979
 3017TIP3    H2 9058   5.672   1.033   4.133 -0.5848 -0.5282  0.5774
 3018TIP3   OH2 9059   5.852   4.028   0.973  0.3444 -0.3564  0.3852
 3018TIP3    H1 9060   5.856   4.091   1.045  3.1423  1.2322 -0.9730
 3018TIP3    H2 9061   5.770   3.981   0.986 -0.1186  1.0876  3.5405
 3019TIP3   OH2 9062   3.967   1.897   0.145 -0.4118  0.2429  0.3968
 3019TIP3    H1 9063   3.986   1.886   0.052 -0.6764 -1.6879  0.5329
 3019TIP3    H2 9064   3.893   1.958   0.147 -0.4851  0.2070 -0.6657
 3020TIP3   OH2 9065   4.550   1.721   0.917  0.5221  0.2422 -0.0084
 3020TIP3    H1 9066   4.568   1.814   0.903  2.0059  0.3764  2.3022
 3020TIP3    H2 9067   4.480   1.719   0.982 -0.0758 -0.2934 -0.6496
 3021TIP3   OH2 9068   1.596   0.030   4.157  0.3834  0.0580  0.1404
 3021TIP3    H1 9069   1.683  -0.008   4.165  1.3239  1.2836 -2.6808
 3021TIP3    H2 9070   1.570   0.050   4.247  1.6872 -2.9927  1.3336
 3022TIP3   OH2 9071   4.719   0.446   4.001  0.3942 -0.4406  0.1446
 3022TIP3    H1 9072   4.660   0.413   3.933 -0.9035  3.7343 -1.0447
 3022TIP3    H2 9073   4.805   0.411   3.977 -0.4117 -0.9226 -2.2957
 3023TIP3   OH2 9074   5.895   5.943   1.664  0.3453  0.4423  0.7306
 3023TIP3    H1 9075   5.983   5.925   1.695  0.0766  0.0448  1.2762
 3023TIP3    H2 9076   5.840   5.881   1.710  0.0258 -0.7520 -1.1514
 3024TIP3   OH2 9077   3.688   0.653   2.938  0.1636  0.2427 -0.1056
 3024TIP3    H1 9078   3.745   0.587   2.897 -0.3080 -0.6413  0.6359
 3024TIP3    H2 9079   3.634   0.685   2.865  1.0991  0.5695 -0.6758
 3025TIP3   OH2 9080   5.172   5.443   2.458  0.1810  0.4697  0.0515
 3025TIP3    H1 9081   5.200   5.498   2.532  0.1513  0.9990 -0.3300
 3025TIP3    H2 9082   5.155   5.505   2.387  0.6660 -0.0711 -0.5488
 3026TIP3   OH2 9083   4.448   1.530   0.387  0.1082  0.2843  0.7864
 3026TIP3    H1 9084   4.422   1.449   0.432 -0.2460  0.6587  1.2613
 3026TIP3    H2 9085   4.424   1.515   0.296 -0.9689  0.2782  1.0608
 3027TIP3   OH2 9086   0.023   3.720   2.700  0.5771  0.1786 -0.0435
 3027TIP3    H1 9087   0.049   3.629   2.683  1.1661  0.2654  0.4001
 3027TIP3    H2 9088   0.081   3.773   2.646 -1.1023  0.2325 -1.9229
 3028TIP3   OH2 9089   5.844   0.995   0.736  0.0163  0.6897 -0.1556
 3028TIP3    H1 9090   5.794   0.965   0.812  1.0983  0.4966  0.5083
 3028TIP3    H2 9091   5.882   0.915   0.699  0.0937  0.8650 -0.4662
 3029TIP3   OH2 9092   4.896   2.496   4.122  0.1569 -0.3190  0.5882
 3029TIP3    H1 9093   4.833   2.541   4.066 -0.0963 -0.0543  1.0814
 3029TIP3    H2 9094   4.979   2.539   4.103 -0.0061  0.0717  0.7306
 3030TIP3   OH2 9095   6.073   3.270   3.399 -0.0313  0.5345 -0.1464
 3030TIP3    H1 9096   6.084   3.362   3.376 -0.3462  0.5673 -0.1759
 3030TIP3    H2 9097   6.090   3.266   3.493 -0.8762  0.7794  0.0285
 3031TIP3   OH2 9098   2.353   5.390   2.359 -0.4562  0.4362  0.3400
 3031TIP3    H1 9099   2.422   5.430   2.411  0.1991 -0.6363  0.3323
 3031TIP3    H2 9100   2.301   5.339   2.422 -0.2453 -0.0807  0.1027
 3032TIP3   OH2 9101   3.647   5.117   2.489  0.0839  0.2599  0.8682
 3032TIP3    H1 9102   3.597   5.081   2.562  0.6380 -0.5756  0.8497
 3032TIP3    H2 9103   3.602   5.199   2.468 -1.7455 -0.8039  0.3524
 3033TIP3   OH2 9104   1.865   0.655   1.488 -0.6211  0.3265 -0.0314
 3033TIP3    H1 9105   1.842   0.708   1.564 -0.1513 -0.3516  0.6006
 3033TIP3    H2 9106   1.935   0.705   1.444 -2.3901  1.8260 -1.3180
 3034TIP3   OH2 9107   4.293   2.202   2.185  0.2380  0.0357 -0.5346
 3034TIP3    H1 9108   4.371   2.163   2.225  0.0865  0.3222  0.0407
 3034TIP3    H2 9109   4.328   2.261   2.118  0.5206  0.1863 -0.2574
 3035TIP3   OH2 9110   2.734   0.172   2.758 -0.0036 -0.5436 -0.4864
 3035TIP3    H1 9111   2.675   0.124   2.816  0.0002 -0.0276 -0.0381
 3035TIP3    H2 9112   2.721   0.264   2.783  1.6230 -0.4750  0.2460
 3036TIP3   OH2 9113   3.283   5.012   4.714 -0.1067  0.2698 -0.4047
 3036TIP3    H1 9114   3.355   5.063   4.750 -0.0219  0.5354 -0.9324
 3036TIP3    H2 9115   3.324   4.935   4.675 -0.2944 -0.5322  0.9384
 3037TIP3   OH2 9116   2.537   2.587   1.146 -0.2797 -0.0149 -0.0455
 3037TIP3    H1 9117   2.607   2.629   1.195 -0.3040  1.2848 -1.0628
 3037TIP3    H2 9118   2.465   2.578   1.209 -0.1146  1.0833  0.3173
 3038TIP3   OH2 9119   6.050   1.795   2.036  0.2037 -0.5793 -0.3727
 3038TIP3    H1 9120   6.103   1.800   2.115  0.5465 -0.9440 -0.5728
 3038TIP3    H2 9121   5.967   1.756   2.064  0.6734 -1.6037 -0.3560
 3039TIP3   OH2 9122   5.389   4.753   1.765 -0.6519  0.3677 -0.1666
 3039TIP3    H1 9123   5.457   4.737   1.700 -1.5830  0.3942 -1.1745
 3039TIP3    H2 9124   5.324   4.684   1.751 -0.4933 -0.1083  1.2783
 3040TIP3   OH2 9125   2.134   3.275   4.469 -0.2709  0.4298  0.4815
 3040TIP3    H1 9126   2.194   3.280   4.394  1.1660  2.0228  1.6359
 3040TIP3    H2 9127   2.192   3.259   4.544 -1.5442 -0.0018  1.4010
 3041TIP3   OH2 9128   0.127   5.461   4.073  0.4100 -0.1365  0.0251
 3041TIP3    H1 9129   0.215   5.434   4.047  0.9332  0.8711  0.6732
 3041TIP3    H2 9130   0.069   5.401   4.026  1.4325 -0.7940 -0.4475
 3042TIP3   OH2 9131   1.600   3.696   2.220  0.3032  0.1797  0.2141
 3042TIP3    H1 9132   1.664   3.763   2.244 -0.4994  0.9079  0.4156
 3042TIP3    H2 9133   1.523   3.717   2.273 -0.2100 -0.4781 -0.2524
 3043TIP3   OH2 9134   0.789   2.350   1.600  0.0269  0.5022 -0.1728
 3043TIP3    H1 9135   0.728   2.352   1.674 -0.7141 -1.2717 -0.6853
 3043TIP3    H2 9136   0.799   2.258   1.580 -0.5316  0.9671 -2.8966
 3044TIP3   OH2 9137   0.838   5.296   3.450  0.0862 -0.0796  0.1346
 3044TIP3    H1 9138   0.846   5.383   3.488 -1.2628  0.3972 -0.5829
 3044TIP3    H2 9139   0.761   5.303   3.392 -0.1904 -1.8077  0.2565
 3045TIP3   OH2 9140   1.423   1.534   0.830  0.2974  0.0053 -0.0841
 3045TIP3    H1 9141   1.512   1.537   0.796 -0.2134  1.9228 -1.4054
 3045TIP3    H2 9142   1.434   1.522   0.925  1.9105 -0.6589 -0.3215
 3046TIP3   OH2 9143   5.024   0.256   0.397  0.0113  0.0396 -0.3224
 3046TIP3    H1 9144   4.977   0.336   0.374 -0.8012 -0.2703  0.2326
 3046TIP3    H2 9145   4.993   0.191   0.335 -1.2414 -0.4738  0.7813
 3047TIP3   OH2 9146   5.000   4.647   1.220 -0.1088 -0.6796 -0.5075
 3047TIP3    H1 9147   4.999   4.594   1.140 -0.4979 -1.6440  0.1118
 3047TIP3    H2 9148   4.954   4.593   1.285 -2.2592  1.2511 -0.3391
 3048TIP3   OH2 9149   5.891   4.175   5.032  0.0467  0.5874 -0.3831
 3048TIP3    H1 9150   5.872   4.215   5.117  1.1602 -0.4034  0.3549
 3048TIP3    H2 9151   5.872   4.244   4.969 -2.9545  0.6905  0.4431
 3049TIP3   OH2 9152   3.359   4.617   2.520 -0.0056 -0.2152  0.1943
 3049TIP3    H1 9153   3.391   4.554   2.585  1.2141  1.3202  1.1329
 3049TIP3    H2 9154   3.314   4.684   2.571 -0.7490  0.0263 -0.7423
 3050TIP3   OH2 9155   5.744   1.823   0.181  0.1316 -0.3209 -0.3122
 3050TIP3    H1 9156   5.746   1.912   0.147  0.3501  0.3207  1.2811
 3050TIP3    H2 9157   5.836   1.797   0.186  0.0989 -0.4352 -0.2911
 3051TIP3   OH2 9158   5.252   3.054   2.121  0.2732  1.0391 -0.1298
 3051TIP3    H1 9159   5.187   2.991   2.154 -0.4249  2.1293  0.6415
 3051TIP3    H2 9160   5.216   3.084   2.037  0.1510  1.0801 -0.0629
 3052TIP3   OH2 9161   4.968   1.485   0.509 -0.4554 -0.4866 -0.2878
 3052TIP3    H1 9162   4.996   1.575   0.494 -0.5405 -0.1588  1.3768
 3052TIP3    H2 9163   4.915   1.463   0.432  0.2347  0.5835 -1.0987
 3053TIP3   OH2 9164   0.029   4.381   0.486 -0.6420  0.2762 -0.1678
 3053TIP3    H1 9165   0.048   4.472   0.463  1.5159 -0.4149 -1.3660
 3053TIP3    H2 9166   0.106   4.352   0.534 -1.1756 -1.0284 -0.0642
 3054TIP3   OH2 9167   3.094   3.591   5.064  0.1967  0.3376 -0.2643
 3054TIP3    H1 9168   3.103   3.615   4.972  3.0076  0.8061  0.0652
 3054TIP3    H2 9169   3.144   3.510   5.073  1.2254  1.0888  1.1326
 3055TIP3   OH2 9170   4.356   5.860   1.305 -0.5346  0.9859 -0.3003
 3055TIP3    H1 9171   4.368   5.847   1.399  4.4566  0.0239 -0.8048
 3055TIP3    H2 9172   4.322   5.949   1.298 -0.1698  1.4448  2.3926
 3056TIP3   OH2 9173   3.654   0.824   2.234  0.4492 -0.3990 -0.1515
 3056TIP3    H1 9174   3.610   0.897   2.277  0.9010 -1.2220  1.8400
 3056TIP3    H2 9175   3.694   0.775   2.306 -0.3564 -2.9610 -1.3207
 3057TIP3   OH2 9176   4.661   5.421   4.582  0.6522 -0.0945  0.0430
 3057TIP3    H1 9177   4.736   5.480   4.575 -0.0337  1.0686  1.7652
 3057TIP3    H2 9178   4.585   5.479   4.592 -0.1997 -1.2614  0.6314
 3058TIP3   OH2 9179   3.193   4.087   0.191  0.2300  0.5097 -0.5994
 3058TIP3    H1 9180   3.266   4.116   0.246  0.0393 -0.4412  0.2017
 3058TIP3    H2 9181   3.149   4.020   0.244 -1.1375  0.9557 -1.1219
 3059TIP3   OH2 9182   0.950   3.141   1.088 -0.0650  0.2986 -0.0911
 3059TIP3    H1 9183   1.041   3.111   1.092  0.1225  0.9909  1.1017
 3059TIP3    H2 9184   0.917   3.132   1.177 -0.7700  1.2720 -0.2360
 3060TIP3   OH2 9185   5.487   3.702   1.323 -0.6036 -0.1672 -0.4355
 3060TIP3    H1 9186   5.438   3.774   1.364 -1.7288 -1.2247  0.1511
 3060TIP3    H2 9187   5.479   3.718   1.229 -1.3907  0.1370 -0.3252
 3061TIP3   OH2 9188   0.320   1.212   0.415 -0.6661 -0.7497 -0.1581
 3061TIP3    H1 9189   0.384   1.274   0.450  0.2145 -2.0240  0.5980
 3061TIP3    H2 9190   0.239   1.263   0.405 -0.2132  0.2950  1.2487
 3062TIP3   OH2 9191   4.207   3.532   0.672 -0.1122 -0.0014  0.4391
 3062TIP3    H1 9192   4.129   3.496   0.631 -0.3030  1.0987 -0.1928
 3062TIP3    H2 9193   4.273   3.463   0.663 -0.4705 -0.2110 -0.7557
 3063TIP3   OH2 9194   5.411   3.790   4.062  0.6184  0.5717 -0.3980
 3063TIP3    H1 9195   5.328   3.764   4.022  0.4558 -1.1824  0.9410
 3063TIP3    H2 9196   5.478   3.740   4.015  0.6206 -0.0096  0.1997
 3064TIP3   OH2 9197   2.194   5.464   3.639  0.3653  0.5074  0.0870
 3064TIP3    H1 9198   2.194   5.368   3.641 -0.0753  0.5186  0.6659
 3064TIP3    H2 9199   2.127   5.490   3.701 -0.2959  1.1824 -0.8807
 3065TIP3   OH2 9200   5.120   1.347   1.074  0.5123  0.0359  0.1295
 3065TIP3    H1 9201   5.165   1.269   1.040 -0.5733  0.0070 -1.3291
 3065TIP3    H2 9202   5.138   1.415   1.010 -2.3263 -0.2475 -1.0971
 3066TIP3   OH2 9203   6.163   2.877   2.824  0.2556 -0.7176 -0.1285
 3066TIP3    H1 9204   6.192   2.791   2.856 -1.2698 -1.5052 -0.7543
 3066TIP3    H2 9205   6.243   2.918   2.791  0.9858 -1.9960 -0.0340
 3067TIP3   OH2 9206   1.778   4.769   2.198 -0.0232 -0.0122 -0.3686
 3067TIP3    H1 9207   1.798   4.760   2.104 -0.8077  0.1618 -0.5637
 3067TIP3    H2 9208   1.862   4.755   2.242  0.2482 -0.6745 -1.0667
 3068TIP3   OH2 9209   4.573   1.103   5.057 -0.2656  0.0816  0.4600
 3068TIP3    H1 9210   4.484   1.128   5.081 -0.4077 -0.0338  0.0519
 3068TIP3    H2 9211   4.564   1.060   4.972  0.3271  1.1070 -0.1373
 3069TIP3   OH2 9212   0.868   1.669   4.780 -0.0515 -0.0700  0.1161
 3069TIP3    H1 9213   0.934   1.725   4.820 -0.4022 -0.2087  0.9060
 3069TIP3    H2 9214   0.916   1.592   4.749  0.3558  0.4349 -0.5350
 3070TIP3   OH2 9215   0.741   5.098   3.117 -0.0472  0.1432  0.3973
 3070TIP3    H1 9216   0.778   5.095   3.029 -0.0181  1.7974  0.3259
 3070TIP3    H2 9217   0.785   5.028   3.164  0.3197 -0.4253 -0.7508
 3071TIP3   OH2 9218   0.972   5.138   1.323 -0.0173  0.6844 -0.1997
 3071TIP3    H1 9219   0.989   5.110   1.413  1.1068 -0.5382 -0.7551
 3071TIP3    H2 9220   0.878   5.124   1.311  0.3250 -2.2949 -0.1879
 3072TIP3   OH2 9221   1.242   3.095   3.188 -0.0729  0.3140  0.2001
 3072TIP3    H1 9222   1.255   3.032   3.117  2.2830 -0.2571  1.0665
 3072TIP3    H2 9223   1.164   3.064   3.234 -0.6762 -0.2320 -1.1572
 3073TIP3   OH2 9224   5.250   0.211   3.318 -0.1721  0.0724  0.0259
 3073TIP3    H1 9225   5.225   0.201   3.226 -0.5196  1.2775 -0.0262
 3073TIP3    H2 9226   5.173   0.250   3.359  0.1107 -0.1337  0.7680
 3074TIP3   OH2 9227   2.194   3.418   2.692 -0.2762  0.3053  0.3139
 3074TIP3    H1 9228   2.276   3.455   2.723  0.4419 -1.5486  0.7731
 3074TIP3    H2 9229   2.191   3.440   2.599  0.3018  1.1467  0.4899
 3075TIP3   OH2 9230   2.244   0.270   2.092  0.1568 -0.1623 -0.4874
 3075TIP3    H1 9231   2.227   0.280   2.186 -0.6270  0.9549 -0.7187
 3075TIP3    H2 9232   2.284   0.353   2.067 -0.8839  0.0926 -1.3866
 3076TIP3   OH2 9233   3.288   2.310   3.889  0.3330 -0.2242 -0.5232
 3076TIP3    H1 9234   3.357   2.244   3.895  0.0180 -0.6675 -1.5303
 3076TIP3    H2 9235   3.249   2.296   3.803 -1.0617 -0.0202  0.0527
 3077TIP3   OH2 9236   2.072   4.958   0.322 -0.2917 -0.0630 -0.1910
 3077TIP3    H1 9237   2.056   5.048   0.350  1.3533 -0.0601  0.8840
 3077TIP3    H2 9238   2.135   4.967   0.250 -1.2402 -0.3026 -1.0702
 3078TIP3   OH2 9239   2.727   4.240   3.205 -0.3392  0.1651 -0.1821
 3078TIP3    H1 9240   2.745   4.148   3.224 -0.0706  0.0424 -1.0131
 3078TIP3    H2 9241   2.756   4.252   3.115 -1.6003  0.7250 -0.5364
 3079TIP3   OH2 9242   4.463   2.615   0.712  0.1091 -0.3338 -0.4652
 3079TIP3    H1 9243   4.551   2.585   0.689  0.4688 -0.0046  0.4279
 3079TIP3    H2 9244   4.452   2.697   0.664  0.8491  0.3493  0.4968
 3080TIP3   OH2 9245   2.803   4.146   2.259  0.0080 -0.0801 -0.4290
 3080TIP3    H1 9246   2.852   4.226   2.242 -0.9648  0.8838  1.1120
 3080TIP3    H2 9247   2.712   4.174   2.266 -0.6620 -1.6748 -2.0939
 3081TIP3   OH2 9248   6.162   5.587   0.495 -0.5034 -0.2727 -0.2842
 3081TIP3    H1 9249   6.088   5.559   0.550  0.7466 -1.4084  0.8798
 3081TIP3    H2 9250   6.236   5.536   0.527  0.8605  1.0287 -1.2600
 3082TIP3   OH2 9251   3.484   5.305   5.087  0.3117 -0.2915  0.4453
 3082TIP3    H1 9252   3.518   5.394   5.092  0.7965 -0.5571  3.0002
 3082TIP3    H2 9253   3.398   5.315   5.045  1.2698  1.0316 -1.3732
 3083TIP3   OH2 9254   2.158   4.274   2.718  0.0693  0.1436 -0.3862
 3083TIP3    H1 9255   2.134   4.259   2.626 -1.0299  2.2377 -0.5132
 3083TIP3    H2 9256   2.093   4.225   2.768 -0.5721  0.6099 -0.7462
 3084TIP3   OH2 9257   6.304   5.002   3.856  0.3030  0.8466 -0.2738
 3084TIP3    H1 9258   6.268   4.955   3.781  0.3920 -0.6415  0.5765
 3084TIP3    H2 9259   6.389   4.961   3.872  0.0155  0.7042  1.0003
 3085TIP3   OH2 9260   4.069   0.169   4.388  0.2479  0.6911  0.5434
 3085TIP3    H1 9261   4.033   0.096   4.338 -2.4838  0.6592  2.3291
 3085TIP3    H2 9262   4.139   0.129   4.441  0.4850 -0.0791 -0.3263
 3086TIP3   OH2 9263   5.868   1.868   3.556 -0.3997  0.0012  0.6794
 3086TIP3    H1 9264   5.865   1.954   3.597 -2.0543  0.2049  0.2148
 3086TIP3    H2 9265   5.840   1.883   3.466 -1.7544 -1.1289  0.8572
 3087TIP3   OH2 9266   6.121   3.126   2.934  0.2717  0.1520  0.2270
 3087TIP3    H1 9267   6.111   3.031   2.928 -0.6165  0.0970  1.9335
 3087TIP3    H2 9268   6.042   3.161   2.891 -0.1994  0.0560  0.9886
 3088TIP3   OH2 9269   5.155   4.608   2.167 -0.6820  0.2331 -0.3792
 3088TIP3    H1 9270   5.211   4.556   2.110 -0.9168  0.0781 -0.4683
 3088TIP3    H2 9271   5.088   4.645   2.108  0.1454  1.5777 -0.5253
 3089TIP3   OH2 9272   4.597   4.221   4.259 -0.0094  0.1362  0.3541
 3089TIP3    H1 9273   4.629   4.246   4.346 -0.1033  2.1932 -0.1496
 3089TIP3    H2 9274   4.502   4.216   4.269  0.0688 -1.0930  0.6831
 3090TIP3   OH2 9275   0.096   5.274   2.782 -0.0888  0.0144 -0.2713
 3090TIP3    H1 9276   0.072   5.248   2.871  0.0298  0.7046 -0.0279
 3090TIP3    H2 9277   0.024   5.329   2.753 -0.5574 -0.9251 -0.9513
 3091TIP3   OH2 9278   4.263   0.195   1.976  0.1859 -0.7073  0.0985
 3091TIP3    H1 9279   4.320   0.119   1.963  1.2535 -0.1970  1.4550
 3091TIP3    H2 9280   4.269   0.213   2.070 -1.8250 -0.2963  0.1821
 3092TIP3   OH2 9281   0.272   4.505   3.772 -0.1905  0.0225  0.3014
 3092TIP3    H1 9282   0.271   4.491   3.867 -2.7000 -1.0167  0.1812
 3092TIP3    H2 9283   0.205   4.572   3.758 -0.5728 -0.5881 -0.8322
 3093TIP3   OH2 9284   4.137   0.084   0.705  0.9354 -0.1370  0.4799
 3093TIP3    H1 9285   4.079   0.008   0.698  1.5117 -0.6251  0.8220
 3093TIP3    H2 9286   4.079   0.159   0.713  0.3527 -0.6787  1.4676
 3094TIP3   OH2 9287   4.643   3.265   2.527 -0.1280 -0.0092  0.5052
 3094TIP3    H1 9288   4.584   3.334   2.556 -1.1614  0.1331 -1.7484
 3094TIP3    H2 9289   4.594   3.184   2.540 -0.8722  0.1048 -1.3107
 3095TIP3   OH2 9290   3.902   5.538   4.962  0.4826  0.5007  0.4738
 3095TIP3    H1 9291   3.917   5.576   5.049  0.8057 -0.1425  0.7124
 3095TIP3    H2 9292   3.980   5.560   4.912 -0.4619  2.4050 -0.2403
 3096TIP3   OH2 9293   4.035   4.370   2.642  0.1561 -0.2087  0.0133
 3096TIP3    H1 9294   4.082   4.400   2.565  1.4721 -0.5080  0.6599
 3096TIP3    H2 9295   4.103   4.361   2.709 -0.9962  0.3097  1.2853
 3097TIP3   OH2 9296   1.092   5.355   3.139 -0.0609  0.3342 -0.3281
 3097TIP3    H1 9297   1.013   5.408   3.148  0.0216  0.3612  0.2602
 3097TIP3    H2 9298   1.163   5.413   3.166  0.2539  0.5522 -1.5625
 3098TIP3   OH2 9299   1.610   1.934   4.025 -0.0378  0.0026  0.5530
 3098TIP3    H1 9300   1.549   1.992   3.978  0.2624 -0.0248  0.1217
 3098TIP3    H2 9301   1.696   1.970   4.006  0.1840 -0.8627 -0.1130
 3099TIP3   OH2 9302   1.583   4.098   4.466 -0.5313  0.0717 -0.0892
 3099TIP3    H1 9303   1.528   4.022   4.450  0.8658 -1.7267  2.7902
 3099TIP3    H2 9304   1.537   4.147   4.534 -0.1431  0.2955  0.0147
 3100TIP3   OH2 9305   2.404   4.969   0.919 -0.4706 -0.1204 -0.7018
 3100TIP3    H1 9306   2.364   4.916   0.988  1.4474 -1.6521 -0.6904
 3100TIP3    H2 9307   2.437   5.047   0.964 -1.6211  0.2108 -0.3901
 3101TIP3   OH2 9308   1.291   3.359   2.354 -0.4456  0.0516 -0.1853
 3101TIP3    H1 9309   1.223   3.306   2.395 -0.9893  1.1113  0.3457
 3101TIP3    H2 9310   1.290   3.441   2.404 -1.0009  1.3274 -2.1846
 3102TIP3   OH2 9311   1.005   3.004   3.369  0.3024  0.0153  0.0309
 3102TIP3    H1 9312   0.927   3.030   3.419  0.9339 -1.3019  1.8293
 3102TIP3    H2 9313   0.988   2.912   3.346  0.5712  0.2453 -1.1290
 3103TIP3   OH2 9314   6.200   1.092   3.361  0.7088  0.6519  0.7037
 3103TIP3    H1 9315   6.275   1.045   3.323 -2.0029 -2.9032 -0.8776
 3103TIP3    H2 9316   6.184   1.048   3.444  0.2303  1.2152  0.9147
 3104TIP3   OH2 9317   1.978   1.386   5.124 -0.1081  0.2191 -0.1395
 3104TIP3    H1 9318   2.025   1.453   5.174  1.1271 -1.2250  0.7017
 3104TIP3    H2 9319   1.918   1.347   5.187  0.8005 -0.9942 -0.0070
 3105TIP3   OH2 9320   2.016   0.051   2.877  0.1999 -0.4833 -0.4765
 3105TIP3    H1 9321   1.921   0.036   2.872  0.0236  0.4244 -0.0331
 3105TIP3    H2 9322   2.025   0.122   2.940  1.2024 -0.7460 -0.3149
 3106TIP3   OH2 9323   2.072   0.165   0.490  0.2132 -0.4777 -0.3046
 3106TIP3    H1 9324   2.060   0.198   0.579  2.1666  0.2182 -0.2404
 3106TIP3    H2 9325   2.041   0.236   0.434  2.3724  0.6839 -0.1465
 3107TIP3   OH2 9326   2.512   3.709   3.665 -0.3462 -0.1132 -0.7035
 3107TIP3    H1 9327   2.519   3.804   3.654  1.0169 -0.2208 -1.0405
 3107TIP3    H2 9328   2.601   3.681   3.686 -0.6766 -1.3474 -0.8540
 3108TIP3   OH2 9329   2.811   2.316   1.076  0.3809 -0.0274 -0.2466
 3108TIP3    H1 9330   2.812   2.401   1.033 -0.5338  0.0400 -0.1529
 3108TIP3    H2 9331   2.748   2.325   1.148  0.1810 -0.8123 -0.3047
 3109TIP3   OH2 9332   3.764   4.634   2.767  0.3565 -0.0846 -0.6629
 3109TIP3    H1 9333   3.784   4.540   2.771  0.2129 -0.1251 -0.8970
 3109TIP3    H2 9334   3.839   4.672   2.721  0.7174  0.0048 -0.0131
 3110TIP3   OH2 9335   4.231   1.451   4.350  0.2820 -0.1006 -0.1294
 3110TIP3    H1 9336   4.299   1.517   4.365 -1.2235  1.4438  0.1958
 3110TIP3    H2 9337   4.279   1.373   4.323  2.2576  0.5932  1.1773
 3111TIP3   OH2 9338   5.055   0.205   4.231  0.4545 -0.2587 -0.7374
 3111TIP3    H1 9339   5.058   0.267   4.304  1.1694  0.7285 -1.5692
 3111TIP3    H2 9340   4.963   0.183   4.222  0.5056 -1.6628  1.4728
 3112TIP3   OH2 9341   3.086   1.575   3.510 -0.6700 -0.4141  0.2074
 3112TIP3    H1 9342   3.018   1.536   3.564 -1.3347  0.2550 -0.1291
 3112TIP3    H2 9343   3.115   1.651   3.559  1.0683 -1.6213  1.1604
 3113TIP3   OH2 9344   2.327   2.857   3.605 -0.4158 -0.0838  0.0177
 3113TIP3    H1 9345   2.300   2.825   3.691 -0.6631 -0.4223 -0.1843
 3113TIP3    H2 9346   2.253   2.912   3.577  0.2416  1.1477  0.6086
 3114TIP3   OH2 9347   3.978   4.469   0.818  0.1649 -0.4930  0.6597
 3114TIP3    H1 9348   3.993   4.493   0.909 -0.5222 -1.8182  1.1457
 3114TIP3    H2 9349   4.056   4.419   0.793 -0.4530 -1.7175  1.1190
 3115TIP3   OH2 9350   5.980   0.674   4.681 -0.2322  0.1504  0.0493
 3115TIP3    H1 9351   6.049   0.661   4.746 -2.2149 -0.9510  2.0450
 3115TIP3    H2 9352   5.914   0.727   4.726 -1.5447 -0.3904 -1.1679
 3116TIP3   OH2 9353   6.303   0.127   4.583  0.3756  0.7713  0.2719
 3116TIP3    H1 9354   6.324   0.130   4.676  0.8169 -0.4643  0.2270
 3116TIP3    H2 9355   6.213   0.096   4.579  1.2936 -2.2416  0.2596
 3117TIP3   OH2 9356   6.082   1.314   5.041  0.0641 -0.4341  0.1296
 3117TIP3    H1 9357   6.148   1.377   5.009  1.1314 -0.7385  1.6305
 3117TIP3    H2 9358   6.017   1.368   5.086 -0.1261 -0.2295 -0.3835
 3118TIP3   OH2 9359   2.940   2.746   2.519 -0.1581  0.7254 -0.2250
 3118TIP3    H1 9360   2.960   2.831   2.557  0.1320 -0.2818  2.1027
 3118TIP3    H2 9361   3.012   2.729   2.459 -0.0993  1.9932 -0.5392
 3119TIP3   OH2 9362   1.029   1.973   1.859  0.3122  0.7264 -0.1191
 3119TIP3    H1 9363   0.933   1.972   1.850  0.4791 -1.2712 -3.0512
 3119TIP3    H2 9364   1.046   1.923   1.939 -1.0659  1.1253  0.4658
 3120TIP3   OH2 9365   5.904   4.582   3.652  0.0275  0.2279  0.4023
 3120TIP3    H1 9366   5.949   4.635   3.586  0.4881  3.4501  3.0945
 3120TIP3    H2 9367   5.973   4.554   3.712 -0.8391  0.7963  1.7129
 3121TIP3   OH2 9368   2.534   5.825   3.242  0.0367  0.1115 -0.5263
 3121TIP3    H1 9369   2.531   5.860   3.152  2.2679 -1.6350 -1.3610
 3121TIP3    H2 9370   2.614   5.773   3.245 -2.0250 -3.3213  1.1826
 3122TIP3   OH2 9371   5.163   1.094   1.794  0.3630  0.3891 -0.1464
 3122TIP3    H1 9372   5.198   1.075   1.707 -0.1758  1.2831 -0.5626
 3122TIP3    H2 9373   5.083   1.042   1.800 -0.1993  1.1857 -0.6270
 3123TIP3   OH2 9374   1.547   1.423   2.833 -0.0799  0.1401  0.1915
 3123TIP3    H1 9375   1.570   1.332   2.851 -1.0672 -0.0643  0.4540
 3123TIP3    H2 9376   1.472   1.441   2.889 -1.4942  0.3457 -1.6821
 3124TIP3   OH2 9377   3.141   3.866   3.865 -1.0340  0.2971  0.0119
 3124TIP3    H1 9378   3.198   3.795   3.836 -0.4469  0.7233  0.0852
 3124TIP3    H2 9379   3.122   3.845   3.957 -1.9665 -0.4572 -0.3368
 3125TIP3   OH2 9380   3.843   4.777   0.235  0.1418  0.0186  0.4936
 3125TIP3    H1 9381   3.841   4.864   0.273  0.5401 -0.2190  1.0603
 3125TIP3    H2 9382   3.755   4.764   0.199  0.1268  0.7050  0.2730
 3126TIP3   OH2 9383   5.663   5.757   2.541 -0.2437 -0.3080  0.0559
 3126TIP3    H1 9384   5.742   5.761   2.487 -0.0219 -2.2686  0.1645
 3126TIP3    H2 9385   5.670   5.832   2.599  0.9987  0.1700 -0.6684
 3127TIP3   OH2 9386   3.519   5.313   3.015  0.6479  0.3722  0.2860
 3127TIP3    H1 9387   3.529   5.408   3.010  0.2974  0.3383 -1.8573
 3127TIP3    H2 9388   3.582   5.279   2.952  0.6965 -0.8253  0.9556
 3128TIP3   OH2 9389   4.519   1.745   4.392 -0.6556  0.0424 -0.0397
 3128TIP3    H1 9390   4.614   1.735   4.380 -0.5607  0.5253  0.2708
 3128TIP3    H2 9391   4.498   1.686   4.464 -0.1847  1.6083  1.4448
 3129TIP3   OH2 9392   1.862   0.391   3.338 -0.4765  0.2256 -0.1768
 3129TIP3    H1 9393   1.869   0.449   3.414 -3.2936  0.1796  0.1871
 3129TIP3    H2 9394   1.853   0.451   3.264  0.4187  0.2349 -0.3006
 3130TIP3   OH2 9395   1.528   4.208   2.330  0.3772 -0.2057  0.3094
 3130TIP3    H1 9396   1.594   4.238   2.267 -1.8205  0.3313 -1.9371
 3130TIP3    H2 9397   1.528   4.275   2.398  0.2851  1.3212 -1.1063
 3131TIP3   OH2 9398   3.806   2.851   3.743 -0.2767  0.2666  0.0383
 3131TIP3    H1 9399   3.869   2.785   3.771 -0.5721 -0.3896 -0.8013
 3131TIP3    H2 9400   3.762   2.878   3.824 -0.8234 -1.2755  0.2877
 3132TIP3   OH2 9401   4.608   0.593   0.790  1.2523  1.0035 -0.4100
 3132TIP3    H1 9402   4.640   0.566   0.876  2.0244  0.1007 -0.9655
 3132TIP3    H2 9403   4.680   0.642   0.752  0.4564  2.4923 -0.0680
 3133TIP3   OH2 9404   2.319   3.707   2.763 -0.4235 -0.2128  0.2907
 3133TIP3    H1 9405   2.337   3.797   2.739  0.5487 -0.1739  1.1291
 3133TIP3    H2 9406   2.256   3.713   2.835 -0.6809 -0.2266  0.0705
 3134TIP3   OH2 9407   1.897   5.237   0.856  0.1699 -0.7450 -0.5340
 3134TIP3    H1 9408   1.839   5.208   0.786  0.6405 -0.9687 -0.8304
 3134TIP3    H2 9409   1.844   5.228   0.936 -0.0092 -1.5058 -0.7298
 3135TIP3   OH2 9410   2.103   0.669   1.106 -0.3392 -0.0736  0.3745
 3135TIP3    H1 9411   2.189   0.697   1.074 -0.3108 -0.9635 -0.3944
 3135TIP3    H2 9412   2.042   0.736   1.075  0.1914  1.1259  1.8216
 3136TIP3   OH2 9413   0.892   4.584   3.894  0.4419 -0.1357  0.0493
 3136TIP3    H1 9414   0.835   4.551   3.825  0.8236  1.4693 -1.0943
 3136TIP3    H2 9415   0.954   4.641   3.849  0.2787  1.5245  1.7676
 3137TIP3   OH2 9416   1.469   2.774   1.744  0.0091 -0.6344 -0.2811
 3137TIP3    H1 9417   1.482   2.708   1.675  0.3405 -0.7455 -0.1128
 3137TIP3    H2 9418   1.453   2.723   1.823 -0.2973 -0.5064 -0.2611
 3138TIP3   OH2 9419   1.316   1.662   1.948  0.2574 -0.0536  0.4256
 3138TIP3    H1 9420   1.325   1.651   1.853  1.3001  0.8496  0.3978
 3138TIP3    H2 9421   1.324   1.573   1.984 -0.0342 -0.3853 -0.3145
 3139TIP3   OH2 9422   0.665   4.942   1.163  0.1126  0.3383  0.2638
 3139TIP3    H1 9423   0.654   5.013   1.100  0.5031 -0.5345 -0.8238
 3139TIP3    H2 9424   0.760   4.930   1.169  0.0347 -0.6171 -0.1924
 3140TIP3   OH2 9425   3.930   5.688   0.853  0.0534  0.0497 -0.4410
 3140TIP3    H1 9426   3.885   5.770   0.875 -1.2817 -0.1830 -2.1103
 3140TIP3    H2 9427   4.016   5.696   0.894 -0.4347  1.8181  0.3295
 3141TIP3   OH2 9428   1.172   3.969   0.545  0.3415  0.4440 -0.2394
 3141TIP3    H1 9429   1.260   3.997   0.572 -0.6721  1.9195  1.8056
 3141TIP3    H2 9430   1.164   3.880   0.580  0.8562  0.4750 -0.0277
 3142TIP3   OH2 9431   0.439   2.414   5.133  0.1886  0.2879 -0.0821
 3142TIP3    H1 9432   0.506   2.432   5.068 -0.8949  0.3255 -1.2212
 3142TIP3    H2 9433   0.356   2.424   5.086 -0.7353  2.5248  1.8138
 3143TIP3   OH2 9434   1.887   4.213   0.671 -0.0656  0.0374  0.1525
 3143TIP3    H1 9435   1.924   4.219   0.583 -1.7414 -0.9470 -0.6736
 3143TIP3    H2 9436   1.804   4.261   0.665  0.5521  1.3579  1.6696
 3144TIP3   OH2 9437   1.510   2.574   0.326 -0.8244 -0.6655 -0.2021
 3144TIP3    H1 9438   1.550   2.661   0.330  1.8318 -1.7713 -0.7062
 3144TIP3    H2 9439   1.445   2.582   0.256  1.0598  0.3657 -1.9903
 3145TIP3   OH2 9440   5.850   2.280   2.285  0.3000  0.6856 -0.2576
 3145TIP3    H1 9441   5.801   2.311   2.209  0.6235  0.6704 -0.4749
 3145TIP3    H2 9442   5.935   2.253   2.249  0.3124  0.3078  0.0497
 3146TIP3   OH2 9443   0.113   0.749   0.366 -0.0918  0.4782  0.7001
 3146TIP3    H1 9444   0.141   0.823   0.420  0.4941  1.5561 -0.9922
 3146TIP3    H2 9445   0.096   0.787   0.280  0.3266 -1.3785 -0.2644
 3147TIP3   OH2 9446   2.706   2.009   2.149 -0.3571  0.7740  0.1676
 3147TIP3    H1 9447   2.722   1.958   2.228 -1.7666 -0.7825 -0.4853
 3147TIP3    H2 9448   2.611   2.008   2.138 -0.2243  1.3132 -1.3180
 3148TIP3   OH2 9449   4.517   2.848   3.642  0.0346 -0.3228 -0.5377
 3148TIP3    H1 9450   4.509   2.904   3.564 -2.0046  1.5100  0.8424
 3148TIP3    H2 9451   4.572   2.898   3.702 -1.1173 -0.1180  0.3936
 3149TIP3   OH2 9452   4.758   1.239   1.901 -0.0938 -0.0744  0.5727
 3149TIP3    H1 9453   4.695   1.246   1.829 -1.0998  0.1498  1.4660
 3149TIP3    H2 9454   4.815   1.315   1.890 -1.7258  1.3406  1.3948
 3150TIP3   OH2 9455   1.782   1.739   1.578  0.3989 -0.4594 -0.6062
 3150TIP3    H1 9456   1.795   1.677   1.649  0.1075  1.1467  0.9081
 3150TIP3    H2 9457   1.762   1.685   1.502 -1.2612 -2.1824  0.9604
 3151TIP3   OH2 9458   5.492   1.755   3.384  0.2746 -0.2286  0.0004
 3151TIP3    H1 9459   5.529   1.840   3.405  1.7195 -0.5903 -0.9606
 3151TIP3    H2 9460   5.417   1.775   3.328  1.0520  0.4090 -0.8559
 3152TIP3   OH2 9461   4.231   1.040   1.938 -0.4572 -0.7446  0.3550
 3152TIP3    H1 9462   4.289   1.057   2.012  3.4638  0.2397 -2.6448
 3152TIP3    H2 9463   4.201   1.127   1.912 -1.1128 -1.0050  0.2251
 3153TIP3   OH2 9464   1.169   5.886   2.852 -0.1443  0.0046  0.1934
 3153TIP3    H1 9465   1.106   5.870   2.782 -0.7002 -0.4625  0.7835
 3153TIP3    H2 9466   1.170   5.804   2.902 -1.0616  0.9087  1.7468
 3154TIP3   OH2 9467   2.002   3.594   2.069  0.1722 -0.1139  0.2920
 3154TIP3    H1 9468   2.042   3.636   2.145 -0.9375  0.4409  0.5815
 3154TIP3    H2 9469   1.936   3.656   2.039  0.0216 -0.6972 -0.6257
 3155TIP3   OH2 9470   0.713   5.223   1.082 -0.3740  0.0818 -0.5554
 3155TIP3    H1 9471   0.753   5.206   0.997 -0.8387  0.2935 -0.8198
 3155TIP3    H2 9472   0.752   5.306   1.110 -0.1562 -0.0315 -0.5218
 3156TIP3   OH2 9473   0.217   4.943   3.899  0.0331 -0.9459 -0.0510
 3156TIP3    H1 9474   0.292   4.993   3.866 -0.4188 -0.6221 -0.6159
 3156TIP3    H2 9475   0.250   4.898   3.977 -0.3015  2.7099  2.4648
 3157TIP3   OH2 9476   1.244   4.738   4.756  0.2406  0.7394  0.2231
 3157TIP3    H1 9477   1.337   4.743   4.781  0.4445  0.9965 -0.5404
 3157TIP3    H2 9478   1.242   4.777   4.669 -0.8562  2.2964  0.9030
 3158TIP3   OH2 9479   4.946   0.492   0.262 -0.0118  0.5520 -0.1379
 3158TIP3    H1 9480   4.873   0.545   0.292 -1.7773 -2.2086  0.8017
 3158TIP3    H2 9481   4.916   0.454   0.179  1.0828  0.7662 -0.6531
 3159TIP3   OH2 9482   2.887   5.056   2.041 -0.7437 -0.1623 -0.0749
 3159TIP3    H1 9483   2.975   5.049   2.006 -0.7099  1.2422 -0.3131
 3159TIP3    H2 9484   2.878   5.148   2.068 -1.9820 -0.3736  0.3384
 3160TIP3   OH2 9485   0.319   2.773   2.435 -0.6586 -0.5210 -0.2957
 3160TIP3    H1 9486   0.291   2.753   2.345  0.4022  0.2521 -0.8180
 3160TIP3    H2 9487   0.286   2.700   2.487 -0.5306 -1.4419 -1.4670
 3161TIP3   OH2 9488   5.763   0.594   1.038  0.3655  0.6468 -0.1210
 3161TIP3    H1 9489   5.817   0.574   1.115  1.4647  4.5681  0.3440
 3161TIP3    H2 9490   5.673   0.593   1.072  0.3468 -2.3231 -0.0313
 3162TIP3   OH2 9491   0.893   3.068   0.703  0.1861  0.2884  0.2049
 3162TIP3    H1 9492   0.891   3.040   0.611  0.3889  1.7132 -0.2557
 3162TIP3    H2 9493   0.983   3.050   0.731  0.4229  0.8130 -0.1997
 3163TIP3   OH2 9494   4.896   0.022   3.256  0.4124 -0.6063 -0.1640
 3163TIP3    H1 9495   4.930  -0.047   3.313  1.7756 -0.5951 -0.9360
 3163TIP3    H2 9496   4.814   0.049   3.298  2.1532  0.5983  2.7564
 3164TIP3   OH2 9497   4.378   0.130   0.833  0.1629 -0.0025  0.1599
 3164TIP3    H1 9498   4.299   0.134   0.778  0.2907 -0.3344 -0.0546
 3164TIP3    H2 9499   4.365   0.197   0.900 -1.4560 -1.7467  1.6803
 3165TIP3   OH2 9500   3.827   5.354   1.573  0.3344 -0.0157  0.2638
 3165TIP3    H1 9501   3.824   5.302   1.653  2.6891  1.5356  1.4754
 3165TIP3    H2 9502   3.896   5.314   1.520 -1.1929 -1.0222 -1.0567
 3166TIP3   OH2 9503   2.337   4.543   4.066 -0.1122 -0.5943  0.3371
 3166TIP3    H1 9504   2.279   4.576   4.135  1.0388  1.8749  0.2137
 3166TIP3    H2 9505   2.278   4.524   3.993 -1.0171 -0.5060  1.0171
 3167TIP3   OH2 9506   1.941   3.214   1.195  0.4618 -0.1035 -0.4511
 3167TIP3    H1 9507   1.872   3.254   1.247  0.8012 -2.0489  1.6834
 3167TIP3    H2 9508   2.000   3.286   1.172 -0.0120  0.9454  1.4271
 3168TIP3   OH2 9509   2.109   0.488   1.735  0.3143  0.3956 -0.2739
 3168TIP3    H1 9510   2.189   0.447   1.701  0.6564  0.1008  0.8432
 3168TIP3    H2 9511   2.128   0.582   1.733  1.2149  0.2671  1.2027
 3169TIP3   OH2 9512   1.212   3.553   4.013 -0.8801  0.0615 -0.4547
 3169TIP3    H1 9513   1.161   3.620   4.058  0.8448  0.2506  1.3664
 3169TIP3    H2 9514   1.209   3.579   3.921 -2.3404  1.1964 -0.1257
 3170TIP3   OH2 9515   2.173   1.865   5.122 -0.2230  0.7249 -0.1703
 3170TIP3    H1 9516   2.175   1.957   5.146 -0.3736  0.5901  0.3754
 3170TIP3    H2 9517   2.087   1.852   5.083 -0.2084  0.8077 -0.2308
 3171TIP3   OH2 9518   0.362   4.819   4.118  0.1777  0.2696  0.1698
 3171TIP3    H1 9519   0.427   4.787   4.055  0.9410  2.5778 -0.3361
 3171TIP3    H2 9520   0.414   4.865   4.184 -0.8866  2.3082 -0.3294
 3172TIP3   OH2 9521   2.333   2.177   3.563 -0.2178 -0.0304  0.4647
 3172TIP3    H1 9522   2.261   2.240   3.559  0.9698  1.3825  0.4350
 3172TIP3    H2 9523   2.301   2.100   3.515 -1.0076  1.2713 -1.1728
 3173TIP3   OH2 9524   1.248   2.920   0.871 -0.2813 -0.0264  0.2380
 3173TIP3    H1 9525   1.187   2.993   0.866 -0.6090 -0.3187 -0.0537
 3173TIP3    H2 9526   1.239   2.886   0.960 -0.8122 -0.2969  0.0863
 3174TIP3   OH2 9527   1.981   2.628   0.525 -1.1574 -0.3756  0.6040
 3174TIP3    H1 9528   2.044   2.569   0.484  1.0810  0.9473  1.9286
 3174TIP3    H2 9529   1.934   2.668   0.452  0.8292 -0.0810 -0.5763
 3175TIP3   OH2 9530   3.671   4.142   2.045  0.6120 -0.6131 -0.3214
 3175TIP3    H1 9531   3.733   4.215   2.038  1.2168 -1.0983 -0.1807
 3175TIP3    H2 9532   3.699   4.095   2.124 -0.5799 -0.2635  0.3231
 3176TIP3   OH2 9533   2.230   2.080   2.561  0.6319 -0.1060 -0.3930
 3176TIP3    H1 9534   2.140   2.096   2.534  0.1464 -1.1935  0.5061
 3176TIP3    H2 9535   2.237   2.119   2.648  0.9087 -0.3570 -0.2981
 3177TIP3   OH2 9536   2.753   2.252   3.244 -0.2755 -0.4212 -0.6423
 3177TIP3    H1 9537   2.732   2.159   3.254 -3.1886  0.1262 -0.7723
 3177TIP3    H2 9538   2.835   2.253   3.194 -0.5205 -2.9169 -1.2308
 3178TIP3   OH2 9539   0.257   3.374   1.498 -0.3867  0.2437 -0.6062
 3178TIP3    H1 9540   0.283   3.360   1.407 -1.9773 -0.2488 -1.0048
 3178TIP3    H2 9541   0.330   3.339   1.550  0.7219  0.9115 -1.6739
 3179TIP3   OH2 9542   1.537   3.968   3.490  0.1174 -0.4311  0.2119
 3179TIP3    H1 9543   1.510   4.008   3.572 -0.7224  0.1914 -0.3423
 3179TIP3    H2 9544   1.622   3.929   3.508  0.1081  0.0195  1.2682
 3180TIP3   OH2 9545   0.540   3.878   3.401  0.5311 -0.0808 -0.2825
 3180TIP3    H1 9546   0.589   3.961   3.401  1.7066 -0.7470  0.2979
 3180TIP3    H2 9547   0.577   3.828   3.474 -1.0109 -0.6436  0.1396
 3181TIP3   OH2 9548   0.517   5.893   5.068  0.0165 -0.0504 -0.0117
 3181TIP3    H1 9549   0.516   5.863   5.159  0.6480  0.1934  0.0762
 3181TIP3    H2 9550   0.433   5.939   5.058  0.4498  0.9535  0.8002
 3182TIP3   OH2 9551   4.132   0.870   3.801  0.1940 -0.1593 -0.8914
 3182TIP3    H1 9552   4.051   0.867   3.750 -0.6999  1.4879  0.3401
 3182TIP3    H2 9553   4.161   0.961   3.795  2.6217 -0.9316 -2.2139
 3183TIP3   OH2 9554   1.804   5.983   2.976  0.2516 -0.6813  0.2589
 3183TIP3    H1 9555   1.897   5.976   3.000  0.1993 -0.8660  0.4116
 3183TIP3    H2 9556   1.764   5.904   3.012  0.2844 -1.3019 -1.0101
 3184TIP3   OH2 9557   4.946   2.318   4.824  0.0528 -0.1185  0.1792
 3184TIP3    H1 9558   4.998   2.275   4.891 -1.1000  0.5891  1.5950
 3184TIP3    H2 9559   4.942   2.255   4.752  2.6245 -0.2774  0.0815
 3185TIP3   OH2 9560   4.657   5.536   5.112  0.2250 -0.3550 -0.1350
 3185TIP3    H1 9561   4.730   5.474   5.103  0.9585  0.1766  1.7836
 3185TIP3    H2 9562   4.582   5.490   5.074  1.3380 -1.2687 -1.3292
 3186TIP3   OH2 9563   0.312   3.277   2.546 -0.0470  0.5115  0.4210
 3186TIP3    H1 9564   0.314   3.282   2.642 -0.5650 -1.0267  0.5444
 3186TIP3    H2 9565   0.321   3.184   2.527 -0.4551  0.7429 -1.0181
 3187TIP3   OH2 9566   0.146   2.620   3.110 -0.0115  0.0974 -0.9375
 3187TIP3    H1 9567   0.079   2.688   3.105 -1.6089 -1.1738  1.2286
 3187TIP3    H2 9568   0.129   2.565   3.033 -0.4058  0.6690 -1.2713
 3188TIP3   OH2 9569   1.730   3.375   4.468 -0.8103  0.3419 -0.0812
 3188TIP3    H1 9570   1.713   3.469   4.466 -0.8353  0.3848  1.2947
 3188TIP3    H2 9571   1.806   3.363   4.411 -2.1697  0.8552 -2.1143
 3189TIP3   OH2 9572   5.344   2.660   2.742  0.4381 -0.1809 -0.0032
 3189TIP3    H1 9573   5.437   2.644   2.757  0.3268 -1.4128 -0.5483
 3189TIP3    H2 9574   5.324   2.736   2.797  1.9043  0.5351 -0.4012
 3190TIP3   OH2 9575   1.615   4.300   1.625 -0.1069  0.3098 -0.4553
 3190TIP3    H1 9576   1.550   4.258   1.568  0.1108 -0.2304 -0.3101
 3190TIP3    H2 9577   1.564   4.332   1.699 -0.0154 -1.6042  0.5034
 3191TIP3   OH2 9578   0.743   1.411   0.376  0.1993 -0.3115 -0.4483
 3191TIP3    H1 9579   0.744   1.388   0.283 -0.4670 -0.0950 -0.5159
 3191TIP3    H2 9580   0.835   1.405   0.403  0.4468 -0.0433 -1.2005
 3192TIP3   OH2 9581   4.620   0.940   3.317  0.4083 -0.0816 -0.0305
 3192TIP3    H1 9582   4.696   0.996   3.327 -2.1184  3.5895  0.4582
 3192TIP3    H2 9583   4.612   0.895   3.401  0.8295  1.1421  0.6823
 3193TIP3   OH2 9584   4.287   0.417   4.540  0.6655 -0.1788 -0.1950
 3193TIP3    H1 9585   4.364   0.460   4.502  0.0313  0.5634 -0.6852
 3193TIP3    H2 9586   4.219   0.427   4.473  0.4357 -1.8046 -0.2306
 3194TIP3   OH2 9587   5.975   5.991   2.879 -0.2031  0.0485 -0.3524
 3194TIP3    H1 9588   5.963   5.944   2.961  0.1027 -0.7601 -0.7648
 3194TIP3    H2 9589   5.905   5.958   2.822 -0.1812  0.3280 -0.5464
 3195TIP3   OH2 9590   3.267   1.092   1.242  0.2052  0.6814 -0.2822
 3195TIP3    H1 9591   3.230   1.025   1.300  0.0678 -0.5804 -1.7562
 3195TIP3    H2 9592   3.204   1.098   1.170  1.2655  0.8720 -1.2116
 3196TIP3   OH2 9593   0.796   5.358   1.440  0.2486  0.2517 -0.0765
 3196TIP3    H1 9594   0.806   5.400   1.354  0.2536 -0.4600 -0.4271
 3196TIP3    H2 9595   0.715   5.308   1.433 -0.8671  1.7842  1.0183
 3197TIP3   OH2 9596   3.185   1.557   1.890  0.0192 -0.3459  0.9162
 3197TIP3    H1 9597   3.098   1.535   1.923 -0.6956 -1.0507 -1.2775
 3197TIP3    H2 9598   3.169   1.597   1.804  1.8856 -2.1712 -0.3877
 3198TIP3   OH2 9599   2.228   2.307   1.950 -0.0941  0.4764 -0.0522
 3198TIP3    H1 9600   2.145   2.346   1.921  0.0386  0.5269 -0.3670
 3198TIP3    H2 9601   2.248   2.353   2.031 -0.4226  0.3984  0.0777
 3199TIP3   OH2 9602   2.394   3.285   3.192 -0.2848  0.1347  0.3042
 3199TIP3    H1 9603   2.423   3.363   3.145  3.8779 -1.5931 -0.4795
 3199TIP3    H2 9604   2.408   3.214   3.130 -0.2661 -1.6069  2.2063
 3200TIP3   OH2 9605   1.502   3.369   3.586 -0.4554  0.2574 -0.3632
 3200TIP3    H1 9606   1.557   3.405   3.656 -2.1919  0.5920  0.8833
 3200TIP3    H2 9607   1.461   3.292   3.625 -0.1006 -0.6039 -1.6210
 3201TIP3   OH2 9608   0.595   2.065   4.358  0.1436 -0.3080  0.1922
 3201TIP3    H1 9609   0.518   2.019   4.325  0.6476 -0.5446 -0.6934
 3201TIP3    H2 9610   0.653   1.995   4.389 -0.1179 -0.1137  1.1446
 3202TIP3   OH2 9611   4.220   2.346   0.029  0.2891 -0.0458  0.1235
 3202TIP3    H1 9612   4.260   2.397   0.099  0.5385 -1.3149  0.9276
 3202TIP3    H2 9613   4.139   2.313   0.067  0.4507 -0.7899 -0.1652
 3203TIP3   OH2 9614   1.944   5.985   3.575 -0.0134  0.4699  0.1465
 3203TIP3    H1 9615   2.004   5.911   3.568 -0.3784  0.2300 -0.4234
 3203TIP3    H2 9616   1.906   5.995   3.488 -0.7680  0.6492  0.4824
 3204TIP3   OH2 9617   4.117   3.520   0.927 -0.2822 -0.2272 -0.1521
 3204TIP3    H1 9618   4.146   3.473   0.849 -0.1478  1.0940 -0.9363
 3204TIP3    H2 9619   4.179   3.494   0.995  1.6733  1.0833 -1.3161
 3205TIP3   OH2 9620   4.832   4.684   2.779 -0.1386  0.2992 -0.2408
 3205TIP3    H1 9621   4.880   4.608   2.813 -1.4104 -0.2791  0.3299
 3205TIP3    H2 9622   4.804   4.731   2.857 -0.4413  0.6598 -0.5658
 3206TIP3   OH2 9623   0.599   4.330   3.463 -0.0788 -0.4035 -0.4925
 3206TIP3    H1 9624   0.527   4.391   3.477 -1.1105 -1.4475 -1.0856
 3206TIP3    H2 9625   0.588   4.299   3.373  2.1404  0.6893 -1.2247
 3207TIP3   OH2 9626   2.920   4.382   1.274  0.5199 -0.1589 -0.5090
 3207TIP3    H1 9627   2.945   4.382   1.182  1.1495  0.3591 -0.3503
 3207TIP3    H2 9628   2.861   4.457   1.283 -0.0582 -0.5972 -0.6183
 3208TIP3   OH2 9629   4.104   1.251   1.844 -0.0730  0.5579 -0.2504
 3208TIP3    H1 9630   4.079   1.341   1.823 -0.6274  0.5954  0.5163
 3208TIP3    H2 9631   4.024   1.200   1.830 -0.7644  0.7139  2.4885
 3209TIP3   OH2 9632   2.928   2.731   5.013 -0.7380  0.4355  0.3113
 3209TIP3    H1 9633   2.907   2.674   5.087 -2.3931 -0.0102 -0.4677
 3209TIP3    H2 9634   2.945   2.817   5.053 -0.3629 -0.0889  1.3079
 3210TIP3   OH2 9635   6.130   1.444   2.147  0.1785  0.4558 -0.1746
 3210TIP3    H1 9636   6.064   1.433   2.216  0.2108  1.3251 -0.0011
 3210TIP3    H2 9637   6.099   1.517   2.094  1.4807  1.5426  0.4975
 3211TIP3   OH2 9638   1.176   3.537   1.411  0.6989 -0.3497  0.0890
 3211TIP3    H1 9639   1.174   3.550   1.316  1.7721 -0.7676  0.0029
 3211TIP3    H2 9640   1.109   3.471   1.427 -0.3444  0.5939 -0.2156
 3212TIP3   OH2 9641   3.806   5.245   3.125 -0.0891 -0.5301  0.0310
 3212TIP3    H1 9642   3.771   5.194   3.197 -0.0142  0.1233  0.5449
 3212TIP3    H2 9643   3.741   5.238   3.056  0.4418 -2.2432 -0.3361
 3213TIP3   OH2 9644   1.806   3.899   0.148 -0.4024  0.3097  0.1535
 3213TIP3    H1 9645   1.750   3.974   0.128  0.2391  0.9317  0.6568
 3213TIP3    H2 9646   1.871   3.933   0.209  0.1246 -0.5671  0.0957
 3214TIP3   OH2 9647   1.725   2.251   2.630 -0.1425 -0.0506 -0.2270
 3214TIP3    H1 9648   1.751   2.300   2.708 -1.0591  0.8467 -0.4669
 3214TIP3    H2 9649   1.794   2.185   2.619 -0.6381 -1.0047  2.0232
 3215TIP3   OH2 9650   3.307   0.817   3.058  0.2252 -0.1065  0.9484
 3215TIP3    H1 9651   3.365   0.741   3.063 -0.4935 -0.6189  1.7342
 3215TIP3    H2 9652   3.240   0.791   2.994  1.5993  1.0340 -1.0727
 3216TIP3   OH2 9653   0.624   0.106   3.776  0.2655  0.1145 -0.0106
 3216TIP3    H1 9654   0.592   0.194   3.799  0.0735 -0.2358  1.1003
 3216TIP3    H2 9655   0.568   0.080   3.703 -1.2933 -0.0316  1.1844
 3217TIP3   OH2 9656   0.882   4.985   1.749  0.2583  0.3166  0.4497
 3217TIP3    H1 9657   0.885   4.922   1.820  0.7762  0.3456  0.4562
 3217TIP3    H2 9658   0.818   5.051   1.777 -0.2205 -0.1554  0.4759
 3218TIP3   OH2 9659   6.024   1.189   1.643 -0.1820  0.3977  0.2937
 3218TIP3    H1 9660   5.991   1.188   1.733  0.9119  0.7326  0.7109
 3218TIP3    H2 9661   6.103   1.243   1.646 -0.7499  1.3733 -1.0995
 3219TIP3   OH2 9662   1.823   1.845   3.177  0.5703  0.3874  0.0943
 3219TIP3    H1 9663   1.755   1.780   3.156  0.0767  1.5330 -2.1615
 3219TIP3    H2 9664   1.905   1.796   3.174  0.0844 -0.4397  0.0346
 3220TIP3   OH2 9665   2.168   4.098   1.854  0.3151 -0.2480  0.3371
 3220TIP3    H1 9666   2.117   4.121   1.777 -0.6063  0.7705  1.2178
 3220TIP3    H2 9667   2.141   4.009   1.875 -1.2095  0.3080  0.8417
 3221TIP3   OH2 9668   5.009   4.224   2.843  0.4119 -0.2380  0.1204
 3221TIP3    H1 9669   5.092   4.190   2.875  0.0055 -0.4977  0.9290
 3221TIP3    H2 9670   4.946   4.153   2.858  0.2954 -0.6097 -1.8254
 3222TIP3   OH2 9671   3.376   4.418   0.100 -0.9076 -0.4066 -0.0793
 3222TIP3    H1 9672   3.405   4.327   0.109  1.7095  0.4719  1.3011
 3222TIP3    H2 9673   3.394   4.440   0.009 -0.2981 -0.8802 -0.0769
 3223TIP3   OH2 9674   0.878   4.501   1.805  0.1974  0.6302  0.1269
 3223TIP3    H1 9675   0.867   4.416   1.848 -0.1593  1.0304  0.8433
 3223TIP3    H2 9676   0.969   4.500   1.775 -0.2830 -0.6920 -1.4072
 3224TIP3   OH2 9677   2.541   2.667   3.411  0.1235  0.0985 -0.1811
 3224TIP3    H1 9678   2.630   2.650   3.381  0.6065  0.8603  0.7882
 3224TIP3    H2 9679   2.519   2.752   3.372 -0.2541 -0.1665 -0.5585
 3225TIP3   OH2 9680   5.625   0.021   4.563  0.8565 -0.0191  0.6808
 3225TIP3    H1 9681   5.602   0.015   4.656 -0.7678 -0.2039  0.2972
 3225TIP3    H2 9682   5.657   0.111   4.552 -0.5504  0.5697  1.1149
 3226TIP3   OH2 9683   5.097   4.644   4.689 -0.1582  0.3760  0.1326
 3226TIP3    H1 9684   5.133   4.718   4.737 -1.1094  1.5314 -0.8402
 3226TIP3    H2 9685   5.094   4.675   4.598 -0.9598 -0.6954 -0.2241
 3227TIP3   OH2 9686   3.459   0.763   1.508 -0.1369 -0.2980  0.1817
 3227TIP3    H1 9687   3.544   0.807   1.512 -0.7914  1.1042 -0.6608
 3227TIP3    H2 9688   3.395   0.833   1.517 -1.2296 -0.9700 -1.7778
 3228TIP3   OH2 9689   2.536   0.622   1.866  0.1215  0.2577 -0.1685
 3228TIP3    H1 9690   2.501   0.650   1.781 -2.7480 -2.7199 -0.1924
 3228TIP3    H2 9691   2.555   0.529   1.854  1.5981  0.2246  1.9494
 3229TIP3   OH2 9692   5.260   4.067   2.166 -0.4487 -0.0437  0.0825
 3229TIP3    H1 9693   5.278   4.065   2.072 -1.2780 -0.5501 -0.0682
 3229TIP3    H2 9694   5.210   3.987   2.183 -1.7162  0.8368  0.6517
 3230TIP3   OH2 9695   1.827   1.031   0.170  0.1667 -0.2093 -0.1445
 3230TIP3    H1 9696   1.798   1.119   0.148 -0.2766 -0.3274 -0.0398
 3230TIP3    H2 9697   1.776   1.007   0.247  0.7777 -0.2960  0.2407
 3231TIP3   OH2 9698   5.028   5.449   2.918 -0.6473 -0.0966 -0.6022
 3231TIP3    H1 9699   5.091   5.420   2.984 -1.6838 -0.7869  0.1148
 3231TIP3    H2 9700   5.082   5.468   2.841  0.5496  0.3634  0.2972
 3232TIP3   OH2 9701   0.583   1.747   3.577 -0.2314  0.2959 -0.3857
 3232TIP3    H1 9702   0.531   1.673   3.546  1.9729 -2.0407  1.0534
 3232TIP3    H2 9703   0.548   1.765   3.665 -0.2258  0.3798 -0.4010
 3233TIP3   OH2 9704   3.479   5.722   0.399 -0.1495  0.0040  0.3881
 3233TIP3    H1 9705   3.489   5.664   0.474  2.6819  0.6827  0.6329
 3233TIP3    H2 9706   3.455   5.807   0.437 -0.6329 -0.1106  0.3443
 3234TIP3   OH2 9707   1.491   1.006   4.964  0.2468 -0.5582 -0.5657
 3234TIP3    H1 9708   1.470   0.914   4.976  1.6854 -0.6763  1.6970
 3234TIP3    H2 9709   1.576   1.017   5.007  1.7683  1.1559 -3.6762
 3235TIP3   OH2 9710   0.716   2.402   1.351 -0.1326 -0.0494 -0.2846
 3235TIP3    H1 9711   0.734   2.401   1.445 -1.3833 -3.1798  0.0246
 3235TIP3    H2 9712   0.658   2.478   1.338 -1.3614 -0.5582  1.8103
 3236TIP3   OH2 9713   5.970   6.003   0.251  0.0707 -0.0546  0.1335
 3236TIP3    H1 9714   5.981   5.976   0.160  0.8100  0.1977  0.1360
 3236TIP3    H2 9715   5.989   5.924   0.302  0.3577 -0.0215  0.0824
 3237TIP3   OH2 9716   6.191   4.490   4.935 -0.2071 -0.1458 -0.0954
 3237TIP3    H1 9717   6.148   4.436   5.001  0.1286 -1.1171 -0.6575
 3237TIP3    H2 9718   6.119   4.536   4.891 -0.5841 -0.8308 -0.2153
 3238TIP3   OH2 9719   3.505   0.573   1.692  0.5278 -0.1583 -0.5154
 3238TIP3    H1 9720   3.499   0.630   1.616  0.4461 -1.8752 -1.8458
 3238TIP3    H2 9721   3.587   0.599   1.735  0.4935  0.9339 -1.0832
 3239TIP3   OH2 9722   3.523   5.791   2.897 -0.0250  0.3437  0.5223
 3239TIP3    H1 9723   3.454   5.812   2.835  1.4481  1.2433 -0.8803
 3239TIP3    H2 9724   3.582   5.866   2.894  2.7414 -1.7300 -0.8005
 3240TIP3   OH2 9725   3.284   4.196   2.907  0.0508  0.4451 -1.3128
 3240TIP3    H1 9726   3.238   4.243   2.838  0.0158  0.2430 -1.4287
 3240TIP3    H2 9727   3.258   4.104   2.896 -2.0034  0.7133  0.5714
 3241TIP3   OH2 9728   0.875   1.368   1.879 -0.4441 -0.2459  0.2285
 3241TIP3    H1 9729   0.968   1.351   1.893 -0.6911 -1.8665  0.0517
 3241TIP3    H2 9730   0.840   1.382   1.966 -0.0782  0.1901  0.3120
 3242TIP3   OH2 9731   4.864   3.625   1.573  0.4944  0.1136 -0.7840
 3242TIP3    H1 9732   4.814   3.584   1.644  1.4658  1.0751  0.5268
 3242TIP3    H2 9733   4.863   3.561   1.502  0.5051 -1.4357  0.5480
 3243TIP3   OH2 9734   2.076   5.938   2.997 -0.0719 -0.1635 -0.8069
 3243TIP3    H1 9735   2.121   5.898   2.922  0.3534  0.8989 -1.1314
 3243TIP3    H2 9736   2.138   6.003   3.030 -0.1615 -0.7503  0.6162
 3244TIP3   OH2 9737   0.888   5.807   3.516  0.1887 -0.0808  0.6320
 3244TIP3    H1 9738   0.947   5.843   3.451 -2.5052  0.2227 -1.8208
 3244TIP3    H2 9739   0.851   5.884   3.560  0.6221 -0.2372  1.3008
 3245TIP3   OH2 9740   3.761   2.271   4.246  0.6182 -0.0504 -0.3228
 3245TIP3    H1 9741   3.824   2.199   4.235  1.8298  0.7264  1.2089
 3245TIP3    H2 9742   3.702   2.241   4.315  0.1847 -0.1745 -0.7400
 3246TIP3   OH2 9743   6.373   1.543   4.173 -0.1050  0.0950  0.2737
 3246TIP3    H1 9744   6.376   1.455   4.136 -0.8736 -0.7951  2.1730
 3246TIP3    H2 9745   6.281   1.557   4.194  0.2033  0.7607  1.2557
 3247TIP3   OH2 9746   6.113   1.490   1.857 -0.8937  0.5005 -0.2966
 3247TIP3    H1 9747   6.026   1.504   1.820 -0.0564  0.2640 -2.5022
 3247TIP3    H2 9748   6.153   1.423   1.801  0.6414  0.4488  0.7845
 3248TIP3   OH2 9749   0.577   3.909   0.457  0.6444  0.1561 -0.7995
 3248TIP3    H1 9750   0.551   3.819   0.439 -1.5842  0.7959 -1.1040
 3248TIP3    H2 9751   0.555   3.957   0.376  2.0470  0.9405 -0.7439
 3249TIP3   OH2 9752   0.044   1.901   4.149 -0.2313 -0.1625  0.0501
 3249TIP3    H1 9753   0.037   1.956   4.070 -0.3195 -1.2531 -0.7237
 3249TIP3    H2 9754  -0.018   1.829   4.133 -2.0200  0.8029  2.1511
 3250TIP3   OH2 9755   1.055   0.366   3.589 -0.2477  0.0658 -0.9721
 3250TIP3    H1 9756   1.045   0.273   3.608  0.1349 -0.1519 -1.7627
 3250TIP3    H2 9757   1.124   0.369   3.523  1.9498  1.1373  1.2034
 3251TIP3   OH2 9758   0.044   3.497   4.783 -0.2633  0.1549  0.6351
 3251TIP3    H1 9759   0.042   3.591   4.799 -0.4133 -0.1585  2.8228
 3251TIP3    H2 9760   0.131   3.480   4.748  0.4227  0.9094  1.9072
 3252TIP3   OH2 9761   5.049   4.986   0.353 -0.1363 -0.6974  0.1273
 3252TIP3    H1 9762   4.982   4.918   0.357  0.7212 -1.5369  0.9033
 3252TIP3    H2 9763   5.132   4.939   0.362  0.8157 -0.0179 -3.6188
 3253TIP3   OH2 9764   0.113   5.659   4.669  0.3985 -0.3527  0.0559
 3253TIP3    H1 9765   0.118   5.744   4.625 -1.2875 -0.0650  0.3227
 3253TIP3    H2 9766   0.036   5.617   4.630  0.6912 -1.3826  0.5605
 3254TIP3   OH2 9767   2.641   2.382   1.554  1.0678 -0.3307 -0.0209
 3254TIP3    H1 9768   2.632   2.476   1.564 -0.9586 -0.4853 -0.0777
 3254TIP3    H2 9769   2.658   2.349   1.642 -0.1962 -0.0785  0.3366
 3255TIP3   OH2 9770   4.566   2.927   1.534 -1.0832  0.0083 -0.3363
 3255TIP3    H1 9771   4.567   2.949   1.441 -0.7033 -0.4428 -0.4444
 3255TIP3    H2 9772   4.521   2.842   1.538 -1.5411  0.2597 -0.0526
 3256TIP3   OH2 9773   5.076   3.015   4.276  0.5163 -0.3352  0.1471
 3256TIP3    H1 9774   5.000   2.991   4.223 -0.3805 -0.3116  1.3834
 3256TIP3    H2 9775   5.061   3.106   4.300  0.9075 -0.3435  0.4446
 3257TIP3   OH2 9776   4.944   3.877   0.718 -0.1498 -0.4370 -0.1367
 3257TIP3    H1 9777   4.890   3.815   0.669 -1.4793  0.4104  0.1854
 3257TIP3    H2 9778   4.909   3.874   0.807 -0.6296  1.1708 -0.2439
 3258TIP3   OH2 9779   1.532   5.401   1.770  0.2459 -0.7972 -0.0306
 3258TIP3    H1 9780   1.551   5.406   1.677 -1.9618  1.2085 -0.4501
 3258TIP3    H2 9781   1.451   5.351   1.776  0.0574 -0.4229  0.7479
 3259TIP3   OH2 9782   0.400   2.790   0.152 -0.0223 -0.8943 -0.7233
 3259TIP3    H1 9783   0.346   2.837   0.088 -0.9386 -0.3347  0.4302
 3259TIP3    H2 9784   0.340   2.727   0.192  0.2494 -0.4712  0.3712
 3260TIP3   OH2 9785   3.406   4.997   3.888  0.6601  0.8140 -0.0845
 3260TIP3    H1 9786   3.396   5.062   3.958 -4.3346  0.9066 -0.5601
 3260TIP3    H2 9787   3.407   4.913   3.933  0.4068  0.9810  0.2337
 3261TIP3   OH2 9788   4.668   2.938   2.827 -0.2220 -0.1755  0.1594
 3261TIP3    H1 9789   4.633   2.974   2.746 -1.7097 -1.3054  0.2521
 3261TIP3    H2 9790   4.754   2.902   2.804  0.0318  0.8646 -0.5493
 3262TIP3   OH2 9791   3.822   5.937   0.759 -0.5829 -0.0143 -0.6249
 3262TIP3    H1 9792   3.751   5.924   0.696 -1.2918  1.5183 -0.2080
 3262TIP3    H2 9793   3.786   5.999   0.822  0.1995 -1.3120  1.1615
 3263TIP3   OH2 9794   2.620   5.137   4.679 -0.4575 -0.7212  0.4323
 3263TIP3    H1 9795   2.592   5.063   4.733 -0.5086  0.3079  1.8715
 3263TIP3    H2 9796   2.715   5.125   4.670 -0.2954 -0.4002  1.5763
 3264TIP3   OH2 9797   5.360   4.872   2.653  0.2713 -0.0510  0.1787
 3264TIP3    H1 9798   5.378   4.965   2.668  1.8205 -0.6818  2.9498
 3264TIP3    H2 9799   5.429   4.843   2.592  1.0262  0.2094  0.8982
 3265TIP3   OH2 9800   4.556   4.538   3.586 -0.1997 -0.5861 -0.3013
 3265TIP3    H1 9801   4.596   4.605   3.641 -1.7594  0.6625 -0.6015
 3265TIP3    H2 9802   4.607   4.539   3.505  1.3224 -1.5512  0.6010
 3266TIP3   OH2 9803   5.062   1.192   4.593 -0.3859 -0.0523  0.2019
 3266TIP3    H1 9804   5.136   1.185   4.533 -1.2865  0.8986 -1.0674
 3266TIP3    H2 9805   5.097   1.237   4.670 -0.1513  2.5893 -1.3613
 3267TIP3   OH2 9806   5.320   0.579   1.048 -0.1980  0.0658 -0.2975
 3267TIP3    H1 9807   5.268   0.597   0.970 -2.2494 -2.1541  0.4027
 3267TIP3    H2 9808   5.283   0.637   1.115  0.1181  0.4717 -0.4774
 3268TIP3   OH2 9809   2.671   3.208   1.727 -0.0324  0.4641 -0.3996
 3268TIP3    H1 9810   2.717   3.288   1.754 -0.1488  0.8857 -1.3809
 3268TIP3    H2 9811   2.692   3.144   1.794  1.1482  0.9500 -0.2857
 3269TIP3   OH2 9812   0.255   5.738   4.897  0.2794 -0.3326 -0.2803
 3269TIP3    H1 9813   0.267   5.833   4.891 -0.4805 -0.2284 -0.2971
 3269TIP3    H2 9814   0.201   5.716   4.821 -0.9424 -0.5210  0.6160
 3270TIP3   OH2 9815   0.534   5.464   0.517  0.0481  0.0666 -0.1965
 3270TIP3    H1 9816   0.451   5.511   0.521  1.6860  3.2301  0.0654
 3270TIP3    H2 9817   0.564   5.474   0.427  0.7642  0.1506  0.0374
 3271TIP3   OH2 9818   1.077   4.736   1.821 -0.3824 -0.3533 -0.2977
 3271TIP3    H1 9819   1.080   4.692   1.735  0.2076  0.1205 -0.5234
 3271TIP3    H2 9820   1.080   4.664   1.884 -0.5180 -0.6919 -0.6709
 3272TIP3   OH2 9821   3.258   1.680   2.946  0.0331 -0.4677  0.2203
 3272TIP3    H1 9822   3.204   1.613   2.904 -0.0575 -0.0624 -0.3093
 3272TIP3    H2 9823   3.202   1.717   3.014  0.2351 -1.2373  0.8347
 3273TIP3   OH2 9824   3.363   3.243   3.504  0.1319  0.7337 -0.1826
 3273TIP3    H1 9825   3.276   3.230   3.467  0.8208  0.7817 -1.9579
 3273TIP3    H2 9826   3.366   3.336   3.526 -0.0313  0.8879 -0.7960
 3274TIP3   OH2 9827   2.058   4.435   2.234  0.0774  0.1182  0.3344
 3274TIP3    H1 9828   2.060   4.530   2.234 -0.6152  0.1413  0.9837
 3274TIP3    H2 9829   2.051   4.411   2.142 -0.4398  0.7149  0.2144
 3275TIP3   OH2 9830   2.798   3.377   1.310 -0.0343 -0.0838  0.5581
 3275TIP3    H1 9831   2.777   3.453   1.255  1.2524  0.2999  0.5754
 3275TIP3    H2 9832   2.767   3.402   1.397 -0.5780 -0.0251  0.3567
 3276TIP3   OH2 9833   5.794   5.691   1.016 -0.4695 -0.3773  0.4912
 3276TIP3    H1 9834   5.821   5.752   1.084  1.0032 -1.6356  1.0835
 3276TIP3    H2 9835   5.760   5.747   0.946  1.2935  1.1777  0.7932
 3277TIP3   OH2 9836   1.851   2.251   0.120  0.2734 -0.0508 -0.1362
 3277TIP3    H1 9837   1.764   2.265   0.157 -0.4867 -1.8504 -1.1119
 3277TIP3    H2 9838   1.899   2.206   0.190  0.0826  0.0226  0.0450
 3278TIP3   OH2 9839   4.484   2.530   3.268  0.2580  0.5858  0.0532
 3278TIP3    H1 9840   4.461   2.573   3.350 -0.1832  0.0752  0.2056
 3278TIP3    H2 9841   4.401   2.499   3.232  0.6446 -0.9726  0.4345
 3279TIP3   OH2 9842   0.460   0.871   3.708  0.4023  0.1610 -0.5469
 3279TIP3    H1 9843   0.402   0.910   3.773  0.2932  1.1518 -1.2212
 3279TIP3    H2 9844   0.401   0.845   3.637  0.9261  2.9423 -2.1079
 3280TIP3   OH2 9845   3.806   2.617   1.544 -0.0934 -0.7539 -0.2816
 3280TIP3    H1 9846   3.837   2.586   1.629 -1.6361 -1.7308 -0.0428
 3280TIP3    H2 9847   3.817   2.542   1.486  0.3467 -0.2918 -0.8169
 3281TIP3   OH2 9848   1.709   3.125   2.597 -0.2483  0.4728  0.1410
 3281TIP3    H1 9849   1.702   3.086   2.684 -1.2929 -1.4597 -0.7385
 3281TIP3    H2 9850   1.627   3.173   2.586 -1.3407 -1.4438 -0.6878
 3282TIP3   OH2 9851   5.950   3.166   4.239  0.5524  0.0051  0.1172
 3282TIP3    H1 9852   5.926   3.122   4.320  0.1154  1.1260  0.6246
 3282TIP3    H2 9853   5.868   3.172   4.190  0.6228  0.1696  0.0171
 3283TIP3   OH2 9854   0.992   5.888   2.627  0.0751  0.2313  0.1039
 3283TIP3    H1 9855   1.053   5.915   2.558 -1.2717  0.9400 -0.8630
 3283TIP3    H2 9856   0.922   5.843   2.580  0.7381 -2.2782  1.3953
 3284TIP3   OH2 9857   0.138   2.721   2.753 -0.0275 -0.2542  0.9016
 3284TIP3    H1 9858   0.131   2.816   2.766  0.8930 -0.1579  0.7512
 3284TIP3    H2 9859   0.048   2.690   2.760 -0.2188  0.4797  2.1752
 3285TIP3   OH2 9860   0.046   5.722   3.913  0.3528 -0.0687  0.0247
 3285TIP3    H1 9861   0.131   5.755   3.943 -0.7590  0.6753  2.6255
 3285TIP3    H2 9862   0.030   5.644   3.966  0.0025 -1.0572 -1.4641
 3286TIP3   OH2 9863   5.374   0.564   1.473  0.4323  0.2233 -0.0843
 3286TIP3    H1 9864   5.423   0.585   1.394 -1.2996 -0.5697 -1.4431
 3286TIP3    H2 9865   5.320   0.641   1.490  0.8268  0.4061  0.3640
 3287TIP3   OH2 9866   0.521   1.394   2.034  0.3776  0.1944 -0.1369
 3287TIP3    H1 9867   0.595   1.394   2.095  0.6883  2.6718 -0.4200
 3287TIP3    H2 9868   0.488   1.483   2.036 -0.5458 -0.0174 -2.4893
 3288TIP3   OH2 9869   3.785   0.475   2.249  0.5893 -0.4385 -0.2751
 3288TIP3    H1 9870   3.780   0.412   2.321 -0.4754  2.2546  2.2572
 3288TIP3    H2 9871   3.844   0.543   2.281 -0.5373  1.2591 -1.6015
 3289TIP3   OH2 9872   5.666   1.324   4.071  0.3457  0.2116 -0.1906
 3289TIP3    H1 9873   5.648   1.261   4.141  2.4028  0.0772  0.2709
 3289TIP3    H2 9874   5.579   1.353   4.043 -0.6312 -1.7631  0.5377
 3290TIP3   OH2 9875   4.743   3.839   1.736 -0.7266 -0.2243  0.4271
 3290TIP3    H1 9876   4.776   3.791   1.660 -0.7890 -1.4634  1.1513
 3290TIP3    H2 9877   4.653   3.861   1.713  0.0019  1.6904 -0.8730
 3291TIP3   OH2 9878   2.081   2.384   5.075  0.1603  0.1681  0.5755
 3291TIP3    H1 9879   2.024   2.333   5.018  0.7474 -0.0738  0.1865
 3291TIP3    H2 9880   2.022   2.429   5.135 -0.3508 -1.1642  1.0862
 3292TIP3   OH2 9881   1.175   4.313   2.874 -0.2001  0.2820 -0.6013
 3292TIP3    H1 9882   1.265   4.300   2.842  0.5834 -1.3669  2.0034
 3292TIP3    H2 9883   1.140   4.225   2.885 -0.5251  0.6838  2.5166
 3293TIP3   OH2 9884   1.671   0.742   5.068 -0.0423 -0.1183 -0.0297
 3293TIP3    H1 9885   1.610   0.703   5.006  0.7577  0.4335 -1.2070
 3293TIP3    H2 9886   1.617   0.769   5.142 -1.1305 -0.1690 -0.7852
 3294TIP3   OH2 9887   0.634   0.153   1.811 -0.3125 -0.2760  0.4579
 3294TIP3    H1 9888   0.579   0.225   1.782 -0.6337 -0.7543 -0.1435
 3294TIP3    H2 9889   0.670   0.182   1.895  0.0474  0.8335 -0.0564
 3295TIP3   OH2 9890   0.351   4.290   0.604  0.0678 -0.4198 -0.4520
 3295TIP3    H1 9891   0.310   4.287   0.690 -1.7278 -2.5882 -1.2771
 3295TIP3    H2 9892   0.312   4.216   0.556  1.3500  0.4073 -2.9626
 3296TIP3   OH2 9893   2.208   2.656   1.628 -0.0998 -0.5493 -0.4328
 3296TIP3    H1 9894   2.300   2.655   1.604 -0.0466 -0.3181 -0.2450
 3296TIP3    H2 9895   2.168   2.720   1.568  0.1954  0.6965  0.6457
 3297TIP3   OH2 9896   6.296   5.265   1.870  0.7642 -0.0704 -0.2492
 3297TIP3    H1 9897   6.233   5.258   1.942 -0.2741 -0.5779 -1.1836
 3297TIP3    H2 9898   6.267   5.341   1.820 -0.2588 -1.3572 -1.7196
 3298TIP3   OH2 9899   1.659   0.310   0.048 -0.1049  0.4864 -0.2601
 3298TIP3    H1 9900   1.637   0.337   0.138  4.6618  2.4271  0.6004
 3298TIP3    H2 9901   1.603   0.365  -0.007 -0.9303  1.5361  1.5387
 3299TIP3   OH2 9902   1.504   5.816   1.050  0.6694 -0.0228  0.7516
 3299TIP3    H1 9903   1.594   5.843   1.030  0.4000 -0.9418 -2.2382
 3299TIP3    H2 9904   1.513   5.732   1.095  1.4275 -1.4400 -1.7914
 3300TIP3   OH2 9905   2.850   1.857   1.438  0.4957 -0.2401  0.0402
 3300TIP3    H1 9906   2.921   1.838   1.377 -0.0228 -2.6745  0.0799
 3300TIP3    H2 9907   2.839   1.776   1.488 -1.2207  0.6179  1.1669
 3301TIP3   OH2 9908   4.103   1.859   3.888  0.7853 -0.0399  0.2969
 3301TIP3    H1 9909   4.137   1.948   3.894 -0.8395  0.5635  1.2638
 3301TIP3    H2 9910   4.049   1.849   3.966 -0.3315 -1.2982 -0.5929
 3302TIP3   OH2 9911   5.393   3.094   4.648  0.3046 -0.1630 -0.4663
 3302TIP3    H1 9912   5.402   3.016   4.702 -0.3512 -0.0347 -0.1578
 3302TIP3    H2 9913   5.451   3.079   4.573  0.6945 -0.6438 -0.0719
 3303TIP3   OH2 9914   3.457   3.054   1.194 -0.1244 -0.0461 -0.6114
 3303TIP3    H1 9915   3.448   2.960   1.210 -1.5456  0.1964  0.1278
 3303TIP3    H2 9916   3.514   3.085   1.264 -1.2370 -0.0398  0.3002
 3304TIP3   OH2 9917   1.242   2.502   0.643 -0.2297 -0.0540 -0.2491
 3304TIP3    H1 9918   1.332   2.480   0.618  0.2989 -0.9661  2.1622
 3304TIP3    H2 9919   1.190   2.483   0.565  1.2329 -2.8007 -0.6914
 3305TIP3   OH2 9920   1.122   3.669   0.559  0.1049 -0.0014 -0.1835
 3305TIP3    H1 9921   1.106   3.582   0.522 -0.5043  0.7290 -1.7352
 3305TIP3    H2 9922   1.208   3.662   0.600  0.7988 -0.9073 -1.6815
 3306TIP3   OH2 9923   4.870   4.417   1.313  0.3709  0.2592 -0.4591
 3306TIP3    H1 9924   4.914   4.336   1.290 -0.7548 -0.7502  0.8042
 3306TIP3    H2 9925   4.789   4.416   1.262 -0.3302 -0.1392  0.6307
 3307TIP3   OH2 9926   3.664   5.490   4.659  0.2184 -0.7988 -0.5277
 3307TIP3    H1 9927   3.743   5.436   4.653  0.3950 -1.1399  2.8466
 3307TIP3    H2 9928   3.696   5.578   4.676 -0.1449 -0.1051 -3.0501
 3308TIP3   OH2 9929   2.473   2.495   5.157 -0.2768 -0.3311  0.3326
 3308TIP3    H1 9930   2.429   2.415   5.186  0.7533 -0.8072  0.6331
 3308TIP3    H2 9931   2.566   2.479   5.174 -0.1491  1.4515  1.6499
 3309TIP3   OH2 9932   1.991   3.728   3.504 -0.1203  0.4096 -0.6662
 3309TIP3    H1 9933   2.075   3.710   3.462  0.5303  2.3286 -0.2792
 3309TIP3    H2 9934   1.975   3.652   3.559 -0.4882 -1.7193 -3.4618
 3310TIP3   OH2 9935   0.304   1.138   4.528 -0.9189 -0.0900 -0.4267
 3310TIP3    H1 9936   0.246   1.201   4.485 -0.3592  0.6389 -0.1513
 3310TIP3    H2 9937   0.246   1.076   4.571 -1.5000  0.6522 -0.1174
 3311TIP3   OH2 9938   2.117   1.466   3.183 -0.0315 -1.0141  0.1309
 3311TIP3    H1 9939   2.155   1.538   3.234  0.0589 -1.1312  0.2308
 3311TIP3    H2 9940   2.028   1.457   3.217 -0.2163 -0.6143 -0.2346
 3312TIP3   OH2 9941   2.236   5.217   4.400 -0.1774  0.2736  0.1597
 3312TIP3    H1 9942   2.267   5.217   4.490  1.4733  0.9360 -0.3651
 3312TIP3    H2 9943   2.140   5.219   4.407 -0.0854  2.6655  1.8958
 3313TIP3   OH2 9944   6.132   1.759   1.146 -0.2235 -0.2121  0.4594
 3313TIP3    H1 9945   6.167   1.835   1.100 -0.1719 -0.7873 -0.4894
 3313TIP3    H2 9946   6.183   1.754   1.226 -3.2112  3.4336  2.9339
 3314TIP3   OH2 9947   3.072   2.995   4.788  0.6175  0.2791  0.1561
 3314TIP3    H1 9948   3.130   3.070   4.802 -0.0495  1.3926 -2.3882
 3314TIP3    H2 9949   3.129   2.919   4.789  1.1571  0.5628  4.0735
 3315TIP3   OH2 9950   5.347   0.508   0.381  0.3693  0.3138 -0.2759
 3315TIP3    H1 9951   5.308   0.594   0.397  0.9431  0.3780  0.7936
 3315TIP3    H2 9952   5.380   0.480   0.466 -1.1198 -1.6296 -0.2732
 3316TIP3   OH2 9953   5.447   5.589   4.950  0.1508  0.5138 -0.1122
 3316TIP3    H1 9954   5.417   5.587   5.042 -1.7802 -3.7717 -0.6024
 3316TIP3    H2 9955   5.374   5.629   4.903 -1.7194 -2.8105 -0.3365
 3317TIP3   OH2 9956   0.553   2.913   0.353 -0.3379 -0.0944 -0.4512
 3317TIP3    H1 9957   0.519   2.860   0.280 -0.9248  0.9682 -0.9640
 3317TIP3    H2 9958   0.477   2.928   0.409 -0.0567 -0.2174 -0.0303
 3318TIP3   OH2 9959   3.060   2.155   4.746  0.0613 -0.3269  0.4631
 3318TIP3    H1 9960   3.107   2.209   4.682 -1.1830 -0.6086 -0.7318
 3318TIP3    H2 9961   3.057   2.209   4.825 -0.1063  0.8558 -0.3314
 3319TIP3   OH2 9962   0.873   0.499   3.025 -0.2747 -0.1927 -0.2971
 3319TIP3    H1 9963   0.778   0.509   3.025 -0.2837 -0.2818 -0.2378
 3319TIP3    H2 9964   0.890   0.432   3.091 -0.0730  0.7848  0.6625
 3320TIP3   OH2 9965   1.131   2.969   4.974  0.8278 -0.2583  0.4249
 3320TIP3    H1 9966   1.150   2.895   4.918 -0.9642 -0.3848 -0.1008
 3320TIP3    H2 9967   1.163   3.045   4.925 -0.5766 -0.3774 -0.7594
 3321TIP3   OH2 9968   2.291   3.000   0.771  0.3672  0.9125  0.3327
 3321TIP3    H1 9969   2.329   3.058   0.837  0.9174 -1.2851  2.0831
 3321TIP3    H2 9970   2.349   2.924   0.770 -2.1389 -1.1465  0.7164
 3322TIP3   OH2 9971   4.458   1.167   0.899 -0.3167 -0.1695  0.1597
 3322TIP3    H1 9972   4.532   1.110   0.918 -0.9661 -2.3062 -3.0674
 3322TIP3    H2 9973   4.480   1.250   0.942  4.1653 -0.5479 -0.9413
 3323TIP3   OH2 9974   3.578   1.317   3.359  0.2693 -0.0276  0.2274
 3323TIP3    H1 9975   3.601   1.281   3.445  0.9530 -0.0541  0.0337
 3323TIP3    H2 9976   3.558   1.240   3.306  3.7291 -0.3912 -0.8020
 3324TIP3   OH2 9977   2.095   0.489   3.139 -0.2442 -0.0968 -0.9575
 3324TIP3    H1 9978   2.044   0.570   3.141 -2.0413 -1.2034  0.2660
 3324TIP3    H2 9979   2.096   0.459   3.229  2.1562 -0.4348 -1.0449
 3325TIP3   OH2 9980   1.509   5.599   1.228  0.0287  0.0268 -0.0684
 3325TIP3    H1 9981   1.479   5.529   1.169  0.2915  0.9324 -1.3334
 3325TIP3    H2 9982   1.580   5.560   1.278  0.4673 -0.4955 -1.0691
 3326TIP3   OH2 9983   2.745   0.274   5.057  0.4490 -0.4340  0.2169
 3326TIP3    H1 9984   2.655   0.299   5.033  0.4203 -1.2134 -0.5700
 3326TIP3    H2 9985   2.771   0.338   5.123 -1.2464 -1.1144  1.6127
 3327TIP3   OH2 9986   3.013   5.490   4.711 -0.0326  0.0024 -0.2228
 3327TIP3    H1 9987   3.048   5.540   4.784  1.6494 -0.4366 -0.6920
 3327TIP3    H2 9988   3.088   5.443   4.675 -1.2498 -1.6374 -0.7685
 3328TIP3   OH2 9989   3.645   0.547   4.404 -0.3958  0.4605 -0.1022
 3328TIP3    H1 9990   3.587   0.598   4.349 -1.1343 -0.7015 -0.4263
 3328TIP3    H2 9991   3.657   0.465   4.357  0.7036  0.2840  0.4479
 3329TIP3   OH2 9992   3.072   1.721   1.641  0.1181 -0.1205 -0.2456
 3329TIP3    H1 9993   3.072   1.794   1.704 -1.1431  0.3895 -0.8095
 3329TIP3    H2 9994   3.152   1.734   1.590 -0.6709  1.5662 -1.1044
 3330TIP3   OH2 9995   0.838   3.694   1.628  0.2238  0.0071  0.0215
 3330TIP3    H1 9996   0.811   3.768   1.683 -0.2350  0.4877 -0.8263
 3330TIP3    H2 9997   0.913   3.657   1.673 -0.4776  0.0459  1.2634
 3331TIP3   OH2 9998   5.165   0.792   5.017  0.2528  0.0733  0.8934
 3331TIP3    H1 9999   5.146   0.837   4.934  0.0824  0.9410  1.3833
 3331TIP3    H210000   5.104   0.832   5.079 -0.2485 -1.2199  1.2441
 3332TIP3   OH210001   4.166   5.084   4.447  0.1299  0.3255  0.2120
 3332TIP3    H110002   4.176   5.158   4.386  0.0510 -0.0704 -0.2913
 3332TIP3    H210003   4.072   5.076   4.460  0.1453  0.3888  0.3566
 3333TIP3   OH210004   0.193   4.151   0.820 -0.2002  0.2893  0.1858
 3333TIP3    H110005   0.287   4.131   0.827  0.1089  1.5896 -0.0674
 3333TIP3    H210006   0.170   4.191   0.903 -0.8910 -1.3045  0.8048
 3334TIP3   OH210007   0.704   3.244   0.368  0.2136  0.0184  0.5460
 3334TIP3    H110008   0.613   3.272   0.361  0.0523 -0.3514  1.0983
 3334TIP3    H210009   0.750   3.293   0.300 -0.5636 -0.4790 -0.3562
 3335TIP3   OH210010   0.690   4.955   4.142 -0.3293  0.9044 -0.4850
 3335TIP3    H110011   0.708   4.873   4.188 -0.1085  0.6782 -0.9665
 3335TIP3    H210012   0.768   4.971   4.090 -0.9811  0.6014 -1.5956
 3336TIP3   OH210013   1.975   5.490   1.293  0.3519 -0.1796  0.1818
 3336TIP3    H110014   2.016   5.557   1.238  1.5307 -0.1129  1.0841
 3336TIP3    H210015   2.049   5.438   1.326 -0.3727 -0.6232  1.1592
 3337TIP3   OH210016   3.519   3.468   4.015 -0.2940 -0.0183 -0.6098
 3337TIP3    H110017   3.491   3.555   4.044  1.4883  0.4630 -0.2158
 3337TIP3    H210018   3.484   3.409   4.082  1.4012  0.7972  1.0719
 3338TIP3   OH210019   5.683   2.498   3.752  0.3144  0.2192 -0.4212
 3338TIP3    H110020   5.695   2.592   3.738  1.9551  0.2303  0.7965
 3338TIP3    H210021   5.744   2.475   3.821 -1.6967 -1.3236  0.9951
 3339TIP3   OH210022   2.330   5.839   1.593 -0.3477  0.4632  0.5613
 3339TIP3    H110023   2.283   5.862   1.513  0.0254  1.1540  0.5390
 3339TIP3    H210024   2.357   5.922   1.631  0.4614  0.0977  0.8162
 3340TIP3   OH210025   3.422   1.770   2.721  0.2579 -0.7226 -0.1433
 3340TIP3    H110026   3.346   1.804   2.674 -0.1487 -2.5749 -0.9129
 3340TIP3    H210027   3.392   1.761   2.812  0.0247 -0.1284 -0.1575
 3341TIP3   OH210028   3.006   3.154   4.521 -0.6538  0.3170 -0.4499
 3341TIP3    H110029   2.966   3.067   4.513 -3.3847  1.4300  0.0201
 3341TIP3    H210030   3.007   3.172   4.615  0.2360  0.6723 -0.5172
 3342TIP3   OH210031   2.236   2.396   0.421  0.0573  0.0122  0.3660
 3342TIP3    H110032   2.156   2.353   0.450 -0.5070 -0.3308 -1.5178
 3342TIP3    H210033   2.294   2.325   0.394 -0.0755  0.3263 -0.8100
 3343TIP3   OH210034   0.762   3.013   1.818 -0.2110  0.2894 -0.1650
 3343TIP3    H110035   0.681   2.992   1.772 -0.0076  0.4495 -0.6039
 3343TIP3    H210036   0.770   2.945   1.885 -0.5422  0.0891 -0.3251
 3344TIP3   OH210037   4.936   2.869   3.054  0.0668 -0.0511  0.0955
 3344TIP3    H110038   5.022   2.902   3.082  0.8476  1.6948 -3.6456
 3344TIP3    H210039   4.957   2.797   2.994 -1.0428  0.4829 -0.9676
 3345TIP3   OH210040   3.749   2.915   3.004  0.1884 -0.2063 -0.3729
 3345TIP3    H110041   3.728   3.001   3.040  2.1823  0.7127 -1.2376
 3345TIP3    H210042   3.704   2.853   3.062  0.0476  1.3449  1.2760
 3346TIP3   OH210043   3.252   0.704   0.746 -0.2244 -0.0109  0.3439
 3346TIP3    H110044   3.206   0.675   0.668  1.2142  0.8990 -0.9039
 3346TIP3    H210045   3.200   0.777   0.779 -0.1488  0.4796 -0.5795
 3347TIP3   OH210046   4.086   2.765   3.080 -0.0628 -0.2212 -0.2764
 3347TIP3    H110047   4.108   2.764   3.173 -1.3020  1.9254  0.1276
 3347TIP3    H210048   4.014   2.702   3.071  1.0040 -1.4979 -0.0958
 3348TIP3   OH210049   1.004   3.520   4.660  0.3869  0.1681  0.1175
 3348TIP3    H110050   1.002   3.542   4.566  0.1794  2.2019  0.5555
 3348TIP3    H210051   1.097   3.522   4.683  0.4294 -0.2235 -0.0134
 3349TIP3   OH210052   3.930   5.977   3.459 -0.5127  0.0323  0.0301
 3349TIP3    H110053   3.890   5.891   3.451 -1.8180  0.6694 -0.6201
 3349TIP3    H210054   3.908   6.006   3.548 -1.5908  0.3991 -0.3393
 3350TIP3   OH210055   0.010   1.622   1.585  0.3292  0.1209  0.0451
 3350TIP3    H110056  -0.044   1.624   1.664  1.2255  1.4124  0.6544
 3350TIP3    H210057   0.099   1.640   1.615  0.5858  1.3435 -1.3191
 3351TIP3   OH210058   3.172   4.042   2.598 -0.0319  0.1421 -0.2749
 3351TIP3    H110059   3.246   3.982   2.596 -0.2964 -0.2250  0.5914
 3351TIP3    H210060   3.096   3.987   2.618 -0.0686  0.9143  1.9909
 3352TIP3   OH210061   2.808   0.163   4.533  0.0414 -0.3867 -0.3091
 3352TIP3    H110062   2.777   0.076   4.556 -1.0512 -0.0301 -0.4008
 3352TIP3    H210063   2.755   0.189   4.458  0.2975  0.4007 -0.2288
 3353TIP3   OH210064   0.595   0.522   3.066  0.8648  0.5697 -0.5619
 3353TIP3    H110065   0.597   0.539   3.160 -0.4074 -0.5198 -0.2970
 3353TIP3    H210066   0.513   0.561   3.036 -1.0579 -2.8568 -0.3104
 3354TIP3   OH210067   1.394   3.264   1.454 -0.2533  0.3731 -0.1142
 3354TIP3    H110068   1.463   3.209   1.490  0.2954  1.8742  1.2492
 3354TIP3    H210069   1.422   3.282   1.364  0.5657  0.0560  0.0705
 3355TIP3   OH210070   4.301   4.679   1.402 -0.2056 -0.4077  0.1519
 3355TIP3    H110071   4.387   4.714   1.426 -0.0854 -1.6417  1.6792
 3355TIP3    H210072   4.252   4.755   1.372  1.3705  0.3423 -0.6720
 3356TIP3   OH210073   4.022   2.630   2.343 -0.2382 -0.5922 -0.1963
 3356TIP3    H110074   3.930   2.625   2.317  0.3332 -2.8688 -2.2881
 3356TIP3    H210075   4.021   2.632   2.438 -2.4582 -0.7230 -0.1752
 3357TIP3   OH210076   3.006   0.131   0.228 -0.4930  0.5981 -0.5320
 3357TIP3    H110077   2.974   0.218   0.202 -0.8309  0.2764 -1.2199
 3357TIP3    H210078   2.961   0.070   0.169 -0.2301 -0.0454 -0.0833
 3358TIP3   OH210079   6.265   2.731   5.069  0.0279 -0.6248 -0.0882
 3358TIP3    H110080   6.214   2.665   5.114  1.1965 -1.0272  0.6788
 3358TIP3    H210081   6.349   2.733   5.114  0.7215 -0.0053 -1.3287
 3359TIP3   OH210082   5.642   2.740   1.450  0.2964 -0.3474 -0.1082
 3359TIP3    H110083   5.661   2.648   1.434  0.9950  0.0193 -1.5705
 3359TIP3    H210084   5.552   2.752   1.419  0.2025 -0.5172  0.0889
 3360TIP3   OH210085   4.067   4.203   3.584 -0.2306  0.1849  0.0817
 3360TIP3    H110086   4.046   4.113   3.557  3.8001 -0.6015 -1.1285
 3360TIP3    H210087   4.084   4.197   3.678  0.8308 -0.5575 -0.1412
 3361TIP3   OH210088   1.758   4.305   2.679 -0.2988 -0.1203  0.2050
 3361TIP3    H110089   1.837   4.315   2.626 -0.1553 -0.9746  0.2479
 3361TIP3    H210090   1.724   4.394   2.687  0.1705  0.1394 -0.5555
 3362TIP3   OH210091   5.376   0.998   4.219 -0.2318  0.1604 -0.0488
 3362TIP3    H110092   5.454   0.975   4.270 -0.5803  0.7243  0.7705
 3362TIP3    H210093   5.346   0.915   4.182  0.5528 -0.1179 -0.0739
 3363TIP3   OH210094   2.950   3.379   4.791 -0.3839  0.2322  0.3569
 3363TIP3    H110095   2.921   3.388   4.700 -1.7727  1.2322  0.8685
 3363TIP3    H210096   2.915   3.456   4.836  3.3043  1.7209  1.0380
 3364TIP3   OH210097   1.064   5.407   1.909 -0.2577  0.2549 -0.5866
 3364TIP3    H110098   1.094   5.335   1.965 -0.5865  0.0756 -0.6362
 3364TIP3    H210099   1.117   5.400   1.830 -1.4413 -0.9985 -1.3167
 3365TIP3   OH210100   0.060   4.198   2.911  0.0874  0.2477 -1.0561
 3365TIP3    H110101   0.042   4.245   2.830 -0.5824 -0.1168 -1.1300
 3365TIP3    H210102   0.014   4.114   2.901 -0.3645  0.3653 -0.1356
 3366TIP3   OH210103   2.846   5.732   0.829 -0.1661 -0.7676 -0.0803
 3366TIP3    H110104   2.790   5.654   0.825  0.1933 -1.0897  0.8220
 3366TIP3    H210105   2.788   5.801   0.862 -0.5111 -0.6233 -0.9740
 3367TIP3   OH210106   3.774   2.811   4.021  0.1633 -0.4966  0.4173
 3367TIP3    H110107   3.762   2.719   3.998  2.5979 -0.6582 -0.5182
 3367TIP3    H210108   3.732   2.821   4.106 -0.6793 -2.3024  0.2428
 3368TIP3   OH210109   5.486   1.563   2.823  0.3566 -0.6641  0.4630
 3368TIP3    H110110   5.452   1.477   2.847 -0.3439  0.0440  2.1403
 3368TIP3    H210111   5.498   1.609   2.906  0.9857  0.7739 -0.3739
 3369TIP3   OH210112   5.981   3.424   0.825 -0.0635 -0.0256  0.2489
 3369TIP3    H110113   5.949   3.441   0.913  1.2060 -2.2083  1.2253
 3369TIP3    H210114   5.912   3.373   0.783 -0.1937  0.0252  0.4046
 3370TIP3   OH210115   1.523   0.768   1.319 -0.2248  0.1514 -0.3950
 3370TIP3    H110116   1.462   0.745   1.389  0.8816 -0.0103  0.5489
 3370TIP3    H210117   1.471   0.762   1.239 -1.3364 -0.3692  0.3408
 3371TIP3   OH210118   3.104   2.972   0.585 -0.3051  0.2457  0.0616
 3371TIP3    H110119   3.118   2.904   0.651 -0.2538 -2.3978 -2.5056
 3371TIP3    H210120   3.187   3.019   0.582 -0.2634  0.3533  1.7336
 3372TIP3   OH210121   3.643   1.432   3.873 -0.1171 -0.2628  0.2746
 3372TIP3    H110122   3.674   1.433   3.963  3.0959  1.6425 -0.6885
 3372TIP3    H210123   3.640   1.340   3.849  2.3496 -0.6850  1.3349
 3373TIP3   OH210124   1.349   4.211   1.747  0.0908 -0.5066  0.4682
 3373TIP3    H110125   1.392   4.262   1.816  1.0830 -1.0405  0.2561
 3373TIP3    H210126   1.258   4.242   1.748  0.8049  1.8272 -0.1572
 3374TIP3   OH210127   5.602   5.227   1.168  0.4541  0.1299 -0.0632
 3374TIP3    H110128   5.521   5.276   1.180 -0.9306 -2.3162  1.5982
 3374TIP3    H210129   5.597   5.194   1.078 -0.4929 -0.1388  0.0774
 3375TIP3   OH210130   2.679   4.699   0.989 -0.7773 -0.0630 -0.5278
 3375TIP3    H110131   2.678   4.780   0.938 -2.5061  0.1632 -0.1944
 3375TIP3    H210132   2.615   4.643   0.946  0.6477 -1.4394 -0.9630
 3376TIP3   OH210133   4.048   5.593   5.180  0.2945  0.2083 -0.5216
 3376TIP3    H110134   4.140   5.575   5.197 -0.5388 -2.2275  2.2767
 3376TIP3    H210135   4.006   5.507   5.182 -2.0627  1.2545 -1.6619
 3377TIP3   OH210136   1.248   5.991   1.791  0.2265  0.0668 -0.4281
 3377TIP3    H110137   1.325   5.975   1.846  0.1936 -2.4308 -0.9791
 3377TIP3    H210138   1.236   5.910   1.742 -1.1672  1.3609 -2.3919
 3378TIP3   OH210139   2.471   1.866   4.891 -0.4135 -0.3507  0.0068
 3378TIP3    H110140   2.559   1.877   4.856 -0.2809 -0.6337  0.2348
 3378TIP3    H210141   2.413   1.876   4.816 -0.3192  1.6747  0.1584
 3379TIP3   OH210142   1.825   0.092   0.858 -0.2267 -0.2277 -0.0380
 3379TIP3    H110143   1.895   0.149   0.828 -0.7843 -0.2203 -1.4066
 3379TIP3    H210144   1.867   0.007   0.873 -0.0201 -0.4249 -1.5550
 3380TIP3   OH210145   2.845   3.228   3.222  0.3632 -0.3277 -0.0966
 3380TIP3    H110146   2.816   3.297   3.282  1.4780  0.6200 -0.6292
 3380TIP3    H210147   2.849   3.149   3.277 -0.4996  0.1072  0.6173
 3381TIP3   OH210148   1.772   0.735   2.889 -0.2257 -0.7110  0.3467
 3381TIP3    H110149   1.687   0.699   2.915 -0.8544 -0.4033 -1.1725
 3381TIP3    H210150   1.754   0.781   2.807  0.9479  1.3553  1.1634
 3382TIP3   OH210151   5.511   2.465   3.978  0.0261 -0.1438  0.0637
 3382TIP3    H110152   5.600   2.434   3.995 -0.2762 -0.9935  0.1541
 3382TIP3    H210153   5.475   2.483   4.065 -0.2286 -0.8012  0.1038
 3383TIP3   OH210154   3.008   2.712   1.453  0.2585 -0.6007  0.2047
 3383TIP3    H110155   2.960   2.653   1.511 -0.0400 -0.9270 -0.3584
 3383TIP3    H210156   3.094   2.721   1.493  0.0688 -0.8518  0.6748
 3384TIP3   OH210157   6.012   3.936   0.522 -0.2605  0.2862 -0.1871
 3384TIP3    H110158   6.095   3.961   0.561  0.1514 -1.7704  0.3799
 3384TIP3    H210159   6.022   3.843   0.502 -2.4814 -0.0771  0.0933
 3385TIP3   OH210160   2.882   2.395   2.331 -0.5580  0.1251 -0.0785
 3385TIP3    H110161   2.926   2.372   2.413 -0.4359  2.0120  0.4191
 3385TIP3    H210162   2.944   2.371   2.262  0.8992  1.8623  0.5663
 3386TIP3   OH210163   1.647   5.647   4.446 -0.2747  0.2395 -0.0423
 3386TIP3    H110164   1.670   5.627   4.355  0.8829  0.5231  0.1747
 3386TIP3    H210165   1.695   5.728   4.465 -0.0080 -0.1597  1.0220
 3387TIP3   OH210166   4.566   2.623   1.198  0.3806  0.0332 -0.1869
 3387TIP3    H110167   4.632   2.693   1.197  0.2823  0.4626  3.9346
 3387TIP3    H210168   4.600   2.559   1.261 -1.0281 -2.0949 -1.4678
 3388TIP3   OH210169   3.471   1.667   1.654 -0.1694  0.3019 -0.5899
 3388TIP3    H110170   3.455   1.688   1.746  0.9440 -1.6729  0.1231
 3388TIP3    H210171   3.536   1.731   1.626  1.3630 -0.5868  0.7798
 3389TIP3   OH210172   2.630   2.689   3.892 -0.1990  0.1208  0.5810
 3389TIP3    H110173   2.589   2.768   3.927  0.4795  0.5220  0.4910
 3389TIP3    H210174   2.573   2.618   3.920  0.0401  0.4758  2.0711
 3390TIP3   OH210175   1.718   5.736   0.484  0.1449  0.4582  0.0199
 3390TIP3    H110176   1.629   5.770   0.481  0.8968  2.4930 -1.0127
 3390TIP3    H210177   1.712   5.650   0.441 -1.3664  0.4099  0.2944
 3391TIP3   OH210178   2.052   5.643   3.133  0.2571 -0.4234 -0.2434
 3391TIP3    H110179   1.991   5.707   3.096  0.3438  0.2670  0.7835
 3391TIP3    H210180   2.138   5.679   3.116  0.3215 -0.4728 -0.0196
 3392TIP3   OH210181   0.355   3.037   1.625  0.0207  0.5848 -0.0685
 3392TIP3    H110182   0.359   3.123   1.665  1.6588  1.2875 -1.6237
 3392TIP3    H210183   0.429   2.989   1.662 -0.3339  0.1534  0.0958
 3393TIP3   OH210184   1.693   4.297   0.877 -0.0410  0.3642  0.0628
 3393TIP3    H110185   1.733   4.281   0.963 -3.1461 -0.0826  1.5528
 3393TIP3    H210186   1.649   4.381   0.887  0.3122  0.7546 -1.4404
 3394TIP3   OH210187   4.968   5.084   3.034 -0.9129  0.2849 -0.3654
 3394TIP3    H110188   4.994   5.035   3.112 -2.0708  1.0869  0.5595
 3394TIP3    H210189   5.005   5.035   2.961 -1.5919 -1.6810  0.5582
 3395TIP3   OH210190   2.804   2.148   4.286 -0.0873 -0.0502  0.4012
 3395TIP3    H110191   2.787   2.104   4.369  0.1481 -1.9903 -0.5294
 3395TIP3    H210192   2.727   2.203   4.271 -0.3653 -0.0856  1.6424
 3396TIP3   OH210193   1.480   3.323   2.619  0.2022  0.3169 -0.4167
 3396TIP3    H110194   1.561   3.371   2.602  0.0215  0.6729 -0.2860
 3396TIP3    H210195   1.434   3.375   2.685  0.2669 -0.3316  0.1582
 3397TIP3   OH210196   2.751   5.481   2.880 -0.0136 -0.9460  0.1123
 3397TIP3    H110197   2.838   5.479   2.840 -0.5092 -1.4892 -0.9664
 3397TIP3    H210198   2.737   5.392   2.913  1.1344 -0.1151  3.2730
 3398TIP3   OH210199   4.418   2.002   3.338 -0.1845 -0.1343 -0.7673
 3398TIP3    H110200   4.435   1.979   3.430  1.1712 -1.0019 -1.1894
 3398TIP3    H210201   4.346   1.944   3.312 -2.2268  1.7681  0.3571
 3399TIP3   OH210202   5.551   3.514   3.625 -1.1171  0.1063 -0.2090
 3399TIP3    H110203   5.548   3.432   3.675 -2.5741  0.8308  0.9838
 3399TIP3    H210204   5.644   3.536   3.622 -0.8939 -0.4409  1.4535
 3400TIP3   OH210205   2.745   4.696   3.438 -0.0369  0.3561 -0.4053
 3400TIP3    H110206   2.727   4.610   3.399 -1.1467  0.5786 -0.4180
 3400TIP3    H210207   2.840   4.702   3.439  0.0364 -0.2902 -1.6964
 3401TIP3   OH210208   6.030   4.626   1.995 -0.4977 -0.1852  0.2011
 3401TIP3    H110209   6.003   4.714   1.970  0.3680  0.8899  2.7636
 3401TIP3    H210210   6.119   4.618   1.963 -0.2378  0.2584  0.7984
 3402TIP3   OH210211   0.659   0.065   0.824 -0.2812  0.4084 -0.3033
 3402TIP3    H110212   0.747   0.028   0.830 -0.7815 -1.0730 -1.3744
 3402TIP3    H210213   0.641   0.101   0.911 -0.2076 -3.0476  1.3207
 3403TIP3   OH210214   2.837   1.600   1.536  0.2434  0.1781 -0.3496
 3403TIP3    H110215   2.914   1.617   1.591  2.2291  1.9104 -3.4002
 3403TIP3    H210216   2.859   1.519   1.490 -0.7399 -0.4426  0.2382
 3404TIP3   OH210217   4.291   4.429   2.748  0.0972 -0.1543  0.5113
 3404TIP3    H110218   4.293   4.352   2.805 -0.4352 -1.0117 -0.5898
 3404TIP3    H210219   4.371   4.423   2.697  0.2463  0.2505  0.6939
 3405TIP3   OH210220   4.373   1.347   1.318  0.5996  0.8243 -0.2052
 3405TIP3    H110221   4.340   1.336   1.407 -1.1169 -0.1620 -0.9184
 3405TIP3    H210222   4.404   1.260   1.293 -0.4661  0.6845 -1.1220
 3406TIP3   OH210223   2.255   1.673   0.380  0.0513  0.5546  0.4229
 3406TIP3    H110224   2.172   1.714   0.404  0.3349  1.6605 -0.3938
 3406TIP3    H210225   2.254   1.672   0.284 -0.5798 -2.7495  0.3414
 3407TIP3   OH210226   5.812   4.679   2.365 -0.0567  0.0799 -0.0502
 3407TIP3    H110227   5.768   4.636   2.292 -1.2692 -0.2230  0.8356
 3407TIP3    H210228   5.847   4.760   2.328 -0.0571 -0.3924 -1.1125
 3408TIP3   OH210229   4.710   4.154   3.033 -0.3525 -0.0011 -0.8746
 3408TIP3    H110230   4.736   4.218   2.966  1.8755  1.6574  1.3932
 3408TIP3    H210231   4.783   4.091   3.035 -0.7850 -0.4990 -0.5411
 3409TIP3   OH210232   0.220   2.205   2.241 -0.0074  0.0765  0.1932
 3409TIP3    H110233   0.174   2.135   2.287  0.9113 -0.2973  0.5684
 3409TIP3    H210234   0.261   2.257   2.310  0.2047  0.3595 -0.1367
 3410TIP3   OH210235   3.388   0.154   2.710 -0.5026  0.0744 -0.2930
 3410TIP3    H110236   3.330   0.104   2.767 -1.2166 -0.3473 -1.3547
 3410TIP3    H210237   3.336   0.230   2.684 -0.5190 -0.1957 -1.0816
 3411TIP3   OH210238   5.542   2.997   4.421 -0.3367 -0.0788 -0.3485
 3411TIP3    H110239   5.623   2.970   4.465  0.3976 -0.3009 -1.8023
 3411TIP3    H210240   5.505   2.915   4.388 -0.4652  0.1760 -0.8311
 3412TIP3   OH210241   3.906   0.062   3.363  0.2100  0.4664 -0.2384
 3412TIP3    H110242   3.830   0.120   3.373  0.9541  1.2888  0.8016
 3412TIP3    H210243   3.867  -0.025   3.355 -0.8469  0.8346  0.5707
 3413TIP3   OH210244   1.408   0.435   1.498 -0.2848  0.1623 -0.3272
 3413TIP3    H110245   1.319   0.413   1.471 -0.3448 -1.2980  0.8999
 3413TIP3    H210246   1.464   0.396   1.431 -0.5403  0.1238 -0.5196
 3414TIP3   OH210247   0.353   3.040   4.996 -0.4353  0.4009 -0.1122
 3414TIP3    H110248   0.301   3.042   5.076 -0.1859 -1.8683  0.1569
 3414TIP3    H210249   0.444   3.030   5.026 -0.3170 -0.2556 -0.6716
 3415TIP3   OH210250   2.633   1.229   0.901  0.4367  0.0692 -0.2034
 3415TIP3    H110251   2.545   1.253   0.871  0.9550  1.0293 -1.0007
 3415TIP3    H210252   2.627   1.135   0.919 -1.0198  0.3095  0.7383
 3416TIP3   OH210253   0.943   0.584   3.412 -0.0802  0.9023 -0.6696
 3416TIP3    H110254   1.000   0.646   3.368  0.8191 -0.6649 -1.8247
 3416TIP3    H210255   1.002   0.530   3.465 -0.7644  0.6634 -0.1313
 3417TIP3   OH210256   4.745   4.800   4.091  0.3257  0.4328 -0.0613
 3417TIP3    H110257   4.765   4.707   4.101 -0.2481  0.2305 -0.7180
 3417TIP3    H210258   4.711   4.827   4.176 -0.6557 -0.2578 -0.2148
 3418TIP3   OH210259   6.382   1.086   2.882  0.5499  0.8707  0.6211
 3418TIP3    H110260   6.308   1.025   2.885  0.9446  0.3510  0.0252
 3418TIP3    H210261   6.342   1.172   2.897 -0.6178  0.9797 -2.4747
 3419TIP3   OH210262   4.883   1.936   0.881  0.4821 -0.1652  0.3822
 3419TIP3    H110263   4.891   1.841   0.873  0.6903 -0.0240 -1.3098
 3419TIP3    H210264   4.811   1.959   0.823  0.2450  0.6919  1.0022
 3420TIP3   OH210265   5.500   1.887   0.543 -0.1635 -0.0273  0.3154
 3420TIP3    H110266   5.445   1.840   0.605  1.5140 -0.4524  1.5576
 3420TIP3    H210267   5.488   1.980   0.565 -0.7830 -0.0862  0.2238
 3421TIP3   OH210268   4.767   5.930   1.637 -0.4727  0.5002 -0.6775
 3421TIP3    H110269   4.835   5.914   1.572 -1.2224 -2.4047 -0.8753
 3421TIP3    H210270   4.814   5.967   1.712  1.9696 -3.7851  0.2131
 3422TIP3   OH210271   5.633   0.596   1.778  0.2539  0.1001  0.1280
 3422TIP3    H110272   5.640   0.511   1.733 -0.8228 -0.1687  0.4222
 3422TIP3    H210273   5.712   0.602   1.831  0.2445 -0.8425  0.2763
 3423TIP3   OH210274   4.746   5.755   4.688 -0.4731 -0.3668  0.1733
 3423TIP3    H110275   4.712   5.819   4.626  1.0239 -2.4870 -3.1202
 3423TIP3    H210276   4.672   5.698   4.706 -0.8280  0.0418  0.0443
 3424TIP3   OH210277   2.853   2.808   3.073  0.2721 -0.5349  0.2499
 3424TIP3    H110278   2.867   2.889   3.023  0.3995  0.3794  1.6967
 3424TIP3    H210279   2.785   2.761   3.025  1.9991 -0.8436 -2.0684
 3425TIP3   OH210280   2.974   5.479   2.511 -0.0120 -0.4634  0.2853
 3425TIP3    H110281   2.909   5.490   2.441  0.0327 -1.1553  0.1246
 3425TIP3    H210282   2.934   5.416   2.571  0.5224 -0.9389  0.1558
 3426TIP3   OH210283   1.191   0.983   0.819 -0.0610  0.6872  0.0445
 3426TIP3    H110284   1.133   0.919   0.859 -0.4501  1.1082  0.1641
 3426TIP3    H210285   1.164   1.067   0.856  0.1757  0.9728 -0.4104
 3427TIP3   OH210286   2.508   1.211   2.055 -0.1896 -0.1796  0.1095
 3427TIP3    H110287   2.462   1.288   2.088 -0.5279 -0.1120 -0.5161
 3427TIP3    H210288   2.445   1.140   2.063  0.2440 -0.4792  1.0300
 3428TIP3   OH210289   4.781   2.961   4.231 -0.2147 -0.0540  0.2637
 3428TIP3    H110290   4.739   2.929   4.151  0.3720 -2.3089  0.7905
 3428TIP3    H210291   4.727   2.926   4.302  0.3860  0.2391  0.8702
 3429TIP3   OH210292   0.444   4.402   4.398  0.3205  0.1024 -0.0010
 3429TIP3    H110293   0.452   4.308   4.414  0.6844  0.0618 -0.3996
 3429TIP3    H210294   0.361   4.412   4.351  0.0849  0.0311  0.3936
 3430TIP3   OH210295   5.746   3.445   4.920 -0.1324 -0.0190 -0.0867
 3430TIP3    H110296   5.728   3.516   4.859  0.8400 -1.0754 -1.6900
 3430TIP3    H210297   5.675   3.382   4.905 -0.2512  0.0058  0.3541
 3431TIP3   OH210298   5.007   3.619   2.028 -0.6908 -0.0175  0.2838
 3431TIP3    H110299   5.041   3.532   2.008  2.0937  0.4556  2.2680
 3431TIP3    H210300   4.931   3.604   2.084 -0.8342 -1.1660 -0.2041
 3432TIP3   OH210301   4.685   3.341   0.836 -0.3270 -0.1298 -0.0584
 3432TIP3    H110302   4.765   3.351   0.887 -0.4500 -0.3743  0.1828
 3432TIP3    H210303   4.633   3.276   0.884 -0.7535  0.1682 -0.1142
 3433TIP3   OH210304   4.426   3.111   0.460 -0.2226  0.0408  0.0927
 3433TIP3    H110305   4.447   3.040   0.399 -0.3863  0.0011  0.0830
 3433TIP3    H210306   4.509   3.158   0.471  0.3584 -1.2427  1.5547
 3434TIP3   OH210307   0.265   0.066   4.705  0.3126 -0.2283 -0.7096
 3434TIP3    H110308   0.347   0.068   4.753  0.2699 -2.1863 -0.4621
 3434TIP3    H210309   0.202   0.030   4.767 -1.2326  2.8903 -0.2858
 3435TIP3   OH210310   3.942   5.871   3.055 -0.6201 -0.2699  0.0283
 3435TIP3    H110311   3.859   5.858   3.099  0.8342 -1.0980  2.7488
 3435TIP3    H210312   3.932   5.956   3.011 -2.9487 -0.4706  0.0493
 3436TIP3   OH210313   1.091   2.419   1.142  0.4519  0.1930  0.0435
 3436TIP3    H110314   1.071   2.374   1.060 -0.1333 -1.1454  0.8957
 3436TIP3    H210315   1.171   2.376   1.174 -0.1984 -0.3736  0.9451
 3437TIP3   OH210316   1.555   0.274   5.036 -0.5887 -0.5740  0.3325
 3437TIP3    H110317   1.544   0.184   5.006 -1.8416 -0.2951 -0.0669
 3437TIP3    H210318   1.597   0.265   5.122  0.2657 -1.4821 -0.1638
 3438TIP3   OH210319   0.088   4.246   1.086  0.2544  0.1119  0.3240
 3438TIP3    H110320   0.177   4.212   1.097 -0.0386 -0.4005  1.1285
 3438TIP3    H210321   0.101   4.333   1.047  1.0452 -0.5145 -0.8881
 3439TIP3   OH210322   0.434   5.610   2.629 -0.1404  0.1145 -0.3182
 3439TIP3    H110323   0.382   5.534   2.654 -1.7267  1.4437  0.6099
 3439TIP3    H210324   0.505   5.613   2.693 -0.1143 -0.5215 -0.3128
 3440TIP3   OH210325   2.905   1.557   1.967 -0.3224  0.5622  0.3303
 3440TIP3    H110326   2.820   1.551   1.923  0.2333 -0.1175 -0.7108
 3440TIP3    H210327   2.919   1.651   1.980 -0.1678  0.8666 -1.7049
 3441TIP3   OH210328   3.478   1.566   4.165  0.0721 -0.4635 -0.4897
 3441TIP3    H110329   3.415   1.609   4.223  1.1787  1.6258 -0.7248
 3441TIP3    H210330   3.556   1.554   4.219  0.7089  0.4027 -1.1911
 3442TIP3   OH210331   6.118   2.477   1.830 -0.1296 -0.2207 -0.2840
 3442TIP3    H110332   6.143   2.564   1.861  0.3876  0.7363 -3.0727
 3442TIP3    H210333   6.200   2.428   1.828 -0.1762 -0.3070 -0.0413
 3443TIP3   OH210334   4.052   1.511   4.140  0.0088  0.4932 -0.1793
 3443TIP3    H110335   4.109   1.472   4.207  0.6179  2.6568  0.6807
 3443TIP3    H210336   4.097   1.494   4.057 -1.1130 -2.8597 -0.2608
 3444TIP3   OH210337   6.052   5.867   4.185  0.1554 -0.2560  0.2691
 3444TIP3    H110338   6.079   5.846   4.096  1.1301 -1.3454  0.8006
 3444TIP3    H210339   6.133   5.869   4.235 -0.4676 -0.7710  1.3396
 3445TIP3   OH210340   4.449   5.184   2.881  0.2222  0.1513  0.4441
 3445TIP3    H110341   4.535   5.166   2.844  0.3165 -1.0005  1.1827
 3445TIP3    H210342   4.395   5.110   2.854 -0.3473  0.4919  0.6182
 3446TIP3   OH210343   4.180   5.684   2.416  0.5532 -0.2578 -0.1938
 3446TIP3    H110344   4.133   5.684   2.499  0.4873 -0.0901 -0.2295
 3446TIP3    H210345   4.258   5.737   2.432  0.0676  0.5742 -0.4947
 3447TIP3   OH210346   1.890   1.972   3.967 -0.5709  0.4269  0.4091
 3447TIP3    H110347   1.897   1.877   3.956 -3.1089  0.1626  0.4872
 3447TIP3    H210348   1.939   1.990   4.047  1.1400 -0.5735 -0.3496
 3448TIP3   OH210349   5.111   3.310   4.352 -0.3924  0.2366 -0.2723
 3448TIP3    H110350   5.042   3.374   4.368 -1.2302 -0.7057 -0.0307
 3448TIP3    H210351   5.176   3.358   4.301 -2.1592  0.6415 -2.3095
 3449TIP3   OH210352   5.512   3.424   4.340 -0.1746 -0.0662  0.2466
 3449TIP3    H110353   5.589   3.405   4.393  0.6375 -0.5799 -1.0543
 3449TIP3    H210354   5.459   3.344   4.343  0.2629 -0.3877 -0.3298
 3450TIP3   OH210355   4.240   1.117   3.814 -0.0713 -0.1429 -0.2447
 3450TIP3    H110356   4.195   1.142   3.733 -0.8948 -2.2187 -0.4956
 3450TIP3    H210357   4.330   1.103   3.788 -0.5537 -1.9037 -1.1000
 3451TIP3   OH210358   5.931   5.911   2.357 -0.0956 -0.0230  1.0998
 3451TIP3    H110359   6.024   5.888   2.349 -0.0126  0.6403 -0.0299
 3451TIP3    H210360   5.910   5.956   2.275 -0.9052  1.5997  2.1392
 3452TIP3   OH210361   2.390   1.335   3.764  0.1576  0.7112  0.2659
 3452TIP3    H110362   2.462   1.319   3.825 -0.4873  0.3214  0.9436
 3452TIP3    H210363   2.400   1.427   3.738  1.6327  0.3186 -0.6519
 3453TIP3   OH210364   1.036   5.868   0.224  0.0319 -0.6499  0.1619
 3453TIP3    H110365   1.011   5.792   0.277  0.3149  0.4559  1.9632
 3453TIP3    H210366   0.967   5.932   0.240  1.2870  0.5385  1.0671
 3454TIP3   OH210367   3.513   3.459   3.005  0.1853  0.6399 -0.6005
 3454TIP3    H110368   3.488   3.545   2.973 -0.5978  0.0152 -1.7411
 3454TIP3    H210369   3.504   3.465   3.100  0.2067  1.8199 -0.6599
 3455TIP3   OH210370   6.233   1.464   1.402 -0.4252 -0.4682 -0.4424
 3455TIP3    H110371   6.282   1.508   1.472 -0.1530 -0.6111 -0.5417
 3455TIP3    H210372   6.144   1.498   1.409 -0.4833 -0.7405  0.1976
 3456TIP3   OH210373   3.785   0.521   1.354  0.1645  0.3695  0.3602
 3456TIP3    H110374   3.850   0.457   1.325  0.6247  0.4943  1.0960
 3456TIP3    H210375   3.702   0.490   1.316 -0.0414 -1.9325  2.4818
 3457TIP3   OH210376   1.066   0.059   3.668 -0.4571  0.2384 -0.0683
 3457TIP3    H110377   1.154   0.026   3.685 -1.0771 -1.0716  0.7351
 3457TIP3    H210378   1.021   0.054   3.752 -0.9757  2.0087 -0.1947
 3458TIP3   OH210379   3.843   4.307   0.615 -0.5245  0.5810 -0.0479
 3458TIP3    H110380   3.834   4.353   0.532  0.0855  0.7451 -0.0288
 3458TIP3    H210381   3.894   4.366   0.670  1.3016 -0.5579 -0.4017
 3459TIP3   OH210382   1.480   4.396   0.194 -0.2793 -0.1864  0.4989
 3459TIP3    H110383   1.460   4.321   0.249  0.8234  0.4023  1.7446
 3459TIP3    H210384   1.429   4.468   0.232 -0.6587 -0.0848 -0.1681
 3460TIP3   OH210385   5.769   2.226   2.806 -0.1410  0.1803 -0.5472
 3460TIP3    H110386   5.688   2.230   2.756  0.0309 -0.1385 -0.8574
 3460TIP3    H210387   5.759   2.292   2.874 -0.3222  0.7157 -1.0868
 3461TIP3   OH210388   3.178   0.239   3.483 -0.4453 -0.4790 -0.0175
 3461TIP3    H110389   3.102   0.228   3.425  0.8877 -1.7699 -1.6435
 3461TIP3    H210390   3.191   0.334   3.488 -1.7110 -0.2704 -0.3016
 3462TIP3   OH210391   2.113   3.814   4.633 -0.3794 -0.1335 -0.3530
 3462TIP3    H110392   2.207   3.824   4.618  0.4997 -2.0997  2.8204
 3462TIP3    H210393   2.072   3.875   4.571  3.0355  2.2632 -0.5301
 3463TIP3   OH210394   5.407   1.536   2.001 -0.1654  0.1080 -0.5608
 3463TIP3    H110395   5.468   1.470   2.033 -1.0615 -0.0845  0.8349
 3463TIP3    H210396   5.455   1.582   1.932  1.7032  0.2679  0.7828
 3464TIP3   OH210397   0.854   0.316   4.925 -0.5896  0.2637  0.2325
 3464TIP3    H110398   0.927   0.299   4.866 -1.8852  1.7592 -1.9056
 3464TIP3    H210399   0.788   0.251   4.902 -0.9206  0.5412  0.3866
 3465TIP3   OH210400   1.324   4.411   2.147 -0.0584  0.2545  0.7513
 3465TIP3    H110401   1.329   4.320   2.177  0.9972  0.0949  0.1294
 3465TIP3    H210402   1.312   4.461   2.228 -0.1475 -0.3951  1.1530
 3466TIP3   OH210403   2.467   4.763   3.865  0.0406  0.4993  0.0295
 3466TIP3    H110404   2.487   4.828   3.933 -0.2166 -0.7011  1.3075
 3466TIP3    H210405   2.384   4.724   3.894  0.5547 -0.8969 -0.2974
 3467TIP3   OH210406   5.038   0.826   0.650  0.0791  0.7881  0.1208
 3467TIP3    H110407   4.995   0.856   0.570 -1.3241  1.5218  1.1123
 3467TIP3    H210408   5.062   0.736   0.632  0.2132  1.0806 -1.2880
 3468TIP3   OH210409   5.117   0.711   0.260 -0.0923 -0.1074 -0.1781
 3468TIP3    H110410   5.094   0.618   0.256 -0.4905 -0.0382  0.3356
 3468TIP3    H210411   5.144   0.725   0.350  1.8389 -0.1381 -0.7221
 3469TIP3   OH210412   3.926   3.254   2.016 -0.7682  0.3275  1.2957
 3469TIP3    H110413   3.915   3.234   2.109 -2.2979 -1.7558  0.7428
 3469TIP3    H210414   3.849   3.306   1.993 -1.0149 -0.1792  0.9539
 3470TIP3   OH210415   3.941   5.416   0.807  0.0803  0.5658  0.3898
 3470TIP3    H110416   3.934   5.512   0.807 -0.4264  0.5687 -1.2471
 3470TIP3    H210417   4.035   5.399   0.814  0.2354  1.2039 -0.0275
 3471TIP3   OH210418   2.539   2.395   0.537 -0.0062  0.4999 -0.3495
 3471TIP3    H110419   2.479   2.321   0.545  1.2372 -0.5709 -0.6790
 3471TIP3    H210420   2.503   2.461   0.596 -1.9198  0.1837 -1.0947
 3472TIP3   OH210421   5.541   4.428   3.962 -0.6750  0.3153 -0.1842
 3472TIP3    H110422   5.582   4.509   3.992  0.9753 -0.8282  0.7928
 3472TIP3    H210423   5.613   4.366   3.953 -1.9250 -1.1421 -0.6094
 3473TIP3   OH210424   1.217   2.237   4.569 -0.6022 -0.7085  0.2784
 3473TIP3    H110425   1.189   2.175   4.502 -0.0851  0.7756 -1.3709
 3473TIP3    H210426   1.281   2.293   4.526 -0.6743  0.6650  1.8402
 3474TIP3   OH210427   1.309   4.783   1.203 -0.5109 -0.0835  0.4342
 3474TIP3    H110428   1.387   4.834   1.182 -0.2662 -0.8419 -0.5572
 3474TIP3    H210429   1.329   4.695   1.171 -1.7814 -0.2845  0.1500
 3475TIP3   OH210430   3.577   3.062   5.173  0.2362  0.1913  0.0000
 3475TIP3    H110431   3.595   3.050   5.080 -1.6757  1.0467 -0.5444
 3475TIP3    H210432   3.622   3.143   5.196 -1.5370  1.5362 -0.9660
 3476TIP3   OH210433   1.099   4.642   3.070  0.0770  0.0045 -0.4863
 3476TIP3    H110434   1.189   4.619   3.044  0.0929 -0.5290  0.0331
 3476TIP3    H210435   1.066   4.564   3.114 -0.4039  0.4462 -0.0531
 3477TIP3   OH210436   5.098   2.952   2.763  0.7707 -0.5779 -0.5989
 3477TIP3    H110437   5.006   2.929   2.759  0.2305  1.3967 -0.6243
 3477TIP3    H210438   5.125   2.960   2.672 -0.0302  2.2580 -0.6822
 3478TIP3   OH210439   6.281   4.135   3.243 -0.0972 -0.4237 -0.4021
 3478TIP3    H110440   6.288   4.226   3.271 -1.2150 -0.3447 -0.3448
 3478TIP3    H210441   6.312   4.085   3.319  1.0857 -0.0948 -0.6435
 3479TIP3   OH210442   6.315   3.481   2.344 -0.6644  0.1847  0.3614
 3479TIP3    H110443   6.285   3.570   2.325  1.8010  1.0809  0.3509
 3479TIP3    H210444   6.386   3.465   2.282 -2.0441 -2.4392 -0.6907
 3480TIP3   OH210445   0.916   3.694   3.160 -0.3061 -0.2567 -0.3715
 3480TIP3    H110446   0.900   3.701   3.254  0.3457 -0.7173 -0.2208
 3480TIP3    H210447   0.981   3.763   3.142  0.2223 -0.7333 -0.3184
 3481TIP3   OH210448   3.559   0.649   0.435  0.1153 -0.0587 -0.1047
 3481TIP3    H110449   3.554   0.565   0.480  0.4638  0.3891  0.7952
 3481TIP3    H210450   3.539   0.714   0.503 -0.0652  0.5919 -0.7636
 3482TIP3   OH210451   1.279   5.726   1.666  0.4029 -0.0401 -0.1301
 3482TIP3    H110452   1.200   5.764   1.627  0.5902 -0.7185 -1.2262
 3482TIP3    H210453   1.265   5.631   1.659  1.4483 -0.1692 -0.6627
 3483TIP3   OH210454   1.754   0.300   1.197  0.3693 -0.4905  0.2085
 3483TIP3    H110455   1.712   0.350   1.267  0.7396  2.3728 -1.4715
 3483TIP3    H210456   1.846   0.296   1.223  0.1075 -1.6037  1.0315
 3484TIP3   OH210457   0.664   4.392   0.809 -0.8979  0.2276  0.1654
 3484TIP3    H110458   0.627   4.362   0.892 -0.0904 -0.0675  0.4287
 3484TIP3    H210459   0.730   4.326   0.786  0.2568  1.3024  0.2764
 3485TIP3   OH210460   1.649   5.589   3.699  0.0749 -0.2819 -0.1128
 3485TIP3    H110461   1.575   5.649   3.694 -0.1703 -0.6227 -0.5584
 3485TIP3    H210462   1.660   5.572   3.793 -0.5973 -0.4660 -0.0668
 3486TIP3   OH210463   2.469   3.808   0.394  0.1745 -0.0890  0.6571
 3486TIP3    H110464   2.388   3.814   0.343  0.3231 -2.0649  0.0987
 3486TIP3    H210465   2.453   3.863   0.470 -1.1272  0.7218 -0.1622
 3487TIP3   OH210466   5.230   0.854   3.431  0.3213  0.0099  0.0442
 3487TIP3    H110467   5.284   0.777   3.411 -1.4046 -1.2209 -0.0998
 3487TIP3    H210468   5.200   0.840   3.520 -1.1353 -0.2314 -0.4500
 3488TIP3   OH210469   3.616   1.643   4.982 -0.1560  0.4774 -0.3118
 3488TIP3    H110470   3.610   1.577   4.913  1.3754 -0.2424  0.1854
 3488TIP3    H210471   3.668   1.713   4.944  0.5637  0.1467  0.0449
 3489TIP3   OH210472   0.306   1.033   2.834 -0.0462  0.9618  0.1447
 3489TIP3    H110473   0.322   1.110   2.780  0.0485  0.3167 -0.7855
 3489TIP3    H210474   0.235   1.058   2.893 -0.6514  1.4619 -0.7798
 3490TIP3   OH210475   0.604   0.628  -0.006 -0.4019  0.8624  0.1268
 3490TIP3    H110476   0.579   0.710   0.035 -0.5391  0.6418  0.4951
 3490TIP3    H210477   0.693   0.612   0.025 -0.6409  0.5078  0.6503
 3491TIP3   OH210478   0.986   5.663   1.883  0.0345 -0.4064 -0.1913
 3491TIP3    H110479   1.025   5.721   1.949  0.8668  0.5839 -1.4937
 3491TIP3    H210480   1.020   5.576   1.905  0.7008 -0.0113  0.3947
 3492TIP3   OH210481   4.906   0.419   2.220  0.6522 -0.0652  0.0558
 3492TIP3    H110482   4.874   0.502   2.255 -1.6088 -0.4619 -0.8559
 3492TIP3    H210483   4.865   0.353   2.275  1.7356 -0.6091  0.2344
 3493TIP3   OH210484   1.738   3.806   1.360  0.4375 -0.2314 -0.2219
 3493TIP3    H110485   1.734   3.867   1.433  0.3737 -0.5031  0.0043
 3493TIP3    H210486   1.831   3.804   1.336  0.2162  1.2390 -1.3403
 3494TIP3   OH210487   3.391   3.858   3.684 -0.4931  0.0760 -0.7288
 3494TIP3    H110488   3.369   3.926   3.748  0.6448 -0.8358  0.6778
 3494TIP3    H210489   3.485   3.869   3.667 -0.6513 -0.0714 -1.8159
 3495TIP3   OH210490   6.303   3.409   1.862  0.1392 -0.4334  0.0917
 3495TIP3    H110491   6.289   3.335   1.920  0.8887  0.3370  1.3011
 3495TIP3    H210492   6.219   3.421   1.818 -0.6489 -0.6923  1.4526
 3496TIP3   OH210493   3.202   1.805   2.583  0.1921 -0.0779  0.0628
 3496TIP3    H110494   3.114   1.819   2.617  0.3156  1.3582 -0.1698
 3496TIP3    H210495   3.189   1.790   2.489  0.0553 -1.7784  0.3172
 3497TIP3   OH210496   3.100   0.600   0.523  0.0554 -0.0205  0.0705
 3497TIP3    H110497   3.074   0.675   0.470 -2.4744 -0.2481  0.8824
 3497TIP3    H210498   3.018   0.564   0.557  1.1860 -2.9962 -0.0311
 3498TIP3   OH210499   0.400   0.866   0.741  0.1599 -0.3613  0.0631
 3498TIP3    H110500   0.315   0.868   0.697 -0.3028 -0.6127  0.9334
 3498TIP3    H210501   0.444   0.789   0.703 -0.3591 -0.7627  0.2674
 3499TIP3   OH210502   2.483   2.867   5.187  0.0133 -0.2203  0.1908
 3499TIP3    H110503   2.447   2.778   5.184 -1.0444  0.2171 -1.7444
 3499TIP3    H210504   2.414   2.922   5.149  0.4022  1.5519  1.8782
 3500TIP3   OH210505   2.907   3.655   4.450 -0.1957  0.7841 -0.2640
 3500TIP3    H110506   2.869   3.624   4.368 -0.6603  1.0248 -0.1451
 3500TIP3    H210507   2.838   3.643   4.515  0.6430 -0.7290  0.4025
 3501TIP3   OH210508   3.103   4.820   2.281  0.0402 -0.0006  0.3211
 3501TIP3    H110509   3.019   4.806   2.239  0.0531  1.9273 -0.4524
 3501TIP3    H210510   3.167   4.783   2.220 -0.1252  0.1267  0.0711
 3502TIP3   OH210511   0.578   2.920   3.594  0.7849 -0.2009  0.1330
 3502TIP3    H110512   0.580   2.939   3.500 -3.1596 -0.2361 -0.1048
 3502TIP3    H210513   0.603   3.002   3.636  1.1540  0.2393 -0.9213
 3503TIP3   OH210514   3.685   2.881   0.899 -0.7977 -0.6810 -0.3555
 3503TIP3    H110515   3.733   2.811   0.854  1.8876 -0.5900  2.1223
 3503TIP3    H210516   3.696   2.861   0.992 -1.7207  1.9438  0.3871
 3504TIP3   OH210517   0.218   2.218   3.931 -0.5027  0.0985  0.1051
 3504TIP3    H110518   0.145   2.210   3.992 -1.0743 -2.0305 -0.7799
 3504TIP3    H210519   0.195   2.293   3.876 -0.8817  0.8632  1.2741
 3505TIP3   OH210520   3.396   5.734   4.749 -0.2072  0.1462 -0.8323
 3505TIP3    H110521   3.483   5.766   4.725 -0.5898  0.3335 -2.0180
 3505TIP3    H210522   3.363   5.799   4.811  0.8016 -0.3583  0.2815
 3506TIP3   OH210523   2.262   0.711   5.087  0.1440 -0.3525 -0.1549
 3506TIP3    H110524   2.333   0.678   5.032  0.4265 -0.2448  0.1462
 3506TIP3    H210525   2.218   0.777   5.032  0.7652  0.1547 -0.0561
 3507TIP3   OH210526   0.629   1.067   3.988  0.1744 -0.9031 -0.2704
 3507TIP3    H110527   0.635   1.108   3.902 -0.5421 -1.1866 -0.4616
 3507TIP3    H210528   0.694   1.113   4.041  0.5210 -0.6325 -0.9227
 3508TIP3   OH210529   1.829   4.150   3.394  0.2709  0.1023  0.1788
 3508TIP3    H110530   1.759   4.156   3.459 -0.5773  0.2984 -0.7193
 3508TIP3    H210531   1.841   4.240   3.364 -1.2385 -0.3170 -1.8420
 3509TIP3   OH210532   1.541   5.416   1.034 -0.1357  0.1289 -0.1166
 3509TIP3    H110533   1.546   5.321   1.039  0.5029 -0.1566 -3.8383
 3509TIP3    H210534   1.631   5.445   1.022 -0.4457  1.0805 -0.2932
 3510TIP3   OH210535   4.408   4.111   3.608 -0.0390  0.8749 -0.2895
 3510TIP3    H110536   4.503   4.100   3.601 -0.2236 -0.3557 -1.3101
 3510TIP3    H210537   4.372   4.052   3.541 -1.5699  0.3212  0.9558
 3511TIP3   OH210538   0.720   1.810   3.859 -0.2740  0.1545  0.6363
 3511TIP3    H110539   0.671   1.813   3.777 -0.6777 -1.6328  0.7684
 3511TIP3    H210540   0.770   1.892   3.860 -0.2067  0.1964 -1.4166
 3512TIP3   OH210541   4.051   1.900   0.453  0.1515  0.3840 -0.2346
 3512TIP3    H110542   4.125   1.843   0.473  1.6063  1.9960 -0.7578
 3512TIP3    H210543   4.029   1.880   0.363 -1.0429 -1.1081  0.3464
 3513TIP3   OH210544   1.477   4.801   1.881 -0.2685  0.0817  0.1599
 3513TIP3    H110545   1.476   4.826   1.974  1.1049  0.2057  0.1659
 3513TIP3    H210546   1.495   4.883   1.834  0.9134 -0.2704 -0.0566
 3514TIP3   OH210547   2.588   2.639   2.124  0.0230 -0.2929 -0.3011
 3514TIP3    H110548   2.513   2.689   2.156 -0.2225 -0.4307 -0.6491
 3514TIP3    H210549   2.617   2.588   2.200 -0.7496 -0.8538 -0.3627
 3515TIP3   OH210550   2.466   2.452   4.607 -0.4007 -0.7822 -0.2108
 3515TIP3    H110551   2.495   2.362   4.621 -0.8283 -1.1477 -1.5887
 3515TIP3    H210552   2.408   2.470   4.681  1.9145 -0.5948  1.7126
 3516TIP3   OH210553   2.213   3.361   0.817  0.0781 -0.2949  0.2156
 3516TIP3    H110554   2.302   3.331   0.837  0.5982  0.9872 -0.0495
 3516TIP3    H210555   2.210   3.449   0.853 -1.6060 -0.8496  1.5360
 3517TIP3   OH210556   1.535   2.932   0.934  0.0584 -0.0214 -0.0289
 3517TIP3    H110557   1.561   2.882   1.011 -1.3080  1.8877  1.7704
 3517TIP3    H210558   1.441   2.916   0.925  0.4150 -1.3064 -2.2052
 3518TIP3   OH210559   5.170   5.692   1.121 -0.5380 -0.1975 -0.5897
 3518TIP3    H110560   5.203   5.608   1.088  1.1443  0.0331  0.4483
 3518TIP3    H210561   5.101   5.668   1.183 -0.5497 -0.7667 -0.8167
 3519TIP3   OH210562   1.744   3.569   3.475 -0.5439  0.3062  0.0986
 3519TIP3    H110563   1.765   3.508   3.545 -0.4511  0.4272  0.1765
 3519TIP3    H210564   1.778   3.527   3.396 -3.2947 -1.3046 -0.3780
 3520TIP3   OH210565   0.384   5.068   2.799 -0.0093 -0.6188  0.2665
 3520TIP3    H110566   0.381   5.067   2.704  3.3404  0.1368  0.0371
 3520TIP3    H210567   0.438   4.993   2.823  1.5364  0.7606  1.3367
 3521TIP3   OH210568   3.248   1.444   0.645 -0.0178  0.6865  0.0897
 3521TIP3    H110569   3.309   1.484   0.583 -1.2147  1.4545 -0.6353
 3521TIP3    H210570   3.207   1.373   0.595 -0.3156  0.7074  0.3038
 3522TIP3   OH210571   4.508   1.139   3.729 -0.0423 -0.2218  0.2796
 3522TIP3    H110572   4.518   1.198   3.655 -1.3311 -0.4064 -0.0741
 3522TIP3    H210573   4.529   1.053   3.695 -2.3600 -0.5905 -0.4270
 3523TIP3   OH210574   1.996   3.733   4.340 -0.5264  0.3264  0.4473
 3523TIP3    H110575   1.986   3.761   4.249 -3.1758 -2.2459 -0.2134
 3523TIP3    H210576   1.928   3.780   4.387  1.3524  2.2883  1.4317
 3524TIP3   OH210577   1.155   3.214   3.493  0.0043  0.0743 -0.3051
 3524TIP3    H110578   1.128   3.130   3.457 -1.0688  0.2129  0.1563
 3524TIP3    H210579   1.190   3.262   3.417  0.6471 -0.7721 -0.5658
 3525TIP3   OH210580   5.194   2.563   4.820  0.0360 -0.0731  0.8249
 3525TIP3    H110581   5.117   2.585   4.872 -0.1644  0.1525  0.4327
 3525TIP3    H210582   5.166   2.572   4.729  0.5050 -0.0572  0.6781
 3526TIP3   OH210583   1.831   0.883   4.166 -0.1761 -0.0478  0.0230
 3526TIP3    H110584   1.804   0.799   4.204  0.7383 -0.4249 -0.1282
 3526TIP3    H210585   1.840   0.942   4.241  0.5463 -0.4873  0.2963
 3527TIP3   OH210586   1.991   2.344   1.382 -0.1446  0.0941 -0.3881
 3527TIP3    H110587   2.080   2.359   1.414 -0.0040 -1.8884  0.3591
 3527TIP3    H210588   1.992   2.373   1.291  0.6854  1.9180  0.1664
 3528TIP3   OH210589   0.200   5.263   1.996  0.4465 -0.3224 -0.1537
 3528TIP3    H110590   0.170   5.319   2.068  0.1847 -0.8936  0.1907
 3528TIP3    H210591   0.122   5.249   1.942  0.5353 -0.2760 -0.2962
 3529TIP3   OH210592   0.766   4.356   2.525 -0.2738 -0.6724  0.0433
 3529TIP3    H110593   0.854   4.381   2.552 -0.5833  0.8185 -0.2410
 3529TIP3    H210594   0.761   4.383   2.433 -2.1038  2.5231  0.9152
 3530TIP3   OH210595   3.543   0.329   0.962 -0.0968  0.0735  0.0178
 3530TIP3    H110596   3.473   0.386   0.994  1.1743  1.8158 -0.2075
 3530TIP3    H210597   3.503   0.241   0.961 -1.4155  0.5514  2.5259
 3531TIP3   OH210598   1.295   3.479   4.257 -0.2769 -0.3443 -0.0478
 3531TIP3    H110599   1.241   3.475   4.179 -0.1183 -0.0610 -0.1712
 3531TIP3    H210600   1.375   3.523   4.229  0.2419 -1.2199 -0.0020
 3532TIP3   OH210601   6.102   2.998   0.853 -0.1444 -0.2982 -0.2925
 3532TIP3    H110602   6.190   3.035   0.856 -0.2732  0.0374 -0.5465
 3532TIP3    H210603   6.068   3.008   0.942  0.2026 -0.7460 -0.1091
 3533TIP3   OH210604   1.431   2.200   2.295  0.8390 -0.5162  0.3610
 3533TIP3    H110605   1.485   2.134   2.339  1.6500  0.3411  0.6879
 3533TIP3    H210606   1.464   2.284   2.328 -0.1153  0.0616 -0.1076
 3534TIP3   OH210607   5.374   5.234   4.226 -0.0049  0.5153 -0.2617
 3534TIP3    H110608   5.303   5.262   4.284 -0.0543 -0.3159  0.1035
 3534TIP3    H210609   5.363   5.286   4.147 -0.4640  1.0525  0.1446
 3535TIP3   OH210610   1.708   2.150   0.973 -0.4803 -0.0100  0.2642
 3535TIP3    H110611   1.629   2.138   0.919  1.5282 -4.3038 -2.2567
 3535TIP3    H210612   1.675   2.168   1.061 -4.1393  0.7008 -1.0744
 3536TIP3   OH210613   2.996   2.405   0.165  0.1570 -0.3542 -0.1207
 3536TIP3    H110614   2.901   2.406   0.153  0.3783 -1.2001 -2.3652
 3536TIP3    H210615   3.013   2.321   0.208 -0.0577 -0.4725 -0.2608
 3537TIP3   OH210616   4.686   4.680   3.809 -0.3158 -0.1947 -0.4851
 3537TIP3    H110617   4.736   4.741   3.864 -0.7392 -0.0143 -0.3020
 3537TIP3    H210618   4.601   4.674   3.851 -0.4534 -0.4949 -0.8093
 3538TIP3   OH210619   1.741   5.530   1.946 -0.0138 -0.0289  0.6970
 3538TIP3    H110620   1.683   5.527   1.870 -0.3428 -1.8989  0.9623
 3538TIP3    H210621   1.719   5.611   1.990  0.3054  1.2081 -1.2704
 3539TIP3   OH210622   1.700   5.182   4.607 -0.2637 -0.1197  0.1467
 3539TIP3    H110623   1.668   5.104   4.653 -1.5567  0.6703  0.6508
 3539TIP3    H210624   1.694   5.252   4.672 -0.8992  0.7697 -0.8402
 3540TIP3   OH210625   3.435   5.597   5.002 -0.2164  0.6853  0.1532
 3540TIP3    H110626   3.387   5.678   5.016  1.6865  2.5283 -2.8415
 3540TIP3    H210627   3.437   5.587   4.907  0.9361 -2.0870  0.3755
 3541TIP3   OH210628   0.352   0.156   3.047  0.1246  0.2366  0.1176
 3541TIP3    H110629   0.367   0.070   3.087  1.2530  0.4246  0.1379
 3541TIP3    H210630   0.439   0.185   3.020 -0.4537  0.5863 -1.5301
 3542TIP3   OH210631   1.510   4.817   4.643  0.4340  0.2934 -0.0526
 3542TIP3    H110632   1.505   4.876   4.568  0.0555  1.4655  0.8538
 3542TIP3    H210633   1.587   4.847   4.691 -1.0209  1.5784  1.6107
 3543TIP3   OH210634   2.669   4.608   2.591 -0.2434 -0.1126  0.8236
 3543TIP3    H110635   2.622   4.525   2.600  0.9248 -0.7367  1.3461
 3543TIP3    H210636   2.728   4.594   2.518 -0.0153  0.2538  0.9388
 3544TIP3   OH210637   6.087   4.222   1.924  0.6056 -0.5117  0.0001
 3544TIP3    H110638   6.180   4.222   1.904  1.2355  1.3616  2.5280
 3544TIP3    H210639   6.072   4.137   1.967  1.8382  0.2552  2.1003
 3545TIP3   OH210640   4.313   4.038   1.194  0.8272  0.5496  0.2225
 3545TIP3    H110641   4.368   4.102   1.239 -1.9481  3.2369  0.1584
 3545TIP3    H210642   4.273   3.986   1.263  0.5183  1.2049  0.5449
 3546TIP3   OH210643   1.711   5.501   2.441 -0.2287  0.3767  0.4962
 3546TIP3    H110644   1.699   5.435   2.509  0.0914 -0.1665  0.0347
 3546TIP3    H210645   1.622   5.525   2.414 -0.3536 -0.7904 -0.2050
 3547TIP3   OH210646   4.162   5.766   0.994 -0.7223  0.2718 -0.1826
 3547TIP3    H110647   4.124   5.853   1.004 -0.3216  0.3925  0.3261
 3547TIP3    H210648   4.254   5.777   1.021 -0.5126 -0.1728 -0.6834
 3548TIP3   OH210649   2.720   4.958   0.118 -0.0792  0.2063 -0.4533
 3548TIP3    H110650   2.749   5.016   0.189  0.2669 -0.0914 -0.3469
 3548TIP3    H210651   2.795   4.900   0.102  0.0462  0.6197 -1.4341
 3549TIP3   OH210652   5.939   5.842   4.795  0.3067 -0.1042 -0.2992
 3549TIP3    H110653   5.887   5.769   4.829  1.9123 -0.2708  2.0239
 3549TIP3    H210654   5.884   5.919   4.808 -0.2311 -0.5350  0.0152
 3550TIP3   OH210655   3.871   2.582   3.107 -0.4814  0.3687  0.4531
 3550TIP3    H110656   3.815   2.584   3.185  0.7478 -1.2366  1.4348
 3550TIP3    H210657   3.892   2.490   3.094  1.1191  0.8202 -0.4713
 3551TIP3   OH210658   5.851   3.162   2.965  0.6951  0.2233 -0.1363
 3551TIP3    H110659   5.865   3.068   2.953  2.8586  0.5859 -0.8669
 3551TIP3    H210660   5.829   3.171   3.058  0.0964 -1.0094 -0.1317
 3552TIP3   OH210661   3.684   3.877   3.672 -0.7265 -0.7547 -0.2065
 3552TIP3    H110662   3.739   3.815   3.623  2.0610  1.3920 -0.0694
 3552TIP3    H210663   3.697   3.853   3.764  0.2375 -0.1448 -0.1626
 3553TIP3   OH210664   1.690   0.155   4.755 -0.7593 -0.5227  0.1680
 3553TIP3    H110665   1.632   0.230   4.764 -0.0201  0.2428 -1.1491
 3553TIP3    H210666   1.731   0.146   4.841  1.6798  2.7857 -0.4430
 3554TIP3   OH210667   4.591   3.179   2.276 -0.0684 -0.4675 -0.1985
 3554TIP3    H110668   4.633   3.208   2.195  0.1798 -1.3219 -0.3851
 3554TIP3    H210669   4.617   3.244   2.341  1.1846 -0.7248 -0.4145
 3555TIP3   OH210670   3.190   2.404   5.157 -0.5859 -0.2601  0.6586
 3555TIP3    H110671   3.178   2.481   5.213 -0.2765  1.3385 -1.3785
 3555TIP3    H210672   3.285   2.390   5.155 -0.5197  0.3128 -0.2699
 3556TIP3   OH210673   0.428   2.220   2.492 -0.2315  0.5447  0.3782
 3556TIP3    H110674   0.442   2.237   2.585  0.6612  1.8165  0.0344
 3556TIP3    H210675   0.418   2.125   2.486  0.6136  0.3591  1.6552
 3557TIP3   OH210676   3.001   2.611   3.689 -0.0451 -0.1935  0.1760
 3557TIP3    H110677   3.000   2.671   3.614 -1.0876 -0.3721  0.0360
 3557TIP3    H210678   2.975   2.665   3.763 -1.5499 -0.5722 -0.0473
 3558TIP3   OH210679   2.605   1.451   1.666 -0.7777 -0.4318 -0.3637
 3558TIP3    H110680   2.632   1.497   1.587  1.8927 -2.4947 -0.7780
 3558TIP3    H210681   2.647   1.499   1.737 -1.7987  0.4225 -0.3090
 3559TIP3   OH210682   2.594   3.932   0.837  0.5367  0.1545 -0.3305
 3559TIP3    H110683   2.599   4.019   0.798  0.3992  0.0806 -0.5142
 3559TIP3    H210684   2.551   3.878   0.771  0.1599  0.0637 -0.0159
 3560TIP3   OH210685   0.447   0.374   0.981 -0.7403  0.7821 -0.2797
 3560TIP3    H110686   0.521   0.317   1.003 -1.6675 -1.3889 -2.3418
 3560TIP3    H210687   0.397   0.379   1.063  0.3494  0.1930  0.4567
 3561TIP3   OH210688   4.697   2.685   2.973  0.0457  0.4236  0.1392
 3561TIP3    H110689   4.681   2.770   2.931  0.0832 -0.1557 -1.1193
 3561TIP3    H210690   4.772   2.649   2.925 -0.2627 -0.5066  0.3448
 3562TIP3   OH210691   1.914   4.931   3.169  0.0844  0.3291 -0.1874
 3562TIP3    H110692   1.860   4.994   3.120 -0.0952 -0.0469 -0.4784
 3562TIP3    H210693   1.953   4.983   3.239 -0.0805  0.7625 -0.4105
 3563TIP3   OH210694   1.588   2.379   1.231  0.2222 -0.7588  0.6144
 3563TIP3    H110695   1.504   2.425   1.225 -0.7133 -2.2956  1.2246
 3563TIP3    H210696   1.643   2.436   1.284 -0.3819  0.3438  0.0964
 3564TIP3   OH210697   2.384   5.799   2.245  0.4721  0.2420 -0.0470
 3564TIP3    H110698   2.351   5.751   2.320 -0.5460 -2.0223 -1.8022
 3564TIP3    H210699   2.327   5.875   2.237 -0.7288 -0.5901  0.3186
 3565TIP3   OH210700   2.288   5.681   4.886 -0.1318 -0.0885 -0.4466
 3565TIP3    H110701   2.206   5.720   4.856 -0.1825  1.2188  1.2497
 3565TIP3    H210702   2.356   5.734   4.844 -0.2009  1.5576  1.3999
 3566TIP3   OH210703   2.994   5.681   2.141  0.2495 -0.6476  0.1427
 3566TIP3    H110704   2.900   5.687   2.161 -0.1819 -1.4112 -1.4657
 3566TIP3    H210705   3.036   5.672   2.226 -0.8295  2.6269  1.2107
 3567TIP3   OH210706   1.567   0.372   0.726 -0.0722 -0.4279  0.3167
 3567TIP3    H110707   1.638   0.327   0.681 -0.9532 -1.4608 -0.0943
 3567TIP3    H210708   1.597   0.462   0.735  0.9595 -0.6662 -0.5504
 3568TIP3   OH210709   4.890   1.793   0.413  0.7288 -0.3870  0.6593
 3568TIP3    H110710   4.864   1.816   0.324  0.7719 -0.6593  0.5756
 3568TIP3    H210711   4.808   1.771   0.457  0.8005 -1.2153  0.4039
 3569TIP3   OH210712   4.832   5.655   0.277 -1.0931  0.2306  0.1379
 3569TIP3    H110713   4.875   5.632   0.360  1.5973  0.7740 -1.0298
 3569TIP3    H210714   4.781   5.733   0.298  0.4312  1.0225  1.0579
 3570TIP3   OH210715   5.899   3.750   2.281 -0.0672  0.5818 -0.2527
 3570TIP3    H110716   5.987   3.788   2.285  0.2315 -0.0813 -0.3409
 3570TIP3    H210717   5.857   3.777   2.363  0.1608  1.0359 -0.2839
 3571TIP3   OH210718   5.010   0.504   4.051 -0.0111  0.1897  0.3818
 3571TIP3    H110719   4.968   0.519   4.135  1.7317  2.4556  0.9372
 3571TIP3    H210720   5.090   0.457   4.072  0.9286  1.6329  0.1657
 3572TIP3   OH210721   5.000   5.556   1.368 -0.2380 -0.3850 -0.2367
 3572TIP3    H110722   5.001   5.471   1.412  1.2180  0.2388  1.0219
 3572TIP3    H210723   4.996   5.620   1.439 -0.9134  0.6285 -1.1491
 3573TIP3   OH210724   4.061   4.853   3.518 -0.0136  0.3024  0.2721
 3573TIP3    H110725   4.063   4.767   3.475 -1.1352 -0.5704  1.8766
 3573TIP3    H210726   4.053   4.833   3.611  2.9889  2.1233  1.0520
 3574TIP3   OH210727   5.232   5.283   3.895 -0.3637  0.5443 -0.0523
 3574TIP3    H110728   5.305   5.222   3.906 -0.3952  0.8007  1.9743
 3574TIP3    H210729   5.274   5.369   3.885 -0.3372  0.8192  2.0195
 3575TIP3   OH210730   1.097   5.928   1.241 -0.0268  0.1409  0.2247
 3575TIP3    H110731   1.187   5.959   1.242  0.3906 -1.0172  0.0981
 3575TIP3    H210732   1.094   5.861   1.308 -0.4460 -0.7294 -0.6358
 3576TIP3   OH210733   1.070   1.412   2.901  0.4294 -0.4636  0.4337
 3576TIP3    H110734   1.057   1.367   2.984  0.6865  0.1581  0.8160
 3576TIP3    H210735   1.137   1.361   2.857  0.6470 -0.5159  0.8204
 3577TIP3   OH210736   4.999   2.238   3.156  0.3957  0.7041  0.2147
 3577TIP3    H110737   5.088   2.204   3.157  0.3086  0.4020 -1.0917
 3577TIP3    H210738   4.943   2.163   3.177  0.3526  0.5473 -0.4539
 3578TIP3   OH210739   6.052   3.057   2.196  0.7126  0.1188  0.1095
 3578TIP3    H110740   6.055   3.067   2.291 -3.8560  1.2453  0.3686
 3578TIP3    H210741   6.094   3.137   2.163 -0.8357  1.5395  1.3595
 3579TIP3   OH210742   1.605   3.833   4.037  0.0710  0.1426  0.1132
 3579TIP3    H110743   1.616   3.755   4.091  1.6570 -1.2884 -2.1201
 3579TIP3    H210744   1.540   3.808   3.971 -1.2676  1.6020  0.7996
 3580TIP3   OH210745   1.861   1.620   4.441  0.2806 -0.3537 -0.1436
 3580TIP3    H110746   1.916   1.698   4.448 -0.5274  0.4324 -2.0008
 3580TIP3    H210747   1.889   1.565   4.514  1.7829  1.0896  0.4382
 3581TIP3   OH210748   4.166   2.674   3.657 -0.7200  0.3440  0.5687
 3581TIP3    H110749   4.228   2.631   3.716  0.0948  0.3132 -0.2732
 3581TIP3    H210750   4.081   2.635   3.677 -0.2926 -0.3451  1.0625
 3582TIP3   OH210751   0.895   4.590   0.410  0.0347 -0.2169  0.3315
 3582TIP3    H110752   0.983   4.582   0.446 -0.3212 -0.6957  1.1291
 3582TIP3    H210753   0.839   4.548   0.476 -0.6853 -0.7213 -0.5796
 3583TIP3   OH210754   5.511   3.470   2.610  0.0475  0.0983  0.3813
 3583TIP3    H110755   5.437   3.461   2.551  0.5446 -1.2391 -0.0660
 3583TIP3    H210756   5.525   3.383   2.646  1.3569  0.3286  0.4979
 3584TIP3   OH210757   3.006   0.071   0.915  0.2496 -0.0428 -0.1804
 3584TIP3    H110758   2.997   0.146   0.856 -0.7740  0.4692  0.5946
 3584TIP3    H210759   2.934   0.013   0.892 -0.4229  0.3661  0.8305
 3585TIP3   OH210760   2.433   2.227   3.833 -0.0043  0.0685  0.7342
 3585TIP3    H110761   2.426   2.205   3.740  0.2667 -1.6870  1.0869
 3585TIP3    H210762   2.345   2.211   3.868 -0.7110  2.8177  0.4328
 3586TIP3   OH210763   5.188   0.914   2.551  0.4628  0.4513 -0.1053
 3586TIP3    H110764   5.257   0.941   2.490  0.2239  1.1261 -0.0852
 3586TIP3    H210765   5.133   0.992   2.561 -0.1987 -0.0244  0.0241
 3587TIP3   OH210766   5.253   5.388   1.473 -0.2829  0.0889  0.2036
 3587TIP3    H110767   5.165   5.355   1.494 -0.3544 -0.5567 -0.9722
 3587TIP3    H210768   5.260   5.471   1.520 -1.1951 -0.2584  0.9876
 3588TIP3   OH210769   4.387   4.857   0.210  0.5073 -0.2967 -0.1252
 3588TIP3    H110770   4.376   4.830   0.119  1.0579 -0.6092 -0.1090
 3588TIP3    H210771   4.299   4.878   0.241  0.3952  0.4717 -0.9293
 3589TIP3   OH210772   0.095   1.613   2.432  0.2367  0.5792  0.3611
 3589TIP3    H110773   0.181   1.622   2.390  0.1833 -1.2858 -0.2415
 3589TIP3    H210774   0.069   1.523   2.413 -2.1501  1.2802 -0.0088
 3590TIP3   OH210775   0.087   4.509   1.738 -0.2103  0.0060 -0.0420
 3590TIP3    H110776   0.091   4.415   1.756 -0.0762 -0.1181 -0.6760
 3590TIP3    H210777   0.109   4.516   1.645  1.5685  0.8186  0.3905
 3591TIP3   OH210778   5.169   2.154   2.319  0.6791 -0.1688  0.0207
 3591TIP3    H110779   5.103   2.086   2.301 -0.0353  0.3187  0.7314
 3591TIP3    H210780   5.186   2.193   2.233 -1.6359  1.1817  0.0838
 3592TIP3   OH210781   5.598   5.187   4.924  1.0691  0.3578  0.2745
 3592TIP3    H110782   5.513   5.227   4.944  0.9702  0.6124 -0.6243
 3592TIP3    H210783   5.628   5.233   4.846  1.0950 -1.1088 -0.6244
 3593TIP3   OH210784   1.138   4.914   4.233 -0.1690 -0.0613  0.0303
 3593TIP3    H110785   1.151   4.831   4.278  0.5429  0.4154  0.7287
 3593TIP3    H210786   1.219   4.963   4.248  0.2956 -0.0311 -2.1279
 3594TIP3   OH210787   5.641   1.863   1.909 -0.6042 -0.0966  0.4142
 3594TIP3    H110788   5.576   1.930   1.930 -0.6375  0.0729 -0.1952
 3594TIP3    H210789   5.627   1.844   1.816 -0.7655 -1.1454  0.6477
 3595TIP3   OH210790   0.424   0.422   0.715 -0.0818  0.3830  0.0374
 3595TIP3    H110791   0.372   0.502   0.715 -0.1019  0.3727 -0.5355
 3595TIP3    H210792   0.428   0.396   0.807 -1.1117  0.3697  0.0890
 3596TIP3   OH210793   0.419   4.509   2.615 -0.1226  0.3999 -0.2686
 3596TIP3    H110794   0.403   4.601   2.593 -1.3145  0.0176 -1.0579
 3596TIP3    H210795   0.371   4.459   2.550 -1.3943 -0.7864  1.4717
 3597TIP3   OH210796   5.517   4.059   4.322  0.2335 -0.5387  0.0262
 3597TIP3    H110797   5.441   4.004   4.305 -0.7647  0.6259  0.5319
 3597TIP3    H210798   5.485   4.149   4.309  1.3825 -0.0005  0.7362
 3598TIP3   OH210799   3.773   2.667   0.758 -0.0952  0.2490  0.7356
 3598TIP3    H110800   3.694   2.628   0.719 -0.8054  0.6230  1.7614
 3598TIP3    H210801   3.844   2.640   0.700 -0.7772 -1.2775  0.5664
 3599TIP3   OH210802   5.088   5.952   4.138 -0.4058  0.1748 -0.3968
 3599TIP3    H110803   5.150   6.024   4.155 -0.7948  0.4825 -0.2624
 3599TIP3    H210804   5.004   5.996   4.125 -0.9072 -0.3267  0.9331
 3600TIP3   OH210805   3.232   3.424   2.923 -0.0318 -0.0554 -0.0753
 3600TIP3    H110806   3.323   3.428   2.892  0.0166  1.6880  0.2078
 3600TIP3    H210807   3.239   3.404   3.016  0.2545  2.6662  0.5697
 3601TIP3   OH210808   4.392   4.824   3.015  0.2145 -0.2445  0.4157
 3601TIP3    H110809   4.424   4.737   2.993  0.6194 -0.1561  0.6543
 3601TIP3    H210810   4.392   4.872   2.932 -1.4184 -0.9018 -0.0113
 3602TIP3   OH210811   3.486   4.327   5.002  0.0033  0.1941 -0.5511
 3602TIP3    H110812   3.422   4.394   5.029 -1.0948 -0.5735 -1.1556
 3602TIP3    H210813   3.570   4.373   5.001 -0.4795  1.1491  0.5939
 3603TIP3   OH210814   3.502   5.928   1.658 -0.1871  0.5107 -0.0257
 3603TIP3    H110815   3.434   5.960   1.719 -0.1589  0.7192 -0.1033
 3603TIP3    H210816   3.494   5.833   1.661  0.1697  0.4990  0.7135
 3604TIP3   OH210817   0.540   0.885   1.053 -0.0595  0.2739  0.7648
 3604TIP3    H110818   0.532   0.970   1.011  0.8098  0.0470  0.1156
 3604TIP3    H210819   0.538   0.822   0.980 -3.2077 -0.4910  1.3382
 3605TIP3   OH210820   2.159   3.417   1.560  0.1301 -0.4054  0.2632
 3605TIP3    H110821   2.067   3.440   1.544  0.6486  0.2513 -2.1732
 3605TIP3    H210822   2.171   3.334   1.512  0.7885 -0.5331  0.6458
 3606TIP3   OH210823   1.183   1.502   0.663  0.2016 -0.3632  0.4672
 3606TIP3    H110824   1.255   1.485   0.724 -0.9789 -2.2838  1.4100
 3606TIP3    H210825   1.171   1.597   0.667 -0.1530 -0.4232  3.6576
 3607TIP3   OH210826   2.465   1.352   1.175 -0.2927 -0.2076 -0.4519
 3607TIP3    H110827   2.541   1.372   1.228 -0.6270  0.1120 -0.0858
 3607TIP3    H210828   2.394   1.405   1.213 -0.6806 -0.4544 -0.8174
 3608TIP3   OH210829   1.531   2.493   2.916 -0.2405  0.0867  0.2086
 3608TIP3    H110830   1.625   2.498   2.902 -0.4779 -0.6677 -2.3403
 3608TIP3    H210831   1.498   2.579   2.892 -0.2837  0.0155  0.0062
 3609TIP3   OH210832   3.086   4.036   1.879  0.4894  0.3992  0.6201
 3609TIP3    H110833   3.048   3.994   1.956  1.0295 -0.3732  0.4753
 3609TIP3    H210834   3.173   4.065   1.907  0.2744  1.0808  0.6027
 3610TIP3   OH210835   5.308   2.435   5.045  0.7901  0.3336 -0.1089
 3610TIP3    H110836   5.285   2.465   4.957  3.4081  0.4797 -0.8240
 3610TIP3    H210837   5.354   2.352   5.031 -0.0333 -0.3883  1.2604
 3611TIP3   OH210838   1.224   0.418   2.050 -0.4195  0.1595  0.4421
 3611TIP3    H110839   1.191   0.508   2.054 -0.1977  0.2263  0.8915
 3611TIP3    H210840   1.312   0.426   2.015 -0.3202  0.1435  0.6833
 3612TIP3   OH210841   3.871   4.813   4.237 -0.9575  0.6446  0.0241
 3612TIP3    H110842   3.887   4.723   4.264  0.4319  0.6874 -0.5859
 3612TIP3    H210843   3.857   4.808   4.142 -1.4558  1.0139  0.0686
 3613TIP3   OH210844   4.865   1.058   3.980  0.0636  0.3847  0.5646
 3613TIP3    H110845   4.945   1.008   4.001 -0.8155 -1.2090  0.2690
 3613TIP3    H210846   4.853   1.046   3.886 -0.0338  1.3926  0.4416
 3614TIP3   OH210847   2.240   0.960  -0.006  0.1479 -0.1992  0.1144
 3614TIP3    H110848   2.194   1.032  -0.051 -1.5690 -0.7585  0.8694
 3614TIP3    H210849   2.295   1.004   0.059  0.6455  0.4965 -0.7480
 3615TIP3   OH210850   1.924   4.507   3.939  0.0928 -0.0736  0.6697
 3615TIP3    H110851   1.867   4.489   4.013 -1.3950 -1.7137 -0.7849
 3615TIP3    H210852   1.895   4.447   3.870  2.2667  0.4529 -0.8298
 3616TIP3   OH210853   3.566   3.993   3.329  0.2236 -0.2917  0.1293
 3616TIP3    H110854   3.483   4.018   3.288 -0.5660 -2.5614  0.2502
 3616TIP3    H210855   3.575   4.053   3.403 -0.4813  1.0164 -0.7841
 3617TIP3   OH210856   3.165   4.545   4.322  0.3576  0.0840 -0.0477
 3617TIP3    H110857   3.158   4.636   4.349 -1.1979 -0.1439  0.4419
 3617TIP3    H210858   3.127   4.496   4.395 -0.7614 -0.7944 -1.1728
 3618TIP3   OH210859   3.377   4.312   3.617 -0.3439  0.2099 -0.5247
 3618TIP3    H110860   3.329   4.235   3.647  1.2802 -0.7804 -0.3397
 3618TIP3    H210861   3.459   4.277   3.583  0.7393  1.9022  0.1997
 3619TIP3   OH210862   5.419   2.102   0.055 -0.0619 -0.0628 -0.7932
 3619TIP3    H110863   5.419   2.061  -0.031 -0.6211  0.9600 -1.2969
 3619TIP3    H210864   5.351   2.170   0.050 -0.0672  0.0579  0.4312
 3620TIP3   OH210865   5.576   5.154   2.860 -0.4197 -0.0791  0.2065
 3620TIP3    H110866   5.488   5.172   2.892 -0.6422  2.7142 -1.6011
 3620TIP3    H210867   5.633   5.176   2.934 -1.0982  2.1254  0.1441
 3621TIP3   OH210868   5.613   2.417   4.911 -0.7182 -0.3066  0.3145
 3621TIP3    H110869   5.560   2.433   4.833 -0.1898  0.4341  0.0952
 3621TIP3    H210870   5.583   2.332   4.944  1.0801 -2.1403 -2.3774
 3622TIP3   OH210871   2.023   2.924   1.688  0.1462  0.2811 -0.3376
 3622TIP3    H110872   2.056   2.914   1.598 -1.6287  0.5794 -1.0666
 3622TIP3    H210873   1.964   2.999   1.683 -1.4234 -0.8436  0.6443
 3623TIP3   OH210874   1.997   1.149   4.633  0.3379 -0.0988  0.3797
 3623TIP3    H110875   1.961   1.149   4.722 -0.0646 -0.9202  0.2293
 3623TIP3    H210876   2.092   1.155   4.646  0.2647  0.1687  0.8477
 3624TIP3   OH210877   6.271   3.274   2.519 -0.1154 -0.0830 -0.5725
 3624TIP3    H110878   6.223   3.308   2.595 -0.7996  0.5407 -1.2648
 3624TIP3    H210879   6.308   3.351   2.477  1.2948 -0.5424 -0.2034
 3625TIP3   OH210880   4.911   1.959   5.066  0.0948 -0.0146 -0.0436
 3625TIP3    H110881   4.940   1.891   5.127 -0.4543 -1.8860 -1.7947
 3625TIP3    H210882   4.830   1.926   5.029 -1.5723  2.7576  0.8306
 3626TIP3   OH210883   3.573   5.938   0.655 -0.0225 -0.3605 -0.0050
 3626TIP3    H110884   3.499   5.969   0.604  1.0711  1.5998 -0.5031
 3626TIP3    H210885   3.538   5.920   0.742 -1.3789 -1.1434 -0.6835
 3627TIP3   OH210886   1.777   4.266   0.324  0.4322  0.1239 -0.5281
 3627TIP3    H110887   1.792   4.343   0.269 -0.6951  0.6089 -0.1989
 3627TIP3    H210888   1.855   4.212   0.313  1.5340  1.6037 -0.2688
 3628TIP3   OH210889   2.709   3.074   4.459  0.4791  0.6191  0.6283
 3628TIP3    H110890   2.785   3.037   4.502 -1.7535 -2.3944  2.3486
 3628TIP3    H210891   2.653   3.105   4.530 -1.8617 -1.4702 -0.1487
 3629TIP3   OH210892   5.351   0.662   0.070 -0.5253  0.4432  0.1900
 3629TIP3    H110893   5.270   0.669   0.121 -0.9100  0.9528 -0.4692
 3629TIP3    H210894   5.343   0.579   0.022 -0.0887 -0.1163  1.0723
 3630TIP3   OH210895   2.803   4.270   1.541 -0.2460 -0.5075 -0.9406
 3630TIP3    H110896   2.852   4.303   1.466  2.0947 -1.8701 -0.0959
 3630TIP3    H210897   2.810   4.340   1.607  2.3249 -1.4004 -0.1492
 3631TIP3   OH210898   4.214   1.215   0.070 -0.3315  0.4784 -0.4100
 3631TIP3    H110899   4.166   1.290   0.035 -0.5737  0.3240 -0.4056
 3631TIP3    H210900   4.245   1.244   0.156 -2.0967 -0.0955  0.4666
 3632TIP3   OH210901   3.991   3.300   4.901  0.2367 -0.0244  0.0253
 3632TIP3    H110902   3.985   3.255   4.817  0.3191  0.3109 -0.1621
 3632TIP3    H210903   3.995   3.229   4.966 -1.1053 -0.2903 -0.1531
 3633TIP3   OH210904   4.551   1.533   2.429  0.1270  0.0304 -0.7374
 3633TIP3    H110905   4.513   1.497   2.509  0.4204 -1.5697 -1.2800
 3633TIP3    H210906   4.495   1.607   2.407  0.5044  1.0059  1.3611
 3634TIP3   OH210907   0.316   4.984   3.205  0.2332 -0.4910 -0.2976
 3634TIP3    H110908   0.390   4.925   3.189  2.2763  1.9355 -0.3541
 3634TIP3    H210909   0.270   4.987   3.122  1.4496 -0.2690 -0.9895
 3635TIP3   OH210910   6.255   5.457   2.710  0.2421  0.2970  0.5868
 3635TIP3    H110911   6.328   5.488   2.763  0.5756  0.4186  0.0609
 3635TIP3    H210912   6.201   5.535   2.696  1.2579  0.7661 -1.0229
 3636TIP3   OH210913   3.670   0.904   5.058 -0.0099 -0.1199  0.3756
 3636TIP3    H110914   3.625   0.930   5.138 -1.2883 -2.8342  0.6462
 3636TIP3    H210915   3.610   0.930   4.988  0.5140  1.0887  0.3592
 3637TIP3   OH210916   2.760   3.797   0.987 -0.2934 -0.3736 -0.0786
 3637TIP3    H110917   2.827   3.742   0.947  1.5231  1.2555  0.5641
 3637TIP3    H210918   2.721   3.845   0.914  0.9963  0.4576 -0.2664
 3638TIP3   OH210919   2.648   2.006   1.038 -0.4677  0.0837  0.4114
 3638TIP3    H110920   2.657   1.970   0.950 -0.2026  0.8775  0.1018
 3638TIP3    H210921   2.612   2.094   1.025 -2.7993 -0.6721  1.2487
 3639TIP3   OH210922   3.979   2.626   0.559 -1.0434 -0.3377  0.0217
 3639TIP3    H110923   3.923   2.554   0.529  1.1957 -2.3054  0.1777
 3639TIP3    H210924   4.060   2.582   0.588 -0.1767  2.1367  1.6954
 3640TIP3   OH210925   0.860   1.741   0.790  0.7621  0.0163 -0.2968
 3640TIP3    H110926   0.876   1.717   0.698  2.0550  1.1140 -0.3775
 3640TIP3    H210927   0.925   1.691   0.839  1.7794  1.3637 -0.2353
 3641TIP3   OH210928   5.098   2.110   0.768 -0.4877  0.4503 -0.3543
 3641TIP3    H110929   5.031   2.125   0.834  0.0195  2.3544 -0.2369
 3641TIP3    H210930   5.049   2.104   0.686 -0.9704 -0.3163 -0.0227
 3642TIP3   OH210931   1.998   0.514   3.589 -0.0931  0.1940  0.3074
 3642TIP3    H110932   2.025   0.423   3.605 -0.6644  0.2077  1.4454
 3642TIP3    H210933   2.073   0.554   3.546 -0.5973 -1.3633 -2.2551
 3643TIP3   OH210934   5.701   5.675   2.874  0.3451  0.6447  0.2217
 3643TIP3    H110935   5.644   5.657   2.949 -1.5222 -0.6201 -1.3944
 3643TIP3    H210936   5.790   5.662   2.907 -0.4757 -0.9186  1.9653
 3644TIP3   OH210937   0.614   2.001   3.435 -0.6670  0.0635  0.0180
 3644TIP3    H110938   0.615   1.907   3.452  0.2538  0.0447 -0.0749
 3644TIP3    H210939   0.620   2.040   3.522 -2.8964  0.0847  0.2070
 3645TIP3   OH210940   2.582   4.229   2.830  0.7174 -0.1844 -0.0915
 3645TIP3    H110941   2.613   4.159   2.887  1.2705  0.4689  0.4212
 3645TIP3    H210942   2.650   4.296   2.834 -0.9714  1.5429  1.5184
 3646TIP3   OH210943   2.951   2.163   4.065 -0.0562 -0.2788 -0.2504
 3646TIP3    H110944   2.888   2.178   3.994 -1.8789  1.3211  1.5555
 3646TIP3    H210945   2.896   2.145   4.141  1.8114 -1.0922  0.9703
 3647TIP3   OH210946   3.520   3.467   3.297 -0.2596 -0.4903 -0.2406
 3647TIP3    H110947   3.518   3.409   3.374  0.0558  0.2557  0.3496
 3647TIP3    H210948   3.438   3.515   3.302  0.3649  0.5459  0.4309
 3648TIP3   OH210949   2.527   4.030   1.739  0.5215  0.1064  0.1271
 3648TIP3    H110950   2.508   4.105   1.683 -2.2273  0.1351  0.9543
 3648TIP3    H210951   2.468   3.961   1.708 -0.7714 -0.0236  2.5728
 3649TIP3   OH210952   0.254   2.082   4.373 -0.2691  0.2694  0.2727
 3649TIP3    H110953   0.226   2.018   4.439  2.8869 -1.4090  0.2190
 3649TIP3    H210954   0.308   2.030   4.312  1.9713  2.8736 -0.1250
 3650TIP3   OH210955   1.636   4.563   0.426  0.3466 -0.0286  0.9361
 3650TIP3    H110956   1.646   4.576   0.332  0.5889  0.1523  0.9889
 3650TIP3    H210957   1.691   4.487   0.446  1.8619  1.1352  1.2749
 3651TIP3   OH210958   0.273   0.309   3.291 -0.0357 -0.1818 -0.7364
 3651TIP3    H110959   0.253   0.367   3.218  2.2408  0.9339 -0.5538
 3651TIP3    H210960   0.337   0.248   3.255 -0.4816 -0.9788 -0.2064
 3652TIP3   OH210961   5.073   2.766   0.614 -0.0458 -0.2620 -0.0176
 3652TIP3    H110962   5.107   2.855   0.625 -1.3844  0.0680  2.0412
 3652TIP3    H210963   5.118   2.714   0.680 -0.6816 -0.6610  0.1202
 3653TIP3   OH210964   1.371   5.046   4.321  0.3508 -0.1148 -0.0883
 3653TIP3    H110965   1.377   5.121   4.380  3.1659 -0.6585  0.4615
 3653TIP3    H210966   1.455   5.001   4.331 -0.0858 -1.6786 -2.6210
 3654TIP3   OH210967   3.973   1.389   2.239  0.6750  0.2770  0.0923
 3654TIP3    H110968   4.034   1.372   2.168  0.3100  1.7148 -0.6161
 3654TIP3    H210969   3.905   1.323   2.230  2.0829 -1.3415  0.8905
 3655TIP3   OH210970   2.224   4.966   4.625 -0.3596  0.1906  0.3005
 3655TIP3    H110971   2.280   4.913   4.568  0.1141  0.7051  0.2867
 3655TIP3    H210972   2.280   5.036   4.656 -0.3999 -0.4778  1.9989
 3656TIP3   OH210973   5.470   0.800   3.149 -0.7247  0.4525  0.2736
 3656TIP3    H110974   5.405   0.759   3.206 -1.0230  0.0091 -0.3791
 3656TIP3    H210975   5.539   0.735   3.141 -0.7336  0.4737  0.0390
 3657TIP3   OH210976   5.333   0.069   3.014 -0.1900 -0.3208 -0.1394
 3657TIP3    H110977   5.275   0.032   3.081 -0.7561 -3.2434 -2.0623
 3657TIP3    H210978   5.278   0.075   2.936  1.4907 -0.9261 -1.4111
 3658TIP3   OH210979   2.420   1.859   1.945 -0.2653 -0.4089 -0.1105
 3658TIP3    H110980   2.409   1.764   1.945  0.8182 -0.5486  0.3053
 3658TIP3    H210981   2.494   1.874   1.886  0.9810 -0.0298  1.4724
 3659TIP3   OH210982   2.937   5.106   1.235 -0.1713  0.0454  0.3962
 3659TIP3    H110983   2.870   5.102   1.304 -1.6243  2.5365 -0.7486
 3659TIP3    H210984   2.887   5.097   1.153  1.1336  0.1868 -0.4342
 3660TIP3   OH210985   6.150   0.556   1.567  0.4036 -0.1482  0.1180
 3660TIP3    H110986   6.146   0.616   1.493  0.9559 -0.5837 -0.2808
 3660TIP3    H210987   6.157   0.612   1.644 -1.0153  0.3349 -0.0705
 3661TIP3   OH210988   0.210   1.461   0.194 -0.0216  0.2767 -0.2716
 3661TIP3    H110989   0.188   1.537   0.141  0.3036 -0.2369 -1.1544
 3661TIP3    H210990   0.192   1.489   0.284 -1.5510  0.8258 -0.7140
 3662TIP3   OH210991   2.131   5.088   2.763  0.1744  0.5325 -0.3484
 3662TIP3    H110992   2.179   5.060   2.841 -0.3181 -0.0367 -0.2479
 3662TIP3    H210993   2.055   5.135   2.797 -0.8902 -1.0578 -0.4242
 3663TIP3   OH210994   3.865   4.122   0.394  0.1176 -0.0506 -0.1331
 3663TIP3    H110995   3.818   4.151   0.473  1.6278 -1.5945  1.4281
 3663TIP3    H210996   3.934   4.186   0.382  1.4611 -1.1340  1.3898
 3664TIP3   OH210997   5.983   0.907   1.591  0.3378  0.6260 -0.0845
 3664TIP3    H110998   5.989   0.835   1.655 -0.1067  2.0668  1.6599
 3664TIP3    H210999   6.012   0.984   1.639  2.3834  1.4158 -2.3968
 3665TIP3   OH211000   0.422   5.751   1.504  0.3847  0.0180 -0.0763
 3665TIP3    H111001   0.404   5.813   1.574 -0.0938 -1.3222  1.0427
 3665TIP3    H211002   0.514   5.727   1.515  0.2950 -0.2336  0.1434
 3666TIP3   OH211003   5.466   4.863   0.128 -0.1679  0.1133  0.3985
 3666TIP3    H111004   5.446   4.790   0.069 -0.0019  0.4454 -0.0716
 3666TIP3    H211005   5.557   4.885   0.110  0.2128 -0.4781  1.5485
 3667TIP3   OH211006   4.201   3.896   4.053  0.5673 -0.2223  0.1973
 3667TIP3    H111007   4.245   3.950   4.118  2.2040 -1.0314 -0.1905
 3667TIP3    H211008   4.264   3.889   3.981  0.2332 -2.2650  0.0493
 3668TIP3   OH211009   1.381   5.858   4.461  0.2781  0.4393 -0.6461
 3668TIP3    H111010   1.350   5.947   4.448  1.1193  0.8721  0.1694
 3668TIP3    H211011   1.442   5.843   4.389 -0.5648  0.1697 -1.3208
 3669TIP3   OH211012   2.937   4.459   2.179 -0.1489  0.1447  0.0413
 3669TIP3    H111013   2.940   4.394   2.109 -2.4282 -1.4560  1.2867
 3669TIP3    H211014   2.876   4.525   2.149 -0.7683 -0.2991  0.3116
 3670TIP3   OH211015   2.646   0.175   3.035  0.1452 -0.6677 -0.8158
 3670TIP3    H111016   2.614   0.190   3.124 -1.3243  3.7868 -1.8497
 3670TIP3    H211017   2.727   0.227   3.030 -0.2065 -0.2107 -2.2519
 3671TIP3   OH211018   1.548   5.784   1.725  0.2923  0.0718 -0.2454
 3671TIP3    H111019   1.531   5.836   1.804  3.0679 -0.8009  1.0432
 3671TIP3    H211020   1.463   5.745   1.704 -0.3370 -0.6832  3.1226
 3672TIP3   OH211021   2.788   4.387   2.907  0.1479 -0.5164 -0.4502
 3672TIP3    H111022   2.860   4.345   2.954 -0.8841 -1.3777  0.4332
 3672TIP3    H211023   2.822   4.401   2.819  0.5382 -3.3959 -0.8607
 3673TIP3   OH211024   1.037   3.087   2.162 -0.2335 -0.2240  0.3872
 3673TIP3    H111025   1.025   3.181   2.173  0.9015 -0.1174  0.8438
 3673TIP3    H211026   1.010   3.069   2.072  1.9275  0.9812 -0.5605
 3674TIP3   OH211027   2.275   5.889   0.965 -0.2672 -0.2645 -0.1037
 3674TIP3    H111028   2.286   5.965   0.907  1.6564 -0.5511 -0.1728
 3674TIP3    H211029   2.322   5.912   1.045  0.2405 -1.3195 -0.0783
 3675TIP3   OH211030   2.672   3.547   4.922  0.4996 -0.1437  0.0129
 3675TIP3    H111031   2.662   3.584   5.010 -1.5761 -0.7632  0.0829
 3675TIP3    H211032   2.692   3.455   4.937 -0.9246 -0.4973 -0.1236
 3676TIP3   OH211033   4.227   2.789   4.542 -0.0672  0.0217  0.0122
 3676TIP3    H111034   4.218   2.752   4.454  2.3560  1.1595 -0.7948
 3676TIP3    H211035   4.308   2.751   4.576  1.3722  2.8093 -0.0110
 3677TIP3   OH211036   0.939   1.610   0.076 -0.5238 -0.2110 -0.2195
 3677TIP3    H111037   0.915   1.541   0.015  0.2916 -0.2348 -0.5113
 3677TIP3    H211038   0.890   1.687   0.045 -0.2538 -0.2691 -0.7924
 3678TIP3   OH211039   3.105   0.046   5.118 -0.5145  0.5008 -0.1872
 3678TIP3    H111040   3.060   0.087   5.191 -0.3845  1.1693 -0.4780
 3678TIP3    H211041   3.036   0.025   5.056 -0.7159 -0.7166  0.4177
 3679TIP3   OH211042   6.002   1.071   4.150 -0.2232 -0.5403 -0.3878
 3679TIP3    H111043   6.069   1.027   4.202  0.3265  0.6065 -0.1002
 3679TIP3    H211044   5.958   1.000   4.104  1.0345 -1.3429 -0.4086
 3680TIP3   OH211045   5.677   2.324   2.097 -0.3923  0.1352 -0.0937
 3680TIP3    H111046   5.630   2.253   2.141  0.9885 -0.4483  0.5239
 3680TIP3    H211047   5.609   2.376   2.054 -1.6747 -0.1403  1.5039
 3681TIP3   OH211048   2.897   0.339   4.172  0.5705  0.1915  0.5387
 3681TIP3    H111049   2.803   0.360   4.174  0.1671 -1.4290  0.3598
 3681TIP3    H211050   2.899   0.243   4.171  2.2435  0.2100  0.6553
 3682TIP3   OH211051   1.477   0.355   4.591  0.0303  0.6355  0.0252
 3682TIP3    H111052   1.462   0.267   4.625  2.6314 -0.0898 -0.5281
 3682TIP3    H211053   1.399   0.374   4.538 -0.1712 -1.7174 -0.6226
 3683TIP3   OH211054   0.190   2.378   2.022  0.2041 -0.8241  0.6034
 3683TIP3    H111055   0.129   2.340   1.959  0.1861 -0.9626  0.7042
 3683TIP3    H211056   0.180   2.325   2.101  0.1152 -0.5568  0.7743
 3684TIP3   OH211057   5.006   5.910   3.528 -0.6079  0.4656  0.6366
 3684TIP3    H111058   5.035   5.826   3.564 -0.6349 -0.1241 -0.6354
 3684TIP3    H211059   4.989   5.965   3.604  0.4207 -0.3414  1.4737
 3685TIP3   OH211060   0.158   0.984   3.683 -0.1370 -0.1307  0.3930
 3685TIP3    H111061   0.066   0.985   3.656  0.0851 -0.0372 -0.4135
 3685TIP3    H211062   0.204   0.943   3.609  0.6458  1.1185  0.1458
 3686TIP3   OH211063   0.070   0.312   1.049  0.2399 -0.2369 -0.4065
 3686TIP3    H111064   0.110   0.242   0.996 -1.1206 -0.6080 -0.9700
 3686TIP3    H211065   0.128   0.318   1.125  1.9097 -0.0940 -1.6177
 3687TIP3   OH211066   0.533   0.296   2.429  0.1764 -0.1125  0.1721
 3687TIP3    H111067   0.551   0.388   2.407  3.1640 -0.8338 -0.8976
 3687TIP3    H211068   0.473   0.267   2.361  0.2374  0.7283 -0.2612
 3688TIP3   OH211069   0.636   3.417   2.359 -0.3130 -0.1598  0.2492
 3688TIP3    H111070   0.559   3.437   2.305 -0.4043 -1.4085 -0.1002
 3688TIP3    H211071   0.629   3.477   2.433 -1.7898 -0.4524  0.3728
 3689TIP3   OH211072   6.062   0.202   0.437 -0.3522  0.2153 -0.3625
 3689TIP3    H111073   5.987   0.142   0.441 -0.0030 -0.1897  0.0904
 3689TIP3    H211074   6.124   0.168   0.501  0.4898  0.1976 -1.1658
 3690TIP3   OH211075   3.717   0.836   1.021 -0.4172  0.5958  0.3590
 3690TIP3    H111076   3.630   0.798   1.019  0.4458 -1.4857 -1.7239
 3690TIP3    H211077   3.777   0.761   1.020  1.4755  1.9211  2.5795
 3691TIP3   OH211078   3.250   4.200   0.634 -0.0667  0.0656 -0.2583
 3691TIP3    H111079   3.156   4.193   0.617 -0.0374 -1.2017 -0.0029
 3691TIP3    H211080   3.263   4.291   0.658 -1.2646  0.2221 -0.1386
 3692TIP3   OH211081   5.521   4.927   4.876  0.0522  0.6218  0.4873
 3692TIP3    H111082   5.549   5.016   4.899  1.1513  0.7803 -1.2135
 3692TIP3    H211083   5.564   4.871   4.940 -1.2303  1.3244  2.0304
 3693TIP3   OH211084   1.435   3.946   0.675 -0.6188 -0.5741  0.0403
 3693TIP3    H111085   1.481   3.996   0.743 -1.1375 -0.4046  0.2717
 3693TIP3    H211086   1.484   3.965   0.595 -0.3745 -0.2737  0.2540
 3694TIP3   OH211087   4.941   0.672   1.523  0.1967 -0.4043 -0.1590
 3694TIP3    H111088   4.943   0.599   1.584  0.9774 -0.3172 -0.0580
 3694TIP3    H211089   4.917   0.748   1.576  1.2595 -0.2578  0.1398
 3695TIP3   OH211090   4.157   4.142   5.139 -0.2356 -0.1454 -0.0415
 3695TIP3    H111091   4.226   4.205   5.115  0.0629 -0.6714 -0.5983
 3695TIP3    H211092   4.109   4.185   5.210 -0.3027  0.8973 -0.6890
 3696TIP3   OH211093   0.202   1.628   3.946  0.0629  0.2438  0.1156
 3696TIP3    H111094   0.138   1.630   3.875  0.4286 -2.0413 -0.3487
 3696TIP3    H211095   0.150   1.612   4.025 -0.1009  0.0204 -0.0373
 3697TIP3   OH211096  -0.013   2.056   4.619 -0.1142  0.5269  0.5464
 3697TIP3    H111097   0.057   2.119   4.600  0.8398 -0.7798 -0.4805
 3697TIP3    H211098   0.010   1.978   4.568 -1.9404 -0.2170  0.7689
 3698TIP3   OH211099   0.164   0.828   1.487  0.0181  0.0654  0.0240
 3698TIP3    H111100   0.164   0.817   1.392  1.9777 -2.0214  0.2087
 3698TIP3    H211101   0.204   0.914   1.501  1.2361 -0.3149 -0.9973
 3699TIP3   OH211102   2.842   0.683   0.924 -0.0766 -0.2290  0.1930
 3699TIP3    H111103   2.768   0.722   0.878  1.3418  1.5858 -0.6662
 3699TIP3    H211104   2.911   0.677   0.858  1.1697 -0.0398  1.4324
 3700TIP3   OH211105   2.538   2.659   4.204  0.4077 -0.7892  0.5205
 3700TIP3    H111106   2.472   2.643   4.272  0.7284 -1.0975  0.7579
 3700TIP3    H211107   2.493   2.638   4.122 -0.4105  0.8139  0.4993
 3701TIP3   OH211108   5.934   0.965   2.977  0.4704 -0.0833 -0.5330
 3701TIP3    H111109   5.845   0.930   2.967  1.7749 -3.7838 -0.9134
 3701TIP3    H211110   5.932   1.049   2.932 -2.5978 -0.4968 -1.3965
 3702TIP3   OH211111   3.210   0.095   2.167  0.0714 -0.4288 -0.2609
 3702TIP3    H111112   3.244   0.184   2.180  0.7011 -0.8066  0.7769
 3702TIP3    H211113   3.115   0.106   2.172  0.1556  0.1252  0.3509
 3703TIP3   OH211114   3.915   0.333   2.058  0.0770  0.0452 -0.1724
 3703TIP3    H111115   3.960   0.381   1.989 -1.6421  0.0212 -1.3681
 3703TIP3    H211116   3.867   0.400   2.107  2.0929  0.2145  1.7541
 3704TIP3   OH211117   0.735   3.933   1.243  0.0376  0.0623 -0.0793
 3704TIP3    H111118   0.751   4.026   1.227 -0.7417  0.2411  0.1270
 3704TIP3    H211119   0.640   3.925   1.242 -0.1003 -0.1229  3.1336
 3705TIP3   OH211120   4.464   4.557   2.996  0.0907  0.4219  0.3599
 3705TIP3    H111121   4.558   4.548   2.980  0.0869 -0.7134  0.8855
 3705TIP3    H211122   4.433   4.467   3.005 -1.2306  0.7258 -0.7890
 3706TIP3   OH211123   5.325   0.104   4.156 -0.2940 -0.1542  0.0959
 3706TIP3    H111124   5.336   0.150   4.073  0.1154 -1.8658 -0.8477
 3706TIP3    H211125   5.231   0.106   4.172 -0.5994 -1.2896 -1.3441
 3707TIP3   OH211126   2.190   0.409   3.392  0.1221  0.0047 -0.2921
 3707TIP3    H111127   2.228   0.448   3.470 -0.4250  0.1032 -0.0754
 3707TIP3    H211128   2.266   0.385   3.338  0.5354 -0.9033  0.6647
 3708TIP3   OH211129   5.503   2.737   1.775  0.2059  0.2332 -0.2243
 3708TIP3    H111130   5.591   2.767   1.749  0.2413 -0.4787 -0.9471
 3708TIP3    H211131   5.516   2.647   1.803 -0.4933 -0.3125 -1.5744
 3709TIP3   OH211132   0.904   5.071   5.032 -0.6866  0.7140 -0.0068
 3709TIP3    H111133   0.981   5.014   5.029 -1.3872 -0.2427 -0.2356
 3709TIP3    H211134   0.926   5.138   5.098 -0.0175 -0.0717  0.5849
 3710TIP3   OH211135   3.979   0.990   0.731  0.0581 -0.1972  0.0634
 3710TIP3    H111136   4.027   1.042   0.795  1.0934  1.8498 -2.2114
 3710TIP3    H211137   4.041   0.923   0.703  0.4699  0.4192 -0.5207
 3711TIP3   OH211138   3.448   5.044   2.697 -0.4457 -0.4976 -0.6214
 3711TIP3    H111139   3.412   4.965   2.658  0.6714 -0.5668 -1.5765
 3711TIP3    H211140   3.382   5.111   2.681 -1.0701 -1.0618 -0.4594
 3712TIP3   OH211141   0.841   0.837   5.140 -0.3655 -0.6067 -0.2165
 3712TIP3    H111142   0.791   0.915   5.114  1.3644  0.9581  0.9115
 3712TIP3    H211143   0.782   0.789   5.198 -1.8012 -0.6486 -1.6545
 3713TIP3   OH211144   2.458   2.924   3.958  0.2129  0.3093  0.0565
 3713TIP3    H111145   2.403   2.890   3.888 -0.6061 -0.4754  1.0520
 3713TIP3    H211146   2.396   2.962   4.021  0.9502  1.2822  0.2256
 3714TIP3   OH211147   1.540   1.172   0.491 -0.0994 -0.1950  0.1231
 3714TIP3    H111148   1.503   1.197   0.575  0.6632 -0.2991  0.5001
 3714TIP3    H211149   1.475   1.199   0.426  0.5461  2.5371  0.5055
 3715TIP3   OH211150   1.820   5.947   1.944  0.6952  0.4993  0.0222
 3715TIP3    H111151   1.862   6.006   2.006 -0.2758 -0.4076  1.6074
 3715TIP3    H211152   1.792   5.873   1.997 -1.3878  0.3140 -1.2346
 3716TIP3   OH211153   4.380   3.945   3.860 -0.4316  0.3252  0.6254
 3716TIP3    H111154   4.387   4.009   3.790 -0.0859  1.3968  1.6035
 3716TIP3    H211155   4.457   3.889   3.849 -0.7006  0.1050 -0.1966
 3717TIP3   OH211156   2.759   5.649   3.194  0.3335 -0.2677 -0.3420
 3717TIP3    H111157   2.804   5.569   3.223  0.6271  0.3504  0.9907
 3717TIP3    H211158   2.737   5.632   3.103  0.2183 -1.9460 -0.0327
 3718TIP3   OH211159   2.913   4.171   2.506  0.5825  0.0136  0.9046
 3718TIP3    H111160   3.000   4.131   2.508 -0.5868 -2.7937  0.6421
 3718TIP3    H211161   2.879   4.150   2.419 -0.6523  0.3232  1.2890
 3719TIP3   OH211162   1.202   5.659   4.596  0.2662 -0.3564  0.4232
 3719TIP3    H111163   1.231   5.709   4.520 -0.5822  0.2751  0.4912
 3719TIP3    H211164   1.267   5.590   4.606  1.1871  0.4156 -0.0016
 3720TIP3   OH211165   2.289   4.604   1.039  0.2631 -0.0920  0.2726
 3720TIP3    H111166   2.226   4.532   1.025  0.7386 -0.1829 -1.6335
 3720TIP3    H211167   2.234   4.679   1.061 -0.3945 -0.5256  0.1653
 3721TIP3   OH211168   3.657   2.475   3.268  0.5203 -1.1609 -0.2034
 3721TIP3    H111169   3.575   2.460   3.222 -0.5278 -0.2594  1.2853
 3721TIP3    H211170   3.635   2.466   3.361  1.9930 -0.3937  0.2535
 3722TIP3   OH211171   2.421   1.315   5.158 -0.0581 -0.0045 -0.1795
 3722TIP3    H111172   2.422   1.278   5.070  0.8227  1.9588 -1.0463
 3722TIP3    H211173   2.512   1.338   5.176 -0.0696 -1.2208  1.6535
 3723TIP3   OH211174   0.509   2.655   3.534 -0.2495 -0.1616 -0.0423
 3723TIP3    H111175   0.471   2.590   3.594 -1.4935  1.3989  0.9324
 3723TIP3    H211176   0.527   2.731   3.590  0.7671  0.5131 -1.2403
 3724TIP3   OH211177   5.876   5.118   2.504 -0.1395  0.0720 -0.4731
 3724TIP3    H111178   5.786   5.099   2.531 -0.4927  2.5226  0.3140
 3724TIP3    H211179   5.883   5.214   2.509  2.1091  0.0445 -1.8520
 3725TIP3   OH211180   1.636   3.191   4.074  0.0360 -0.2027 -0.2080
 3725TIP3    H111181   1.611   3.140   3.996 -0.6500 -0.6581  0.2959
 3725TIP3    H211182   1.587   3.273   4.066  0.4060 -0.0107 -0.5385
 3726TIP3   OH211183   3.184   4.871   4.446  0.4082  1.1418  0.5271
 3726TIP3    H111184   3.096   4.890   4.480 -0.6347 -0.0877 -1.3189
 3726TIP3    H211185   3.214   4.954   4.409 -1.3012  0.9364 -1.5193
 3727TIP3   OH211186   1.017   0.727   2.953 -0.0151  0.1771 -0.5966
 3727TIP3    H111187   0.983   0.649   2.998  1.2666 -0.0161  0.0624
 3727TIP3    H211188   0.989   0.716   2.862 -2.1041  0.2606 -0.0346
 3728TIP3   OH211189   0.120   0.250   4.381 -0.4639 -0.4225  0.5643
 3728TIP3    H111190   0.090   0.253   4.472 -0.9021 -1.1788  0.4546
 3728TIP3    H211191   0.061   0.188   4.338 -0.9080  0.6789 -0.4885
 3729TIP3   OH211192   2.269   4.949   0.636 -0.5936  0.4491  0.0059
 3729TIP3    H111193   2.285   4.857   0.658  0.4155  0.8009  0.8084
 3729TIP3    H211194   2.327   4.998   0.694  0.3244  1.5475 -1.7483
 3730TIP3   OH211195   2.654   2.303   2.855  0.3212  0.4086  0.6005
 3730TIP3    H111196   2.626   2.338   2.940  0.6350  0.4447  0.6884
 3730TIP3    H211197   2.738   2.262   2.872  0.9826  1.4880  0.0546
 3731TIP3   OH211198   3.380   2.227   2.551  0.5725  0.0217  0.0176
 3731TIP3    H111199   3.287   2.219   2.529  0.5576 -0.4725  0.2475
 3731TIP3    H211200   3.423   2.236   2.466  0.7839 -4.4782 -0.6066
 3732TIP3   OH211201   6.240   3.761   3.661  0.3219  0.1258  0.0406
 3732TIP3    H111202   6.326   3.765   3.619  0.1692  1.4033 -0.1918
 3732TIP3    H211203   6.253   3.800   3.748  0.1931 -0.6178  0.4014
 3733TIP3   OH211204   6.098   3.842   3.114  0.3760 -0.0217  0.1573
 3733TIP3    H111205   6.042   3.845   3.192 -0.4069 -0.5370 -0.3670
 3733TIP3    H211206   6.059   3.774   3.059  0.5559  0.7469 -0.9536
 3734TIP3   OH211207   1.188   3.774   1.555  0.4616 -0.3775 -0.3417
 3734TIP3    H111208   1.189   3.680   1.537 -2.4002 -0.3777 -1.0874
 3734TIP3    H211209   1.096   3.799   1.544  1.4676  2.9791 -2.5709
 3735TIP3   OH211210   3.661   0.790   2.634 -0.2826  0.2271 -0.0123
 3735TIP3    H111211   3.733   0.785   2.572  0.6000  0.3116  0.9694
 3735TIP3    H211212   3.696   0.842   2.707 -1.3422  0.2833  0.4779
 3736TIP3   OH211213   0.495   5.227   3.486 -0.0354  0.2680  0.4404
 3736TIP3    H111214   0.530   5.264   3.405  0.3533  1.5939  1.1863
 3736TIP3    H211215   0.513   5.133   3.480  1.2580  0.5535 -0.3822
 3737TIP3   OH211216   3.334   5.672   3.095 -0.5574  0.1603 -0.0461
 3737TIP3    H111217   3.415   5.622   3.106 -0.7530 -0.0978  0.2094
 3737TIP3    H211218   3.364   5.758   3.064 -0.3113 -0.5847 -1.9857
 3738TIP3   OH211219   3.530   1.252   2.146  0.9493 -0.7961  0.0523
 3738TIP3    H111220   3.446   1.273   2.105  0.7720 -0.7461  0.4409
 3738TIP3    H211221   3.595   1.289   2.087  0.7619 -2.0071 -0.9750
 3739TIP3   OH211222   4.003   1.027   5.039  0.2776 -0.5680  0.1871
 3739TIP3    H111223   3.986   0.945   4.991  0.6339 -0.0927 -0.7714
 3739TIP3    H211224   4.038   1.086   4.973 -1.5984  0.9454  0.4654
 3740TIP3   OH211225   5.729   3.931   0.395  0.5913 -0.3514 -0.5586
 3740TIP3    H111226   5.807   3.936   0.450 -0.5027  0.0127  1.0294
 3740TIP3    H211227   5.761   3.902   0.310  2.5687  0.6790 -0.2102
 3741TIP3   OH211228   1.201   0.788   0.381 -0.4491  0.3584  0.6627
 3741TIP3    H111229   1.149   0.733   0.323  0.9595 -0.0455 -0.2707
 3741TIP3    H211230   1.221   0.732   0.456  0.3520 -0.1837  0.0628
 3742TIP3   OH211231   5.505   3.871   4.903  0.1800 -0.1200 -0.3194
 3742TIP3    H111232   5.588   3.887   4.947 -0.0670  0.5764 -0.0946
 3742TIP3    H211233   5.440   3.916   4.958 -0.2880 -0.2826 -0.7311
 3743TIP3   OH211234   4.384   0.832   4.006 -0.0107 -0.4483  0.6724
 3743TIP3    H111235   4.374   0.793   3.919 -0.6358 -0.7804  0.8855
 3743TIP3    H211236   4.462   0.886   3.999  0.6496 -1.4349  0.2605
 3744TIP3   OH211237   4.134   2.357   1.103 -0.0161 -0.2801  0.4433
 3744TIP3    H111238   4.105   2.421   1.167 -1.4641 -0.8848  0.4208
 3744TIP3    H211239   4.144   2.276   1.152  1.0311 -0.2539  0.3134
 3745TIP3   OH211240   1.607   2.762   0.710 -0.0631  0.6498 -0.0037
 3745TIP3    H111241   1.700   2.752   0.727 -0.0889  1.4455  0.6799
 3745TIP3    H211242   1.574   2.811   0.785 -0.8820  1.0683 -0.6177
 3746TIP3   OH211243   4.368   2.201   0.827 -0.1614 -0.0498  0.5294
 3746TIP3    H111244   4.403   2.284   0.859  0.7981 -0.0825 -0.3800
 3746TIP3    H211245   4.360   2.214   0.732 -0.6290 -0.7825  0.4622
 3747TIP3   OH211246   3.465   3.571   4.801  0.0059  0.5837  0.4324
 3747TIP3    H111247   3.485   3.502   4.863 -2.2570  0.6082  1.2919
 3747TIP3    H211248   3.510   3.545   4.720 -0.7079 -1.8831  0.7451
 3748TIP3   OH211249   0.788   0.040   1.541  0.6304  0.2547 -0.5375
 3748TIP3    H111250   0.771   0.132   1.525 -0.5015  0.2264  0.3746
 3748TIP3    H211251   0.856   0.017   1.478 -0.1486  1.3244 -1.8420
 3749TIP3   OH211252   3.877   1.700   1.490 -0.0424 -0.6929 -0.6444
 3749TIP3    H111253   3.917   1.619   1.460 -1.7263 -1.2102 -1.6606
 3749TIP3    H211254   3.947   1.765   1.484  1.2444 -1.9770 -0.1235
 3750TIP3   OH211255   6.325   1.734   3.443  0.2906 -0.0721 -0.6136
 3750TIP3    H111256   6.413   1.752   3.478 -0.0476  0.6527 -0.1097
 3750TIP3    H211257   6.289   1.821   3.425  0.0723 -0.3990 -1.8378
 3751TIP3   OH211258   3.782   2.439   0.464 -0.0220  0.0604  0.2199
 3751TIP3    H111259   3.809   2.348   0.473 -1.8062 -0.7476 -1.6641
 3751TIP3    H211260   3.720   2.453   0.535 -0.4795 -0.5194 -0.0588
 3752TIP3   OH211261   5.191   1.803   0.408 -0.1155  0.2966  0.3026
 3752TIP3    H111262   5.102   1.815   0.443  0.7664  0.6372  2.5910
 3752TIP3    H211263   5.210   1.885   0.363 -0.9980  0.1743 -0.3103
 3753TIP3   OH211264   0.682   5.823   2.133  0.2525 -0.7664  0.0087
 3753TIP3    H111265   0.741   5.764   2.180 -1.2858 -1.7712  0.7453
 3753TIP3    H211266   0.618   5.851   2.198  0.5339  1.2048 -0.5032
 3754TIP3   OH211267   5.103   1.098   2.781  0.0253 -0.6711  0.2904
 3754TIP3    H111268   5.129   1.129   2.868 -1.3440  1.6404 -0.0488
 3754TIP3    H211269   5.038   1.030   2.798  0.5766 -1.0220  1.0656
 3755TIP3   OH211270   0.491   4.934   4.761 -0.0722  0.1279 -0.2859
 3755TIP3    H111271   0.573   4.982   4.772  0.5508 -0.9567 -0.0738
 3755TIP3    H211272   0.448   4.977   4.687  1.3811 -0.1962 -1.3662
 3756TIP3   OH211273   4.518   3.723   0.507 -0.0133  0.2257 -0.0112
 3756TIP3    H111274   4.486   3.747   0.594  1.6010  1.0082  0.4189
 3756TIP3    H211275   4.474   3.783   0.447 -0.4840  0.2603  0.3657
 3757TIP3   OH211276   3.722   4.758   1.787 -0.0596 -0.8020  0.0431
 3757TIP3    H111277   3.800   4.799   1.823 -0.0501  0.7564 -1.6007
 3757TIP3    H211278   3.754   4.685   1.735  0.3982  0.2111 -1.1378
 3758TIP3   OH211279   2.485   4.430   0.114  0.2502 -0.2143 -0.3923
 3758TIP3    H111280   2.498   4.470   0.027 -1.5276  1.7625  0.1798
 3758TIP3    H211281   2.574   4.419   0.148  0.9245  0.3223 -1.8874
 3759TIP3   OH211282   4.785   1.926   0.202 -0.3121  0.2652  0.1386
 3759TIP3    H111283   4.857   1.921   0.140 -0.4483  2.2135 -0.2291
 3759TIP3    H211284   4.720   1.982   0.159 -1.2084  0.1382  1.2724
 3760TIP3   OH211285   2.368   5.125   2.196 -0.3873 -0.0096 -0.0019
 3760TIP3    H111286   2.369   5.217   2.223 -0.0794 -0.4636  1.6679
 3760TIP3    H211287   2.447   5.115   2.144 -0.1896  0.5797  0.1645
 3761TIP3   OH211288   6.240   0.888   4.091  0.2061  0.0772  0.0645
 3761TIP3    H111289   6.211   0.922   4.006  2.7821  0.3119 -0.8339
 3761TIP3    H211290   6.335   0.901   4.090  0.7936 -3.2051  1.5169
 3762TIP3   OH211291   5.150   3.318   3.155 -0.4758 -0.2749 -0.0587
 3762TIP3    H111292   5.077   3.312   3.216 -0.8751 -0.2800 -0.5287
 3762TIP3    H211293   5.137   3.245   3.094  0.8084 -1.2644  0.7822
 3763TIP3   OH211294   4.477   5.320   1.320  0.2332 -0.3248  0.1591
 3763TIP3    H111295   4.424   5.242   1.338  0.3910 -0.7831 -1.2994
 3763TIP3    H211296   4.562   5.285   1.292  1.8073  0.3793  3.5477
 3764TIP3   OH211297   3.838   1.783   1.059  0.0919 -0.0126  0.8931
 3764TIP3    H111298   3.753   1.744   1.082 -1.2589  1.5074 -1.1632
 3764TIP3    H211299   3.882   1.716   1.007 -0.2708 -0.4397  1.1235
 3765TIP3   OH211300   4.289   5.512   3.266 -0.4683  0.1216  0.4750
 3765TIP3    H111301   4.342   5.590   3.284 -1.0929  1.0298 -1.3914
 3765TIP3    H211302   4.324   5.477   3.185 -1.2987 -0.5592  0.3943
 3766TIP3   OH211303   5.843   3.502   3.550  0.3765  0.0487  0.3952
 3766TIP3    H111304   5.895   3.550   3.614  1.2391 -1.4071  0.8369
 3766TIP3    H211305   5.900   3.494   3.473 -0.1193  0.5380 -0.0366
 3767TIP3   OH211306   6.081   5.462   3.104 -0.3238  0.1493 -0.0937
 3767TIP3    H111307   6.058   5.514   3.181  1.4047 -1.9458  1.9739
 3767TIP3    H211308   6.083   5.371   3.135  2.8774 -0.5725 -1.8941
 3768TIP3   OH211309   1.024   2.651   0.768 -0.4414 -0.3760 -0.5433
 3768TIP3    H111310   1.112   2.615   0.759 -0.2726  0.1062 -0.8303
 3768TIP3    H211311   1.029   2.739   0.730 -1.0872 -0.4100 -0.7254
 3769TIP3   OH211312   2.158   0.552   1.331  0.5269 -0.0577 -0.5537
 3769TIP3    H111313   2.137   0.624   1.391  1.4957 -0.7513  0.6758
 3769TIP3    H211314   2.127   0.581   1.246 -0.2719  1.2616  0.1590
 3770TIP3   OH211315   4.017   4.148   4.337  0.4166  0.7300 -0.8581
 3770TIP3    H111316   3.951   4.208   4.371  1.7170  1.5041  0.3818
 3770TIP3    H211317   4.006   4.069   4.389  3.1156  2.2683  2.4081
 3771TIP3   OH211318   1.687   1.561   3.074  0.1541 -0.1986 -0.1110
 3771TIP3    H111319   1.679   1.469   3.048  0.8211  0.2636 -2.0830
 3771TIP3    H211320   1.638   1.609   3.008 -1.7697  0.8076  1.9145
 3772TIP3   OH211321   3.349   3.103   0.843  0.0568 -0.3194 -0.1305
 3772TIP3    H111322   3.354   3.053   0.924 -0.8269  0.8733  0.6921
 3772TIP3    H211323   3.277   3.164   0.857  2.4446  2.7464 -0.1424
 3773TIP3   OH211324   1.178   5.079   3.211  0.9961  0.6236 -0.1479
 3773TIP3    H111325   1.132   5.161   3.194  1.1285  0.6820 -0.2230
 3773TIP3    H211326   1.111   5.012   3.202  0.4171  0.8583  1.8855
 3774TIP3   OH211327   4.079   5.379   2.466  0.4822  0.1742  0.6345
 3774TIP3    H111328   4.137   5.445   2.428  0.3549  0.3830  0.8049
 3774TIP3    H211329   3.994   5.422   2.473  0.3612 -0.0566  0.6061
 3775TIP3   OH211330   5.423   1.053   2.929 -0.0056 -0.3875 -0.2031
 3775TIP3    H111331   5.509   1.067   2.969 -0.4627 -0.7607  0.9647
 3775TIP3    H211332   5.364   1.040   3.004 -0.7980 -1.7001 -1.0256
 3776TIP3   OH211333   6.121   5.349   3.620 -0.4790  0.1691  0.0010
 3776TIP3    H111334   6.066   5.271   3.629  1.3571 -1.3642 -1.0380
 3776TIP3    H211335   6.106   5.399   3.699 -1.0478 -1.7398  1.1649
 3777TIP3   OH211336   1.615   1.133   0.937 -0.2166 -0.0099 -0.2298
 3777TIP3    H111337   1.530   1.168   0.911 -0.6076 -0.9373 -0.2595
 3777TIP3    H211338   1.608   1.119   1.031 -0.1659 -0.2616 -0.2627
 3778TIP3   OH211339   5.657   0.715   2.343 -0.1425  0.0834 -0.1348
 3778TIP3    H111340   5.707   0.767   2.406  0.2808 -1.3809  0.7884
 3778TIP3    H211341   5.612   0.649   2.397 -1.0087 -0.2359 -1.2138
 3779TIP3   OH211342   1.294   0.983   0.566 -0.4337  0.5446 -1.2309
 3779TIP3    H111343   1.236   0.978   0.642 -0.8971  0.9141 -1.5566
 3779TIP3    H211344   1.375   0.941   0.595 -0.8572  0.0382 -0.7711
 3780TIP3   OH211345   0.797   0.967   3.106 -0.2221  0.1193  0.3479
 3780TIP3    H111346   0.846   0.900   3.154  0.3903 -0.7278 -1.3480
 3780TIP3    H211347   0.717   0.923   3.078 -0.2045  0.3364 -0.0582
 3781TIP3   OH211348   2.429   1.620   3.996  0.4926 -0.3359  0.5791
 3781TIP3    H111349   2.411   1.573   3.914 -1.1993 -2.8922  2.2492
 3781TIP3    H211350   2.444   1.551   4.060  0.3798  1.5154  2.7239
 3782TIP3   OH211351   3.153   3.610   1.738  0.1165 -0.4774 -0.0592
 3782TIP3    H111352   3.105   3.690   1.721  0.5691 -0.0446  0.6517
 3782TIP3    H211353   3.243   3.638   1.753 -0.1199 -0.8100  2.5396
 3783TIP3   OH211354   5.544   3.583   3.036 -0.2302 -0.2252 -0.2269
 3783TIP3    H111355   5.582   3.557   3.120 -1.9580 -3.1008 -0.2093
 3783TIP3    H211356   5.619   3.592   2.977  0.7971 -1.7103  0.7820
 3784TIP3   OH211357   4.962   4.866   3.609 -0.3256  0.0573  0.8000
 3784TIP3    H111358   4.891   4.896   3.551  0.0612  1.6192  1.1121
 3784TIP3    H211359   4.937   4.897   3.696  0.0670 -0.5958  1.1549
 3785TIP3   OH211360   1.951   0.732   2.245  0.3287 -0.1086  0.2592
 3785TIP3    H111361   1.954   0.828   2.247  2.2469 -0.0780 -1.2372
 3785TIP3    H211362   1.921   0.707   2.333 -0.0302  1.8318  0.7356
 3786TIP3   OH211363   5.881   5.202   0.476  0.1285 -0.2338 -0.1320
 3786TIP3    H111364   5.836   5.239   0.552 -0.6263 -3.1537  1.0143
 3786TIP3    H211365   5.967   5.176   0.510  1.0248  1.2751 -1.1555
 3787TIP3   OH211366   0.263   1.322   3.577 -0.0317 -0.3111 -0.1698
 3787TIP3    H111367   0.204   1.308   3.651  1.0716  0.0198  0.7952
 3787TIP3    H211368   0.265   1.237   3.532 -1.2440 -0.3171 -0.2361
 3788TIP3   OH211369   4.724   5.057  -0.005  0.2123 -0.2852 -0.5970
 3788TIP3    H111370   4.752   5.085   0.082 -0.1427 -1.3639 -0.1145
 3788TIP3    H211371   4.643   5.106  -0.022  1.0133  0.9534 -0.9241
 3789TIP3   OH211372   0.058   5.912   1.954 -0.0686 -0.2101 -0.3334
 3789TIP3    H111373   0.055   5.878   2.043  0.4386  0.7474  0.0674
 3789TIP3    H211374   0.006   5.851   1.903  0.2656 -1.1961  0.4742
 3790TIP3   OH211375   2.599   2.883   4.832 -0.0371  0.2081  0.3006
 3790TIP3    H111376   2.521   2.931   4.861 -0.4438 -1.5001  2.3035
 3790TIP3    H211377   2.615   2.819   4.902  2.5666 -0.1966 -0.5526
 3791TIP3   OH211378   0.342   1.521   5.044  0.8444 -0.0057 -0.1490
 3791TIP3    H111379   0.278   1.521   4.973  2.6575 -2.1188 -1.9784
 3791TIP3    H211380   0.394   1.600   5.029 -0.3215  0.9032  0.4285
 3792TIP3   OH211381   1.497   0.617   1.674  0.2652  0.3613 -1.0290
 3792TIP3    H111382   1.441   0.684   1.636  0.5808 -0.4272 -2.9759
 3792TIP3    H211383   1.491   0.543   1.614  2.4823 -0.1748 -0.6854
 3793TIP3   OH211384   5.361   5.101   0.193  0.3646 -0.1919  0.5962
 3793TIP3    H111385   5.382   5.012   0.165 -1.8384 -0.2458 -1.1762
 3793TIP3    H211386   5.405   5.157   0.128 -1.7768 -0.2026 -0.9687
 3794TIP3   OH211387   1.056   4.890   2.053 -0.4305 -0.3156 -0.3404
 3794TIP3    H111388   0.973   4.862   2.091 -0.9499 -1.1625 -2.0037
 3794TIP3    H211389   1.061   4.844   1.969  1.4173  0.2266 -0.5692
 3795TIP3   OH211390   4.802   1.397   2.232 -0.1077 -0.2326  0.1813
 3795TIP3    H111391   4.733   1.431   2.288  0.9825  0.0349  1.4273
 3795TIP3    H211392   4.836   1.475   2.186  0.3112 -0.1104  0.6784
 3796TIP3   OH211393   1.954   5.165   1.980  0.0099  0.7164  0.1926
 3796TIP3    H111394   1.982   5.075   1.999  1.1695  0.7291 -1.2743
 3796TIP3    H211395   1.860   5.157   1.961  0.3340 -0.4288 -1.1371
 3797TIP3   OH211396   6.112   3.567   1.457  0.2151 -0.1008 -0.6114
 3797TIP3    H111397   6.059   3.511   1.514 -0.7631  0.4057 -1.0153
 3797TIP3    H211398   6.201   3.558   1.492 -0.5817  1.5127  2.1035
 3798TIP3   OH211399   3.195   1.687   4.845 -0.0090  0.1617 -0.0553
 3798TIP3    H111400   3.275   1.725   4.808 -0.4797  0.0951 -1.1721
 3798TIP3    H211401   3.135   1.761   4.854  0.2713  0.2686  1.0884
 3799TIP3   OH211402   4.633   3.259   0.558  0.1550  0.0086 -0.1865
 3799TIP3    H111403   4.645   3.292   0.647 -0.9250  1.8367 -0.6627
 3799TIP3    H211404   4.577   3.324   0.516 -1.1475 -1.8951 -1.5830
 3800TIP3   OH211405   3.339   2.395   0.791 -0.0767  0.5818 -0.0980
 3800TIP3    H111406   3.352   2.490   0.797 -0.6277  0.6299  0.3702
 3800TIP3    H211407   3.339   2.365   0.882 -1.1792  0.3078 -0.1823
 3801TIP3   OH211408   1.123   1.266   0.830  0.3269  0.3194 -0.1232
 3801TIP3    H111409   1.041   1.307   0.857  0.6609  0.4160  0.7941
 3801TIP3    H211410   1.136   1.294   0.740 -1.5752 -1.1717 -0.9413
 3802TIP3   OH211411   2.911   1.541   4.569 -0.0198  0.1339 -0.2483
 3802TIP3    H111412   2.917   1.546   4.664  1.2920 -1.6145 -0.1804
 3802TIP3    H211413   2.855   1.465   4.553  2.0320 -1.3658 -0.7852
 3803TIP3   OH211414   3.132   4.536   4.878  0.0710 -0.7792  0.3946
 3803TIP3    H111415   3.137   4.626   4.848 -1.5249 -0.2572  1.5309
 3803TIP3    H211416   3.056   4.500   4.832 -0.6612 -0.8307  1.6014
 3804TIP3   OH211417   5.890   0.824   2.174  0.4917 -0.3499 -0.2480
 3804TIP3    H111418   5.874   0.884   2.101 -0.3206 -0.3391 -0.0641
 3804TIP3    H211419   5.803   0.802   2.207  0.7742  2.8075  3.3045
 3805TIP3   OH211420   2.257   4.198   4.053  0.4295 -0.3859 -0.2545
 3805TIP3    H111421   2.218   4.284   4.040  0.2353 -0.3208  0.7145
 3805TIP3    H211422   2.265   4.162   3.965 -0.1656  0.3242 -0.6070
 3806TIP3   OH211423   5.692   3.439   4.588  0.2102  0.4021 -0.0120
 3806TIP3    H111424   5.618   3.406   4.639 -1.4104  1.3309 -1.6404
 3806TIP3    H211425   5.718   3.519   4.633  0.5858 -0.1841  0.8464
 3807TIP3   OH211426   0.574   2.121   4.641 -0.1838 -0.0639  0.3739
 3807TIP3    H111427   0.575   2.099   4.548  0.9663 -1.9550  0.7696
 3807TIP3    H211428   0.645   2.069   4.678  0.4069  1.8082  2.0806
 3808TIP3   OH211429   0.652   3.709   2.204  0.4348  0.5171 -0.4153
 3808TIP3    H111430   0.630   3.693   2.112 -2.3215  1.3589  0.0119
 3808TIP3    H211431   0.739   3.670   2.215  0.6161 -0.0787 -3.2180
 3809TIP3   OH211432   2.195   1.372   2.036 -0.3679 -0.0722 -0.4282
 3809TIP3    H111433   2.158   1.340   1.954 -1.1971 -0.7118  0.1733
 3809TIP3    H211434   2.124   1.422   2.076  0.0070  0.1788 -0.0679
 3810TIP3   OH211435   5.409   1.180   0.437  0.0001 -0.2361  0.4248
 3810TIP3    H111436   5.481   1.209   0.380 -0.9173 -0.2548 -0.7842
 3810TIP3    H211437   5.361   1.260   0.458  0.9189 -0.0710  2.0768
 3811TIP3   OH211438   0.766   5.635   0.276  0.5466  0.8181 -0.4660
 3811TIP3    H111439   0.725   5.720   0.288 -2.3588 -0.5814  0.4057
 3811TIP3    H211440   0.845   5.639   0.330 -1.2619  1.8945  2.3107
 3812TIP3   OH211441   1.859   0.135   2.483  0.3166  0.4232  0.1502
 3812TIP3    H111442   1.768   0.142   2.454 -0.2197  0.3618  1.7213
 3812TIP3    H211443   1.897   0.221   2.462  0.4757 -0.1632 -2.2364
 3813TIP3   OH211444   1.809   0.097   5.028 -0.1927  0.1822  0.7176
 3813TIP3    H111445   1.725   0.053   5.015  0.8658 -1.9035  0.4056
 3813TIP3    H211446   1.850   0.051   5.101  1.2998  0.0729 -0.1241
 3814TIP3   OH211447   1.126   0.403   1.786 -0.6583  0.4025  0.6119
 3814TIP3    H111448   1.188   0.388   1.857 -0.0314  1.2858  0.2741
 3814TIP3    H211449   1.051   0.444   1.828  0.4442  2.6251  0.5610
 3815TIP3   OH211450   3.478   0.107   4.087  0.4128  0.0462 -0.6930
 3815TIP3    H111451   3.455   0.073   4.000 -2.4013  4.6808 -2.1403
 3815TIP3    H211452   3.567   0.141   4.077  0.0863  0.6228 -1.8681
 3816TIP3   OH211453   1.058   2.927   2.386 -0.2196  0.3128  0.1903
 3816TIP3    H111454   1.088   2.839   2.366  0.0484  0.6783 -1.1286
 3816TIP3    H211455   1.018   2.958   2.305 -1.9217  0.7742  1.1671
 3817TIP3   OH211456   6.305   2.981   0.586 -0.0617  0.9648 -0.7825
 3817TIP3    H111457   6.371   2.914   0.605 -0.2959  0.9055 -0.1528
 3817TIP3    H211458   6.333   3.058   0.635 -0.5474  0.8864 -0.3705
 3818TIP3   OH211459   4.779   1.767   1.718 -0.6184 -0.2145  0.0646
 3818TIP3    H111460   4.794   1.726   1.633 -1.2019 -1.3859  0.5059
 3818TIP3    H211461   4.859   1.750   1.768  0.3665  1.7799 -0.6955
 3819TIP3   OH211462   4.019   0.002   4.930 -0.1762  0.6014  0.1217
 3819TIP3    H111463   4.074  -0.027   5.003  1.8010  0.1148 -1.4467
 3819TIP3    H211464   4.029   0.097   4.930  0.3088  0.5529  0.1233
 3820TIP3   OH211465   2.052   2.260   2.220 -0.1913  0.2172 -0.7125
 3820TIP3    H111466   2.138   2.301   2.232  0.6067 -1.2124 -1.2974
 3820TIP3    H211467   1.991   2.334   2.215  0.9590  1.2578 -0.0785
 3821TIP3   OH211468   1.065   4.752   5.015  0.2553  0.3671 -0.4170
 3821TIP3    H111469   0.971   4.750   5.031  0.1863  0.2498 -0.8152
 3821TIP3    H211470   1.073   4.774   4.922  0.6241  0.5541 -0.3434
 3822TIP3   OH211471   2.391   1.110   1.089 -0.7917 -0.4955  0.0149
 3822TIP3    H111472   2.297   1.129   1.081 -0.6242  1.0096  1.1725
 3822TIP3    H211473   2.429   1.191   1.121  1.0323 -0.8815 -1.0393
 3823TIP3   OH211474   2.768   4.658   3.022  0.2858  0.3151  0.1215
 3823TIP3    H111475   2.739   4.616   3.103  2.4825 -1.6626 -0.0363
 3823TIP3    H211476   2.776   4.587   2.959  2.0088  1.2657 -0.7987
 3824TIP3   OH211477   5.763   2.967   2.067  0.5119  0.5943 -0.4558
 3824TIP3    H111478   5.852   3.003   2.058  0.3358  1.6122  1.3570
 3824TIP3    H211479   5.719   3.029   2.125 -1.3160 -0.0616 -1.0849
 3825TIP3   OH211480   6.007   4.446   4.447 -0.1787 -0.1195 -1.0114
 3825TIP3    H111481   6.084   4.502   4.449  0.7409 -1.3536  0.5225
 3825TIP3    H211482   5.933   4.507   4.444  0.7853  1.2008  0.4200
 3826TIP3   OH211483   4.811   0.437   2.966  0.0853 -0.4839 -0.2175
 3826TIP3    H111484   4.891   0.443   3.018  0.2218 -1.2947 -0.3248
 3826TIP3    H211485   4.744   0.480   3.020  0.5855  0.2060 -0.1347
 3827TIP3   OH211486   1.817   0.958   3.069  0.0548  0.3986 -0.1623
 3827TIP3    H111487   1.856   1.026   3.013  1.8429 -0.2310  0.2449
 3827TIP3    H211488   1.803   0.884   3.011  2.4999 -0.4760  0.2653
 3828TIP3   OH211489   0.907   5.872   2.297  0.3938  0.0685  0.8005
 3828TIP3    H111490   0.855   5.943   2.335 -2.0015 -0.5121 -1.1209
 3828TIP3    H211491   0.902   5.801   2.361  0.2430  0.6013  1.3842
 3829TIP3   OH211492   2.862   5.361   0.618 -0.1536  0.1982  0.4890
 3829TIP3    H111493   2.874   5.319   0.533 -1.4127 -1.5942  1.1221
 3829TIP3    H211494   2.935   5.330   0.671  0.9339  1.7393 -0.0346
 3830TIP3   OH211495   4.352   3.503   3.870  0.0777 -0.7863  0.0409
 3830TIP3    H111496   4.274   3.541   3.830 -1.2253 -2.5395  0.7874
 3830TIP3    H211497   4.356   3.414   3.836  0.7606 -1.2725  1.3297
 3831TIP3   OH211498   4.083   3.130   1.357  0.1216 -0.1763 -0.2845
 3831TIP3    H111499   4.121   3.043   1.344 -1.7510 -1.0215 -0.4204
 3831TIP3    H211500   4.055   3.157   1.269 -2.4886 -1.0289  0.2123
 3832TIP3   OH211501   6.167   5.895   1.740  0.3625  0.2807 -0.0231
 3832TIP3    H111502   6.215   5.837   1.799  0.9293  0.1565 -0.5998
 3832TIP3    H211503   6.198   5.871   1.653 -0.2119  0.7035 -0.3466
 3833TIP3   OH211504   5.106   2.638   4.021  0.6867  0.0160 -0.1156
 3833TIP3    H111505   5.163   2.714   4.029  0.1023  0.3583  1.1352
 3833TIP3    H211506   5.061   2.649   3.937  0.4573  1.1737  0.1462
 3834TIP3   OH211507   6.261   5.559   2.391  0.0057 -0.1537 -0.3457
 3834TIP3    H111508   6.250   5.579   2.484 -2.3770  1.7312 -0.9091
 3834TIP3    H211509   6.317   5.482   2.389  0.5817  0.0679  2.6061
 3835TIP3   OH211510   1.427   2.118   3.897 -0.0657  0.2902 -0.4451
 3835TIP3    H111511   1.358   2.173   3.935 -1.2279 -1.0818 -0.4953
 3835TIP3    H211512   1.383   2.067   3.830  0.2114 -2.8970  1.5733
 3836TIP3   OH211513   1.809   3.750   1.965  0.8781  0.3509 -0.1724
 3836TIP3    H111514   1.731   3.700   1.940  1.2640  0.1777 -1.0769
 3836TIP3    H211515   1.780   3.841   1.967  0.7448  0.3306 -0.9256
 3837TIP3   OH211516   0.940   5.595   3.851  0.1978  0.0323 -0.3946
 3837TIP3    H111517   0.919   5.531   3.782 -2.2316 -1.8608  1.9090
 3837TIP3    H211518   0.995   5.547   3.912  0.1574  0.8482  0.2981
 3838TIP3   OH211519   0.973   2.518   1.461  0.1045 -0.4076 -0.0351
 3838TIP3    H111520   0.887   2.481   1.442  1.0790 -1.3912 -3.0480
 3838TIP3    H211521   1.003   2.471   1.539 -2.0065 -0.0219  1.1001
 3839TIP3   OH211522   0.661   1.245   3.773  0.3986  0.8388  0.3593
 3839TIP3    H111523   0.616   1.269   3.692 -1.3592 -1.1539  0.6581
 3839TIP3    H211524   0.752   1.271   3.758 -0.3407  2.8704 -1.2067
 3840TIP3   OH211525   4.719   4.510   3.373  0.8702 -0.3856  0.1732
 3840TIP3    H111526   4.705   4.486   3.281 -2.2809  2.1991 -0.1850
 3840TIP3    H211527   4.811   4.534   3.378  0.7410  1.1362 -2.7995
 3841TIP3   OH211528   5.336   0.410   3.700 -0.3460  0.0932  0.6452
 3841TIP3    H111529   5.403   0.479   3.698  0.7457 -0.7045  3.8419
 3841TIP3    H211530   5.380   0.333   3.665 -0.2628  0.0752  0.7877
 3842TIP3   OH211531   2.657   2.798   4.591  0.2035 -0.1237 -0.4488
 3842TIP3    H111532   2.642   2.847   4.672  0.7354 -2.1891  1.0107
 3842TIP3    H211533   2.591   2.830   4.530 -0.5251  1.1878  0.9600
 3843TIP3   OH211534   2.171   2.114   3.847 -0.2988  0.7412  0.3308
 3843TIP3    H111535   2.193   2.032   3.891 -0.4634 -1.6827 -3.6595
 3843TIP3    H211536   2.094   2.093   3.794  2.1040  2.0021 -4.1822
 3844TIP3   OH211537   0.844   3.554   0.170  0.3416 -0.1132 -0.5500
 3844TIP3    H111538   0.772   3.613   0.190  0.5556 -0.5436  1.7690
 3844TIP3    H211539   0.923   3.603   0.194  0.5572 -1.0103  0.7052
 3845TIP3   OH211540   5.493   3.448   4.004 -0.5054  0.6307 -0.4040
 3845TIP3    H111541   5.504   3.433   4.097 -0.4610 -0.3467 -0.5632
 3845TIP3    H211542   5.554   3.519   3.983  1.5317 -1.0114 -0.2287
 3846TIP3   OH211543   0.169   3.863   2.523  0.1369  0.2615 -0.3519
 3846TIP3    H111544   0.201   3.801   2.458  0.9846 -1.3956  1.5543
 3846TIP3    H211545   0.239   3.927   2.532  0.1933  0.2576 -0.7353
 3847TIP3   OH211546   4.540   2.574   2.586  0.1534  0.1594  0.3004
 3847TIP3    H111547   4.478   2.601   2.519  0.6254 -0.3719 -0.3646
 3847TIP3    H211548   4.508   2.490   2.616  0.8020 -0.3538 -0.3976
 3848TIP3   OH211549   5.039   0.446   3.113  0.1918  0.2495 -0.1051
 3848TIP3    H111550   5.058   0.494   3.193  0.9884 -0.4465  0.1338
 3848TIP3    H211551   5.084   0.494   3.044  0.5845  0.1128  0.0580
 3849TIP3   OH211552   1.459   1.738   0.075 -0.9888 -0.2671  0.8290
 3849TIP3    H111553   1.364   1.742   0.066 -0.8612 -0.7471 -1.5150
 3849TIP3    H211554   1.479   1.644   0.081 -0.5481 -0.4496 -1.9672
 3850TIP3   OH211555   0.555   3.883   4.650  0.2403 -0.1574 -0.2559
 3850TIP3    H111556   0.576   3.937   4.727  0.9830  1.1181 -1.3157
 3850TIP3    H211557   0.607   3.804   4.662 -0.3335 -0.3852  0.9789
 3851TIP3   OH211558   6.029   1.927   1.806 -0.5374 -0.1838 -0.2416
 3851TIP3    H111559   6.013   1.874   1.884 -1.0074  0.6685  0.2656
 3851TIP3    H211560   6.101   1.985   1.831 -0.3030 -0.2915 -0.6486
 3852TIP3   OH211561   4.931   3.996   2.969  0.3609 -0.3933  0.3168
 3852TIP3    H111562   4.976   3.946   2.902  3.3856  2.2478  0.1204
 3852TIP3    H211563   4.942   3.946   3.050  0.5280 -1.4788 -0.3693
 3853TIP3   OH211564   5.327   4.381   4.727 -0.3113  0.2517  0.1547
 3853TIP3    H111565   5.237   4.372   4.759 -0.6897  1.1193 -0.5988
 3853TIP3    H211566   5.351   4.471   4.747  0.5157 -0.0618  0.6167
 3854TIP3   OH211567   1.763   5.282   3.333  0.7647  0.4592 -0.2501
 3854TIP3    H111568   1.753   5.368   3.374  0.4430  0.1726  0.2851
 3854TIP3    H211569   1.836   5.242   3.380  1.1850  0.5958 -0.7786
 3855TIP3   OH211570   5.531   5.544   2.419  0.0720  0.2254 -1.2177
 3855TIP3    H111571   5.497   5.498   2.496  1.1976  0.8497 -0.3292
 3855TIP3    H211572   5.564   5.627   2.453 -0.7337  1.1501 -2.6019
 3856TIP3   OH211573   5.258   4.041   4.764 -0.3651  0.1746  0.3593
 3856TIP3    H111574   5.169   4.034   4.729 -0.1320  0.0338 -0.2290
 3856TIP3    H211575   5.254   4.112   4.828 -1.1534 -0.5663  1.1487
 3857TIP3   OH211576   2.893   3.128   1.190 -0.2245  0.5015 -0.2866
 3857TIP3    H111577   2.952   3.071   1.239  0.2005  0.6303 -0.6412
 3857TIP3    H211578   2.865   3.194   1.254  0.7185  0.9639 -0.3342
 3858TIP3   OH211579   0.586   1.561   1.116 -0.1927 -0.4323 -0.5486
 3858TIP3    H111580   0.564   1.654   1.104  0.0118 -0.3937 -0.6271
 3858TIP3    H211581   0.638   1.560   1.196  2.5076 -0.0365 -2.1574
 3859TIP3   OH211582   1.892   0.994   2.161  0.0522 -0.0255  0.3766
 3859TIP3    H111583   1.796   0.995   2.163 -0.1309 -2.0932 -1.8329
 3859TIP3    H211584   1.914   0.979   2.069  2.5328  0.7560  0.7588
 3860TIP3   OH211585   1.386   3.219   2.982  0.1775 -0.3371  0.6107
 3860TIP3    H111586   1.470   3.265   2.976 -0.5937  1.1847  0.9278
 3860TIP3    H211587   1.361   3.225   3.074  0.5899 -2.4862  0.9236
 3861TIP3   OH211588   3.556   2.060   0.915 -0.0911 -0.0016 -0.2831
 3861TIP3    H111589   3.617   2.119   0.959  0.0740 -0.7390  0.4986
 3861TIP3    H211590   3.495   2.034   0.983  0.8523 -2.0792 -0.1788
 3862TIP3   OH211591   6.051   1.701   3.413 -0.7518 -0.0575  0.1496
 3862TIP3    H111592   6.139   1.706   3.451 -1.1041  0.3697  0.9330
 3862TIP3    H211593   5.993   1.724   3.486 -1.4596  0.5057 -0.5820
 3863TIP3   OH211594   3.954   1.861   2.870  0.5179  0.0766  0.0188
 3863TIP3    H111595   3.916   1.779   2.902 -0.2816  0.5448  0.3003
 3863TIP3    H211596   4.013   1.835   2.800  0.5060 -0.7656  0.3105
 3864TIP3   OH211597   2.969   0.271   3.328  0.8934  0.0365  0.7349
 3864TIP3    H111598   2.957   0.359   3.364  2.9309  0.1782  1.2274
 3864TIP3    H211599   2.932   0.275   3.240 -0.4178  0.9124  1.3035
 3865TIP3   OH211600   5.422   2.205   4.817 -0.8527  0.2083 -0.2571
 3865TIP3    H111601   5.472   2.125   4.798 -1.0856 -0.2236  0.8688
 3865TIP3    H211602   5.361   2.213   4.745 -1.4613 -1.1679  0.0756
 3866TIP3   OH211603   5.977   1.643   2.545  0.4813 -0.0225  0.3782
 3866TIP3    H111604   5.974   1.738   2.553  2.2529  0.0413  0.6662
 3866TIP3    H211605   5.903   1.622   2.487 -1.3834  1.2585  2.1454
 3867TIP3   OH211606   3.311   3.595   0.591  0.4588 -0.0049 -0.1241
 3867TIP3    H111607   3.237   3.610   0.533  1.3612  0.0028 -1.3151
 3867TIP3    H211608   3.380   3.652   0.557  1.7033 -1.5852 -0.4220
 3868TIP3   OH211609   3.614   3.883   0.052  0.8249  0.0340  0.0391
 3868TIP3    H111610   3.525   3.907   0.025  0.8938 -0.2386 -0.4387
 3868TIP3    H211611   3.626   3.926   0.136  0.3080  0.2321  0.0130
 3869TIP3   OH211612   0.800   2.405   3.912  0.1376  0.4730 -0.4488
 3869TIP3    H111613   0.788   2.460   3.835  1.5561  2.0130  0.3699
 3869TIP3    H211614   0.753   2.452   3.982  1.7648  0.9551  0.3655
 3870TIP3   OH211615   1.649   0.308   4.129  0.1529 -0.5433  0.7530
 3870TIP3    H111616   1.627   0.227   4.176 -0.1677  0.6126  2.6829
 3870TIP3    H211617   1.569   0.330   4.082  0.0292 -0.9997  0.7395
 3871TIP3   OH211618   3.350   5.864   3.843 -0.2930  0.1441  0.8245
 3871TIP3    H111619   3.257   5.872   3.863 -0.4001  0.9770  0.0553
 3871TIP3    H211620   3.366   5.769   3.843 -1.1347 -0.0085  0.9565
 3872TIP3   OH211621   1.942   1.234   4.889 -0.7247 -0.1284 -0.0623
 3872TIP3    H111622   1.958   1.280   4.971  0.3549 -0.7591  0.0950
 3872TIP3    H211623   1.867   1.177   4.907 -0.2641 -0.5348  0.6114
 3873TIP3   OH211624   6.021   4.733   1.564  0.8320 -0.8568  0.2607
 3873TIP3    H111625   5.941   4.750   1.514 -0.6557 -0.8852  2.4751
 3873TIP3    H211626   6.032   4.638   1.560 -0.0420 -1.0074  1.0107
 3874TIP3   OH211627   1.131   4.821   2.777 -0.5371  0.0687 -0.4904
 3874TIP3    H111628   1.149   4.759   2.847 -0.1318 -0.8690 -1.4003
 3874TIP3    H211629   1.177   4.901   2.803  1.3738 -0.9175 -0.6515
 3875TIP3   OH211630   5.232   5.103   2.455 -0.0480 -0.5691  0.2968
 3875TIP3    H111631   5.303   5.141   2.507 -0.6166  1.0404 -0.0433
 3875TIP3    H211632   5.222   5.014   2.490  0.1885  0.1459  2.3586
 3876TIP3   OH211633   6.375   3.679   2.966  0.0192  0.0082  0.0978
 3876TIP3    H111634   6.374   3.681   2.870  1.4721 -0.0520  0.0656
 3876TIP3    H211635   6.290   3.715   2.991 -0.9290 -1.1945 -1.2106
 3877TIP3   OH211636   1.663   2.776   4.346  0.4706 -0.3345  0.2925
 3877TIP3    H111637   1.643   2.782   4.439 -2.3613  0.3454 -0.2793
 3877TIP3    H211638   1.599   2.833   4.304  0.6968 -1.7657 -2.1759
 3878TIP3   OH211639   1.286   1.609   2.920  0.0415 -0.7129  0.1365
 3878TIP3    H111640   1.285   1.528   2.971 -0.7679 -1.9360 -1.7105
 3878TIP3    H211641   1.208   1.656   2.948  0.2643 -0.7818  0.8916
 3879TIP3   OH211642   6.194   5.399   0.916 -0.3181 -0.4037  0.0042
 3879TIP3    H111643   6.271   5.410   0.971 -0.0388 -0.8516 -0.2861
 3879TIP3    H211644   6.229   5.374   0.830 -0.7258  0.5856 -0.4707
 3880TIP3   OH211645   0.297   3.331   4.074  0.9025 -0.0219 -0.1581
 3880TIP3    H111646   0.292   3.266   4.004 -1.4870 -1.4310  1.1788
 3880TIP3    H211647   0.248   3.407   4.041  2.6697  0.7009 -1.2487
 3881TIP3   OH211648   0.446   2.904   4.060 -0.2569  0.7397  0.2955
 3881TIP3    H111649   0.469   2.830   4.116 -1.6017  1.0757  1.3294
 3881TIP3    H211650   0.458   2.871   3.971  1.0742 -0.0764  0.7462
 3882TIP3   OH211651   2.845   3.758   4.866  0.0513 -0.1563  0.7874
 3882TIP3    H111652   2.841   3.829   4.930 -2.5729 -0.0757  0.6531
 3882TIP3    H211653   2.780   3.695   4.897 -1.2228 -0.1674 -1.6869
 3883TIP3   OH211654   1.338   1.765   2.381  0.1411  0.4550  0.4712
 3883TIP3    H111655   1.340   1.829   2.452  4.1538  1.1910 -0.0507
 3883TIP3    H211656   1.421   1.719   2.388 -0.8998 -1.9733 -1.6128
 3884TIP3   OH211657   5.383   0.876   2.374 -0.2951 -0.4980  0.0875
 3884TIP3    H111658   5.469   0.836   2.361 -0.4654 -0.8765  0.0949
 3884TIP3    H211659   5.371   0.931   2.296 -0.8612 -1.9415 -0.8951
 3885TIP3   OH211660   4.085   2.337   0.830  0.2065 -0.1756  0.5113
 3885TIP3    H111661   4.065   2.246   0.806 -1.7083  0.0016  1.3108
 3885TIP3    H211662   4.104   2.333   0.924  2.6269 -0.0747  0.1079
 3886TIP3   OH211663   3.139   2.090   3.537 -0.1034  0.1518 -0.6561
 3886TIP3    H111664   3.228   2.118   3.559 -0.7135  1.1950  0.6355
 3886TIP3    H211665   3.084   2.128   3.606 -1.4108 -1.4870 -0.7436
 3887TIP3   OH211666   0.736   0.615   4.723 -0.0592  0.2248 -0.0721
 3887TIP3    H111667   0.712   0.526   4.698  1.4408 -0.0229 -0.7260
 3887TIP3    H211668   0.654   0.654   4.754 -0.9318 -1.0726 -0.6580
 3888TIP3   OH211669   1.497   5.345   1.501  0.2933  0.7024  0.3318
 3888TIP3    H111670   1.559   5.333   1.428  0.1713 -0.2871  0.3802
 3888TIP3    H211671   1.412   5.354   1.458  0.0680 -0.9745  0.3705
 3889TIP3   OH211672   0.616   3.875   1.727  0.0220 -0.0621  0.4166
 3889TIP3    H111673   0.525   3.863   1.701 -0.3837  2.7285  0.2342
 3889TIP3    H211674   0.654   3.930   1.658  1.4401  0.0513  1.2348
 3890TIP3   OH211675   5.356   1.043   4.893 -0.3714  0.4200  0.0082
 3890TIP3    H111676   5.342   1.053   4.987  0.5031  1.3077  0.0682
 3890TIP3    H211677   5.321   1.124   4.855 -0.0675  0.3881 -0.3449
 3891TIP3   OH211678   5.154   1.373   4.319  0.0873  0.7170  0.3694
 3891TIP3    H111679   5.212   1.297   4.328 -2.0806 -0.8399  2.4396
 3891TIP3    H211680   5.136   1.399   4.409  1.0558  4.0427 -0.2762
 3892TIP3   OH211681   3.366   1.641   5.120 -0.2622 -0.0582 -0.4987
 3892TIP3    H111682   3.459   1.640   5.096  0.5552 -0.1315  2.3791
 3892TIP3    H211683   3.333   1.556   5.090  0.1943  0.4955 -2.7732
 3893TIP3   OH211684   3.445   2.688   4.869 -0.3234  0.2552 -0.4082
 3893TIP3    H111685   3.384   2.686   4.942 -0.1420  0.7196 -0.2433
 3893TIP3    H211686   3.439   2.777   4.834 -1.6405 -0.4113 -2.0159
 3894TIP3   OH211687   2.237   4.233   1.296 -0.1290  0.0839 -0.3081
 3894TIP3    H111688   2.234   4.203   1.386  0.4280  1.6260  0.2671
 3894TIP3    H211689   2.185   4.314   1.296  2.1006  1.6309 -0.6782
 3895TIP3   OH211690   3.866   4.533   1.697  0.3711 -0.2149  0.3362
 3895TIP3    H111691   3.802   4.462   1.688 -0.0545  0.2762 -0.6783
 3895TIP3    H211692   3.940   4.505   1.643  1.9844 -1.7765  3.1536
 3896TIP3   OH211693   1.691   0.348   1.848 -0.3529  0.0477  0.3444
 3896TIP3    H111694   1.724   0.258   1.851 -2.1925 -0.6625  0.9932
 3896TIP3    H211695   1.770   0.403   1.849  0.8039 -1.5395  0.2161
 3897TIP3   OH211696   2.017   0.281   1.260  0.2696  0.0702  0.8127
 3897TIP3    H111697   2.075   0.212   1.229 -0.7305  0.1756 -1.5301
 3897TIP3    H211698   2.075   0.348   1.295  1.4770 -0.4740 -0.0873
 3898TIP3   OH211699   5.669   2.203   1.194  0.0086  0.6281  0.2170
 3898TIP3    H111700   5.755   2.230   1.224  0.1574 -0.0815  0.4355
 3898TIP3    H211701   5.672   2.215   1.099  0.8177 -0.6292  0.0535
 3899TIP3   OH211702   5.542   0.711   2.732  0.1964 -0.9116  0.7023
 3899TIP3    H111703   5.462   0.713   2.784  0.6996  0.7272  1.4942
 3899TIP3    H211704   5.598   0.777   2.773  1.1406 -0.5372 -1.1044
 3900TIP3   OH211705   4.799   0.164   1.578  0.4328 -0.0510 -0.9065
 3900TIP3    H111706   4.817   0.254   1.604  1.2273 -0.3489 -0.3629
 3900TIP3    H211707   4.733   0.171   1.509 -0.2959  0.8767 -0.1422
 3901TIP3   OH211708   1.839   4.722   1.168 -0.0619  1.1128 -0.0671
 3901TIP3    H111709   1.799   4.804   1.197 -1.4650  0.3293  0.3071
 3901TIP3    H211710   1.775   4.654   1.191  1.0378 -0.0902 -0.4122
 3902TIP3   OH211711   3.704   3.481   2.588 -0.3149 -0.1455  0.0996
 3902TIP3    H111712   3.723   3.393   2.555  1.8726  0.1657  0.3235
 3902TIP3    H211713   3.692   3.534   2.509 -1.9769 -0.6607 -0.0348
 3903TIP3   OH211714   5.766   5.283   4.196  0.3272  0.0619 -0.4568
 3903TIP3    H111715   5.830   5.340   4.238  0.5472 -0.7718  0.3648
 3903TIP3    H211716   5.723   5.338   4.131  1.1432  0.9164 -0.2773
 3904TIP3   OH211717   5.015   2.501   5.082 -0.3257  0.6003 -0.3465
 3904TIP3    H111718   5.087   2.446   5.052  0.3656  1.4636 -0.2959
 3904TIP3    H211719   4.936   2.452   5.057  0.2635 -0.4011 -0.3075
 3905TIP3   OH211720   1.297   3.213   3.848 -0.0256 -0.3730 -0.1048
 3905TIP3    H111721   1.351   3.273   3.901 -0.7433  1.2245 -1.1243
 3905TIP3    H211722   1.210   3.219   3.886  0.0720 -1.4626  0.3219
 3906TIP3   OH211723   2.016   2.036   2.863  0.4788 -0.0304 -0.3549
 3906TIP3    H111724   2.084   1.969   2.871 -0.7443 -1.2249  0.6067
 3906TIP3    H211725   1.934   1.986   2.854 -0.3489  1.3527 -0.8069
 3907TIP3   OH211726   1.047   5.017   0.265 -0.3740 -0.2302 -0.3603
 3907TIP3    H111727   0.976   4.955   0.248 -1.2531  0.6917 -0.1637
 3907TIP3    H211728   1.079   5.042   0.178 -0.6677 -0.2347 -0.4711
 3908TIP3   OH211729   2.099   5.760   3.534 -0.1317 -0.0117  0.0883
 3908TIP3    H111730   2.169   5.786   3.474  0.5610  0.3249  1.0164
 3908TIP3    H211731   2.144   5.718   3.607 -0.8474  0.6703  0.9471
 3909TIP3   OH211732   1.241   0.578   0.828 -0.4062  0.0657 -0.3787
 3909TIP3    H111733   1.324   0.624   0.839  1.5024 -2.6120 -2.2642
 3909TIP3    H211734   1.238   0.517   0.902 -0.9206  0.3858 -0.1252
 3910TIP3   OH211735   4.859   2.423   2.998 -0.2352 -0.6245  0.0725
 3910TIP3    H111736   4.784   2.434   3.057  0.5302 -0.3144  1.0310
 3910TIP3    H211737   4.920   2.368   3.047  0.2880 -0.6235 -0.5645
 3911TIP3   OH211738   2.612   2.642   1.602  0.2357 -0.5772  0.2585
 3911TIP3    H111739   2.563   2.656   1.683 -0.5166  0.9869 -0.4416
 3911TIP3    H211740   2.682   2.708   1.605  0.9081 -1.2744  0.1633
 3912TIP3   OH211741   5.146   3.851   5.095 -0.2532 -0.0305  0.2842
 3912TIP3    H111742   5.064   3.867   5.142 -1.0479  1.3408 -1.4433
 3912TIP3    H211743   5.118   3.817   5.010  0.9792  0.3345 -0.2812
 3913TIP3   OH211744   4.515   5.586   4.725  0.5491 -0.1491 -0.4331
 3913TIP3    H111745   4.521   5.546   4.812 -0.2490  1.9689  0.6579
 3913TIP3    H211746   4.428   5.627   4.723  0.9264  0.6591 -1.8697
 3914TIP3   OH211747   2.298   5.725   2.521  0.0056  0.7332  0.3321
 3914TIP3    H111748   2.242   5.801   2.537  0.0746  0.7574  0.4616
 3914TIP3    H211749   2.260   5.655   2.574  1.4049  1.3393  2.2424
 3915TIP3   OH211750   4.288   5.762   3.613 -0.3916 -0.1513  0.1882
 3915TIP3    H111751   4.202   5.781   3.651 -0.6239 -1.8954  0.6466
 3915TIP3    H211752   4.298   5.667   3.623  0.7231 -0.2883 -1.6845
 3916TIP3   OH211753   1.790   1.825   2.787  0.6355  0.5545 -0.0178
 3916TIP3    H111754   1.714   1.784   2.829  1.5264  0.5314  1.6222
 3916TIP3    H211755   1.860   1.761   2.796  0.3830 -0.4524 -3.6009
 3917TIP3   OH211756   0.597   1.263   0.658  0.1243  0.4203  0.2239
 3917TIP3    H111757   0.549   1.317   0.595  0.4057  0.7910  0.3254
 3917TIP3    H211758   0.612   1.321   0.733 -0.6513 -0.1645  0.8505
 3918TIP3   OH211759   0.355   4.792   2.047 -0.8530  0.7575 -0.3620
 3918TIP3    H111760   0.344   4.783   1.953 -0.9799 -1.0766 -0.1970
 3918TIP3    H211761   0.449   4.805   2.060 -0.8265  0.9248 -0.7279
 3919TIP3   OH211762   6.198   3.114   1.882 -0.0027 -0.5525 -0.2156
 3919TIP3    H111763   6.107   3.095   1.905 -0.1867  0.9034  0.3662
 3919TIP3    H211764   6.210   3.073   1.796 -1.5861  0.2490 -0.8613
 3920TIP3   OH211765   0.830   0.026   2.621 -0.3193  0.4391  0.1313
 3920TIP3    H111766   0.757  -0.032   2.644 -0.7870  1.1935  0.5738
 3920TIP3    H211767   0.789   0.110   2.604  0.3706  0.6698 -0.4044
 3921TIP3   OH211768   0.684   5.143   2.811 -0.0798  0.4459 -0.3830
 3921TIP3    H111769   0.711   5.220   2.761  0.4962  0.1285 -0.5632
 3921TIP3    H211770   0.765   5.096   2.830 -0.0412  1.5490  2.5526
 3922TIP3   OH211771   1.208   3.073   0.274 -0.8036 -0.2440  0.7202
 3922TIP3    H111772   1.250   2.997   0.234 -3.3934 -0.7271 -1.3484
 3922TIP3    H211773   1.278   3.138   0.280  0.5635 -1.4289 -1.2110
 3923TIP3   OH211774   4.830   1.636   2.911 -0.1377 -0.0882  0.3885
 3923TIP3    H111775   4.847   1.720   2.870 -0.8052  0.4764  1.2285
 3923TIP3    H211776   4.816   1.576   2.838  1.1370  0.3415 -0.2305
 3924TIP3   OH211777   6.334   1.094   4.893  0.4382  0.1496 -0.2873
 3924TIP3    H111778   6.280   1.086   4.973  0.9773 -1.8639 -0.0565
 3924TIP3    H211779   6.272   1.079   4.822  0.4920 -1.2476 -0.0662
 3925TIP3   OH211780   4.286   2.245   1.430  0.5216  0.0766 -0.4821
 3925TIP3    H111781   4.271   2.189   1.353  0.3262  1.0311 -1.1548
 3925TIP3    H211782   4.348   2.195   1.483  0.4936 -0.7008 -1.1490
 3926TIP3   OH211783   0.439   2.767   4.867 -0.6618 -0.0519 -0.2313
 3926TIP3    H111784   0.382   2.778   4.791  1.4160 -1.3038 -2.0796
 3926TIP3    H211785   0.467   2.855   4.889 -3.3435  0.6272  0.8527
 3927TIP3   OH211786   2.939   2.879   3.752  0.2894  0.3386 -0.8475
 3927TIP3    H111787   2.854   2.882   3.709  0.4912 -1.3286 -1.4663
 3927TIP3    H211788   2.924   2.828   3.832  0.9632 -1.4977 -1.8067
 3928TIP3   OH211789   2.600   5.403   0.225 -0.8816  0.8232 -0.0099
 3928TIP3    H111790   2.570   5.389   0.135  0.5114 -0.7593 -0.2712
 3928TIP3    H211791   2.526   5.375   0.279 -0.5104 -1.6009 -0.6539
 3929TIP3   OH211792   5.316   0.957   2.123 -0.7150  0.5666  0.2171
 3929TIP3    H111793   5.231   0.960   2.078  0.1686  0.9331 -1.5039
 3929TIP3    H211794   5.370   0.900   2.068 -0.2207 -0.8448  2.0584
 3930TIP3   OH211795   4.765   5.706   2.064  0.0630  0.2370  0.9662
 3930TIP3    H111796   4.732   5.685   2.151  2.1041 -1.2830  1.4423
 3930TIP3    H211797   4.820   5.783   2.077 -0.1567  0.4058  0.8972
 3931TIP3   OH211798   2.946   1.620   3.744 -0.9749  0.2491  0.2772
 3931TIP3    H111799   2.880   1.561   3.780  0.2685 -0.2942  1.7417
 3931TIP3    H211800   2.977   1.670   3.820 -0.5011  1.3056 -0.5888
 3932TIP3   OH211801   2.070   5.684   4.728  0.1942 -0.6213 -0.2847
 3932TIP3    H111802   2.069   5.637   4.645  2.0066  0.3097 -0.8805
 3932TIP3    H211803   2.015   5.760   4.714 -0.4233 -1.0530 -0.2442
 3933TIP3   OH211804   2.636   3.469   1.494  0.3250  0.0900 -0.3257
 3933TIP3    H111805   2.640   3.549   1.546  2.3733 -0.3688  0.3434
 3933TIP3    H211806   2.553   3.474   1.447  0.5275  2.7511 -0.5593
 3934TIP3   OH211807   4.920   3.327   0.275 -0.2962  0.3422 -0.5205
 3934TIP3    H111808   4.941   3.357   0.363 -0.8611 -0.4044 -0.1206
 3934TIP3    H211809   4.830   3.295   0.281 -1.3466  2.6796 -1.9615
 3935TIP3   OH211810   1.609   4.785   3.119 -0.1324  0.3603 -0.1002
 3935TIP3    H111811   1.550   4.834   3.176 -0.9709 -0.2745 -0.3926
 3935TIP3    H211812   1.637   4.848   3.053  0.2935  0.9163  0.6065
 3936TIP3   OH211813   3.571   1.654   1.073 -0.0536  0.0302 -0.2157
 3936TIP3    H111814   3.499   1.706   1.036  0.2253 -0.8470 -2.0752
 3936TIP3    H211815   3.530   1.573   1.101  0.1268 -0.2989 -0.8876
 3937TIP3   OH211816   4.120   1.696   0.821 -0.3404 -0.1874 -0.2652
 3937TIP3    H111817   4.092   1.775   0.867 -2.2033  1.6741 -4.1139
 3937TIP3    H211818   4.068   1.626   0.860 -0.2605  0.8079  1.7699
 3938TIP3   OH211819   6.297   4.225   3.832  0.2900 -0.1660 -0.6742
 3938TIP3    H111820   6.251   4.185   3.758 -0.4486 -0.0344 -0.2964
 3938TIP3    H211821   6.256   4.186   3.910  0.7031  0.0786 -0.3301
 3939TIP3   OH211822   5.019   2.195   5.132  0.3984 -0.7461 -0.0506
 3939TIP3    H111823   5.015   2.194   5.228 -0.4407 -1.5331 -0.0780
 3939TIP3    H211824   4.963   2.123   5.105 -0.4825  0.3045 -1.1662
 3940TIP3   OH211825   1.751   3.660   4.951  0.3443 -0.2175  0.0382
 3940TIP3    H111826   1.787   3.581   4.992 -0.9610 -0.5778  0.5446
 3940TIP3    H211827   1.743   3.723   5.022  0.2930 -0.0321 -0.1312
 3941TIP3   OH211828   4.002   3.247   0.943  0.5111 -0.1106 -0.9453
 3941TIP3    H111829   3.911   3.225   0.964  1.2897 -2.8170  0.0841
 3941TIP3    H211830   4.009   3.341   0.962 -2.3302  0.4732 -2.2735
 3942TIP3   OH211831   0.927   3.606   0.983  0.4407  0.8584  0.2257
 3942TIP3    H111832   0.911   3.545   1.055  1.3098  0.4916  0.1178
 3942TIP3    H211833   0.961   3.685   1.026 -0.6608  1.2808  0.3628
 3943TIP3   OH211834   6.190   0.732   2.026 -0.0379  0.8066  0.0255
 3943TIP3    H111835   6.171   0.692   2.111 -1.3889  0.5249 -0.3797
 3943TIP3    H211836   6.233   0.663   1.976 -0.4643  0.5300  0.0359
 3944TIP3   OH211837   5.261   4.811   0.324  0.3949  0.6771  0.1278
 3944TIP3    H111838   5.337   4.849   0.279  0.1751  0.1568 -0.6953
 3944TIP3    H211839   5.298   4.739   0.376  0.1216 -1.9816 -3.0183
 3945TIP3   OH211840   4.614   3.592   2.746  0.2449  0.1528  0.5330
 3945TIP3    H111841   4.608   3.665   2.808 -1.3358 -0.5003  1.2118
 3945TIP3    H211842   4.665   3.526   2.793  1.7879  0.8386 -0.1319
 3946TIP3   OH211843   2.138   0.762   2.003  0.2357  0.1596  0.7604
 3946TIP3    H111844   2.121   0.752   2.096 -0.1332  1.2954  0.8241
 3946TIP3    H211845   2.059   0.804   1.968  0.6539  0.3784  0.0552
 3947TIP3   OH211846   3.479   0.730   1.012  0.6976  0.2773 -0.2337
 3947TIP3    H111847   3.475   0.657   0.950  2.2157  0.5454 -0.7109
 3947TIP3    H211848   3.449   0.693   1.095  0.0016 -0.4790 -0.8080
 3948TIP3   OH211849   1.058   5.833   3.975 -0.0980  0.1563 -0.1438
 3948TIP3    H111850   1.037   5.748   4.015  1.3178  0.6022  1.7254
 3948TIP3    H211851   1.101   5.882   4.045 -1.9320  2.9057 -0.8078
 3949TIP3   OH211852   0.085   2.439   4.110  0.7165  0.4386  0.1995
 3949TIP3    H111853   0.105   2.528   4.082  1.2531  0.1308 -0.4277
 3949TIP3    H211854   0.129   2.430   4.194  0.3692  0.8714  0.4332
 3950TIP3   OH211855   2.884   4.932   3.268  0.4557  0.3879  0.3699
 3950TIP3    H111856   2.921   4.855   3.310  1.5643  1.5558  1.6250
 3950TIP3    H211857   2.886   4.912   3.174 -0.7676 -1.7151  0.7300
 3951TIP3   OH211858   0.053   3.252   3.829  0.0984  0.7470  0.3442
 3951TIP3    H111859   0.052   3.167   3.785 -0.2246  1.5052 -1.1971
 3951TIP3    H211860   0.046   3.231   3.922  0.4841 -0.9212  0.0367
 3952TIP3   OH211861   2.864   0.065   2.492 -0.6974 -0.0643  0.2124
 3952TIP3    H111862   2.886   0.143   2.543  1.7779 -0.5425  0.0107
 3952TIP3    H211863   2.807   0.014   2.549 -2.6357  1.9652  0.2226
 3953TIP3   OH211864   1.594   3.608   4.211 -0.0111  0.5816 -0.8045
 3953TIP3    H111865   1.590   3.522   4.170  0.4792  0.9561 -1.6764
 3953TIP3    H211866   1.629   3.592   4.299 -0.9673 -0.2209 -0.5522
 3954TIP3   OH211867   5.807   3.930   2.899 -0.1166 -0.5064  0.0856
 3954TIP3    H111868   5.738   3.986   2.935  0.0484  0.5838 -1.2056
 3954TIP3    H211869   5.828   3.970   2.814  0.8217 -1.8819 -0.3576
 3955TIP3   OH211870   5.418   4.668   3.619  0.5386 -0.5398 -0.0142
 3955TIP3    H111871   5.512   4.681   3.629  0.4439 -0.5230  1.0025
 3955TIP3    H211872   5.382   4.756   3.617  0.2438 -0.4746  3.1654
 3956TIP3   OH211873   2.793   4.405   3.767  0.3837  0.6198 -0.0550
 3956TIP3    H111874   2.704   4.393   3.800 -0.0774  1.4944 -0.9286
 3956TIP3    H211875   2.848   4.353   3.825 -0.9107 -1.5167 -0.6442
 3957TIP3   OH211876   4.650   4.565   0.147  0.0234  0.3714  0.7422
 3957TIP3    H111877   4.688   4.644   0.107  0.2647  0.1691  0.5731
 3957TIP3    H211878   4.567   4.552   0.100  0.7831 -0.4620 -0.4284
 3958TIP3   OH211879   4.895   3.117   3.557  0.0055 -0.1313 -0.4794
 3958TIP3    H111880   4.840   3.040   3.541  0.6776 -0.5595 -0.7486
 3958TIP3    H211881   4.978   3.081   3.587  1.2490  0.3195 -3.1298
 3959TIP3   OH211882   1.623   0.198   1.556  0.2425  0.0256 -0.1383
 3959TIP3    H111883   1.633   0.113   1.600  0.7545  0.5976  0.8750
 3959TIP3    H211884   1.673   0.259   1.610  0.2906  0.8881 -1.1299
 3960TIP3   OH211885   2.972   5.807   3.999 -0.2502 -0.0868  0.4879
 3960TIP3    H111886   2.886   5.770   3.980  0.5848 -1.4374 -0.8727
 3960TIP3    H211887   3.015   5.742   4.055  0.1727  0.2032  0.5053
 3961TIP3   OH211888   2.420   0.333   0.053  0.0132  0.5587  0.2972
 3961TIP3    H111889   2.330   0.357   0.030 -0.1345 -0.9751 -0.9024
 3961TIP3    H211890   2.453   0.287  -0.024  2.0713  1.6344  0.4659
 3962TIP3   OH211891   4.346   0.468   1.940 -0.3186  0.4837  0.2811
 3962TIP3    H111892   4.291   0.390   1.938  1.5247 -0.8650 -0.6036
 3962TIP3    H211893   4.324   0.515   1.859 -0.0236 -0.1763 -0.1955
 3963TIP3   OH211894   0.572   3.405   3.993 -0.3163 -0.6092  0.3442
 3963TIP3    H111895   0.481   3.408   4.022 -0.2312 -0.8236  0.6352
 3963TIP3    H211896   0.623   3.418   4.073 -0.0959 -0.0475  0.1154
 3964TIP3   OH211897   5.214   5.714   4.840  0.6470  0.2976  0.2914
 3964TIP3    H111898   5.222   5.808   4.855  1.3106  0.0857  1.3885
 3964TIP3    H211899   5.122   5.695   4.855  0.2040  0.9645 -1.2982
 3965TIP3   OH211900   1.748   4.631   3.573  0.1178 -0.6151 -0.1060
 3965TIP3    H111901   1.663   4.676   3.581  0.2108 -0.4386 -0.1165
 3965TIP3    H211902   1.800   4.666   3.645  0.5856  0.1535 -0.8126
 3966TIP3   OH211903   0.163   0.032   0.361 -0.4211  0.0769  0.8200
 3966TIP3    H111904   0.187  -0.008   0.444  1.1298  1.0243  0.8695
 3966TIP3    H211905   0.130   0.119   0.384 -0.4321  0.1669  0.4775
 3967TIP3   OH211906   4.321   2.564   0.151 -0.2204 -0.0969 -0.4992
 3967TIP3    H111907   4.377   2.586   0.076 -0.4852  0.6739 -0.4793
 3967TIP3    H211908   4.383   2.543   0.221  0.0589  0.5539 -0.5364
 3968TIP3   OH211909   4.807   4.863   1.105  0.4082 -0.0575 -0.4035
 3968TIP3    H111910   4.718   4.856   1.070  0.5343  0.0961 -0.7555
 3968TIP3    H211911   4.839   4.773   1.107  0.1619 -0.1396 -0.0566
 3969TIP3   OH211912   4.664   5.408   2.745  0.1031 -0.4520 -0.2478
 3969TIP3    H111913   4.740   5.429   2.690  0.8523  1.5709  1.4484
 3969TIP3    H211914   4.701   5.369   2.824 -0.4954  1.2840  0.9449
 3970TIP3   OH211915   6.371   1.151   1.430 -0.4025 -0.0221 -0.0079
 3970TIP3    H111916   6.285   1.143   1.388 -0.2121 -0.7601 -0.2598
 3970TIP3    H211917   6.369   1.089   1.502 -1.1410  2.0122  1.8657
 3971TIP3   OH211918   4.144   1.745   2.409  0.0587  0.3671 -0.0142
 3971TIP3    H111919   4.086   1.674   2.382  0.6478  0.1705 -0.8015
 3971TIP3    H211920   4.087   1.822   2.413 -0.3218  0.1209 -0.4985
 3972TIP3   OH211921   0.477   2.428   0.333  0.4751  0.2053  0.2492
 3972TIP3    H111922   0.395   2.387   0.365  0.9325  0.3984  1.7594
 3972TIP3    H211923   0.542   2.358   0.340  0.5595  0.2036 -0.4711
 3973TIP3   OH211924   2.966   4.238   3.047 -0.0146 -0.0171  0.1095
 3973TIP3    H111925   3.004   4.289   3.118 -0.6625 -1.2449  1.3897
 3973TIP3    H211926   3.021   4.160   3.042 -0.2730 -0.1708 -0.3972
 3974TIP3   OH211927   0.275   3.604   3.733  0.2507  0.1205  0.3335
 3974TIP3    H111928   0.363   3.641   3.737  0.9305 -1.1355 -1.6707
 3974TIP3    H211929   0.228   3.662   3.674  0.7394 -0.9953 -1.2168
 3975TIP3   OH211930   3.461   2.949   2.366 -0.2196  0.2108 -0.0021
 3975TIP3    H111931   3.395   2.987   2.307  0.7295 -0.5001 -1.5935
 3975TIP3    H211932   3.415   2.878   2.411 -0.6912  0.0268 -0.7504
 3976TIP3   OH211933   4.447   1.927   3.607 -0.2107  0.2252  0.8301
 3976TIP3    H111934   4.523   1.869   3.604  0.3748  1.0116 -0.4403
 3976TIP3    H211935   4.482   2.008   3.645 -0.2564  0.7689 -0.2442
 3977TIP3   OH211936   4.469   2.594   2.148 -0.2973  0.1718  0.1834
 3977TIP3    H111937   4.435   2.678   2.116  0.7816  0.2276 -0.8956
 3977TIP3    H211938   4.561   2.612   2.169  0.4768 -1.1079 -1.7616
 3978TIP3   OH211939   3.112   2.533   2.987  0.6098  0.8136  0.4033
 3978TIP3    H111940   3.200   2.501   2.965  0.3553  1.2758 -1.4673
 3978TIP3    H211941   3.068   2.541   2.903 -0.7896  1.8800  1.1923
 3979TIP3   OH211942   1.059   0.689   2.672  0.8659 -0.2685  0.1628
 3979TIP3    H111943   1.119   0.680   2.598 -1.5794  0.8634 -2.1026
 3979TIP3    H211944   0.976   0.654   2.640 -0.8380  2.1748  1.6040
 3980TIP3   OH211945   0.390   0.212   4.490  0.0777 -0.0276  0.2261
 3980TIP3    H111946   0.320   0.245   4.434 -0.5230 -3.7248 -1.5572
 3980TIP3    H211947   0.346   0.172   4.564  0.5499  0.5413  0.8235
 3981TIP3   OH211948   0.544   2.280   3.861 -0.5556 -0.6474  0.1288
 3981TIP3    H111949   0.635   2.300   3.882 -1.0877  0.9731  1.0796
 3981TIP3    H211950   0.509   2.240   3.941 -0.9090 -0.4613  0.0668
 3982TIP3   OH211951   3.235   3.384   4.181 -0.4218  0.4254 -0.4621
 3982TIP3    H111952   3.167   3.393   4.115  1.0569  1.7976 -1.8937
 3982TIP3    H211953   3.201   3.432   4.257 -0.8966  1.4786 -1.3125
 3983TIP3   OH211954   1.978   5.138   4.485  0.0369 -0.4011  0.6142
 3983TIP3    H111955   2.009   5.176   4.568  1.3702 -0.2064  0.0531
 3983TIP3    H211956   1.883   5.150   4.487  0.1025  0.0637  1.8839
 3984TIP3   OH211957   3.295   0.471   0.892 -0.2280  0.1455  0.1809
 3984TIP3    H111958   3.278   0.414   0.817  1.8280  1.2711 -1.2762
 3984TIP3    H211959   3.278   0.559   0.859 -3.0798  0.5339  2.2954
 3985TIP3   OH211960   3.654   0.144   0.552  0.0395  0.0142 -0.3186
 3985TIP3    H111961   3.661   0.088   0.629 -0.3069 -0.5158 -0.6579
 3985TIP3    H211962   3.569   0.120   0.513 -2.2009  3.6760  1.7468
 3986TIP3   OH211963   4.888   3.874   2.262 -0.1140  0.0910 -0.1052
 3986TIP3    H111964   4.834   3.833   2.329  0.5201 -0.2051  0.2290
 3986TIP3    H211965   4.839   3.860   2.181 -0.9765  0.6237  0.3137
 3987TIP3   OH211966   1.339   5.942   0.045 -0.4721 -0.4162 -0.3971
 3987TIP3    H111967   1.299   5.866   0.088  0.4945 -1.2782 -0.9833
 3987TIP3    H211968   1.426   5.912   0.020 -0.5411  0.4867 -1.7744
 3988TIP3   OH211969   2.575   4.933   3.386  0.6595  0.3422  0.2915
 3988TIP3    H111970   2.602   5.019   3.353  0.2164  0.4126  0.1019
 3988TIP3    H211971   2.657   4.883   3.391  1.0307  1.0028  1.1092
 3989TIP3   OH211972   4.668   4.820   4.674  0.1651  0.4399  0.8600
 3989TIP3    H111973   4.609   4.890   4.703 -0.2328  0.3124  0.3720
 3989TIP3    H211974   4.739   4.866   4.629 -0.1215  0.5284  0.4937
 3990TIP3   OH211975   4.522   3.838   4.395 -0.2980 -0.2862 -0.1158
 3990TIP3    H111976   4.459   3.910   4.400 -0.5278 -0.4215 -0.8878
 3990TIP3    H211977   4.596   3.875   4.346  0.9775  0.3880  2.1730
 3991TIP3   OH211978   2.874   1.819   3.534  0.0824 -0.0747  0.2837
 3991TIP3    H111979   2.886   1.797   3.442  0.1344  1.4333 -0.0976
 3991TIP3    H211980   2.905   1.743   3.582  0.8881 -0.5223 -0.9270
 3992TIP3   OH211981   0.609   2.585   4.974  0.7310  0.2417 -0.1205
 3992TIP3    H111982   0.558   2.648   4.923 -2.4819 -0.2546  2.2150
 3992TIP3    H211983   0.622   2.627   5.059 -0.0029 -1.5158  0.9202
 3993TIP3   OH211984   3.507   4.857   0.632  0.4854  0.0531 -0.0068
 3993TIP3    H111985   3.501   4.806   0.551  0.6716  0.4258 -0.2547
 3993TIP3    H211986   3.514   4.791   0.701  0.0741 -0.2710 -0.2713
 3994TIP3   OH211987   1.353   1.534   4.896 -0.0729 -0.1776 -0.2750
 3994TIP3    H111988   1.382   1.446   4.870  1.2823  0.2073 -0.1214
 3994TIP3    H211989   1.258   1.526   4.903 -0.0121 -1.5362 -0.6303
 3995TIP3   OH211990   4.780   0.303   4.267 -0.6296 -0.0858 -0.2439
 3995TIP3    H111991   4.695   0.347   4.264 -0.6547 -0.1432 -0.3793
 3995TIP3    H211992   4.839   0.368   4.304 -0.0797  1.0349 -2.8529
 3996TIP3   OH211993   5.996   0.415   2.162 -0.4058 -0.6061 -0.0983
 3996TIP3    H111994   6.017   0.506   2.183 -2.4172  0.2132 -1.3508
 3996TIP3    H211995   5.958   0.380   2.242 -2.1486  0.5508 -0.3509
 3997TIP3   OH211996   4.132   5.654   2.138 -0.6060  0.1908 -0.1263
 3997TIP3    H111997   4.151   5.687   2.226  0.7164 -0.6342 -0.0868
 3997TIP3    H211998   4.093   5.568   2.153 -2.7169  1.0614 -0.2856
 3998TIP3   OH211999   5.165   3.620   3.231 -0.6834  0.4748  0.2699
 3998TIP3    H112000   5.174   3.534   3.191  1.3081 -0.3350  2.2133
 3998TIP3    H212001   5.149   3.602   3.324  1.2898  2.0967  1.0284
 3999TIP3   OH212002   0.009   1.815   3.171 -0.1694  0.2992  0.1616
 3999TIP3    H112003   0.026   1.748   3.237 -1.2881  1.2118  1.4274
 3999TIP3    H212004   0.089   1.815   3.117 -0.3864 -2.4547 -0.3168
 4000TIP3   OH212005   0.666   4.501   4.275  0.1811  0.1004 -0.0568
 4000TIP3    H112006   0.597   4.490   4.341  0.5785 -1.1736  0.1732
 4000TIP3    H212007   0.688   4.412   4.249  1.6080  0.4950 -0.2630
 4001TIP3   OH212008   3.779   4.260   3.223  0.8670  0.4837  0.3785
 4001TIP3    H112009   3.739   4.219   3.147  0.1821  1.5215  0.1569
 4001TIP3    H212010   3.854   4.308   3.187  1.2714 -0.0222  0.5400
 4002TIP3   OH212011   5.476   1.483   3.920  0.2720  0.2107 -0.1032
 4002TIP3    H112012   5.429   1.556   3.879 -2.1089 -1.3002 -0.2882
 4002TIP3    H212013   5.440   1.405   3.876  0.7887 -1.2035  1.8798
 4003TIP3   OH212014   1.408   2.675   5.018 -0.2989 -0.6487 -0.3788
 4003TIP3    H112015   1.431   2.708   4.932  1.0732  0.1796  0.2771
 4003TIP3    H212016   1.404   2.753   5.073  0.5058 -1.3082  0.6570
 4004TIP3   OH212017   1.450   4.912   4.926  0.6667 -0.4038  0.2530
 4004TIP3    H112018   1.514   4.841   4.929  0.3345 -0.7317 -0.1858
 4004TIP3    H212019   1.496   4.984   4.885  0.7764 -0.6182 -0.0058
 4005TIP3   OH212020   6.359   4.792   0.099  0.0969 -0.1249  0.3543
 4005TIP3    H112021   6.373   4.851   0.025  0.4422  2.2074  2.1686
 4005TIP3    H212022   6.264   4.789   0.109  0.0995  2.4164  1.8770
 4006TIP3   OH212023   1.640   2.814   0.328  0.3017  0.1383 -0.3070
 4006TIP3    H112024   1.730   2.810   0.296  0.3424  1.5821 -0.4199
 4006TIP3    H212025   1.648   2.854   0.415 -0.1325 -0.8204  0.1954
 4007TIP3   OH212026   2.930   1.362   2.296 -0.0409 -0.3468 -0.2489
 4007TIP3    H112027   2.923   1.275   2.256  1.2030 -1.4309  1.7448
 4007TIP3    H212028   2.842   1.399   2.287 -1.0951 -2.5178  0.3368
 4008TIP3   OH212029   5.042   4.532   0.115 -0.2594 -0.3888 -0.1856
 4008TIP3    H112030   5.099   4.458   0.097 -1.4279 -1.1756 -0.7568
 4008TIP3    H212031   5.057   4.593   0.043 -0.8001 -1.0012 -0.8207
 4009TIP3   OH212032   0.290   1.991   0.709 -0.8653  0.2838  0.7333
 4009TIP3    H112033   0.250   1.994   0.623 -2.1879  3.4761  1.3431
 4009TIP3    H212034   0.341   2.071   0.716  2.1830 -1.5466  1.6967
 4010TIP3   OH212035   0.312   1.671   0.368  0.4658  0.0051 -1.0776
 4010TIP3    H112036   0.264   1.675   0.451  3.5215 -0.2052  0.8519
 4010TIP3    H212037   0.287   1.751   0.322  0.3599  1.2641  1.0605
 4011TIP3   OH212038   3.119   0.917   0.866  0.1411 -0.0180 -0.0612
 4011TIP3    H112039   3.151   1.000   0.901  0.5601  0.4654 -1.5164
 4011TIP3    H212040   3.024   0.919   0.884 -0.2896  1.8562 -2.0535
 4012TIP3   OH212041   6.240   1.751   0.337 -0.6690  0.4562  0.3771
 4012TIP3    H112042   6.234   1.713   0.425 -0.7027 -0.2674  0.0656
 4012TIP3    H212043   6.292   1.689   0.287 -0.7388  0.8118 -0.1466
 4013TIP3   OH212044   4.942   2.171   4.607 -0.0695 -0.5842 -0.0676
 4013TIP3    H112045   5.026   2.214   4.590 -1.0302  1.1808 -0.6252
 4013TIP3    H212046   4.895   2.175   4.524 -0.5998 -1.8495  0.1466
 4014TIP3   OH212047   2.968   2.839   1.826 -0.8347 -0.5677 -0.3612
 4014TIP3    H112048   3.002   2.882   1.747  0.3353  1.0489  0.9693
 4014TIP3    H212049   2.909   2.902   1.865 -2.5275 -1.9160 -0.6296
 4015TIP3   OH212050   3.046   2.633   2.036 -0.4808  0.3070  0.5657
 4015TIP3    H112051   3.059   2.700   1.969 -0.3689  1.6042  1.8386
 4015TIP3    H212052   2.964   2.590   2.011  0.0478  0.0884 -0.9221
 4016TIP3   OH212053   5.696   4.678   3.987  0.0226  0.6129  0.6641
 4016TIP3    H112054   5.779   4.659   4.030 -0.9164 -1.1617  1.8268
 4016TIP3    H212055   5.637   4.703   4.058 -0.9056  0.0346  0.1166
 4017TIP3   OH212056   4.057   3.311   3.265 -0.0337 -0.3086 -0.2663
 4017TIP3    H112057   4.039   3.313   3.171 -1.2853 -0.0502 -0.0473
 4017TIP3    H212058   4.076   3.402   3.288  2.3681 -0.6568 -0.5979
 4018TIP3   OH212059   1.512   3.252   1.197 -0.1282  0.0226  0.7766
 4018TIP3    H112060   1.542   3.178   1.146 -1.5502 -0.1041  0.0670
 4018TIP3    H212061   1.591   3.300   1.220  0.9284 -2.2169  2.0804
 4019TIP3   OH212062   1.997   4.048   4.482  0.1744  0.3630  0.6555
 4019TIP3    H112063   1.918   4.013   4.441 -0.2723 -0.3213  2.0283
 4019TIP3    H212064   2.014   4.130   4.435 -1.0864  0.2890  0.0347
 4020TIP3   OH212065   0.228   4.802   4.779 -0.3400  0.0725 -0.5149
 4020TIP3    H112066   0.194   4.733   4.721 -0.3659 -1.3854  1.1514
 4020TIP3    H212067   0.272   4.863   4.720 -2.0775 -0.2786 -2.2751
 4021TIP3   OH212068   1.829   2.266   5.153  0.3321  0.4559 -0.1458
 4021TIP3    H112069   1.807   2.278   5.246  0.2547  0.5162 -0.1722
 4021TIP3    H212070   1.769   2.198   5.123  1.5303 -0.8418  0.2902
 4022TIP3   OH212071   3.276   4.996   0.715 -0.3376  0.1329 -0.0438
 4022TIP3    H112072   3.231   5.032   0.638  0.2961  0.2753 -0.3563
 4022TIP3    H212073   3.349   4.946   0.678 -0.5333 -0.5261  0.4312
 4023TIP3   OH212074   5.698   4.297   2.195  0.5288  0.4315  0.6024
 4023TIP3    H112075   5.709   4.222   2.253  1.4059  0.9624  1.1482
 4023TIP3    H212076   5.677   4.259   2.110 -0.8960 -0.3533  1.2734
 4024TIP3   OH212077   3.339   0.868   4.530 -0.2187  0.3742 -0.1082
 4024TIP3    H112078   3.351   0.780   4.493 -0.2050 -0.1469  1.1116
 4024TIP3    H212079   3.277   0.856   4.602  0.5608  1.2005  0.7128
 4025TIP3   OH212080   1.122   4.273   1.923  0.5720 -0.3037 -0.0186
 4025TIP3    H112081   1.180   4.212   1.970  1.4394  0.8343  0.4259
 4025TIP3    H212082   1.076   4.320   1.991 -1.0063 -1.2733 -0.3743
 4026TIP3   OH212083   6.298   2.669   4.409  0.0163  0.1257 -0.5345
 4026TIP3    H112084   6.254   2.598   4.361  0.4304 -1.5060  1.3667
 4026TIP3    H212085   6.244   2.684   4.486  0.4370  1.2405 -0.4381
 4027TIP3   OH212086   0.085   4.912   2.140 -0.5419  0.3292  0.2212
 4027TIP3    H112087   0.036   4.926   2.059 -0.8491 -0.3860  0.2792
 4027TIP3    H212088   0.160   4.860   2.114  0.3941  1.7019  0.0744
 4028TIP3   OH212089   0.039   0.504   0.221 -0.0123  0.1572  0.2240
 4028TIP3    H112090   0.129   0.482   0.195  0.7331  3.4204 -0.3385
 4028TIP3    H212091  -0.016   0.456   0.159  1.3712 -0.7028 -0.4026
 4029TIP3   OH212092   5.536   2.196   5.091 -0.9154 -0.0392 -0.6993
 4029TIP3    H112093   5.524   2.121   5.149 -0.7209  2.0242  2.2191
 4029TIP3    H212094   5.625   2.187   5.058 -0.1934 -0.1390  1.1764
 4030TIP3   OH212095   4.534   3.727   3.783 -0.4384 -0.1411 -0.0588
 4030TIP3    H112096   4.487   3.648   3.807 -0.2841 -0.1136  0.3503
 4030TIP3    H212097   4.603   3.698   3.724  0.1877 -0.4501  0.8004
 4031TIP3   OH212098   2.130   5.357   0.753  0.3280 -0.4402  0.3158
 4031TIP3    H112099   2.183   5.320   0.682  0.8458 -0.3887  0.6685
 4031TIP3    H212100   2.057   5.295   0.763 -0.3459  0.1244 -0.9784
 4032TIP3   OH212101   4.974   1.742   4.579 -0.7118  0.1848 -0.1894
 4032TIP3    H112102   5.036   1.805   4.544 -0.4834  0.0882  0.0439
 4032TIP3    H212103   4.961   1.769   4.670  0.5971 -1.0307  0.3836
 4033TIP3   OH212104   0.985   2.898   1.421  0.3468  0.3407  0.2647
 4033TIP3    H112105   1.047   2.866   1.356  0.5210  0.7812  0.2133
 4033TIP3    H212106   0.962   2.986   1.392 -1.5734 -0.4023 -0.6356
 4034TIP3   OH212107   5.574   1.867   3.902  0.3627  0.4232  0.2248
 4034TIP3    H112108   5.492   1.880   3.855 -0.0588 -0.0215  0.8074
 4034TIP3    H212109   5.546   1.843   3.991  1.0876 -1.4908 -0.0221
 4035TIP3   OH212110   5.667   1.664   0.842 -0.0197  0.0009  0.3776
 4035TIP3    H112111   5.733   1.729   0.819 -1.0562  0.7932 -0.4779
 4035TIP3    H212112   5.627   1.639   0.759  0.0598 -1.4214  0.7460
 4036TIP3   OH212113   4.151   5.029   2.151  0.1066 -0.2094 -0.0976
 4036TIP3    H112114   4.076   4.972   2.132 -0.5878  0.5875  0.1675
 4036TIP3    H212115   4.167   5.017   2.245 -0.3883  0.4249  0.0735
 4037TIP3   OH212116   4.517   0.650   0.515 -0.2683  0.4504  0.1675
 4037TIP3    H112117   4.539   0.600   0.594  2.7276  0.0516 -0.7708
 4037TIP3    H212118   4.556   0.736   0.530  0.8866  0.1746 -1.0582
 4038TIP3   OH212119   2.787   4.262   3.524 -0.1549 -0.1404  0.4040
 4038TIP3    H112120   2.759   4.314   3.599  0.5464  0.5942  0.1739
 4038TIP3    H212121   2.711   4.259   3.466 -0.5481 -0.3145  0.9246
 4039TIP3   OH212122   2.600   4.988   2.041  0.3418 -0.0657  0.0368
 4039TIP3    H112123   2.582   4.965   1.950 -1.0448  1.2566 -0.0484
 4039TIP3    H212124   2.679   5.042   2.036 -1.1278  2.1351 -0.7243
 4040TIP3   OH212125   3.145   2.391   3.663  0.2292 -0.1784  0.2263
 4040TIP3    H112126   3.124   2.361   3.575  0.5166 -0.8715  0.3797
 4040TIP3    H212127   3.086   2.465   3.679 -0.1315 -0.3308 -0.3778
 4041TIP3   OH212128   6.074   5.796   4.563  0.2111  0.3436 -0.2338
 4041TIP3    H112129   6.021   5.797   4.642  1.0001 -0.4792  0.3312
 4041TIP3    H212130   6.123   5.713   4.568  0.3475  0.3284 -1.5291
 4042TIP3   OH212131   0.217   2.406   0.136 -0.1127 -0.3731  0.0968
 4042TIP3    H112132   0.237   2.381   0.226  1.3024  0.6474  0.0850
 4042TIP3    H212133   0.269   2.347   0.082 -0.8469 -0.8852 -0.0740
 4043TIP3   OH212134   1.998   3.158   1.905 -0.3390 -0.2878 -0.3859
 4043TIP3    H112135   2.084   3.152   1.863  0.6224 -0.6230  1.4794
 4043TIP3    H212136   1.977   3.252   1.903  0.3073 -0.1380 -0.4348
 4044TIP3   OH212137   5.217   1.494   1.771  0.8256  0.0250  0.3486
 4044TIP3    H112138   5.281   1.435   1.730 -0.0734  0.3580 -1.6585
 4044TIP3    H212139   5.255   1.515   1.856  3.6617  0.5772 -0.9211
 4045TIP3   OH212140   2.127   4.341   3.232 -0.1381  0.3005 -0.2216
 4045TIP3    H112141   2.034   4.349   3.208 -0.1001 -1.0535 -0.9260
 4045TIP3    H212142   2.150   4.427   3.267 -1.7293  0.5815  0.2178
 4046TIP3   OH212143   4.346   5.152   1.924  0.3065 -0.2574 -0.0682
 4046TIP3    H112144   4.293   5.158   1.845  2.5912 -0.7057 -1.7269
 4046TIP3    H212145   4.300   5.088   1.978 -0.7860 -0.7054 -1.4682
 4047TIP3   OH212146   2.185   4.834   1.804 -0.1959  0.1531  0.0266
 4047TIP3    H112147   2.174   4.812   1.711  0.5461  0.0234 -0.0417
 4047TIP3    H212148   2.240   4.913   1.803 -1.6284  1.1851  0.3114
 4048TIP3   OH212149   2.821   4.956   4.574  0.3085 -0.0278  0.7091
 4048TIP3    H112150   2.749   4.892   4.575 -0.5293  0.8925  0.6736
 4048TIP3    H212151   2.869   4.938   4.493 -0.2876 -0.2107  0.3936
 4049TIP3   OH212152   5.459   5.151   3.884  0.0535  0.7342 -0.7713
 4049TIP3    H112153   5.454   5.055   3.886 -1.4140  0.7985 -0.6839
 4049TIP3    H212154   5.527   5.172   3.948 -1.9646 -0.1173  1.7920
 4050TIP3   OH212155   0.605   1.457   0.870  0.4868 -0.0719 -0.3459
 4050TIP3    H112156   0.581   1.528   0.811  0.3953  0.3518  0.1887
 4050TIP3    H212157   0.608   1.498   0.957  0.3599 -0.7320 -0.0209
 4051TIP3   OH212158   4.702   3.287   2.839  0.8592 -0.0995  0.0191
 4051TIP3    H112159   4.645   3.214   2.814  0.9443  0.1917 -1.0925
 4051TIP3    H212160   4.670   3.314   2.925  0.1939 -0.8108  0.0101
 4052TIP3   OH212161   3.510   3.444   0.206 -0.3394  0.1451  0.4830
 4052TIP3    H112162   3.518   3.349   0.218 -0.3734  0.3147  2.0017
 4052TIP3    H212163   3.572   3.481   0.269 -1.3967  1.1594  0.9500
 4053TIP3   OH212164   0.479   3.890   0.986  0.1926 -0.2194 -0.4380
 4053TIP3    H112165   0.451   3.840   1.063  0.6413 -1.2876 -0.9391
 4053TIP3    H212166   0.543   3.833   0.944 -2.1391 -1.0359 -3.2294
 4054TIP3   OH212167   4.530   0.251   1.386  0.5844  0.1280 -0.0207
 4054TIP3    H112168   4.456   0.224   1.440  0.8712 -0.1233  0.2552
 4054TIP3    H212169   4.543   0.343   1.409  0.0343  0.3132 -0.4543
 4055TIP3   OH212170   0.891   5.627   4.417 -0.7412  0.1140 -0.7990
 4055TIP3    H112171   0.966   5.569   4.431 -0.9227 -0.4324 -1.9974
 4055TIP3    H212172   0.843   5.625   4.500  0.3405  0.1533 -0.1591
 4056TIP3   OH212173   4.342   1.751   4.816  0.0370 -0.1083  0.3821
 4056TIP3    H112174   4.304   1.775   4.731  1.9039 -1.3690 -0.8744
 4056TIP3    H212175   4.396   1.826   4.840 -1.3046  0.7027  1.0488
 4057TIP3   OH212176   1.871   3.353   4.983 -0.0416 -0.1604 -0.3064
 4057TIP3    H112177   1.829   3.335   4.899  1.0613  0.4092 -0.9916
 4057TIP3    H212178   1.936   3.284   4.993 -0.1987 -0.2522  0.1089
 4058TIP3   OH212179   6.014   2.364   3.136  0.1013  0.0090  0.6755
 4058TIP3    H112180   6.085   2.428   3.144  0.1563  0.1507 -0.6739
 4058TIP3    H212181   5.974   2.384   3.051 -1.2833 -0.3492  1.2168
 4059TIP3   OH212182   5.480   5.149   0.444 -0.3286  0.3408 -0.1217
 4059TIP3    H112183   5.414   5.124   0.379 -0.0653  0.2452 -0.3551
 4059TIP3    H212184   5.560   5.162   0.394  0.1205 -0.6949  0.2892
 4060TIP3   OH212185   0.014   5.594   1.461  0.5466  0.4775 -0.3382
 4060TIP3    H112186   0.039   5.686   1.451  1.5689  0.1990 -0.4526
 4060TIP3    H212187  -0.039   5.575   1.384 -2.1365  1.7236  1.0645
 4061TIP3   OH212188   5.903   3.008   0.659 -0.0157 -0.1163 -0.5465
 4061TIP3    H112189   5.977   2.993   0.717 -0.2985 -0.6191 -0.3005
 4061TIP3    H212190   5.833   2.953   0.696 -0.9053  1.3151 -0.0248
 4062TIP3   OH212191   3.737   4.890   3.179  0.4140 -0.0877  0.2235
 4062TIP3    H112192   3.689   4.973   3.172  1.6153  0.5915 -0.3090
 4062TIP3    H212193   3.715   4.842   3.099 -1.2404 -0.8390  1.0915
 4063TIP3   OH212194   4.285   1.716   0.167 -0.4038  0.2916  0.0842
 4063TIP3    H112195   4.333   1.672   0.097 -0.0667 -2.4785  1.8761
 4063TIP3    H212196   4.353   1.760   0.218 -0.3115  0.0682  0.1558
 4064TIP3   OH212197   3.196   4.879   3.644  0.3375  0.2300  0.3085
 4064TIP3    H112198   3.192   4.915   3.556 -0.1557  1.6178  0.8608
 4064TIP3    H212199   3.285   4.844   3.652  0.2282 -0.3697 -0.8834
 4065TIP3   OH212200   2.454   2.913   4.394 -0.4227 -0.4890  0.5384
 4065TIP3    H112201   2.502   2.991   4.364 -1.4474 -0.2635 -0.5637
 4065TIP3    H212202   2.486   2.842   4.338  0.3679 -0.8482  1.4128
 4066TIP3   OH212203   2.759   5.215   2.978  0.0380 -0.5907 -0.4328
 4066TIP3    H112204   2.677   5.173   3.001 -0.7947  1.1679  0.0041
 4066TIP3    H212205   2.822   5.143   2.972 -0.5506 -1.6710  3.4229
 4067TIP3   OH212206   1.122   5.125   4.713  0.1985 -0.3156  0.0739
 4067TIP3    H112207   1.194   5.156   4.658 -0.1470 -0.5636 -0.5195
 4067TIP3    H212208   1.112   5.033   4.690 -0.0392 -0.3908  0.4631
 4068TIP3   OH212209   0.060   3.125   4.333 -0.0279 -0.5192 -0.0949
 4068TIP3    H112210   0.121   3.197   4.320  2.2489 -2.0063  1.5710
 4068TIP3    H212211   0.018   3.143   4.417  0.4437 -1.0148  0.2570
 4069TIP3   OH212212   3.667   3.265   1.713  0.1975  0.1233  0.1549
 4069TIP3    H112213   3.574   3.267   1.736  0.2700 -0.1329  0.4787
 4069TIP3    H212214   3.691   3.173   1.721  0.3189  0.0868 -0.5963
 4070TIP3   OH212215   2.771   1.525   3.451  0.2431  0.0570  0.6368
 4070TIP3    H112216   2.678   1.511   3.468  0.5164  0.3502  2.6616
 4070TIP3    H212217   2.811   1.440   3.468  0.3635 -0.0614 -0.2045
 4071TIP3   OH212218   0.936   3.957   3.576  0.5004 -0.0328 -0.1497
 4071TIP3    H112219   0.870   4.027   3.573 -0.0388 -0.5522 -1.0185
 4071TIP3    H212220   0.943   3.935   3.669  1.4449  1.8545  0.2754
 4072TIP3   OH212221   4.732   0.661   0.311 -0.0806  0.2271 -0.1880
 4072TIP3    H112222   4.660   0.642   0.372  2.0697 -0.5145  2.2727
 4072TIP3    H212223   4.759   0.750   0.333 -1.6158  1.4397 -2.7149
 4073TIP3   OH212224   2.025   4.064   2.873  0.7174  0.1148 -0.2214
 4073TIP3    H112225   2.107   4.069   2.921  0.5781 -1.8120  0.2883
 4073TIP3    H212226   1.960   4.041   2.939 -0.3352  1.9149 -0.5558
 4074TIP3   OH212227   5.926   2.285   1.753 -0.1022 -0.7292  0.0425
 4074TIP3    H112228   5.961   2.218   1.694  1.3017 -2.0363  2.1966
 4074TIP3    H212229   5.984   2.360   1.741 -1.4221  0.0541 -2.0691
 4075TIP3   OH212230   4.708   3.502   2.385  0.1125  0.4691  0.6404
 4075TIP3    H112231   4.739   3.574   2.440 -0.1759  1.1188 -0.0353
 4075TIP3    H212232   4.720   3.424   2.440  1.1927  0.9175  1.0782
 4076TIP3   OH212233   5.790   3.464   1.454 -0.3505  0.1203  0.4169
 4076TIP3    H112234   5.713   3.460   1.397 -0.1231  0.3038  0.0882
 4076TIP3    H212235   5.756   3.488   1.540 -0.9136 -1.8297  0.7883
 4077TIP3   OH212236   0.392   2.865   1.208 -0.6378  0.0647  0.5715
 4077TIP3    H112237   0.350   2.863   1.294  0.0798 -1.2544  0.9107
 4077TIP3    H212238   0.319   2.872   1.146 -1.4058 -1.9449  1.1616
 4078TIP3   OH212239   4.970   5.070   2.057  0.2212  0.6129  0.0655
 4078TIP3    H112240   4.935   5.157   2.079 -0.5910  0.1395  0.6733
 4078TIP3    H212241   4.934   5.012   2.124  0.1457 -0.3346 -0.7846
 4079TIP3   OH212242   6.296   5.953   4.636 -0.4112  0.0383  0.2207
 4079TIP3    H112243   6.214   5.914   4.604 -0.1871  0.5786 -1.0676
 4079TIP3    H212244   6.275   6.046   4.647  0.6577  0.7087 -2.5906
 4080TIP3   OH212245   2.639   4.354   4.155 -0.5284 -0.8809 -0.6533
 4080TIP3    H112246   2.562   4.393   4.197 -0.1078  0.5532 -1.1781
 4080TIP3    H212247   2.637   4.387   4.066  2.0470  1.2676 -0.0380
 4081TIP3   OH212248   4.796   2.985   4.551  0.2585 -0.0436  0.1209
 4081TIP3    H112249   4.708   2.954   4.570 -0.2045  0.6873 -0.7572
 4081TIP3    H212250   4.784   3.055   4.487  1.4873 -0.0050 -0.1023
 4082TIP3   OH212251   5.555   5.094   2.430  0.1547  0.0960  0.6595
 4082TIP3    H112252   5.543   5.000   2.437  2.0038 -0.1258  1.2937
 4082TIP3    H212253   5.505   5.131   2.502  0.3127 -0.4803  1.0651
 4083TIP3   OH212254   3.436   0.341   4.919 -0.4277  0.1778  0.5459
 4083TIP3    H112255   3.342   0.324   4.923 -0.3857 -0.4724 -0.7149
 4083TIP3    H212256   3.467   0.321   5.007 -1.2565 -1.0661  0.5919
 4084TIP3   OH212257   2.559   3.462   4.438 -0.2143  0.7411  0.1522
 4084TIP3    H112258   2.588   3.520   4.508  0.4172  1.7800 -0.9459
 4084TIP3    H212259   2.529   3.520   4.368  0.8692 -0.2177 -1.1710
 4085TIP3   OH212260   4.968   5.336   1.535 -0.1401 -0.2699  0.2468
 4085TIP3    H112261   4.875   5.328   1.557 -0.0052 -0.0156  0.9367
 4085TIP3    H212262   5.010   5.263   1.580  0.2054  0.5348  1.2646
 4086TIP3   OH212263   0.091   3.204   0.188 -0.2718  0.2455  0.1971
 4086TIP3    H112264   0.085   3.126   0.243 -0.8932  0.6291  0.6750
 4086TIP3    H212265   0.109   3.276   0.249  0.0804  0.5195 -0.2176
 4087TIP3   OH212266   0.555   1.301   3.512  0.5469 -0.0204 -0.3015
 4087TIP3    H112267   0.509   1.382   3.536  1.5831  0.4614  0.1472
 4087TIP3    H212268   0.489   1.247   3.471 -0.4589  0.5813  0.4759
 4088TIP3   OH212269   0.535   3.920   1.983 -0.0845 -0.3568  0.6014
 4088TIP3    H112270   0.573   3.887   1.902  1.0973  0.3771  0.8321
 4088TIP3    H212271   0.505   4.008   1.962 -0.4322 -0.4270  0.7848
 4089TIP3   OH212272   2.316   0.656   3.070 -0.0913 -0.3068 -0.6800
 4089TIP3    H112273   2.335   0.659   2.976 -1.4467 -1.4184 -1.0175
 4089TIP3    H212274   2.235   0.607   3.077 -1.2257  1.6490  0.9203
 4090TIP3   OH212275   2.833   4.837   1.440 -0.1512 -0.0035 -0.3449
 4090TIP3    H112276   2.873   4.784   1.372  1.8225  2.0825 -0.9242
 4090TIP3    H212277   2.744   4.853   1.408  0.2180 -0.4206 -1.6283
 4091TIP3   OH212278   2.340   0.206   3.162  0.4842  0.4596  0.1294
 4091TIP3    H112279   2.343   0.186   3.256  0.0763 -2.6775 -0.4469
 4091TIP3    H212280   2.387   0.290   3.155  2.0660 -0.0489  2.9203
 4092TIP3   OH212281   2.550   3.581   2.106  0.0436 -0.1756  0.9593
 4092TIP3    H112282   2.618   3.518   2.084  1.8099  1.3901  1.6635
 4092TIP3    H212283   2.505   3.542   2.181  1.0062 -0.6808  1.2883
 4093TIP3   OH212284   4.008   3.656   4.276  0.7539 -0.1480 -0.5641
 4093TIP3    H112285   3.975   3.579   4.321  0.2918 -0.0271 -0.6918
 4093TIP3    H212286   4.035   3.624   4.190 -1.5123  0.1968 -1.4683
 4094TIP3   OH212287   3.670   3.065   1.435 -0.2791  0.5928  0.3876
 4094TIP3    H112288   3.655   3.056   1.529 -0.3950  0.1602  0.3258
 4094TIP3    H212289   3.745   3.009   1.416 -0.0533  0.9240  0.2749
 4095TIP3   OH212290   3.196   2.752   4.693  0.4356 -0.7604 -0.2712
 4095TIP3    H112291   3.127   2.695   4.728 -0.1972 -0.1032 -0.4229
 4095TIP3    H212292   3.194   2.737   4.599  0.7663 -1.0259 -0.2374
 4096TIP3   OH212293   0.731   0.060   4.770  0.8432 -0.1221 -0.1904
 4096TIP3    H112294   0.701   0.013   4.691 -0.5180 -0.5750  0.5561
 4096TIP3    H212295   0.794   0.000   4.810 -0.3331 -1.0395  0.3626
 4097TIP3   OH212296   4.714   3.712   4.823 -0.6661 -0.4231  0.2258
 4097TIP3    H112297   4.629   3.706   4.779 -0.5011 -1.4403  0.0191
 4097TIP3    H212298   4.776   3.676   4.759 -0.4633 -2.2424  1.4029
 4098TIP3   OH212299   3.620   4.232   0.829 -0.0873 -0.2391 -0.6248
 4098TIP3    H112300   3.669   4.308   0.863 -0.7883  0.7067 -1.6601
 4098TIP3    H212301   3.537   4.235   0.877  0.1525 -0.7713 -0.1703
 4099TIP3   OH212302   6.149   2.955   3.739 -0.0317  0.4316  0.8307
 4099TIP3    H112303   6.236   2.993   3.751 -0.8066  2.1713  1.3405
 4099TIP3    H212304   6.139   2.947   3.644  0.2189  1.3899  0.7131
 4100TIP3   OH212305   3.589   3.164   3.353  0.5851 -0.3365 -0.3123
 4100TIP3    H112306   3.648   3.128   3.419  0.3179 -2.5437 -1.2116
 4100TIP3    H212307   3.505   3.172   3.397  0.6161 -0.9694 -0.1338
 4101TIP3   OH212308   3.869   1.100   1.745  0.0668  0.0312 -0.4787
 4101TIP3    H112309   3.883   1.163   1.674  0.1013  0.1942 -0.3279
 4101TIP3    H212310   3.895   1.016   1.708 -3.2920 -0.5287 -1.8597
 4102TIP3   OH212311   3.698   2.931   2.493  0.6164 -0.0339 -0.1812
 4102TIP3    H112312   3.613   2.943   2.452  0.7841  0.0960 -0.4969
 4102TIP3    H212313   3.683   2.865   2.561  0.4561 -0.7084 -0.8575
 4103TIP3   OH212314   1.719   4.006   1.558 -0.7293 -0.2721 -0.7103
 4103TIP3    H112315   1.627   3.979   1.553 -0.2778 -1.7372 -1.5323
 4103TIP3    H212316   1.733   4.026   1.650 -1.5607 -1.1872 -0.3702
 4104TIP3   OH212317   3.427   2.052   5.045 -0.3853  0.4238 -0.7934
 4104TIP3    H112318   3.412   2.119   5.112  0.0557  0.1110 -0.3706
 4104TIP3    H212319   3.481   1.986   5.089  0.8341  0.7269 -1.7635
 4105TIP3   OH212320   5.622   5.610   4.347 -0.3589 -0.1645  0.3364
 4105TIP3    H112321   5.710   5.578   4.368 -0.3295  0.4474  1.2115
 4105TIP3    H212322   5.567   5.576   4.417 -0.2718  1.8916  1.4860
 4106TIP3   OH212323   1.707   1.524   2.649 -0.4763 -0.0961  0.5772
 4106TIP3    H112324   1.786   1.560   2.690  0.0107 -0.9342  0.3929
 4106TIP3    H212325   1.664   1.475   2.719  0.9735 -2.5398 -0.1286
 4107TIP3   OH212326   1.725   0.284   2.198 -0.0536 -0.1064  0.1242
 4107TIP3    H112327   1.801   0.328   2.159  0.2073 -2.0276 -1.7340
 4107TIP3    H212328   1.657   0.352   2.200  0.4932  0.6049 -2.0894
 4108TIP3   OH212329   2.316   3.637   1.954 -0.0929 -0.7434 -1.0732
 4108TIP3    H112330   2.405   3.638   1.989 -0.0033 -1.0317 -1.2850
 4108TIP3    H212331   2.289   3.545   1.961 -0.5608 -0.5699 -0.5405
 4109TIP3   OH212332   3.335   4.268   4.503  0.4702 -0.1636 -0.1931
 4109TIP3    H112333   3.416   4.230   4.468  0.6076  0.0009 -0.0608
 4109TIP3    H212334   3.265   4.220   4.460  0.6222  0.5903 -1.3258
 4110TIP3   OH212335   1.550   4.810   3.570 -0.5292 -0.0817  0.7082
 4110TIP3    H112336   1.551   4.892   3.522 -2.2628 -0.0007  0.7295
 4110TIP3    H212337   1.488   4.826   3.642  0.1310 -0.9836  1.5015
 4111TIP3   OH212338   3.685   2.937   2.203  0.2256  0.2993 -0.1990
 4111TIP3    H112339   3.605   2.942   2.255 -1.5638 -1.2396 -2.5868
 4111TIP3    H212340   3.719   2.849   2.220  1.6949  1.0701  1.0888
 4112TIP3   OH212341   0.198   0.724   2.751 -0.0024 -0.0817 -0.0461
 4112TIP3    H112342   0.215   0.683   2.666  1.8279  1.4110 -0.4754
 4112TIP3    H212343   0.161   0.809   2.729  0.2766  0.2263  0.6513
 4113TIP3   OH212344   0.723   4.671   2.902 -0.3348 -0.0364 -0.5974
 4113TIP3    H112345   0.638   4.628   2.888  0.2425 -1.1159 -0.8466
 4113TIP3    H212346   0.783   4.624   2.845  0.6247  0.1546  0.2409
 4114TIP3   OH212347   3.455   3.288   2.276 -0.1450 -0.0448 -0.0447
 4114TIP3    H112348   3.382   3.307   2.218 -0.9644  1.3065  1.3410
 4114TIP3    H212349   3.433   3.203   2.316 -0.0214 -0.5326 -0.9933
 4115TIP3   OH212350   0.179   2.691   2.213  0.4555  0.2577  0.2190
 4115TIP3    H112351   0.108   2.750   2.188  0.5911  0.3363  0.0128
 4115TIP3    H212352   0.161   2.610   2.165 -0.3154 -0.2422  1.3204
 4116TIP3   OH212353   1.545   4.323   0.652  0.0128  0.8432  0.1788
 4116TIP3    H112354   1.598   4.291   0.725  0.7331  0.7359 -0.3809
 4116TIP3    H212355   1.454   4.314   0.682  0.2254 -0.8207  0.4047
 4117TIP3   OH212356   4.127   3.839   1.783  0.5342  0.1562  0.1584
 4117TIP3    H112357   4.087   3.877   1.861  2.0865  0.4691  0.8501
 4117TIP3    H212358   4.136   3.746   1.803  1.5950  0.3577  0.6750
 4118TIP3   OH212359   0.511   0.425   2.139 -0.1038 -0.1301  0.3955
 4118TIP3    H112360   0.479   0.495   2.081 -0.9920 -1.2564 -0.5079
 4118TIP3    H212361   0.433   0.393   2.184  0.1827 -1.0285  0.2658
 4119TIP3   OH212362   3.076   4.810   1.257  0.1714 -0.4110 -0.1421
 4119TIP3    H112363   3.145   4.840   1.197 -0.1121 -0.0230 -0.2814
 4119TIP3    H212364   3.106   4.725   1.287 -0.4335 -1.3622 -2.0675
 4120TIP3   OH212365   1.681   1.282   3.070 -0.1104 -0.2718  0.7006
 4120TIP3    H112366   1.601   1.230   3.067  0.4958 -1.2183  0.1219
 4120TIP3    H212367   1.745   1.229   3.022  0.6769  0.7752  0.5591
 4121TIP3   OH212368   2.034   0.848   0.228 -0.2900  0.2238 -0.3902
 4121TIP3    H112369   1.954   0.895   0.204  0.1412  0.9601 -0.4085
 4121TIP3    H212370   2.101   0.883   0.170  0.0194 -0.4893 -0.4636
 4122TIP3   OH212371   2.735   0.227   3.775  0.2919 -0.1292 -0.7366
 4122TIP3    H112372   2.716   0.317   3.750  0.6576 -0.0918 -0.8793
 4122TIP3    H212373   2.673   0.209   3.846 -0.8657 -0.2895 -1.7483
 4123TIP3   OH212374   1.003   2.513   4.623  0.1103 -0.3847 -0.3942
 4123TIP3    H112375   1.059   2.524   4.700 -0.0076 -2.3264  0.0219
 4123TIP3    H212376   0.918   2.549   4.651  0.4059  0.0925 -0.0851
 4124TIP3   OH212377   1.029   1.960   3.404  0.1017  0.6047  0.7553
 4124TIP3    H112378   1.120   1.989   3.401  0.3600 -0.2916 -1.3015
 4124TIP3    H212379   1.013   1.942   3.497  1.9054  1.0712  1.1895
 4125TIP3   OH212380   3.278   3.628   3.861  0.6517  0.1692  0.0638
 4125TIP3    H112381   3.214   3.567   3.824  1.0629 -0.2589  0.0499
 4125TIP3    H212382   3.363   3.592   3.835  0.8862  1.3532 -0.9141
 4126TIP3   OH212383   4.962   5.218   4.446 -0.4154  0.1843 -0.3998
 4126TIP3    H112384   4.877   5.261   4.440 -0.9072 -0.5940  0.7281
 4126TIP3    H212385   4.950   5.135   4.399  0.1441  0.6663 -1.4320
 4127TIP3   OH212386   0.659   4.614   0.260 -0.3173  0.4823 -0.2690
 4127TIP3    H112387   0.737   4.583   0.307  1.5457  2.4203 -1.9092
 4127TIP3    H212388   0.649   4.552   0.187 -1.6862 -1.0223  1.1101
 4128TIP3   OH212389   5.916   2.218   2.019  0.7716  0.2165 -0.6688
 4128TIP3    H112390   5.827   2.244   2.044 -0.1634 -3.1894  0.1212
 4128TIP3    H212391   5.941   2.281   1.952 -1.0213  3.0672  1.1263
 4129TIP3   OH212392   1.923   3.420   2.802 -0.6361  0.0919  0.2582
 4129TIP3    H112393   2.018   3.414   2.790 -0.7625  0.5753 -1.1966
 4129TIP3    H212394   1.895   3.330   2.817 -0.0963 -0.2528 -0.6903
 4130TIP3   OH212395   2.982   4.049   1.510 -0.0782  0.1921  0.4438
 4130TIP3    H112396   2.914   4.116   1.515 -1.4740 -1.2719  2.4163
 4130TIP3    H212397   3.017   4.058   1.421 -1.8360  1.9401 -0.1541
 4131TIP3   OH212398   0.104   4.844   2.681 -0.6105 -0.0603 -0.5393
 4131TIP3    H112399   0.083   4.755   2.709 -0.9591 -0.1555 -1.0834
 4131TIP3    H212400   0.094   4.842   2.586 -1.0435  0.6737 -0.5170
 4132TIP3   OH212401   1.033   1.840   4.537 -0.0175  0.0238  0.1093
 4132TIP3    H112402   1.027   1.923   4.585  0.9069  0.4890 -0.5455
 4132TIP3    H212403   1.078   1.781   4.598 -0.8155 -0.0579  0.6377
 4133TIP3   OH212404   3.909   3.078   3.238  0.0272  0.3504 -0.5263
 4133TIP3    H112405   3.979   3.012   3.237 -0.0491  0.2175  0.6627
 4133TIP3    H212406   3.954   3.161   3.253  0.1249  0.5911 -2.0435
 4134TIP3   OH212407   2.089   1.622   2.542 -0.0688 -0.2040 -0.5910
 4134TIP3    H112408   2.183   1.609   2.553 -0.0251  0.5564 -0.0079
 4134TIP3    H212409   2.082   1.687   2.472 -0.1684 -0.3602 -0.7275
 4135TIP3   OH212410   4.004   3.852   3.432  0.1185 -0.2817 -0.3285
 4135TIP3    H112411   3.941   3.824   3.498  0.4109  0.2164  0.1769
 4135TIP3    H212412   3.952   3.895   3.365 -0.0888  0.1418  0.0960
 4136TIP3   OH212413   6.126   1.977   0.844  0.2428  0.1244  0.1619
 4136TIP3    H112414   6.194   1.914   0.869  2.5901  1.5488 -2.0900
 4136TIP3    H212415   6.113   2.031   0.922  2.1544  0.1493  0.5167
 4137TIP3   OH212416   6.054   3.095   2.488  0.6609  0.0803 -0.0957
 4137TIP3    H112417   5.963   3.098   2.515  0.5710 -1.6300 -0.0958
 4137TIP3    H212418   6.090   3.180   2.512 -0.1356 -0.2924  2.7931
 4138TIP3   OH212419   2.123   1.336   3.839  0.1977  0.2475  0.1342
 4138TIP3    H112420   2.211   1.361   3.865  0.0542 -0.7581  1.7043
 4138TIP3    H212421   2.090   1.284   3.912 -1.1150 -0.7547 -1.1107
 4139TIP3   OH212422   4.597   4.885   4.332 -0.0161 -0.3029  0.3228
 4139TIP3    H112423   4.548   4.953   4.377 -1.1680 -0.5084 -0.5620
 4139TIP3    H212424   4.600   4.812   4.394  0.5090  0.2536  0.9575
 4140TIP3   OH212425   2.590   3.218   4.689  0.0649  0.6900  0.0981
 4140TIP3    H112426   2.652   3.199   4.759  1.3178  1.6974 -0.6911
 4140TIP3    H212427   2.627   3.295   4.644 -1.4656  0.9771 -0.7492
 4141TIP3   OH212428   1.357   5.739   3.370  0.0870 -0.4850  0.1566
 4141TIP3    H112429   1.406   5.727   3.452 -1.1568 -0.9334  0.8770
 4141TIP3    H212430   1.292   5.806   3.390 -0.9129 -1.3284 -0.1082
 4142TIP3   OH212431   3.683   3.227   2.504 -0.0637 -0.7180 -0.0609
 4142TIP3    H112432   3.674   3.132   2.506 -1.9588 -0.7633 -3.2817
 4142TIP3    H212433   3.682   3.249   2.410 -0.6229  2.5160  0.5838
 4143TIP3   OH212434   4.154   1.041   0.959  0.3208 -0.7056 -0.3362
 4143TIP3    H112435   4.135   0.972   1.022  1.6685  0.9267  2.0110
 4143TIP3    H212436   4.235   1.013   0.917  1.2955 -0.2809  1.1635
 4144TIP3   OH212437   0.542   5.840   3.993  0.4386  0.1422 -0.2102
 4144TIP3    H112438   0.594   5.817   4.069  1.2289  0.1457 -0.7438
 4144TIP3    H212439   0.604   5.842   3.920  0.0126  1.8562 -0.5661
 4145TIP3   OH212440   1.180   2.031   4.350 -0.4205 -0.4361  0.1333
 4145TIP3    H112441   1.125   1.968   4.396 -1.4773 -0.5477 -1.2188
 4145TIP3    H212442   1.118   2.087   4.304  0.5005  1.3997  1.0162
 4146TIP3   OH212443   1.465   5.513   4.229 -0.3212  0.0913  0.5717
 4146TIP3    H112444   1.508   5.598   4.227 -2.0739  1.0099 -0.8751
 4146TIP3    H212445   1.537   5.450   4.235  0.9980  1.6379  2.0536
 4147TIP3   OH212446   0.686   0.260   2.649 -0.2027  0.6749 -0.0890
 4147TIP3    H112447   0.631   0.241   2.573 -0.0014  0.1956 -0.1223
 4147TIP3    H212448   0.671   0.353   2.668 -4.7209 -0.3778  2.8762
 4148TIP3   OH212449   0.334   0.831   1.872 -0.3515  0.1201 -0.2173
 4148TIP3    H112450   0.335   0.883   1.953  0.4445  0.0930 -0.2009
 4148TIP3    H212451   0.418   0.850   1.831 -1.5175  1.6880 -2.0591
 4149TIP3   OH212452   3.412   5.204   1.823 -0.5505  0.3087  0.3181
 4149TIP3    H112453   3.454   5.119   1.836 -0.6603  0.0495 -0.8979
 4149TIP3    H212454   3.340   5.186   1.762 -1.7217  0.9532  1.4513
 4150TIP3   OH212455   6.338   3.234   3.092 -0.6581 -0.0180  0.5503
 4150TIP3    H112456   6.383   3.315   3.069  1.9344 -2.0234 -2.3382
 4150TIP3    H212457   6.266   3.228   3.029 -1.2075  0.2643  1.1389
 4151TIP3   OH212458   2.523   1.063   3.061  0.2633 -0.1152  0.2444
 4151TIP3    H112459   2.613   1.031   3.061  0.5581  0.6693  0.9885
 4151TIP3    H212460   2.472   0.993   3.102  0.0866 -1.6467 -2.4145
 4152TIP3   OH212461   4.142   5.838   0.421 -0.4643 -0.8039  0.2113
 4152TIP3    H112462   4.219   5.880   0.460  1.7993 -4.0444 -0.4242
 4152TIP3    H212463   4.090   5.808   0.496 -1.5005  1.8198  0.6499
 4153TIP3   OH212464   3.324   3.660   3.254 -0.2222 -0.9610 -0.1184
 4153TIP3    H112465   3.315   3.743   3.300 -1.1669 -0.2862 -1.4457
 4153TIP3    H212466   3.360   3.683   3.169  0.3069 -2.0163 -0.2001
 4154TIP3   OH212467   1.949   5.283   1.567 -0.0104  0.4806 -0.4965
 4154TIP3    H112468   2.010   5.307   1.497  0.9922  0.4934  0.3480
 4154TIP3    H212469   1.953   5.356   1.629  0.3283 -0.2236  0.3400
 4155TIP3   OH212470   5.837   2.621   1.101 -0.3350 -0.9274  0.2727
 4155TIP3    H112471   5.923   2.613   1.059 -1.3143  0.1616 -2.1658
 4155TIP3    H212472   5.843   2.703   1.151  0.1191 -0.9839  0.3189
 4156TIP3   OH212473   3.820   3.473   1.806 -0.6897 -0.1226  0.0350
 4156TIP3    H112474   3.756   3.405   1.788 -0.8327  0.7739 -3.4757
 4156TIP3    H212475   3.769   3.554   1.811 -0.0573  0.3366 -0.7679
 4157TIP3   OH212476   4.111   1.030   3.252 -0.0461 -0.2129 -0.0134
 4157TIP3    H112477   4.193   0.997   3.288 -0.5348 -1.1416  0.2935
 4157TIP3    H212478   4.132   1.056   3.163  1.0784  1.6734  0.7304
 4158TIP3   OH212479   2.523   5.952   1.092 -0.1209 -0.6663 -0.0053
 4158TIP3    H112480   2.492   5.977   1.179 -1.3204 -1.0967 -0.2957
 4158TIP3    H212481   2.530   5.857   1.096  2.1827 -0.5325  0.3637
 4159TIP3   OH212482   3.641   5.207   0.878 -0.0374 -0.1771  0.2254
 4159TIP3    H112483   3.620   5.128   0.928  0.7657 -2.2099 -2.4106
 4159TIP3    H212484   3.727   5.234   0.911 -1.2892  1.0437  2.7204
 4160TIP3   OH212485   3.056   4.864   5.170 -0.8983 -0.4574 -0.3454
 4160TIP3    H112486   3.043   4.920   5.247 -1.9131  0.8745 -1.4409
 4160TIP3    H212487   3.137   4.894   5.131 -0.7851 -0.6203 -0.2401
 4161TIP3   OH212488   4.458   5.089   0.363  0.0867 -0.2105  0.5171
 4161TIP3    H112489   4.468   4.996   0.343  0.1498 -0.1159  0.1110
 4161TIP3    H212490   4.379   5.093   0.418 -0.5375 -0.3754 -0.3559
 4162TIP3   OH212491   2.712   4.932   3.833  0.0580  0.3673 -0.4790
 4162TIP3    H112492   2.785   4.921   3.773  1.1509  0.2898  0.8260
 4162TIP3    H212493   2.653   4.993   3.788  2.2154  2.6129 -0.4182
 4163TIP3   OH212494   5.499   0.352   1.270  0.6626 -0.2529 -0.2886
 4163TIP3    H112495   5.486   0.286   1.338 -2.0278 -1.0055 -1.3668
 4163TIP3    H212496   5.485   0.304   1.188  0.3167  1.3063 -1.1847
 4164TIP3   OH212497   3.210   3.132   2.370 -0.4223  0.1233  0.3765
 4164TIP3    H112498   3.200   3.179   2.287  0.3194 -0.0262  0.1975
 4164TIP3    H212499   3.120   3.115   2.399 -0.9400 -3.4953 -2.4703
 4165TIP3   OH212500   6.287   2.833   3.106  0.1732  0.4975 -0.0346
 4165TIP3    H112501   6.248   2.895   3.167  2.0778 -0.1966  2.0192
 4165TIP3    H212502   6.349   2.885   3.055  1.3241  0.4370  1.2624
 4166TIP3   OH212503   5.716   5.809   2.108  0.0164  0.8628  0.1103
 4166TIP3    H112504   5.683   5.806   2.018  1.4527 -0.5196 -0.4206
 4166TIP3    H212505   5.785   5.875   2.106  0.8014  0.0480 -0.0937
 4167TIP3   OH212506   4.502   3.063   2.634  0.0023 -0.3484 -0.4012
 4167TIP3    H112507   4.434   3.109   2.684  0.2445  1.2732 -1.4986
 4167TIP3    H212508   4.453   3.008   2.573 -0.3762  1.1055 -1.4544
 4168TIP3   OH212509   3.443   0.625   1.260  0.0376 -0.1065  0.2301
 4168TIP3    H112510   3.435   0.640   1.354 -0.5731 -0.9451  0.3191
 4168TIP3    H212511   3.439   0.530   1.250 -0.7068  0.0072 -0.7110
 4169TIP3   OH212512   1.975   5.414   0.305  0.3605 -0.0300  0.1681
 4169TIP3    H112513   1.892   5.367   0.293  1.8453 -2.5022 -1.4260
 4169TIP3    H212514   2.042   5.346   0.297  2.5823  1.8975  1.2112
 4170TIP3   OH212515   2.073   2.273   0.606  0.0723  0.4742  0.0162
 4170TIP3    H112516   1.990   2.303   0.643 -0.7616 -0.1849 -1.2501
 4170TIP3    H212517   2.100   2.201   0.663 -1.3716 -0.7617 -0.7917
 4171TIP3   OH212518   1.462   0.033   4.429 -0.1451 -0.0286  0.4640
 4171TIP3    H112519   1.417  -0.045   4.461  0.0506 -0.2935  0.1072
 4171TIP3    H212520   1.541   0.039   4.483  0.4981 -0.8250 -0.3401
 4172TIP3   OH212521   4.435   1.082   1.272  0.0142 -0.2906 -0.0397
 4172TIP3    H112522   4.506   1.018   1.280  0.7271  0.3266 -1.2124
 4172TIP3    H212523   4.356   1.034   1.297  0.7767 -1.0944  0.9347
 4173TIP3   OH212524   1.766   3.270   4.739 -0.1805  0.5103 -0.2259
 4173TIP3    H112525   1.798   3.325   4.667  1.0259 -0.0738 -0.1670
 4173TIP3    H212526   1.802   3.183   4.719  1.6522  0.6816  1.9515
 4174TIP3   OH212527   6.155   2.160   3.310 -0.5011  0.1504  0.1503
 4174TIP3    H112528   6.120   2.242   3.273 -0.6528 -0.0406 -0.1357
 4174TIP3    H212529   6.106   2.091   3.265  1.2038 -0.1745 -1.3260
 4175TIP3   OH212530   4.620   0.741   4.482  0.1076 -0.7274 -0.3452
 4175TIP3    H112531   4.612   0.665   4.426 -0.2028 -1.3054  0.4697
 4175TIP3    H212532   4.590   0.814   4.428 -0.2607 -1.2816 -0.8996
 4176TIP3   OH212533   3.586   1.900   4.690 -0.1895  0.1972 -0.2431
 4176TIP3    H112534   3.523   1.954   4.737 -0.8582 -1.3157  0.6803
 4176TIP3    H212535   3.657   1.885   4.753 -0.0131 -0.0094 -0.4878
 4177TIP3   OH212536   2.263   4.976   0.131  0.0010  0.7951  0.6710
 4177TIP3    H112537   2.292   5.040   0.067 -1.1490 -0.1342 -0.8484
 4177TIP3    H212538   2.334   4.913   0.136 -0.8284 -0.4413 -1.5934
 4178TIP3   OH212539   0.395   3.917   0.706  0.3390 -0.2551  0.5237
 4178TIP3    H112540   0.482   3.919   0.666  0.3743  0.7229  0.6298
 4178TIP3    H212541   0.412   3.906   0.799  0.3295 -0.4516  0.5035
 4179TIP3   OH212542   1.718   5.389   1.340 -0.2462  0.5094  0.7127
 4179TIP3    H112543   1.804   5.417   1.307 -0.4853  1.9384  1.2483
 4179TIP3    H212544   1.728   5.387   1.435 -0.7968  0.6497  0.7782
 4180TIP3   OH212545   0.799   4.323   0.337  0.3081  0.2506  0.4566
 4180TIP3    H112546   0.834   4.284   0.418  2.6714 -0.7998 -0.9625
 4180TIP3    H212547   0.704   4.324   0.350  0.5467 -0.8030  2.8325
 4181TIP3   OH212548   6.077   2.972   0.445 -0.0197  0.3347 -0.1538
 4181TIP3    H112549   6.013   3.005   0.508  0.5681 -1.0925  1.2576
 4181TIP3    H212550   6.157   2.960   0.496  0.4561 -0.9225 -1.1476
 4182TIP3   OH212551   3.843   0.152   4.675 -0.0429 -0.2343  0.8297
 4182TIP3    H112552   3.894   0.232   4.662 -2.0947  0.7923 -1.8476
 4182TIP3    H212553   3.752   0.181   4.668 -0.9005 -2.6638  0.9915
 4183TIP3   OH212554   4.226   5.262   4.254  0.2800 -0.9215 -0.2098
 4183TIP3    H112555   4.269   5.333   4.300  0.4407 -0.8641 -0.4450
 4183TIP3    H212556   4.284   5.243   4.180  0.7741 -1.9954  0.4343
 4184TIP3   OH212557   5.608   2.851   2.724  0.4987  0.1829  0.5447
 4184TIP3    H112558   5.530   2.904   2.708  0.4072 -0.0029  0.3810
 4184TIP3    H212559   5.631   2.869   2.816  0.5118  0.5610  0.4687
 4185TIP3   OH212560   3.663   5.150   2.854 -0.1687 -0.5626  0.2244
 4185TIP3    H112561   3.594   5.100   2.810 -1.9408  0.1488  2.0317
 4185TIP3    H212562   3.722   5.083   2.889 -1.1320 -1.3156  0.4627
 4186TIP3   OH212563   0.232   2.312   0.394 -0.2483  0.5563 -0.0696
 4186TIP3    H112564   0.152   2.362   0.415  0.6864  1.3420  1.9187
 4186TIP3    H212565   0.205   2.221   0.399 -0.6423  0.7118  2.9093
 4187TIP3   OH212566   4.369   5.764   2.784 -0.5714  0.6399 -0.2676
 4187TIP3    H112567   4.434   5.725   2.843 -2.4059 -0.6756  1.0087
 4187TIP3    H212568   4.336   5.690   2.733 -2.0185  1.0051  0.0940
 4188TIP3   OH212569   4.641   1.467   3.720 -0.3625  0.0372 -0.2371
 4188TIP3    H112570   4.618   1.398   3.782 -0.6598  0.6986  0.4027
 4188TIP3    H212571   4.668   1.420   3.641  1.3942 -0.8809  0.8440
 4189TIP3   OH212572   3.692   3.191   3.088 -0.5000  0.1022 -0.8444
 4189TIP3    H112573   3.774   3.169   3.132  0.3760  1.8436 -1.5307
 4189TIP3    H212574   3.626   3.192   3.158  0.3594  0.2664 -0.0264
 4190TIP3   OH212575   2.667   4.001   2.578 -0.5600 -0.4321  0.1706
 4190TIP3    H112576   2.714   4.083   2.592 -2.5204  0.8674 -0.3797
 4190TIP3    H212577   2.588   4.010   2.632  0.3201 -3.0544  2.0473
 4191TIP3   OH212578   0.126   2.430   4.569  0.2931 -0.2006 -0.7482
 4191TIP3    H112579   0.133   2.525   4.567  0.7354 -0.2304 -0.7603
 4191TIP3    H212580   0.186   2.403   4.639 -0.8481 -0.3793  0.1956
 4192TIP3   OH212581   4.979   5.582   0.065 -0.2356 -0.5754  0.4914
 4192TIP3    H112582   4.913   5.613   0.127  1.5118  0.8670  1.7797
 4192TIP3    H212583   5.059   5.575   0.118  1.2263  0.2159 -1.4996
 4193TIP3   OH212584   5.970   0.140   4.194  0.2017 -0.4562  0.4691
 4193TIP3    H112585   5.902   0.086   4.233  0.0215 -0.2803  0.4041
 4193TIP3    H212586   5.947   0.143   4.101  0.1458 -0.1767  0.4910
 4194TIP3   OH212587   2.308   0.593   4.197  0.8251  0.0581  0.4704
 4194TIP3    H112588   2.214   0.603   4.212  0.9382 -0.1922  1.4666
 4194TIP3    H212589   2.344   0.576   4.284  1.9300  1.1031  0.2437
 4195TIP3   OH212590   4.197   2.400   4.499 -0.3518  0.5582  0.2841
 4195TIP3    H112591   4.102   2.390   4.498 -0.4443  1.3629  0.7340
 4195TIP3    H212592   4.216   2.466   4.432  0.1398 -1.3658 -1.6266
 4196TIP3   OH212593   0.125   5.141   2.291 -0.2824 -0.4554  0.7004
 4196TIP3    H112594   0.125   5.063   2.236 -0.5812 -1.1795  1.6967
 4196TIP3    H212595   0.034   5.172   2.287  0.2528  1.0430 -1.2992
 4197TIP3   OH212596   4.348   2.400   0.385 -0.3366  0.1277  0.0231
 4197TIP3    H112597   4.314   2.425   0.471 -0.1331  1.2448 -0.1982
 4197TIP3    H212598   4.301   2.321   0.362 -1.9298  0.9651  0.2629
 4198TIP3   OH212599   4.036   0.761   2.733  0.4105  0.0073 -0.6607
 4198TIP3    H112600   4.078   0.812   2.664 -1.5019  0.9640 -1.1958
 4198TIP3    H212601   3.988   0.692   2.687 -0.1505  0.1054 -0.2436
 4199TIP3   OH212602   4.721   1.581   1.147 -0.1636  0.0522 -0.3745
 4199TIP3    H112603   4.690   1.656   1.096  0.6998 -0.0386 -1.0597
 4199TIP3    H212604   4.813   1.600   1.163  0.5334 -1.5918 -1.9825
 4200TIP3   OH212605   3.362   2.625   0.600  0.0107  0.3826  0.0775
 4200TIP3    H112606   3.361   2.701   0.657 -0.2684  1.4775 -1.3423
 4200TIP3    H212607   3.271   2.609   0.578  0.0016 -0.8021  0.9085
 4201TIP3   OH212608   6.308   4.239   0.279  0.3797 -0.2768 -0.1930
 4201TIP3    H112609   6.262   4.312   0.238 -0.5957 -2.1412 -2.7271
 4201TIP3    H212610   6.320   4.265   0.370 -1.2620  2.3516 -0.6344
 4202TIP3   OH212611   3.363   3.102   2.595  0.7168 -0.7037 -0.0841
 4202TIP3    H112612   3.357   3.007   2.608 -1.5675 -0.5629  0.3535
 4202TIP3    H212613   3.321   3.117   2.510 -1.7847  0.1195  1.1783
 4203TIP3   OH212614   4.106   2.260   3.552  0.3766  0.2410 -0.0872
 4203TIP3    H112615   4.198   2.255   3.525  0.1399  0.0013 -0.8857
 4203TIP3    H212616   4.073   2.338   3.507  0.4893  1.0348  1.1647
 4204TIP3   OH212617   5.083   2.182   1.355  0.4859  0.0899  0.1112
 4204TIP3    H112618   5.107   2.186   1.448  0.2925 -1.1240  0.2262
 4204TIP3    H212619   5.001   2.231   1.349  1.1986  1.3641  0.3155
 4205TIP3   OH212620   3.057   0.905   4.104 -0.3813 -0.2242 -0.2780
 4205TIP3    H112621   3.100   0.957   4.036  2.2136 -0.6145  0.9427
 4205TIP3    H212622   3.104   0.927   4.185  0.0570 -3.4986  0.5088
 4206TIP3   OH212623   1.635   3.530   3.759  0.0457  0.1461 -0.0982
 4206TIP3    H112624   1.613   3.623   3.767 -1.2578 -0.1383 -0.2543
 4206TIP3    H212625   1.713   3.520   3.813  0.4399  1.4102 -0.3947
 4207TIP3   OH212626   3.270   5.701   1.516  0.3532  0.2370  0.3647
 4207TIP3    H112627   3.329   5.674   1.586  1.6196 -0.6735 -1.0036
 4207TIP3    H212628   3.236   5.786   1.544  1.7429  0.4280  1.5316
 4208TIP3   OH212629   0.236   3.009   3.331  0.0597 -0.2049  0.2853
 4208TIP3    H112630   0.211   3.089   3.285  0.0994  0.8982  2.0562
 4208TIP3    H212631   0.295   2.963   3.272 -1.2152  0.2684 -1.4158
 4209TIP3   OH212632   5.431   5.546   0.393  0.0339  0.5256  0.0013
 4209TIP3    H112633   5.474   5.461   0.401 -0.8983  0.0083 -0.3886
 4209TIP3    H212634   5.502   5.607   0.376  0.4667 -0.5891 -2.6140
 4210TIP3   OH212635   3.888   2.390   2.482  0.0356 -0.3161 -0.2497
 4210TIP3    H112636   3.939   2.350   2.412  0.8870  1.0184 -0.4259
 4210TIP3    H212637   3.827   2.448   2.436  0.0507 -0.0412  0.0733
 4211TIP3   OH212638   0.497   0.852   0.166 -0.1985  0.3087 -0.4982
 4211TIP3    H112639   0.527   0.933   0.125 -1.7734  0.7948 -0.7429
 4211TIP3    H212640   0.484   0.874   0.258  1.2670 -0.2193 -0.1330
 4212TIP3   OH212641   5.717   4.958   0.568 -0.4615  0.3012  0.0941
 4212TIP3    H112642   5.801   5.002   0.581 -0.7563  1.2752 -1.0732
 4212TIP3    H212643   5.652   5.027   0.579 -1.1284 -0.4422  0.9760
 4213TIP3   OH212644   4.647   0.587   0.057  0.6600  0.0899  0.3931
 4213TIP3    H112645   4.560   0.561   0.087  0.3913  1.3610  0.8002
 4213TIP3    H212646   4.693   0.612   0.137  1.9825 -2.1111  0.3737
 4214TIP3   OH212647   1.921   1.930   4.999  0.2872 -0.0145 -0.0978
 4214TIP3    H112648   1.876   1.861   4.951  0.5885 -0.3181  0.0568
 4214TIP3    H212649   1.850   1.987   5.030 -0.1893 -1.4873  1.7300
 4215TIP3   OH212650   5.690   2.999   1.802 -0.4586 -0.0802 -0.0171
 4215TIP3    H112651   5.691   2.972   1.893  0.2203  0.0830  0.0281
 4215TIP3    H212652   5.598   3.018   1.783 -0.9200 -2.1332  0.0150
 4216TIP3   OH212653   0.355   5.349   2.689 -0.6042  0.2870 -0.3819
 4216TIP3    H112654   0.394   5.304   2.763 -1.1301 -0.4116 -0.5188
 4216TIP3    H212655   0.260   5.345   2.706 -0.6500  1.6218 -0.2345
 4217TIP3   OH212656   0.361   0.499   2.594  0.4863 -0.2735 -0.2546
 4217TIP3    H112657   0.349   0.453   2.677  0.5577 -1.0775 -0.6805
 4217TIP3    H212658   0.456   0.509   2.585  0.5000 -0.5932 -0.4586
 4218TIP3   OH212659   3.585   2.404   0.048 -0.0615  0.2706 -0.1396
 4218TIP3    H112660   3.557   2.318   0.080 -0.2923  0.8216  1.1803
 4218TIP3    H212661   3.618   2.449   0.125  0.8120  1.0920 -0.9655
 4219TIP3   OH212662   5.955   0.781   0.351 -0.0012 -0.4705  0.1357
 4219TIP3    H112663   5.917   0.866   0.371  1.7442  0.0050  1.6932
 4219TIP3    H212664   6.045   0.787   0.382  0.3069 -2.7355 -0.1422
 4220TIP3   OH212665   2.429   0.072   5.059 -0.2559  0.1328  0.0565
 4220TIP3    H112666   2.364   0.048   4.994  0.7968 -0.0862 -0.9495
 4220TIP3    H212667   2.429   0.168   5.058 -0.3582  0.1316 -0.1519
 4221TIP3   OH212668   0.505   2.786   3.816  0.0948  0.3665  0.0069
 4221TIP3    H112669   0.526   2.703   3.860  0.7214 -0.9593 -2.6194
 4221TIP3    H212670   0.587   2.814   3.776 -0.4877  1.4096 -0.4943
 4222TIP3   OH212671   4.803   1.702   4.976 -0.5334  0.0432  0.2821
 4222TIP3    H112672   4.741   1.721   4.906  0.3529  1.3214 -0.1901
 4222TIP3    H212673   4.748   1.680   5.052 -1.6332  2.5823  0.3084
 4223TIP3   OH212674   2.122   2.601   4.560  0.2362  0.0353  0.4963
 4223TIP3    H112675   2.050   2.607   4.622 -1.1108 -0.9024 -0.9244
 4223TIP3    H212676   2.145   2.509   4.558  0.1431  0.0252 -0.5131
 4224TIP3   OH212677   1.573   1.895   1.672 -0.3226 -0.3951 -0.0194
 4224TIP3    H112678   1.619   1.974   1.643  0.3561 -0.2761  1.2926
 4224TIP3    H212679   1.636   1.825   1.656 -0.4971 -0.5136 -0.1721
 4225TIP3   OH212680   0.600   2.675   1.311  0.2354 -0.0974 -0.1243
 4225TIP3    H112681   0.571   2.715   1.393  0.0881 -1.8038  0.7029
 4225TIP3    H212682   0.563   2.731   1.242 -0.7200  0.6368  0.9568
 4226TIP3   OH212683   4.648   1.558   4.195  0.1614  0.2200 -0.3685
 4226TIP3    H112684   4.646   1.651   4.216 -0.9023 -0.1611  1.5123
 4226TIP3    H212685   4.673   1.516   4.278  0.7920 -1.1741 -1.2233
 4227TIP3   OH212686   3.484   2.796   4.544  0.2025  0.3792 -0.2062
 4227TIP3    H112687   3.474   2.860   4.615  0.5728  0.9091 -0.6273
 4227TIP3    H212688   3.400   2.796   4.499  0.1022  0.3428 -0.0190
 4228TIP3   OH212689   0.529   4.360   0.429  0.0602 -0.3345 -0.2952
 4228TIP3    H112690   0.466   4.334   0.496  1.3135 -0.8306  0.7521
 4228TIP3    H212691   0.521   4.455   0.423 -2.1797 -0.5344 -1.6828
 4229TIP3   OH212692   4.973   3.690   2.661 -0.9206  0.0856  0.3391
 4229TIP3    H112693   5.017   3.766   2.698 -0.5043 -0.6166  1.3421
 4229TIP3    H212694   4.977   3.624   2.730  0.2167 -1.4152 -1.0829
 4230TIP3   OH212695   2.858   1.677   0.716  0.1924  0.1096  0.2183
 4230TIP3    H112696   2.792   1.743   0.739 -0.0227 -0.6708  2.0164
 4230TIP3    H212697   2.808   1.608   0.671  0.4048  1.0578 -1.5878
 4231TIP3   OH212698   3.507   2.983   2.819  0.2363 -0.4324 -0.1267
 4231TIP3    H112699   3.496   2.897   2.777 -2.7852  0.3719 -1.1945
 4231TIP3    H212700   3.592   2.977   2.862  1.3260 -3.0406 -2.3294
 4232TIP3   OH212701   6.266   1.802   2.547 -0.3168 -0.1693  0.1238
 4232TIP3    H112702   6.336   1.747   2.512 -1.2221 -0.3999 -1.4757
 4232TIP3    H212703   6.197   1.740   2.570 -1.2933  0.2057 -1.5684
 4233TIP3   OH212704   5.395   4.309   1.847 -0.5675  0.2859  0.1944
 4233TIP3    H112705   5.386   4.397   1.884 -0.7913 -0.0974  1.0619
 4233TIP3    H212706   5.333   4.256   1.895  0.7257 -0.7046  0.8299
 4234TIP3   OH212707   4.858   1.033   3.704 -0.2811 -0.4422  0.2627
 4234TIP3    H112708   4.769   1.009   3.678 -0.5854  0.7805  0.1225
 4234TIP3    H212709   4.913   0.964   3.667 -1.1171 -0.9433 -0.0818
 4235TIP3   OH212710   2.302   4.572   2.561 -0.3038  0.1455 -0.3600
 4235TIP3    H112711   2.361   4.643   2.584  0.8139 -1.2977  1.5523
 4235TIP3    H212712   2.351   4.492   2.583 -2.8950 -1.1253  1.2755
 4236TIP3   OH212713   5.508   0.250   0.125  0.0500  0.0213 -0.0925
 4236TIP3    H112714   5.602   0.260   0.109  0.3127 -0.9478  0.7502
 4236TIP3    H212715   5.497   0.267   0.219 -0.5403 -0.3618 -0.0843
 4237TIP3   OH212716   1.743   5.609   1.597  0.1051  0.5690  0.3122
 4237TIP3    H112717   1.701   5.677   1.649  1.0726  0.8343  0.7634
 4237TIP3    H212718   1.818   5.582   1.649  0.1867 -0.2841 -0.2316
 4238TIP3   OH212719   4.432   0.610   4.244  0.1839 -0.7162  0.2901
 4238TIP3    H112720   4.384   0.583   4.166  0.5772  0.1240 -0.2591
 4238TIP3    H212721   4.476   0.691   4.218  1.7737 -1.3712  0.8107
 4239TIP3   OH212722   1.120   1.084   0.349 -0.0012 -0.3647  0.0941
 4239TIP3    H112723   1.119   1.179   0.363 -1.6394 -0.5297  1.4007
 4239TIP3    H212724   1.081   1.072   0.262  0.6929  0.1513 -0.3071
 4240TIP3   OH212725   1.950   4.358   2.498  0.6438  0.1013  0.9075
 4240TIP3    H112726   1.986   4.370   2.410  2.9007 -2.0988  1.4002
 4240TIP3    H212727   1.989   4.428   2.550  2.9679 -1.1920  1.0326
 4241TIP3   OH212728   1.351   2.364   4.786 -0.6675 -0.2225  0.4661
 4241TIP3    H112729   1.443   2.383   4.806 -0.0541 -2.0383 -0.4005
 4241TIP3    H212730   1.304   2.442   4.814  1.3211  1.4049 -0.4560
 4242TIP3   OH212731   3.388   5.571   2.234  0.2545  0.0284  0.6798
 4242TIP3    H112732   3.429   5.520   2.164 -2.0538 -0.8629 -0.1084
 4242TIP3    H212733   3.358   5.652   2.191 -1.6129 -0.7387  0.4428
 4243TIP3   OH212734   5.403   2.791   4.311 -0.1188 -0.2354 -0.1227
 4243TIP3    H112735   5.350   2.808   4.233  1.3947  1.3462 -0.8661
 4243TIP3    H212736   5.461   2.718   4.286 -0.9386 -1.0328  0.2254
 4244TIP3   OH212737   1.547   1.749   2.926 -0.4084 -0.2796  0.5657
 4244TIP3    H112738   1.459   1.724   2.895 -0.3187  0.0039  0.0823
 4244TIP3    H212739   1.533   1.780   3.015 -0.9962  0.9765  0.0584
 4245TIP3   OH212740   3.771   3.145   0.970  0.1078  0.0653 -0.2758
 4245TIP3    H112741   3.705   3.211   0.947  0.7984  0.1696 -2.1986
 4245TIP3    H212742   3.736   3.063   0.936 -0.5943 -0.5437  1.8142
 4246TIP3   OH212743   4.870   4.157   3.305 -0.0996  0.1839 -0.3308
 4246TIP3    H112744   4.839   4.171   3.215 -1.2237 -0.8508 -0.1365
 4246TIP3    H212745   4.864   4.062   3.318  0.9630  0.2139  0.5347
 4247TIP3   OH212746   0.375   2.043   2.087 -0.0884 -0.1033 -0.1759
 4247TIP3    H112747   0.306   2.019   2.025 -1.2507  1.2568  0.5373
 4247TIP3    H212748   0.330   2.095   2.153  1.5644  0.4612  0.5389
 4248TIP3   OH212749   2.246   4.323   4.371 -0.2562 -0.0605  0.4583
 4248TIP3    H112750   2.275   4.394   4.313  0.5629 -1.6951 -1.2222
 4248TIP3    H212751   2.325   4.295   4.417 -0.1651 -1.1194 -0.3078
 4249TIP3   OH212752   0.308   1.832   3.021  0.2881 -0.4615  0.6590
 4249TIP3    H112753   0.276   1.783   2.945  3.4658  0.1003 -1.2471
 4249TIP3    H212754   0.316   1.766   3.090 -3.4478 -0.8274  0.9224
 4250TIP3   OH212755   1.444   5.522   4.567  0.0268  0.2538 -0.1120
 4250TIP3    H112756   1.518   5.551   4.513  0.8891 -1.6348 -0.0315
 4250TIP3    H212757   1.449   5.577   4.645  1.4443  0.0925 -0.0545
 4251TIP3   OH212758   1.612   0.921   3.725  0.2779 -0.0077 -0.2177
 4251TIP3    H112759   1.646   0.944   3.812 -0.5614 -2.0974  0.7316
 4251TIP3    H212760   1.676   0.861   3.689 -0.2400 -0.5458 -0.2612
 4252TIP3   OH212761   4.150   4.235   0.877  0.4819 -0.0267  0.7082
 4252TIP3    H112762   4.120   4.225   0.967 -0.4176 -0.8399  0.3289
 4252TIP3    H212763   4.169   4.146   0.848 -2.0945 -0.1424 -0.8576
 4253TIP3   OH212764   5.844   1.473   4.387 -0.2068 -0.2506  0.2212
 4253TIP3    H112765   5.843   1.406   4.318 -0.6093 -1.7975  1.6580
 4253TIP3    H212766   5.864   1.554   4.341  1.6248 -1.5408 -1.4162
 4254TIP3   OH212767   0.535   1.287   5.018 -0.1934  0.0645  0.1196
 4254TIP3    H112768   0.605   1.318   4.961  0.2848  1.4953  1.3931
 4254TIP3    H212769   0.485   1.366   5.039 -0.6012 -0.4813  1.3015
 4255TIP3   OH212770   0.437   2.555   3.985 -0.5176  0.0286  0.7168
 4255TIP3    H112771   0.401   2.471   4.012  1.9672 -0.5618  2.4878
 4255TIP3    H212772   0.390   2.620   4.038 -0.2868 -0.5460  1.6369
 4256TIP3   OH212773   3.608   0.968   4.556  0.1848  0.0096 -0.2041
 4256TIP3    H112774   3.518   0.941   4.540 -0.5155  1.1323  1.5395
 4256TIP3    H212775   3.648   0.895   4.603 -0.5867  0.4551  1.1996
 4257TIP3   OH212776   0.985   5.311   5.161 -0.4099  0.3183 -0.1673
 4257TIP3    H112777   0.994   5.346   5.072  0.1964  2.1950  0.5866
 4257TIP3    H212778   1.016   5.382   5.218 -2.7464 -0.0304  1.6723
 4258TIP3   OH212779   5.646   0.443   3.902 -0.9974 -0.1701  0.1717
 4258TIP3    H112780   5.655   0.370   3.842  1.6459  1.1167 -1.1710
 4258TIP3    H212781   5.669   0.407   3.988 -0.2563 -1.0484 -0.3757
 4259TIP3   OH212782   6.228   0.714   3.213  0.3840 -0.2755  0.0118
 4259TIP3    H112783   6.288   0.715   3.138  0.2987 -2.0906 -0.1096
 4259TIP3    H212784   6.238   0.627   3.251 -0.1196  0.3586  1.6875
 4260TIP3   OH212785   4.527   2.030   0.067  0.5211 -0.0401 -0.5006
 4260TIP3    H112786   4.433   2.014   0.061  0.0819  2.0032 -0.0433
 4260TIP3    H212787   4.558   2.026  -0.024 -0.4858  1.5212 -0.9675
 4261TIP3   OH212788   4.949   0.928   3.152  0.5253 -0.2373 -0.2491
 4261TIP3    H112789   4.918   1.002   3.204  0.4557 -0.6406  0.2886
 4261TIP3    H212790   5.037   0.954   3.125  0.8122 -0.2899  0.6074
 4262TIP3   OH212791   3.864   0.083   0.823 -0.5101  0.0921  0.2208
 4262TIP3    H112792   3.861   0.068   0.918 -2.8775 -0.7878  0.0843
 4262TIP3    H212793   3.904   0.005   0.788  0.1950  0.3344  0.4697
 4263TIP3   OH212794   1.678   0.451   0.984 -0.1167 -0.3535 -0.1306
 4263TIP3    H112795   1.596   0.407   0.961 -2.1830  0.9152  3.7870
 4263TIP3    H212796   1.707   0.405   1.063  1.4573  0.9845  0.1073
 4264TIP3   OH212797   2.119   5.743   1.771  0.1967  0.1829 -0.4821
 4264TIP3    H112798   2.187   5.780   1.716  0.3494 -0.2764 -0.6080
 4264TIP3    H212799   2.043   5.801   1.760  0.2544  0.1420 -1.1003
 4265TIP3   OH212800   5.944   2.442   2.484 -0.1254 -0.5135 -0.4924
 4265TIP3    H112801   5.887   2.383   2.434 -0.6644 -1.0008  0.6550
 4265TIP3    H212802   5.895   2.524   2.488 -0.0159 -0.4253 -0.8676
 4266TIP3   OH212803   3.612   4.134   3.616 -0.1826 -0.2460  0.0579
 4266TIP3    H112804   3.683   4.185   3.655 -0.7694  2.4287 -2.1248
 4266TIP3    H212805   3.635   4.043   3.635  2.2915  0.6524  1.8902
 4267TIP3   OH212806   4.001   1.119   2.768  0.4624  0.3559  0.4816
 4267TIP3    H112807   3.920   1.082   2.805 -0.5745  2.3225  0.3136
 4267TIP3    H212808   3.991   1.107   2.674  0.5549  0.2394  0.4867
 4268TIP3   OH212809   5.894   1.824   1.601  0.6128 -0.4783 -0.5569
 4268TIP3    H112810   5.932   1.863   1.680  0.2673 -0.0441 -0.5962
 4268TIP3    H212811   5.912   1.888   1.532  0.6911 -0.7370 -0.7751
 4269TIP3   OH212812   5.921   5.039   4.156  0.6623 -0.5461 -0.1323
 4269TIP3    H112813   6.016   5.041   4.140  0.4451 -0.8382 -1.5208
 4269TIP3    H212814   5.899   5.130   4.177  1.5704 -0.8293  2.3957
 4270TIP3   OH212815   0.491   5.077   4.290  0.4315 -0.5079  0.2350
 4270TIP3    H112816   0.566   5.026   4.260  2.6698  1.3374  2.3164
 4270TIP3    H212817   0.496   5.074   4.386 -0.0861  2.4408  0.4416
 4271TIP3   OH212818   4.710   2.110   3.281  0.4604 -0.1929  0.0601
 4271TIP3    H112819   4.763   2.034   3.305  2.3523 -0.1285 -3.2352
 4271TIP3    H212820   4.620   2.079   3.288  1.0546 -1.7791  1.5224
 4272TIP3   OH212821   1.155   5.960   2.409  0.1322  0.2624 -0.1243
 4272TIP3    H112822   1.232   6.016   2.422  0.7981 -0.6780  0.1073
 4272TIP3    H212823   1.132   5.972   2.317  0.0132  1.2178  0.0217
 4273TIP3   OH212824   1.163   4.827   0.593 -0.0821  0.0027 -0.1158
 4273TIP3    H112825   1.226   4.874   0.647  0.8006 -1.0558 -0.1919
 4273TIP3    H212826   1.078   4.863   0.619  0.3685 -0.0233  1.5026
 4274TIP3   OH212827   1.242   4.068   4.729 -0.7764  0.3936  0.4309
 4274TIP3    H112828   1.192   4.049   4.808 -0.9069  0.4376  0.3583
 4274TIP3    H212829   1.200   4.145   4.692 -0.8870  0.2083  0.1691
 4275TIP3   OH212830   1.070   1.658   2.412 -0.1330  0.0413 -0.1441
 4275TIP3    H112831   1.073   1.604   2.334 -0.9038 -1.6962  0.9617
 4275TIP3    H212832   1.162   1.673   2.435  0.0900  0.2468 -1.1597
 4276TIP3   OH212833   3.852   4.020   1.634  0.2322  0.7453  0.5103
 4276TIP3    H112834   3.772   3.971   1.616 -0.7094  1.4455  2.5454
 4276TIP3    H212835   3.902   4.015   1.552 -1.0156 -1.3123 -0.2033
 4277TIP3   OH212836   5.455   3.785   3.569  0.3266 -0.0469 -0.5160
 4277TIP3    H112837   5.504   3.705   3.588  0.6860  0.4590  0.7558
 4277TIP3    H212838   5.516   3.838   3.518  0.6288  0.0275 -0.0835
 4278TIP3   OH212839   2.386   3.128   0.501  0.0060 -0.5854  0.7219
 4278TIP3    H112840   2.440   3.082   0.564 -1.5249 -1.8165  1.1954
 4278TIP3    H212841   2.297   3.099   0.519 -0.6891  0.3813 -0.8608
 4279TIP3   OH212842   1.343   2.457   1.600 -0.2914 -0.1283 -0.2260
 4279TIP3    H112843   1.248   2.443   1.602 -0.6296  1.9163  0.1167
 4279TIP3    H212844   1.368   2.459   1.692  0.0943 -0.6600 -0.3170
 4280TIP3   OH212845   2.900   0.770   2.416 -0.5073  0.4289 -0.1169
 4280TIP3    H112846   2.825   0.726   2.376 -1.0298  0.8338  0.3886
 4280TIP3    H212847   2.879   0.863   2.410  0.0342  0.5526 -0.1236
 4281TIP3   OH212848   2.915   0.543   4.641  0.0266  0.3554  0.6875
 4281TIP3    H112849   2.867   0.626   4.642  0.7069  0.7637  0.2337
 4281TIP3    H212850   2.937   0.529   4.549  1.7981  0.7803  1.0137
 4282TIP3   OH212851   1.420   1.179   0.053  0.2780  0.0924  0.2444
 4282TIP3    H112852   1.480   1.105   0.044  0.5665  0.3204  0.2645
 4282TIP3    H212853   1.415   1.218  -0.034  1.8011  1.3220  0.6582
 4283TIP3   OH212854   1.836   1.127   2.621 -0.4640  0.4429 -0.5925
 4283TIP3    H112855   1.883   1.052   2.657 -0.7721  0.5850  0.1162
 4283TIP3    H212856   1.904   1.191   2.602 -0.4031  0.9088  1.0569
 4284TIP3   OH212857   2.728   2.551   0.938  0.6267 -0.1721 -0.0550
 4284TIP3    H112858   2.668   2.551   1.013  0.0455 -1.2002 -0.4901
 4284TIP3    H212859   2.766   2.639   0.938 -1.5474  0.8486 -0.2764
 4285TIP3   OH212860   1.012   1.140   3.890  0.0026  0.4153  0.3274
 4285TIP3    H112861   1.056   1.176   3.968 -0.1894  1.2384  0.0702
 4285TIP3    H212862   0.980   1.217   3.844  0.5478 -0.0285 -0.8300
 4286TIP3   OH212863   4.670   2.151   0.504 -0.4585 -0.1003 -0.0989
 4286TIP3    H112864   4.691   2.221   0.567  1.9006 -0.6970 -0.1023
 4286TIP3    H212865   4.718   2.176   0.425 -0.9744 -0.8643 -0.6633
 4287TIP3   OH212866   4.894   4.150   4.324  0.2507  0.3558  0.1333
 4287TIP3    H112867   4.970   4.135   4.380  1.9355  2.5290 -1.3989
 4287TIP3    H212868   4.826   4.179   4.385  1.1932  0.1305  1.3532
 4288TIP3   OH212869   2.118   5.395   5.090  0.5326  0.4920  0.1647
 4288TIP3    H112870   2.165   5.325   5.045 -0.3621 -0.0497  0.0395
 4288TIP3    H212871   2.142   5.385   5.182  0.3558 -0.0324  0.1565
 4289TIP3   OH212872   5.141   2.124   1.634 -0.2366  0.0880  0.2560
 4289TIP3    H112873   5.079   2.058   1.663 -0.9247 -0.1863 -1.6712
 4289TIP3    H212874   5.227   2.089   1.657 -0.7124 -0.1463  1.7444
 4290TIP3   OH212875   0.898   4.182   1.065 -0.8154 -0.2022 -0.5857
 4290TIP3    H112876   0.875   4.171   0.973 -0.6903 -2.5097 -0.3914
 4290TIP3    H212877   0.987   4.148   1.072 -1.2101 -1.0543  0.5744
 4291TIP3   OH212878   4.777   1.007   4.244  0.5006  0.2882 -0.1338
 4291TIP3    H112879   4.801   1.027   4.154 -0.3479 -3.2582 -1.2856
 4291TIP3    H212880   4.841   0.941   4.272  0.8427  1.4281  1.9837
 4292TIP3   OH212881   5.722   5.814   0.146  0.2633  0.5715  0.0422
 4292TIP3    H112882   5.674   5.890   0.113  1.4611  1.5317  0.4453
 4292TIP3    H212883   5.681   5.795   0.230 -0.1183  0.6847 -0.1135
 4293TIP3   OH212884   0.324   5.132   1.608 -0.1530 -0.1238  0.3779
 4293TIP3    H112885   0.375   5.063   1.566 -0.4769  0.2244 -0.6293
 4293TIP3    H212886   0.328   5.112   1.702  0.4867 -0.9997  0.1746
 4294TIP3   OH212887   2.850   3.053   1.947 -0.2446  0.0919  0.5374
 4294TIP3    H112888   2.767   3.049   1.996 -1.1153 -2.6927 -0.9359
 4294TIP3    H212889   2.916   3.070   2.014 -1.7952  0.6506  2.0229
 4295TIP3   OH212890   4.938   2.970   0.147  0.1582 -0.1973 -0.1396
 4295TIP3    H112891   4.950   3.062   0.124  0.4998 -0.2362 -0.1333
 4295TIP3    H212892   4.846   2.951   0.128 -0.0576  0.2963  0.3904
 4296TIP3   OH212893   1.254   3.540   3.735 -0.1801 -0.3270 -0.4644
 4296TIP3    H112894   1.194   3.470   3.710  0.4868 -0.7789 -0.8073
 4296TIP3    H212895   1.341   3.504   3.720  0.2053  0.0326  0.7894
 4297TIP3   OH212896   3.931   2.005   3.390  0.3846  0.2083 -0.6344
 4297TIP3    H112897   4.012   1.988   3.437  0.7373  2.9980 -0.0362
 4297TIP3    H212898   3.957   2.007   3.298  0.6805 -0.4394 -0.5685
 4298TIP3   OH212899   0.823   1.315   2.145  0.0222 -0.4701 -0.4848
 4298TIP3    H112900   0.887   1.244   2.137  0.1639 -0.5572  1.0832
 4298TIP3    H212901   0.814   1.328   2.240 -2.2462 -0.4457 -0.6541
 4299TIP3   OH212902   6.260   0.333   2.131  0.2081  0.2121 -0.4224
 4299TIP3    H112903   6.168   0.356   2.144  0.3404  0.2876  0.4948
 4299TIP3    H212904   6.280   0.273   2.204  0.8946  0.2364 -0.5828
 4300TIP3   OH212905   4.047   0.327   2.970 -0.2404 -0.4578  0.0863
 4300TIP3    H112906   4.036   0.287   3.056 -2.4250  0.1601  0.1643
 4300TIP3    H212907   4.103   0.403   2.987 -1.4693  0.2523  1.2061
 4301TIP3   OH212908   1.763   2.431   1.033  0.1406  0.5264 -0.1851
 4301TIP3    H112909   1.739   2.522   1.020  0.1215  0.4942 -0.3875
 4301TIP3    H212910   1.708   2.401   1.106  0.3047  0.7357  0.0222
 4302TIP3   OH212911   2.270   0.288   2.354 -0.2868  0.0344 -0.0696
 4302TIP3    H112912   2.177   0.300   2.373 -0.4010 -1.5801  0.6085
 4302TIP3    H212913   2.315   0.317   2.433 -0.4472 -1.9842  0.8301
 4303TIP3   OH212914   5.313   0.132   4.800  0.2542  0.1953  0.0668
 4303TIP3    H112915   5.278   0.196   4.739  1.5407  1.2662  0.4087
 4303TIP3    H212916   5.237   0.106   4.853 -0.5939  0.2513 -1.0788
 4304TIP3   OH212917   3.568   5.015   5.163  0.6043 -0.4874 -0.7789
 4304TIP3    H112918   3.510   4.953   5.206  0.8308 -0.3116 -0.2002
 4304TIP3    H212919   3.515   5.095   5.153  0.3004 -0.7823 -1.5614
 4305TIP3   OH212920   5.228   2.328   1.814  0.1202 -0.3670 -1.1095
 4305TIP3    H112921   5.181   2.295   1.737  1.0021 -0.2179 -1.7219
 4305TIP3    H212922   5.306   2.370   1.778  1.9286 -2.5787  0.0034
 4306TIP3   OH212923   6.017   3.583   4.034  0.0783  0.0498  0.0532
 4306TIP3    H112924   5.937   3.600   4.084  0.6186  0.3637  0.8304
 4306TIP3    H212925   6.018   3.488   4.022  0.3864 -0.1333  1.4134
 4307TIP3   OH212926   0.062   0.157   3.027 -0.3217 -0.7831  0.3885
 4307TIP3    H112927   0.153   0.147   3.055 -0.2665 -0.0125  0.5008
 4307TIP3    H212928   0.028   0.068   3.023 -0.6185 -0.9653  3.8355
 4308TIP3   OH212929   3.966   3.624   0.227  0.0090 -0.3133  0.3233
 4308TIP3    H112930   3.981   3.710   0.266  2.0169 -0.3729 -0.2029
 4308TIP3    H212931   3.987   3.636   0.134  0.3994 -1.3874  0.2633
 4309TIP3   OH212932   6.106   2.538   1.232  0.0967 -0.1938 -0.4596
 4309TIP3    H112933   6.062   2.564   1.313 -0.3635 -1.6249 -0.2129
 4309TIP3    H212934   6.076   2.602   1.167 -1.3348 -0.3542  0.0043
 4310TIP3   OH212935   0.995   4.410   4.100  0.3696 -0.0762  0.0156
 4310TIP3    H112936   0.921   4.349   4.105 -0.3979  0.8188 -0.2695
 4310TIP3    H212937   0.960   4.488   4.057  1.8292 -0.1426 -1.4153
 4311TIP3   OH212938   2.266   3.073   4.107  0.1958 -0.2016  0.0870
 4311TIP3    H112939   2.282   3.167   4.120 -0.3467 -0.3311  1.9812
 4311TIP3    H212940   2.176   3.060   4.136  0.5376 -1.4303  0.6370
 4312TIP3   OH212941   1.893   2.952   3.846 -0.0620 -0.3779  0.0044
 4312TIP3    H112942   1.911   2.997   3.929  0.6873 -2.5267  1.0777
 4312TIP3    H212943   1.879   2.861   3.871 -0.7694 -0.9084 -2.1597
 4313TIP3   OH212944   4.580   0.961   0.494  0.0237  0.3614  0.7210
 4313TIP3    H112945   4.637   1.033   0.467 -0.3501 -0.0502 -1.3155
 4313TIP3    H212946   4.494   1.002   0.505 -0.2396  0.2204 -0.6645
 4314TIP3   OH212947   4.549   1.886   1.330  0.1899  0.0439  0.2592
 4314TIP3    H112948   4.483   1.859   1.267  0.4702  3.7390 -1.9794
 4314TIP3    H212949   4.631   1.884   1.280  0.5276  2.3953  0.5966
 4315TIP3   OH212950   0.157   1.716   0.599 -0.0960 -0.3816 -0.6293
 4315TIP3    H112951   0.184   1.694   0.688  0.2662 -2.4792 -1.2119
 4315TIP3    H212952   0.063   1.733   0.606 -0.6524 -3.1458 -0.2062
 4316TIP3   OH212953   1.859   0.380   1.621 -0.0755 -0.5720  0.4002
 4316TIP3    H112954   1.811   0.419   1.694  0.0196  1.3598 -0.5268
 4316TIP3    H212955   1.943   0.426   1.620  0.0713 -0.8470 -0.6942
 4317TIP3   OH212956   5.916   5.895   3.126 -0.4468  0.1596  0.4534
 4317TIP3    H112957   5.831   5.880   3.167 -0.4384  0.3970  0.5580
 4317TIP3    H212958   5.965   5.946   3.190  0.1414 -0.8608  0.8360
 4318TIP3   OH212959   1.023   5.261   1.574 -0.4887  1.0059 -0.0860
 4318TIP3    H112960   0.938   5.296   1.549 -1.2404 -0.7981 -0.2011
 4318TIP3    H212961   1.074   5.259   1.493 -0.4010  1.8410 -0.0633
 4319TIP3   OH212962   3.215   5.478   3.735 -0.0192  0.0857  0.8230
 4319TIP3    H112963   3.240   5.536   3.663  2.7429  0.7015  2.1284
 4319TIP3    H212964   3.164   5.408   3.694  1.6213  0.3106 -1.7677
 4320TIP3   OH212965   2.423   4.948   3.679 -1.0697 -0.1950 -0.2128
 4320TIP3    H112966   2.482   4.936   3.605  0.1377  2.7040  0.1828
 4320TIP3    H212967   2.455   4.885   3.745 -0.1320 -0.5481 -0.9756
 4321TIP3   OH212968   2.817   0.041   0.531 -0.3249  0.4259  0.4099
 4321TIP3    H112969   2.912   0.043   0.542 -0.3466  2.2253  0.5694
 4321TIP3    H212970   2.803  -0.021   0.459  0.7553 -1.6298  1.8633
 4322TIP3   OH212971   0.337   5.059   1.896 -0.3199  0.7645  0.0744
 4322TIP3    H112972   0.281   5.136   1.887  1.7542  2.3902  0.1329
 4322TIP3    H212973   0.364   5.059   1.988 -0.2376  0.0069  0.0588
 4323TIP3   OH212974   3.087   3.860   1.685 -0.0132 -0.0203  0.8946
 4323TIP3    H112975   3.079   3.906   1.601  0.6650 -2.0994 -0.4004
 4323TIP3    H212976   3.107   3.928   1.749  1.8170  1.3815 -1.0411
 4324TIP3   OH212977   5.290   1.854   4.743  0.0625 -0.1208  0.8430
 4324TIP3    H112978   5.369   1.907   4.751  0.5929 -0.9067  0.8722
 4324TIP3    H212979   5.257   1.873   4.655  1.3806 -1.2672  0.0684
 4325TIP3   OH212980   3.298   3.704   4.566  0.3807 -0.0853 -0.2412
 4325TIP3    H112981   3.382   3.686   4.524  0.7601  0.5802  0.1936
 4325TIP3    H212982   3.296   3.800   4.574  0.8876 -0.2111  2.3042
 4326TIP3   OH212983   1.043   4.494   4.720  0.0271  0.3716  0.2673
 4326TIP3    H112984   0.959   4.526   4.689 -0.3553 -1.6955 -1.0052
 4326TIP3    H212985   1.096   4.573   4.731 -1.8071  1.6481  0.3787
 4327TIP3   OH212986   0.825   2.869   3.885 -0.1400  0.0787 -0.0299
 4327TIP3    H112987   0.863   2.856   3.972 -1.7566  0.8418  0.8289
 4327TIP3    H212988   0.887   2.926   3.840  0.9397 -0.6835  0.4395
 4328TIP3   OH212989   1.507   3.915   2.994 -0.0475 -0.0416 -0.4044
 4328TIP3    H112990   1.550   3.841   3.036 -0.5793  0.1128  0.4489
 4328TIP3    H212991   1.498   3.980   3.064 -1.2082  0.1174 -0.6841
 4329TIP3   OH212992   1.729   3.330   1.338  0.1578 -0.0887 -0.8362
 4329TIP3    H112993   1.711   3.418   1.306 -0.4490  0.2717  0.4220
 4329TIP3    H212994   1.724   3.338   1.434 -0.8335 -1.6747 -0.7195
 4330TIP3   OH212995   5.960   5.880   0.600 -0.0754 -0.3163 -0.2056
 4330TIP3    H112996   6.038   5.844   0.640  0.9997  1.1257 -0.9062
 4330TIP3    H212997   5.934   5.815   0.535 -0.7997 -1.8300  1.5145
 4331TIP3   OH212998   5.465   2.971   3.319  0.2758 -0.3313 -0.4040
 4331TIP3    H112999   5.527   3.040   3.296 -1.1739  1.4039  0.5682
 4331TIP3    H213000   5.462   2.973   3.415 -1.6263  0.0390 -0.4315
 4332TIP3   OH213001   2.371   2.413   1.711 -0.1221  0.0510 -0.0278
 4332TIP3    H113002   2.348   2.397   1.802  0.2719 -1.2445 -0.1352
 4332TIP3    H213003   2.455   2.369   1.700  0.9656  2.0665 -0.4420
 4333TIP3   OH213004   5.658   3.535   3.295 -0.1936  0.4540  0.4393
 4333TIP3    H113005   5.726   3.468   3.285 -0.3412  0.3874 -0.1545
 4333TIP3    H213006   5.602   3.501   3.365 -1.4250 -1.0423 -1.1883
 4334TIP3   OH213007   5.116   4.153   5.067  0.0470 -0.1888  0.0594
 4334TIP3    H113008   5.039   4.156   5.123 -1.2067 -3.0497 -1.3114
 4334TIP3    H213009   5.178   4.098   5.115  0.5615  0.6496  0.3716
 4335TIP3   OH213010   0.284   4.672   1.262  0.1391 -0.2336 -0.0206
 4335TIP3    H113011   0.341   4.735   1.217 -0.3636 -1.3486 -2.3604
 4335TIP3    H213012   0.337   4.642   1.336  1.3022  1.1480 -0.2298
 4336TIP3   OH213013   0.111   4.319   3.410 -0.6588  0.6011 -0.2919
 4336TIP3    H113014   0.193   4.272   3.395 -0.8577 -0.0484  0.5810
 4336TIP3    H213015   0.105   4.381   3.338 -0.0111 -0.1943 -1.0495
 4337TIP3   OH213016   2.037   1.016   2.783 -0.3627  0.1249 -0.2351
 4337TIP3    H113017   2.041   1.103   2.822 -1.4903 -0.2608  0.7906
 4337TIP3    H213018   2.055   0.956   2.855 -0.1253 -0.5267 -0.8195
 4338TIP3   OH213019   4.006   2.052   3.068 -0.2402  0.5939 -0.0114
 4338TIP3    H113020   3.976   1.997   2.996  1.6085  0.3227 -0.6082
 4338TIP3    H213021   4.093   2.082   3.042  0.0098  1.4169  1.6122
 4339TIP3   OH213022   5.146   3.176   1.867 -0.0314 -0.4406  0.0490
 4339TIP3    H113023   5.164   3.267   1.843  0.9451 -0.6653 -0.1135
 4339TIP3    H213024   5.143   3.129   1.784 -0.1799 -0.6140  0.1517
 4340TIP3   OH213025   5.473   4.468   2.412 -0.3966 -0.6689  0.2607
 4340TIP3    H113026   5.502   4.459   2.322 -0.1958 -0.2603  0.2838
 4340TIP3    H213027   5.453   4.561   2.422 -2.2113 -1.0088  0.0903
 4341TIP3   OH213028   6.337   3.189   4.574 -0.1371 -0.0758  0.0589
 4341TIP3    H113029   6.370   3.117   4.629  0.2313  0.3074  0.3498
 4341TIP3    H213030   6.264   3.225   4.624 -1.6576 -1.5305 -1.0224
 4342TIP3   OH213031   2.159   3.573   1.234  0.1116  0.1849  0.0572
 4342TIP3    H113032   2.110   3.629   1.294  0.8429 -0.0587  0.9005
 4342TIP3    H213033   2.092   3.530   1.181 -0.7517 -1.6329  2.4645
 4343TIP3   OH213034   3.887   2.386   1.723 -0.2560 -0.0964 -0.2503
 4343TIP3    H113035   3.976   2.406   1.691 -0.3261  0.8890  0.1443
 4343TIP3    H213036   3.901   2.345   1.808 -0.1583 -0.7331 -0.5613
 4344TIP3   OH213037   4.645   1.689   0.515  0.0957 -0.4221  0.8728
 4344TIP3    H113038   4.657   1.606   0.561 -0.8684 -0.3881  1.2018
 4344TIP3    H213039   4.579   1.670   0.448  1.2175 -0.3796 -0.2959
 4345TIP3   OH213040   4.209   1.439   2.066 -0.4011 -0.4984 -0.8446
 4345TIP3    H113041   4.257   1.439   2.148  2.7830 -0.7030 -2.5275
 4345TIP3    H213042   4.251   1.370   2.014 -2.1970 -0.2888 -2.7062
 4346TIP3   OH213043   3.139   0.332   2.986 -0.2912  0.2482  0.5583
 4346TIP3    H113044   3.054   0.346   3.028 -1.6081 -0.1356 -1.7868
 4346TIP3    H213045   3.126   0.257   2.929  1.6752  0.1322  0.1735
 4347TIP3   OH213046   6.056   1.479   0.843 -0.2477 -0.0980 -0.0685
 4347TIP3    H113047   6.018   1.528   0.916 -1.7668 -2.4364  0.8076
 4347TIP3    H213048   6.004   1.505   0.767 -0.8702 -0.1346  0.3358
 4348TIP3   OH213049   2.228   5.118   1.607 -0.0011  0.0196  0.5428
 4348TIP3    H113050   2.165   5.169   1.555 -0.9253  0.6592  2.2059
 4348TIP3    H213051   2.202   5.133   1.698  2.3363 -0.0263  1.2856
 4349TIP3   OH213052   4.883   5.212   3.538  0.6848  0.2246  0.4720
 4349TIP3    H113053   4.819   5.208   3.610 -0.2216 -1.0550 -0.3786
 4349TIP3    H213054   4.861   5.138   3.482  2.8230 -0.1523  0.0463
 4350TIP3   OH213055   5.255   5.132   1.665 -0.1215  0.0489 -0.0319
 4350TIP3    H113056   5.298   5.121   1.580  0.8309 -2.2934  0.6631
 4350TIP3    H213057   5.162   5.117   1.648 -0.0859  0.6634 -0.8117
 4351TIP3   OH213058   3.512   0.669   2.073  0.6618 -0.5720 -0.3339
 4351TIP3    H113059   3.573   0.713   2.133  1.3245 -1.7837 -0.0955
 4351TIP3    H213060   3.567   0.637   2.002  0.1556 -0.8227 -0.6172
 4352TIP3   OH213061   5.726   4.810   1.766 -0.4641  0.5202 -0.0328
 4352TIP3    H113062   5.709   4.727   1.721 -0.3454 -0.2259  1.2543
 4352TIP3    H213063   5.683   4.876   1.712 -1.4669 -0.5080 -0.5275
 4353TIP3   OH213064   2.797   0.893   0.658  0.5711 -0.2014  0.1689
 4353TIP3    H113065   2.820   0.842   0.580  0.7665 -1.8555  1.2421
 4353TIP3    H213066   2.842   0.977   0.646  2.8058 -1.3725 -0.3111
 4354TIP3   OH213067   1.991   2.605   3.258  0.5456 -0.1343 -0.5598
 4354TIP3    H113068   1.972   2.621   3.166  2.2216  1.1945 -0.7367
 4354TIP3    H213069   2.080   2.569   3.258  0.3459 -0.6844  0.5170
 4355TIP3   OH213070   2.526   0.867   4.712 -0.4668  0.3507 -0.2065
 4355TIP3    H113071   2.440   0.865   4.669 -0.1277 -1.1162 -0.8712
 4355TIP3    H213072   2.528   0.952   4.756 -2.5790  0.1102  0.4946
 4356TIP3   OH213073   6.028   3.425   4.912  0.0465  0.1047 -0.4368
 4356TIP3    H113074   6.046   3.516   4.935  0.9766 -0.2288  0.1990
 4356TIP3    H213075   5.934   3.414   4.931  0.2285  0.5441  0.8282
 4357TIP3   OH213076   2.812   1.948   2.984 -0.2878  0.2149 -0.2746
 4357TIP3    H113077   2.857   2.027   2.957 -0.3445 -0.1842 -1.6081
 4357TIP3    H213078   2.723   1.957   2.950 -0.7586  0.2661  0.9219
 4358TIP3   OH213079   2.759   0.624   3.119 -0.2205 -0.1610  0.0703
 4358TIP3    H113080   2.699   0.631   3.045  0.0924 -0.1583 -0.1830
 4358TIP3    H213081   2.841   0.662   3.088  1.0422 -3.3185 -0.8039
 4359TIP3   OH213082   2.555   2.023   3.621 -0.0459 -0.2395  0.0347
 4359TIP3    H113083   2.632   2.074   3.599  0.8937 -2.2747 -1.7543
 4359TIP3    H213084   2.484   2.063   3.570  0.6122 -0.5083 -1.1295
 4360TIP3   OH213085   5.507   0.021   0.456 -0.3733 -0.2857 -0.1840
 4360TIP3    H113086   5.509   0.050   0.365 -1.6232  1.5229  0.3135
 4360TIP3    H213087   5.427   0.060   0.492  0.3243 -0.5805  1.8120
 4361TIP3   OH213088   5.749   1.489   3.857  0.3685 -0.2816  0.2294
 4361TIP3    H113089   5.659   1.522   3.863  0.1554 -0.9645  1.2171
 4361TIP3    H213090   5.770   1.463   3.947  1.8447  0.5825  0.1545
 4362TIP3   OH213091   2.123   4.363   0.717 -0.6886  0.4596 -0.4647
 4362TIP3    H113092   2.035   4.329   0.706 -0.0970 -1.5894  0.6046
 4362TIP3    H213093   2.133   4.372   0.812  0.9102 -1.3561 -0.3998
 4363TIP3   OH213094   4.024   0.547   0.359  0.3598  0.6728  0.1762
 4363TIP3    H113095   4.044   0.460   0.394  2.7700  0.9250 -0.4180
 4363TIP3    H213096   4.103   0.598   0.377 -0.2580  2.1778 -1.2273
 4364TIP3   OH213097   3.274   5.032   1.040  0.2909 -0.1182  0.0381
 4364TIP3    H113098   3.287   5.006   1.131  0.2094  0.1270  0.1203
 4364TIP3    H213099   3.262   5.127   1.043  0.5668 -0.0707 -0.2580
 4365TIP3   OH213100   0.000   4.883   4.295 -0.0490 -0.4423 -0.5393
 4365TIP3    H113101   0.029   4.857   4.382 -0.9108 -1.5615 -0.5672
 4365TIP3    H213102  -0.001   4.978   4.297 -0.5720 -0.4629  0.8490
 4366TIP3   OH213103   0.994   1.495   3.953 -0.0193 -0.4561  0.3127
 4366TIP3    H113104   1.069   1.470   3.898  0.1607 -1.6326  1.0519
 4366TIP3    H213105   0.926   1.520   3.890  0.6325 -0.4355 -0.3998
 4367TIP3   OH213106   0.210   5.245   3.578 -0.3678  0.3681 -0.0573
 4367TIP3    H113107   0.198   5.330   3.619 -1.3967 -0.5505  1.6683
 4367TIP3    H213108   0.303   5.225   3.590  0.0378  1.4898 -1.0781
 4368TIP3   OH213109   2.514   4.263   3.458 -0.1166 -0.6194 -0.7974
 4368TIP3    H113110   2.473   4.340   3.496 -0.6222 -0.8740 -0.8204
 4368TIP3    H213111   2.482   4.260   3.368  0.9509 -0.1070 -1.2085
 4369TIP3   OH213112   1.184   3.098   1.243  0.4032  0.7398 -0.9228
 4369TIP3    H113113   1.222   3.126   1.327 -0.9100  1.0448 -0.4155
 4369TIP3    H213114   1.200   3.172   1.184 -0.9379  1.6289 -0.2261
 4370TIP3   OH213115   1.610   3.059   4.961 -0.8416 -0.0372  0.0786
 4370TIP3    H113116   1.563   3.009   5.028 -0.4819 -0.2557  0.1709
 4370TIP3    H213117   1.698   3.070   4.997 -0.0534 -1.7848 -1.1441
 4371TIP3   OH213118   4.157   3.034   5.093  0.0894  0.0475 -0.2923
 4371TIP3    H113119   4.122   3.108   5.143 -0.1513 -0.3407  0.1189
 4371TIP3    H213120   4.082   3.001   5.044  0.5075  0.9691 -1.6135
 4372TIP3   OH213121   2.912   2.890   4.538 -0.3736 -0.1218 -0.6248
 4372TIP3    H113122   2.979   2.850   4.593  0.0921  0.1517 -0.9875
 4372TIP3    H213123   2.835   2.835   4.552 -0.2909 -0.0082  0.3564
 4373TIP3   OH213124   1.498   0.694   4.444 -0.7244  0.4443 -0.6785
 4373TIP3    H113125   1.551   0.772   4.429  0.9453 -0.4132  0.5600
 4373TIP3    H213126   1.440   0.719   4.516  1.4370 -0.1309  1.3762
 4374TIP3   OH213127   3.495   1.935   2.491 -0.3194 -0.0737  0.4945
 4374TIP3    H113128   3.533   1.901   2.572 -1.0122 -0.2252  0.7635
 4374TIP3    H213129   3.401   1.921   2.501 -0.5207  0.9840  0.1710
 4375TIP3   OH213130   4.656   5.198   0.517  0.4829  0.3579 -0.6188
 4375TIP3    H113131   4.590   5.155   0.463 -0.0533 -0.5081  0.6682
 4375TIP3    H213132   4.609   5.223   0.597  1.9915 -1.6360  1.0046
 4376TIP3   OH213133   4.203   2.685   4.992 -0.2850  0.1512 -0.1314
 4376TIP3    H113134   4.131   2.664   4.933  0.3478 -0.2229 -0.7835
 4376TIP3    H213135   4.247   2.759   4.950  0.3352 -0.2968 -0.2747
 4377TIP3   OH213136   5.473   4.128   1.650 -0.4256  0.2328  0.0867
 4377TIP3    H113137   5.405   4.116   1.584 -1.0023 -1.0080  0.8636
 4377TIP3    H213138   5.428   4.168   1.724  0.0191  0.7825  0.0632
 4378TIP3   OH213139   1.026   0.238   0.736 -0.1030  0.2500  0.1314
 4378TIP3    H113140   1.119   0.258   0.740  0.0012 -0.3367  0.9085
 4378TIP3    H213141   0.989   0.279   0.814 -0.4624  0.2990 -0.0603
 4379TIP3   OH213142   1.913   1.520   4.699 -0.3793  0.5870  0.1694
 4379TIP3    H113143   1.989   1.555   4.747 -1.5009  0.1206  2.4208
 4379TIP3    H213144   1.914   1.427   4.718 -0.7472  0.3434 -0.9539
 4380TIP3   OH213145   2.123   0.003   0.987  0.4941 -0.5193 -0.3364
 4380TIP3    H113146   2.036  -0.028   1.010  1.4698 -2.6903  0.6661
 4380TIP3    H213147   2.159   0.037   1.070  0.6150  0.4192 -0.7546
 4381TIP3   OH213148   5.504   5.854   4.557  0.3275 -0.4921 -0.8002
 4381TIP3    H113149   5.421   5.896   4.533  0.9866  0.8021 -0.8719
 4381TIP3    H213150   5.489   5.761   4.539 -1.1587 -0.3090 -0.6634
 4382TIP3   OH213151   6.171   5.391   4.389 -0.1667 -0.5735 -0.4626
 4382TIP3    H113152   6.224   5.470   4.378  0.0507 -0.5829  0.4617
 4382TIP3    H213153   6.082   5.424   4.403 -0.0054 -0.4655  0.3574
 4383TIP3   OH213154   3.433   3.956   4.212 -0.0794  0.0372 -0.7933
 4383TIP3    H113155   3.367   3.949   4.281 -0.0036 -2.5478 -0.8878
 4383TIP3    H213156   3.514   3.975   4.259 -0.3008 -0.1334 -0.3293
 4384TIP3   OH213157   3.875   0.532   2.602 -0.0834 -0.1768  0.2974
 4384TIP3    H113158   3.858   0.473   2.676  1.2949 -0.1470  0.6683
 4384TIP3    H213159   3.913   0.475   2.535 -0.0711  0.0383  0.1248
 4385TIP3   OH213160   0.783   4.281   1.897 -0.1428  0.3817  0.1245
 4385TIP3    H113161   0.820   4.223   1.964  0.4659  0.3269 -0.2498
 4385TIP3    H213162   0.702   4.238   1.871  0.4405 -0.4618 -0.3480
 4386TIP3   OH213163   1.706   4.162   3.638  0.1570  0.0808 -0.0744
 4386TIP3    H113164   1.716   4.103   3.713 -0.5533 -1.1222 -0.8947
 4386TIP3    H213165   1.634   4.220   3.663  1.3546  1.1578  1.0525
 4387TIP3   OH213166   2.846   0.901   4.943 -0.0395  0.0412 -0.0986
 4387TIP3    H113167   2.867   0.977   4.890  0.2546 -0.6045 -0.9296
 4387TIP3    H213168   2.797   0.936   5.018 -0.7689  0.9232 -0.9748
 4388TIP3   OH213169   3.314   1.009   2.152  0.3485 -0.2845 -0.1982
 4388TIP3    H113170   3.246   1.066   2.117 -0.1512 -1.4967 -1.2658
 4388TIP3    H213171   3.332   0.946   2.082  1.8031 -0.6536  0.4622
 4389TIP3   OH213172   0.324   4.280   2.736  0.1331 -0.1327 -0.2327
 4389TIP3    H113173   0.243   4.253   2.692  1.3026 -2.3455 -1.1930
 4389TIP3    H213174   0.334   4.372   2.712 -0.5856 -0.5896 -2.5850
 4390TIP3   OH213175   1.203   1.078   3.225 -0.1526 -0.0376 -0.5874
 4390TIP3    H113176   1.277   1.109   3.174  0.4393 -0.0616  0.2421
 4390TIP3    H213177   1.242   1.040   3.304 -1.1198  2.2835  1.1140
 4391TIP3   OH213178   6.311   3.617   3.402  0.4713  0.6458  0.2850
 4391TIP3    H113179   6.363   3.695   3.423  0.3053  0.9108 -0.2670
 4391TIP3    H213180   6.355   3.546   3.447  2.1436  0.6224 -1.2517
 4392TIP3   OH213181   0.675   2.422   3.165 -0.6276  0.0380 -0.7179
 4392TIP3    H113182   0.708   2.502   3.123  1.3825 -0.2703  0.1494
 4392TIP3    H213183   0.686   2.438   3.258 -1.8979 -0.5885 -0.4404
 4393TIP3   OH213184   0.858   1.967   0.232  0.6257  0.2584  0.4933
 4393TIP3    H113185   0.901   1.920   0.304  0.7096 -1.3754 -0.5644
 4393TIP3    H213186   0.895   2.055   0.235 -0.0779  0.5424  3.0322
 4394TIP3   OH213187   5.642   0.425   1.542  0.0790 -0.1872 -0.4632
 4394TIP3    H113188   5.554   0.386   1.540 -1.7556  3.2732  1.9727
 4394TIP3    H213189   5.629   0.516   1.517  2.5232  1.0076  2.0695
 4395TIP3   OH213190   1.012   0.014   4.909  0.0131 -0.1792  0.1707
 4395TIP3    H113191   1.065   0.059   4.843 -0.5228  0.2583  0.0310
 4395TIP3    H213192   1.038   0.053   4.992  1.8506 -1.8405  0.4290
 4396TIP3   OH213193   5.768   0.364   4.854 -0.3071  0.2615 -0.5466
 4396TIP3    H113194   5.745   0.380   4.945  1.1172 -0.4080 -0.0369
 4396TIP3    H213195   5.699   0.408   4.803 -2.2187 -0.9819  0.8234
 4397TIP3   OH213196   5.478   4.198   3.210  0.5242 -0.1869  0.2499
 4397TIP3    H113197   5.524   4.220   3.291  0.8598  1.2436 -0.3071
 4397TIP3    H213198   5.430   4.277   3.187 -0.6938 -1.0234 -0.2262
 4398TIP3   OH213199   5.851   2.712   2.378 -0.9547 -0.2923  0.2165
 4398TIP3    H113200   5.777   2.772   2.386 -1.2174 -0.5515 -0.2271
 4398TIP3    H213201   5.913   2.742   2.444 -1.6239 -0.3050  0.8718
 4399TIP3   OH213202   4.053   2.896   1.639 -0.0613 -0.4892  0.1327
 4399TIP3    H113203   4.036   2.840   1.714  0.3351 -0.9231 -0.0991
 4399TIP3    H213204   4.097   2.973   1.676 -0.2156 -0.5243  0.3905
 4400TIP3   OH213205   2.592   2.364   4.838  0.5370 -0.0711 -0.2075
 4400TIP3    H113206   2.649   2.389   4.910  0.3183 -0.5364  0.1378
 4400TIP3    H213207   2.521   2.428   4.839  0.3897 -0.2410  0.1685
 4401TIP3   OH213208   0.593   2.906   4.636  0.5074 -0.2502  0.0379
 4401TIP3    H113209   0.631   2.823   4.608  0.7915 -0.0133 -0.2847
 4401TIP3    H213210   0.534   2.930   4.565  3.0538  1.5906 -1.6222
 4402TIP3   OH213211   2.203   3.354   0.054 -0.1363 -0.0038  0.0206
 4402TIP3    H113212   2.263   3.421   0.020  0.4135 -1.2593 -1.6302
 4402TIP3    H213213   2.191   3.376   0.146  2.1137  0.8480  0.1625
 4403TIP3   OH213214   5.796   4.740   1.395  0.3533  0.3509  0.7038
 4403TIP3    H113215   5.755   4.703   1.316  1.1350  0.2070  0.3494
 4403TIP3    H213216   5.749   4.821   1.411  0.2582  0.4416  0.0078
 4404TIP3   OH213217   2.920   4.615   4.204 -0.2164  0.1691  0.7922
 4404TIP3    H113218   3.010   4.595   4.230  0.5002  1.5201 -0.5023
 4404TIP3    H213219   2.928   4.694   4.151 -1.5085 -2.1350 -3.2921
 4405TIP3   OH213220   2.294   2.175   0.852  0.1366  1.3850  0.6847
 4405TIP3    H113221   2.297   2.114   0.926  1.4757 -0.5045 -0.8262
 4405TIP3    H213222   2.258   2.256   0.888 -3.9371 -0.8977  2.3856
 4406TIP3   OH213223   1.288   0.090   1.052  0.0408  0.4426  0.0852
 4406TIP3    H113224   1.304   0.137   1.134  0.4377 -2.1906  1.6242
 4406TIP3    H213225   1.371   0.096   1.004  0.9490 -0.8178  1.4375
 4407TIP3   OH213226   6.017   2.784   2.566 -0.3024  0.2417 -0.1144
 4407TIP3    H113227   6.066   2.761   2.645 -2.0939  1.1610  1.3198
 4407TIP3    H213228   6.027   2.879   2.558 -0.1284  0.1554 -1.0174
 4408TIP3   OH213229   3.436   1.692   3.190  0.1072 -0.1764 -0.0901
 4408TIP3    H113230   3.396   1.707   3.104  1.7043 -0.2034 -0.8899
 4408TIP3    H213231   3.373   1.728   3.253 -0.6475  0.7808 -1.3363
 4409TIP3   OH213232   6.322   1.699   2.075 -0.7389 -0.3714  0.6835
 4409TIP3    H113233   6.250   1.712   2.014 -0.7942 -0.9825  0.6209
 4409TIP3    H213234   6.281   1.706   2.162 -0.6618  0.4804  0.6677
 4410TIP3   OH213235   1.680   1.649   2.120 -0.8713 -0.8456  0.1152
 4410TIP3    H113236   1.690   1.597   2.041 -1.9073 -2.0560  0.7437
 4410TIP3    H213237   1.586   1.652   2.135 -0.7992  0.7488  0.4194
 4411TIP3   OH213238   5.164   1.276   2.011 -0.0192  0.5246 -0.4641
 4411TIP3    H113239   5.091   1.226   2.048  1.0558 -1.3818 -0.8287
 4411TIP3    H213240   5.183   1.233   1.928  2.3122  0.1802  0.1852
 4412TIP3   OH213241   3.783   4.343   2.735  0.5242  0.2589 -0.7532
 4412TIP3    H113242   3.725   4.289   2.681 -0.7175  2.5541 -1.8558
 4412TIP3    H213243   3.863   4.352   2.683  1.0909 -1.1411 -0.1810
 4413TIP3   OH213244   3.562   5.423   1.206  0.2085  0.0745  0.2874
 4413TIP3    H113245   3.585   5.462   1.122  0.7165 -0.1072  0.3376
 4413TIP3    H213246   3.619   5.467   1.269  0.2042 -0.1691  0.4605
 4414TIP3   OH213247   4.451   4.308   3.066 -0.7757  0.3092 -0.2456
 4414TIP3    H113248   4.538   4.270   3.073 -0.5027  0.7055 -1.3374
 4414TIP3    H213249   4.411   4.292   3.151 -0.3107 -1.5270 -0.3335
 4415TIP3   OH213250   4.638   2.925   4.889  0.2810 -0.1370  0.2399
 4415TIP3    H113251   4.599   2.998   4.841  0.0290 -0.8208 -0.6301
 4415TIP3    H213252   4.684   2.966   4.962 -1.7118  0.7517  1.0924
 4416TIP3   OH213253   4.109   3.582   3.724  0.4002 -0.1500  0.5211
 4416TIP3    H113254   4.146   3.567   3.637 -0.9546  0.7740 -0.2552
 4416TIP3    H213255   4.097   3.677   3.729 -2.0746 -0.3871  0.5767
 4417TIP3   OH213256   1.825   2.437   2.140  0.0505  0.1398 -0.2310
 4417TIP3    H113257   1.731   2.450   2.141  0.0838  0.3909 -0.2283
 4417TIP3    H213258   1.851   2.453   2.049  0.1770  0.7499 -0.0990
 4418TIP3   OH213259   2.118   1.175   1.062 -0.2773  0.2039  0.1103
 4418TIP3    H113260   2.115   1.265   1.031 -1.1576  0.0777 -0.2076
 4418TIP3    H213261   2.051   1.170   1.129 -1.3836 -0.6003 -0.9981
 4419TIP3   OH213262   5.690   4.366   0.375  0.0793 -0.1387 -0.2712
 4419TIP3    H113263   5.616   4.305   0.370  0.3940 -0.5093 -0.5135
 4419TIP3    H213264   5.729   4.350   0.460  0.3270 -0.4759 -0.4458
 4420TIP3   OH213265   2.077   2.455   2.917  0.1187  0.1287  0.0722
 4420TIP3    H113266   2.090   2.390   2.848  0.9906  0.8189 -0.4318
 4420TIP3    H213267   2.114   2.415   2.995 -0.0640 -0.2992 -0.0585
 4421TIP3   OH213268   0.054   4.344   4.835  0.4671  0.1217 -0.2409
 4421TIP3    H113269   0.099   4.401   4.773 -0.2213  0.9744  0.0071
 4421TIP3    H213270  -0.012   4.401   4.875  1.0425 -0.3286  1.4351
 4422TIP3   OH213271   6.251   0.355   0.039  0.1335  0.1668 -0.0506
 4422TIP3    H113272   6.202   0.310   0.109  0.8146 -1.3499 -0.5149
 4422TIP3    H213273   6.187   0.364  -0.032 -0.2940  0.8802  0.4029
 4423TIP3   OH213274   0.391   1.165   3.342  0.5938 -0.4292 -0.3527
 4423TIP3    H113275   0.414   1.073   3.339 -1.8254 -1.1063 -0.7477
 4423TIP3    H213276   0.384   1.192   3.251  3.3192  0.7892 -0.2816
 4424TIP3   OH213277   4.876   1.394   0.863  0.3668  0.3444  0.0664
 4424TIP3    H113278   4.954   1.338   0.867 -0.2499 -0.7004 -1.5048
 4424TIP3    H213279   4.819   1.360   0.932 -0.4428 -1.7975 -1.5057
 4425TIP3   OH213280   2.452   5.414   0.686 -0.0554  0.8717  0.3603
 4425TIP3    H113281   2.504   5.341   0.720  1.4618  1.1898 -1.1123
 4425TIP3    H213282   2.513   5.488   0.686 -0.5418  1.3087 -1.2412
 4426TIP3   OH213283   1.314   4.104   5.096 -0.7263  0.3510 -0.6186
 4426TIP3    H113284   1.271   4.091   5.012 -0.8378  0.3567 -0.5632
 4426TIP3    H213285   1.302   4.021   5.142  0.5990 -0.1631 -1.1669
 4427TIP3   OH213286   2.080   2.887   3.008  0.4086 -0.1655 -0.2888
 4427TIP3    H113287   2.110   2.840   2.930 -0.7600  0.5449 -1.2187
 4427TIP3    H213288   2.022   2.955   2.973 -0.8451 -0.3835  1.2576
 4428TIP3   OH213289   4.568   5.886   3.102  0.2371  0.0607 -0.0060
 4428TIP3    H113290   4.574   5.806   3.049 -2.8060  0.8914 -1.8592
 4428TIP3    H213291   4.530   5.857   3.185  0.7473 -0.6303 -0.0069
 4429TIP3   OH213292   4.946   4.169   2.214 -0.0814 -0.3019  0.2167
 4429TIP3    H113293   4.864   4.199   2.176  0.2638  0.8849  0.3878
 4429TIP3    H213294   4.926   4.081   2.248 -0.6427 -1.0346 -1.8639
 4430TIP3   OH213295   2.380   3.562   0.033 -0.4829 -0.4070 -1.1458
 4430TIP3    H113296   2.349   3.632   0.090  0.0654 -1.7024  0.8721
 4430TIP3    H213297   2.461   3.596  -0.006 -0.1801  0.0614 -0.1375
 4431TIP3   OH213298   0.480   1.915   2.450 -0.3593  0.0458 -0.1077
 4431TIP3    H113299   0.564   1.956   2.429 -0.6951  1.0713  0.4776
 4431TIP3    H213300   0.499   1.860   2.526 -0.3519  0.8438  0.4835
 4432TIP3   OH213301   5.560   5.674   1.319 -0.3101  0.2455 -0.0429
 4432TIP3    H113302   5.654   5.661   1.308  0.3026  4.0415 -0.8922
 4432TIP3    H213303   5.552   5.745   1.382 -2.7836 -1.2215  1.4914
 4433TIP3   OH213304   1.596   2.334   0.208  0.3615 -0.4495 -0.4711
 4433TIP3    H113305   1.560   2.403   0.264  1.1853 -0.0745 -0.3929
 4433TIP3    H213306   1.582   2.365   0.119 -1.0006 -1.0713 -0.4914
 4434TIP3   OH213307   0.134   1.928   2.045  0.1377 -0.1027  0.0237
 4434TIP3    H113308   0.110   1.839   2.071  1.2375 -0.1431  1.0106
 4434TIP3    H213309   0.083   1.985   2.103  1.9250 -0.1817  1.7967
 4435TIP3   OH213310   4.797   5.001   1.811 -0.3174 -0.0169  0.3183
 4435TIP3    H113311   4.727   5.064   1.828 -1.0918 -0.3538 -1.4133
 4435TIP3    H213312   4.791   4.938   1.883 -2.2948 -0.4367 -0.1581
 4436TIP3   OH213313   4.737   1.568   4.592  0.1654 -0.0586  0.0415
 4436TIP3    H113314   4.828   1.597   4.597  0.5041 -0.5053 -2.2043
 4436TIP3    H213315   4.691   1.619   4.659  1.4365  2.7780 -1.0923
 4437TIP3   OH213316   2.411   0.529   1.446 -0.1247 -0.3258 -0.0168
 4437TIP3    H113317   2.343   0.505   1.383  0.7998 -0.4278 -1.0109
 4437TIP3    H213318   2.389   0.618   1.472 -0.4110 -0.2168 -0.6208
 4438TIP3   OH213319   2.258   1.954   2.896 -0.2855 -0.2700 -0.5135
 4438TIP3    H113320   2.327   1.894   2.869  1.2395  1.4696 -0.6091
 4438TIP3    H213321   2.286   2.040   2.866 -3.0521  0.3764 -1.5863
 4439TIP3   OH213322   1.634   0.054   2.092  0.4438  0.5111 -0.4260
 4439TIP3    H113323   1.651   0.139   2.131 -0.7260  1.4460 -1.8710
 4439TIP3    H213324   1.691   0.050   2.016  0.9691 -0.2927 -0.0099
 4440TIP3   OH213325   0.316   1.923   4.161  0.0469  0.0390 -0.2714
 4440TIP3    H113326   0.307   1.997   4.101 -0.9229  0.2794  0.1428
 4440TIP3    H213327   0.226   1.896   4.179  0.3854 -1.3144 -0.4930
 4441TIP3   OH213328   1.726   4.964   1.275 -0.1813  0.2437 -0.4203
 4441TIP3    H113329   1.812   4.971   1.316  0.0977 -0.5498 -0.8419
 4441TIP3    H213330   1.665   5.001   1.339  0.2152 -1.0953  0.7855
 4442TIP3   OH213331   3.495   0.134   4.405  0.0889  0.4080 -0.3320
 4442TIP3    H113332   3.558   0.164   4.340 -1.2532 -0.4942 -2.1750
 4442TIP3    H213333   3.414   0.182   4.384 -0.8622 -1.1858 -0.5310
 4443TIP3   OH213334   0.498   1.257   1.050 -0.4484  0.0829  0.3940
 4443TIP3    H113335   0.491   1.287   0.959 -1.8661  0.9926  0.7719
 4443TIP3    H213336   0.581   1.211   1.054 -1.6623 -2.6159 -2.1386
 4444TIP3   OH213337   3.364   4.560   3.710 -0.2927 -0.7055 -0.6571
 4444TIP3    H113338   3.282   4.575   3.758 -0.7457  1.7599 -2.0824
 4444TIP3    H213339   3.365   4.465   3.694 -1.6538 -1.1353  1.4361
 4445TIP3   OH213340   4.497   2.704   4.615 -0.4037 -0.1384  0.2966
 4445TIP3    H113341   4.469   2.746   4.696  0.9588  3.0263 -0.7056
 4445TIP3    H213342   4.541   2.624   4.644 -1.2072  0.1513  2.5519
 4446TIP3   OH213343   2.416   0.422   3.586  0.3129  0.6655 -0.2239
 4446TIP3    H113344   2.510   0.433   3.598  0.0591  1.1108  1.6449
 4446TIP3    H213345   2.376   0.488   3.643 -1.1375 -0.0975 -0.2904
 4447TIP3   OH213346   4.144   0.208   2.620 -0.5473 -0.0319  0.1426
 4447TIP3    H113347   4.169   0.297   2.644 -0.5097 -0.2528  0.9574
 4447TIP3    H213348   4.072   0.187   2.679 -1.4232 -0.0751 -0.9288
 4448TIP3   OH213349   4.028   3.709   1.480 -0.5279 -0.1341 -0.2648
 4448TIP3    H113350   3.957   3.650   1.505  1.6998 -2.2870  1.5466
 4448TIP3    H213351   4.028   3.776   1.549 -0.2542 -0.6490  0.2415
 4449TIP3   OH213352   2.116   0.907   4.971  0.5825  0.0573 -0.8175
 4449TIP3    H113353   2.138   0.981   4.915  0.7756  1.0156  0.4814
 4449TIP3    H213354   2.021   0.899   4.964  0.4061  1.2157 -0.0550
 4450TIP3   OH213355   5.535   0.607   1.243  0.0767  0.0465 -0.8327
 4450TIP3    H113356   5.557   0.516   1.264  0.8727  0.6367  1.1390
 4450TIP3    H213357   5.444   0.603   1.211 -1.5175 -1.0732  3.1840
 4451TIP3   OH213358   3.186   3.594   2.450  0.1557  0.2427  0.0268
 4451TIP3    H113359   3.101   3.570   2.486  0.7225 -1.4409  0.3691
 4451TIP3    H213360   3.174   3.591   2.355 -0.5859  1.7597  0.0443
 4452TIP3   OH213361   3.819   4.284   3.753  0.0350 -0.2723 -0.2098
 4452TIP3    H113362   3.910   4.299   3.776 -0.1586 -1.2796  1.4157
 4452TIP3    H213363   3.802   4.343   3.680  1.9876 -0.1147 -0.5783
 4453TIP3   OH213364   3.950   2.504   0.003 -0.4193 -0.9352 -0.1935
 4453TIP3    H113365   4.019   2.476   0.063 -0.1179 -1.4243 -0.7567
 4453TIP3    H213366   3.937   2.429  -0.054  0.6424  0.1468 -1.9598
 4454TIP3   OH213367   5.425   3.916   3.155 -0.3521 -0.2533  0.0554
 4454TIP3    H113368   5.441   3.909   3.061  0.2777  1.2702  0.0144
 4454TIP3    H213369   5.417   4.010   3.170 -1.6123 -0.5362  1.3476
 4455TIP3   OH213370   5.026   3.877   1.866 -0.3961 -0.0890  0.3061
 4455TIP3    H113371   4.935   3.895   1.889  0.2711  0.2329  2.9864
 4455TIP3    H213372   5.046   3.795   1.911 -0.0052 -1.5143 -2.2763
 4456TIP3   OH213373   2.262   1.879   3.946 -1.2393 -0.2124 -0.5569
 4456TIP3    H113374   2.341   1.850   3.900 -1.1917  0.7645 -1.1205
 4456TIP3    H213375   2.215   1.798   3.966  0.8338 -0.9916  1.5644
 4457TIP3   OH213376   3.123   2.139   2.403  0.0064  0.1200  0.4294
 4457TIP3    H113377   3.138   2.176   2.316  1.3799 -0.4058  0.4301
 4457TIP3    H213378   3.074   2.058   2.386 -1.0887  0.7822  0.2813
 4458TIP3   OH213379   0.405   4.944   1.452  0.0472 -0.2669  0.3044
 4458TIP3    H113380   0.451   4.865   1.482 -0.6263 -0.9590 -0.4465
 4458TIP3    H213381   0.408   4.938   1.357 -1.5893 -0.3211  0.2428
 4459TIP3   OH213382   4.599   4.740   5.088 -0.5265 -0.9000  0.2737
 4459TIP3    H113383   4.622   4.792   5.012  0.7060  0.3731  1.4525
 4459TIP3    H213384   4.583   4.652   5.054 -0.8347 -0.1727 -1.5311
 4460TIP3   OH213385   5.853   0.191   2.238  0.6158  0.3628  0.4173
 4460TIP3    H113386   5.826   0.184   2.329  0.5950  0.0321  0.3879
 4460TIP3    H213387   5.947   0.174   2.239  0.2777 -1.9468  0.1267
 4461TIP3   OH213388   4.407   1.740   2.294 -0.5743  0.0806 -0.5725
 4461TIP3    H113389   4.316   1.746   2.323 -1.1396  0.5207 -2.3453
 4461TIP3    H213390   4.404   1.758   2.200  1.3513  0.1277 -0.6661
 4462TIP3   OH213391   4.620   4.501   2.596 -0.2015 -0.8796 -0.3602
 4462TIP3    H113392   4.586   4.581   2.555 -1.8312 -1.2235  0.2528
 4462TIP3    H213393   4.663   4.532   2.676 -1.0261 -0.6136 -0.0045
 4463TIP3   OH213394   3.038   2.432   0.721  0.0475  0.1803 -0.1209
 4463TIP3    H113395   3.127   2.397   0.729  0.1488 -0.4236 -2.9098
 4463TIP3    H213396   2.982   2.364   0.758  0.5794 -0.8294 -1.1005
 4464TIP3   OH213397   5.898   2.645   0.750  0.4130 -0.3432 -0.0971
 4464TIP3    H113398   5.835   2.600   0.807  0.0762  0.7264  0.4008
 4464TIP3    H213399   5.844   2.695   0.689  0.7701  0.2751  0.0843
 4465TIP3   OH213400   6.331   3.941   4.215  0.0173 -0.3617 -0.2691
 4465TIP3    H113401   6.335   3.846   4.205 -0.6084 -0.2557 -1.9358
 4465TIP3    H213402   6.245   3.957   4.253  0.5047 -0.4944  0.9362
 4466TIP3   OH213403   1.909   3.003   2.471 -0.2352  0.0067  0.6543
 4466TIP3    H113404   1.941   3.044   2.390  0.4707 -0.5678  0.6378
 4466TIP3    H213405   1.819   3.035   2.480 -0.6422 -0.6326 -0.8465
 4467TIP3   OH213406   3.260   1.911   3.229  0.4354  0.3533  0.3457
 4467TIP3    H113407   3.222   1.952   3.151 -0.6416  0.5160  0.9336
 4467TIP3    H213408   3.288   1.985   3.284  1.4932  0.2350 -0.0214
 4468TIP3   OH213409   4.077   4.526   1.485 -0.3316  0.0533 -0.1953
 4468TIP3    H113410   4.081   4.431   1.480 -1.6995 -0.0657  0.6306
 4468TIP3    H213411   4.154   4.556   1.436 -0.5203 -1.4355 -1.4627
 4469TIP3   OH213412   4.769   4.973   3.414  0.0374 -0.1852  0.0580
 4469TIP3    H113413   4.685   4.943   3.381  0.4593 -2.0484  0.5570
 4469TIP3    H213414   4.801   5.033   3.347 -0.8273 -0.9294 -1.0567
 4470TIP3   OH213415   3.187   1.080   4.833 -0.2764 -0.0707 -0.2279
 4470TIP3    H113416   3.186   1.074   4.929 -1.8834 -0.8533 -0.2671
 4470TIP3    H213417   3.176   0.990   4.803  0.6689  0.1032 -1.1776
 4471TIP3   OH213418   0.160   0.882   1.207  0.1176  0.0509 -0.8062
 4471TIP3    H113419   0.214   0.948   1.164 -0.1316 -0.3586 -1.7701
 4471TIP3    H213420   0.074   0.923   1.215  0.5377  0.7334  0.8002
 4472TIP3   OH213421   4.872   3.242   1.482 -0.1247 -0.0720 -0.0494
 4472TIP3    H113422   4.877   3.205   1.570 -0.8086 -0.4932 -0.1790
 4472TIP3    H213423   4.778   3.247   1.463 -0.0329  1.0933 -0.3124
 4473TIP3   OH213424   2.215   4.064   1.512  0.2672  0.6513  0.1656
 4473TIP3    H113425   2.141   4.003   1.506  1.1973 -0.3600 -2.3932
 4473TIP3    H213426   2.289   4.010   1.540  0.6985  1.0255 -0.2405
 4474TIP3   OH213427   1.827   4.488   0.191 -0.2002  0.3846 -0.4287
 4474TIP3    H113428   1.756   4.489   0.127 -2.3450  1.0834  1.8065
 4474TIP3    H213429   1.905   4.516   0.142 -0.8791 -2.4740 -3.4942
 4475TIP3   OH213430   3.070   0.806   2.880  0.1554 -0.1972  0.0349
 4475TIP3    H113431   3.021   0.742   2.829  0.2955 -0.3103  0.0415
 4475TIP3    H213432   3.073   0.884   2.825 -0.0985 -0.1644  0.0669
 4476TIP3   OH213433   1.659   4.333   3.982  0.6640  0.1527 -0.8360
 4476TIP3    H113434   1.710   4.262   4.020 -1.7160 -1.4801 -0.5187
 4476TIP3    H213435   1.585   4.345   4.041 -0.3169  1.1897 -2.2012
 4477TIP3   OH213436   4.876   1.970   4.184  0.1998  0.4010 -0.3055
 4477TIP3    H113437   4.871   2.026   4.106  0.3292  1.0154  0.1187
 4477TIP3    H213438   4.924   1.893   4.155 -1.1939 -0.1543 -1.2786
 4478TIP3   OH213439   3.539   1.045   2.355 -0.2215 -0.2194 -0.4452
 4478TIP3    H113440   3.499   1.078   2.274 -0.5115 -0.2945 -0.3324
 4478TIP3    H213441   3.469   1.048   2.420 -0.2897 -1.1669 -0.4594
 4479TIP3   OH213442   0.195   2.033   0.426  0.0445 -0.5925  0.7784
 4479TIP3    H113443   0.278   2.033   0.379 -1.5048  0.4918 -2.1812
 4479TIP3    H213444   0.139   1.974   0.376 -1.5283  0.1396  1.5956
 4480TIP3   OH213445   3.775   5.438   2.187 -0.3021  0.1920 -0.0902
 4480TIP3    H113446   3.840   5.466   2.122 -0.9413  0.6009 -0.5703
 4480TIP3    H213447   3.691   5.465   2.149 -0.7063  0.1760  0.7792
 4481TIP3   OH213448   2.943   1.506   4.012 -0.2387 -0.1400  0.2253
 4481TIP3    H113449   2.883   1.458   3.955 -0.6825  2.1722 -1.4125
 4481TIP3    H213450   2.909   1.596   4.012  2.1669  0.8482  0.7624
 4482TIP3   OH213451   3.606   0.906   3.523  0.1730 -0.2087 -0.1904
 4482TIP3    H113452   3.602   0.844   3.450  0.1165 -0.6724  0.2009
 4482TIP3    H213453   3.550   0.979   3.496 -0.4188 -0.7000 -0.3104
 4483TIP3   OH213454   2.584   0.130   0.397  0.3931 -0.1542 -0.3218
 4483TIP3    H113455   2.640   0.195   0.354 -0.1421 -1.0974 -2.5577
 4483TIP3    H213456   2.639   0.095   0.468  1.2021  1.6728  0.0208
 4484TIP3   OH213457   3.004   1.669   5.084 -0.2267 -0.6876 -0.5461
 4484TIP3    H113458   2.995   1.752   5.129 -2.3919  0.7376 -3.2775
 4484TIP3    H213459   3.095   1.668   5.054  0.6803 -0.7833  1.9594
 4485TIP3   OH213460   0.247   4.055   3.930 -0.5746  0.0928  0.2059
 4485TIP3    H113461   0.231   4.133   3.876  0.4057  0.3675  0.2821
 4485TIP3    H213462   0.288   3.993   3.870 -1.5122 -0.4447  0.1040
 4486TIP3   OH213463   4.086   2.553   2.618  0.1779  0.6134 -0.1708
 4486TIP3    H113464   4.058   2.479   2.564 -1.0788  0.3389  0.8045
 4486TIP3    H213465   4.135   2.513   2.689 -0.8831  0.6322  0.6049
 4487TIP3   OH213466   2.504   3.379   0.198 -0.7152  0.1217 -1.3707
 4487TIP3    H113467   2.470   3.454   0.150  2.1895  2.2487 -0.3877
 4487TIP3    H213468   2.481   3.396   0.290  0.2513  0.0222 -1.0942
 4488TIP3   OH213469   3.347   3.119   0.546  0.4074  0.0843 -0.4511
 4488TIP3    H113470   3.417   3.109   0.610  0.5574 -1.4854 -0.8160
 4488TIP3    H213471   3.373   3.064   0.473 -0.9906 -0.1988 -0.7721
 4489TIP3   OH213472   3.917   2.306   3.156 -0.3316 -0.4109 -0.5508
 4489TIP3    H113473   3.833   2.298   3.201  0.2657 -1.0518  0.4787
 4489TIP3    H213474   3.913   2.241   3.086 -0.8409 -0.1497 -0.7777
 4490TIP3   OH213475   1.833   5.435   3.578  0.1166  0.1920 -0.6995
 4490TIP3    H113476   1.868   5.487   3.506  0.5944  0.0182 -0.5964
 4490TIP3    H213477   1.751   5.478   3.601 -0.1352  0.1273 -1.4784
 4491TIP3   OH213478   3.296   5.585   4.438  0.2897 -0.3470 -0.0049
 4491TIP3    H113479   3.268   5.676   4.428  0.0842 -0.2985  0.9509
 4491TIP3    H213480   3.216   5.534   4.425  0.4592 -0.4198 -0.8313
 4492TIP3   OH213481   2.342   3.853   1.611  0.1475  0.2191 -0.1115
 4492TIP3    H113482   2.365   3.760   1.604 -0.7658 -0.0322  0.0497
 4492TIP3    H213483   2.255   3.853   1.652  0.6842  1.1935  1.1029
 4493TIP3   OH213484   4.598   2.962   1.240  0.4483  0.2709  0.6550
 4493TIP3    H113485   4.572   2.972   1.149  1.6207 -0.8594  0.1561
 4493TIP3    H213486   4.687   2.927   1.235 -0.2693 -2.0013  2.1802
 4494TIP3   OH213487   1.423   1.874   0.881 -0.1839 -0.2397 -0.5708
 4494TIP3    H113488   1.431   1.829   0.797  0.7040 -1.6854  0.2514
 4494TIP3    H213489   1.511   1.872   0.918 -0.5407  0.4600  0.3594
 4495TIP3   OH213490   3.722   1.561   3.391 -0.0863  0.5677  0.3190
 4495TIP3    H113491   3.676   1.479   3.374  0.2920  0.6605 -1.3057
 4495TIP3    H213492   3.703   1.580   3.483 -1.7533 -0.3345  0.2019
 4496TIP3   OH213493   2.287   1.082   3.666  0.3743  0.0045  0.2889
 4496TIP3    H113494   2.278   1.082   3.571  1.4074 -0.4594  0.1741
 4496TIP3    H213495   2.314   1.171   3.688 -0.2508  0.2245  0.2062
 4497TIP3   OH213496   0.355   0.324   4.954 -0.2746 -0.1084  0.5627
 4497TIP3    H113497   0.440   0.368   4.965 -0.1082  0.2134 -1.5976
 4497TIP3    H213498   0.377   0.232   4.944  0.1768  0.2179 -2.5443
 4498TIP3   OH213499   1.916   5.916   4.663  0.6578 -0.0192  0.3560
 4498TIP3    H113500   1.908   5.946   4.754 -0.8583 -1.3528  0.7114
 4498TIP3    H213501   1.851   5.967   4.615  2.6562  1.9738 -0.4111
 4499TIP3   OH213502   3.707   5.502   5.178  0.5502  0.2046  0.1283
 4499TIP3    H113503   3.677   5.583   5.218 -0.0688 -0.2368  0.5662
 4499TIP3    H213504   3.734   5.528   5.090  0.1407  0.8466  0.1856
 4500TIP3   OH213505   3.323   0.357   1.158 -0.1538  0.2844  0.3131
 4500TIP3    H113506   3.280   0.403   1.086  0.6446  0.5271 -0.0181
 4500TIP3    H213507   3.268   0.280   1.174 -0.2742  0.1616 -0.6482
 4501TIP3   OH213508   3.713   3.810   2.043 -0.2566 -0.1406 -0.0028
 4501TIP3    H113509   3.630   3.790   2.086 -1.2312  1.0550 -1.2280
 4501TIP3    H213510   3.714   3.751   1.967 -1.6146  1.9928 -1.8202
 4502TIP3   OH213511   1.947   1.283   2.161  0.2953  0.7135 -0.0611
 4502TIP3    H113512   1.904   1.199   2.178 -1.2041  1.3039 -0.7730
 4502TIP3    H213513   1.943   1.328   2.246 -0.3169  0.6798 -0.0660
 4503TIP3   OH213514   1.428   4.962   3.217 -0.3322  0.0454 -0.2993
 4503TIP3    H113515   1.469   4.998   3.295 -0.4533 -0.1198 -0.1580
 4503TIP3    H213516   1.347   5.012   3.207 -0.9564 -0.7958  0.4251
 4504TIP3   OH213517   1.392   0.205   4.804 -0.1028 -0.2891 -0.5127
 4504TIP3    H113518   1.339   0.266   4.855 -0.3784 -0.8754 -0.0770
 4504TIP3    H213519   1.367   0.119   4.837  1.3777 -0.5740 -0.0229
 4505TIP3   OH213520   1.751   0.653   4.778  0.1805  0.7205  0.0034
 4505TIP3    H113521   1.663   0.617   4.776 -0.0384  1.2545 -0.1967
 4505TIP3    H213522   1.739   0.747   4.761  0.6430  1.0526  1.3460
 4506TIP3   OH213523   4.921   3.244   3.304  0.3832 -0.3045  0.6274
 4506TIP3    H113524   4.868   3.174   3.268  0.2282 -0.3352  0.9085
 4506TIP3    H213525   4.944   3.213   3.392 -0.1028  0.2121  0.9397
 4507TIP3   OH213526   2.256   4.198   0.111  0.2176 -0.0871 -0.1635
 4507TIP3    H113527   2.340   4.245   0.110  0.8227 -1.0831 -2.3252
 4507TIP3    H213528   2.213   4.225   0.031 -0.9923 -0.5522  0.3111
 4508TIP3   OH213529   0.478   0.996   0.389  0.0679 -0.2725 -0.3649
 4508TIP3    H113530   0.394   1.037   0.409  0.6734  1.1056 -0.4715
 4508TIP3    H213531   0.509   0.962   0.473 -0.4388 -0.4764 -0.2596
 4509TIP3   OH213532   5.283   1.160   0.938  0.1057  0.3358  0.4682
 4509TIP3    H113533   5.275   1.068   0.912 -0.0417 -0.1100  2.0019
 4509TIP3    H213534   5.375   1.181   0.925  0.2943 -0.2571  0.7692
 4510TIP3   OH213535   3.787   2.101   0.081  0.0929  0.1954 -0.5409
 4510TIP3    H113536   3.795   2.088  -0.014  1.6079 -1.4468 -0.2409
 4510TIP3    H213537   3.693   2.101   0.097 -0.1843  0.0069 -1.9794
 4511TIP3   OH213538   0.810   1.220   1.632  0.1565 -1.0243 -0.0116
 4511TIP3    H113539   0.734   1.166   1.653 -0.2809 -0.1562  0.7109
 4511TIP3    H213540   0.820   1.278   1.708 -1.5301  2.3196 -2.0800
 4512TIP3   OH213541   2.439   4.956   1.544 -0.2538  0.0020 -0.7358
 4512TIP3    H113542   2.498   5.018   1.499 -1.1601  1.4255 -0.0383
 4512TIP3    H213543   2.354   5.000   1.545 -0.6817 -0.7828  0.7317
 4513TIP3   OH213544   3.386   1.435   1.096 -0.2754  0.3557 -0.1388
 4513TIP3    H113545   3.371   1.367   1.030  0.7372  0.3660 -0.3866
 4513TIP3    H213546   3.302   1.482   1.101 -0.4603  0.1606 -1.1852
 4514TIP3   OH213547   4.512   5.314   0.734  0.1243  0.1647 -0.7310
 4514TIP3    H113548   4.433   5.264   0.754  0.3736 -0.2217 -0.7020
 4514TIP3    H213549   4.546   5.342   0.819  0.0502  0.2825 -0.7400
 4515TIP3   OH213550   4.006   4.115   2.351  0.4898  0.7089 -0.2024
 4515TIP3    H113551   4.086   4.071   2.323  0.2553  0.1815 -0.0509
 4515TIP3    H213552   3.986   4.075   2.436  0.0261  0.7886 -0.2753
 4516TIP3   OH213553   1.588   2.981   3.898  0.0920 -0.6716  0.5127
 4516TIP3    H113554   1.617   2.891   3.910  1.0960 -0.5451 -0.7977
 4516TIP3    H213555   1.550   2.983   3.810 -0.8179 -0.0327  0.9028
 4517TIP3   OH213556   2.252   0.430   4.988  0.7798 -0.2127 -0.0586
 4517TIP3    H113557   2.173   0.377   4.974  0.7811 -0.1542 -0.2937
 4517TIP3    H213558   2.220   0.517   5.012  0.7788 -0.3606  0.4881
 4518TIP3   OH213559   0.070   2.925   1.947  0.3831 -0.0150 -0.2418
 4518TIP3    H113560  -0.010   2.960   1.908 -0.9223 -1.4153  1.0289
 4518TIP3    H213561   0.046   2.906   2.038  1.5622 -2.2242 -0.3178
 4519TIP3   OH213562   4.472   3.899   2.104  0.0980 -0.0156  0.1234
 4519TIP3    H113563   4.464   3.959   2.030  1.9261 -0.5181 -0.5429
 4519TIP3    H213564   4.519   3.950   2.171  0.8108 -0.3946 -0.0842
 4520TIP3   OH213565   1.912   4.362   3.062  0.0970  0.0959  0.4938
 4520TIP3    H113566   1.883   4.280   3.022  0.9608 -0.9634  1.9336
 4520TIP3    H213567   1.840   4.423   3.045 -0.2942 -0.7513 -1.1522
 4521TIP3   OH213568   4.992   3.240   3.891  0.2086  0.0066  0.1880
 4521TIP3    H113569   4.903   3.225   3.921  0.0539  1.6869  0.6657
 4521TIP3    H213570   5.026   3.152   3.872 -1.2679 -0.7186  0.7410
 4522TIP3   OH213571   1.304   2.902   2.965 -0.0232 -0.2846 -0.3031
 4522TIP3    H113572   1.257   2.853   2.898 -0.7001 -1.2220  0.8182
 4522TIP3    H213573   1.388   2.924   2.925  0.1297 -2.0069 -0.9975
 4523TIP3   OH213574   2.444   1.364   2.281 -0.1658 -0.3755 -0.3716
 4523TIP3    H113575   2.374   1.397   2.225  0.7896  0.0518 -1.3460
 4523TIP3    H213576   2.414   1.384   2.370 -0.2297  2.0077 -0.8567
 4524TIP3   OH213577   4.462   5.658   3.909 -0.0245  0.3608 -0.5472
 4524TIP3    H113578   4.440   5.746   3.877 -1.9239  0.2252  0.2405
 4524TIP3    H213579   4.385   5.605   3.890  0.7689 -0.9417 -0.2608
 4525TIP3   OH213580   5.951   5.670   2.961  0.4845 -0.2284  0.1759
 4525TIP3    H113581   5.933   5.743   3.021  1.2423  0.3004 -0.2111
 4525TIP3    H213582   5.978   5.598   3.018 -0.4342 -0.2618  0.5766
 4526TIP3   OH213583   0.088   3.735   1.272 -0.4756 -0.1910 -0.1407
 4526TIP3    H113584   0.030   3.785   1.329 -1.0114 -1.3148  0.3330
 4526TIP3    H213585   0.072   3.771   1.185  0.1765  1.3806  0.3714
 4527TIP3   OH213586   4.696   0.253   0.891 -0.0059 -0.3219 -0.2546
 4527TIP3    H113587   4.751   0.198   0.835  1.1628 -0.4859  1.0144
 4527TIP3    H213588   4.751   0.273   0.967 -1.7190 -0.5198  1.0854
 4528TIP3   OH213589   3.832   0.753   2.436 -0.7440 -0.6425 -0.0610
 4528TIP3    H113590   3.844   0.686   2.503 -2.2619 -1.2602 -0.3508
 4528TIP3    H213591   3.914   0.755   2.387 -0.9039 -2.8110 -0.4855
 4529TIP3   OH213592   6.227   4.183   2.492  0.1312  0.5461  0.1812
 4529TIP3    H113593   6.277   4.223   2.421 -1.6790  1.8907 -0.3921
 4529TIP3    H213594   6.258   4.228   2.571 -0.9539  2.2301 -0.3095
 4530TIP3   OH213595   0.612   1.823   0.148 -0.1979 -0.0020 -0.3801
 4530TIP3    H113596   0.605   1.780   0.234  2.9214 -0.9794 -0.5162
 4530TIP3    H213597   0.684   1.885   0.158 -1.1671  1.4141 -1.7491
 4531TIP3   OH213598   1.409   2.580   1.368  0.0866  0.1273 -0.0252
 4531TIP3    H113599   1.349   2.551   1.437 -0.4220  1.4102  0.0968
 4531TIP3    H213600   1.496   2.560   1.402 -0.2187 -2.0590 -0.3392
 4532TIP3   OH213601   1.542   4.440   4.365 -0.4472 -0.1513 -0.3096
 4532TIP3    H113602   1.508   4.403   4.283  1.5069 -0.6182 -0.9660
 4532TIP3    H213603   1.511   4.381   4.433 -0.3895 -0.9177 -0.9406
 4533TIP3   OH213604   1.995   0.559   4.341  0.2137  0.2762  0.0292
 4533TIP3    H113605   1.917   0.593   4.297  0.1766 -2.2055 -2.1329
 4533TIP3    H213606   1.980   0.464   4.345  2.2093 -0.0333  1.4896
 4534TIP3   OH213607   3.588   4.214   4.319  0.6030  0.4665  0.6685
 4534TIP3    H113608   3.664   4.266   4.347  1.8754 -1.1871  0.4112
 4534TIP3    H213609   3.584   4.142   4.382  1.0634 -1.0879 -0.9982
 4535TIP3   OH213610   4.954   3.658   0.960 -0.2032 -0.3720 -0.2581
 4535TIP3    H113611   4.897   3.630   1.031  0.1608  0.4672  0.3761
 4535TIP3    H213612   4.963   3.752   0.971  2.2546 -0.6221  0.3965
 4536TIP3   OH213613   3.737   0.601   1.833 -0.3940  0.6517  0.5482
 4536TIP3    H113614   3.790   0.528   1.799 -1.6497  0.7714 -1.9387
 4536TIP3    H213615   3.785   0.632   1.909  2.3800 -0.1248 -0.7348
 4537TIP3   OH213616   3.687   1.972   3.550  0.3348 -0.3024 -0.2988
 4537TIP3    H113617   3.714   2.057   3.584 -0.1418 -0.5140  0.6344
 4537TIP3    H213618   3.763   1.940   3.502  0.7241  0.3814 -0.1468
 4538TIP3   OH213619   6.326   4.347   2.689 -0.4584 -0.3809  0.4306
 4538TIP3    H113620   6.284   4.348   2.775 -2.0839 -0.8719 -0.3168
 4538TIP3    H213621   6.298   4.430   2.649 -1.3193 -1.0236 -0.3343
 4539TIP3   OH213622   5.207   3.481   1.503 -0.0065 -0.1207  0.1174
 4539TIP3    H113623   5.218   3.522   1.418 -3.1399 -1.4100 -1.0832
 4539TIP3    H213624   5.263   3.403   1.501  0.6721  0.3732 -0.3401
 4540TIP3   OH213625   3.918   0.853   3.368  0.6902 -0.1460  0.0115
 4540TIP3    H113626   3.870   0.808   3.298 -0.0134  1.1973 -0.4140
 4540TIP3    H213627   3.993   0.893   3.324  0.6866  0.0277  0.1613
 4541TIP3   OH213628   3.427   1.069   3.004  0.0033  0.4128 -0.1084
 4541TIP3    H113629   3.375   0.989   3.008 -0.8244  0.9696  0.5781
 4541TIP3    H213630   3.515   1.042   3.031  0.3657 -0.7231 -2.1900
 4542TIP3   OH213631   4.079   5.875   0.158 -0.3546 -0.6352 -0.1017
 4542TIP3    H113632   4.082   5.872   0.253 -1.7866 -1.2661 -0.0505
 4542TIP3    H213633   4.101   5.786   0.130 -0.1044 -0.4960 -0.3549
 4543TIP3   OH213634   4.790   4.457   1.825 -0.1754  0.3933  0.1472
 4543TIP3    H113635   4.739   4.534   1.799  0.3137  0.1667 -1.5787
 4543TIP3    H213636   4.727   4.385   1.825 -0.2043  0.4127 -0.3715
 4544TIP3   OH213637   6.252   0.630   1.251  0.0659 -0.2585 -0.0345
 4544TIP3    H113638   6.246   0.706   1.310 -0.7312 -0.5452  0.2548
 4544TIP3    H213639   6.183   0.644   1.187  0.4212 -0.3528 -0.4387
 4545TIP3   OH213640   1.056   5.819   2.081 -0.5342 -0.3572  0.6674
 4545TIP3    H113641   1.088   5.909   2.081  1.8712 -1.1059  1.5058
 4545TIP3    H213642   0.993   5.816   2.153 -1.2814  0.8252  0.0864
 4546TIP3   OH213643   1.093   1.500   0.263  0.0506 -0.2849 -0.8075
 4546TIP3    H113644   1.117   1.587   0.296  0.3283 -0.8945  0.6479
 4546TIP3    H213645   1.024   1.518   0.198 -1.1740  0.9335  0.7379
 4547TIP3   OH213646   5.540   2.468   3.273  0.6292  0.2992  0.0718
 4547TIP3    H113647   5.584   2.384   3.283  1.0584  0.2588 -1.8376
 4547TIP3    H213648   5.453   2.446   3.239  0.3313  0.5707  0.6450
 4548TIP3   OH213649   3.610   5.733   4.218  0.3406  0.1690 -0.5934
 4548TIP3    H113650   3.578   5.672   4.284  0.4093  2.0051  1.2466
 4548TIP3    H213651   3.543   5.801   4.213  0.7793  0.5493 -1.7362
 4549TIP3   OH213652   3.613   2.990   1.688  1.0623  0.1418  0.1336
 4549TIP3    H113653   3.647   3.007   1.777 -0.4242 -0.5728  0.8700
 4549TIP3    H213654   3.618   2.895   1.679 -1.7384 -0.1320  0.7277
 4550TIP3   OH213655   5.785   5.980   5.027  0.2972 -0.6260  0.2746
 4550TIP3    H113656   5.804   5.897   5.069  0.4135  0.3616  2.2617
 4550TIP3    H213657   5.692   5.976   5.006  0.4544 -1.5151 -0.2977
 4551TIP3   OH213658   1.335   4.944   0.020 -0.0907 -0.3248 -0.2479
 4551TIP3    H113659   1.408   4.915   0.075 -1.2823 -0.2584  1.4226
 4551TIP3    H213660   1.317   4.869  -0.037  0.2532 -0.9197  0.4125
 4552TIP3   OH213661   2.444   1.810   0.705 -0.1207 -0.2986 -0.1425
 4552TIP3    H113662   2.441   1.738   0.768  0.6574  1.3381  1.8926
 4552TIP3    H213663   2.354   1.844   0.704 -0.4493 -1.1267 -0.9803
 4553TIP3   OH213664   0.923   5.062   2.885 -0.4681  0.2032 -0.3030
 4553TIP3    H113665   0.988   5.129   2.868 -1.2002  0.8103 -0.7882
 4553TIP3    H213666   0.973   4.987   2.917  0.2612  1.3118  1.2481
 4554TIP3   OH213667   3.136   4.400   3.825 -0.0566 -0.1012 -0.2609
 4554TIP3    H113668   3.064   4.389   3.887 -0.1699 -1.7350 -0.6530
 4554TIP3    H213669   3.214   4.374   3.875  0.0658  0.1752 -0.3079
 4555TIP3   OH213670   3.937   1.806   5.119  0.4038  0.8585  0.1757
 4555TIP3    H113671   4.021   1.816   5.075  0.2007  0.9320 -0.1976
 4555TIP3    H213672   3.901   1.895   5.122  0.0864  0.7435 -0.1720
 4556TIP3   OH213673   5.610   5.333   4.694  0.8120  0.5349  0.1764
 4556TIP3    H113674   5.637   5.289   4.613  1.1570  0.1657  0.4869
 4556TIP3    H213675   5.515   5.318   4.699  0.8763  0.0943  0.1167
 4557TIP3   OH213676   5.821   3.314   2.317 -0.4663  0.2634 -0.1500
 4557TIP3    H113677   5.904   3.316   2.269 -0.3671 -0.1583 -0.0062
 4557TIP3    H213678   5.842   3.352   2.402 -0.2929 -0.3200  0.0712
 4558TIP3   OH213679   3.342   3.254   3.835  0.1302  0.9327  0.3934
 4558TIP3    H113680   3.275   3.308   3.793 -0.0345  2.3869  2.3625
 4558TIP3    H213681   3.380   3.203   3.764 -2.1129  1.0749 -1.0042
 4559TIP3   OH213682   0.509   4.505   2.888 -0.3473  0.3678 -0.7111
 4559TIP3    H113683   0.444   4.458   2.939  0.1772 -0.5653 -0.8951
 4559TIP3    H213684   0.490   4.480   2.797  0.9602 -0.8071 -0.6820
 4560TIP3   OH213685   0.059   4.126   4.477 -0.1405  0.1793  0.1022
 4560TIP3    H113686   0.020   4.170   4.401  0.1629  1.1768  0.5070
 4560TIP3    H213687   0.119   4.062   4.440  0.6710  1.2654 -0.5094
 4561TIP3   OH213688   5.106   2.034   3.770  0.3467  0.1729 -0.1445
 4561TIP3    H113689   5.075   2.119   3.800 -0.2442 -0.1740  0.2511
 4561TIP3    H213690   5.096   1.977   3.846  1.4437 -0.0849 -0.1755
 4562TIP3   OH213691   2.073   2.208   3.139  0.4899 -0.0538  0.2846
 4562TIP3    H113692   2.069   2.212   3.044 -0.6793  2.7891  0.3667
 4562TIP3    H213693   2.078   2.114   3.159  1.1813 -0.7003 -2.5444
 4563TIP3   OH213694   0.996   0.732   0.971 -0.4478  0.0650 -0.1860
 4563TIP3    H113695   1.055   0.660   0.991 -2.5501 -1.4074  1.1018
 4563TIP3    H213696   0.950   0.706   0.892  0.6790  1.2866 -1.2922
 4564TIP3   OH213697   3.959   2.583   4.903 -0.5234 -0.4886 -0.4126
 4564TIP3    H113698   3.964   2.518   4.832 -2.0860 -1.1508  0.0262
 4564TIP3    H213699   3.869   2.616   4.898  0.0225  1.1042 -0.1331
 4565TIP3   OH213700   5.526   2.394   0.080  0.1981  0.4328 -0.3107
 4565TIP3    H113701   5.617   2.418   0.063  0.5109 -1.7595 -2.1764
 4565TIP3    H213702   5.479   2.427   0.003  0.2428 -2.3996 -1.6577
 4566TIP3   OH213703   6.252   0.573   0.481 -0.1673  0.5235  0.0919
 4566TIP3    H113704   6.231   0.666   0.488 -0.5836  0.3476  1.5521
 4566TIP3    H213705   6.173   0.528   0.511  0.4921 -0.2669  0.6977
 4567TIP3   OH213706   2.460   3.160   0.068 -0.0635 -0.2452 -0.3568
 4567TIP3    H113707   2.436   3.192  -0.019  0.5271 -1.2865 -0.9314
 4567TIP3    H213708   2.489   3.238   0.115 -0.3199  0.3240 -1.1174
 4568TIP3   OH213709   3.102   1.555   1.071 -0.6600 -0.1514  0.2316
 4568TIP3    H113710   3.056   1.636   1.051 -2.0660 -0.9854 -0.0129
 4568TIP3    H213711   3.056   1.519   1.147  0.6553 -0.1909  1.0635
 4569TIP3   OH213712   5.551   1.584   1.768 -0.3408 -0.1148  0.0072
 4569TIP3    H113713   5.490   1.528   1.721 -0.1328 -1.2452  1.0567
 4569TIP3    H213714   5.596   1.633   1.699 -1.6952  0.0058 -0.8315
 4570TIP3   OH213715   2.700   2.475   0.197 -0.1579 -0.0035 -0.2467
 4570TIP3    H113716   2.672   2.498   0.109  1.0564  0.1746 -0.6014
 4570TIP3    H213717   2.715   2.559   0.241 -1.1980 -0.0804  0.3005
 4571TIP3   OH213718   5.805   2.509   0.027 -0.0067 -0.6693  0.3942
 4571TIP3    H113719   5.781   2.572   0.095  0.5398  0.4157 -0.3909
 4571TIP3    H213720   5.828   2.563  -0.048 -0.7182 -1.8534 -0.7068
 4572TIP3   OH213721   2.258   2.955   1.854  0.2736 -0.0028  0.4484
 4572TIP3    H113722   2.192   2.967   1.786  0.9522  0.2269 -0.1898
 4572TIP3    H213723   2.236   2.872   1.895 -0.4503  0.1072  0.2957
 4573TIP3   OH213724   5.216   1.286   4.825 -0.2605 -0.0569 -0.3109
 4573TIP3    H113725   5.274   1.334   4.884  0.6609  0.7677 -1.8302
 4573TIP3    H213726   5.134   1.278   4.873  0.6573 -0.0054  1.3326
 4574TIP3   OH213727   5.982   5.087   4.777 -0.0635 -0.1457  0.0064
 4574TIP3    H113728   6.015   5.174   4.753 -0.7768 -0.0406 -0.6525
 4574TIP3    H213729   5.948   5.097   4.865  0.8203 -0.0329  0.3487
 4575TIP3   OH213730   0.758   2.893   2.925  0.1234 -0.2039 -0.3878
 4575TIP3    H113731   0.754   2.959   2.994 -0.7967 -0.5060 -0.1502
 4575TIP3    H213732   0.799   2.939   2.851  0.8305  0.2063  0.2437
 4576TIP3   OH213733   1.436   5.929   2.729 -0.3512  0.5591  0.2777
 4576TIP3    H113734   1.383   5.867   2.780  1.5754  1.3206  3.5426
 4576TIP3    H213735   1.401   6.015   2.753  0.3956  0.9324  0.0764
 4577TIP3   OH213736   1.244   5.972   5.197 -0.1131  0.1847 -0.3663
 4577TIP3    H113737   1.271   5.919   5.121 -0.4188  0.6406 -0.7991
 4577TIP3    H213738   1.150   5.983   5.185 -0.3730 -0.6863  0.6843
 4578TIP3   OH213739   3.692   1.929   1.922 -0.2964  0.2336  0.4388
 4578TIP3    H113740   3.761   1.889   1.975 -1.0313  0.2558  1.4371
 4578TIP3    H213741   3.709   2.023   1.928  0.9017  0.1691 -1.1801
 4579TIP3   OH213742   2.261   3.039   0.233  0.3285 -0.1008 -0.3725
 4579TIP3    H113743   2.303   3.065   0.315  0.8387  0.8211 -0.9029
 4579TIP3    H213744   2.330   3.048   0.167 -0.0197 -1.0251 -0.8809
 4580TIP3   OH213745   6.064   4.950   1.166 -0.6792 -0.0443  0.5708
 4580TIP3    H113746   5.986   4.895   1.158 -0.7993  0.0874  0.8008
 4580TIP3    H213747   6.067   4.999   1.085 -0.8620 -0.0192  0.5778
 4581TIP3   OH213748   2.207   2.669   1.902  0.0516 -1.0650 -0.2207
 4581TIP3    H113749   2.206   2.676   1.807 -1.3434  2.0595 -0.0815
 4581TIP3    H213750   2.120   2.635   1.925  0.1991 -1.3098 -0.0042
 4582TIP3   OH213751   5.774   2.363   4.380 -0.1546 -0.2504  0.3683
 4582TIP3    H113752   5.755   2.269   4.381 -0.6406 -0.1891  3.0518
 4582TIP3    H213753   5.697   2.404   4.418 -0.0688  1.3286 -1.0012
 4583TIP3   OH213754   3.036   0.674   3.904  0.2534  0.2569  0.2571
 4583TIP3    H113755   3.112   0.731   3.885  1.1930 -0.7105  0.9958
 4583TIP3    H213756   2.988   0.722   3.972  1.9633 -0.5182  2.1426
 4584TIP3   OH213757   4.583   0.231   0.644  0.0651  0.2163  0.2756
 4584TIP3    H113758   4.610   0.214   0.735  0.9232 -0.9186 -0.1710
 4584TIP3    H213759   4.505   0.286   0.652 -0.1883 -0.3105  1.7163
 4585TIP3   OH213760   0.939   1.326   3.715 -0.6343  0.0864  0.3244
 4585TIP3    H113761   0.957   1.284   3.630 -0.4815 -0.4875  0.6314
 4585TIP3    H213762   0.978   1.413   3.708 -1.0901  0.2397 -0.3870
 4586TIP3   OH213763   3.951   2.833   4.288 -0.0972  0.2541 -0.1221
 4586TIP3    H113764   3.947   2.742   4.259  1.5101  0.2333 -0.3704
 4586TIP3    H213765   3.911   2.832   4.375  0.0304 -0.7131 -0.0641
 4587TIP3   OH213766   1.091   0.734   5.057 -0.3301 -0.2184 -0.3976
 4587TIP3    H113767   1.008   0.778   5.075  0.5359  0.8317  1.3918
 4587TIP3    H213768   1.080   0.646   5.093 -0.1184  0.4727  1.4384
 4588TIP3   OH213769   4.885   0.871   4.452  0.0339  0.4024  0.4123
 4588TIP3    H113770   4.945   0.816   4.501  0.3143  0.9372  0.6844
 4588TIP3    H213771   4.798   0.842   4.478  0.1767  1.0267  1.6335
 4589TIP3   OH213772   4.457   2.958   2.185 -0.5158  0.7312  0.2199
 4589TIP3    H113773   4.363   2.969   2.192 -0.4160  2.9586 -0.9398
 4589TIP3    H213774   4.493   3.040   2.220  0.9812  0.0263  0.4083
 4590TIP3   OH213775   3.764   0.262   3.605  0.2317 -0.6309 -0.1979
 4590TIP3    H113776   3.732   0.250   3.515 -0.7952  0.8334 -0.0621
 4590TIP3    H213777   3.686   0.252   3.660  0.4314  0.6335  0.3466
 4591TIP3   OH213778   1.376   2.865   4.117  0.3422 -0.2718 -0.0391
 4591TIP3    H113779   1.417   2.934   4.170 -1.0271  0.3431  0.2597
 4591TIP3    H213780   1.447   2.832   4.062  1.0907  1.2308 -0.0339
 4592TIP3   OH213781   5.508   4.025   3.938 -0.4027 -0.2344 -0.1284
 4592TIP3    H113782   5.437   3.962   3.947 -1.7046  1.2803  0.7429
 4592TIP3    H213783   5.485   4.097   3.997  0.9770  1.0998 -1.1165
 4593TIP3   OH213784   1.143   5.131   3.630  0.8881  0.2899  0.0287
 4593TIP3    H113785   1.091   5.211   3.628  1.6153  0.7855  0.3024
 4593TIP3    H213786   1.140   5.102   3.721  0.1684 -0.3134 -0.1789
 4594TIP3   OH213787   3.272   2.674   3.452 -0.3697 -0.2766  0.4538
 4594TIP3    H113788   3.318   2.758   3.454  1.3672 -1.1486 -0.4161
 4594TIP3    H213789   3.314   2.623   3.521 -0.1264 -1.0447 -0.2547
 4595TIP3   OH213790   6.078   0.046   2.469 -0.1721  0.4564 -0.0933
 4595TIP3    H113791   6.056   0.006   2.554  0.8771  2.4826  1.2318
 4595TIP3    H213792   6.003   0.028   2.414 -0.7653 -1.2024  1.1473
 4596TIP3   OH213793   0.205   0.569   2.164  0.6230  0.4060  0.4656
 4596TIP3    H113794   0.163   0.645   2.202  1.8198  0.6680  1.3117
 4596TIP3    H213795   0.222   0.511   2.238  0.3377 -0.3865 -0.0781
 4597TIP3   OH213796   3.816   2.905   0.508  0.2038 -0.4743  0.1889
 4597TIP3    H113797   3.905   2.878   0.532  1.2212  1.1224 -1.5905
 4597TIP3    H213798   3.806   2.877   0.417 -0.5588  0.6672 -0.1004
 4598TIP3   OH213799   2.274   3.342   1.890  0.1839 -0.4617  0.0201
 4598TIP3    H113800   2.291   3.302   1.975 -0.0760  0.5242  0.5547
 4598TIP3    H213801   2.313   3.282   1.826  0.3521 -1.2257  0.8294
 4599TIP3   OH213802   5.911   3.458   2.979  0.4584  0.3791  0.2904
 4599TIP3    H113803   5.847   3.500   2.922  2.0801  0.9551 -1.2171
 4599TIP3    H213804   5.919   3.369   2.944  0.5717  0.3559  0.3747
 4600TIP3   OH213805   2.272   5.419   0.969 -0.4749 -0.3789  0.3166
 4600TIP3    H113806   2.216   5.389   0.898  0.2649 -1.0042 -0.0068
 4600TIP3    H213807   2.353   5.370   0.959  0.0134  0.2646  0.9881
 4601TIP3   OH213808   1.486   3.479   3.120  0.5634  0.2866 -0.5678
 4601TIP3    H113809   1.533   3.559   3.144 -1.6160  1.7188 -0.8261
 4601TIP3    H213810   1.409   3.479   3.176 -1.4840  0.4582 -3.2162
 4602TIP3   OH213811   4.698   4.846   2.033 -0.0156  0.5424  0.2442
 4602TIP3    H113812   4.711   4.858   2.127 -1.6317  1.8138  0.3489
 4602TIP3    H213813   4.615   4.798   2.027  0.6557 -0.5713 -0.5340
 4603TIP3   OH213814   0.567   1.843   1.082 -0.3906 -0.3812 -0.4175
 4603TIP3    H113815   0.650   1.887   1.063  0.5718 -1.6217  0.7226
 4603TIP3    H213816   0.514   1.857   1.004  1.1991 -0.2760 -1.5210
 4604TIP3   OH213817   2.964   4.248   0.535  0.6114  0.2825 -0.7337
 4604TIP3    H113818   2.908   4.302   0.590 -0.3305 -0.7412 -0.6548
 4604TIP3    H213819   2.927   4.160   0.541  2.1416 -0.4041 -0.8043
 4605TIP3   OH213820   0.851   0.635   3.947  0.5179 -0.2409 -0.2961
 4605TIP3    H113821   0.805   0.649   3.865 -0.5719  0.2836  0.3830
 4605TIP3    H213822   0.802   0.687   4.011  2.0652  0.3456  0.4562
 4606TIP3   OH213823   2.467   3.023   2.275 -0.2183  0.2081 -0.9442
 4606TIP3    H113824   2.470   2.929   2.292 -1.2709  0.7208  3.1468
 4606TIP3    H213825   2.558   3.050   2.278 -0.0795 -0.2871  1.5563
 4607TIP3   OH213826   2.920   3.039   2.574  0.4809  0.1615 -0.3523
 4607TIP3    H113827   2.933   3.134   2.571 -0.9420  0.4081  0.5378
 4607TIP3    H213828   2.836   3.026   2.531  0.5745 -0.6902 -0.2790
 4608TIP3   OH213829   4.300   1.973   1.733 -0.1904 -0.1285  0.3040
 4608TIP3    H113830   4.208   1.997   1.743 -0.2259  0.5058 -1.2675
 4608TIP3    H213831   4.342   2.052   1.699  0.8883 -0.4984  0.7321
 4609TIP3   OH213832   5.856   3.993   1.656 -0.3930  0.2308  0.0178
 4609TIP3    H113833   5.806   3.974   1.735 -0.4780  1.1558  0.1913
 4609TIP3    H213834   5.807   3.951   1.585 -1.5128  1.2455  0.1626
 4610TIP3   OH213835   1.454   3.824   4.412 -0.2594  0.0896 -0.3523
 4610TIP3    H113836   1.432   3.827   4.319 -1.6037  1.5612 -0.0348
 4610TIP3    H213837   1.380   3.778   4.452  0.6130 -1.1088 -0.0554
 4611TIP3   OH213838   4.258   0.939   4.229 -0.6127  0.3429  0.4580
 4611TIP3    H113839   4.265   0.907   4.139  0.3181  3.8534 -0.8916
 4611TIP3    H213840   4.347   0.934   4.263 -0.6860  0.3916  0.6544
 4612TIP3   OH213841   4.778   3.483   4.222 -0.4192  0.5421 -0.0386
 4612TIP3    H113842   4.706   3.520   4.170 -0.3048 -0.4469 -0.9172
 4612TIP3    H213843   4.790   3.547   4.293 -1.2441  1.4145 -0.6470
 4613TIP3   OH213844   3.357   2.167   3.307 -0.5720 -0.2178  0.0466
 4613TIP3    H113845   3.381   2.173   3.400  2.1996 -0.9343 -0.5395
 4613TIP3    H213846   3.332   2.256   3.283  1.2483  0.5513  0.8786
 4614TIP3   OH213847   1.642   0.752   0.313 -0.4372 -0.7890  0.0674
 4614TIP3    H113848   1.687   0.691   0.373  0.3354 -0.3239 -0.0239
 4614TIP3    H213849   1.687   0.741   0.229  0.4563  0.6668  0.3081
 4615TIP3   OH213850   2.774   3.444   1.835 -0.2999  0.6198  0.1024
 4615TIP3    H113851   2.785   3.518   1.775  1.5564  1.4087  1.3266
 4615TIP3    H213852   2.788   3.481   1.922  0.3052 -1.0845  0.7726
 4616TIP3   OH213853   4.419   4.845   3.748 -0.3233 -0.0141 -0.6486
 4616TIP3    H113854   4.374   4.762   3.759  0.2487 -0.3160 -0.5342
 4616TIP3    H213855   4.387   4.879   3.664  0.3213 -0.9224 -1.2778
 4617TIP3   OH213856   5.744   2.785   0.585 -0.0991  0.0189 -0.1725
 4617TIP3    H113857   5.739   2.858   0.524  0.0985  2.4461  2.5173
 4617TIP3    H213858   5.660   2.740   0.575 -0.5243  1.0189 -1.3989
 4618TIP3   OH213859   2.853   0.991   1.068 -0.2003  0.0654  0.4790
 4618TIP3    H113860   2.787   0.937   1.024  0.2721  0.9027 -1.3486
 4618TIP3    H213861   2.808   1.073   1.086  0.2112  0.5345 -0.5184
 4619TIP3   OH213862   2.568   4.821   2.939 -0.7147 -0.4684 -0.0981
 4619TIP3    H113863   2.590   4.809   2.846  2.1750  1.3095  0.2088
 4619TIP3    H213864   2.640   4.779   2.986 -0.3886  1.3833  1.2018
 4620TIP3   OH213865   2.014   1.460   0.645  0.3203 -0.3682  0.3151
 4620TIP3    H113866   1.947   1.528   0.643  1.4182  0.8086  1.4444
 4620TIP3    H213867   1.965   1.378   0.638 -1.1562  0.4743  0.3096
 4621TIP3   OH213868   5.751   2.241   0.676 -0.4312 -0.3070  0.5852
 4621TIP3    H113869   5.826   2.182   0.662 -0.6751 -0.5254  0.1597
 4621TIP3    H213870   5.765   2.311   0.612  0.0491  0.3010  1.3322
 4622TIP3   OH213871   6.281   4.798   1.628  0.6887  0.6565 -0.5728
 4622TIP3    H113872   6.289   4.703   1.633  2.5746  0.7810 -0.6468
 4622TIP3    H213873   6.192   4.813   1.596  0.3222 -1.0688 -0.4428
 4623TIP3   OH213874   5.715   4.535   4.655  0.3546 -0.6953  0.0352
 4623TIP3    H113875   5.766   4.589   4.594  0.4378 -0.1219  0.5981
 4623TIP3    H213876   5.671   4.471   4.599  0.9396 -0.5935 -0.5597
 4624TIP3   OH213877   2.586   0.326   1.293 -0.0934 -0.0812  0.6154
 4624TIP3    H113878   2.527   0.383   1.342  1.2029  0.9542  1.0332
 4624TIP3    H213879   2.633   0.385   1.234  0.0962 -0.9694 -0.1472
 4625TIP3   OH213880   1.984   0.570   0.161  0.3601  0.1647 -0.4400
 4625TIP3    H113881   1.893   0.581   0.133  0.3396 -0.4945 -0.6412
 4625TIP3    H213882   2.003   0.649   0.211 -0.5041  0.0408  0.1005
 4626TIP3   OH213883   4.573   4.253   4.770 -0.1231 -0.1244 -0.5976
 4626TIP3    H113884   4.489   4.298   4.764 -0.3689 -0.3154  0.9103
 4626TIP3    H213885   4.551   4.161   4.785  0.3711 -0.4227 -1.6144
 4627TIP3   OH213886   2.592   2.435   2.609 -0.0907  0.0047  0.6446
 4627TIP3    H113887   2.610   2.369   2.676 -0.1154 -0.8094 -0.1320
 4627TIP3    H213888   2.497   2.449   2.614  0.1282  1.2671  1.9602
 4628TIP3   OH213889   0.694   3.007   0.121  0.2001 -0.0370  0.1608
 4628TIP3    H113890   0.772   3.056   0.147  0.7294 -0.5741 -0.3890
 4628TIP3    H213891   0.656   2.977   0.204  1.6409 -1.3746  0.3959
 4629TIP3   OH213892   5.089   3.804   1.269  0.3537  0.3022 -0.0210
 4629TIP3    H113893   5.106   3.718   1.230 -1.0164 -0.7236  1.5271
 4629TIP3    H213894   5.173   3.829   1.309  0.4033 -1.0127  0.7681
 4630TIP3   OH213895   3.425   5.222   4.079 -0.6551 -0.7021 -0.6780
 4630TIP3    H113896   3.446   5.308   4.041  0.8019 -1.0490 -0.7068
 4630TIP3    H213897   3.438   5.234   4.173 -1.3806 -0.6503 -0.5759
 4631TIP3   OH213898   1.936   0.814   3.898 -0.5138  0.6164 -0.4807
 4631TIP3    H113899   1.966   0.905   3.907  0.6260  0.2055  0.1075
 4631TIP3    H213900   1.909   0.790   3.987  0.6503 -0.0955 -0.3031
 4632TIP3   OH213901   5.913   1.888   2.390 -0.2183  0.3461 -0.4996
 4632TIP3    H113902   5.836   1.938   2.363 -0.3223 -0.0196 -0.8908
 4632TIP3    H213903   5.973   1.894   2.316  0.4890  1.3347  0.1270
 4633TIP3   OH213904   2.613   3.622   4.648 -0.1688 -0.0806  0.5035
 4633TIP3    H113905   2.618   3.600   4.741 -1.4657  1.7167  1.0498
 4633TIP3    H213906   2.656   3.707   4.641 -0.9163  0.2480 -0.3553
 4634TIP3   OH213907   1.075   5.623   1.053  0.2742 -0.0817 -0.3151
 4634TIP3    H113908   1.156   5.571   1.049  0.2274 -0.1445 -0.4637
 4634TIP3    H213909   1.093   5.700   0.999  0.5148  0.2977  0.3012
 4635TIP3   OH213910   1.230   3.903   0.252 -0.0601 -0.2260  0.3757
 4635TIP3    H113911   1.200   3.940   0.335 -0.5038 -0.5562  0.3718
 4635TIP3    H213912   1.294   3.836   0.277 -1.4689 -1.5557  0.5821
 4636TIP3   OH213913   4.634   5.953   2.190  1.1129  0.8152  0.1371
 4636TIP3    H113914   4.625   6.039   2.231 -1.0525  1.1234 -0.8603
 4636TIP3    H213915   4.680   5.971   2.108  0.3859  1.0874 -0.2180
 4637TIP3   OH213916   4.926   4.595   3.696  0.1316  0.5152  0.3373
 4637TIP3    H113917   4.951   4.679   3.657  1.2271 -0.5742 -1.4460
 4637TIP3    H213918   4.833   4.605   3.718  0.3966  2.3874  0.7683
 4638TIP3   OH213919   5.232   0.115   0.029  0.1112  0.1076 -0.3693
 4638TIP3    H113920   5.253   0.089  -0.061  1.8255  0.2929 -0.0523
 4638TIP3    H213921   5.304   0.080   0.081 -0.4754  0.6519  0.8371
 4639TIP3   OH213922   2.107   3.479   0.594 -0.1268 -0.1019 -0.1546
 4639TIP3    H113923   2.154   3.435   0.665  0.2647  0.7625  0.1272
 4639TIP3    H213924   2.050   3.542   0.638 -0.2445  0.0878 -0.5773
 4640TIP3   OH213925   4.037   2.090   1.722  0.2841  0.1442 -0.0666
 4640TIP3    H113926   3.992   2.143   1.788  1.4694 -0.6201  1.4246
 4640TIP3    H213927   4.008   2.126   1.639 -0.1480  2.1021  0.8662
 4641TIP3   OH213928   5.193   2.575   0.101  1.0658 -0.1508 -0.3567
 4641TIP3    H113929   5.192   2.665   0.134 -0.5513  0.1940 -1.2244
 4641TIP3    H213930   5.170   2.583   0.009 -1.3626 -1.5921  0.0340
 4642TIP3   OH213931   4.000   3.371   4.329 -0.6204 -0.3753 -0.4163
 4642TIP3    H113932   3.978   3.283   4.300 -1.5962 -0.6749  1.1599
 4642TIP3    H213933   4.080   3.393   4.280 -0.2486 -2.1954 -0.6778
 4643TIP3   OH213934   3.046   2.290   2.125  0.5544  0.1561  0.1758
 4643TIP3    H113935   3.099   2.321   2.051  1.1817  2.4761  1.4993
 4643TIP3    H213936   3.052   2.194   2.120  2.2956  0.2868 -1.5445
 4644TIP3   OH213937   0.583   2.148   0.824 -0.4763 -0.7286  0.1973
 4644TIP3    H113938   0.600   2.197   0.905 -0.8652 -1.2108  0.5788
 4644TIP3    H213939   0.528   2.207   0.772  0.3338 -0.1408 -0.0159
 4645TIP3   OH213940   1.562   5.887   4.681 -0.2118  0.1703 -0.5241
 4645TIP3    H113941   1.506   5.870   4.606  2.3443  0.8307 -2.7355
 4645TIP3    H213942   1.644   5.920   4.644  1.3121  0.2736  2.5445
 4646TIP3   OH213943   5.586   2.924   2.994 -0.4155 -0.0584 -0.5370
 4646TIP3    H113944   5.502   2.881   3.011 -0.0125 -1.0555 -1.0071
 4646TIP3    H213945   5.567   3.017   3.001 -1.5553 -0.2731 -0.6146
 4647TIP3   OH213946   4.365   3.740   0.770 -0.3465  0.4094  0.2784
 4647TIP3    H113947   4.316   3.665   0.736 -0.5575 -0.1511  1.7273
 4647TIP3    H213948   4.409   3.706   0.848  3.0183  0.6652 -1.3120
 4648TIP3   OH213949   4.256   0.657   0.381  0.4349  0.0451  0.4779
 4648TIP3    H113950   4.339   0.621   0.412  0.6587  1.1889  1.2959
 4648TIP3    H213951   4.277   0.701   0.299  0.5705  0.0270  0.5028
 4649TIP3   OH213952   3.626   1.558   2.794 -0.5029 -0.9203 -0.1703
 4649TIP3    H113953   3.561   1.488   2.790 -1.6933  0.1784 -0.5572
 4649TIP3    H213954   3.577   1.638   2.779  0.5060  0.2332  2.0930
 4650TIP3   OH213955   1.295   1.555   4.553  0.3162 -0.4903 -0.2091
 4650TIP3    H113956   1.323   1.470   4.518  1.9351 -0.7887  1.6139
 4650TIP3    H213957   1.363   1.616   4.524  1.3786 -0.6396  1.8090
 4651TIP3   OH213958   2.221   1.391   3.499 -0.4420  0.2956  0.3615
 4651TIP3    H113959   2.181   1.325   3.443 -0.2673  2.0774 -2.0276
 4651TIP3    H213960   2.158   1.403   3.570 -1.3536 -1.0903 -0.1729
 4652TIP3   OH213961   4.443   0.129   3.665  0.3883  0.4378  0.2531
 4652TIP3    H113962   4.428   0.180   3.586 -0.4893  0.3514  0.3526
 4652TIP3    H213963   4.415   0.040   3.641 -3.0275  0.9923  1.5551
 4653TIP3   OH213964   0.983   0.987   3.496 -0.7322  0.1130 -0.5336
 4653TIP3    H113965   1.007   1.079   3.488 -1.6675  0.6816  1.9650
 4653TIP3    H213966   0.888   0.989   3.510 -0.6719 -1.1555  0.2224
 4654TIP3   OH213967   4.364   1.780   1.158  0.9474 -0.1855 -0.1085
 4654TIP3    H113968   4.347   1.870   1.129  1.7921  0.3025  0.8644
 4654TIP3    H213969   4.278   1.738   1.156  0.6031  0.5157 -0.9492
 4655TIP3   OH213970   1.908   3.828   1.157 -0.0378  0.0473  0.5904
 4655TIP3    H113971   1.997   3.864   1.152  0.3151 -0.9496 -1.1856
 4655TIP3    H213972   1.909   3.755   1.096 -2.8063  1.5446 -1.4221
 4656TIP3   OH213973   2.639   4.906   2.357 -0.1832  0.1879  0.4513
 4656TIP3    H113974   2.654   4.845   2.285  1.9832 -1.5768  2.2307
 4656TIP3    H213975   2.547   4.894   2.380 -0.1216 -1.4664 -0.0725
 4657TIP3   OH213976   3.275   5.051   5.043 -0.2497 -0.2335  0.0647
 4657TIP3    H113977   3.255   5.144   5.048  2.1094  0.3302  0.1491
 4657TIP3    H213978   3.242   5.023   4.958 -1.7653  0.4329  0.4008
 4658TIP3   OH213979   5.311   1.897   1.116  0.0819 -0.7592  0.0807
 4658TIP3    H113980   5.381   1.840   1.084  0.1358 -0.3613 -0.5338
 4658TIP3    H213981   5.250   1.905   1.042  1.3216  1.9602 -0.7987
 4659TIP3   OH213982   0.920   4.974   0.614  0.4006  0.5114 -0.2585
 4659TIP3    H113983   0.892   4.927   0.693  0.9058  1.2325  0.3706
 4659TIP3    H213984   0.860   4.945   0.546  0.6429 -0.9756  0.1223
 4660TIP3   OH213985   3.154   0.683   3.338 -0.2860  0.2650 -0.2493
 4660TIP3    H113986   3.203   0.605   3.363 -0.6739 -0.1736 -0.8160
 4660TIP3    H213987   3.166   0.743   3.411  1.5561  0.3972 -0.6066
 4661TIP3   OH213988   1.494   4.828   2.772  0.5813 -0.2127 -0.0033
 4661TIP3    H113989   1.565   4.861   2.827  0.7957 -0.7606  0.0499
 4661TIP3    H213990   1.415   4.870   2.808  0.5944 -1.2358  1.3040
 4662TIP3   OH213991   0.375   0.593   1.959  0.1088  0.3759  0.5139
 4662TIP3    H113992   0.312   0.575   2.028 -1.0208 -0.5011 -0.6744
 4662TIP3    H213993   0.348   0.677   1.922  0.2409  0.4744  0.6412
 4663TIP3   OH213994   1.432   4.565   5.217 -0.0917 -0.3821 -0.0765
 4663TIP3    H113995   1.516   4.520   5.213  1.2141  1.6810  1.6385
 4663TIP3    H213996   1.401   4.567   5.127  2.8200  0.7351 -1.1671
 4664TIP3   OH213997   4.063   0.825   1.107  0.0172  0.4625 -0.0603
 4664TIP3    H113998   4.027   0.759   1.048 -1.6244  1.3696 -0.1251
 4664TIP3    H213999   4.019   0.808   1.191  0.6792  0.5712  0.3125
 4665TIP3   OH214000   4.832   2.790   1.171 -0.2593  0.1538  0.5648
 4665TIP3    H114001   4.823   2.719   1.234 -0.4897  0.4370  0.8558
 4665TIP3    H214002   4.851   2.747   1.088 -2.4850 -0.3784  0.2801
 4666TIP3   OH214003   5.988   5.491   3.844  0.2113 -0.1331 -0.6317
 4666TIP3    H114004   5.989   5.480   3.939  1.7256  0.7656 -0.5073
 4666TIP3    H214005   5.943   5.575   3.829  2.8751  1.4446 -0.4150
 4667TIP3   OH214006   4.674   5.878   0.305 -0.0868 -0.3978  0.2839
 4667TIP3    H114007   4.611   5.920   0.246  1.3109  0.1909 -0.8629
 4667TIP3    H214008   4.630   5.876   0.390 -2.2804 -1.5123 -0.7976
 4668TIP3   OH214009   0.535   4.232   0.011 -0.0124  0.2455  0.1263
 4668TIP3    H114010   0.505   4.201   0.097 -1.7624  0.3569 -0.4030
 4668TIP3    H214011   0.468   4.200  -0.050  1.2179  0.1459 -1.2093
 4669TIP3   OH214012   2.258   5.534   1.570  0.1306 -0.0835 -0.4090
 4669TIP3    H114013   2.256   5.629   1.579  0.9514 -0.2138  1.7428
 4669TIP3    H214014   2.229   5.502   1.655  1.1143 -1.7509 -0.6633
 4670TIP3   OH214015   3.155   5.851   3.537 -0.3134 -0.3482 -0.1819
 4670TIP3    H114016   3.093   5.869   3.607 -0.9929 -1.5249 -0.4620
 4670TIP3    H214017   3.124   5.770   3.497  0.5489 -0.1564 -1.2950
 4671TIP3   OH214018   4.732   5.199   1.323 -0.4861  0.2252 -0.2849
 4671TIP3    H114019   4.790   5.206   1.246 -0.4439  1.8956 -0.1312
 4671TIP3    H214020   4.788   5.225   1.397 -0.6230 -1.0434  0.2804
 4672TIP3   OH214021   0.884   0.485   1.900  0.3829  0.5349  0.3976
 4672TIP3    H114022   0.849   0.559   1.950 -0.3179 -0.0411  0.7884
 4672TIP3    H214023   0.815   0.463   1.838  0.9189  0.7173 -0.2831
 4673TIP3   OH214024   2.767   5.699   2.708 -0.0769  0.2244  0.4745
 4673TIP3    H114025   2.742   5.759   2.778  0.0989  1.6897 -0.6805
 4673TIP3    H214026   2.862   5.691   2.717  0.0590  1.1017 -0.1147
 4674TIP3   OH214027   6.074   5.354   4.822  0.4208 -0.0173 -0.2288
 4674TIP3    H114028   6.013   5.346   4.895 -0.0954 -0.0577 -0.6552
 4674TIP3    H214029   6.115   5.440   4.835 -1.1160  0.8769 -0.9623
 4675TIP3   OH214030   4.807   1.404   4.377  0.2253 -0.6916  0.4534
 4675TIP3    H114031   4.838   1.318   4.405 -0.0023 -0.3998  1.6955
 4675TIP3    H214032   4.770   1.442   4.457 -2.0209 -0.4485 -0.6346
 4676TIP3   OH214033   4.490   0.870   5.188  0.3202 -0.4717 -0.2143
 4676TIP3    H114034   4.518   0.962   5.187  0.4645 -0.4827  0.9458
 4676TIP3    H214035   4.565   0.822   5.154  1.2828 -0.3769  1.6288
 4677TIP3   OH214036   3.059   0.153   1.254  0.1295  0.3226 -0.4607
 4677TIP3    H114037   3.110   0.072   1.255 -1.4605 -0.7174  0.6969
 4677TIP3    H214038   2.987   0.136   1.193 -0.9287  0.3697  0.7359
 4678TIP3   OH214039   3.251   4.795   3.376 -0.2925 -0.1757 -0.3975
 4678TIP3    H114040   3.335   4.757   3.402 -0.1211  0.5471  0.1251
 4678TIP3    H214041   3.265   4.824   3.286 -0.2238 -0.7374 -0.5758
 4679TIP3   OH214042   5.044   1.612   3.125 -0.3551  0.3410  0.3017
 4679TIP3    H114043   5.005   1.580   3.207  1.2400  0.0874  0.9859
 4679TIP3    H214044   4.968   1.640   3.073 -1.7068 -2.4092  0.5722
 4680TIP3   OH214045   4.348   0.202   2.280  0.8042 -0.0625 -0.1118
 4680TIP3    H114046   4.433   0.176   2.316  1.2904 -0.5530 -1.5310
 4680TIP3    H214047   4.299   0.121   2.272  0.7838  0.0066 -0.7365
 4681TIP3   OH214048   6.337   4.097   1.302 -0.2057 -0.3923  0.3084
 4681TIP3    H114049   6.361   4.128   1.215 -1.4010  3.0715  1.0498
 4681TIP3    H214050   6.278   4.024   1.286 -0.0074 -0.1403 -1.7871
 4682TIP3   OH214051   6.094   3.300   4.680  0.0044  0.3233 -0.1126
 4682TIP3    H114052   6.069   3.347   4.760 -0.0708 -0.1051  0.1178
 4682TIP3    H214053   6.014   3.259   4.650 -0.2164  1.4094 -1.0458
 4683TIP3   OH214054   5.927   4.332   3.104  0.5246  0.1021  0.4936
 4683TIP3    H114055   5.975   4.250   3.091  0.8931  0.5924 -1.6640
 4683TIP3    H214056   5.835   4.306   3.105  0.6690 -0.4182  0.4533
 4684TIP3   OH214057   1.136   1.766   2.723  0.3786  0.2851 -0.0548
 4684TIP3    H114058   1.090   1.763   2.638 -0.6186  4.4149  0.1046
 4684TIP3    H214059   1.203   1.698   2.716 -1.2892 -1.3051 -3.1004
 4685TIP3   OH214060   4.334   4.966   2.753  0.2281 -0.2063  0.8794
 4685TIP3    H114061   4.282   4.885   2.757  0.0240 -0.0797  0.7645
 4685TIP3    H214062   4.277   5.030   2.711  0.0949  0.2171  1.6713
 4686TIP3   OH214063   4.847   0.187   2.386  0.6731 -0.1236 -0.4682
 4686TIP3    H114064   4.901   0.110   2.372 -0.2513 -0.4918 -2.2453
 4686TIP3    H214065   4.851   0.202   2.481  2.9295 -0.7975 -0.4015
 4687TIP3   OH214066   0.229   2.356   4.330 -0.0181 -0.5557 -0.4235
 4687TIP3    H114067   0.168   2.404   4.387 -1.2239 -0.5273 -1.7023
 4687TIP3    H214068   0.222   2.265   4.359  2.1338 -0.0989  1.8835
 4688TIP3   OH214069   2.623   3.109   1.449  0.2721 -0.1899 -0.4477
 4688TIP3    H114070   2.643   3.017   1.468 -2.7313 -0.7480  0.4650
 4688TIP3    H214071   2.628   3.152   1.534 -0.6056 -0.0157 -0.4760
 4689TIP3   OH214072   5.036   2.293   3.849 -0.4178 -0.0760 -0.1201
 4689TIP3    H114073   4.960   2.343   3.819 -0.9344  0.7895  2.3688
 4689TIP3    H214074   5.110   2.352   3.834 -0.6020  0.1646 -0.0993
 4690TIP3   OH214075   5.861   5.790   1.267  0.5602  0.1115 -0.3074
 4690TIP3    H114076   5.923   5.742   1.322 -1.4230 -2.0849  0.1935
 4690TIP3    H214077   5.851   5.875   1.310 -0.0965 -1.1282  2.1958
 4691TIP3   OH214078   2.634   1.586   0.515 -0.6828 -0.4975 -0.1891
 4691TIP3    H114079   2.617   1.496   0.486  0.5777 -0.9646  0.4139
 4691TIP3    H214080   2.698   1.619   0.452 -0.8393 -0.1610 -0.1723
 4692TIP3   OH214081   5.530   1.932   2.278  0.3400  0.2062 -0.0897
 4692TIP3    H114082   5.572   1.897   2.357 -0.5178  1.0874  0.7819
 4692TIP3    H214083   5.602   1.952   2.219  0.9191 -2.3606 -0.3874
 4693TIP3   OH214084   1.525   1.673   4.685 -0.3390  0.1302  0.6540
 4693TIP3    H114085   1.501   1.700   4.596 -0.4375 -0.6337  0.4397
 4693TIP3    H214086   1.443   1.641   4.722  0.0597 -1.2316  0.3905
 4694TIP3   OH214087   1.010   1.399   1.157 -0.0994 -0.2938  0.0060
 4694TIP3    H114088   1.082   1.445   1.199  0.1020 -0.7193  0.1374
 4694TIP3    H214089   0.945   1.387   1.226 -2.1673  3.6818 -0.9786
 4695TIP3   OH214090   3.017   2.081   2.729  0.8374  0.4951  0.5203
 4695TIP3    H114091   2.971   1.998   2.715  2.9925 -0.4973 -1.2927
 4695TIP3    H214092   2.988   2.137   2.658  0.9699  0.5707  0.5268
 4696TIP3   OH214093   1.824   2.391   0.403 -0.5267  0.1438 -0.0910
 4696TIP3    H114094   1.896   2.328   0.401 -0.5495  0.1120  0.0917
 4696TIP3    H214095   1.765   2.362   0.334 -0.3174  0.2260 -0.3085
 4697TIP3   OH214096   3.501   2.505   1.463  0.4346 -0.0714 -0.1130
 4697TIP3    H114097   3.420   2.556   1.469  0.4357  0.2692 -2.2821
 4697TIP3    H214098   3.525   2.487   1.554 -2.0373 -0.1429  0.5855
 4698TIP3   OH214099   5.612   2.123   1.521 -0.0611  0.2458  0.0335
 4698TIP3    H114100   5.669   2.184   1.474  0.5692 -0.1300  0.3071
 4698TIP3    H214101   5.545   2.099   1.457  0.0194  0.7730 -0.2550
 4699TIP3   OH214102   0.581   2.434   4.331 -0.7770 -0.4637 -0.1516
 4699TIP3    H114103   0.561   2.346   4.299  0.6766 -0.9123  0.1143
 4699TIP3    H214104   0.664   2.457   4.288 -0.2802  0.0935  1.0655
 4700TIP3   OH214105   3.094   5.693   2.933  0.0864 -0.1169 -0.6777
 4700TIP3    H114106   3.137   5.627   2.879 -1.6390 -2.5562  0.7220
 4700TIP3    H214107   3.152   5.704   3.009 -0.2210 -1.0222 -0.3013
 4701TIP3   OH214108   2.499   5.748   0.654  0.1946 -0.1221 -0.4269
 4701TIP3    H114109   2.581   5.701   0.638  0.5908  0.2865  0.3662
 4701TIP3    H214110   2.518   5.838   0.629  0.1315  0.0650  0.1828
 4702TIP3   OH214111   2.212   1.443   1.321 -0.0300 -0.3306  0.1834
 4702TIP3    H114112   2.146   1.496   1.277  1.3929  0.7561 -0.7128
 4702TIP3    H214113   2.227   1.489   1.404 -0.8680 -0.9733  0.7148
 4703TIP3   OH214114   3.755   1.287   1.059  0.0251 -0.1639 -0.3064
 4703TIP3    H114115   3.819   1.308   1.127 -0.1434 -0.9348  0.1026
 4703TIP3    H214116   3.690   1.234   1.104 -1.0537  0.8256 -0.6525
 4704TIP3   OH214117   4.737   0.796   0.659 -0.0666 -0.0775 -0.3646
 4704TIP3    H114118   4.832   0.797   0.646  0.1310  0.4876  0.9990
 4704TIP3    H214119   4.705   0.872   0.610  0.6577  2.0336  2.2334
 4705TIP3   OH214120   2.088   4.713   2.187 -0.1533  0.4417  0.2544
 4705TIP3    H114121   2.044   4.728   2.104 -1.9245 -0.3120  1.0193
 4705TIP3    H214122   2.095   4.799   2.228 -0.9097  0.5751  0.1077
 4706TIP3   OH214123   0.564   1.105   1.677 -0.1446  0.3351  0.7332
 4706TIP3    H114124   0.489   1.113   1.618  0.8253 -0.1201 -0.6275
 4706TIP3    H214125   0.545   1.029   1.731  0.3708 -1.2804 -1.2477
 4707TIP3   OH214126   6.199   1.558   4.973 -0.2355  0.4463 -0.1326
 4707TIP3    H114127   6.114   1.587   4.941 -0.3866 -0.0785 -0.2191
 4707TIP3    H214128   6.237   1.636   5.013  0.0555  1.1795 -1.7712
 4708TIP3   OH214129   5.304   5.031   1.407  0.2860 -0.3125 -0.0126
 4708TIP3    H114130   5.256   4.949   1.407 -0.1601 -0.0625 -0.8460
 4708TIP3    H214131   5.279   5.074   1.326  2.2810 -0.3806 -0.7228
 4709TIP3   OH214132   5.339   0.617   3.313  0.4645 -0.3996 -0.9519
 4709TIP3    H114133   5.260   0.571   3.287  0.6131 -0.7713 -0.7506
 4709TIP3    H214134   5.392   0.551   3.358  0.5806  0.0216 -0.4623
 4710TIP3   OH214135   3.573   5.866   1.187 -0.1998  0.0490  0.2521
 4710TIP3    H114136   3.586   5.903   1.274 -2.0610 -0.9219  0.9968
 4710TIP3    H214137   3.661   5.856   1.151  0.5439  1.3595  1.6283
 4711TIP3   OH214138   5.416   5.231   0.695 -0.0844 -0.0640  0.1035
 4711TIP3    H114139   5.460   5.200   0.616 -0.7525 -1.1215  0.1237
 4711TIP3    H214140   5.455   5.316   0.712  2.2375 -1.0884  0.3322
 4712TIP3   OH214141   5.318   4.506   4.306 -0.3899  0.1384  0.8530
 4712TIP3    H114142   5.361   4.424   4.329 -0.2100 -0.2622 -0.7931
 4712TIP3    H214143   5.353   4.569   4.369  1.5809 -0.4687  0.4536
 4713TIP3   OH214144   1.871   1.367   3.269  0.9682  0.3218  0.0682
 4713TIP3    H114145   1.824   1.436   3.314 -1.1303 -0.8986 -0.1062
 4713TIP3    H214146   1.813   1.341   3.197  0.4370 -3.2709  1.6024
 4714TIP3   OH214147   3.165   3.326   0.570 -0.0241  0.0281 -0.3166
 4714TIP3    H114148   3.211   3.410   0.576  1.1488 -0.5414 -1.0103
 4714TIP3    H214149   3.233   3.262   0.551 -1.1764 -0.7420 -2.2293
 4715TIP3   OH214150   2.125   4.987   2.207 -0.1025  0.0630  0.1092
 4715TIP3    H114151   2.213   5.021   2.197 -0.5403  0.9915 -0.8121
 4715TIP3    H214152   2.077   5.055   2.254 -0.8202  0.4752 -1.1712
 4716TIP3   OH214153   3.355   1.434   3.253 -1.1936 -0.2979  0.2862
 4716TIP3    H114154   3.439   1.398   3.282 -0.0177 -0.4631 -2.9657
 4716TIP3    H214155   3.371   1.527   3.239 -1.3872 -0.4227 -0.8437
 4717TIP3   OH214156   5.200   2.948   0.910 -0.5359  0.1326  0.7125
 4717TIP3    H114157   5.257   2.872   0.916  2.7644  2.2917 -0.7134
 4717TIP3    H214158   5.204   2.975   0.818 -1.6899  1.9498  1.1335
 4718TIP3   OH214159   2.349   3.927   4.522  0.3595  0.2502  0.2338
 4718TIP3    H114160   2.323   3.983   4.449 -2.3240 -1.6802 -0.4529
 4718TIP3    H214161   2.425   3.879   4.489  0.9599  1.4276 -0.1773
 4719TIP3   OH214162   6.096   5.859   2.608  0.3629 -0.0334  0.3395
 4719TIP3    H114163   6.152   5.935   2.624  0.5419 -0.5589  2.5702
 4719TIP3    H214164   6.038   5.886   2.537  1.9881  1.3045 -0.5494
 4720TIP3   OH214165   3.435   4.380   1.905 -0.5862  0.2493 -0.1383
 4720TIP3    H114166   3.503   4.432   1.947 -2.7196  3.4768 -0.3800
 4720TIP3    H214167   3.371   4.365   1.973  0.0202 -2.3738 -0.0349
 4721TIP3   OH214168   5.507   2.146   0.576  0.4431 -0.1639  0.0614
 4721TIP3    H114169   5.590   2.187   0.599  0.4970  0.2672 -0.8728
 4721TIP3    H214170   5.495   2.166   0.483 -0.4585 -0.6496  0.0642
 4722TIP3   OH214171   2.386   1.795   2.698 -0.1995 -0.4392  0.0957
 4722TIP3    H114172   2.459   1.735   2.681 -0.2037 -0.3289 -0.3261
 4722TIP3    H214173   2.388   1.856   2.625  0.2943  0.5737  0.9204
 4723TIP3   OH214174   3.898   1.122   3.578  0.2509 -0.1634 -0.6377
 4723TIP3    H114175   3.991   1.144   3.583  0.3965 -0.5772 -1.4728
 4723TIP3    H214176   3.893   1.032   3.609  0.2947 -0.5512 -1.7399
 4724TIP3   OH214177   0.327   1.975   3.382  0.2806  0.3142 -0.2690
 4724TIP3    H114178   0.327   2.060   3.424  1.1304  0.4876 -0.6048
 4724TIP3    H214179   0.418   1.960   3.356  0.3239 -1.0964  0.5813
 4725TIP3   OH214180   5.938   5.337   1.190 -0.3799 -0.4501  0.2185
 4725TIP3    H114181   5.883   5.335   1.268  0.5343 -2.3533  0.8680
 4725TIP3    H214182   6.020   5.378   1.220 -0.8533  1.0130 -0.3806
 4726TIP3   OH214183   4.200   1.048   2.980 -0.2033  0.0579 -0.5321
 4726TIP3    H114184   4.168   0.989   2.912  1.0721  1.0383 -2.0695
 4726TIP3    H214185   4.201   1.134   2.937  0.2044  0.7859  0.8894
 4727TIP3   OH214186   2.472   5.966   0.254 -0.3152 -0.3202 -0.2449
 4727TIP3    H114187   2.413   5.900   0.289 -0.2510 -1.4164 -2.1009
 4727TIP3    H214188   2.535   5.917   0.202  1.7226  0.9095  0.9227
 4728TIP3   OH214189   3.631   2.427   1.690 -0.0021  0.1790 -0.1045
 4728TIP3    H114190   3.612   2.473   1.771  3.1743 -0.7910  1.3769
 4728TIP3    H214191   3.717   2.387   1.705  0.0456 -1.3118 -3.4206
 4729TIP3   OH214192   4.380   3.616   1.993 -0.0185  0.2846 -0.0848
 4729TIP3    H114193   4.399   3.703   2.027  1.0529 -0.3295  0.9755
 4729TIP3    H214194   4.292   3.596   2.026  0.5338  0.1777  1.4001
 4730TIP3   OH214195   6.061   2.833   1.711  0.2218 -0.0165 -0.0635
 4730TIP3    H114196   6.129   2.871   1.655  0.8605  1.7833  1.7859
 4730TIP3    H214197   5.980   2.843   1.662  1.1025 -1.3127 -1.9072
 4731TIP3   OH214198   3.057   0.898   1.899 -0.1957 -0.3338  0.1826
 4731TIP3    H114199   3.024   0.950   1.973 -2.9347 -1.6516 -0.0118
 4731TIP3    H214200   3.119   0.837   1.939 -1.7051 -1.0867  1.4628
 4732TIP3   OH214201   0.877   1.051   4.627  0.4349  0.3234 -0.1788
 4732TIP3    H114202   0.818   1.062   4.702  0.9079  0.3593  0.2005
 4732TIP3    H214203   0.854   1.122   4.567 -0.3363 -0.0525 -0.3289
 4733TIP3   OH214204   0.813   1.070   0.215  0.0885  0.1318  0.2370
 4733TIP3    H114205   0.802   1.073   0.310  1.5709  0.8356  0.4266
 4733TIP3    H214206   0.725   1.053   0.181 -0.5073  0.0663  1.7164
 4734TIP3   OH214207   1.714   1.193   5.042 -0.0409  0.2030 -0.1137
 4734TIP3    H114208   1.686   1.281   5.066 -0.5703  0.1668 -0.5824
 4734TIP3    H214209   1.703   1.141   5.121 -1.8715  0.0559 -0.4274
 4735TIP3   OH214210   0.657   3.213   4.456 -0.3468 -0.0462 -0.0710
 4735TIP3    H114211   0.576   3.265   4.457 -0.2179  0.1893  1.8154
 4735TIP3    H214212   0.672   3.191   4.548  1.5218 -0.4468 -0.4419
 4736TIP3   OH214213   5.398   3.990   2.880 -0.3908  0.0738  0.3098
 4736TIP3    H114214   5.470   4.016   2.822  0.1064  0.5533  1.1250
 4736TIP3    H214215   5.357   4.072   2.907 -0.4030 -0.1158  0.8971
 4737TIP3   OH214216   2.063   5.383   4.012  0.2823 -0.6886  0.2329
 4737TIP3    H114217   2.008   5.354   3.938 -0.0372 -0.1783  0.2630
 4737TIP3    H214218   2.088   5.302   4.056 -0.7966 -0.9148  0.4587
 4738TIP3   OH214219   2.322   1.841   1.275 -0.1524 -0.0821  0.7391
 4738TIP3    H114220   2.415   1.863   1.286 -0.2234  0.1561  0.8658
 4738TIP3    H214221   2.296   1.806   1.360 -0.3569  0.5026  0.9177
 4739TIP3   OH214222   3.404   2.789   3.801  0.4468 -0.1232  0.3273
 4739TIP3    H114223   3.413   2.793   3.896 -1.0164  1.0834  0.4497
 4739TIP3    H214224   3.463   2.857   3.768 -0.9209  1.2014  0.5463
 4740TIP3   OH214225   0.753   1.984   2.461  0.2159 -0.1932 -0.0541
 4740TIP3    H114226   0.804   1.969   2.540 -1.4634 -0.2262  1.0935
 4740TIP3    H214227   0.760   1.902   2.411  0.2511 -0.6530  0.6915
 4741TIP3   OH214228   5.179   1.001   0.426  0.0905  0.1737 -0.3615
 4741TIP3    H114229   5.258   1.053   0.445  0.1233 -0.1364  0.4009
 4741TIP3    H214230   5.106   1.060   0.444  0.1261 -0.0549  0.5782
 4742TIP3   OH214231   4.257   4.556   0.098 -0.0422 -0.1458 -0.2643
 4742TIP3    H114232   4.291   4.522   0.181 -0.4083  0.9303  0.3443
 4742TIP3    H214233   4.206   4.633   0.123 -0.7890 -0.2474 -1.4193
 4743TIP3   OH214234   1.723   1.730   0.327 -0.4256 -0.1842 -0.1498
 4743TIP3    H114235   1.775   1.672   0.271  0.6786  0.3155  0.3282
 4743TIP3    H214236   1.633   1.718   0.296 -0.1442 -1.6459 -0.5049
 4744TIP3   OH214237   0.801   3.383   3.317  0.2104  0.1183  0.3777
 4744TIP3    H114238   0.867   3.442   3.280  1.9805  0.0072  3.0496
 4744TIP3    H214239   0.736   3.441   3.355  0.4450  0.3086  0.4941
 4745TIP3   OH214240   3.578   2.889   3.218 -0.1847 -0.7461 -0.1614
 4745TIP3    H114241   3.599   2.839   3.297 -1.8284 -0.6145  0.4057
 4745TIP3    H214242   3.603   2.979   3.239 -0.8704 -0.6602  0.3466
 4746TIP3   OH214243   2.104   2.643   1.272 -0.0553 -0.1250 -0.0342
 4746TIP3    H114244   2.075   2.701   1.343 -0.3749  0.1141 -0.3570
 4746TIP3    H214245   2.083   2.691   1.192 -1.0767 -1.0264 -0.3290
 4747TIP3   OH214246   2.914   4.896   3.672 -0.5052  0.1302  0.1916
 4747TIP3    H114247   3.008   4.901   3.657 -0.1488  1.1939  2.4027
 4747TIP3    H214248   2.897   4.803   3.690  0.1014 -0.0745 -0.2800
 4748TIP3   OH214249   2.558   5.530   3.503 -1.0941 -0.1485 -0.9101
 4748TIP3    H114250   2.576   5.444   3.464 -1.6755 -1.3127  1.2175
 4748TIP3    H214251   2.473   5.555   3.468 -0.5273 -0.0007 -2.2225
 4749TIP3   OH214252   0.644   5.319   3.264  0.3909  0.5109  0.0449
 4749TIP3    H114253   0.695   5.373   3.204  2.3614 -0.6385  0.6223
 4749TIP3    H214254   0.637   5.234   3.220  1.4875 -0.2133  1.2081
 4750TIP3   OH214255   2.590   5.143   1.430  0.3622  0.4740  0.0541
 4750TIP3    H114256   2.673   5.184   1.453  0.7869  0.0671 -0.7262
 4750TIP3    H214257   2.597   5.125   1.336  0.0994 -1.1981  0.3237
 4751TIP3   OH214258   0.632   1.505   3.921  0.0106  0.5321  0.4637
 4751TIP3    H114259   0.537   1.497   3.913  0.2047 -0.7252 -1.0273
 4751TIP3    H214260   0.667   1.430   3.873  1.7726  1.1437  0.6986
 4752TIP3   OH214261   4.612   3.483   3.524 -0.1092  0.5651  0.2936
 4752TIP3    H114262   4.647   3.481   3.435 -0.9463 -0.2917 -0.0324
 4752TIP3    H214263   4.594   3.392   3.545  1.0580  0.6497  1.7621
 4753TIP3   OH214264   2.539   3.475   1.066  0.1787 -0.1165 -0.4787
 4753TIP3    H114265   2.625   3.509   1.089  0.0808 -1.3393  2.0591
 4753TIP3    H214266   2.551   3.380   1.064 -1.2280 -0.3596  0.7002
 4754TIP3   OH214267   0.205   4.089   2.170  0.1966  0.1471  0.2187
 4754TIP3    H114268   0.152   4.139   2.232  1.7715  1.7687  0.3253
 4754TIP3    H214269   0.286   4.139   2.162  0.9595 -1.2608 -1.3851
 4755TIP3   OH214270   3.240   4.341   2.648  0.7084  0.2108  0.1848
 4755TIP3    H114271   3.223   4.257   2.606  1.7745 -0.2729  0.6831
 4755TIP3    H214272   3.334   4.341   2.664  0.8130  1.7498 -0.3276
 4756TIP3   OH214273   6.255   1.285   4.564  0.0104  0.0534  0.2370
 4756TIP3    H114274   6.225   1.288   4.474  2.9850  0.4759 -0.8335
 4756TIP3    H214275   6.259   1.192   4.585 -0.8832 -0.0390  0.0566
 4757TIP3   OH214276   0.778   0.796   1.120 -0.0291  0.1841 -0.0866
 4757TIP3    H114277   0.768   0.702   1.107 -0.0512  0.3581 -1.4456
 4757TIP3    H214278   0.690   0.831   1.109  0.2369  0.5282 -1.2524
 4758TIP3   OH214279   0.640   0.791   2.519 -0.2871 -0.0257 -0.3120
 4758TIP3    H114280   0.565   0.770   2.463  1.1690 -0.0445 -2.3861
 4758TIP3    H214281   0.635   0.885   2.532 -0.4624  0.0331 -0.7793
 4759TIP3   OH214282   1.462   3.031   4.717  0.4138 -0.7488  0.0325
 4759TIP3    H114283   1.445   3.108   4.664  0.3860 -0.3309  0.6360
 4759TIP3    H214284   1.512   3.064   4.792 -1.7457 -0.8655  1.6096
 4760TIP3   OH214285   2.319   3.315   5.169 -0.6402  0.4309  0.3338
 4760TIP3    H114286   2.283   3.403   5.163 -1.2460  0.1454 -0.2993
 4760TIP3    H214287   2.253   3.259   5.130  0.7925 -0.0183 -1.6294
 4761TIP3   OH214288   4.527   5.882   3.545  0.2774  0.1348  0.1503
 4761TIP3    H114289   4.445   5.840   3.570  0.2861 -0.7431 -1.2000
 4761TIP3    H214290   4.503   5.973   3.527 -0.5209 -0.2669 -0.8501
 4762TIP3   OH214291   4.054   1.302   0.975 -0.6938 -0.6571  0.2252
 4762TIP3    H114292   3.985   1.293   1.040  0.6201  0.2344  1.8457
 4762TIP3    H214293   4.097   1.217   0.973 -1.2302 -0.9205 -0.0570
 4763TIP3   OH214294   0.942   3.798   3.807 -0.1836  0.0353 -0.1195
 4763TIP3    H114295   0.950   3.808   3.902  1.6112  0.4958 -0.2751
 4763TIP3    H214296   0.895   3.716   3.795 -0.5076  0.0125  1.1657
 4764TIP3   OH214297   3.867   3.942   4.044  0.2775 -0.0607  0.3937
 4764TIP3    H114298   3.938   3.931   4.107  2.3452  1.9463 -1.4110
 4764TIP3    H214299   3.824   4.023   4.070 -0.6281 -0.6509  0.7772
 4765TIP3   OH214300   1.452   2.869   1.366 -0.1454  0.3130 -0.2708
 4765TIP3    H114301   1.380   2.920   1.402 -2.7213 -0.9942 -3.1365
 4765TIP3    H214302   1.424   2.778   1.373  1.8131 -0.3535 -0.3916
 4766TIP3   OH214303   4.374   4.482   0.347 -0.1852  0.0166  0.3731
 4766TIP3    H114304   4.359   4.390   0.370  2.0152 -0.7719 -0.9238
 4766TIP3    H214305   4.456   4.504   0.390 -1.0505  1.6572  1.2549
 4767TIP3   OH214306   0.224   1.160   3.878 -0.4326 -0.0611 -0.1797
 4767TIP3    H114307   0.153   1.223   3.863  0.4738  0.8412 -0.7899
 4767TIP3    H214308   0.219   1.100   3.804 -0.6360 -0.0774 -0.1536
 4768TIP3   OH214309   5.405   2.299   4.384 -0.1252 -0.2897 -0.2226
 4768TIP3    H114310   5.456   2.226   4.348 -0.9385 -0.9121 -0.1542
 4768TIP3    H214311   5.380   2.350   4.308  5.1396  3.2915 -0.0602
 4769TIP3   OH214312   2.434   0.362   2.707 -0.2678 -0.0036  0.2006
 4769TIP3    H114313   2.508   0.343   2.649  0.0414 -0.6787  0.7919
 4769TIP3    H214314   2.446   0.301   2.780 -0.4083  1.1150  1.1712
 4770TIP3   OH214315   5.693   3.422   5.191 -0.3464  0.3741 -0.2371
 4770TIP3    H114316   5.714   3.430   5.098 -1.1553  0.2740 -0.4373
 4770TIP3    H214317   5.651   3.336   5.199  0.5431 -0.0266  0.3912
 4771TIP3   OH214318   3.174   0.999   3.228  0.3614 -0.0160  0.2445
 4771TIP3    H114319   3.144   1.025   3.141  0.4418  0.7337  0.4246
 4771TIP3    H214320   3.204   0.909   3.218  1.4542  0.4264 -0.7764
 4772TIP3   OH214321   3.544   3.441   4.548 -0.5878 -0.3559  0.1444
 4772TIP3    H114322   3.494   3.499   4.491 -0.0943 -1.4309 -1.4532
 4772TIP3    H214323   3.485   3.368   4.566 -0.7989  0.0480  1.1981
 4773TIP3   OH214324   0.072   5.822   2.250  0.0628  0.2147 -0.3897
 4773TIP3    H114325   0.108   5.734   2.254 -0.0618  0.1188 -1.1647
 4773TIP3    H214326  -0.022   5.811   2.264  0.0809  0.2449 -0.2516
 4774TIP3   OH214327   1.850   2.775   2.572  0.4960 -0.6703  0.3781
 4774TIP3    H114328   1.906   2.853   2.566 -0.9860  0.5723  1.5927
 4774TIP3    H214329   1.849   2.739   2.483 -0.2390  1.8050 -0.7238
 4775TIP3   OH214330   2.286   3.573   5.111  0.3351  0.3408  0.2906
 4775TIP3    H114331   2.259   3.584   5.020  0.3939  0.2295  0.2600
 4775TIP3    H214332   2.340   3.650   5.129 -0.7122  1.0208  0.6191
 4776TIP3   OH214333   4.440   2.464   0.946 -0.2967  0.3260 -0.7871
 4776TIP3    H114334   4.443   2.526   0.872 -2.0500 -0.7077 -1.7968
 4776TIP3    H214335   4.348   2.461   0.970 -0.0188 -0.8255  0.1812
 4777TIP3   OH214336   3.712   0.293   4.277  0.7379 -0.3144  0.1796
 4777TIP3    H114337   3.672   0.295   4.190  1.7538 -1.9502 -0.3741
 4777TIP3    H214338   3.805   0.309   4.261  0.7830  0.3982  1.0994
 4778TIP3   OH214339   1.164   4.200   0.792  0.4333 -0.5376  0.3597
 4778TIP3    H114340   1.127   4.118   0.825  1.5804 -1.7000 -1.0878
 4778TIP3    H214341   1.112   4.219   0.714  0.1023  0.2029  0.7506
 4779TIP3   OH214342   0.595   3.161   4.723 -0.3799  0.1414 -0.0106
 4779TIP3    H114343   0.515   3.207   4.697 -0.0193  0.3774 -0.7396
 4779TIP3    H214344   0.578   3.069   4.703 -1.6037 -0.3039  2.6719
 4780TIP3   OH214345   0.902   1.264   2.701 -0.0766 -0.1215 -0.0919
 4780TIP3    H114346   0.970   1.290   2.764  0.3661 -0.4608 -0.4194
 4780TIP3    H214347   0.906   1.169   2.700 -1.9184 -0.2737  1.3474
 4781TIP3   OH214348   0.450   0.577   1.191  0.0243  0.4185  1.0008
 4781TIP3    H114349   0.363   0.572   1.231 -0.3676  0.4766  0.1835
 4781TIP3    H214350   0.447   0.657   1.138  0.8844  0.9078  1.6609
 4782TIP3   OH214351   1.329   1.442   1.255 -0.5352 -0.1993 -0.0898
 4782TIP3    H114352   1.356   1.523   1.299 -1.0055 -0.1457  0.1078
 4782TIP3    H214353   1.350   1.373   1.317  0.4795 -0.2956 -0.5292
 4783TIP3   OH214354   3.702   5.590   1.003 -0.0693 -0.1314 -0.2511
 4783TIP3    H114355   3.719   5.674   1.047 -0.2531 -0.7240  0.9980
 4783TIP3    H214356   3.783   5.569   0.958 -0.5579  1.5585 -2.0807
 4784TIP3   OH214357   6.294   1.342   2.922  1.1104  0.6726 -0.0940
 4784TIP3    H114358   6.245   1.401   2.864 -0.6349 -1.8455 -1.3503
 4784TIP3    H214359   6.239   1.334   3.000  0.6643 -0.2675 -0.4874
 4785TIP3   OH214360   3.222   5.486   2.822 -0.0785 -0.2182  0.0574
 4785TIP3    H114361   3.153   5.465   2.759  0.1984 -3.6272  0.6995
 4785TIP3    H214362   3.200   5.434   2.899  2.2278  0.0220  0.9593
 4786TIP3   OH214363   5.214   5.901   0.569 -0.2129 -0.0848 -0.8332
 4786TIP3    H114364   5.309   5.894   0.570 -0.1941  0.1715  0.0563
 4786TIP3    H214365   5.193   5.928   0.479  0.4503 -1.2717 -1.3748
 4787TIP3   OH214366   3.314   3.072   1.498 -0.1154  0.2474 -0.2105
 4787TIP3    H114367   3.376   3.103   1.432 -0.0761  1.1761  0.2488
 4787TIP3    H214368   3.327   2.977   1.501  0.1693  0.2420 -1.2379
 4788TIP3   OH214369   5.775   1.431   0.435  0.2512 -0.2212  0.6151
 4788TIP3    H114370   5.705   1.386   0.388 -0.4662 -0.6941  2.0753
 4788TIP3    H214371   5.825   1.477   0.366 -0.6415 -1.0095 -0.5950
 4789TIP3   OH214372   5.815   5.353   1.426  0.9583  0.0653  0.0424
 4789TIP3    H114373   5.816   5.267   1.468  1.2178 -0.5846 -1.2474
 4789TIP3    H214374   5.722   5.372   1.413  0.9200 -0.3012 -0.2301
 4790TIP3   OH214375   2.467   4.778   0.135  0.4796  0.1414 -0.3949
 4790TIP3    H114376   2.543   4.777   0.076  0.8267 -0.4933  0.0505
 4790TIP3    H214377   2.501   4.745   0.218  0.2307  1.9674  0.4814
 4791TIP3   OH214378   0.071   0.803   1.769 -0.3537 -0.8126  0.1826
 4791TIP3    H114379   0.065   0.831   1.678 -0.8053  1.8155  0.9329
 4791TIP3    H214380   0.164   0.810   1.790 -0.3242 -0.8887  0.0781
 4792TIP3   OH214381   3.181   0.917   0.370 -0.2853 -0.0212 -0.3806
 4792TIP3    H114382   3.202   0.856   0.299 -1.1006 -1.1169  0.2868
 4792TIP3    H214383   3.262   0.965   0.385  1.1724 -2.6003  0.6767
 4793TIP3   OH214384   1.223   0.414   1.058  0.2402  0.0810  0.2960
 4793TIP3    H114385   1.266   0.368   1.130  0.7273  0.5951  0.3339
 4793TIP3    H214386   1.137   0.373   1.052  0.6995 -0.9203  0.2616
 4794TIP3   OH214387   5.008   4.222   1.803  0.0272  0.1836 -0.2255
 4794TIP3    H114388   4.930   4.275   1.791 -0.0599  0.5669  1.7383
 4794TIP3    H214389   5.052   4.259   1.880  2.3001  0.1324 -1.3949
 4795TIP3   OH214390   4.938   2.599   0.989  0.0384  0.2248 -0.5158
 4795TIP3    H114391   4.994   2.539   0.940  1.4880  1.3280 -0.2948
 4795TIP3    H214392   4.884   2.641   0.923 -1.6571 -1.9022 -0.5920
 4796TIP3   OH214393   5.248   1.413   1.352  0.2244 -0.1283  0.6712
 4796TIP3    H114394   5.165   1.439   1.311  1.3528  0.4255 -1.4536
 4796TIP3    H214395   5.227   1.333   1.400 -2.2910  1.8899  3.2648
 4797TIP3   OH214396   1.863   4.687   2.883  0.3181  0.1053  0.0453
 4797TIP3    H114397   1.943   4.634   2.889 -0.2248 -0.7138  0.2205
 4797TIP3    H214398   1.855   4.726   2.970  0.4765  0.1213  0.0540
 4798TIP3   OH214399   0.696   4.095   3.553  0.3605  0.4656 -0.3042
 4798TIP3    H114400   0.680   4.190   3.545  0.4081  0.5121  0.1427
 4798TIP3    H214401   0.658   4.072   3.638  1.4711  0.3228  0.1658
 4799TIP3   OH214402   4.248   2.271   2.475 -0.2607  0.1271  0.4059
 4799TIP3    H114403   4.263   2.213   2.400 -0.2314 -0.5296  0.9071
 4799TIP3    H214404   4.300   2.349   2.456 -0.3089 -0.0054 -0.2849
 4800TIP3   OH214405   5.780   3.438   2.601 -0.2479 -1.0537  0.4134
 4800TIP3    H114406   5.718   3.508   2.619  0.3108  0.2727 -2.3106
 4800TIP3    H214407   5.731   3.357   2.616 -1.9491 -0.0623  0.4282
 4801TIP3   OH214408   4.511   0.364   4.331  0.0351 -0.2684 -0.1890
 4801TIP3    H114409   4.495   0.456   4.308 -1.5156 -0.5598 -0.3549
 4801TIP3    H214410   4.428   0.320   4.313  0.2620 -1.4202  1.3789
 4802TIP3   OH214411   1.207   3.906   4.084  0.2905 -0.0906  0.2439
 4802TIP3    H114412   1.278   3.955   4.125 -0.2159  0.0225  1.0135
 4802TIP3    H214413   1.225   3.911   3.990  0.5719  1.0579  0.3435
 4803TIP3   OH214414   2.343   5.946   5.179 -0.1601 -0.2940 -0.7612
 4803TIP3    H114415   2.264   5.911   5.139  0.0804 -0.6507 -0.9254
 4803TIP3    H214416   2.369   6.019   5.123  2.2468 -2.9833 -3.4535
 4804TIP3   OH214417   0.809   0.425   0.613 -0.5737 -0.0118 -0.4453
 4804TIP3    H114418   0.794   0.510   0.654  2.5322  0.9939 -1.1613
 4804TIP3    H214419   0.853   0.373   0.681  1.4548  0.4954 -1.3000
 4805TIP3   OH214420   5.880   0.406   5.141  0.6121 -0.0107  0.1892
 4805TIP3    H114421   5.785   0.397   5.153  0.6293 -0.4441  0.0018
 4805TIP3    H214422   5.911   0.317   5.128  0.9784  0.1855 -0.2803
 4806TIP3   OH214423   1.560   5.449   3.419 -0.5658 -0.6492  0.1455
 4806TIP3    H114424   1.584   5.420   3.507 -3.0933  0.3597  1.2646
 4806TIP3    H214425   1.472   5.412   3.405 -1.4340  1.5708 -0.7314
 4807TIP3   OH214426   3.531   5.490   4.089 -0.3737  0.4975  0.5483
 4807TIP3    H114427   3.555   5.568   4.139 -1.3432  0.9639  0.3017
 4807TIP3    H214428   3.447   5.512   4.048  0.4867  0.2527 -1.5140
 4808TIP3   OH214429   2.236   4.006   3.809 -0.3532 -0.2923 -0.6759
 4808TIP3    H114430   2.327   3.996   3.781 -0.6714 -2.3865 -1.1768
 4808TIP3    H214431   2.193   4.053   3.737 -0.2979 -2.0940 -1.9576
 4809TIP3   OH214432   2.869   4.801   2.141  0.7534 -0.4650 -1.0966
 4809TIP3    H114433   2.810   4.761   2.078 -2.0360 -0.3964  1.2768
 4809TIP3    H214434   2.862   4.895   2.124  1.8811 -0.5458 -2.1531
 4810TIP3   OH214435   5.828   5.312   3.704 -0.7294 -0.1479 -0.0901
 4810TIP3    H114436   5.846   5.225   3.740  0.9592  0.5629  0.9061
 4810TIP3    H214437   5.887   5.370   3.752  0.7012  1.0683 -3.0798
 4811TIP3   OH214438   2.611   2.434   3.742  0.3657  0.0446  0.0397
 4811TIP3    H114439   2.534   2.386   3.772  0.1605  0.4961  0.2503
 4811TIP3    H214440   2.618   2.414   3.649  0.0117 -0.0264  0.0298
 4812TIP3   OH214441   5.676   2.067   0.093 -0.3581  0.0558 -0.0646
 4812TIP3    H114442   5.582   2.051   0.087 -0.1487 -0.9025 -1.1227
 4812TIP3    H214443   5.692   2.141   0.034 -0.3915 -0.0398 -0.1936
 4813TIP3   OH214444   5.779   1.782   5.054 -0.4923  0.1533 -0.5966
 4813TIP3    H114445   5.833   1.758   4.978  0.3049  0.3067 -0.0860
 4813TIP3    H214446   5.816   1.864   5.085 -0.0471 -0.4947  0.6643
 4814TIP3   OH214447   5.086   2.441   0.792 -0.0002  0.2436 -0.2011
 4814TIP3    H114448   5.095   2.361   0.741  1.0882  0.6955 -0.7398
 4814TIP3    H214449   5.173   2.482   0.789  0.2497  0.0637  2.3796
 4815TIP3   OH214450   1.708   4.820   0.896 -0.2774 -0.3405  0.2875
 4815TIP3    H114451   1.802   4.812   0.907 -0.1440  0.2104 -0.3756
 4815TIP3    H214452   1.696   4.828   0.801 -1.0844 -1.6747  0.2424
 4816TIP3   OH214453   0.605   4.128   3.239 -0.0227 -0.4277 -0.3594
 4816TIP3    H114454   0.588   4.080   3.158 -0.8461  0.2580 -0.6069
 4816TIP3    H214455   0.684   4.178   3.221  0.8507 -1.6488 -0.0987
 4817TIP3   OH214456   1.049   5.558   2.617 -0.2654  0.2818  0.4195
 4817TIP3    H114457   1.040   5.482   2.559 -1.4230  0.5618  0.2254
 4817TIP3    H214458   1.074   5.630   2.559  0.5978  0.1246  0.5724
 4818TIP3   OH214459   5.444   2.091   2.692 -0.3181 -0.4528  0.2171
 4818TIP3    H114460   5.495   2.164   2.657  0.0737 -0.7775  0.1093
 4818TIP3    H214461   5.427   2.035   2.616 -0.9165 -0.3053  0.2318
 4819TIP3   OH214462   4.261   1.342   4.700 -0.6054 -0.1877  0.1630
 4819TIP3    H114463   4.354   1.330   4.679 -0.3750  2.1708 -0.4030
 4819TIP3    H214464   4.215   1.288   4.636  0.3487 -0.0140 -0.6881
 4820TIP3   OH214465   2.556   4.051   2.102 -0.0588  0.1569 -0.1657
 4820TIP3    H114466   2.513   3.995   2.167 -0.2099 -0.2964 -0.6511
 4820TIP3    H214467   2.650   4.042   2.121 -0.0981 -0.0185 -0.0504
 4821TIP3   OH214468   3.414   2.623   2.329 -0.1303  0.5016  0.2790
 4821TIP3    H114469   3.386   2.574   2.252  0.6972 -1.0923  0.9441
 4821TIP3    H214470   3.509   2.614   2.330 -0.1226  0.5634  1.4384
 4822TIP3   OH214471   1.500   2.209   4.999  0.6030  0.1459 -0.1915
 4822TIP3    H114472   1.417   2.168   4.974 -0.2499  0.9563  1.1715
 4822TIP3    H214473   1.475   2.276   5.062  2.1136  1.7407 -1.1955
 4823TIP3   OH214474   2.881   5.944   2.629  0.0021  0.1146  0.3621
 4823TIP3    H114475   2.799   5.975   2.667 -0.3484 -0.1127 -0.2031
 4823TIP3    H214476   2.869   5.954   2.534 -0.0363 -1.5166  0.1718
 4824TIP3   OH214477   2.606   2.139   0.144  0.3715 -0.2153  0.0712
 4824TIP3    H114478   2.542   2.204   0.174 -0.7975 -0.8267 -0.9592
 4824TIP3    H214479   2.561   2.055   0.157  0.6572 -0.6129 -1.3487
 4825TIP3   OH214480   5.511   5.004   1.722  0.0942  0.1037 -0.4002
 4825TIP3    H114481   5.450   5.078   1.725  0.1212  0.1361 -0.6480
 4825TIP3    H214482   5.464   4.933   1.766  0.7485  0.7516  1.4434
 4826TIP3   OH214483   3.092   5.064   3.888  0.7680 -0.4421  0.2636
 4826TIP3    H114484   3.052   5.055   3.975  2.0971 -0.5839  0.8924
 4826TIP3    H214485   3.186   5.059   3.905  1.0396 -2.4672 -1.4031
 4827TIP3   OH214486   3.579   0.065   1.529  0.1980  0.1970 -0.2287
 4827TIP3    H114487   3.658   0.101   1.570 -0.3801 -0.7303  1.7901
 4827TIP3    H214488   3.609  -0.015   1.486  1.0639  1.8122 -2.9364
 4828TIP3   OH214489   4.007   3.435   2.599  0.2778  0.1118  0.3601
 4828TIP3    H114490   4.027   3.370   2.666  2.0661  1.3472  1.0932
 4828TIP3    H214491   3.931   3.483   2.633  2.2172  1.9032  2.4880
 4829TIP3   OH214492   0.277   5.667   1.296 -0.2233 -0.1053  0.2036
 4829TIP3    H114493   0.314   5.664   1.384 -0.3507 -1.1254  0.2335
 4829TIP3    H214494   0.196   5.717   1.306 -1.1834 -1.7232  1.0589
 4830TIP3   OH214495   5.720   2.409   0.476 -0.0621 -0.1366  0.0519
 4830TIP3    H114496   5.658   2.377   0.411  0.0074  0.7998 -0.4855
 4830TIP3    H214497   5.789   2.451   0.425  0.2664  0.1426  0.7141
 4831TIP3   OH214498   2.487   2.164   4.683  0.4424  0.1562  0.5976
 4831TIP3    H114499   2.537   2.225   4.736 -0.3531  1.4025 -0.0520
 4831TIP3    H214500   2.539   2.084   4.683  1.5830  0.8786  1.3288
 4832TIP3   OH214501   4.920   5.572   1.876 -0.0635 -0.5492 -0.0350
 4832TIP3    H114502   4.877   5.618   1.948  3.0133  0.5972  1.2313
 4832TIP3    H214503   4.967   5.640   1.829 -0.0200 -1.6562 -1.6813
 4833TIP3   OH214504   3.343   0.563   2.944  0.1308  0.6827  0.0457
 4833TIP3    H114505   3.400   0.527   3.012 -1.6935  0.9852  1.8413
 4833TIP3    H214506   3.269   0.502   2.941 -1.2322  2.2642  0.4873
 4834TIP3   OH214507   2.800   4.094   4.952 -0.7351 -0.4571 -0.3733
 4834TIP3    H114508   2.848   4.176   4.947 -1.8352  0.4156  1.9320
 4834TIP3    H214509   2.754   4.088   4.868 -0.1923  0.9729 -0.8054
 4835TIP3   OH214510   0.830   3.079   4.294  0.4236  0.9883 -0.4216
 4835TIP3    H114511   0.752   3.118   4.254 -0.0979  0.8709  0.4590
 4835TIP3    H214512   0.827   3.108   4.385  0.8936  0.1959 -0.1448
 4836TIP3   OH214513   5.347   3.436   5.003 -0.0165  0.3589  0.4990
 4836TIP3    H114514   5.282   3.367   4.991 -0.5836  0.9554  0.0457
 4836TIP3    H214515   5.343   3.456   5.097 -2.2441  2.0094  0.1500
 4837TIP3   OH214516   5.414   5.576   2.162  0.1454  0.0426  0.0855
 4837TIP3    H114517   5.392   5.483   2.167  1.2118 -0.2413 -0.2485
 4837TIP3    H214518   5.468   5.591   2.240 -1.4047  0.7926  1.0518
 4838TIP3   OH214519   5.490   4.727   4.173 -0.7241  0.5062 -0.2528
 4838TIP3    H114520   5.424   4.659   4.185  1.6193 -2.0284 -0.9465
 4838TIP3    H214521   5.477   4.786   4.247 -2.9093 -0.5850  0.3160
 4839TIP3   OH214522   5.649   1.685   1.538  0.3899 -0.0985 -0.2666
 4839TIP3    H114523   5.718   1.748   1.561  1.5652 -1.9113  1.4153
 4839TIP3    H214524   5.665   1.665   1.446  2.1165 -0.4541  0.0819
 4840TIP3   OH214525   4.068   5.592   4.606 -0.1801 -0.3975  0.2019
 4840TIP3    H114526   4.134   5.548   4.552  0.0005 -0.7385  0.6945
 4840TIP3    H214527   3.988   5.588   4.554 -0.0017 -0.7108 -0.0530
 4841TIP3   OH214528   5.160   4.220   3.376  0.3687 -0.3833 -0.1014
 4841TIP3    H114529   5.161   4.134   3.334  0.3985  0.9326 -3.0413
 4841TIP3    H214530   5.226   4.213   3.445 -0.4444 -3.0176  0.5436
 4842TIP3   OH214531   5.432   2.952   4.899  0.6690 -0.0778 -0.1884
 4842TIP3    H114532   5.337   2.942   4.902  0.7954 -1.9207 -0.8580
 4842TIP3    H214533   5.465   2.882   4.955  1.6424 -0.0975 -0.7571
 4843TIP3   OH214534   1.654   1.010   3.997 -0.4702  0.1400  0.3770
 4843TIP3    H114535   1.716   0.957   4.047  0.1653  0.5681  0.0495
 4843TIP3    H214536   1.704   1.086   3.969 -0.5487 -0.5012 -1.6669
 4844TIP3   OH214537   2.318   0.516   2.029 -0.1657  0.0573 -0.0685
 4844TIP3    H114538   2.398   0.559   1.999  1.4488 -1.5607  1.6513
 4844TIP3    H214539   2.247   0.570   1.994  1.6569  1.7389 -1.3837
 4845TIP3   OH214540   2.837   5.350   2.032  0.8917 -0.0866 -0.4060
 4845TIP3    H114541   2.891   5.413   1.984 -0.2743  0.6246 -0.8144
 4845TIP3    H214542   2.761   5.335   1.976  0.3360 -0.5625  0.4557
 4846TIP3   OH214543   5.955   5.028   1.585  0.3191  0.0790  0.3235
 4846TIP3    H114544   5.869   4.991   1.563 -0.0032  1.5759 -1.2649
 4846TIP3    H214545   5.992   4.968   1.649 -1.1211 -1.6450 -0.3573
 4847TIP3   OH214546   5.058   0.959   4.816 -0.8176  0.1951  0.4206
 4847TIP3    H114547   4.981   1.005   4.850 -0.4184  0.4959  0.9388
 4847TIP3    H214548   5.131   1.016   4.839 -0.5359  0.4611 -1.0627
 4848TIP3   OH214549   1.899   5.774   1.445 -0.0854  0.0300 -0.0450
 4848TIP3    H114550   1.883   5.683   1.471 -0.6784 -0.5750 -2.2733
 4848TIP3    H214551   1.875   5.826   1.522 -1.5990 -1.5856  0.6371
 4849TIP3   OH214552   5.216   4.958   2.025  0.5651  0.0693 -0.0520
 4849TIP3    H114553   5.136   5.001   2.055  0.2878 -0.4042 -0.1046
 4849TIP3    H214554   5.191   4.912   1.945  0.3704 -1.7163  0.9750
 4850TIP3   OH214555   3.011   4.090   3.571  0.0921 -0.2245  0.1889
 4850TIP3    H114556   3.074   4.134   3.629 -1.2455 -0.0431  1.5755
 4850TIP3    H214557   2.947   4.157   3.549  0.2718 -0.4448 -1.0835
 4851TIP3   OH214558   2.308   0.987   0.849  0.0379 -0.2484 -0.3865
 4851TIP3    H114559   2.357   1.061   0.887 -1.0408  0.0953  0.3947
 4851TIP3    H214560   2.309   0.920   0.917  0.3881 -0.6954 -0.8177
 4852TIP3   OH214561   3.350   5.191   3.439  0.4742  0.2847 -0.0437
 4852TIP3    H114562   3.403   5.138   3.499  0.4291  0.5145  0.2024
 4852TIP3    H214563   3.273   5.216   3.490  0.0332 -0.1988 -0.4555
 4853TIP3   OH214564   4.763   4.304   2.483  0.3569  0.0482 -0.4446
 4853TIP3    H114565   4.719   4.369   2.537  0.9720  0.3390 -0.2895
 4853TIP3    H214566   4.817   4.355   2.422  2.3895 -0.2971  0.9622
 4854TIP3   OH214567   4.163   1.902   3.503 -0.6257  0.9554 -0.2655
 4854TIP3    H114568   4.226   1.940   3.564 -0.2201 -0.4221  0.1989
 4854TIP3    H214569   4.200   1.818   3.479 -2.7800 -0.4200  0.8945
 4855TIP3   OH214570   2.861   3.076   3.492 -0.0516 -0.0238  0.3565
 4855TIP3    H114571   2.888   2.985   3.483 -0.5544 -0.1710  0.3007
 4855TIP3    H214572   2.767   3.071   3.509 -0.0124  0.4688  0.7179
 4856TIP3   OH214573   5.355   1.526   4.163  0.1917  0.3059  0.6966
 4856TIP3    H114574   5.274   1.476   4.165 -0.5438  1.4224 -0.1856
 4856TIP3    H214575   5.395   1.504   4.079  0.5707  0.1239  0.9229
 4857TIP3   OH214576   5.061   4.870   0.092  0.1102 -0.5452  0.3220
 4857TIP3    H114577   5.100   4.802   0.147  0.6622 -0.3848  0.1372
 4857TIP3    H214578   5.026   4.933   0.154 -0.8490 -1.2329  0.4999
 4858TIP3   OH214579   5.516   3.621   0.171 -0.1531  0.0157 -0.1906
 4858TIP3    H114580   5.486   3.596   0.258  0.1647  2.3790  0.6616
 4858TIP3    H214581   5.609   3.596   0.170 -0.4179 -1.0195 -0.2959
 4859TIP3   OH214582   4.557   3.767   1.442  0.2350  0.1312  0.2232
 4859TIP3    H114583   4.526   3.676   1.442 -0.5366  0.3810  0.7204
 4859TIP3    H214584   4.652   3.760   1.428 -0.1919 -0.5726 -3.4506
 4860TIP3   OH214585   4.840   2.666   3.259  0.3428 -0.6154  0.1405
 4860TIP3    H114586   4.845   2.583   3.212  1.6111 -0.0713 -0.7471
 4860TIP3    H214587   4.850   2.733   3.190  0.1926  0.2507  0.9381
 4861TIP3   OH214588   2.776   5.741   3.790 -0.2277 -0.3852  0.1615
 4861TIP3    H114589   2.709   5.806   3.814 -0.0145  0.0708 -0.4243
 4861TIP3    H214590   2.728   5.660   3.778 -0.3372 -0.6360  2.0769
 4862TIP3   OH214591   1.198   3.987  -0.007 -0.6284 -0.0918  0.0263
 4862TIP3    H114592   1.117   4.024  -0.042  0.3730  1.2313 -0.9655
 4862TIP3    H214593   1.178   3.970   0.085 -1.4435  2.0746  0.3028
 4863TIP3   OH214594   2.228   1.954   3.435 -0.4180 -0.0496 -0.3269
 4863TIP3    H114595   2.136   1.935   3.452 -0.4902 -0.5759 -1.2714
 4863TIP3    H214596   2.245   1.919   3.348  1.2308 -1.9561  0.6592
 4864TIP3   OH214597   0.300   0.057   1.722  0.1205 -0.0354 -0.5199
 4864TIP3    H114598   0.294   0.015   1.808 -0.4123 -0.1853 -0.6214
 4864TIP3    H214599   0.368   0.009   1.676 -1.1918 -1.5204 -1.0165
 4865TIP3   OH214600   2.082   2.958   4.825 -0.3016 -0.4662 -0.4415
 4865TIP3    H114601   2.141   2.938   4.753 -1.2251 -0.9719 -1.0763
 4865TIP3    H214602   1.997   2.972   4.783 -0.8383 -0.6900  0.5406
 4866TIP3   OH214603   3.575   4.352   3.382  0.5207  0.6886  0.2878
 4866TIP3    H114604   3.637   4.323   3.316  0.8364 -0.7445  1.1517
 4866TIP3    H214605   3.623   4.344   3.465  0.7076  4.0252  0.6360
 4867TIP3   OH214606   5.113   4.367   4.902  0.3685  0.1419 -0.0102
 4867TIP3    H114607   5.146   4.299   4.961 -2.0957 -0.0110  1.2884
 4867TIP3    H214608   5.087   4.439   4.960  0.1221  0.9739 -1.1224
 4868TIP3   OH214609   4.546   1.238   4.610 -0.0775  0.5596  0.2007
 4868TIP3    H114610   4.618   1.233   4.546 -0.2541 -0.0580  0.0540
 4868TIP3    H214611   4.514   1.149   4.618 -1.6097  1.0077 -0.6149
 4869TIP3   OH214612   2.402   1.378   4.674  0.3885  0.5093  0.0169
 4869TIP3    H114613   2.444   1.350   4.755  2.2698  2.4271 -0.1884
 4869TIP3    H214614   2.358   1.460   4.697 -0.0051  0.4826 -0.6373
 4870TIP3   OH214615   3.873   2.066   3.969  0.3103 -0.2639 -0.0357
 4870TIP3    H114616   3.826   2.004   4.025 -1.2992  1.4545  0.5961
 4870TIP3    H214617   3.824   2.068   3.887  0.8177 -0.3987 -0.3502
 4871TIP3   OH214618   2.070   2.240   3.538  0.2466 -0.0487 -0.2893
 4871TIP3    H114619   2.000   2.175   3.551  0.5443 -0.4853 -0.8145
 4871TIP3    H214620   2.033   2.304   3.477  0.8095 -1.1155 -1.8145
 4872TIP3   OH214621   0.016   2.224   3.656 -0.2826 -0.1710 -0.0950
 4872TIP3    H114622   0.035   2.306   3.701  1.5663 -0.1281 -0.8544
 4872TIP3    H214623   0.012   2.248   3.564  3.8492 -1.3107 -0.7832
 4873TIP3   OH214624   1.099   2.733   5.130 -0.9090  0.7204 -0.4321
 4873TIP3    H114625   1.175   2.709   5.184  1.4532  0.4998 -3.5175
 4873TIP3    H214626   1.114   2.824   5.107 -0.3501  0.1391 -2.6994
 4874TIP3   OH214627   1.039   2.469   3.717  0.2112 -0.1040  0.4836
 4874TIP3    H114628   0.957   2.518   3.708  0.6032  0.3772 -0.7182
 4874TIP3    H214629   1.012   2.381   3.742 -0.7823 -0.2984 -1.1578
 4875TIP3   OH214630   4.703   3.989   5.065  0.6164 -0.1217  0.0817
 4875TIP3    H114631   4.610   3.976   5.079  0.5404  2.0585  2.3369
 4875TIP3    H214632   4.708   4.043   4.986 -0.2022  1.0583  0.7998
 4876TIP3   OH214633   2.188   5.501   2.617 -0.0796 -0.1876  0.4140
 4876TIP3    H114634   2.221   5.425   2.570 -0.2587 -0.3062  0.4773
 4876TIP3    H214635   2.093   5.493   2.611 -0.1041 -0.2056  0.7959
 4877TIP3   OH214636   1.591   3.954   2.393  0.3463 -1.0634 -0.1482
 4877TIP3    H114637   1.686   3.967   2.397  0.3073 -0.9532  0.3969
 4877TIP3    H214638   1.556   4.042   2.376  0.2082 -0.7326  1.7079
 4878TIP3   OH214639   0.215   0.732   4.822 -0.1893 -0.2407 -0.3775
 4878TIP3    H114640   0.305   0.710   4.847 -0.4996 -0.1660  0.8909
 4878TIP3    H214641   0.162   0.704   4.897 -0.9443  2.0257  0.0088
 4879TIP3   OH214642   4.765   2.263   1.400 -0.3262 -0.5477  0.5293
 4879TIP3    H114643   4.800   2.309   1.476 -0.6941 -0.0506  0.4028
 4879TIP3    H214644   4.798   2.173   1.409 -1.0752 -0.7270  1.7374
 4880TIP3   OH214645   2.764   3.619   0.046 -0.3768 -0.1646 -0.4848
 4880TIP3    H114646   2.808   3.567   0.114 -1.1260 -0.8203 -0.4907
 4880TIP3    H214647   2.687   3.654   0.090 -1.0486 -0.8742 -1.0885
 4881TIP3   OH214648   6.268   3.355   0.562  0.4740  0.4265  0.0423
 4881TIP3    H114649   6.192   3.298   0.571  1.7413 -1.2806  0.3827
 4881TIP3    H214650   6.335   3.316   0.618  1.8717  1.4078 -0.8666
 4882TIP3   OH214651   5.210   0.222   4.492  0.2912  0.2532 -0.2718
 4882TIP3    H114652   5.131   0.170   4.478 -0.3071  1.3210 -0.9564
 4882TIP3    H214653   5.187   0.282   4.563  0.6351  0.2696 -0.1737
 4883TIP3   OH214654   3.843   3.167   0.573 -0.3625  0.3741 -0.2558
 4883TIP3    H114655   3.757   3.197   0.601 -1.3342 -0.0931 -2.5305
 4883TIP3    H214656   3.828   3.081   0.533  1.5389 -0.7784  1.2773
 4884TIP3   OH214657   3.786   1.638   4.439  0.7232 -0.3900 -0.0680
 4884TIP3    H114658   3.868   1.594   4.462  0.8246 -0.0551  0.2029
 4884TIP3    H214659   3.725   1.566   4.419  0.6349 -0.6865  1.2244
 4885TIP3   OH214660   1.219   0.960   5.188 -0.2702  0.1215 -0.2158
 4885TIP3    H114661   1.149   0.999   5.240 -0.5855 -2.2575  1.2666
 4885TIP3    H214662   1.175   0.903   5.126  0.2356  1.2589 -1.6943
 4886TIP3   OH214663   2.263   3.949   0.884 -0.6537  0.3420 -0.0337
 4886TIP3    H114664   2.340   3.961   0.940  0.4286  1.2703 -1.6198
 4886TIP3    H214665   2.189   3.951   0.944  0.4615  1.1025  1.3806
 4887TIP3   OH214666   1.541   4.699   1.503 -0.1911 -0.1340  0.3159
 4887TIP3    H114667   1.514   4.661   1.587 -0.3149  0.6640  0.6528
 4887TIP3    H214668   1.507   4.788   1.506  0.8194  0.2769 -0.0801
 4888TIP3   OH214669   0.044   5.230   0.756  0.5704  0.4406 -0.1061
 4888TIP3    H114670   0.111   5.164   0.738 -0.3718 -0.3016 -0.9699
 4888TIP3    H214671  -0.033   5.201   0.708 -0.6803  0.8038  1.5696
 4889TIP3   OH214672   6.164   5.057   1.407  0.1585  0.2440  0.7669
 4889TIP3    H114673   6.158   5.018   1.320  0.5845  5.7666 -2.2163
 4889TIP3    H214674   6.075   5.052   1.441 -0.0767 -1.8453  0.0058
 4890TIP3   OH214675   4.488   2.658   4.134  0.2001  0.6814  0.0739
 4890TIP3    H114676   4.552   2.616   4.191  0.0645  0.2606 -0.0779
 4890TIP3    H214677   4.505   2.752   4.142  0.0317  0.6400  0.9835
 4891TIP3   OH214678   2.264   5.017   3.133 -0.3327  0.8061  0.1855
 4891TIP3    H114679   2.200   5.057   3.191  0.0543 -2.2491  2.9868
 4891TIP3    H214680   2.224   4.934   3.107  2.2832 -1.1678  1.9796
 4892TIP3   OH214681   5.738   2.260   3.245 -0.0818  0.4376 -0.2211
 4892TIP3    H114682   5.699   2.244   3.160  0.7189  0.4350 -0.6029
 4892TIP3    H214683   5.822   2.301   3.225  0.3487 -0.0368  0.5438
 4893TIP3   OH214684   2.451   4.954   4.049 -0.1458 -0.5177  0.5985
 4893TIP3    H114685   2.401   4.974   4.128 -1.4735 -0.1363 -0.2976
 4893TIP3    H214686   2.525   5.014   4.050 -0.6942  0.1574  1.0573
 4894TIP3   OH214687   1.533   5.885   3.228 -0.1272 -0.9273  0.0146
 4894TIP3    H114688   1.580   5.832   3.164  0.0954 -2.2043  1.2048
 4894TIP3    H214689   1.484   5.822   3.281 -0.5938  0.1313  0.8804
 4895TIP3   OH214690   3.223   5.941   4.526 -0.6828 -0.4013 -0.1008
 4895TIP3    H114691   3.221   6.037   4.536 -2.4687 -0.1087 -2.3681
 4895TIP3    H214692   3.315   5.918   4.537  0.0191  1.7590 -0.8241
 4896TIP3   OH214693   3.204   0.745   5.123 -0.7885 -0.0417  0.0467
 4896TIP3    H114694   3.162   0.764   5.039 -0.3637  1.7052  0.1899
 4896TIP3    H214695   3.222   0.832   5.161  0.8880 -0.7604  1.0103
 4897TIP3   OH214696   4.003   4.216   1.123  0.8708  0.1618  0.3512
 4897TIP3    H114697   3.920   4.169   1.131  0.0603  1.2768 -1.0302
 4897TIP3    H214698   4.069   4.154   1.154 -0.2626 -1.5005 -0.4229
 4898TIP3   OH214699   4.607   4.709   2.420 -0.1009  0.4602  0.0534
 4898TIP3    H114700   4.702   4.721   2.415  0.0118 -0.4423 -0.0242
 4898TIP3    H214701   4.571   4.793   2.390  0.6719  1.4628  1.7611
 4899TIP3   OH214702   2.533   0.674   4.495 -0.1298  0.5182  0.1985
 4899TIP3    H114703   2.549   0.711   4.581 -0.4639  0.7250  0.1747
 4899TIP3    H214704   2.475   0.599   4.511  0.6385 -0.0811  0.2598
 4900TIP3   OH214705   5.143   3.040   1.586 -0.1002 -0.0381 -0.1601
 4900TIP3    H114706   5.182   2.953   1.580 -1.1007 -0.4025 -2.4909
 4900TIP3    H214707   5.149   3.076   1.497 -0.6849  1.8489  0.5006
 4901TIP3   OH214708   1.967   4.210   1.712  0.1064  0.2173 -0.3905
 4901TIP3    H114709   1.908   4.153   1.762  0.3741  0.7663  0.5840
 4901TIP3    H214710   1.924   4.295   1.714 -0.6807 -0.0812 -2.5047
 4902TIP3   OH214711   2.797   5.459   4.500 -0.2858  0.4223  0.2371
 4902TIP3    H114712   2.818   5.449   4.407 -0.6267  0.5666  0.1427
 4902TIP3    H214713   2.882   5.471   4.543 -0.1189  0.2397 -0.0398
 4903TIP3   OH214714   4.827   5.143   1.056 -0.4465  0.0193 -0.2704
 4903TIP3    H114715   4.815   5.053   1.084  0.8513  0.5067  2.1212
 4903TIP3    H214716   4.878   5.137   0.975  1.0300 -1.3754  0.7096
 4904TIP3   OH214717   3.956   3.888   0.347 -0.0941 -0.1347  0.0150
 4904TIP3    H114718   4.026   3.882   0.412 -0.3285  0.9467  0.3846
 4904TIP3    H214719   3.912   3.970   0.366 -1.3832 -0.7211 -0.3091
 4905TIP3   OH214720   3.517   5.584   3.697  0.4308  0.1986  0.4712
 4905TIP3    H114721   3.552   5.624   3.776 -0.2823 -1.0431  1.4601
 4905TIP3    H214722   3.451   5.522   3.729  0.2285 -0.4315 -1.0859
 4906TIP3   OH214723   5.000   0.138   4.915 -0.1007 -0.6405 -0.3281
 4906TIP3    H114724   5.025   0.054   4.876 -0.5969 -1.3625  0.8554
 4906TIP3    H214725   4.905   0.143   4.902 -0.2610 -0.8545  0.6820
 4907TIP3   OH214726   0.606   2.569   0.131 -0.2257  0.4808 -0.0395
 4907TIP3    H114727   0.544   2.508   0.171 -1.5200  0.2815 -2.1550
 4907TIP3    H214728   0.556   2.649   0.117  0.0167  0.4159 -1.5094
 4908TIP3   OH214729   4.597   2.426   4.565  0.3605 -0.6543 -0.1536
 4908TIP3    H114730   4.534   2.377   4.512 -3.2854  1.9381  1.3668
 4908TIP3    H214731   4.589   2.389   4.653 -0.9989  1.2134  0.5818
 4909TIP3   OH214732   2.179   2.705   3.839 -0.1590  0.1222  0.2217
 4909TIP3    H114733   2.198   2.615   3.814 -1.0367  0.4012 -1.5866
 4909TIP3    H214734   2.087   2.703   3.867 -0.4283  0.5812 -0.5916
 4910TIP3   OH214735   3.001   2.629   2.774 -0.2512 -0.2068 -0.2924
 4910TIP3    H114736   3.050   2.710   2.787  0.0645 -0.0985 -1.9075
 4910TIP3    H214737   2.976   2.631   2.682 -0.9408 -1.5664 -0.1617
 4911TIP3   OH214738   2.164   0.271   4.330  0.1125  0.3546  0.4546
 4911TIP3    H114739   2.080   0.293   4.291  0.5528  1.9168  0.3212
 4911TIP3    H214740   2.143   0.246   4.420 -0.6609 -0.9972 -0.0780
 4912TIP3   OH214741   0.630   2.880   0.693 -0.1002 -0.1050  0.3508
 4912TIP3    H114742   0.672   2.836   0.768  1.3374 -0.9301 -0.8749
 4912TIP3    H214743   0.700   2.932   0.654 -0.4869 -0.6161 -1.0904
 4913TIP3   OH214744   0.279   0.232   3.722  0.3028 -0.7824  0.4389
 4913TIP3    H114745   0.255   0.153   3.771  0.3870 -1.3495 -0.4247
 4913TIP3    H214746   0.250   0.214   3.633  0.0370  0.2997  0.3011
 4914TIP3   OH214747   3.395   0.609   4.717  0.0544 -1.0993  0.8506
 4914TIP3    H114748   3.319   0.582   4.767  0.7301 -1.5696  1.6605
 4914TIP3    H214749   3.462   0.629   4.784  0.1464  0.8820  0.2326
 4915TIP3   OH214750   5.958   5.320   1.773 -0.4398 -0.2357 -0.0959
 4915TIP3    H114751   5.980   5.244   1.719 -0.6946 -1.2570  1.1783
 4915TIP3    H214752   5.880   5.292   1.822 -0.6649  0.9319  0.2441
 4916TIP3   OH214753   0.661   5.095   2.521  0.3090 -0.2643 -0.3006
 4916TIP3    H114754   0.641   5.098   2.614 -0.3984 -2.1731 -0.3569
 4916TIP3    H214755   0.602   5.161   2.482  0.5572  0.4926  0.5615
 4917TIP3   OH214756   2.158   2.002   0.515  0.1179 -0.2848 -0.4162
 4917TIP3    H114757   2.169   1.954   0.597  0.0895 -0.3692 -0.4627
 4917TIP3    H214758   2.106   1.944   0.459  2.7766 -1.6105 -1.6844
 4918TIP3   OH214759   5.379   3.042   2.643  1.0777  0.0220  0.2780
 4918TIP3    H114760   5.362   3.040   2.549 -2.8567  0.9500  0.8052
 4918TIP3    H214761   5.447   3.108   2.654  2.3198 -0.7850 -1.9294
 4919TIP3   OH214762   0.587   4.992   0.544  0.8377 -0.3025  0.3607
 4919TIP3    H114763   0.596   5.078   0.586 -0.7829 -0.3755  0.9204
 4919TIP3    H214764   0.673   4.975   0.506  1.9183  0.4604  2.3324
 4920TIP3   OH214765   2.823   5.808   4.553  0.5432  0.1372  0.4563
 4920TIP3    H114766   2.734   5.821   4.521  0.5003 -2.6410 -0.8994
 4920TIP3    H214767   2.816   5.735   4.614  1.8092  0.3799  0.9170
 4921TIP3   OH214768   4.481   4.843   1.182  0.0574  0.0560  0.3892
 4921TIP3    H114769   4.524   4.764   1.148  0.2173  0.4513 -0.3521
 4921TIP3    H214770   4.392   4.815   1.202 -0.2604 -0.0341 -1.0512
 4922TIP3   OH214771   5.526   1.699   1.095  0.7844  0.5174  0.1513
 4922TIP3    H114772   5.618   1.716   1.113  1.2878 -0.2507 -1.4710
 4922TIP3    H214773   5.525   1.669   1.004 -0.8852 -1.0284  0.6289
 4923TIP3   OH214774   0.459   5.167   0.280  0.2306 -0.2118  0.2253
 4923TIP3    H114775   0.433   5.167   0.188  0.2582  0.9025  0.2002
 4923TIP3    H214776   0.473   5.075   0.301 -0.2176 -0.5192 -0.7571
 4924TIP3   OH214777   6.328   2.300   1.863  0.2138  0.1746 -0.2346
 4924TIP3    H114778   6.269   2.231   1.896  0.0955  0.1340 -0.5312
 4924TIP3    H214779   6.350   2.272   1.774  1.8651 -0.5886  0.3672
 4925TIP3   OH214780   5.081   4.252   0.703 -0.0022 -0.4914  0.3708
 4925TIP3    H114781   5.024   4.244   0.627 -0.4898 -2.8431  0.8970
 4925TIP3    H214782   5.169   4.257   0.667 -0.3687  2.0254 -0.4043
 4926TIP3   OH214783   2.500   2.047   4.203 -0.7068 -0.1868 -0.3185
 4926TIP3    H114784   2.586   2.037   4.162 -0.7643  0.4375 -0.6042
 4926TIP3    H214785   2.457   2.117   4.153 -1.7375 -1.0992 -0.7697
 4927TIP3   OH214786   5.726   2.689   3.566 -0.6313 -0.2355 -0.1323
 4927TIP3    H114787   5.765   2.769   3.601 -2.5425  0.6130  0.2285
 4927TIP3    H214788   5.728   2.701   3.471  1.7289 -1.1341 -0.2598
 4928TIP3   OH214789   2.736   0.901   3.231 -0.2003 -0.1413  0.1155
 4928TIP3    H114790   2.745   0.932   3.141 -0.1613  0.5330  0.3399
 4928TIP3    H214791   2.781   0.817   3.232 -1.1809 -0.6943 -0.7613
 4929TIP3   OH214792   4.553   4.300   1.743 -0.4648  0.0054  0.0827
 4929TIP3    H114793   4.459   4.294   1.731 -0.5150  0.9375 -0.0172
 4929TIP3    H214794   4.590   4.292   1.655 -0.5701  1.6861 -0.1442
 4930TIP3   OH214795   1.644   2.827   4.619  0.2731 -0.1571  0.2062
 4930TIP3    H114796   1.583   2.896   4.646  1.0588  0.4307  0.5217
 4930TIP3    H214797   1.647   2.767   4.694  0.4722  0.0976  0.4078
 4931TIP3   OH214798   4.702   1.802   2.318  0.2674  0.0089  0.6721
 4931TIP3    H114799   4.732   1.729   2.264 -1.5878  0.1000 -0.5749
 4931TIP3    H214800   4.621   1.770   2.358 -1.0340  1.6103 -0.5457
 4932TIP3   OH214801   4.686   2.292   1.862  0.3618  0.3663  0.5083
 4932TIP3    H114802   4.646   2.326   1.782  0.0680 -2.7654 -0.8101
 4932TIP3    H214803   4.780   2.308   1.851  0.2122  0.9876  0.0980
 4933TIP3   OH214804   1.768   2.802   1.917 -0.0013  0.0542  0.2040
 4933TIP3    H114805   1.810   2.865   1.975  0.0182  1.1512 -0.9451
 4933TIP3    H214806   1.675   2.827   1.917  0.0704  0.3583 -0.5663
 4934TIP3   OH214807   3.481   1.229   4.497  0.4423  0.0908  0.1192
 4934TIP3    H114808   3.543   1.157   4.510  0.1401 -0.0762  0.6575
 4934TIP3    H214809   3.397   1.193   4.524  0.5136  1.0946  1.8163
 4935TIP3   OH214810   0.226   4.064   0.536 -0.1485 -0.0723 -1.1437
 4935TIP3    H114811   0.314   4.027   0.547  0.5781  2.1007  1.4133
 4935TIP3    H214812   0.192   4.072   0.625 -1.5282  2.3022 -1.8064
 4936TIP3   OH214813   0.343   0.620   1.533 -0.4538 -0.0625  0.4008
 4936TIP3    H114814   0.429   0.662   1.543  0.1586 -1.1247 -0.1664
 4936TIP3    H214815   0.282   0.693   1.519  0.4467  0.6808  0.2405
 4937TIP3   OH214816   1.256   0.417   0.428 -0.3550 -0.2337  0.1730
 4937TIP3    H114817   1.330   0.468   0.459  1.1108 -0.2871 -2.9245
 4937TIP3    H214818   1.181   0.476   0.437  1.2024  2.5360 -2.8882
 4938TIP3   OH214819   0.803   1.597   4.144  0.2922 -0.3730  0.3703
 4938TIP3    H114820   0.807   1.636   4.231  1.2772  1.6829 -0.4982
 4938TIP3    H214821   0.882   1.543   4.138  0.4896 -0.1142  0.5952
 4939TIP3   OH214822   1.043   4.388   4.377 -0.3466  0.6334  0.1037
 4939TIP3    H114823   0.969   4.333   4.403 -1.6556  2.8879  1.4884
 4939TIP3    H214824   1.019   4.421   4.291  0.5823 -1.0783 -0.8704
 4940TIP3   OH214825   0.829   2.299   4.466  0.8764 -0.8961  0.2356
 4940TIP3    H114826   0.734   2.297   4.455  0.7202  0.1348  1.2604
 4940TIP3    H214827   0.850   2.391   4.483  2.1072 -1.0489 -0.3128
 4941TIP3   OH214828   2.485   3.956   1.099 -0.3202  0.1766  0.3990
 4941TIP3    H114829   2.441   3.890   1.153  0.5249 -0.1879  0.6553
 4941TIP3    H214830   2.543   3.906   1.042 -1.6713  0.5006 -1.3516
 4942TIP3   OH214831   4.796   5.829   3.843 -0.6830 -0.0455 -0.6619
 4942TIP3    H114832   4.821   5.922   3.843 -1.7015  0.3098  1.5648
 4942TIP3    H214833   4.724   5.824   3.780  0.3651  0.3362 -1.9272
 4943TIP3   OH214834   3.034   4.536   1.891 -0.4564  0.2414 -0.2564
 4943TIP3    H114835   3.063   4.541   1.799 -0.2520  0.2153 -0.1934
 4943TIP3    H214836   2.987   4.453   1.896  0.1323 -0.0949 -0.1697
 4944TIP3   OH214837   3.166   3.929   3.055 -0.5110  0.1873  0.1370
 4944TIP3    H114838   3.100   3.862   3.045 -0.4260  0.2957 -1.4072
 4944TIP3    H214839   3.249   3.885   3.035 -0.2404  0.3276  0.9108
 4945TIP3   OH214840   4.873   3.845   1.422 -0.6167 -0.1112 -0.0240
 4945TIP3    H114841   4.893   3.765   1.470 -1.4274  0.0652  0.6340
 4945TIP3    H214842   4.942   3.852   1.356 -0.3812 -1.1916  0.1005
 4946TIP3   OH214843   3.757   4.813   5.006  0.6846  0.5238  0.5005
 4946TIP3    H114844   3.819   4.779   5.070 -0.0755 -0.7356  0.5894
 4946TIP3    H214845   3.689   4.854   5.060 -0.0806 -0.7513  0.5396
 4947TIP3   OH214846   1.734   3.793   3.610 -0.2301  0.4186 -0.5115
 4947TIP3    H114847   1.826   3.778   3.587  0.3117  0.8718  1.1676
 4947TIP3    H214848   1.685   3.731   3.556  1.2050 -0.9771 -0.2842
 4948TIP3   OH214849   3.367   4.219   0.360  0.0926  0.0542 -0.2110
 4948TIP3    H114850   3.366   4.195   0.452 -0.8683  0.0049 -0.2137
 4948TIP3    H214851   3.350   4.313   0.358 -3.2875 -0.4152 -0.3800
 4949TIP3   OH214852   2.584   5.613   0.883  0.3237 -0.1204 -0.4792
 4949TIP3    H114853   2.550   5.589   0.969  0.3803  0.1529 -0.3793
 4949TIP3    H214854   2.507   5.640   0.833  0.6475  3.4321  0.6896
 4950TIP3   OH214855   2.489   1.443   3.398  0.1847  0.7597 -0.2945
 4950TIP3    H114856   2.414   1.419   3.451  0.6395  2.1647  1.0681
 4950TIP3    H214857   2.458   1.517   3.345  0.1973  0.3899 -0.8288
 4951TIP3   OH214858   3.291   5.480   4.741 -0.4054 -0.4785 -0.4354
 4951TIP3    H114859   3.309   5.566   4.702  0.6682  0.6894  2.3950
 4951TIP3    H214860   3.372   5.431   4.730 -0.1298 -0.1782  0.2382
 4952TIP3   OH214861   5.895   3.743   1.989 -0.6513  0.0113  0.3968
 4952TIP3    H114862   5.973   3.702   1.950  0.3863  2.8516 -0.7694
 4952TIP3    H214863   5.924   3.775   2.074 -1.3787 -1.3495  1.1861
 4953TIP3   OH214864   5.111   5.359   0.565  0.3459 -0.1741 -0.1844
 4953TIP3    H114865   5.115   5.338   0.472 -0.1803 -1.4159  0.0580
 4953TIP3    H214866   5.202   5.352   0.595  0.4850  0.0113 -0.5585
 4954TIP3   OH214867   3.172   1.419   3.822 -0.5242 -0.0216 -0.1920
 4954TIP3    H114868   3.110   1.492   3.827 -0.7851 -0.2960  0.6792
 4954TIP3    H214869   3.201   1.404   3.912  0.3528 -0.2979 -0.5042
 4955TIP3   OH214870   5.158   1.637   2.078 -0.6552  0.2107 -0.1930
 4955TIP3    H114871   5.232   1.583   2.050 -1.1419 -0.0189 -1.0691
 4955TIP3    H214872   5.171   1.647   2.172  1.4510  1.6584 -0.5641
 4956TIP3   OH214873   6.177   1.348   3.428 -0.3744  0.1767 -0.0779
 4956TIP3    H114874   6.241   1.395   3.376 -1.4291  1.3789 -0.3390
 4956TIP3    H214875   6.176   1.260   3.391  3.7349 -1.0865  2.2729
 4957TIP3   OH214876   1.749   0.726   1.730 -0.0456  0.3469 -0.1715
 4957TIP3    H114877   1.776   0.661   1.795 -0.6215  0.4263  0.1541
 4957TIP3    H214878   1.656   0.708   1.715  0.0814  0.3152 -0.9954
 4958TIP3   OH214879   4.462   0.546   1.667 -0.1045 -0.1623 -0.2408
 4958TIP3    H114880   4.390   0.585   1.618  0.7481  1.2447 -0.4647
 4958TIP3    H214881   4.464   0.455   1.641 -0.9532  0.0978 -1.2611
 4959TIP3   OH214882   4.760   3.772   2.480 -0.3932  0.0987 -0.1715
 4959TIP3    H114883   4.856   3.766   2.484 -0.1173  3.0923 -0.1708
 4959TIP3    H214884   4.732   3.752   2.569 -0.1042 -3.3241 -0.6878
 4960TIP3   OH214885   4.051   5.420   1.146 -0.1164  0.1686  0.1134
 4960TIP3    H114886   4.125   5.394   1.090  0.1788  0.3192  0.4280
 4960TIP3    H214887   4.085   5.493   1.198 -0.0891 -0.5488  1.1341
 4961TIP3   OH214888   4.295   0.544   3.443 -0.2754  0.2543 -0.2484
 4961TIP3    H114889   4.243   0.559   3.363  0.0104  0.4129 -0.4061
 4961TIP3    H214890   4.230   0.531   3.512 -0.6234 -2.9531 -1.0137
 4962TIP3   OH214891   1.723   5.652   5.040  0.5324 -0.1302  0.5072
 4962TIP3    H114892   1.760   5.738   5.021  1.2327 -0.4612  0.3509
 4962TIP3    H214893   1.780   5.590   4.994 -0.9277 -0.5917 -0.7630
 4963TIP3   OH214894   5.954   1.417   1.298 -0.3287 -0.2452 -0.4821
 4963TIP3    H114895   6.011   1.346   1.328  1.5914  1.3060 -0.2602
 4963TIP3    H214896   5.943   1.473   1.375 -1.5120 -0.0642 -0.7559
 4964TIP3   OH214897   3.647   4.757   4.444  0.5933 -0.0421  0.3800
 4964TIP3    H114898   3.708   4.697   4.488  2.0525  1.7004  0.8285
 4964TIP3    H214899   3.697   4.793   4.371 -0.5717 -0.0367 -0.4488
 4965TIP3   OH214900   1.818   2.904   0.034 -0.3094  0.4542  0.6677
 4965TIP3    H114901   1.840   2.987  -0.010 -0.7041  0.4623  0.4805
 4965TIP3    H214902   1.867   2.907   0.116 -0.1608  0.7814  0.5712
 4966TIP3   OH214903   3.417   2.069   3.839 -0.3088 -0.9940  0.7199
 4966TIP3    H114904   3.366   2.022   3.904  0.7528  2.5022  4.4494
 4966TIP3    H214905   3.500   2.021   3.835 -0.6077 -1.6011  1.4837
 4967TIP3   OH214906   5.087   5.449   2.086 -0.0951 -0.1036  0.1000
 4967TIP3    H114907   5.159   5.407   2.133 -1.0416 -0.8636  0.8934
 4967TIP3    H214908   5.051   5.513   2.148 -0.6802 -0.3714  0.0412
 4968TIP3   OH214909   1.520   1.734   5.009 -0.0873  0.1370  0.6353
 4968TIP3    H114910   1.586   1.761   4.945 -1.1127  1.6925  0.2013
 4968TIP3    H214911   1.469   1.667   4.964  1.3905 -1.3726  1.1111
 4969TIP3   OH214912   2.838   3.606   3.192  0.0044 -0.6035  0.0443
 4969TIP3    H114913   2.851   3.560   3.275 -0.1255  1.3634  1.2195
 4969TIP3    H214914   2.920   3.654   3.178 -0.2121 -0.4222 -0.6497
 4970TIP3   OH214915   4.015   2.197   5.025  0.2870 -0.8732 -0.5406
 4970TIP3    H114916   4.038   2.258   5.096  0.5727 -0.0632 -1.3143
 4970TIP3    H214917   4.091   2.138   5.019  0.2626 -0.9462 -0.1850
 4971TIP3   OH214918   1.092   5.494   4.070  0.4884  0.1230  0.3315
 4971TIP3    H114919   1.082   5.520   4.162  0.6959 -0.8752  0.6500
 4971TIP3    H214920   1.182   5.462   4.064  0.6818  0.7631 -0.3835
 4972TIP3   OH214921   1.380   0.277   4.314  0.0313  0.2563 -0.2837
 4972TIP3    H114922   1.343   0.249   4.230  0.9158  0.3300 -0.7058
 4972TIP3    H214923   1.397   0.196   4.361 -0.1089  0.2029 -0.3230
 4973TIP3   OH214924   2.694   2.751   3.630  0.7678  0.1822 -0.6193
 4973TIP3    H114925   2.657   2.712   3.709 -0.4198  1.4262 -0.5275
 4973TIP3    H214926   2.661   2.697   3.558  1.0854 -0.3878 -0.3425
 4974TIP3   OH214927   1.377   1.398   1.998 -0.2978 -0.0170 -0.0607
 4974TIP3    H114928   1.308   1.332   1.998 -1.0024  0.6769 -1.2781
 4974TIP3    H214929   1.391   1.418   2.091 -1.9003 -0.0170  0.2161
 4975TIP3   OH214930   4.625   1.701   0.081 -0.3325 -0.3803  0.1029
 4975TIP3    H114931   4.617   1.716  -0.013 -0.2768 -0.6717  0.0503
 4975TIP3    H214932   4.609   1.787   0.121 -0.8439 -0.3541 -0.1460
 4976TIP3   OH214933   5.487   4.941   1.102  0.0855 -0.0257  0.3350
 4976TIP3    H114934   5.535   5.001   1.045 -2.1501  1.2591 -0.3090
 4976TIP3    H214935   5.462   4.994   1.177 -1.4537 -0.2567  0.0213
 4977TIP3   OH214936   0.746   3.266   3.665  0.3044  0.7563  0.3013
 4977TIP3    H114937   0.749   3.233   3.575  1.1766 -1.2337  1.0126
 4977TIP3    H214938   0.653   3.270   3.686  0.1401 -0.7091 -0.0407
 4978TIP3   OH214939   6.034   4.202   2.273  0.5097 -0.5498 -0.0787
 4978TIP3    H114940   6.085   4.191   2.353 -0.9416  1.4482  1.2105
 4978TIP3    H214941   5.943   4.194   2.301 -0.0044 -2.0797 -1.9681
 4979TIP3   OH214942   2.450   1.061   0.619  0.4189 -0.0546 -0.7012
 4979TIP3    H114943   2.462   1.154   0.638 -0.2248 -0.0144 -0.4749
 4979TIP3    H214944   2.403   1.026   0.695 -1.6145 -0.0194 -1.8691
 4980TIP3   OH214945   5.840   0.386   3.546  0.1284  0.4059  0.2110
 4980TIP3    H114946   5.760   0.334   3.548  0.0266  0.4334 -1.3547
 4980TIP3    H214947   5.814   0.472   3.582 -0.3053  0.1324  0.5616
 4981TIP3   OH214948   0.293   4.509   4.066 -0.7650  0.2086 -0.7471
 4981TIP3    H114949   0.292   4.595   4.109 -0.5307 -1.1815  2.3340
 4981TIP3    H214950   0.268   4.448   4.135  1.0184 -2.4291 -2.2550
 4982TIP3   OH214951   2.347   2.746   3.040 -0.2259  0.6738  0.5636
 4982TIP3    H114952   2.304   2.729   2.956  0.0100 -0.6961  0.6962
 4982TIP3    H214953   2.300   2.821   3.077 -1.3697  0.2769 -0.0581
 4983TIP3   OH214954   0.344   5.854   0.126 -0.7129 -0.3279 -0.4925
 4983TIP3    H114955   0.287   5.880   0.053  0.2553  1.3170 -0.7005
 4983TIP3    H214956   0.356   5.760   0.115 -2.0223 -0.4097 -1.4130
 4984TIP3   OH214957   4.898   4.137   4.052  0.4099  0.1652  0.3096
 4984TIP3    H114958   4.826   4.192   4.020 -0.6423 -1.4066 -0.1737
 4984TIP3    H214959   4.882   4.129   4.146 -1.5682 -2.1469 -0.1276
 4985TIP3   OH214960   2.003   5.069   1.330  0.2076 -0.1733 -0.2832
 4985TIP3    H114961   2.070   5.009   1.298  0.3651 -0.9609  1.4608
 4985TIP3    H214962   2.052   5.147   1.356  0.4520 -0.6811  0.8262
 4986TIP3   OH214963   3.727   4.093   1.083 -0.4961  0.7653 -0.3275
 4986TIP3    H114964   3.664   4.158   1.114 -2.2533 -0.5952 -0.9167
 4986TIP3    H214965   3.730   4.106   0.988 -0.8579  0.0016 -0.4489
 4987TIP3   OH214966   4.458   1.416   2.658  0.8549 -0.2845  0.1679
 4987TIP3    H114967   4.376   1.373   2.685  0.5113  0.3369  0.1234
 4987TIP3    H214968   4.438   1.509   2.658  1.4796 -0.1422 -0.1490
 4988TIP3   OH214969   1.972   5.411   2.397  0.4729  0.4649 -0.3730
 4988TIP3    H114970   1.950   5.428   2.305 -2.0672 -0.6803 -0.0694
 4988TIP3    H214971   1.901   5.451   2.447  0.5942 -0.8568  0.9452
 4989TIP3   OH214972   1.577   4.040   0.893  0.5354 -0.0287  0.1120
 4989TIP3    H114973   1.619   4.121   0.866  1.0062  0.4954  2.2637
 4989TIP3    H214974   1.564   4.049   0.987 -1.3369 -1.5869  0.0822
 4990TIP3   OH214975   5.916   0.838   1.336 -0.0260 -0.7665  0.2674
 4990TIP3    H114976   5.950   0.878   1.417  0.8973  2.0420 -1.3816
 4990TIP3    H214977   5.924   0.906   1.270 -1.0706 -2.8456 -2.1820
 4991TIP3   OH214978   1.850   1.192   1.755 -0.0693  0.2151 -0.3525
 4991TIP3    H114979   1.813   1.213   1.840 -0.4088  0.0100 -0.4468
 4991TIP3    H214980   1.815   1.259   1.696  1.6449  1.4995  0.0069
 4992TIP3   OH214981   0.621   4.867   2.071 -0.0928 -0.0009  0.4386
 4992TIP3    H114982   0.578   4.951   2.055  1.2845  0.8053  0.7290
 4992TIP3    H214983   0.653   4.875   2.161  1.3874 -0.2055 -0.0522
 4993TIP3   OH214984   1.746   4.106   4.103 -0.2702  0.8579  0.3010
 4993TIP3    H114985   1.723   4.055   4.026 -0.9480 -1.8029  2.1493
 4993TIP3    H214986   1.840   4.093   4.114 -0.1402  1.3804 -0.1260
 4994TIP3   OH214987   2.713   3.178   2.947 -0.1300  0.4088  0.1416
 4994TIP3    H114988   2.742   3.092   2.915  1.4743  1.4030 -1.2673
 4994TIP3    H214989   2.765   3.193   3.025 -1.5879 -0.5506  1.3531
 4995TIP3   OH214990   5.826   3.340  -0.001 -0.5421 -0.6847  0.3669
 4995TIP3    H114991   5.743   3.295   0.015 -0.8081  0.4755  2.6429
 4995TIP3    H214992   5.804   3.433   0.008  0.5177 -0.1827 -1.6002
 4996TIP3   OH214993   5.324   4.478   3.428  0.2593  0.7611  0.0217
 4996TIP3    H114994   5.328   4.391   3.469  0.3947 -0.0238 -1.5755
 4996TIP3    H214995   5.362   4.537   3.494  2.4602 -0.7455  0.2361
 4997TIP3   OH214996   4.506   5.204   2.252 -0.0978  0.4391  0.7373
 4997TIP3    H114997   4.560   5.256   2.312  2.6104  0.3114 -1.3910
 4997TIP3    H214998   4.495   5.260   2.175  1.5723 -1.4649 -0.9800
 4998TIP3   OH214999   4.519   2.047   3.961 -0.0783 -0.0626  0.1761
 4998TIP3    H115000   4.497   1.958   3.987 -0.5800 -0.0603 -0.2343
 4998TIP3    H215001   4.513   2.098   4.042  0.9860 -0.5355  0.5692
 4999TIP3   OH215002   6.351   5.095   1.590 -0.3456 -0.4854  0.2116
 4999TIP3    H115003   6.280   5.089   1.526  1.8959 -0.7849 -2.4578
 4999TIP3    H215004   6.337   5.179   1.633 -1.7652 -0.0918 -0.9257
 5000TIP3   OH215005   2.673   1.640   4.404 -0.8609 -0.0417  0.1571
 5000TIP3    H115006   2.684   1.634   4.499 -0.7112  1.6726  0.2805
 5000TIP3    H215007   2.744   1.588   4.368 -1.9219 -2.1669  0.9416
 5001TIP3   OH215008   4.492   0.373   2.936 -0.4200  0.3979 -0.2115
 5001TIP3    H115009   4.544   0.333   2.866 -0.5063  1.2830 -0.7918
 5001TIP3    H215010   4.505   0.467   2.925  1.7284  0.5681  2.6028
 5002TIP3   OH215011   0.489   5.668   4.430  0.2814  0.2811 -0.2633
 5002TIP3    H115012   0.487   5.661   4.525  0.5259  0.4872 -0.2431
 5002TIP3    H215013   0.407   5.627   4.402  1.0172 -1.4103 -0.0856
 5003TIP3   OH215014   0.593   1.850   2.726  0.2761  0.1841  0.5468
 5003TIP3    H115015   0.575   1.878   2.816 -0.6536  0.2656  0.3396
 5003TIP3    H215016   0.684   1.877   2.711  0.5113 -0.0175  1.5251
 5004TIP3   OH215017   4.898   1.177   2.111  0.1595 -0.2616  0.1508
 5004TIP3    H115018   4.841   1.193   2.035 -1.6652 -1.2608  1.2439
 5004TIP3    H215019   4.899   1.260   2.158 -0.1166 -0.1500 -0.0384
 5005TIP3   OH215020   5.005  -0.009   1.449  0.1275 -0.1009  0.0503
 5005TIP3    H115021   5.010   0.067   1.391  0.0341 -1.0938 -1.2879
 5005TIP3    H215022   4.941   0.016   1.516  1.0686  1.4871  0.4107
 5006TIP3   OH215023   3.206   5.324   5.018 -0.0587  0.1378  0.3396
 5006TIP3    H115024   3.201   5.408   4.972 -0.1226  0.1602  0.3876
 5006TIP3    H215025   3.128   5.321   5.072  0.1671  0.2430  0.6751
 5007TIP3   OH215026   2.012   2.200   0.333  0.3590  0.0324  0.5753
 5007TIP3    H115027   2.008   2.148   0.413  0.1977 -0.6219  0.1549
 5007TIP3    H215028   2.097   2.178   0.294  0.0686 -0.3409  0.1290
 5008TIP3   OH215029   1.138   3.830   2.655 -0.7129  0.1853  0.5057
 5008TIP3    H115030   1.197   3.821   2.729  0.2484  0.7001 -0.1775
 5008TIP3    H215031   1.071   3.892   2.684 -0.8251 -0.2623  1.2191
 5009TIP3   OH215032   5.221   1.933   1.836  0.6493 -0.2550 -0.6401
 5009TIP3    H115033   5.255   1.945   1.924 -1.4190 -0.1475  0.1919
 5009TIP3    H215034   5.288   1.881   1.791  1.6804 -0.4164  1.0101
 5010TIP3   OH215035   1.231   0.417   3.380 -0.8759  0.2072 -0.3824
 5010TIP3    H115036   1.224   0.372   3.296 -0.2198  0.2073 -0.4358
 5010TIP3    H215037   1.244   0.509   3.357 -1.1391  0.2744 -0.2738
 5011TIP3   OH215038   0.392   4.510   3.504 -0.4056  0.6418  0.2057
 5011TIP3    H115039   0.334   4.508   3.428 -1.0535 -1.1125  0.6943
 5011TIP3    H215040   0.333   4.515   3.579  0.1456  0.4719  0.6601
 5012TIP3   OH215041   0.775   5.433   1.867  0.1102 -0.2629 -0.1977
 5012TIP3    H115042   0.780   5.466   1.777  0.0232  0.6821  0.1299
 5012TIP3    H215043   0.863   5.444   1.902 -0.1430  0.5491  0.2172
 5013TIP3   OH215044   1.190   5.842   4.243  0.5646  0.5764  0.0535
 5013TIP3    H115045   1.279   5.871   4.220  0.6684  0.2760  0.0684
 5013TIP3    H215046   1.202   5.753   4.278  0.3115  0.7031  0.4753
 5014TIP3   OH215047   5.717   5.937   2.760  0.2730 -0.3602 -0.5468
 5014TIP3    H115048   5.713   5.847   2.792  0.9571 -0.1031  0.2826
 5014TIP3    H215049   5.639   5.978   2.796  0.9092 -0.1392  0.6097
 5015TIP3   OH215050   3.072   1.292   2.729 -0.4183  0.1526  0.0419
 5015TIP3    H115051   3.026   1.359   2.678 -1.7995 -1.2749 -0.6788
 5015TIP3    H215052   3.079   1.329   2.817 -1.4711  1.0959 -0.2541
 5016TIP3   OH215053   5.414   2.645   2.424 -0.2124  0.0904 -0.1299
 5016TIP3    H115054   5.423   2.643   2.519  0.8535  1.2970 -0.1750
 5016TIP3    H215055   5.326   2.679   2.408 -0.2884  0.1537  0.4333
 5017TIP3   OH215056   4.166   3.814   3.201 -0.5711 -0.2551 -0.2609
 5017TIP3    H115057   4.154   3.853   3.287 -0.5545 -0.5506 -0.1233
 5017TIP3    H215058   4.144   3.884   3.139 -1.5751 -0.3363 -0.0171
 5018TIP3   OH215059   2.429   1.599   3.712  0.2371  0.1768  0.5546
 5018TIP3    H115060   2.504   1.656   3.693 -0.1362  0.3824 -0.3660
 5018TIP3    H215061   2.376   1.602   3.632 -0.2767 -0.7101  0.8512
 5019TIP3   OH215062   0.022   1.215   0.225 -0.4444 -0.2622  0.3301
 5019TIP3    H115063   0.090   1.267   0.183 -0.2819 -1.8765 -1.5285
 5019TIP3    H215064  -0.043   1.280   0.254 -0.3294  1.0097 -2.0185
 5020TIP3   OH215065   5.550   0.582   0.621  0.5366 -0.2186 -0.1968
 5020TIP3    H115066   5.621   0.572   0.557 -0.9276 -1.4453 -1.7472
 5020TIP3    H215067   5.532   0.493   0.651 -0.0483  0.1279  0.5158
 5021TIP3   OH215068   1.319   1.569   4.172 -0.0793  0.5000  0.1576
 5021TIP3    H115069   1.335   1.614   4.089 -1.4973 -1.0329 -1.0190
 5021TIP3    H215070   1.390   1.506   4.180 -0.5633 -0.1495 -0.5146
 5022TIP3   OH215071   4.396   5.187   3.980 -0.3787  0.0501  0.3258
 5022TIP3    H115072   4.314   5.140   3.962 -0.5181  0.8355 -1.2913
 5022TIP3    H215073   4.464   5.132   3.940 -0.3627  0.4139 -0.1581
 5023TIP3   OH215074   3.391   5.996   2.490  0.1524  0.0297 -0.2751
 5023TIP3    H115075   3.339   5.944   2.429  0.0822  0.7804 -0.8651
 5023TIP3    H215076   3.378   5.952   2.575 -1.2781  0.0760 -0.4356
 5024TIP3   OH215077   5.666   3.145   4.139 -0.1825 -0.1776 -0.4582
 5024TIP3    H115078   5.606   3.110   4.205 -0.9163  0.4009 -0.8084
 5024TIP3    H215079   5.628   3.117   4.055  0.5685 -0.6351 -0.6498
 5025TIP3   OH215080   0.767   1.322   3.048  0.0784 -0.3527 -0.0009
 5025TIP3    H115081   0.712   1.343   2.972  0.8810  0.0700 -0.4749
 5025TIP3    H215082   0.853   1.304   3.011  0.4026 -0.4494  0.7869
 5026TIP3   OH215083   1.317   1.365   3.045  0.2931 -0.4243  0.1337
 5026TIP3    H115084   1.381   1.295   3.053 -1.6283 -2.2274  0.3880
 5026TIP3    H215085   1.299   1.392   3.134 -0.4948 -1.0781  0.1823
 5027TIP3   OH215086   0.286   4.635   4.978  0.0334  0.5013 -0.2543
 5027TIP3    H115087   0.211   4.591   5.018  0.3635  1.1889  1.1962
 5027TIP3    H215088   0.249   4.692   4.912 -0.7043  0.6147  0.2498
 5028TIP3   OH215089   3.646   4.828   2.917  0.0167 -0.2892 -0.5385
 5028TIP3    H115090   3.679   4.753   2.867 -1.3188 -0.6613 -0.9097
 5028TIP3    H215091   3.569   4.858   2.867 -1.6859 -0.9831  1.5201
 5029TIP3   OH215092   0.494   5.466   1.904 -0.3803  0.1584  0.1692
 5029TIP3    H115093   0.575   5.469   1.853 -0.1677 -0.2399  0.4778
 5029TIP3    H215094   0.428   5.434   1.842 -0.1888 -0.0276  0.0596
 5030TIP3   OH215095   6.147   1.052   5.101 -0.0611 -0.5750  0.4865
 5030TIP3    H115096   6.115   1.140   5.082  1.9036 -0.1843 -1.3421
 5030TIP3    H215097   6.070   0.996   5.090 -0.7085  0.5846 -1.3023
 5031TIP3   OH215098   0.864   1.619   4.422  0.2956 -0.4031 -0.0097
 5031TIP3    H115099   0.897   1.530   4.411 -0.0626 -0.5786  0.3171
 5031TIP3    H215100   0.938   1.669   4.455  0.1460 -0.8713  1.0671
 5032TIP3   OH215101   6.128   5.623   4.882 -1.2193 -0.0004 -0.0910
 5032TIP3    H115102   6.069   5.698   4.871 -1.4153 -0.3028 -1.2187
 5032TIP3    H215103   6.206   5.660   4.923 -1.6888  0.6450  0.2351
 5033TIP3   OH215104   2.269   1.627   3.372 -0.3472  0.4509 -0.4543
 5033TIP3    H115105   2.233   1.551   3.417 -1.2568  1.2404  0.1830
 5033TIP3    H215106   2.243   1.702   3.426  0.2648  1.2442 -1.2303
 5034TIP3   OH215107   4.835   2.162   3.999 -0.5427  0.0092 -0.3618
 5034TIP3    H115108   4.914   2.206   3.967  0.7814 -1.2113  1.0690
 5034TIP3    H215109   4.792   2.227   4.054  0.0563  0.3560 -0.2919
 5035TIP3   OH215110   3.310   1.386   5.077  0.0799 -0.4434  0.0414
 5035TIP3    H115111   3.301   1.299   5.115  1.7538 -1.0557 -0.8704
 5035TIP3    H215112   3.247   1.387   5.005 -0.3046 -0.6976  0.3678
 5036TIP3   OH215113   1.936   4.399   4.932 -0.0457  0.3224  0.1626
 5036TIP3    H115114   2.014   4.422   4.983 -0.7470  1.2584  0.8549
 5036TIP3    H215115   1.949   4.307   4.908  1.5310  0.6220 -0.2416
 5037TIP3   OH215116   0.639   5.380   2.662 -0.4285  0.2632 -0.0295
 5037TIP3    H115117   0.682   5.455   2.704 -1.0076  1.7286 -1.9221
 5037TIP3    H215118   0.550   5.411   2.645 -0.8210 -1.0467 -0.4146
 5038TIP3   OH215119   3.022   1.885   3.868  1.0383 -0.5534 -0.1968
 5038TIP3    H115120   3.061   1.849   3.788 -1.8608 -1.6057 -1.2761
 5038TIP3    H215121   2.979   1.966   3.839  0.1900 -0.7990  0.3472
 5039TIP3   OH215122   3.357   1.779   3.936 -0.2913  0.4691  0.0250
 5039TIP3    H115123   3.393   1.737   3.858  0.6201 -0.4655  0.9247
 5039TIP3    H215124   3.301   1.712   3.976  0.1907  0.5215  0.8069
 5040TIP3   OH215125   0.312   5.619   5.163  0.0942 -0.2699  0.0142
 5040TIP3    H115126   0.276   5.634   5.075  0.5071  1.5472  0.1174
 5040TIP3    H215127   0.391   5.567   5.147 -0.6449 -1.2697 -0.5263
 5041TIP3   OH215128   3.625   3.684   1.769 -0.1430  0.4062 -0.1928
 5041TIP3    H115129   3.544   3.702   1.818 -0.4863 -1.9426  0.1971
 5041TIP3    H215130   3.597   3.628   1.697  1.2995 -1.7753  0.8474
 5042TIP3   OH215131   4.511   4.873   1.481  0.9135 -0.3482 -0.8720
 5042TIP3    H115132   4.573   4.827   1.537  0.1640 -2.8371 -1.9363
 5042TIP3    H215133   4.544   4.860   1.392 -0.4316 -0.6512 -1.3647
 5043TIP3   OH215134   5.241   3.582   0.750 -0.1773  0.3873 -0.1007
 5043TIP3    H115135   5.157   3.542   0.772 -0.7765  1.2026 -0.8567
 5043TIP3    H215136   5.304   3.510   0.755 -1.1596 -0.5755 -1.0625
 5044TIP3   OH215137   1.607   1.104   1.255  0.4529  0.1015  0.1151
 5044TIP3    H115138   1.589   1.172   1.321 -0.4767  0.6882 -0.7292
 5044TIP3    H215139   1.570   1.024   1.292  0.5367  0.2845  0.6032
 5045TIP3   OH215140   1.386   4.655   2.970  0.2521  0.1228 -0.7085
 5045TIP3    H115141   1.464   4.679   2.920  1.2113 -2.0070 -0.3353
 5045TIP3    H215142   1.407   4.677   3.060  0.4151 -0.3969 -0.6155
 5046TIP3   OH215143   1.575   3.079   1.549 -0.4968  0.0500  0.3001
 5046TIP3    H115144   1.567   2.993   1.508 -0.2304  0.1864 -0.0384
 5046TIP3    H215145   1.662   3.080   1.587  0.2577  0.8690 -1.3399
 5047TIP3   OH215146   0.089   3.899   1.030 -0.3149  0.2151 -0.1550
 5047TIP3    H115147   0.113   3.863   0.945 -1.2000 -0.4456 -0.1359
 5047TIP3    H215148   0.057   3.987   1.010  3.8661  2.0132  0.0151
 5048TIP3   OH215149   1.435   1.263   0.735  0.0853  0.0956 -0.1490
 5048TIP3    H115150   1.432   1.357   0.755  0.6089 -0.1048  0.9482
 5048TIP3    H215151   1.353   1.228   0.771 -0.6816  0.2984 -1.6133
 5049TIP3   OH215152   2.589   0.466   0.204  0.1713 -0.1931 -0.5866
 5049TIP3    H115153   2.646   0.518   0.147  1.3024 -0.5941  0.1489
 5049TIP3    H215154   2.527   0.424   0.144 -0.3382  1.4303 -1.2652
 5050TIP3   OH215155   2.427   1.093   1.686 -0.0002  0.8482  0.0002
 5050TIP3    H115156   2.518   1.065   1.698 -0.1565 -0.6247 -1.7798
 5050TIP3    H215157   2.426   1.132   1.598 -0.9507  1.5648  0.3059
 5051TIP3   OH215158   0.216   4.179   0.191  0.3430 -0.1967 -0.2087
 5051TIP3    H115159   0.146   4.164   0.255  2.1222 -1.4546  1.5744
 5051TIP3    H215160   0.170   4.201   0.110 -2.0946 -0.8080  0.9021
 5052TIP3   OH215161   0.437   0.611   3.866 -0.2970  0.4888 -0.6845
 5052TIP3    H115162   0.477   0.672   3.804 -1.2589  1.0381 -0.7747
 5052TIP3    H215163   0.384   0.665   3.924 -1.4868 -0.2808 -1.0160
 5053TIP3   OH215164   3.931   4.029   1.374 -0.2124  0.4846 -0.1997
 5053TIP3    H115165   3.988   3.963   1.336  2.4601  1.9801  0.9562
 5053TIP3    H215166   3.856   4.034   1.314  1.6921 -0.3251 -2.8055
 5054TIP3   OH215167   5.847   4.887   3.045  0.2471  0.1773  0.4458
 5054TIP3    H115168   5.864   4.886   3.139 -0.1013  1.4689  0.5345
 5054TIP3    H215169   5.915   4.943   3.008 -0.8379  1.3730  0.2003
 5055TIP3   OH215170   5.788   4.508   1.910  0.4544 -0.5161  0.8180
 5055TIP3    H115171   5.787   4.439   1.845  0.5080  1.2098 -1.1201
 5055TIP3    H215172   5.880   4.530   1.922  0.3696  0.0831  0.4259
 5056TIP3   OH215173   5.274   1.376   0.259 -0.2523 -0.7457  0.2113
 5056TIP3    H115174   5.213   1.425   0.204  0.9338  0.0491 -0.4463
 5056TIP3    H215175   5.313   1.311   0.200 -0.0928 -0.9131  0.4964
 5057TIP3   OH215176   0.799   5.321   0.826 -0.1505 -0.0983  0.2938
 5057TIP3    H115177   0.737   5.259   0.787  1.2532 -1.1369 -0.3545
 5057TIP3    H215178   0.799   5.396   0.766 -0.6454 -0.1547  0.2164
 5058TIP3   OH215179   3.808   3.861   2.946  0.1550  0.5847  0.1638
 5058TIP3    H115180   3.743   3.819   2.890  2.0399 -1.1080 -0.8836
 5058TIP3    H215181   3.762   3.879   3.028 -1.8584  0.3552 -0.8587
 5059TIP3   OH215182   1.008   5.768   1.611 -0.2856 -0.5140  0.2196
 5059TIP3    H115183   0.976   5.858   1.625  1.5897  0.1757  0.4745
 5059TIP3    H215184   1.014   5.732   1.700 -0.9519 -0.8688  0.1231
 5060TIP3   OH215185   4.829   1.733   1.380 -0.4911  0.3180 -0.0903
 5060TIP3    H115186   4.923   1.715   1.381 -0.7384 -1.1651 -1.4896
 5060TIP3    H215187   4.795   1.683   1.307 -2.8401 -1.4855  2.0522
 5061TIP3   OH215188   1.952   5.499   1.750 -0.0557  0.1872  0.0035
 5061TIP3    H115189   1.903   5.524   1.828 -0.6174  0.8185 -0.5390
 5061TIP3    H215190   2.025   5.561   1.747  0.5802 -0.5048  0.5932
 5062TIP3   OH215191   4.216   4.593   4.962  0.0577  0.0265  0.8674
 5062TIP3    H115192   4.162   4.589   5.041 -1.0202  1.1184  0.2336
 5062TIP3    H215193   4.185   4.671   4.916 -0.9130 -1.7345 -1.7294
 5063TIP3   OH215194   2.251   3.069   2.820 -0.2918 -0.6565 -0.6524
 5063TIP3    H115195   2.309   3.013   2.768  0.0588  0.0522 -1.0317
 5063TIP3    H215196   2.166   3.061   2.778 -0.0648 -0.2824 -1.2042
 5064TIP3   OH215197   2.311   4.279   5.073 -0.1185  0.4303  0.0257
 5064TIP3    H115198   2.401   4.274   5.105 -0.3363 -0.2490  0.5746
 5064TIP3    H215199   2.305   4.209   5.008  0.2303  1.5970 -1.2971
 5065TIP3   OH215200   4.134   1.872   4.323 -0.3523  0.4011 -0.3723
 5065TIP3    H115201   4.217   1.862   4.277 -0.5982  0.0675 -0.7414
 5065TIP3    H215202   4.074   1.812   4.279 -0.9397  1.0429 -0.4693
 5066TIP3   OH215203   4.989   2.403   4.370  0.0725 -0.3937 -0.4107
 5066TIP3    H115204   4.906   2.412   4.416  0.5043  0.9983  0.1513
 5066TIP3    H215205   4.965   2.409   4.277 -0.6575 -2.0301 -0.3636
 5067TIP3   OH215206   2.176   1.153   0.474  0.4802 -0.2163 -0.6779
 5067TIP3    H115207   2.101   1.205   0.504  0.2776 -0.3212 -1.0012
 5067TIP3    H215208   2.234   1.148   0.550 -0.8004 -1.9249  0.2458
 5068TIP3   OH215209   1.289   4.322   3.536 -0.0697  0.6654 -0.1369
 5068TIP3    H115210   1.247   4.406   3.517 -0.6051  0.4010 -0.1254
 5068TIP3    H215211   1.235   4.257   3.491 -1.5233 -0.0170  2.3866
 5069TIP3   OH215212   2.141   0.844   2.553  0.2819  0.0049 -0.6716
 5069TIP3    H115213   2.149   0.920   2.496  1.1300  0.6261  0.2378
 5069TIP3    H215214   2.099   0.878   2.632 -1.5091 -0.9823 -1.1464
 5070TIP3   OH215215   4.990   3.927   3.879 -0.3286 -0.2431 -0.0745
 5070TIP3    H115216   4.964   3.957   3.792  2.0248  1.8376 -0.1737
 5070TIP3    H215217   4.954   3.993   3.939  0.4681 -0.0657  0.2223
 5071TIP3   OH215218   2.475   2.788   0.715  0.3703 -0.3881  0.0725
 5071TIP3    H115219   2.430   2.742   0.644  0.7817  0.1022 -0.5239
 5071TIP3    H215220   2.544   2.728   0.743  0.9176 -0.1445 -0.7153
 5072TIP3   OH215221   4.518   0.620   2.808 -0.2180  0.4583  0.4109
 5072TIP3    H115222   4.485   0.699   2.851 -1.2524  0.0054  0.4902
 5072TIP3    H215223   4.470   0.616   2.725 -0.6615 -0.4236  0.6971
 5073TIP3   OH215224   5.563   3.250  -0.022  0.1448 -0.7165 -0.3275
 5073TIP3    H115225   5.565   3.156  -0.039 -3.1578 -1.0723  0.5579
 5073TIP3    H215226   5.581   3.259   0.071 -2.7160 -0.9358  0.3651
 5074TIP3   OH215227   1.825   4.518   0.763 -0.1076 -0.0078 -0.4613
 5074TIP3    H115228   1.731   4.536   0.759 -0.1317  0.3553  1.0315
 5074TIP3    H215229   1.832   4.438   0.814  0.4105  0.1521 -0.2784
 5075TIP3   OH215230   6.218   4.486   0.164 -0.2154 -0.1937  0.9776
 5075TIP3    H115231   6.197   4.563   0.217  1.5373 -1.1199  3.1880
 5075TIP3    H215232   6.133   4.450   0.138 -1.0791  1.4096  1.4805
 5076TIP3   OH215233   0.063   3.942   0.257 -0.4549  0.0997 -0.0591
 5076TIP3    H115234   0.060   3.983   0.343 -0.4382 -1.4828  0.7381
 5076TIP3    H215235   0.153   3.953   0.229 -0.5293  0.8817 -0.0213
 5077TIP3   OH215236   3.540   5.434   2.034  0.2096  0.0455 -0.1028
 5077TIP3    H115237   3.499   5.469   1.954  0.4627  0.3080 -0.1158
 5077TIP3    H215238   3.484   5.360   2.058 -0.4506  0.5916  0.0530
 5078TIP3   OH215239   4.420   3.190   5.006  0.4351  0.0295 -0.1298
 5078TIP3    H115240   4.452   3.277   4.985  0.7655  0.2821  1.2662
 5078TIP3    H215241   4.371   3.162   4.929  2.3268  0.4574 -1.5415
 5079TIP3   OH215242   0.806   4.717   3.553  0.1492 -0.5446 -0.3012
 5079TIP3    H115243   0.833   4.794   3.603 -5.1383 -0.6349  3.5615
 5079TIP3    H215244   0.869   4.649   3.578  1.6195  1.1340  0.8263
 5080TIP3   OH215245   5.461   2.578   4.752  0.1987  0.1237  0.5863
 5080TIP3    H115246   5.485   2.620   4.834 -0.1656  1.9549 -0.1712
 5080TIP3    H215247   5.366   2.567   4.758  0.0704  0.9158  0.1545
 5081TIP3   OH215248   5.615   4.374   3.645  0.0363  0.1108  0.2293
 5081TIP3    H115249   5.698   4.330   3.659  0.2496  0.5370  0.3415
 5081TIP3    H215250   5.591   4.407   3.732  0.0177  0.4478  0.0986
 5082TIP3   OH215251   0.933   3.681   2.299 -0.1456  0.1365  0.0629
 5082TIP3    H115252   0.912   3.738   2.373 -1.4254 -0.3712  0.1082
 5082TIP3    H215253   0.937   3.594   2.336 -0.2744 -0.0566 -0.3680
 5083TIP3   OH215254   2.501   0.182   2.240 -0.0544  0.2391 -0.0031
 5083TIP3    H115255   2.495   0.092   2.210  0.0260  0.7031 -1.5399
 5083TIP3    H215256   2.410   0.211   2.248 -0.0734  0.2545 -0.2740
 5084TIP3   OH215257   1.933   1.859   1.973 -0.4818 -0.1847 -0.0549
 5084TIP3    H115258   1.919   1.768   2.000 -0.6664 -0.5863 -1.4280
 5084TIP3    H215259   2.014   1.856   1.922 -1.0978  0.2007 -1.0839
 5085TIP3   OH215260   2.855   2.028   0.256 -0.0940 -0.0878  0.3032
 5085TIP3    H115261   2.864   2.098   0.320 -0.4345  0.3257 -0.0948
 5085TIP3    H215262   2.776   2.049   0.207 -0.1364 -0.6879  0.0979
 5086TIP3   OH215263   3.944   0.461   3.393  0.0317  0.4564 -0.2452
 5086TIP3    H115264   3.858   0.471   3.434  0.5780  0.0448  1.0769
 5086TIP3    H215265   4.006   0.479   3.464  1.0283 -0.4997 -0.8473
 5087TIP3   OH215266   4.845   4.878   4.474  0.2861  0.0972 -0.5499
 5087TIP3    H115267   4.901   4.801   4.465  0.9460  0.3771  0.8309
 5087TIP3    H215268   4.857   4.926   4.392  1.4487 -0.2770 -0.6255
 5088TIP3   OH215269   5.753   0.267   4.536 -0.4383  0.1402  0.0928
 5088TIP3    H115270   5.746   0.339   4.599 -0.1317 -1.3682  1.9605
 5088TIP3    H215271   5.842   0.273   4.502 -0.6932  1.1355 -0.4302
 5089TIP3   OH215272   3.195   4.130   4.823 -0.3573  0.0495  0.5713
 5089TIP3    H115273   3.108   4.169   4.816  0.6050  2.2609  0.0332
 5089TIP3    H215274   3.247   4.197   4.868  1.3132 -0.7938 -0.0425
 5090TIP3   OH215275   0.149   5.823   2.745  0.1690 -0.4481  0.1727
 5090TIP3    H115276   0.175   5.814   2.654  1.6047  0.0057  0.5074
 5090TIP3    H215277   0.089   5.898   2.746  0.5940 -0.0991 -0.3231
 5091TIP3   OH215278   5.659   1.870   2.595  0.4800  0.4296  0.2136
 5091TIP3    H115279   5.712   1.894   2.671  2.0440 -0.7485 -0.4675
 5091TIP3    H215280   5.709   1.904   2.520 -0.2186  0.1348 -0.3910
 5092TIP3   OH215281   3.692   1.850   1.617 -0.1257 -0.4952  0.2643
 5092TIP3    H115282   3.767   1.810   1.572 -0.6614  0.9048 -2.0382
 5092TIP3    H215283   3.728   1.926   1.662 -0.0691 -0.1508 -0.3615
 5093TIP3   OH215284   6.071   5.939   1.088 -0.2880  0.0705  0.4882
 5093TIP3    H115285   6.049   6.031   1.075 -2.4994 -0.6062 -1.0460
 5093TIP3    H215286   6.016   5.912   1.162  0.4841 -0.0236  1.0487
 5094TIP3   OH215287   5.842   1.948   1.083 -0.0860  0.1040  0.0240
 5094TIP3    H115288   5.930   1.984   1.070  0.2114 -0.2667  0.9414
 5094TIP3    H215289   5.785   2.006   1.032  0.6994  0.2612 -0.7054
 5095TIP3   OH215290   1.015   2.817   0.343  0.3610  0.3100 -0.5784
 5095TIP3    H115291   0.949   2.886   0.347 -0.1589 -0.2302  0.3875
 5095TIP3    H215292   0.969   2.742   0.305  0.4509 -0.0281 -0.0259
 5096TIP3   OH215293   3.461   5.322   4.604  0.0138 -0.4109 -0.3586
 5096TIP3    H115294   3.480   5.234   4.635 -0.2879 -0.6207 -0.7607
 5096TIP3    H215295   3.536   5.374   4.632 -0.8954 -0.2464  2.0631
 5097TIP3   OH215296   2.728   3.410   2.745  0.3034  0.0295 -0.2708
 5097TIP3    H115297   2.733   3.323   2.784  0.5452  0.5128  0.8251
 5097TIP3    H215298   2.795   3.461   2.792  1.5643  0.3069 -2.2531
 5098TIP3   OH215299   6.129   0.122   5.007  0.5848 -0.3656 -0.2754
 5098TIP3    H115300   6.160   0.212   5.003  0.0621 -0.1952 -0.5108
 5098TIP3    H215301   6.061   0.116   4.940  1.9009 -1.4449 -1.5767
 5099TIP3   OH215302   0.215   4.492   1.072 -0.6020 -0.2693  0.1932
 5099TIP3    H115303   0.232   4.544   1.151 -1.2831 -2.6158  2.0196
 5099TIP3    H215304   0.298   4.493   1.025 -0.0273  0.8415  1.1680
 5100TIP3   OH215305   0.532   4.311   4.639 -0.1418  0.2180  0.3367
 5100TIP3    H115306   0.511   4.227   4.598  1.6828 -0.0953 -0.0584
 5100TIP3    H215307   0.518   4.376   4.570 -1.5661  0.2756  0.6455
 5101TIP3   OH215308   0.083   2.748   0.704  0.1306  0.2800 -0.1698
 5101TIP3    H115309   0.063   2.776   0.793 -0.8081  0.7782 -0.5255
 5101TIP3    H215310   0.048   2.659   0.699  0.2619  0.2188 -0.0181
 5102TIP3   OH215311   3.179   1.245   2.446  0.3549 -0.4107 -0.5345
 5102TIP3    H115312   3.228   1.327   2.438 -0.2048 -0.1477 -1.3753
 5102TIP3    H215313   3.095   1.263   2.404  0.5561 -1.6776 -1.5418
 5103TIP3   OH215314   1.993   3.909   1.605  0.3878 -0.2192  0.1905
 5103TIP3    H115315   1.915   3.959   1.628 -0.6222 -1.5546 -0.2215
 5103TIP3    H215316   2.024   3.872   1.688  0.2857 -0.1142  0.2747
 5104TIP3   OH215317   0.586   3.588   1.938 -1.0774  0.0653 -0.2236
 5104TIP3    H115318   0.621   3.557   1.854 -0.7884  0.4683 -0.2578
 5104TIP3    H215319   0.518   3.652   1.913 -1.2714 -0.1127 -0.1521
 5105TIP3   OH215320   4.832   5.763   3.175 -0.2595  0.1190  0.3293
 5105TIP3    H115321   4.817   5.851   3.141  1.5598  0.3799  0.1333
 5105TIP3    H215322   4.838   5.708   3.096 -0.7811 -0.0907  0.4305
 5106TIP3   OH215323   2.982   1.873   0.552 -0.1245  0.0992 -0.3993
 5106TIP3    H115324   2.911   1.932   0.528  0.3761  1.0129  0.2982
 5106TIP3    H215325   2.969   1.855   0.645 -0.2416 -0.8633 -0.5894
 5107TIP3   OH215326   1.894   5.882   0.215  0.1655 -0.5199 -0.7363
 5107TIP3    H115327   1.925   5.859   0.127 -1.5916 -1.4705 -1.1434
 5107TIP3    H215328   1.928   5.812   0.271  0.3923 -0.4950 -0.8426
 5108TIP3   OH215329   1.916   0.675   2.514 -0.9155  0.8049 -0.6194
 5108TIP3    H115330   1.874   0.666   2.599 -3.1223  0.4287 -1.6936
 5108TIP3    H215331   1.986   0.739   2.529  1.8001 -2.3938  2.4797
 5109TIP3   OH215332   5.066   0.181   3.096  0.7869 -0.4277  0.5459
 5109TIP3    H115333   4.994   0.126   3.128  0.2634 -0.6185 -0.9012
 5109TIP3    H215334   5.033   0.270   3.106  0.3465 -0.5127 -0.0774
 5110TIP3   OH215335   3.808   5.502   0.084  0.1714  0.0209  0.0419
 5110TIP3    H115336   3.788   5.520   0.176 -0.1811 -0.9814  0.1758
 5110TIP3    H215337   3.728   5.464   0.049 -0.1519  1.6206 -1.0563
 5111TIP3   OH215338   2.794   0.958   2.975  0.9161 -0.1158 -0.0331
 5111TIP3    H115339   2.887   0.974   2.961  0.5159  1.5893 -1.1255
 5111TIP3    H215340   2.761   0.931   2.889  0.3427 -0.3841  0.2660
 5112TIP3   OH215341   4.809   4.545   4.123 -0.0321 -0.2107  0.8388
 5112TIP3    H115342   4.899   4.526   4.148  1.5567  0.9998 -3.1785
 5112TIP3    H215343   4.774   4.462   4.092  0.2262 -0.3731  0.9788
 5113TIP3   OH215344   2.358   2.540   4.359 -0.2635  0.5002  0.0411
 5113TIP3    H115345   2.404   2.546   4.442  1.6680 -3.1974 -0.5342
 5113TIP3    H215346   2.267   2.526   4.382 -0.2773  2.4985  1.3854
 5114TIP3   OH215347   6.211   3.862   1.420 -0.0004 -0.1871 -0.2461
 5114TIP3    H115348   6.169   3.844   1.504  0.4602  1.3289  0.3519
 5114TIP3    H215349   6.139   3.889   1.362 -0.1006  0.6610  0.2526
 5115TIP3   OH215350   1.042   0.214   5.167 -0.4976  0.5398  0.2394
 5115TIP3    H115351   1.065   0.134   5.213  0.7754  2.3836  3.0648
 5115TIP3    H215352   0.946   0.215   5.167 -0.5239 -0.5833  0.8117
 5116TIP3   OH215353   3.977   5.653   2.621  0.0198  0.1964  0.3705
 5116TIP3    H115354   3.901   5.688   2.668  0.1600  0.1295  0.6471
 5116TIP3    H215355   3.939   5.603   2.548 -0.2447 -1.0993  1.3670
 5117TIP3   OH215356   4.191   5.304   2.920  0.8764  0.0806 -0.6765
 5117TIP3    H115357   4.284   5.284   2.932  0.6733 -0.8898 -0.6895
 5117TIP3    H215358   4.155   5.304   3.009  1.0563  1.4039 -0.5749
 5118TIP3   OH215359   0.738   3.136   3.414  0.3326 -0.0887 -0.1068
 5118TIP3    H115360   0.763   3.207   3.354 -0.7148  0.3297 -0.0781
 5118TIP3    H215361   0.684   3.078   3.360  0.5982 -0.4864  0.0583
 5119TIP3   OH215362   0.204   2.713   3.774 -0.8590  0.4778  0.3971
 5119TIP3    H115363   0.144   2.744   3.707  0.4301  1.9334 -0.1374
 5119TIP3    H215364   0.264   2.786   3.788 -0.4430 -0.1946  2.3718
 5120TIP3   OH215365   5.654   5.471   4.036  0.2061 -0.0255  0.0646
 5120TIP3    H115366   5.589   5.422   3.986 -0.5377 -1.1600  2.0260
 5120TIP3    H215367   5.609   5.551   4.062  0.3617  0.2353 -0.4485
 5121TIP3   OH215368   3.470   0.738   3.741 -0.3789 -0.2689  0.1318
 5121TIP3    H115369   3.513   0.814   3.703 -2.0147  1.3859  1.4178
 5121TIP3    H215370   3.540   0.674   3.752  1.2192  1.3424 -0.2172
 5122TIP3   OH215371   4.014   0.915   4.531  0.6188  0.0169 -0.5261
 5122TIP3    H115372   4.056   0.847   4.479  0.5172 -0.7280  0.3367
 5122TIP3    H215373   3.928   0.879   4.553  1.7781 -1.1232  2.7906
 5123TIP3   OH215374   2.857   1.553   4.846 -0.2038  0.1351  0.1198
 5123TIP3    H115375   2.887   1.467   4.876 -0.7598 -0.5336 -1.1531
 5123TIP3    H215376   2.888   1.614   4.913  0.0976 -1.0670  1.1126
 5124TIP3   OH215377   3.690   4.504   1.421  0.3076  0.1100 -0.2020
 5124TIP3    H115378   3.695   4.415   1.457 -0.7459 -0.2432 -0.8696
 5124TIP3    H215379   3.606   4.537   1.452  0.9077  1.0704  0.4394
 5125TIP3   OH215380   6.333   5.689   0.233  0.4195 -0.1339 -0.0491
 5125TIP3    H115381   6.389   5.620   0.199  1.2051  1.2510 -1.7650
 5125TIP3    H215382   6.248   5.676   0.190  0.3613 -0.4202  0.1531
 5126TIP3   OH215383   4.092   3.857   3.749  0.1605 -0.5369  0.0555
 5126TIP3    H115384   4.182   3.888   3.750  0.2565 -0.6843 -1.4924
 5126TIP3    H215385   4.040   3.932   3.778  0.8520 -0.9424  2.5923
 5127TIP3   OH215386   5.175   2.793   2.430  0.8237  0.0511  0.0060
 5127TIP3    H115387   5.107   2.855   2.458 -0.9213 -1.2619 -1.0878
 5127TIP3    H215388   5.139   2.707   2.453  2.9702 -0.6158  1.0484
 5128TIP3   OH215389   5.477   1.440   1.188  0.2202  0.2885  1.2076
 5128TIP3    H115390   5.390   1.422   1.221 -0.0090 -1.4702 -0.1963
 5128TIP3    H215391   5.478   1.534   1.172 -1.6557  0.2574  0.6690
 5129TIP3   OH215392   2.585   0.335   4.681  0.0680 -0.0957  0.4230
 5129TIP3    H115393   2.668   0.314   4.639  0.3198 -0.6174  1.1661
 5129TIP3    H215394   2.608   0.366   4.768 -0.4782  0.5438  0.3496
 5130TIP3   OH215395   2.283   1.133   4.088  0.5924 -0.1478  0.5669
 5130TIP3    H115396   2.254   1.222   4.109 -2.2642 -0.5202 -1.2466
 5130TIP3    H215397   2.268   1.084   4.169  1.9667  0.9214  1.5131
 5131TIP3   OH215398   6.231   0.279   3.695  0.1012 -0.0750  0.0990
 5131TIP3    H115399   6.253   0.257   3.604 -1.7055  1.5598 -0.8251
 5131TIP3    H215400   6.306   0.327   3.727  1.9156 -2.9368  0.4467
 5132TIP3   OH215401   4.995   1.673   1.144  0.2582  0.6060  0.0903
 5132TIP3    H115402   5.038   1.649   1.062 -0.4710  0.6640 -0.3077
 5132TIP3    H215403   5.041   1.752   1.172  0.7918  0.3488 -0.0350
 5133TIP3   OH215404   1.427   4.375   4.120 -0.2247  0.4713 -0.4394
 5133TIP3    H115405   1.398   4.454   4.074  1.8616  0.3477 -2.1081
 5133TIP3    H215406   1.365   4.307   4.094 -1.5179  1.3192  0.3151
 5134TIP3   OH215407   3.340   2.431   3.249  0.4152 -0.0117  0.1917
 5134TIP3    H115408   3.294   2.491   3.308 -2.1338 -0.5474 -1.0873
 5134TIP3    H215409   3.356   2.482   3.170 -0.2375 -0.5124 -0.2762
 5135TIP3   OH215410   0.091   4.085   1.545 -0.1820 -0.3827  0.2245
 5135TIP3    H115411   0.066   4.084   1.453  1.3231  1.2827 -0.2625
 5135TIP3    H215412   0.087   3.993   1.572 -0.1387 -0.9804 -1.6512
 5136TIP3   OH215413   5.653   1.231   1.164 -0.5796  0.0626 -0.3636
 5136TIP3    H115414   5.612   1.245   1.078 -0.4613  0.7241 -0.3252
 5136TIP3    H215415   5.632   1.310   1.213  0.2612  0.1704 -0.1579
 5137TIP3   OH215416   2.433   2.141   2.802 -0.2765  0.3555  0.2641
 5137TIP3    H115417   2.475   2.063   2.765  0.2393 -0.2560  2.0253
 5137TIP3    H215418   2.501   2.208   2.800 -0.8195  0.9203 -1.5620
 5138TIP3   OH215419   6.179   1.363   0.400  0.6505  0.5547 -0.0840
 5138TIP3    H115420   6.108   1.379   0.338  0.1939  1.5940  0.6745
 5138TIP3    H215421   6.146   1.295   0.458 -0.5195  2.2411  1.3703
 5139TIP3   OH215422   4.239   5.448   3.912 -0.3609 -0.1565  0.2405
 5139TIP3    H115423   4.260   5.488   3.997  1.8065  0.0446 -0.3102
 5139TIP3    H215424   4.275   5.360   3.918 -0.4092 -0.2204 -0.3851
 5140TIP3   OH215425   0.022   0.451   0.766  0.2559  0.0785  0.6260
 5140TIP3    H115426  -0.071   0.471   0.778  0.2797  0.2012  0.5988
 5140TIP3    H215427   0.063   0.474   0.849  0.3326  0.4277  0.4902
 5141TIP3   OH215428   3.418   3.431   1.840  0.4010  0.6809  0.2447
 5141TIP3    H115429   3.354   3.377   1.794  3.3567 -0.9306 -2.4663
 5141TIP3    H215430   3.427   3.509   1.785  2.5731 -0.3749 -1.0592
 5142TIP3   OH215431   3.828   0.412   2.831  0.7199  0.0951 -0.8946
 5142TIP3    H115432   3.762   0.344   2.841  0.3396  0.3867 -1.4379
 5142TIP3    H215433   3.898   0.386   2.891  0.1578 -0.2628 -0.3839
 5143TIP3   OH215434   4.167   3.918   2.253 -0.3328 -0.0139  0.0512
 5143TIP3    H115435   4.256   3.895   2.228 -0.4685  0.5175 -0.9864
 5143TIP3    H215436   4.137   3.844   2.305  0.1661 -0.9524 -0.9415
 5144TIP3   OH215437   5.266   4.078   1.900  0.0500  0.4847  0.5357
 5144TIP3    H115438   5.214   3.999   1.914  4.3639 -2.7635  0.5014
 5144TIP3    H215439   5.233   4.115   1.819 -1.9332 -1.4695  0.3550
 5145TIP3   OH215440   6.276   0.396   3.036  0.0276 -0.3788  0.1698
 5145TIP3    H115441   6.210   0.375   3.102 -0.8553 -0.7911 -0.7988
 5145TIP3    H215442   6.337   0.322   3.037 -0.2271 -0.5885  0.2368
 5146TIP3   OH215443   0.967   2.225   2.594 -0.0835  0.1334  0.8035
 5146TIP3    H115444   0.942   2.139   2.626  0.6756  0.1416  1.4379
 5146TIP3    H215445   0.889   2.279   2.605 -0.9129 -0.7261 -0.6074
 5147TIP3   OH215446   0.560   1.584   2.713 -0.1796 -0.2165 -0.1972
 5147TIP3    H115447   0.634   1.581   2.652 -0.6044  1.6100 -0.8793
 5147TIP3    H215448   0.563   1.672   2.750 -2.3405  0.1539 -0.7359
 5148TIP3   OH215449   0.667   1.155   4.383  0.0196 -0.8291  0.5085
 5148TIP3    H115450   0.599   1.194   4.329  2.6552  2.8114 -0.5997
 5148TIP3    H215451   0.721   1.106   4.321  0.3910 -0.6962  0.7246
 5149TIP3   OH215452   1.883   5.462   2.705  0.2375 -0.0314  0.1928
 5149TIP3    H115453   1.792   5.437   2.720  0.3454 -0.1782  0.5989
 5149TIP3    H215454   1.879   5.554   2.679  0.0339  0.1740  0.9342
 5150TIP3   OH215455   4.973   2.010   2.008  0.2465  0.6822 -0.3122
 5150TIP3    H115456   4.951   1.945   1.941  0.9085 -0.5770  0.6508
 5150TIP3    H215457   5.068   2.014   2.007  0.1998  1.9079 -0.5856
 5151TIP3   OH215458   6.305   1.577   3.736  0.2323  0.1039 -0.0066
 5151TIP3    H115459   6.211   1.557   3.744  0.2898 -1.2951 -2.1931
 5151TIP3    H215460   6.307   1.667   3.703 -0.3649 -0.1534 -0.7650
 5152TIP3   OH215461   5.413   2.380   2.421  0.1165 -0.1915 -0.2502
 5152TIP3    H115462   5.346   2.344   2.478 -1.8898 -0.7864 -2.7934
 5152TIP3    H215463   5.385   2.470   2.405  0.8580  0.0839 -0.0386
 5153TIP3   OH215464   4.937   3.668   3.542 -0.3518 -0.2512  0.1270
 5153TIP3    H115465   5.027   3.676   3.573 -0.0387  0.7149 -0.9554
 5153TIP3    H215466   4.919   3.574   3.545  0.5197 -0.4118  0.8048
 5154TIP3   OH215467   3.809   3.410   2.915 -1.2466 -0.3469  0.1530
 5154TIP3    H115468   3.858   3.487   2.886 -1.2170 -0.7544 -0.9698
 5154TIP3    H215469   3.872   3.358   2.965 -1.0636  0.0210  0.3018
 5155TIP3   OH215470   5.834   3.618   4.234 -0.0023  0.8180  0.1938
 5155TIP3    H115471   5.917   3.636   4.279  0.3756  0.7304 -0.4532
 5155TIP3    H215472   5.780   3.574   4.301  0.2305  1.4538  0.8125
 5156TIP3   OH215473   2.392   3.527   1.384 -0.1584  0.3743 -0.3752
 5156TIP3    H115474   2.353   3.547   1.469  0.4285  3.0207 -0.6329
 5156TIP3    H215475   2.318   3.530   1.322 -0.3515 -0.0819 -0.1739
 5157TIP3   OH215476   3.217   0.882   3.801 -0.1015  0.0576  0.3152
 5157TIP3    H115477   3.296   0.881   3.854  0.2975  1.0017 -0.2525
 5157TIP3    H215478   3.167   0.958   3.833 -0.7849 -0.5104  0.6530
 5158TIP3   OH215479   0.468   5.990   4.251  0.8834 -0.0083  0.7033
 5158TIP3    H115480   0.559   5.978   4.224  1.0357 -2.3118  2.0370
 5158TIP3    H215481   0.459   5.938   4.330 -1.9139 -0.8403 -0.0411
 5159TIP3   OH215482   1.450   3.919   1.486  0.8010  0.1324  0.1650
 5159TIP3    H115483   1.477   3.859   1.417  2.0986 -0.6233  1.2850
 5159TIP3    H215484   1.384   3.871   1.536 -0.6093  0.9163 -0.8861
 5160TIP3   OH215485   2.670   4.511   3.223  0.0355  0.2597 -0.7268
 5160TIP3    H115486   2.705   4.422   3.232  1.7854  0.9146 -0.5825
 5160TIP3    H215487   2.589   4.500   3.173 -0.6333 -1.5721  0.5974
 5161TIP3   OH215488   3.243   4.102   3.754  0.4363  0.2395  0.0687
 5161TIP3    H115489   3.300   4.122   3.828 -0.8881  0.4111  1.0984
 5161TIP3    H215490   3.194   4.024   3.782  0.5431 -0.2273 -1.0006
 5162TIP3   OH215491   5.853   3.861   0.169  0.2775 -0.3365  0.7952
 5162TIP3    H115492   5.802   3.916   0.109 -0.6783  1.2450  2.9241
 5162TIP3    H215493   5.939   3.902   0.170 -0.0369  0.3319  1.3402
 5163TIP3   OH215494   5.109   4.568   2.530 -0.0737  0.0547 -0.6508
 5163TIP3    H115495   5.124   4.480   2.495 -2.0423  0.1801 -1.9176
 5163TIP3    H215496   5.186   4.618   2.501 -0.2917 -0.5577 -2.3902
 5164TIP3   OH215497   4.285   3.191   0.912 -0.5207 -0.0023 -0.2910
 5164TIP3    H115498   4.289   3.096   0.899 -0.8542 -0.5192  2.6356
 5164TIP3    H215499   4.193   3.209   0.929 -0.6859  1.1219 -2.1376
 5165TIP3   OH215500   0.113   1.691   0.066  0.0325 -0.3778  0.2164
 5165TIP3    H115501   0.045   1.758   0.060  0.6217  0.3513  1.3807
 5165TIP3    H215502   0.188   1.736   0.104  0.4020 -1.7347  1.1684
 5166TIP3   OH215503   5.469   4.671   4.464 -0.1482  0.0894  0.0646
 5166TIP3    H115504   5.557   4.707   4.468  0.5652 -1.6078  0.2850
 5166TIP3    H215505   5.437   4.675   4.554 -0.4797  1.1209 -0.0930
 5167TIP3   OH215506   4.677   2.322   4.171  0.2029  0.5327 -0.4877
 5167TIP3    H115507   4.662   2.251   4.233  2.4428  0.3776 -0.0518
 5167TIP3    H215508   4.692   2.399   4.226  0.6505  0.7305 -0.8850
 5168TIP3   OH215509   4.298   3.853   1.398 -0.5552  0.8419 -0.0791
 5168TIP3    H115510   4.390   3.827   1.401 -0.7238  0.2725  0.2297
 5168TIP3    H215511   4.250   3.771   1.389 -1.0130  1.1713 -0.6804
 5169TIP3   OH215512   5.799   4.256   3.982  0.0168 -0.4513 -0.0446
 5169TIP3    H115513   5.858   4.267   4.056 -0.9028 -0.0534  0.6529
 5169TIP3    H215514   5.761   4.169   3.993 -0.4047 -0.2429  0.1661
 5170TIP3   OH215515   1.936   2.380   4.142  0.0548  0.6147  0.6639
 5170TIP3    H115516   2.021   2.337   4.153 -0.4597 -0.3078  1.1351
 5170TIP3    H215517   1.906   2.398   4.231 -0.7141 -0.0176  0.5442
 5171TIP3   OH215518   2.768   4.633   1.940  0.2466  0.4456  0.9671
 5171TIP3    H115519   2.863   4.629   1.929  0.3600  0.5434  1.8021
 5171TIP3    H215520   2.737   4.684   1.865  0.4023 -2.7564 -1.4614
 5172TIP3   OH215521   3.708   4.467   0.902  0.4134 -0.8195  0.0491
 5172TIP3    H115522   3.710   4.512   0.987 -0.6894  2.6698 -1.5631
 5172TIP3    H215523   3.799   4.468   0.872  0.3156  1.6227 -0.4099
 5173TIP3   OH215524   0.803   4.560   4.583  0.6056  0.3215 -0.8159
 5173TIP3    H115525   0.785   4.475   4.623  1.3329  1.0894  1.3459
 5173TIP3    H215526   0.725   4.613   4.601  0.7095  0.5082 -0.9039
 5174TIP3   OH215527   2.044   2.054   4.171 -0.1667 -0.1830  0.0192
 5174TIP3    H115528   2.104   2.124   4.144  1.2036 -1.8639 -1.6334
 5174TIP3    H215529   2.094   2.002   4.234 -0.3135 -0.8938 -0.4296
 5175TIP3   OH215530   5.771   4.610   4.407 -0.0801  0.3251  0.3519
 5175TIP3    H115531   5.786   4.698   4.372 -0.1357  0.9585  1.8571
 5175TIP3    H215532   5.706   4.571   4.348  0.9806  0.7489 -1.1584
 5176TIP3   OH215533   0.172   3.431   3.049  0.6253 -0.3914  0.3491
 5176TIP3    H115534   0.167   3.526   3.042 -2.6274 -0.3451  1.5681
 5176TIP3    H215535   0.199   3.415   3.140 -0.6233 -0.5647  0.7098
 5177TIP3   OH215536   2.166   5.311   1.408  0.3212 -0.7654  0.0716
 5177TIP3    H115537   2.206   5.391   1.443 -2.4661  1.8111 -2.0712
 5177TIP3    H215538   2.236   5.269   1.358  1.2314  2.0778 -1.2877
 5178TIP3   OH215539   2.021   5.289   4.706 -0.4473 -0.2350  0.0011
 5178TIP3    H115540   2.108   5.315   4.737 -0.3260  0.3753 -0.8090
 5178TIP3    H215541   1.980   5.249   4.782 -0.6642  2.3898  1.3805
 5179TIP3   OH215542   3.820   5.509   2.458  0.4637  0.2269  0.4688
 5179TIP3    H115543   3.785   5.492   2.370  2.9705 -1.1906 -0.3607
 5179TIP3    H215544   3.752   5.477   2.517 -0.5946 -0.3472 -0.9976
 5180TIP3   OH215545   1.737   3.480   2.623  0.3151  0.0468  0.1377
 5180TIP3    H115546   1.735   3.575   2.614 -1.2910  0.2007  1.6890
 5180TIP3    H215547   1.806   3.463   2.687  1.3309  0.0546 -0.9207
 5181TIP3   OH215548   0.668   1.919   0.689 -0.0164 -0.3729  0.0429
 5181TIP3    H115549   0.634   1.974   0.759  1.2399  0.3422  0.1282
 5181TIP3    H215550   0.732   1.862   0.732  0.7142  0.0257 -0.5045
 5182TIP3   OH215551   1.686   5.147   2.342 -0.4493 -0.3218  0.9179
 5182TIP3    H115552   1.638   5.179   2.418 -1.3763 -1.8855  1.0294
 5182TIP3    H215553   1.685   5.052   2.351  0.4386 -0.4910 -0.4467
 5183TIP3   OH215554   4.196   4.822   0.794 -0.2480 -0.1252 -0.3775
 5183TIP3    H115555   4.164   4.792   0.709 -0.7673  0.1140 -0.2710
 5183TIP3    H215556   4.117   4.851   0.841  0.1099  0.3764 -0.0717
 5184TIP3   OH215557   3.141   5.632   2.357  0.1308 -0.2106 -0.1084
 5184TIP3    H115558   3.210   5.586   2.311  0.5206  0.0673  0.1880
 5184TIP3    H215559   3.118   5.575   2.430  0.2397 -0.1782 -0.0491
 5185TIP3   OH215560   2.600   3.017   3.489  0.0248 -0.5243 -0.0692
 5185TIP3    H115561   2.543   2.988   3.418  0.0263 -1.2140  0.1992
 5185TIP3    H215562   2.582   2.956   3.561  0.7721 -0.4754  0.1741
 5186TIP3   OH215563   4.917   1.446   1.832 -0.3664  0.5230  0.1592
 5186TIP3    H115564   4.899   1.451   1.738 -0.7359 -2.0929  0.0240
 5186TIP3    H215565   5.012   1.458   1.839 -0.0007 -1.4221 -0.8353
 5187TIP3   OH215566   2.780   5.903   0.367  0.2072  0.0205  0.1355
 5187TIP3    H115567   2.771   5.958   0.289 -0.9237 -0.1730  0.1038
 5187TIP3    H215568   2.699   5.919   0.416  0.5529 -0.4614  0.8774
 5188TIP3   OH215569   6.203   2.360   0.168 -0.2242  0.2962  0.4909
 5188TIP3    H115570   6.156   2.441   0.146  0.1146  0.7902  1.5045
 5188TIP3    H215571   6.188   2.349   0.262  0.9507 -0.0239  0.6549
 5189TIP3   OH215572   5.188   2.848   0.171  0.2410  0.5675 -0.1273
 5189TIP3    H115573   5.108   2.891   0.141  0.7381  2.0746  0.6243
 5189TIP3    H215574   5.241   2.919   0.208  2.3776 -0.2066 -1.5161
 5190TIP3   OH215575   5.579   5.004   3.327 -0.0529 -0.2791  0.5251
 5190TIP3    H115576   5.486   5.021   3.317  0.0169  0.4149  0.9364
 5190TIP3    H215577   5.596   5.020   3.420  0.8320  1.5482  0.1088
 5191TIP3   OH215578   0.506   4.371   3.868 -0.4473 -0.1769 -0.0266
 5191TIP3    H115579   0.473   4.406   3.952 -2.7003 -0.5273 -0.7068
 5191TIP3    H215580   0.448   4.408   3.802  2.6449  2.0073 -1.8301
 5192TIP3   OH215581   1.553   3.758   0.976  0.4747 -0.1782  0.1729
 5192TIP3    H115582   1.622   3.715   0.925  3.2120 -0.7649  3.9195
 5192TIP3    H215583   1.574   3.851   0.971  1.1799 -0.3000  0.8049
 5193TIP3   OH215584   1.806   2.103   4.280  0.5228 -0.0492 -0.3884
 5193TIP3    H115585   1.878   2.080   4.220  1.3704  0.2402  0.4845
 5193TIP3    H215586   1.751   2.163   4.230  1.1168  0.0450 -0.9384
 5194TIP3   OH215587   6.333   5.500   2.959 -0.6677  0.0368 -0.3528
 5194TIP3    H115588   6.255   5.496   3.015 -0.5005  0.2134 -0.1011
 5194TIP3    H215589   6.380   5.579   2.989 -0.8431  0.4391 -1.1032
 5195TIP3   OH215590   6.175   1.076   0.076 -0.3750 -0.1664  0.2943
 5195TIP3    H115591   6.240   1.023   0.029 -1.5760 -0.9718 -0.5373
 5195TIP3    H215592   6.225   1.120   0.145  0.9815 -1.0010 -0.1090
 5196TIP3   OH215593   5.085   1.918   1.269 -0.1467  0.0314  0.4822
 5196TIP3    H115594   5.165   1.918   1.215 -0.6962 -0.7615 -0.3589
 5196TIP3    H215595   5.070   2.010   1.289  0.8479  0.2122  0.4393
 5197TIP3   OH215596   3.200   5.619   5.190 -0.3990  0.5351  0.2002
 5197TIP3    H115597   3.191   5.582   5.102  0.1027 -0.5227  0.5680
 5197TIP3    H215598   3.126   5.583   5.239  1.5305 -2.3364  1.2972
 5198TIP3   OH215599   3.428   0.208   2.315 -0.1044  0.4892 -0.2113
 5198TIP3    H115600   3.480   0.285   2.339  2.5586 -1.2002 -0.1365
 5198TIP3    H215601   3.493   0.138   2.305 -2.4612 -1.9588  0.5232
 5199TIP3   OH215602   0.130   3.827   0.714  0.2080 -0.2778  0.6280
 5199TIP3    H115603   0.224   3.834   0.695 -0.1301 -0.5240 -1.4347
 5199TIP3    H215604   0.117   3.735   0.734  0.3337 -0.3689  0.3132
 5200TIP3   OH215605   4.550   5.039   2.538  0.6296 -0.1374  0.2030
 5200TIP3    H115606   4.574   5.009   2.450  0.3303 -0.9299  0.3774
 5200TIP3    H215607   4.486   4.974   2.569 -0.8063  1.2356  0.2285
 5201TIP3   OH215608   2.955   3.471   2.939  0.1570 -0.6311 -0.1053
 5201TIP3    H115609   2.903   3.465   3.019 -1.2559 -1.5076 -1.0560
 5201TIP3    H215610   3.045   3.452   2.967 -0.3367 -1.0621  1.2454
 5202TIP3   OH215611   1.262   4.213   2.525 -0.2691 -0.2726 -0.2836
 5202TIP3    H115612   1.354   4.189   2.512 -0.0058  0.7920 -0.5326
 5202TIP3    H215613   1.246   4.196   2.618  0.6028  0.8146  0.0947
 5203TIP3   OH215614   4.855   4.911   2.619  0.2024  0.2700  0.3671
 5203TIP3    H115615   4.847   4.820   2.648  1.8614  0.6622  2.3206
 5203TIP3    H215616   4.931   4.911   2.561  0.6965  0.4995  0.9937
 5204TIP3   OH215617   2.645   2.995   2.481 -0.5946  0.8662 -0.5061
 5204TIP3    H115618   2.582   3.067   2.485 -1.4169  0.2999 -2.1462
 5204TIP3    H215619   2.596   2.918   2.512 -0.3254  0.6657 -0.5709
 5205TIP3   OH215620   3.783   4.390   2.057  0.8460 -0.1621 -0.3817
 5205TIP3    H115621   3.741   4.406   2.141 -1.0727 -1.3484 -1.0503
 5205TIP3    H215622   3.746   4.454   1.997  3.6555  2.0107 -0.0080
 5206TIP3   OH215623   0.367   1.301   2.695  0.6548 -0.2225  0.0028
 5206TIP3    H115624   0.427   1.357   2.745 -0.1215  0.0106  0.7033
 5206TIP3    H215625   0.401   1.303   2.606  0.6685  1.3550  0.0147
 5207TIP3   OH215626   6.082   1.171   1.022  0.2372 -0.1905 -0.5969
 5207TIP3    H115627   6.112   1.259   1.046 -0.0515  0.0147 -0.9865
 5207TIP3    H215628   6.052   1.180   0.932 -3.2487  0.1793  0.4393
 5208TIP3   OH215629   3.965   0.149   0.253 -0.8707  0.1709  0.7841
 5208TIP3    H115630   3.964   0.055   0.233  3.2968 -0.2195  1.4897
 5208TIP3    H215631   3.959   0.192   0.168  1.8573 -1.0083 -0.1235
 5209TIP3   OH215632   2.667   0.491   3.656 -0.3772 -0.3671 -0.3483
 5209TIP3    H115633   2.758   0.472   3.633 -0.3750  0.3165 -0.8956
 5209TIP3    H215634   2.672   0.522   3.747 -0.1932 -1.3149 -0.0129
 5210TIP3   OH215635   3.533   5.716   2.439 -0.2963 -1.0559  0.1188
 5210TIP3    H115636   3.476   5.673   2.377 -1.4978 -1.3787  1.3973
 5210TIP3    H215637   3.508   5.680   2.524 -0.9611  1.6640  1.2001
 5211TIP3   OH215638   0.140   5.393   2.445 -0.0939  0.9336  0.8233
 5211TIP3    H115639   0.159   5.311   2.399 -0.3343 -0.0543  2.4263
 5211TIP3    H215640   0.116   5.366   2.533 -0.7829  2.7105  1.2092
 5212TIP3   OH215641   2.397   1.115   3.364  0.9803 -0.1157  0.5369
 5212TIP3    H115642   2.395   1.020   3.376  1.5840 -0.1797  0.1758
 5212TIP3    H215643   2.485   1.141   3.392  0.3342  0.5545  2.0942
 5213TIP3   OH215644   6.172   2.425   4.192  0.2528  0.0441 -0.1078
 5213TIP3    H115645   6.124   2.360   4.140  0.1794  0.0895 -0.0984
 5213TIP3    H215646   6.263   2.414   4.167  0.3330 -0.5418  0.4077
 5214TIP3   OH215647   4.042   3.568   3.334  0.1430  0.3348  0.2680
 5214TIP3    H115648   3.958   3.586   3.291  0.8871 -0.1035 -1.4716
 5214TIP3    H215649   4.082   3.654   3.343 -0.6942  0.6139  1.6262
 5215TIP3   OH215650   0.201   4.874   1.745  0.2101 -0.5156  0.5415
 5215TIP3    H115651   0.231   4.939   1.808 -0.6924  0.0980  0.3619
 5215TIP3    H215652   0.269   4.807   1.746  1.5753  0.8089  0.1286
 5216TIP3   OH215653   5.753   5.881   3.497 -0.1736  0.3891 -0.6837
 5216TIP3    H115654   5.686   5.929   3.545 -0.5550 -0.8922  0.1056
 5216TIP3    H215655   5.746   5.791   3.528  2.4352  0.3408  0.0079
 5217TIP3   OH215656   5.240   1.919   4.245 -0.2909 -0.1775 -0.6605
 5217TIP3    H115657   5.235   2.012   4.223  2.9286 -0.3016 -2.5937
 5217TIP3    H215658   5.212   1.874   4.165  1.2721 -0.7622 -0.9259
 5218TIP3   OH215659   2.322   3.250   4.664  0.9104 -0.2819 -0.6477
 5218TIP3    H115660   2.416   3.230   4.660  1.1784  1.0179 -1.3820
 5218TIP3    H215661   2.312   3.302   4.743  0.7921 -0.4574 -0.5458
 5219TIP3   OH215662   3.203   0.766   0.120 -0.4176 -0.2860 -0.0264
 5219TIP3    H115663   3.176   0.794   0.032 -0.9039 -0.0660  0.1938
 5219TIP3    H215664   3.239   0.678   0.107 -1.2518 -0.5873 -0.3184
 5220TIP3   OH215665   2.721   4.315   4.442 -0.0298  0.4357  0.2083
 5220TIP3    H115666   2.675   4.305   4.358 -2.3012 -0.4352  1.4593
 5220TIP3    H215667   2.718   4.408   4.461 -2.1410  0.3272  0.6411
 5221TIP3   OH215668   2.239   3.073   1.161 -0.6807 -0.1650  0.1626
 5221TIP3    H115669   2.259   2.980   1.151 -0.4724 -0.0702 -0.3168
 5221TIP3    H215670   2.266   3.113   1.078 -1.1421  0.2603  0.2081
 5222TIP3   OH215671   4.981   1.291   4.939 -0.6313  0.2541 -0.5549
 5222TIP3    H115672   4.904   1.286   4.882 -1.0474  0.5862 -0.0373
 5222TIP3    H215673   4.945   1.312   5.025  0.0247  0.1881 -0.2598
 5223TIP3   OH215674   5.460   0.322   2.584 -0.2216 -0.5365 -0.8459
 5223TIP3    H115675   5.366   0.318   2.595 -0.4372  0.1764 -2.1584
 5223TIP3    H215676   5.474   0.396   2.525  1.1524 -0.6648 -0.7178
 5224TIP3   OH215677   6.228   4.648   3.063 -0.5855  0.0263  0.0435
 5224TIP3    H115678   6.272   4.706   3.000  0.8953 -0.8043  0.2790
 5224TIP3    H215679   6.139   4.638   3.027  0.1728 -0.3210 -1.8538
 5225TIP3   OH215680   6.181   2.730   1.946  0.3843 -0.3445 -0.3927
 5225TIP3    H115681   6.112   2.719   2.011  0.4271 -2.5484 -0.6453
 5225TIP3    H215682   6.136   2.764   1.868 -0.0350  0.1908  0.0711
 5226TIP3   OH215683   2.518   4.377   2.581 -0.2963 -0.2133  0.4396
 5226TIP3    H115684   2.533   4.324   2.503 -2.7694 -0.3293 -0.0333
 5226TIP3    H215685   2.503   4.312   2.651  1.2797 -0.1049  0.9176
 5227TIP3   OH215686   3.300   5.514   1.824 -0.3056  0.1049 -0.6107
 5227TIP3    H115687   3.301   5.428   1.782  2.3957 -0.4589  0.3708
 5227TIP3    H215688   3.354   5.569   1.768  0.5066  0.2877  0.3171
 5228TIP3   OH215689   5.276   4.687   3.095  0.6602 -0.0804 -0.0441
 5228TIP3    H115690   5.330   4.742   3.152  1.5417 -0.1912 -0.7728
 5228TIP3    H215691   5.273   4.733   3.012  0.3504 -0.5087 -0.2754
 5229TIP3   OH215692   5.053   3.513   2.436 -0.4496 -0.1179  0.1191
 5229TIP3    H115693   5.148   3.502   2.429 -0.5157 -0.1275 -1.0433
 5229TIP3    H215694   5.041   3.591   2.490  0.1779 -0.9389  1.5082
 5230TIP3   OH215695   1.456   1.562   0.381 -0.0007  0.9911 -0.4206
 5230TIP3    H115696   1.503   1.555   0.298 -0.6186  0.9333 -0.7749
 5230TIP3    H215697   1.382   1.501   0.372 -0.4206  1.4374 -0.0760
 5231TIP3   OH215698   0.135   4.669   3.530  1.0435 -0.1014 -0.0971
 5231TIP3    H115699   0.066   4.647   3.467 -0.2856 -0.3354  1.3711
 5231TIP3    H215700   0.161   4.758   3.506 -2.2467  1.4367  1.3004
 5232TIP3   OH215701   0.419   1.538   3.497  0.1526 -0.3286 -0.4026
 5232TIP3    H115702   0.351   1.474   3.517 -0.0081 -0.4150 -1.1987
 5232TIP3    H215703   0.379   1.597   3.434  0.3874  0.4116  0.1170
 5233TIP3   OH215704   0.270   3.321   2.818 -0.8210 -0.4170  0.5448
 5233TIP3    H115705   0.176   3.320   2.799 -0.8139 -1.7252  0.4429
 5233TIP3    H215706   0.277   3.344   2.910 -1.0364  2.7955 -0.1142
 5234TIP3   OH215707   3.819   2.049   5.156  0.5018  0.6487 -0.0428
 5234TIP3    H115708   3.817   2.081   5.247  0.3962  0.7766 -0.0895
 5234TIP3    H215709   3.873   2.114   5.110  0.0069  0.9452 -0.2090
 5235TIP3   OH215710   3.307   5.151   3.061  0.2798  0.0841  0.1484
 5235TIP3    H115711   3.358   5.232   3.058 -0.5331  0.6692  1.5536
 5235TIP3    H215712   3.245   5.160   2.988  1.6761 -0.3391 -1.1541
 5236TIP3   OH215713   2.546   4.361   1.301 -0.7713 -0.0104  0.3673
 5236TIP3    H115714   2.489   4.354   1.224 -0.6331  0.3081  0.2372
 5236TIP3    H215715   2.616   4.420   1.274 -0.8579  0.3002  0.8225
 5237TIP3   OH215716   1.500   5.175   4.819  0.3222  0.0428 -0.2802
 5237TIP3    H115717   1.558   5.247   4.796 -0.0510  0.2136 -0.6863
 5237TIP3    H215718   1.487   5.185   4.914 -1.1308  1.5702 -0.6021
 5238TIP3   OH215719   4.509   3.076   3.006  0.3051  0.2786  0.4980
 5238TIP3    H115720   4.429   3.024   3.019 -0.3933  1.3749  0.7467
 5238TIP3    H215721   4.566   3.020   2.954 -0.3684 -0.7806  0.8630
 5239TIP3   OH215722   0.864   2.828   4.181  0.2797  0.4357 -0.3064
 5239TIP3    H115723   0.835   2.909   4.223  1.4608  1.2198 -0.9445
 5239TIP3    H215724   0.960   2.832   4.185  0.4985  0.7055 -3.2853
 5240TIP3   OH215725   2.754   0.743   4.725 -0.3280 -0.5354  0.2912
 5240TIP3    H115726   2.665   0.772   4.708 -0.7209 -1.7793  0.1409
 5240TIP3    H215727   2.784   0.798   4.798 -1.6246 -0.8896  1.1138
 5241TIP3   OH215728   2.371   0.810   3.286 -0.1025 -0.1757 -0.2226
 5241TIP3    H115729   2.291   0.854   3.259  0.8950  1.0021 -1.4234
 5241TIP3    H215730   2.379   0.735   3.227  0.1405  0.2389 -0.7241
 5242TIP3   OH215731   2.523   5.645   2.963  0.4419 -0.5193 -0.1069
 5242TIP3    H115732   2.471   5.568   2.938 -1.8640 -0.0816  2.8029
 5242TIP3    H215733   2.612   5.623   2.936 -0.3493 -3.6411 -0.6179
 5243TIP3   OH215734   3.482   3.632   4.349  0.1173 -0.2503 -0.1541
 5243TIP3    H115735   3.431   3.635   4.268 -0.1067 -1.7513 -0.0985
 5243TIP3    H215736   3.573   3.635   4.320  0.0383 -0.7742 -0.4822
 5244TIP3   OH215737   5.223   4.545   1.729  0.1192  0.0760 -0.4373
 5244TIP3    H115738   5.218   4.490   1.808 -2.3635  1.2571  0.3138
 5244TIP3    H215739   5.173   4.497   1.663 -1.2339  0.9267 -0.0622
 5245TIP3   OH215740   4.083   1.436   2.494 -0.1405  0.7861  0.3078
 5245TIP3    H115741   4.057   1.447   2.402  1.1243 -0.2323 -0.2011
 5245TIP3    H215742   4.000   1.435   2.542 -0.8340  1.1293 -0.8494
 5246TIP3   OH215743   4.014   0.253   3.689  0.7200 -0.0984 -0.1687
 5246TIP3    H115744   3.924   0.268   3.661  0.9290  0.6373 -0.4820
 5246TIP3    H215745   4.034   0.164   3.660  0.2935 -0.0457 -0.6359
 5247TIP3   OH215746   2.630   1.092   2.280 -0.4992  0.1604  0.3100
 5247TIP3    H115747   2.638   1.038   2.201 -0.0934 -1.5586  1.4867
 5247TIP3    H215748   2.584   1.171   2.250  1.0253  0.2830 -1.9776
 5248TIP3   OH215749   3.588   4.532   0.633  0.1464  0.4763 -0.0012
 5248TIP3    H115750   3.594   4.468   0.704 -1.3779  1.4732  1.0851
 5248TIP3    H215751   3.669   4.583   0.640  0.6087 -0.2599  0.1673
 5249TIP3   OH215752   3.069   3.317   2.639  0.8963  0.4663 -0.1182
 5249TIP3    H115753   3.061   3.338   2.732 -1.3362 -0.0328 -0.1283
 5249TIP3    H215754   3.152   3.271   2.631  1.8511  1.8524  1.3426
 5250TIP3   OH215755   1.535   4.866   1.076  0.0396 -0.1002 -0.0849
 5250TIP3    H115756   1.584   4.847   0.996 -0.0892  0.4781 -0.3029
 5250TIP3    H215757   1.601   4.893   1.140 -0.0794  1.7183 -0.6896
 5251TIP3   OH215758   4.213   2.883   1.287 -0.6816 -0.1782  0.0676
 5251TIP3    H115759   4.278   2.813   1.284 -1.0714 -0.5800  0.6297
 5251TIP3    H215760   4.184   2.894   1.197 -1.0777 -1.1927  0.0537
 5252TIP3   OH215761   2.580   1.914   1.310 -0.8965  0.7491  0.4497
 5252TIP3    H115762   2.607   1.942   1.223  0.7260  0.6899  0.8998
 5252TIP3    H215763   2.662   1.909   1.360 -1.8503  1.3947  2.1618
 5253TIP3   OH215764   2.831   0.919   3.771 -0.4642  0.7175  0.2304
 5253TIP3    H115765   2.750   0.919   3.720 -0.6026  0.7068  0.4528
 5253TIP3    H215766   2.893   0.969   3.717 -0.7992  1.2701  0.3512
 5254TIP3   OH215767   2.201   5.256   2.523  0.0456 -0.2487 -0.1711
 5254TIP3    H115768   2.135   5.228   2.459  1.4744 -0.7125 -1.4938
 5254TIP3    H215769   2.193   5.192   2.594 -0.7801 -0.4173 -0.4035
 5255TIP3   OH215770   5.007   2.573   2.467  0.1359 -0.3616  0.5901
 5255TIP3    H115771   5.031   2.484   2.494  0.2282 -0.2186  0.9830
 5255TIP3    H215772   4.922   2.562   2.423 -0.3299 -0.5214  1.4964
 5256TIP3   OH215773   1.108   0.907   4.686 -0.3728 -0.5640 -0.3228
 5256TIP3    H115774   1.046   0.963   4.640  0.0956  0.9766  0.8217
 5256TIP3    H215775   1.060   0.826   4.703 -1.7407  0.2267 -0.3050
 5257TIP3   OH215776   4.272   0.447   1.394 -0.4120  0.0900  0.2188
 5257TIP3    H115777   4.272   0.378   1.461  1.1820  0.6118  0.8069
 5257TIP3    H215778   4.186   0.488   1.403 -0.7092 -0.6691  1.0852
 5258TIP3   OH215779   0.970   4.065   2.649 -0.3374 -0.2722  0.0192
 5258TIP3    H115780   1.038   4.094   2.589  0.7486  0.7070  1.6637
 5258TIP3    H215781   0.888   4.082   2.602  0.4025  2.0148 -0.5653
 5259TIP3   OH215782   4.480   5.424   3.044  0.6633  0.4079  0.1790
 5259TIP3    H115783   4.465   5.350   2.985  1.3853  1.8875 -1.9896
 5259TIP3    H215784   4.537   5.388   3.112 -0.2268 -1.3831  0.0498
 5260TIP3   OH215785   6.080   0.992   2.320 -0.4802  0.2184 -0.0683
 5260TIP3    H115786   6.133   0.989   2.240 -1.7240  1.0185 -0.9531
 5260TIP3    H215787   6.006   1.049   2.298 -0.7229  0.6705  1.7363
 5261TIP3   OH215788   0.291   1.875   2.695 -0.1215 -0.1370 -0.1691
 5261TIP3    H115789   0.252   1.947   2.745  0.7806 -0.2510  0.7113
 5261TIP3    H215790   0.385   1.895   2.693 -0.1589  0.0435 -2.1110
 5262TIP3   OH215791   5.030   4.112   0.267 -0.3292 -0.4358 -0.2076
 5262TIP3    H115792   4.950   4.157   0.242  1.0283  2.6403  0.4984
 5262TIP3    H215793   5.021   4.097   0.361 -0.3341 -0.6883 -0.2471
 5263TIP3   OH215794   2.434   0.921   2.724  0.2792  0.2909 -0.0977
 5263TIP3    H115795   2.514   0.973   2.727  0.7443 -0.3621 -0.8328
 5263TIP3    H215796   2.399   0.934   2.636 -1.9282  2.7118  0.9819
 5264TIP3   OH215797   2.110   4.489   0.281 -0.1683  0.2473 -0.2122
 5264TIP3    H115798   2.157   4.445   0.351 -0.1995  1.6453  0.7300
 5264TIP3    H215799   2.171   4.487   0.206 -0.4819 -2.0207 -0.4635
 5265TIP3   OH215800   3.903   3.098   4.197 -0.3475 -0.2448 -0.3158
 5265TIP3    H115801   3.832   3.104   4.261 -0.4779 -0.0210 -0.4782
 5265TIP3    H215802   3.920   3.004   4.189 -2.9828 -0.6719 -2.7979
 5266TIP3   OH215803   4.353   4.573   3.271  0.1790  0.1441  0.2209
 5266TIP3    H115804   4.404   4.567   3.190 -0.2380 -3.0131  0.0474
 5266TIP3    H215805   4.406   4.526   3.336 -1.0831 -0.4722  0.8334
 5267TIP3   OH215806   1.284   3.806   0.859 -0.5198  0.1938 -0.1128
 5267TIP3    H115807   1.328   3.812   0.944 -1.5673 -0.0555  0.4703
 5267TIP3    H215808   1.344   3.847   0.797  1.7671 -2.5031  0.1407
 5268TIP3   OH215809   5.965   1.924   4.436  0.5496 -0.2302 -0.0591
 5268TIP3    H115810   6.060   1.938   4.441  0.3216  1.0972  1.4418
 5268TIP3    H215811   5.940   1.902   4.526 -0.4962 -1.2666 -0.5740
 5269TIP3   OH215812   5.403   2.442   0.984  0.1987  0.0422  0.0035
 5269TIP3    H115813   5.322   2.402   1.017  0.0270 -0.6233 -1.1820
 5269TIP3    H215814   5.453   2.463   1.063 -0.5361 -0.7952  0.7116
 5270TIP3   OH215815   0.432   4.765   2.576  0.0681  0.0693 -0.4241
 5270TIP3    H115816   0.502   4.752   2.512  1.2727  0.2159  0.8376
 5270TIP3    H215817   0.381   4.838   2.542  1.4869  1.0241 -0.5460
 5271TIP3   OH215818   4.202   3.098   4.061 -0.0619 -0.2412  0.4772
 5271TIP3    H115819   4.254   3.045   4.121 -1.1974 -1.8127  0.1403
 5271TIP3    H215820   4.228   3.068   3.974 -0.3719  0.1038  0.2641
 5272TIP3   OH215821   0.575   0.224   0.416 -0.0108  0.5982 -0.6731
 5272TIP3    H115822   0.533   0.183   0.492  1.7046 -0.4905 -0.2512
 5272TIP3    H215823   0.520   0.198   0.342  0.5431 -1.8961 -0.3153
 5273TIP3   OH215824   5.128   5.243   0.274  0.2177  0.1588  0.2276
 5273TIP3    H115825   5.093   5.160   0.304 -3.3628  0.5365 -2.2940
 5273TIP3    H215826   5.187   5.220   0.202  1.1846 -0.2389  1.1206
 5274TIP3   OH215827   2.915   0.231   2.147 -0.3522 -0.1593  0.1200
 5274TIP3    H115828   2.988   0.275   2.190 -0.5954  0.1812  0.1927
 5274TIP3    H215829   2.841   0.290   2.159 -0.6036 -0.4257 -0.0911
 5275TIP3   OH215830   2.673   5.333   0.828  0.3966 -0.4328  0.7343
 5275TIP3    H115831   2.740   5.313   0.762 -0.3006  0.3609 -0.2398
 5275TIP3    H215832   2.683   5.427   0.844 -0.6390 -0.2461  0.3775
 5276TIP3   OH215833   0.792   2.715   4.425  0.5610 -0.0224 -0.0850
 5276TIP3    H115834   0.796   2.758   4.340  1.2114  1.5733  0.6874
 5276TIP3    H215835   0.839   2.775   4.484 -0.0829 -0.9442  1.4447
 5277TIP3   OH215836   1.493   4.388   1.932 -0.2905 -0.0656  0.0062
 5277TIP3    H115837   1.573   4.391   1.984 -0.1435  1.3080 -0.2622
 5277TIP3    H215838   1.422   4.397   1.997 -0.1244  1.1470  0.0573
 5278TIP3   OH215839   2.571   0.342   1.794 -0.2718  0.2991  0.1320
 5278TIP3    H115840   2.514   0.268   1.814 -1.8260  1.4131 -0.0099
 5278TIP3    H215841   2.591   0.332   1.701  1.3449 -1.1129  0.5840
 5279TIP3   OH215842   2.408   0.847   4.303  0.1419 -0.0454  0.1995
 5279TIP3    H115843   2.325   0.808   4.331 -0.4581  0.9132 -0.2193
 5279TIP3    H215844   2.474   0.801   4.356 -0.6600 -0.6620  0.6988
 5280TIP3   OH215845   1.254   1.377   2.488 -0.1643  0.7423 -0.5841
 5280TIP3    H115846   1.261   1.288   2.453 -3.8491 -0.2975  0.8142
 5280TIP3    H215847   1.196   1.422   2.428  1.8925  2.4305 -1.4345
 5281TIP3   OH215848   4.000   2.027   2.461 -0.3643 -0.4544  0.2418
 5281TIP3    H115849   4.058   2.062   2.529 -0.0654  0.6947 -0.5672
 5281TIP3    H215850   3.913   2.032   2.500 -0.1975  0.1595  0.5625
 5282TIP3   OH215851   5.241   1.387   2.803 -0.3909  0.1812  0.4241
 5282TIP3    H115852   5.293   1.323   2.755  1.5935  1.3615  0.8874
 5282TIP3    H215853   5.152   1.375   2.770  0.2656 -1.4817 -0.8883
 5283TIP3   OH215854   3.916   4.927   2.940  0.7163 -0.3888  0.4428
 5283TIP3    H115855   3.883   4.849   2.897 -0.4169  0.0378  0.5220
 5283TIP3    H215856   3.982   4.894   3.002  0.9039 -1.1810 -0.1576
 5284TIP3   OH215857   6.087   3.653   0.008  0.2644  0.0636  0.1309
 5284TIP3    H115858   6.126   3.714   0.070 -0.3910 -0.1535  0.7735
 5284TIP3    H215859   6.128   3.569   0.028 -1.6937 -0.5518  1.9975
 5285TIP3   OH215860   5.576   2.763   3.885 -0.5449  0.1331 -0.3420
 5285TIP3    H115861   5.661   2.728   3.912 -1.1667 -0.3987  1.0457
 5285TIP3    H215862   5.515   2.691   3.902 -1.4344  0.9079 -0.1991
 5286TIP3   OH215863   2.021   2.609   3.527  0.3959 -0.2416  0.4836
 5286TIP3    H115864   2.023   2.588   3.434 -0.0775  0.2633  0.3525
 5286TIP3    H215865   2.112   2.599   3.556  0.4867 -0.7160  0.0445
 5287TIP3   OH215866   2.352   2.225   3.210 -0.0994  0.2089  0.2761
 5287TIP3    H115867   2.370   2.139   3.250 -0.4241  0.0159  0.0103
 5287TIP3    H215868   2.262   2.218   3.179 -0.6863  1.1786  1.6337
 5288TIP3   OH215869   1.920   0.234   0.008  0.2737  0.1359 -1.1019
 5288TIP3    H115870   1.828   0.260   0.014  0.1752  0.1383 -2.3266
 5288TIP3    H215871   1.969   0.313   0.034 -0.0231 -0.7118  2.4863
 5289TIP3   OH215872   2.129   0.892   3.181  0.3076 -0.6353  1.0012
 5289TIP3    H115873   2.143   0.986   3.168  3.6766 -0.7977  2.5233
 5289TIP3    H215874   2.128   0.856   3.092 -2.1827  0.8398  0.3111
 5290TIP3   OH215875   1.032   2.593   3.974 -0.3402  0.1300 -0.3156
 5290TIP3    H115876   0.963   2.540   4.014  0.4022  0.2029  1.1332
 5290TIP3    H215877   1.041   2.558   3.885 -0.5479 -1.5347  0.2771
 5291TIP3   OH215878   0.416   1.762   3.799  0.1284  0.0801 -0.2612
 5291TIP3    H115879   0.350   1.830   3.785 -0.0601 -0.3989 -2.0116
 5291TIP3    H215880   0.367   1.688   3.834 -0.4874 -0.5483 -2.2904
 5292TIP3   OH215881   1.640   5.280   4.332 -0.0372  0.5421 -0.1409
 5292TIP3    H115882   1.629   5.246   4.421 -1.5488 -0.2235 -0.5841
 5292TIP3    H215883   1.733   5.301   4.326 -0.1865  2.2216  2.1597
 5293TIP3   OH215884   0.238   4.007   4.818  0.1696  0.3251 -0.3716
 5293TIP3    H115885   0.153   4.049   4.803 -0.5291 -0.5766  0.8794
 5293TIP3    H215886   0.218   3.931   4.872  1.8121  0.2375  0.1784
 5294TIP3   OH215887   3.800   5.129   2.227  0.3820 -0.1011 -0.1135
 5294TIP3    H115888   3.760   5.125   2.314 -1.2780  0.4281 -0.7991
 5294TIP3    H215889   3.790   5.221   2.201  0.8189 -0.2597 -0.8685
 5295TIP3   OH215890   5.177   5.414   3.139  0.1336  0.1479  0.3391
 5295TIP3    H115891   5.236   5.373   3.203  0.9506  1.0863  0.2138
 5295TIP3    H215892   5.169   5.505   3.169  3.2499  1.6191 -2.6123
 5296TIP3   OH215893   4.894   2.718   4.506 -0.8772 -0.8208  0.3696
 5296TIP3    H115894   4.835   2.791   4.524 -0.5405 -0.7036  1.0062
 5296TIP3    H215895   4.979   2.759   4.490 -0.8394 -1.0280  0.0312
 5297TIP3   OH215896   4.074   4.641   3.981 -0.3442  0.3820 -0.6320
 5297TIP3    H115897   3.986   4.643   4.018 -1.0084 -0.8423 -2.0795
 5297TIP3    H215898   4.130   4.610   4.053 -1.5554 -1.6819 -0.5323
 5298TIP3   OH215899   4.896   3.334   0.991  0.1698 -0.2843 -0.2381
 5298TIP3    H115900   4.868   3.390   1.064  0.1236 -1.6137  0.7972
 5298TIP3    H215901   4.984   3.304   1.015  0.3598 -0.3435 -0.9703
 5299TIP3   OH215902   4.634   2.729   2.392  0.4159 -0.6875  0.1810
 5299TIP3    H115903   4.618   2.707   2.483  2.0689  1.1691  1.0016
 5299TIP3    H215904   4.560   2.784   2.367 -0.1653 -1.4020  0.3133
 5300TIP3   OH215905   4.531   4.266   0.928 -0.2412  0.2911 -0.5514
 5300TIP3    H115906   4.520   4.245   0.835 -0.8705  1.1558 -0.6848
 5300TIP3    H215907   4.523   4.182   0.973  0.2527 -0.1641 -1.2903
 5301TIP3   OH215908   5.412   2.811   0.493 -0.1430  0.0893  0.3408
 5301TIP3    H115909   5.397   2.717   0.499 -0.8045  0.2120  0.6891
 5301TIP3    H215910   5.437   2.825   0.402  1.7854 -0.6614  0.7126
 5302TIP3   OH215911   5.530   4.261   4.922  0.2242 -0.7737 -0.3152
 5302TIP3    H115912   5.481   4.310   4.856  1.4522 -1.0966 -1.5200
 5302TIP3    H215913   5.540   4.174   4.885 -0.7309 -1.5626  1.1908
 5303TIP3   OH215914   1.050   1.968   1.024  0.5773 -0.4200 -0.3802
 5303TIP3    H115915   1.040   2.006   0.936  0.7106  2.0627  0.5969
 5303TIP3    H215916   1.136   1.926   1.022  0.1946 -1.2212 -1.6836
 5304TIP3   OH215917   0.681   4.761   0.948  0.4861  0.6799  0.4360
 5304TIP3    H115918   0.662   4.673   0.979  0.5800  0.4140 -0.2475
 5304TIP3    H215919   0.665   4.817   1.024  2.4011 -0.1225  1.5067
 5305TIP3   OH215920   0.811   1.598   3.431 -0.5154 -0.1728  0.4936
 5305TIP3    H115921   0.803   1.502   3.425 -2.2743 -0.1699  1.8301
 5305TIP3    H215922   0.725   1.626   3.462  0.3123  1.7508  1.1550
 5306TIP3   OH215923   0.359   3.833   5.132 -0.0192  0.2755  0.0485
 5306TIP3    H115924   0.336   3.894   5.202  0.5998  1.6651 -0.9107
 5306TIP3    H215925   0.377   3.750   5.178 -0.4824  0.8987  1.4263
 5307TIP3   OH215926   3.461   1.147   0.694  0.2473 -0.1864  0.3399
 5307TIP3    H115927   3.545   1.103   0.703 -0.5151 -1.5748  0.9824
 5307TIP3    H215928   3.421   1.109   0.616  0.4930  0.9766 -0.3721
 5308TIP3   OH215929   1.338   3.968   1.118 -0.7606 -0.4810 -0.2889
 5308TIP3    H115930   1.275   3.950   1.188 -0.3599  0.4982  0.3525
 5308TIP3    H215931   1.399   3.894   1.121 -0.4290 -0.1900  0.7953
 5309TIP3   OH215932   5.449   2.490   2.049 -0.2948 -0.4827 -0.0162
 5309TIP3    H115933   5.500   2.544   2.110  1.4710  0.1132 -1.9501
 5309TIP3    H215934   5.373   2.463   2.101  0.5538  0.9110  2.1108
 5310TIP3   OH215935   5.012   5.936   4.473  0.2391 -0.3634 -0.0875
 5310TIP3    H115936   4.921   5.964   4.474  0.3448 -0.0193  0.9540
 5310TIP3    H215937   5.012   5.856   4.420 -0.5247  0.0679 -0.7658
 5311TIP3   OH215938   4.066   2.136   4.601 -0.3257  0.0431 -0.7839
 5311TIP3    H115939   4.032   2.050   4.626  0.0004  0.3309  0.7322
 5311TIP3    H215940   3.989   2.184   4.572 -0.4559 -0.8695 -2.0757
 5312TIP3   OH215941   5.614   1.616   4.569 -0.1685  0.3917  0.3451
 5312TIP3    H115942   5.673   1.542   4.556  0.1163  1.0269 -2.8215
 5312TIP3    H215943   5.532   1.589   4.528 -0.6545  1.1686  0.7790
 5313TIP3   OH215944   1.267   4.439   1.394 -0.1132 -0.2444  0.0923
 5313TIP3    H115945   1.310   4.358   1.424  0.0191 -1.4934 -2.9915
 5313TIP3    H215946   1.301   4.451   1.305 -2.8392  1.2111 -0.8480
 5314TIP3   OH215947   5.273   2.742   3.509  0.6114  0.1891  0.0949
 5314TIP3    H115948   5.229   2.700   3.435 -0.2110 -0.7728  1.0900
 5314TIP3    H215949   5.329   2.673   3.546  1.5264  0.8552 -0.0222
 5315TIP3   OH215950   3.215   3.113   2.824  0.3826  0.0869  0.0503
 5315TIP3    H115951   3.270   3.097   2.747 -1.2522 -0.8413 -0.9872
 5315TIP3    H215952   3.273   3.156   2.886  1.9971  0.0735 -1.3677
 5316TIP3   OH215953   0.403   1.984   1.274  0.0503 -0.1187 -0.2898
 5316TIP3    H115954   0.454   2.064   1.286 -0.3513  0.1077 -0.0679
 5316TIP3    H215955   0.445   1.940   1.200 -1.0519  1.3520 -1.8778
 5317TIP3   OH215956   5.826   1.894   3.999 -0.5387 -0.5178  0.0419
 5317TIP3    H115957   5.856   1.982   3.978 -1.4172 -0.0449  0.7218
 5317TIP3    H215958   5.760   1.875   3.933 -1.8072  0.1495  1.0857
 5318TIP3   OH215959   4.326   4.261   4.463  0.1431 -0.1216  0.1523
 5318TIP3    H115960   4.367   4.343   4.434 -1.3752  1.1707  1.3936
 5318TIP3    H215961   4.339   4.261   4.558 -0.0715 -1.2069  0.1846
 5319TIP3   OH215962   5.498   2.103   3.494  0.1448  0.6473  0.2685
 5319TIP3    H115963   5.434   2.172   3.481 -0.0341  0.5619  0.6923
 5319TIP3    H215964   5.457   2.042   3.555  0.6789  0.6628  0.6553
 5320TIP3   OH215965   5.041   2.381   3.392 -0.2377 -0.3622 -0.1500
 5320TIP3    H115966   4.983   2.328   3.447  0.7081 -0.9607  0.2846
 5320TIP3    H215967   5.042   2.336   3.308  0.5749 -1.0566  0.2216
 5321TIP3   OH215968   2.907   4.294   1.935  0.4825 -0.0714  0.1208
 5321TIP3    H115969   2.941   4.205   1.923 -0.5040 -0.2601 -1.5192
 5321TIP3    H215970   2.814   4.287   1.917 -0.0302  0.9299  2.0587
 5322TIP3   OH215971   3.556   1.170   1.619 -0.3521 -0.3427 -0.1964
 5322TIP3    H115972   3.649   1.194   1.614 -0.4878  1.0283  2.0984
 5322TIP3    H215973   3.512   1.252   1.640 -1.8529 -1.3046  0.5597
 5323TIP3   OH215974   1.028   1.587   0.967  0.4939 -0.2407  0.3029
 5323TIP3    H115975   1.023   1.494   0.991 -0.7684 -0.3237 -0.2265
 5323TIP3    H215976   0.967   1.630   1.026  0.4811  0.1419  0.0121
 5324TIP3   OH215977   0.397   2.954   0.583 -0.5229  0.6317  0.8479
 5324TIP3    H115978   0.332   2.884   0.592 -0.5597  0.7050  1.1779
 5324TIP3    H215979   0.480   2.911   0.602 -0.1127 -0.0697 -1.9989
 5325TIP3   OH215980   0.921   5.148   4.285 -0.2111 -0.5571 -0.2336
 5325TIP3    H115981   0.979   5.083   4.245  0.4395  0.4135 -0.9263
 5325TIP3    H215982   0.873   5.186   4.211  0.3011  0.5859 -0.0046
 5326TIP3   OH215983   2.412   1.434   2.545  0.3571  0.0572 -0.2698
 5326TIP3    H115984   2.413   1.350   2.591 -1.2683  0.1539 -0.0199
 5326TIP3    H215985   2.497   1.474   2.566  0.3447 -0.6478  1.2294
 5327TIP3   OH215986   2.825   4.054   2.794  0.7420 -0.6293 -0.2345
 5327TIP3    H115987   2.862   4.026   2.710 -0.5803 -0.8382 -0.7708
 5327TIP3    H215988   2.889   4.025   2.859  0.4234 -3.1256 -0.9312
 5328TIP3   OH215989   2.868   1.841   1.960  0.4175  0.1008  0.3190
 5328TIP3    H115990   2.882   1.903   1.888 -0.6125  0.2263  0.2170
 5328TIP3    H215991   2.821   1.891   2.026 -1.1911 -0.7797 -0.1152
 5329TIP3   OH215992   5.278   0.754   0.487 -0.4279 -0.3476 -0.4561
 5329TIP3    H115993   5.373   0.762   0.494 -0.4793 -0.7169  0.8373
 5329TIP3    H215994   5.247   0.844   0.478 -0.0822 -0.0783  0.9537
 5330TIP3   OH215995   0.373   1.258   3.104  0.0457  0.7918  0.2192
 5330TIP3    H115996   0.439   1.300   3.048  1.6850 -2.0686 -0.1968
 5330TIP3    H215997   0.294   1.311   3.091  1.0621  1.8233 -2.7724
 5331TIP3   OH215998   1.651   2.067   3.143  0.2393 -0.2017  0.6922
 5331TIP3    H115999   1.718   1.999   3.142 -0.1928 -0.6387  1.2037
 5331TIP3    H216000   1.568   2.021   3.129 -0.1619  0.0803  1.9884
 5332TIP3   OH216001   4.123   5.000   2.428  0.4511  0.1808 -0.1377
 5332TIP3    H116002   4.038   5.027   2.461  0.4206  0.2190 -0.2502
 5332TIP3    H216003   4.185   5.057   2.474  0.4669 -0.2923  0.4470
 5333TIP3   OH216004   0.052   0.761   2.287 -0.3193  0.3777 -0.6888
 5333TIP3    H116005   0.071   0.853   2.307 -0.3216  0.1023  0.6848
 5333TIP3    H216006  -0.012   0.736   2.354  2.1066 -1.5477  1.0843
 5334TIP3   OH216007   0.392   2.193   0.094  0.7765  0.4327  0.3020
 5334TIP3    H116008   0.468   2.189   0.151  1.8760  1.4537 -1.0170
 5334TIP3    H216009   0.409   2.128   0.026 -0.1563 -0.2476  0.7028
 5335TIP3   OH216010   0.932   0.128   1.916  0.3229  0.6535 -0.1462
 5335TIP3    H116011   0.961   0.195   1.854  1.0500 -0.1791 -0.7328
 5335TIP3    H216012   0.898   0.177   1.990  0.8993  1.6733 -0.5366
 5336TIP3   OH216013   0.170   1.853   1.317 -0.0691 -0.0296  0.2593
 5336TIP3    H116014   0.122   1.865   1.236 -0.8108  2.2094  0.9648
 5336TIP3    H216015   0.252   1.900   1.304  0.1674 -0.3648  0.5207
 5337TIP3   OH216016   0.372   0.675   3.028 -0.1358 -0.4162 -0.4160
 5337TIP3    H116017   0.353   0.712   2.942  0.9317 -0.0028 -0.4912
 5337TIP3    H216018   0.409   0.749   3.077 -0.0048 -0.8497  0.1400
 5338TIP3   OH216019   2.320   1.124   2.863 -0.0634  0.1710 -0.2296
 5338TIP3    H116020   2.316   1.066   2.787 -0.8320  0.8401 -0.7243
 5338TIP3    H216021   2.392   1.090   2.916 -0.8736 -1.5986 -0.1942
 5339TIP3   OH216022   4.048   3.889   4.435 -0.0574 -0.2462  0.2547
 5339TIP3    H116023   4.021   3.818   4.377 -0.4853  1.2702 -1.4984
 5339TIP3    H216024   4.035   3.854   4.523  0.9736 -2.7830 -0.4947
 5340TIP3   OH216025   1.974   3.278   3.604  0.3466  0.3977  0.4013
 5340TIP3    H116026   2.019   3.197   3.626  0.8355 -0.7596 -3.9803
 5340TIP3    H216027   1.881   3.254   3.601  0.4573  0.0321 -0.5115
 5341TIP3   OH216028   3.431   2.543   3.708 -0.0441 -0.0277 -0.5009
 5341TIP3    H116029   3.371   2.499   3.769  1.0223 -1.0748 -0.1783
 5341TIP3    H216030   3.446   2.629   3.748 -0.3109 -0.2439  0.0876
 5342TIP3   OH216031   1.555   3.612   1.964  0.1039  0.4174  0.2486
 5342TIP3    H116032   1.566   3.625   2.058  0.0780 -0.2811  0.3562
 5342TIP3    H216033   1.471   3.653   1.943  1.1841  2.6932  0.0726
 5343TIP3   OH216034   1.048   5.847   0.645  0.3944 -0.2707 -0.2730
 5343TIP3    H116035   1.143   5.862   0.643  0.3439  0.0140 -1.5912
 5343TIP3    H216036   1.013   5.907   0.578 -0.6260 -0.9416 -0.3583
 5344TIP3   OH216037   3.004   3.503   4.081 -0.3227 -0.5020 -0.1131
 5344TIP3    H116038   2.976   3.458   4.000 -0.0124  0.0641 -0.5426
 5344TIP3    H216039   2.924   3.509   4.133 -0.3870 -1.4856 -0.0788
 5345TIP3   OH216040   3.255   0.583   2.665 -0.6852  0.3553  0.0052
 5345TIP3    H116041   3.313   0.563   2.739 -0.6228 -0.6411 -0.2920
 5345TIP3    H216042   3.310   0.633   2.605 -0.8148  1.4092  0.7406
 5346TIP3   OH216043   5.195   2.062   3.149 -0.1630  0.4574  0.1141
 5346TIP3    H116044   5.265   2.063   3.084 -1.0212 -1.4819 -0.9323
 5346TIP3    H216045   5.206   1.979   3.195 -0.7893  0.8890  1.0757
 5347TIP3   OH216046   0.257   0.439   3.950  0.2995  0.2700 -0.1724
 5347TIP3    H116047   0.282   0.521   3.908 -0.7060 -0.1380 -1.6371
 5347TIP3    H216048   0.271   0.372   3.883  0.1480 -0.6253  0.6653
 5348TIP3   OH216049   1.604   1.639   3.738  0.0966 -0.6995  0.1867
 5348TIP3    H116050   1.683   1.681   3.773 -0.0135 -1.2234  1.1146
 5348TIP3    H216051   1.635   1.585   3.666  0.2024  1.1669 -1.2266
 5349TIP3   OH216052   4.733   3.610   5.067 -0.1904  0.2578 -0.4656
 5349TIP3    H116053   4.757   3.653   4.986 -1.9706 -2.9173 -2.9122
 5349TIP3    H216054   4.643   3.639   5.084  1.0662  3.1533  2.1858
 5350TIP3   OH216055   3.157   5.167   2.823  0.2575 -0.0395 -0.2161
 5350TIP3    H116056   3.126   5.088   2.779  1.5884 -1.0938  0.6688
 5350TIP3    H216057   3.214   5.209   2.758  0.9587 -0.7587 -0.0836
 5351TIP3   OH216058   4.533   1.413   1.009 -0.1125 -0.0751 -0.2122
 5351TIP3    H116059   4.555   1.484   1.070  1.6195 -0.1468 -0.7065
 5351TIP3    H216060   4.607   1.353   1.015 -2.1898 -2.6683  1.2637
 5352TIP3   OH216061   2.186   1.664   0.118 -0.3783  0.1138 -0.0479
 5352TIP3    H116062   2.107   1.624   0.082  0.0952 -1.8615  0.9542
 5352TIP3    H216063   2.214   1.726   0.051 -1.4979 -0.8318 -1.4508
 5353TIP3   OH216064   4.680   0.400   5.130  0.2968 -0.1562 -0.1700
 5353TIP3    H116065   4.613   0.399   5.199  1.0913  1.8701  0.7030
 5353TIP3    H216066   4.749   0.342   5.163  1.4233  2.0421  1.6357
 5354TIP3   OH216067   3.034   4.025   1.240  0.4172 -0.8134  0.0373
 5354TIP3    H116068   3.078   3.953   1.194  0.6700  0.7223 -2.3070
 5354TIP3    H216069   2.965   4.052   1.180  0.9127  1.4774  0.4328
 5355TIP3   OH216070   1.076   1.171   2.323  0.0107  0.0235  0.0104
 5355TIP3    H116071   0.994   1.183   2.372  0.2545 -0.8985  0.6730
 5355TIP3    H216072   1.049   1.167   2.232 -0.9135 -1.9851  0.3231
 5356TIP3   OH216073   4.932   5.318   0.753 -0.3916  0.2450  1.1840
 5356TIP3    H116074   4.869   5.388   0.734 -2.2080 -1.2017  1.6135
 5356TIP3    H216075   4.998   5.326   0.684 -1.8092  0.9399 -0.1554
 5357TIP3   OH216076   4.248   5.770   4.735  0.2651  0.2522 -0.1094
 5357TIP3    H116077   4.169   5.729   4.698 -0.4399 -2.0868  3.4826
 5357TIP3    H216078   4.263   5.847   4.679 -2.7362 -0.8648 -2.7948
 5358TIP3   OH216079   4.544   2.816   3.178  0.2517  0.1507  0.8453
 5358TIP3    H116080   4.548   2.739   3.235 -1.5138 -0.1660  0.5937
 5358TIP3    H216081   4.619   2.807   3.119  0.0619 -1.3919  0.8137
 5359TIP3   OH216082   3.647   1.590   1.344  0.7208  0.3258  0.2552
 5359TIP3    H116083   3.721   1.595   1.405  3.2328 -0.3601 -2.4751
 5359TIP3    H216084   3.619   1.681   1.334  2.4522  0.8711 -0.0043
 5360TIP3   OH216085   0.228   2.707   4.612 -0.3086  0.2060 -0.3148
 5360TIP3    H116086   0.214   2.783   4.555  2.9059  2.8348  1.9936
 5360TIP3    H216087   0.170   2.722   4.686  1.1798  1.1968  0.7092
 5361TIP3   OH216088   3.113   3.184   1.017  0.3130 -0.0316  0.0069
 5361TIP3    H116089   3.120   3.279   1.030 -0.2197  0.1181 -0.7516
 5361TIP3    H216090   3.038   3.158   1.070  1.5464 -0.3525  1.7018
 5362TIP3   OH216091   4.358   0.507   3.985 -0.1380 -0.2271  0.3883
 5362TIP3    H116092   4.431   0.446   3.986 -0.7701 -1.1898 -2.6503
 5362TIP3    H216093   4.370   0.559   3.906 -1.7162  0.9410  0.8483
 5363TIP3   OH216094   0.276  -0.015   4.219 -0.1607  0.2122  0.4449
 5363TIP3    H116095   0.184  -0.022   4.245 -0.6178  0.8251 -0.9058
 5363TIP3    H216096   0.291   0.080   4.214  0.6745  0.1186  1.0590
 5364TIP3   OH216097   1.976   1.588   2.014 -0.3265  0.4818  0.2314
 5364TIP3    H116098   1.892   1.565   1.974 -0.6986  1.0968  0.6291
 5364TIP3    H216099   2.042   1.563   1.950 -0.6032 -2.4595  0.9731
 5365TIP3   OH216100   4.933   3.910   1.046  0.1718  0.4890  0.0460
 5365TIP3    H116101   5.014   3.926   1.093 -0.0457  1.1553  0.2097
 5365TIP3    H216102   4.872   3.976   1.080  0.5500  2.2825 -2.4869
 5366TIP3   OH216103   2.561   1.311   3.971  0.4219  0.1110 -0.1006
 5366TIP3    H116104   2.560   1.216   3.986  1.7406 -0.1412 -1.3084
 5366TIP3    H216105   2.548   1.350   4.057 -2.9074 -1.1299  0.0747
 5367TIP3   OH216106   3.191   1.503   4.490  0.3427 -0.5601 -0.4274
 5367TIP3    H116107   3.258   1.495   4.422  0.6402 -1.1155 -0.0773
 5367TIP3    H216108   3.240   1.507   4.572 -0.0654 -1.8062 -0.0981
 5368TIP3   OH216109   1.221  -0.006   0.118 -0.2522 -0.3395 -0.4401
 5368TIP3    H116110   1.282   0.036   0.058 -0.7032  1.0455  0.0232
 5368TIP3    H216111   1.272  -0.022   0.198 -0.3626  0.4148 -0.2090
 5369TIP3   OH216112   4.329   3.999   0.804  0.3183  0.1357  0.2383
 5369TIP3    H116113   4.391   4.032   0.869  0.2472  1.0487 -0.1501
 5369TIP3    H216114   4.351   3.906   0.795  2.6710  0.7322 -1.0200
 5370TIP3   OH216115   0.119   1.006   4.103  0.0718  0.5853  0.0881
 5370TIP3    H116116   0.186   0.984   4.169  0.7099  2.4404  0.1377
 5370TIP3    H216117   0.154   1.085   4.060 -0.6622 -0.1822 -2.0176
 5371TIP3   OH216118   3.251   5.053   1.328 -0.3295 -0.1131  0.2353
 5371TIP3    H116119   3.158   5.067   1.311  0.0282 -0.0918 -2.0232
 5371TIP3    H216120   3.285   5.140   1.352 -0.3803  0.5467 -1.8818
 5372TIP3   OH216121   3.634   3.382   2.026 -0.7619 -0.1344 -0.3544
 5372TIP3    H116122   3.584   3.375   1.944 -1.9163  0.8097  0.2423
 5372TIP3    H216123   3.575   3.350   2.093 -0.1463 -0.0476  0.2394
 5373TIP3   OH216124   0.930   5.890   4.310 -0.2549  0.1562 -0.1755
 5373TIP3    H116125   0.880   5.833   4.368  0.2444  0.2217  0.3372
 5373TIP3    H216126   1.012   5.842   4.295  0.0935  0.6538  0.1122
 5374TIP3   OH216127   3.427   3.886   4.800 -0.1472 -0.1429 -0.0604
 5374TIP3    H116128   3.443   3.793   4.782 -0.9162 -0.3141  0.1191
 5374TIP3    H216129   3.382   3.918   4.722  0.4305  0.1694 -0.2708
 5375TIP3   OH216130   4.985   3.311   4.751  0.4228 -0.1766 -0.0640
 5375TIP3    H116131   5.074   3.318   4.714  0.7461 -2.8472 -0.0161
 5375TIP3    H216132   4.932   3.368   4.696  1.6921 -0.7138 -1.9535
 5376TIP3   OH216133   3.198   0.256   4.896  0.4597 -0.1812 -0.4566
 5376TIP3    H116134   3.174   0.209   4.976  2.3409 -0.3882  0.0431
 5376TIP3    H216135   3.116   0.267   4.849 -0.2772 -2.7832  0.0561
 5377TIP3   OH216136   1.307   0.077   1.570 -0.1635  0.4992 -0.1465
 5377TIP3    H116137   1.364   0.079   1.647  1.8481 -0.7166 -1.5256
 5377TIP3    H216138   1.270  -0.011   1.570 -0.2824  0.5487 -0.4963
 5378TIP3   OH216139   1.007   0.397   1.294  0.8372  0.0840 -0.2755
 5378TIP3    H116140   1.044   0.483   1.274 -0.3366  0.8505  0.7329
 5378TIP3    H216141   1.048   0.373   1.378  1.0859 -0.3120 -0.5046
 5379TIP3   OH216142   4.744   0.381   0.493 -0.2103  0.5214 -0.3597
 5379TIP3    H116143   4.725   0.369   0.400  2.4205 -1.9895 -0.7212
 5379TIP3    H216144   4.670   0.339   0.537  0.5936 -2.3244 -1.4908
 5380TIP3   OH216145   3.341   4.441   0.542 -0.4292 -0.2695 -0.3743
 5380TIP3    H116146   3.276   4.507   0.566 -0.0383 -0.4623  1.3853
 5380TIP3    H216147   3.425   4.482   0.562 -0.1833 -1.2423  0.6800
 5381TIP3   OH216148   2.416   0.996   2.442 -0.8945  0.3990  0.1739
 5381TIP3    H116149   2.331   1.037   2.424 -1.5432 -1.0428 -0.1990
 5381TIP3    H216150   2.476   1.039   2.381 -1.2606  1.7041  0.7055
 5382TIP3   OH216151   3.333   0.566   2.259  0.7524 -0.0202  0.0935
 5382TIP3    H116152   3.384   0.584   2.180 -1.1351 -0.7755 -1.3646
 5382TIP3    H216153   3.353   0.640   2.317  0.3810  1.8486 -2.0256
 5383TIP3   OH216154   2.389   4.815   5.000 -0.2748  0.2040 -0.7966
 5383TIP3    H116155   2.299   4.847   5.000 -0.3393  0.0873  0.4358
 5383TIP3    H216156   2.385   4.729   4.960 -0.5680  0.5376 -1.5027
 5384TIP3   OH216157   4.836   4.543   0.975 -0.8850  0.1646  0.2727
 5384TIP3    H116158   4.779   4.567   0.902 -1.3016  1.0261  0.8543
 5384TIP3    H216159   4.923   4.539   0.937 -0.9021  1.8926 -0.0533
 5385TIP3   OH216160   2.816   3.936   3.149  0.3445 -0.1841 -0.1267
 5385TIP3    H116161   2.883   3.929   3.218  0.8728 -1.8881 -0.7609
 5385TIP3    H216162   2.855   3.891   3.074 -0.9232  0.1336 -0.9951
 5386TIP3   OH216163   6.027   2.793   4.285  0.1666  0.5869 -0.5209
 5386TIP3    H116164   5.978   2.712   4.274  1.0238 -0.0494  0.1334
 5386TIP3    H216165   6.054   2.792   4.377 -1.1648  2.4214 -0.0633
 5387TIP3   OH216166   6.157   0.338   1.050 -0.4639 -0.4347  0.6218
 5387TIP3    H116167   6.146   0.358   1.143 -2.0374 -0.1363  0.4036
 5387TIP3    H216168   6.251   0.344   1.035 -0.2263 -0.0479  2.0957
 5388TIP3   OH216169   0.659   1.038   5.107 -0.0649  0.1119  0.1583
 5388TIP3    H116170   0.584   1.016   5.162 -0.5607 -0.3949 -0.7015
 5388TIP3    H216171   0.656   1.133   5.099 -0.5742  0.0984  0.1793
 5389TIP3   OH216172   5.631   5.783   1.557 -0.7103 -0.0422  0.0387
 5389TIP3    H116173   5.720   5.781   1.521 -1.0775  0.5737 -0.9335
 5389TIP3    H216174   5.643   5.777   1.652  0.3294 -0.6956 -0.1185
 5390TIP3   OH216175   4.712   5.402   2.044 -0.6797  0.1363  0.1999
 5390TIP3    H116176   4.741   5.388   2.134  1.4159  0.3160 -0.3998
 5390TIP3    H216177   4.727   5.495   2.028  1.8299 -0.4017 -1.1989
 5391TIP3   OH216178   2.165   1.646   4.781  0.0724  0.0895  0.0430
 5391TIP3    H116179   2.243   1.632   4.835 -0.0165  0.3084  0.2289
 5391TIP3    H216180   2.180   1.731   4.739 -0.3213  0.4006  0.5209
 5392TIP3   OH216181   1.010   0.393   3.866 -0.0322 -0.3203  0.4187
 5392TIP3    H116182   0.961   0.312   3.881  0.7041 -0.8257  0.1555
 5392TIP3    H216183   1.019   0.397   3.771  0.9186 -0.5326  0.4933
 5393TIP3   OH216184   4.698   1.960   2.612 -0.3901  0.4997  0.0599
 5393TIP3    H116185   4.608   1.988   2.631 -0.1790  0.3836  1.3624
 5393TIP3    H216186   4.722   2.010   2.534 -1.2609  1.2639  0.2505
 5394TIP3   OH216187   2.330   5.461   2.871  0.6297 -0.1688 -0.1581
 5394TIP3    H116188   2.264   5.422   2.929  0.3751 -2.1441 -1.6797
 5394TIP3    H216189   2.280   5.493   2.796  1.2703 -0.5886 -0.7748
 5395TIP3   OH216190   2.916   0.883   1.653  0.0495 -0.4328  0.0088
 5395TIP3    H116191   2.989   0.903   1.594 -0.3096  1.6722  0.2148
 5395TIP3    H216192   2.952   0.897   1.741 -0.3112 -0.3980  0.1522
 5396TIP3   OH216193   0.209   5.691   1.792 -0.1357  0.7056  0.7125
 5396TIP3    H116194   0.241   5.781   1.797 -0.3515  0.7362  1.8000
 5396TIP3    H216195   0.262   5.643   1.855 -0.2329  0.1385  0.3667
 5397TIP3   OH216196   4.700   1.587   1.925 -0.3026 -0.2492  0.1492
 5397TIP3    H116197   4.787   1.570   1.890 -0.9942 -0.5024 -1.5090
 5397TIP3    H216198   4.675   1.671   1.887 -2.0039 -1.6154 -1.9769
 5398TIP3   OH216199   3.704   1.729   4.030  0.2519 -0.4088 -0.1994
 5398TIP3    H116200   3.663   1.643   4.034  1.3319 -0.9563 -0.5575
 5398TIP3    H216201   3.656   1.775   3.961 -0.7483 -0.4722  0.4226
 5399TIP3   OH216202   5.153   4.202   1.521  0.2134 -0.0345  0.0728
 5399TIP3    H116203   5.194   4.118   1.500  0.4453 -1.1925  4.3423
 5399TIP3    H216204   5.068   4.179   1.558  0.0525  1.6760  0.8795
 5400TIP3   OH216205   1.965   5.287   2.897 -0.3825  0.0299 -0.6237
 5400TIP3    H116206   2.028   5.316   2.963  0.1261  1.4316 -1.6725
 5400TIP3    H216207   1.947   5.365   2.845 -2.2512 -0.5706 -0.9716
 5401TIP3   OH216208   0.757   3.290   1.810 -0.2807 -0.0658  0.1344
 5401TIP3    H116209   0.753   3.194   1.807  3.2649 -0.3472 -0.4090
 5401TIP3    H216210   0.816   3.309   1.883 -1.3355  1.7712  0.5626
 5402TIP3   OH216211   4.921   3.471   0.042 -0.6085  0.7610  0.0036
 5402TIP3    H116212   4.903   3.564   0.052 -2.6270  0.3950  0.1878
 5402TIP3    H216213   4.905   3.434   0.128  2.6503  0.5184  0.6379
 5403TIP3   OH216214   0.733   3.701   4.682 -0.2638  0.0239 -0.7372
 5403TIP3    H116215   0.808   3.665   4.634  0.0783  0.4043 -0.4877
 5403TIP3    H216216   0.724   3.644   4.758 -1.4178 -1.1944 -1.7150
 5404TIP3   OH216217   2.246   1.975   1.042  0.0942  0.2146 -0.6469
 5404TIP3    H116218   2.169   1.997   1.095 -0.1867  0.1298 -1.0196
 5404TIP3    H216219   2.298   1.919   1.099  0.1146  0.6614 -0.2174
 5405TIP3   OH216220   0.917   4.859   4.792 -0.3745 -0.5617  0.3425
 5405TIP3    H116221   0.862   4.936   4.774  1.8038  1.5218  1.9761
 5405TIP3    H216222   0.985   4.863   4.725  2.0420  1.4522  2.6560
 5406TIP3   OH216223   1.877   5.303   3.809  0.6421  0.2789  0.3084
 5406TIP3    H116224   1.883   5.364   3.735 -1.1328  0.4010  0.2327
 5406TIP3    H216225   1.813   5.238   3.782 -0.9735  0.9914  2.1561
 5407TIP3   OH216226   0.799   1.332   3.344 -0.2481  0.5285 -0.1074
 5407TIP3    H116227   0.794   1.318   3.250  2.0778 -1.8742  0.0187
 5407TIP3    H216228   0.720   1.289   3.379 -0.3857  0.1652 -0.8497
 5408TIP3   OH216229   3.221   3.512   0.222 -0.5451 -0.5158  0.1095
 5408TIP3    H116230   3.314   3.503   0.244 -0.1311  1.9466 -0.3553
 5408TIP3    H216231   3.191   3.422   0.210  1.3314 -1.4790  1.9540
 5409TIP3   OH216232   1.961   0.456   2.145 -0.6078 -0.3970  0.6389
 5409TIP3    H116233   2.050   0.427   2.165 -0.8615 -0.7889  1.2027
 5409TIP3    H216234   1.954   0.542   2.186 -0.7150 -0.6625  1.1800
 5410TIP3   OH216235   0.932   1.723   0.535  0.4122  0.3123 -0.9972
 5410TIP3    H116236   1.008   1.762   0.580  0.0910 -0.6765  0.4810
 5410TIP3    H216237   0.968   1.686   0.455  1.0720  1.8550 -1.4503
 5411TIP3   OH216238   6.160   3.888   4.741  0.5217 -0.0299  0.0475
 5411TIP3    H116239   6.073   3.885   4.700  0.5756 -0.0726 -0.0614
 5411TIP3    H216240   6.199   3.969   4.710  1.0954 -0.7105 -1.0568
 5412TIP3   OH216241   3.539   3.010   3.728 -0.0798  0.2513 -0.1159
 5412TIP3    H116242   3.593   3.046   3.798 -2.1208  0.6284  1.3583
 5412TIP3    H216243   3.595   3.011   3.651  1.7393  1.3204  1.1572
 5413TIP3   OH216244   4.488   0.780   1.020 -0.3201 -0.3746  0.0889
 5413TIP3    H116245   4.561   0.718   1.014 -1.1309 -1.5838  1.6696
 5413TIP3    H216246   4.521   0.860   0.981  1.7456 -0.9821  0.4464
 5414TIP3   OH216247   0.389   4.459   0.855 -0.0960 -0.4324 -0.1650
 5414TIP3    H116248   0.483   4.480   0.847 -0.3644  0.6596 -0.7492
 5414TIP3    H216249   0.349   4.504   0.780 -1.1460 -0.5037  0.3390
 5415TIP3   OH216250   1.234   2.819   4.374  0.8474 -0.1535  0.0314
 5415TIP3    H116251   1.300   2.832   4.306  1.0755 -0.7351  0.1318
 5415TIP3    H216252   1.216   2.725   4.372 -2.9459  0.3602 -2.7726
 5416TIP3   OH216253   4.914   5.563   4.625  0.2143  0.0696  0.3546
 5416TIP3    H116254   4.941   5.580   4.535  0.8472 -2.3148  0.0168
 5416TIP3    H216255   4.862   5.639   4.650  0.0171  0.7799 -2.0282
 5417TIP3   OH216256   2.501   5.458   4.563 -0.1335  0.3634  0.0152
 5417TIP3    H116257   2.595   5.475   4.561 -0.1099  0.1904 -0.2498
 5417TIP3    H216258   2.479   5.462   4.656  0.1017  0.5824  0.0645
 5418TIP3   OH216259   0.456   3.992   1.283 -0.6823  0.5275  0.9086
 5418TIP3    H116260   0.452   3.898   1.264  3.1517  0.5202 -0.8001
 5418TIP3    H216261   0.443   3.997   1.378  0.9483 -2.0381  1.3881
 5419TIP3   OH216262   0.448   4.312   4.991  0.7889  0.4211  0.1382
 5419TIP3    H116263   0.442   4.262   4.909  2.1525 -1.5711  1.1655
 5419TIP3    H216264   0.360   4.305   5.029  1.2835 -2.7624  1.0170
 5420TIP3   OH216265   5.160   4.804   1.443 -0.0215 -0.4276 -0.3184
 5420TIP3    H116266   5.215   4.727   1.429 -1.6604 -1.2347 -2.9181
 5420TIP3    H216267   5.098   4.777   1.510  1.0483 -0.3819  0.7368
 5421TIP3   OH216268   2.669   0.393   2.082 -0.0223 -0.5727  0.2245
 5421TIP3    H116269   2.638   0.366   1.995  0.7296 -2.2675  0.4499
 5421TIP3    H216270   2.605   0.356   2.142  0.0715 -0.3631  0.4522
 5422TIP3   OH216271   5.410   4.616   0.448  0.0668 -0.7160  0.0982
 5422TIP3    H116272   5.393   4.558   0.374  0.4981  0.5805 -1.0512
 5422TIP3    H216273   5.499   4.649   0.433 -0.2827  0.4812  0.5514
 5423TIP3   OH216274   3.858   1.597   0.199 -0.3092  0.3684 -0.5538
 5423TIP3    H116275   3.825   1.585   0.288 -0.2291 -0.1941 -0.5973
 5423TIP3    H216276   3.890   1.687   0.197  0.7446  0.0317  0.3338
 5424TIP3   OH216277   2.295   1.150   0.193  0.5434  0.6909 -0.7098
 5424TIP3    H116278   2.248   1.143   0.277 -2.7961  0.0770 -2.4420
 5424TIP3    H216279   2.309   1.244   0.182 -0.5146  0.9261 -0.2046
 5425TIP3   OH216280   4.980   3.313   2.801 -0.0194  0.2240  0.1534
 5425TIP3    H116281   4.974   3.293   2.708 -1.4977  0.6292  0.1346
 5425TIP3    H216282   4.889   3.313   2.831  0.3448  1.3055  1.3306
 5426TIP3   OH216283   5.027   1.215   0.560  0.4291 -0.3895 -0.1898
 5426TIP3    H116284   5.009   1.180   0.647  0.4763  1.4881  0.6157
 5426TIP3    H216285   5.058   1.304   0.575  0.8947 -0.1755 -2.1077
 5427TIP3   OH216286   3.844   4.992   1.257 -0.2240  0.0883  1.4520
 5427TIP3    H116287   3.868   4.917   1.310 -2.3052 -0.7004  1.3835
 5427TIP3    H216288   3.754   5.013   1.284 -0.8691  0.4841 -0.7887
 5428TIP3   OH216289   3.700   2.336   2.961 -0.7286 -0.4219  0.0313
 5428TIP3    H116290   3.650   2.418   2.962 -0.0777 -0.0126 -0.0427
 5428TIP3    H216291   3.662   2.283   3.031 -0.7188  0.2120  0.5272
 5429TIP3   OH216292   1.576   1.104   2.640  0.5327 -0.4661 -0.5045
 5429TIP3    H116293   1.546   1.155   2.716  0.3195  2.1836 -2.2316
 5429TIP3    H216294   1.672   1.109   2.644  0.5156  0.9389 -1.1263
 5430TIP3   OH216295   0.646   3.571   2.584  0.0283 -0.1370  0.0501
 5430TIP3    H116296   0.726   3.529   2.616 -0.2504 -0.3756  0.4378
 5430TIP3    H216297   0.590   3.579   2.661 -0.1419  0.4522 -0.1265
 5431TIP3   OH216298   2.179   0.749   1.720 -0.0585 -0.1057  0.4105
 5431TIP3    H116299   2.268   0.766   1.688 -0.4963  2.1637  0.2469
 5431TIP3    H216300   2.178   0.784   1.809 -1.4069  2.2028 -0.4243
 5432TIP3   OH216301   3.821   3.542   1.536 -0.1150 -0.4445  0.0177
 5432TIP3    H116302   3.818   3.481   1.609  0.9360 -2.4168 -1.4785
 5432TIP3    H216303   3.798   3.489   1.460 -1.0676  1.5114 -1.1174
 5433TIP3   OH216304   5.067   2.576   1.573  1.0769 -0.0687 -0.2607
 5433TIP3    H116305   5.031   2.665   1.576  0.7640 -0.2046  0.2736
 5433TIP3    H216306   5.161   2.589   1.565  1.0328  0.3163 -0.1926
 5434TIP3   OH216307   2.736   2.536   4.592 -0.1235 -0.4737 -0.1639
 5434TIP3    H116308   2.727   2.631   4.583  1.5069 -0.0712  1.8160
 5434TIP3    H216309   2.646   2.504   4.594 -0.7187  1.1004 -0.1260
 5435TIP3   OH216310   4.208   0.817   0.646 -0.0833 -0.2397  0.2486
 5435TIP3    H116311   4.261   0.775   0.578 -0.9934  0.6802 -1.0765
 5435TIP3    H216312   4.237   0.908   0.646 -1.7837  0.3506 -0.6976
 5436TIP3   OH216313   4.960   5.975   1.095 -0.4146 -0.0606 -0.3319
 5436TIP3    H116314   4.971   5.953   1.188 -0.6687 -1.1887 -0.5472
 5436TIP3    H216315   5.012   5.909   1.049  1.8952  2.0770 -0.9356
 5437TIP3   OH216316   3.662   5.826   0.222  0.2043 -0.2857 -0.1662
 5437TIP3    H116317   3.594   5.770   0.260 -1.0108  0.9325 -0.4420
 5437TIP3    H216318   3.634   5.839   0.132  0.1516  1.1621  0.0318
 5438TIP3   OH216319   0.030   3.716   2.008 -0.6448  0.0302  0.1753
 5438TIP3    H116320   0.068   3.658   1.943  1.2675  0.2699  1.0015
 5438TIP3    H216321   0.097   3.783   2.023 -2.0927  1.4787  0.4877
 5439TIP3   OH216322   2.711   5.718   4.190 -0.3770  0.6975 -0.3232
 5439TIP3    H116323   2.760   5.799   4.179 -0.7135  0.8937 -0.3887
 5439TIP3    H216324   2.628   5.733   4.144 -0.8098  0.6479  0.4211
 5440TIP3   OH216325   0.448   1.305   2.418 -0.0240  0.1740  0.4017
 5440TIP3    H116326   0.369   1.277   2.372 -0.3818  0.6120  0.7411
 5440TIP3    H216327   0.459   1.397   2.392  0.3925  0.1067  0.3326
 5441TIP3   OH216328   1.952   4.130   2.068 -0.2852 -0.1459  0.2621
 5441TIP3    H116329   2.034   4.081   2.073  1.0984  1.9591 -0.3156
 5441TIP3    H216330   1.978   4.216   2.034 -2.7519  0.5827  0.0435
 5442TIP3   OH216331   4.253   3.011   3.093  0.4787  0.1960 -0.3091
 5442TIP3    H116332   4.215   2.923   3.085  0.3156  0.3419 -1.2577
 5442TIP3    H216333   4.283   3.016   3.184  1.1988 -1.1349 -0.4483
 5443TIP3   OH216334   0.737   3.122   0.914 -0.0984  0.3327 -0.0214
 5443TIP3    H116335   0.782   3.083   0.840 -0.3167  0.3917 -0.1876
 5443TIP3    H216336   0.803   3.126   0.984 -0.4206 -1.6141  0.4620
 5444TIP3   OH216337   3.101   2.406   4.907  0.5113  0.3931  0.4615
 5444TIP3    H116338   3.031   2.471   4.910  0.7921  0.6933  0.5597
 5444TIP3    H216339   3.133   2.401   4.998  1.3642  1.0840  0.2164
 5445TIP3   OH216340   5.571   5.292   0.046 -0.0746 -0.4455  0.3755
 5445TIP3    H116341   5.642   5.330  -0.005 -0.7588 -1.3006 -1.2801
 5445TIP3    H216342   5.608   5.281   0.134  1.6573 -0.3727 -0.3042
 5446TIP3   OH216343   3.543   3.229   4.816 -0.1785 -0.9716 -0.9314
 5446TIP3    H116344   3.596   3.149   4.819  2.9052  0.9262  1.3301
 5446TIP3    H216345   3.575   3.276   4.739  1.6397  0.1943  0.4584
 5447TIP3   OH216346   1.245   1.446   3.818 -0.0880  0.5958 -0.6612
 5447TIP3    H116347   1.243   1.363   3.769 -0.8807 -0.2567  0.7461
 5447TIP3    H216348   1.324   1.441   3.871  1.1098  1.7963 -2.2375
 5448TIP3   OH216349   5.147   3.187   0.167  0.3826  0.7256  0.2287
 5448TIP3    H116350   5.208   3.178   0.240  0.0848  0.3883  0.4381
 5448TIP3    H216351   5.073   3.237   0.203  0.6259  1.3104 -0.0797
 5449TIP3   OH216352   6.049   0.022  -0.015  0.3342 -0.3137 -0.1289
 5449TIP3    H116353   6.105  -0.022   0.050  0.2579 -0.8117 -0.3922
 5449TIP3    H216354   6.023   0.103   0.027 -0.3862 -0.9987  0.7936
 5450TIP3   OH216355   4.385   5.119   4.986 -0.4352 -0.0858  0.0378
 5450TIP3    H116356   4.399   5.081   5.073 -0.7169  2.5933  1.3439
 5450TIP3    H216357   4.356   5.209   5.003 -0.7909  0.4437 -2.8412
 5451TIP3   OH216358   4.257   3.147   3.375 -0.0303  0.7444 -0.0475
 5451TIP3    H116359   4.198   3.144   3.450 -1.1852  3.2581 -0.7413
 5451TIP3    H216360   4.213   3.204   3.312  2.1449  0.9226 -1.5131
 5452TIP3   OH216361   6.267   5.029   4.748  0.3657  0.8007 -0.3297
 5452TIP3    H116362   6.318   5.066   4.819 -0.7554 -0.6300  1.3085
 5452TIP3    H216363   6.184   5.077   4.750  0.7544  1.5668 -1.4896
 5453TIP3   OH216364   1.565   5.228   0.101 -0.1806 -0.7014  0.1635
 5453TIP3    H116365   1.543   5.225   0.008 -0.0743 -0.3547  0.1245
 5453TIP3    H216366   1.520   5.153   0.139 -0.3443 -0.7602 -0.1441
 5454TIP3   OH216367   5.310   5.094   3.380 -0.9606  0.4855 -0.8650
 5454TIP3    H116368   5.272   5.064   3.462  0.2098  0.1420 -0.4289
 5454TIP3    H216369   5.303   5.190   3.383  1.4275  0.7066  0.8865
 5455TIP3   OH216370   2.238   5.608   1.216 -0.4418 -0.5064 -0.0577
 5455TIP3    H116371   2.310   5.554   1.249 -0.1490 -0.5770 -0.7794
 5455TIP3    H216372   2.231   5.584   1.123 -0.7923  0.1660 -0.2109
 5456TIP3   OH216373   1.062   4.626   0.919 -0.4205  0.1848 -0.2956
 5456TIP3    H116374   1.001   4.633   0.845  0.9203 -0.1060 -1.4760
 5456TIP3    H216375   1.038   4.545   0.962  0.1707 -0.8206 -1.7721
 5457TIP3   OH216376   1.666   2.546   1.420 -0.0178 -0.4688  0.5054
 5457TIP3    H116377   1.717   2.627   1.417  0.2879 -0.6743 -0.2846
 5457TIP3    H216378   1.705   2.495   1.492  1.2654 -0.8405 -0.4043
 5458TIP3   OH216379   3.699   0.185   0.118 -0.8037 -0.0465 -0.7629
 5458TIP3    H116380   3.720   0.098   0.150 -1.7608  0.1851  0.5689
 5458TIP3    H216381   3.704   0.241   0.195  1.8737  1.5203 -1.9260
 5459TIP3   OH216382   4.711   2.384   5.031 -0.3067 -0.1593  0.2320
 5459TIP3    H116383   4.751   2.359   4.948 -0.7723 -1.3687  0.3504
 5459TIP3    H216384   4.658   2.460   5.010 -0.6018 -0.5917 -0.6410
 5460TIP3   OH216385   1.190   4.972   1.743  0.1225  0.2543 -0.4581
 5460TIP3    H116386   1.110   5.011   1.707  0.7823  0.8784 -1.3060
 5460TIP3    H216387   1.165   4.883   1.767 -0.5793  0.0963 -1.6846
 5461TIP3   OH216388   4.572   2.146   3.717 -0.3833 -0.0418 -0.4437
 5461TIP3    H116389   4.542   2.122   3.805  0.3483 -0.3390 -0.2667
 5461TIP3    H216390   4.666   2.129   3.718  0.1656  2.6245 -0.3944
 5462TIP3   OH216391   2.930   0.831   0.416  0.0345 -0.0277  0.8907
 5462TIP3    H116392   2.924   0.786   0.332  0.3384  0.3227  0.6756
 5462TIP3    H216393   3.015   0.875   0.414  0.0758 -0.0710  1.4123
 5463TIP3   OH216394   1.071   5.814   4.799 -0.1497  0.0799 -0.0722
 5463TIP3    H116395   1.127   5.758   4.744  1.3859  0.2410  1.2653
 5463TIP3    H216396   1.103   5.903   4.782  0.0330  0.1702  0.7113
 5464TIP3   OH216397   1.560   0.502   2.172  0.2260 -0.1450  0.2986
 5464TIP3    H116398   1.508   0.481   2.095  1.1281  0.0237 -0.3757
 5464TIP3    H216399   1.605   0.584   2.149 -0.2612  0.4513  1.3914
 5465TIP3   OH216400   0.020   3.068   4.033 -0.1670  0.4565  0.0939
 5465TIP3    H116401  -0.049   3.002   4.026  0.7240 -0.7080  1.5129
 5465TIP3    H216402   0.035   3.076   4.127  0.6114  1.7967 -0.1211
 5466TIP3   OH216403   4.054   0.999   2.245 -0.2655 -0.4402  0.2039
 5466TIP3    H116404   3.982   1.014   2.183 -0.5235 -1.6085  0.1991
 5466TIP3    H216405   4.127   1.049   2.208 -0.5030 -0.8576 -0.8894
 5467TIP3   OH216406   0.037   0.717   2.969 -0.5965 -0.0199  0.1650
 5467TIP3    H116407   0.102   0.694   2.903  0.1589 -0.7827  1.1311
 5467TIP3    H216408  -0.036   0.755   2.920  0.3914  0.4470 -0.9821
 5468TIP3   OH216409   4.248   1.994   0.145 -0.4184  0.1310  0.1712
 5468TIP3    H116410   4.189   2.037   0.082  0.1211  1.9794  0.8570
 5468TIP3    H216411   4.218   1.903   0.147 -1.2548  0.3043 -1.8012
 5469TIP3   OH216412   4.259   5.451   3.611 -0.0130  0.3163  0.8161
 5469TIP3    H116413   4.200   5.396   3.559  0.9676 -0.4919  0.5054
 5469TIP3    H216414   4.238   5.430   3.702 -2.1531  2.1771  0.8341
 5470TIP3   OH216415   2.610   1.891   1.746 -0.1653 -0.8270 -0.2244
 5470TIP3    H116416   2.561   1.944   1.683 -0.7162  0.8833  1.5201
 5470TIP3    H216417   2.701   1.897   1.717 -0.3462  0.3043 -0.5940
 5471TIP3   OH216418   3.709   3.812   1.502  0.0008 -1.2232 -0.1225
 5471TIP3    H116419   3.741   3.730   1.541 -1.2145 -2.0730 -0.8358
 5471TIP3    H216420   3.639   3.841   1.561  0.8496 -0.3239  0.4769
 5472TIP3   OH216421   1.834   0.136   3.757  0.0506  0.4515  0.2524
 5472TIP3    H116422   1.858   0.062   3.813  2.4625  0.2272 -0.9445
 5472TIP3    H216423   1.800   0.096   3.677 -2.6081  0.7639  1.1376
 5473TIP3   OH216424   5.591   0.249   1.819  0.2256 -0.0511  0.2488
 5473TIP3    H116425   5.532   0.299   1.763  1.8929  0.9946 -0.6585
 5473TIP3    H216426   5.668   0.232   1.764 -0.1831 -3.5218  0.5754
 5474TIP3   OH216427   5.824   5.107   3.295  0.0458  0.0771  0.1448
 5474TIP3    H116428   5.829   5.125   3.201 -0.4246 -1.2486 -0.1576
 5474TIP3    H216429   5.739   5.065   3.307  1.2550 -2.4864  0.6196
 5475TIP3   OH216430   5.191   2.355   2.089 -0.4690 -0.1801 -0.1452
 5475TIP3    H116431   5.101   2.328   2.070 -0.8438  1.3865 -0.8227
 5475TIP3    H216432   5.232   2.363   2.003 -0.3892  1.3206  0.0103
 5476TIP3   OH216433   6.046   3.415   2.554  0.7626  0.2935 -0.8775
 5476TIP3    H116434   6.080   3.484   2.498  1.6848  1.5418  1.0839
 5476TIP3    H216435   5.960   3.448   2.582  0.3098 -0.3189 -1.5190
 5477TIP3   OH216436   3.986   5.214   1.384 -0.4714  0.0423 -0.3167
 5477TIP3    H116437   3.952   5.140   1.334 -0.9195  0.4163 -0.5866
 5477TIP3    H216438   4.081   5.208   1.376 -0.4871 -0.7862  0.0920
 5478TIP3   OH216439   2.449   2.514   0.834 -0.2940 -0.7267 -0.3923
 5478TIP3    H116440   2.463   2.508   0.929  0.7063  1.0592 -0.3836
 5478TIP3    H216441   2.368   2.562   0.825 -0.1910 -0.5621 -0.4412
 5479TIP3   OH216442   2.600   4.696   4.584 -0.4601 -0.5287 -0.2546
 5479TIP3    H116443   2.574   4.631   4.650  0.2325 -0.5796 -0.0249
 5479TIP3    H216444   2.659   4.648   4.525 -2.6264 -1.0638 -2.1386
 5480TIP3   OH216445   3.578   1.756   0.321  0.1460 -0.4341  0.0330
 5480TIP3    H116446   3.666   1.747   0.356  0.1280  0.7174  0.4327
 5480TIP3    H216447   3.524   1.777   0.397 -0.7003 -2.2276 -0.0235
 5481TIP3   OH216448   3.796   1.186   2.268 -0.1653 -0.0367  0.2014
 5481TIP3    H116449   3.707   1.221   2.271 -0.0022  0.3066  2.2690
 5481TIP3    H216450   3.787   1.094   2.292 -0.0783 -0.3348 -0.8432
 5482TIP3   OH216451   4.962   2.662   3.773  0.2423 -0.1941 -0.6867
 5482TIP3    H116452   4.868   2.668   3.791  0.4698  1.8904  0.0191
 5482TIP3    H216453   4.973   2.576   3.733 -1.5067 -1.8526  2.0699
 5483TIP3   OH216454   4.261   2.743   2.863 -0.0356 -0.0403  0.0234
 5483TIP3    H116455   4.201   2.728   2.936  0.4354 -0.3515  0.3469
 5483TIP3    H216456   4.332   2.681   2.877  0.4277  0.4166 -0.2895
 5484TIP3   OH216457   3.570   5.417   1.555 -0.5513 -0.7498  0.2611
 5484TIP3    H116458   3.544   5.330   1.525 -0.6393 -0.3977 -0.7196
 5484TIP3    H216459   3.665   5.418   1.547 -0.5069 -0.9065  0.7177
 5485TIP3   OH216460   0.786   5.745   2.524 -0.0804 -0.5410 -0.1469
 5485TIP3    H116461   0.697   5.778   2.517 -0.5293 -1.9193 -1.6797
 5485TIP3    H216462   0.779   5.670   2.584  0.3481  0.2489  0.9106
 5486TIP3   OH216463   4.450   5.734   1.055  0.2526 -0.7769  0.3249
 5486TIP3    H116464   4.519   5.800   1.044 -0.9739  0.4252 -0.5415
 5486TIP3    H216465   4.401   5.764   1.131 -0.7714 -0.2141 -0.5243
 5487TIP3   OH216466   0.266   1.468   1.073 -0.2243 -0.4619 -0.3136
 5487TIP3    H116467   0.270   1.516   1.156 -1.5394 -0.2383 -0.3466
 5487TIP3    H216468   0.350   1.425   1.066 -0.0606 -0.4307  1.1186
 5488TIP3   OH216469   2.261   2.331   1.468 -0.5572 -1.1320  0.3949
 5488TIP3    H116470   2.320   2.401   1.441 -0.8430 -1.6862 -1.8035
 5488TIP3    H216471   2.292   2.306   1.555  0.0455  1.1553  0.8924
 5489TIP3   OH216472   0.133   3.804   1.608 -0.1055 -0.2710 -0.4847
 5489TIP3    H116473   0.168   3.728   1.654  2.2365  0.0830 -1.5412
 5489TIP3    H216474   0.047   3.777   1.577  0.4602 -2.3092 -0.3803
 5490TIP3   OH216475   5.482   0.823   4.758 -0.2543  0.6231  0.2603
 5490TIP3    H116476   5.457   0.825   4.665  1.2749  0.0938 -0.1873
 5490TIP3    H216477   5.420   0.882   4.800 -1.7935 -0.0950 -0.8888
 5491TIP3   OH216478   1.134   1.270   4.103 -0.5711 -0.1043 -0.3675
 5491TIP3    H116479   1.148   1.228   4.188  1.9155  0.5959 -0.3691
 5491TIP3    H216480   1.093   1.354   4.124 -1.8965 -0.7941 -0.0716
 5492TIP3   OH216481   5.669   4.062   0.060  0.0588 -0.1410  0.0529
 5492TIP3    H116482   5.670   4.142   0.112 -0.2377 -0.3633  0.4059
 5492TIP3    H216483   5.584   4.062   0.017  0.0586 -0.2638  0.0526
 5493TIP3   OH216484   3.944   4.110   2.892  0.0448 -0.0770 -0.1634
 5493TIP3    H116485   3.892   4.185   2.919  0.8098  0.1242  0.8172
 5493TIP3    H216486   3.893   4.034   2.918 -0.0697  0.1158  0.1784
 5494TIP3   OH216487   2.594   3.857   4.982 -0.6800 -0.0703 -0.0917
 5494TIP3    H116488   2.590   3.889   4.892  2.2167  1.4053  0.1984
 5494TIP3    H216489   2.653   3.917   5.026 -2.6614 -0.2259  3.0792
 5495TIP3   OH216490   2.220   2.755   0.279 -0.5971  0.3450 -0.1528
 5495TIP3    H116491   2.305   2.786   0.248  0.1887  0.6443  2.0799
 5495TIP3    H216492   2.156   2.806   0.229  0.5687  1.0575 -0.9701
 5496TIP3   OH216493   3.700   5.283   3.983  0.5523 -0.3903  0.8427
 5496TIP3    H116494   3.674   5.210   4.038 -2.5567 -0.0004  0.0939
 5496TIP3    H216495   3.654   5.359   4.019 -0.5624  0.1151 -1.4445
 5497TIP3   OH216496   3.607   4.293   1.190 -0.1724 -0.0638  0.3393
 5497TIP3    H116497   3.530   4.312   1.137 -0.5345 -0.1352  0.8298
 5497TIP3    H216498   3.597   4.346   1.269 -0.1790 -0.7375  0.8091
 5498TIP3   OH216499   3.113   5.065   2.397  0.0350  0.0814  0.3653
 5498TIP3    H116500   3.083   5.118   2.323 -1.4303 -0.3116  0.6385
 5498TIP3    H216501   3.137   4.981   2.357 -2.0617 -0.6110  0.4368
 5499TIP3   OH216502   2.276   1.621   2.880 -0.2785  0.4027 -0.1102
 5499TIP3    H116503   2.289   1.654   2.790 -0.9345 -1.7592 -1.0493
 5499TIP3    H216504   2.364   1.611   2.914  0.0074  0.5590 -0.7762
 5500TIP3   OH216505   2.053   1.734   3.033  0.1151  0.0066 -0.7219
 5500TIP3    H116506   2.121   1.729   2.966  1.2734 -0.0603  0.4228
 5500TIP3    H216507   2.026   1.644   3.048  1.0151 -0.1507  0.0320
 5501TIP3   OH216508   1.222   5.565   4.327  0.6314 -0.5505  0.2612
 5501TIP3    H116509   1.312   5.542   4.305 -0.0745 -1.1546 -2.3660
 5501TIP3    H216510   1.203   5.516   4.407  1.2707 -4.1201 -1.5651
 5502TIP3   OH216511   3.603   4.697   0.087  0.4983  0.3026  0.2826
 5502TIP3    H116512   3.589   4.712  -0.006 -0.9510  0.1349  0.4531
 5502TIP3    H216513   3.600   4.602   0.097  0.9493  0.3064  0.4517
 5503TIP3   OH216514   1.254   1.752   1.070  0.4199  0.0688  0.0276
 5503TIP3    H116515   1.207   1.680   1.029  0.5577 -0.2340  0.3995
 5503TIP3    H216516   1.322   1.776   1.006 -0.8348  1.1707 -0.9603
 5504TIP3   OH216517   6.278   1.725   0.850 -0.4154  0.5105 -0.7774
 5504TIP3    H116518   6.248   1.648   0.897  0.1252  0.4115 -0.5976
 5504TIP3    H216519   6.363   1.745   0.887 -0.5053  1.1335 -0.8957
 5505TIP3   OH216520   1.605   2.217   4.104 -0.2774 -0.2806 -0.4758
 5505TIP3    H116521   1.555   2.235   4.024  0.3758  2.8297 -0.3206
 5505TIP3    H216522   1.539   2.193   4.169 -1.0885 -0.4603 -1.3506
 5506TIP3   OH216523   5.469   0.847   0.775  0.4539  0.0537  0.1197
 5506TIP3    H116524   5.446   0.756   0.756 -1.1485  0.1402  1.4104
 5506TIP3    H216525   5.502   0.881   0.691 -0.0155 -1.3765 -0.6907
 5507TIP3   OH216526   6.174   0.813   2.496  0.0762  0.2907  0.3622
 5507TIP3    H116527   6.102   0.780   2.550 -1.2420 -0.3897 -1.7021
 5507TIP3    H216528   6.145   0.900   2.469  2.3629  2.2950  3.5885
 5508TIP3   OH216529   0.307   5.412   1.718 -0.5380 -0.0112  0.1965
 5508TIP3    H116530   0.256   5.335   1.693 -0.6956  0.3646 -0.6849
 5508TIP3    H216531   0.276   5.481   1.659  0.2193  0.5040  0.3885
 5509TIP3   OH216532   0.712   2.606   4.097  0.3826  0.0309 -0.2843
 5509TIP3    H116533   0.777   2.665   4.136 -0.3871  0.1891  0.8253
 5509TIP3    H216534   0.629   2.652   4.109 -0.0206 -0.5076 -0.9887
 5510TIP3   OH216535   4.673   5.263   4.367  0.0135 -0.2518  0.2159
 5510TIP3    H116536   4.610   5.293   4.301  0.6399  0.2946 -0.1432
 5510TIP3    H216537   4.648   5.309   4.447  0.2273  0.3130 -0.0360
 5511TIP3   OH216538   1.043   2.225   1.950  0.4867 -0.1049  0.2138
 5511TIP3    H116539   1.035   2.137   1.913  1.9227 -0.2322  0.1396
 5511TIP3    H216540   1.096   2.212   2.029 -2.3286  0.1887  2.2744
 5512TIP3   OH216541   2.047   0.963   0.732 -0.5421 -0.7192 -0.2388
 5512TIP3    H116542   2.037   0.877   0.690 -1.0823 -0.0424 -1.5408
 5512TIP3    H216543   2.128   0.956   0.782 -0.8881 -2.1826  0.1779
 5513TIP3   OH216544   6.023   0.449   0.553 -0.0462  0.6828  0.0973
 5513TIP3    H116545   6.045   0.366   0.511  0.4397  1.0574 -0.3870
 5513TIP3    H216546   6.027   0.430   0.647 -0.2477  0.0807 -0.0132
 5514TIP3   OH216547   6.295   3.672   4.201  0.0022  0.0614 -0.0624
 5514TIP3    H116548   6.250   3.663   4.117 -0.1538  0.1888  0.0052
 5514TIP3    H216549   6.289   3.586   4.242  0.4297 -0.1103 -0.3544
 5515TIP3   OH216550   2.608   0.891   1.358 -0.3331 -0.5823  0.2347
 5515TIP3    H116551   2.689   0.848   1.388  0.2351  1.4903  1.9073
 5515TIP3    H216552   2.637   0.977   1.329 -1.7994 -0.2636 -0.3339
 5516TIP3   OH216553   1.980   0.922   1.074 -0.3677 -0.2998  0.2025
 5516TIP3    H116554   2.022   1.007   1.063  1.8467 -1.2276  0.9647
 5516TIP3    H216555   1.915   0.935   1.143 -0.1472  0.7785  0.2169
 5517TIP3   OH216556   2.267   0.434   0.285 -0.1056  0.1395 -0.1693
 5517TIP3    H116557   2.265   0.528   0.302  0.2426 -0.1397  1.5852
 5517TIP3    H216558   2.341   0.402   0.336 -0.8245 -1.2332  0.0521
 5518TIP3   OH216559   3.318   4.047   2.348  0.0233  0.2349 -0.3636
 5518TIP3    H116560   3.325   3.973   2.408 -0.9781 -0.7013 -1.3507
 5518TIP3    H216561   3.230   4.039   2.310  0.9497  0.1717 -2.6802
 5519TIP3   OH216562   4.381   5.000   0.920  0.1211 -0.1496 -0.3362
 5519TIP3    H116563   4.330   4.924   0.890 -1.2312  0.6086 -0.0411
 5519TIP3    H216564   4.469   4.966   0.932 -1.0590 -2.6266  3.1856
 5520TIP3   OH216565   2.968   0.533   3.677  0.5164 -0.1952  0.1312
 5520TIP3    H116566   2.990   0.472   3.748 -1.0112 -0.8044  0.1171
 5520TIP3    H216567   2.995   0.619   3.710  1.5273 -0.7029  0.6753
 5521TIP3   OH216568   0.859   0.631   0.116  0.1712 -0.5320 -0.1919
 5521TIP3    H116569   0.867   0.640   0.021 -0.2497 -0.5015 -0.2250
 5521TIP3    H216570   0.949   0.614   0.146  0.4597  0.3963 -0.4876
 5522TIP3   OH216571   3.924   0.074   2.711 -0.3591 -0.0266 -0.1438
 5522TIP3    H116572   3.841   0.117   2.729 -0.0167  0.4008  0.4373
 5522TIP3    H216573   3.949   0.034   2.794  1.8496  3.0314  0.8537
 5523TIP3   OH216574   1.645   1.626   1.299  0.2801  0.4249  0.0900
 5523TIP3    H116575   1.569   1.644   1.354 -0.8604 -2.7987 -0.2229
 5523TIP3    H216576   1.675   1.713   1.270 -2.3093  1.8905  1.4377
 5524TIP3   OH216577   5.230   0.926   3.122  0.1357  0.4626  0.7924
 5524TIP3    H116578   5.301   0.870   3.091  1.2450  2.2037  0.0029
 5524TIP3    H216579   5.224   0.909   3.216  0.3642 -1.0123  0.5504
 5525TIP3   OH216580   3.280   0.452   3.214  0.3234 -0.1732  0.2764
 5525TIP3    H116581   3.370   0.442   3.182  0.2451  2.3140 -0.9216
 5525TIP3    H216582   3.225   0.423   3.141  0.1438 -0.4212  0.5083
 5526TIP3   OH216583   2.855   5.403   3.156  0.0606 -0.8210 -0.8346
 5526TIP3    H116584   2.872   5.342   3.228 -0.6463 -0.6383 -0.5089
 5526TIP3    H216585   2.824   5.348   3.084 -0.8039 -0.8374 -0.4651
 5527TIP3   OH216586   1.538   0.495   4.815  0.0671 -0.1950  0.1948
 5527TIP3    H116587   1.477   0.455   4.753 -0.7169 -0.2665  0.9757
 5527TIP3    H216588   1.529   0.441   4.894  0.4055  0.3945  0.6438
 5528TIP3   OH216589   4.462   1.545   4.961 -0.1979 -0.4919 -0.0268
 5528TIP3    H116590   4.442   1.617   4.901 -0.7287 -1.2538 -0.7947
 5528TIP3    H216591   4.380   1.530   5.008  0.6879  1.2918  2.2647
 5529TIP3   OH216592   1.827   3.304   0.352 -0.2044 -0.4324 -0.6401
 5529TIP3    H116593   1.779   3.332   0.429  0.2396  0.9346 -0.8296
 5529TIP3    H216594   1.884   3.234   0.383  0.0222  0.1464  0.3013
 5530TIP3   OH216595   0.069   2.974   3.725  0.3808 -0.3659  0.9846
 5530TIP3    H116596   0.032   2.899   3.677 -0.1464  0.7304 -0.3753
 5530TIP3    H216597   0.153   2.989   3.683  0.5947 -0.3192  1.4195
 5531TIP3   OH216598   6.088   2.724   3.857 -0.2818 -0.5562 -0.1827
 5531TIP3    H116599   6.096   2.641   3.811 -0.1169 -0.4075 -0.4294
 5531TIP3    H216600   6.114   2.790   3.792 -0.9168 -0.2682 -0.1496
 5532TIP3   OH216601   1.279   1.254   3.647  0.3788 -0.0777  0.2119
 5532TIP3    H116602   1.375   1.247   3.648  0.5897  1.5520 -2.0847
 5532TIP3    H216603   1.258   1.278   3.557 -2.1507  0.3956  0.8735
 5533TIP3   OH216604   1.990   2.992   0.270  0.0216  0.1158 -0.5252
 5533TIP3    H116605   1.967   3.006   0.362 -1.6172 -0.5911 -0.7829
 5533TIP3    H216606   2.085   3.002   0.267 -0.0832  2.3248  0.8390
 5534TIP3   OH216607   1.712   4.469   5.092 -0.2676 -0.7446 -0.1444
 5534TIP3    H116608   1.800   4.477   5.055  0.4388 -0.6804  1.4512
 5534TIP3    H216609   1.687   4.378   5.074  0.8723 -1.2944  0.8818
 5535TIP3   OH216610   5.487   4.984   4.297 -0.1428 -0.4690 -0.2065
 5535TIP3    H116611   5.444   5.068   4.280  4.5609  2.1355 -0.9000
 5535TIP3    H216612   5.501   4.983   4.391 -1.6816 -1.4005  0.0435
 5536TIP3   OH216613   4.181   4.713   2.787 -0.2779  0.2904  0.4607
 5536TIP3    H116614   4.124   4.739   2.715  0.9827  0.0125 -0.6898
 5536TIP3    H216615   4.211   4.625   2.763 -2.3054 -1.1933  2.9113
 5537TIP3   OH216616   5.537   4.708   0.919  0.3023 -0.3296  1.5401
 5537TIP3    H116617   5.610   4.753   0.877 -0.2023  0.6772  1.6975
 5537TIP3    H216618   5.542   4.618   0.886 -0.2623  0.4825 -1.0050
 5538TIP3   OH216619   0.628   1.607   4.664 -0.6074  0.2910  0.4899
 5538TIP3    H116620   0.678   1.556   4.601 -2.7676 -0.9843 -0.2965
 5538TIP3    H216621   0.692   1.632   4.731  1.1445 -0.7872 -0.7031
 5539TIP3   OH216622   1.969   4.876   4.671 -0.4116  0.4039 -0.8342
 5539TIP3    H116623   2.048   4.928   4.655 -0.0958 -0.0391 -0.7577
 5539TIP3    H216624   1.960   4.821   4.592  0.3942 -0.8339 -0.1049
 5540TIP3   OH216625   0.336   0.263   4.166 -0.1835  0.4392 -0.0964
 5540TIP3    H116626   0.415   0.286   4.214 -0.6859 -0.5260  1.2611
 5540TIP3    H216627   0.325   0.333   4.102  1.0186  1.2889  0.5935
 5541TIP3   OH216628   1.512   4.946   0.250 -0.3877 -0.2877 -0.7172
 5541TIP3    H116629   1.439   4.900   0.291 -0.3722 -0.2993 -0.7026
 5541TIP3    H216630   1.589   4.919   0.300 -0.7435  2.1778  1.4012
 5542TIP3   OH216631   3.751   3.066   1.908 -0.0015 -0.4535  0.4022
 5542TIP3    H116632   3.817   3.129   1.934 -1.5210  0.6106  1.9283
 5542TIP3    H216633   3.792   2.980   1.923  1.5066  0.1481 -0.1173
 5543TIP3   OH216634   5.455   3.061   1.266 -0.1824 -0.5283  0.0726
 5543TIP3    H116635   5.529   3.075   1.324 -0.9873  1.0236  0.7853
 5543TIP3    H216636   5.466   2.971   1.234  1.0743 -0.9073  1.4680
 5544TIP3   OH216637   0.541   2.742   4.285  0.0518  0.0091  0.3750
 5544TIP3    H116638   0.532   2.818   4.341  2.0279  1.8101 -1.5455
 5544TIP3    H216639   0.596   2.682   4.335  0.9842  1.1602  0.7830
 5545TIP3   OH216640   0.116   2.968   2.953  0.4412 -0.1645  0.2266
 5545TIP3    H116641   0.202   2.973   2.994 -0.6039  1.3953  2.4354
 5545TIP3    H216642   0.110   3.048   2.900  0.1958 -0.0267  0.4575
 5546TIP3   OH216643   4.214   4.853   4.642 -0.4313  0.4484  0.1467
 5546TIP3    H116644   4.225   4.916   4.714  1.8480  1.9940 -1.4035
 5546TIP3    H216645   4.172   4.904   4.572 -1.7143 -0.7562  0.0020
 5547TIP3   OH216646   4.610   2.509   0.441  0.4250  0.6310  0.5269
 5547TIP3    H116647   4.537   2.448   0.438 -0.6309  1.8510  0.2220
 5547TIP3    H216648   4.661   2.489   0.362 -0.5773  0.9168 -0.2164
 5548TIP3   OH216649   5.564   4.813   2.491  0.2276  0.3570 -0.0183
 5548TIP3    H116650   5.622   4.829   2.565  1.6795  1.6227 -1.3469
 5548TIP3    H216651   5.621   4.771   2.426 -0.4450  1.2258 -1.2000
 5549TIP3   OH216652   5.408   2.776   1.050  0.1005 -0.1964  0.7779
 5549TIP3    H116653   5.385   2.733   1.133 -0.1180 -1.5203  0.0532
 5549TIP3    H216654   5.502   2.793   1.058 -0.0112  0.1230  1.4867
 5550TIP3   OH216655   3.280   3.385   5.110  0.1391 -0.0981 -0.5314
 5550TIP3    H116656   3.366   3.420   5.086 -0.6697  0.9322 -2.1019
 5550TIP3    H216657   3.295   3.339   5.193  1.6665  2.2369  0.5854
 5551TIP3   OH216658   3.771   4.502   3.599  0.2659  0.6254  0.1161
 5551TIP3    H116659   3.849   4.520   3.652  0.5807  0.3104 -0.2318
 5551TIP3    H216660   3.787   4.549   3.517  1.1817 -1.3013 -0.8810
 5552TIP3   OH216661   4.144   3.034   0.424 -0.3286  0.4616 -0.1835
 5552TIP3    H116662   4.236   3.049   0.442  0.3141 -1.4618 -1.4872
 5552TIP3    H216663   4.126   3.085   0.345  0.1212 -0.4523 -0.9049
 5553TIP3   OH216664   1.024   2.701   1.916  0.0861  0.3552 -0.5883
 5553TIP3    H116665   1.072   2.723   1.836 -0.7275  0.9855 -0.9190
 5553TIP3    H216666   0.991   2.613   1.900 -0.6956  0.7549 -1.2719
 5554TIP3   OH216667   1.852   3.008   4.653 -0.1335  0.2560  0.4639
 5554TIP3    H116668   1.780   2.945   4.651 -1.7569  1.9681  1.3392
 5554TIP3    H216669   1.905   2.986   4.577 -1.2352 -1.4620  0.1287
 5555TIP3   OH216670   2.518   4.449   1.023 -0.1036 -0.4603  0.5817
 5555TIP3    H116671   2.479   4.362   1.033  0.5045 -0.5496  2.6278
 5555TIP3    H216672   2.443   4.509   1.026 -0.5097 -0.8547 -0.6725
 5556TIP3   OH216673   0.522   5.774   3.631  0.4122  0.4884  0.3676
 5556TIP3    H116674   0.516   5.865   3.604  2.2580  0.1383 -1.4417
 5556TIP3    H216675   0.570   5.777   3.715 -0.7392  1.2341  1.0186
 5557TIP3   OH216676   4.052   0.518   1.891  0.5629  0.2374  0.3162
 5557TIP3    H116677   4.065   0.557   1.804  1.1079 -0.7540 -0.0610
 5557TIP3    H216678   4.037   0.593   1.948 -3.4254  0.8305 -1.1615
 5558TIP3   OH216679   3.626   4.052   4.528  0.5175 -0.1343 -0.0273
 5558TIP3    H116680   3.630   3.958   4.546  0.5145 -0.1583 -0.1524
 5558TIP3    H216681   3.597   4.091   4.611  1.1617 -0.1759  0.2198
 5559TIP3   OH216682   6.156   2.984   1.167  0.5374 -0.1132 -0.0795
 5559TIP3    H116683   6.147   3.076   1.192  0.3408 -0.7681  2.6541
 5559TIP3    H216684   6.249   2.974   1.145  0.9538  0.3993  1.3327
 5560TIP3   OH216685   2.337   4.214   2.017 -0.5096 -0.0909 -0.2142
 5560TIP3    H116686   2.276   4.162   1.965 -1.0228 -0.0256  0.3056
 5560TIP3    H216687   2.410   4.154   2.035  0.8331  0.5678 -2.9475
 5561TIP3   OH216688   5.704   4.847   2.761  0.3599 -0.5637 -0.3618
 5561TIP3    H116689   5.693   4.927   2.812  1.9794 -1.9105  2.3995
 5561TIP3    H216690   5.797   4.846   2.738 -0.1955 -0.3634 -2.8224
 5562TIP3   OH216691   1.270   5.242   2.306 -0.5621  0.0707 -0.4442
 5562TIP3    H116692   1.175   5.236   2.322 -0.7336  0.5934 -1.2423
 5562TIP3    H216693   1.297   5.320   2.355 -0.1568 -1.2039  1.4712
 5563TIP3   OH216694   3.835   1.571   1.938  0.5460 -0.8758 -0.7670
 5563TIP3    H116695   3.867   1.653   1.900 -0.5908  0.0642  0.2236
 5563TIP3    H216696   3.814   1.594   2.029  1.1258 -2.5191 -0.1793
 5564TIP3   OH216697   1.989   5.605   0.711  0.1243  0.1711  0.0442
 5564TIP3    H116698   2.066   5.661   0.707  0.6124 -0.2962  1.9104
 5564TIP3    H216699   2.024   5.516   0.716 -0.6157 -0.2396 -1.4017
 5565TIP3   OH216700   5.005   2.654   2.912  0.0188 -0.0252 -0.2464
 5565TIP3    H116701   5.030   2.566   2.939 -0.6841 -0.2031 -0.1700
 5565TIP3    H216702   5.004   2.651   2.817  2.1827  0.5149 -0.3339
 5566TIP3   OH216703   1.426   1.730   1.445 -0.3208  0.1278 -0.0471
 5566TIP3    H116704   1.378   1.650   1.463 -0.0219  0.3070  1.7575
 5566TIP3    H216705   1.429   1.776   1.529 -0.8482  2.2468 -1.1214
 5567TIP3   OH216706   2.836   1.157   4.789  0.1860  0.1619 -0.5293
 5567TIP3    H116707   2.747   1.154   4.823 -0.5317 -0.5113 -2.3366
 5567TIP3    H216708   2.876   1.232   4.833 -1.3227  0.5979  0.1643
 5568TIP3   OH216709   0.359   5.958   1.344 -0.1785 -0.1605  0.1299
 5568TIP3    H116710   0.373   5.874   1.388 -0.0548 -0.4657 -0.4790
 5568TIP3    H216711   0.446   5.984   1.314 -0.3538 -0.2729 -0.4868
 5569TIP3   OH216712   0.979   0.701   4.509  0.6131 -0.1971 -0.1535
 5569TIP3    H116713   0.941   0.620   4.473  1.4931  0.0904 -1.8621
 5569TIP3    H216714   1.027   0.673   4.586  0.0476 -1.1491 -0.1345
 5570TIP3   OH216715   2.833   2.707   3.321 -0.0604 -0.4051 -0.2033
 5570TIP3    H116716   2.826   2.746   3.234  0.2147 -0.0928 -0.0853
 5570TIP3    H216717   2.861   2.778   3.377 -1.1953 -0.3645  0.3377
 5571TIP3   OH216718   2.325   5.217   0.033 -0.3385 -0.3998  0.3832
 5571TIP3    H116719   2.304   5.268  -0.045  1.9975 -0.3337 -0.2978
 5571TIP3    H216720   2.337   5.282   0.102  0.2142 -0.2031  0.1124
 5572TIP3   OH216721   2.767   3.729   3.748 -0.0092 -0.3329  0.0580
 5572TIP3    H116722   2.792   3.637   3.735 -1.6542 -0.5743 -1.7854
 5572TIP3    H216723   2.829   3.778   3.694 -1.0933 -0.6556 -1.5592
 5573TIP3   OH216724   6.371   0.121   1.279 -0.4844  0.3271 -0.2419
 5573TIP3    H116725   6.355   0.157   1.366  0.2931  0.0181  0.0355
 5573TIP3    H216726   6.284   0.115   1.240 -1.0307 -0.9397  1.0672
 5574TIP3   OH216727   4.023   2.499   1.298  0.0334  0.1014 -0.1263
 5574TIP3    H116728   3.953   2.446   1.337  0.2332  0.6645  1.0613
 5574TIP3    H216729   4.027   2.578   1.353  0.7544  0.6498 -0.9393
 5575TIP3   OH216730   3.214   2.596   3.922  0.1804  0.2739  0.2281
 5575TIP3    H116731   3.181   2.634   3.841  0.3251 -0.1809 -0.0471
 5575TIP3    H216732   3.175   2.509   3.926  1.2365 -0.2353 -0.0447
 5576TIP3   OH216733   2.335   2.407   2.660 -0.3887 -0.2228 -0.0874
 5576TIP3    H116734   2.334   2.320   2.700  0.1971 -1.1577 -1.9859
 5576TIP3    H216735   2.242   2.432   2.655 -0.4775  0.0394  1.9598
 5577TIP3   OH216736   1.952   4.700   0.397 -0.0824 -0.8666 -0.3050
 5577TIP3    H116737   1.968   4.620   0.348  2.3311 -0.1477 -0.8384
 5577TIP3    H216738   2.020   4.761   0.366  0.0604  0.3850  2.2298
 5578TIP3   OH216739   5.822   3.125   5.014 -0.0001  0.1570  0.2312
 5578TIP3    H116740   5.809   3.165   5.100 -0.0120  0.9038 -0.1135
 5578TIP3    H216741   5.902   3.072   5.024 -0.8339 -0.9832  1.1216
 5579TIP3   OH216742   2.094   3.857   5.166  0.2369 -0.3227  0.4789
 5579TIP3    H116743   2.072   3.837   5.076  0.4174  1.7999 -0.1052
 5579TIP3    H216744   2.181   3.821   5.179  0.0525 -0.9723 -0.0695
 5580TIP3   OH216745   1.309   4.618   0.231  0.2197  0.5835 -0.0980
 5580TIP3    H116746   1.310   4.707   0.266  0.8077  1.0092 -1.1496
 5580TIP3    H216747   1.216   4.600   0.215  0.1937  1.5250 -1.1159
 5581TIP3   OH216748   4.794   5.759   2.396 -0.1659  0.3301  0.2060
 5581TIP3    H116749   4.847   5.770   2.475 -1.2136 -0.9529  1.1428
 5581TIP3    H216750   4.704   5.762   2.427 -0.6098 -1.8491 -0.6396
 5582TIP3   OH216751   5.361   2.533   1.570 -0.9335  0.1510 -0.0677
 5582TIP3    H116752   5.371   2.456   1.515 -1.6048 -0.3100  0.4366
 5582TIP3    H216753   5.436   2.532   1.629 -0.6189  0.2239 -0.4673
 5583TIP3   OH216754   2.665   1.223   1.836  0.0711  0.1815  0.4209
 5583TIP3    H116755   2.618   1.291   1.787 -0.4346  0.3553  1.1195
 5583TIP3    H216756   2.622   1.222   1.922 -1.0217 -2.1086 -0.0577
 5584TIP3   OH216757   0.960   4.366   0.097 -0.1871 -0.7742 -0.2388
 5584TIP3    H116758   0.925   4.364   0.186  1.7669  0.7674  0.6472
 5584TIP3    H216759   1.046   4.323   0.104  0.8851  1.1381 -0.8797
 5585TIP3   OH216760   2.787   3.414   0.234  0.0790  0.6457 -0.6067
 5585TIP3    H116761   2.766   3.475   0.304  2.0853  0.4618  0.2193
 5585TIP3    H216762   2.707   3.362   0.223 -0.5932  1.3090  0.8851
 5586TIP3   OH216763   0.665   3.986   4.109  0.1392  0.0591  0.0893
 5586TIP3    H116764   0.606   3.933   4.163  0.2261  0.0183  0.1444
 5586TIP3    H216765   0.733   3.926   4.082 -0.9249 -0.4138 -1.6849
 5587TIP3   OH216766   6.369   1.291   2.659 -0.0348 -0.3889  0.0257
 5587TIP3    H116767   6.317   1.214   2.680  2.2314 -1.9348  0.4293
 5587TIP3    H216768   6.369   1.343   2.739 -0.5434 -0.6031  0.1695
 5588TIP3   OH216769   5.374   2.322   1.398 -0.7687  0.5018  0.8178
 5588TIP3    H116770   5.292   2.294   1.357 -0.2604  0.9480 -0.5754
 5588TIP3    H216771   5.431   2.245   1.395 -0.4050  0.7896 -0.2460
 5589TIP3   OH216772   5.312   1.091   1.394 -0.4750  0.2472 -0.5368
 5589TIP3    H116773   5.357   1.143   1.462  0.0942 -2.6088  1.4313
 5589TIP3    H216774   5.220   1.095   1.418 -0.3537 -0.2064  0.0025
 5590TIP3   OH216775   4.046   0.336   0.738  0.3036  0.1278  0.3973
 5590TIP3    H116776   3.961   0.350   0.780 -0.1753  0.7535 -0.7456
 5590TIP3    H216777   4.096   0.415   0.760  0.7872 -0.4617  1.4903
 5591TIP3   OH216778   1.686   2.453   3.966 -0.1540 -0.4532  0.0032
 5591TIP3    H116779   1.665   2.408   3.884  0.4776 -2.1610  0.7299
 5591TIP3    H216780   1.717   2.383   4.024 -1.4096  0.5639  1.9914
 5592TIP3   OH216781   5.892   2.051   0.298  0.2493  0.0975  0.1816
 5592TIP3    H116782   5.803   2.060   0.265  0.3910  1.2218  0.0576
 5592TIP3    H216783   5.887   2.082   0.389  0.1217 -1.7666  0.8519
 5593TIP3   OH216784   3.245   2.931   2.114 -0.4571  0.9819  0.2848
 5593TIP3    H116785   3.240   2.975   2.029 -0.3240 -2.5942 -1.7350
 5593TIP3    H216786   3.157   2.940   2.151 -1.7018 -0.5975 -2.0573
 5594TIP3   OH216787   4.975   0.867   2.838 -0.0212 -0.2562 -0.6267
 5594TIP3    H116788   4.906   0.807   2.807  0.4966 -1.1335 -0.1211
 5594TIP3    H216789   5.000   0.832   2.923  1.2850 -0.1480 -0.9502
 5595TIP3   OH216790   1.050   1.514   2.157 -0.6945  0.6199  0.0767
 5595TIP3    H116791   1.075   1.429   2.122  1.1126  1.3578 -0.5232
 5595TIP3    H216792   0.991   1.551   2.091 -4.7183 -1.6156  2.0346
 5596TIP3   OH216793   6.216   5.218   0.263 -0.5068 -0.0702  0.5010
 5596TIP3    H116794   6.147   5.152   0.253  0.3126 -1.1176  1.4948
 5596TIP3    H216795   6.224   5.231   0.357  1.8531 -1.3382  0.5533
 5597TIP3   OH216796   4.866   3.371   5.142 -0.3689 -0.0082  0.5804
 5597TIP3    H116797   4.834   3.460   5.125  1.9218  0.8502  0.3566
 5597TIP3    H216798   4.869   3.329   5.056 -1.6690 -0.4102  0.7153
 5598TIP3   OH216799   1.775   0.812   1.250  0.1965 -0.6492 -0.3404
 5598TIP3    H116800   1.680   0.810   1.257  0.1777  1.5996  0.9962
 5598TIP3    H216801   1.804   0.734   1.298 -0.9407 -0.1982  1.1509
 5599TIP3   OH216802   4.381   4.933   3.481  0.5750  0.1334 -0.0463
 5599TIP3    H116803   4.392   5.009   3.423  0.6229 -0.0293 -0.2508
 5599TIP3    H216804   4.374   4.858   3.421  1.8645 -0.1996  0.1761
 5600TIP3   OH216805   6.236  -0.008   1.853  0.7612  0.4635  0.0910
 5600TIP3    H116806   6.160  -0.003   1.794  0.8605 -0.9809 -0.1957
 5600TIP3    H216807   6.257   0.084   1.872 -0.7788  0.9072 -0.1665
 5601TIP3   OH216808   1.221   5.545   2.163 -0.6598 -0.0882 -0.2379
 5601TIP3    H116809   1.267   5.620   2.126  0.0078 -0.0489  0.6512
 5601TIP3    H216810   1.198   5.491   2.087 -3.0609  2.0302 -1.1668
 5602TIP3   OH216811   2.416   4.209   1.079  0.2814  0.0438  0.1614
 5602TIP3    H116812   2.461   4.124   1.079  0.0428 -0.1294 -1.5137
 5602TIP3    H216813   2.369   4.212   1.162  1.0942 -1.0131  0.6923
 5603TIP3   OH216814   1.978   4.799   1.968  0.5563 -0.1860 -0.0370
 5603TIP3    H116815   1.903   4.786   1.911 -0.6574  2.1499  0.9057
 5603TIP3    H216816   2.050   4.821   1.909 -0.1456  0.1143 -0.7878
 5604TIP3   OH216817   0.600   0.624   0.938 -0.0374  0.5171  0.4755
 5604TIP3    H116818   0.633   0.597   1.023 -0.6741  1.5466  1.0682
 5604TIP3    H216819   0.518   0.576   0.927  1.0955 -1.2874 -0.5604
 5605TIP3   OH216820   0.026   2.650   1.241 -0.3225 -0.3298 -0.1919
 5605TIP3    H116821  -0.058   2.605   1.236 -0.4819 -0.1405  0.6689
 5605TIP3    H216822   0.064   2.622   1.325  0.5642 -0.5684 -0.6608
 5606TIP3   OH216823   2.097   0.228   3.776  0.3251  0.9066 -0.3839
 5606TIP3    H116824   2.011   0.189   3.765  0.7069  0.4606 -2.1026
 5606TIP3    H216825   2.080   0.314   3.815 -0.9431  1.0232 -1.1447
 5607TIP3   OH216826   0.481   0.708   4.449 -0.2502  0.1694  0.1583
 5607TIP3    H116827   0.510   0.723   4.359 -2.7481  0.5659 -0.6506
 5607TIP3    H216828   0.524   0.777   4.500  0.0980  0.7953 -0.9586
 5608TIP3   OH216829   3.257   0.219   0.297 -0.4135 -0.0987 -0.2203
 5608TIP3    H116830   3.268   0.307   0.333 -0.2324  0.9860 -2.7885
 5608TIP3    H216831   3.163   0.211   0.281 -0.2184  0.3845 -1.7223
 5609TIP3   OH216832   3.921   5.292   0.252 -0.3727  0.4392  0.0742
 5609TIP3    H116833   3.998   5.323   0.300  0.0889  4.0089 -2.5635
 5609TIP3    H216834   3.851   5.353   0.277 -0.5946  1.2192 -2.2350
 5610TIP3   OH216835   0.630   3.544   3.478  0.5161  0.1333  0.5535
 5610TIP3    H116836   0.621   3.515   3.569 -2.2178  0.0588  0.3286
 5610TIP3    H216837   0.546   3.583   3.456  1.0341  0.0035 -2.0185
 5611TIP3   OH216838   0.945   2.447   4.978  0.0868 -0.1702 -0.0289
 5611TIP3    H116839   0.910   2.507   5.043  1.3523 -0.4805  0.9888
 5611TIP3    H216840   0.870   2.394   4.951 -0.9826  1.6215 -0.7244
 5612TIP3   OH216841   1.446   5.444   3.888 -0.1550 -0.1417 -0.3030
 5612TIP3    H116842   1.400   5.527   3.902  1.0057  0.4639  0.0569
 5612TIP3    H216843   1.460   5.411   3.977 -1.0971 -1.0214 -0.4611
 5613TIP3   OH216844   0.607   5.880   1.103  0.3449 -0.7739  0.8414
 5613TIP3    H116845   0.663   5.853   1.030 -0.3950 -1.5556  0.5451
 5613TIP3    H216846   0.659   5.944   1.151  1.3438 -1.2059  0.3605
 5614TIP3   OH216847   2.952   0.409   0.160 -0.2236 -0.7068  0.6432
 5614TIP3    H116848   2.967   0.504   0.162  0.2004 -0.7840  1.0609
 5614TIP3    H216849   2.893   0.397   0.085 -0.2803 -0.1143  0.5824
 5615TIP3   OH216850   0.646   5.877   0.283  0.1232  0.4621  0.1273
 5615TIP3    H116851   0.557   5.910   0.271 -0.4957 -0.9207  0.7430
 5615TIP3    H216852   0.681   5.870   0.194 -0.7792 -0.0326 -0.2059
 5616TIP3   OH216853   2.633   3.115   3.828  0.2122 -0.0983 -0.3160
 5616TIP3    H116854   2.637   3.196   3.879 -1.3589  0.5117 -1.0937
 5616TIP3    H216855   2.574   3.059   3.878 -0.7092  0.2062 -1.0378
 5617TIP3   OH216856   5.892   0.384   2.430 -0.4336 -0.6945 -0.5309
 5617TIP3    H116857   5.824   0.450   2.446 -0.2746 -0.7027  0.2038
 5617TIP3    H216858   5.973   0.425   2.461 -0.4736 -1.5613  0.7911
 5618TIP3   OH216859   4.278   3.351   4.139  0.1733 -0.0111  0.1696
 5618TIP3    H116860   4.292   3.405   4.062  0.4392 -1.2984 -0.7195
 5618TIP3    H216861   4.241   3.269   4.105 -0.3112 -0.3669  1.4756
 5619TIP3   OH216862   0.872   2.800   1.110  0.0108 -0.7843  0.4079
 5619TIP3    H116863   0.896   2.733   1.175 -0.4347 -0.7560  0.6102
 5619TIP3    H216864   0.955   2.839   1.084  0.1954 -0.7623  1.0030
 5620TIP3   OH216865   1.163   1.411   1.730 -0.0019 -0.3793  0.3477
 5620TIP3    H116866   1.105   1.486   1.737  0.4951  0.0550 -0.1099
 5620TIP3    H216867   1.160   1.369   1.816 -0.7049 -0.1566  0.4344
 5621TIP3   OH216868   1.445   1.290   4.809 -0.0871  0.4564  0.6002
 5621TIP3    H116869   1.509   1.294   4.738 -0.1754  1.0202  0.5475
 5621TIP3    H216870   1.472   1.214   4.862  0.9203  0.9782  0.8577
 5622TIP3   OH216871   5.764   1.416   0.926 -0.2317  0.0532 -0.7352
 5622TIP3    H116872   5.844   1.447   0.967 -0.8446 -0.3455  0.8522
 5622TIP3    H216873   5.728   1.493   0.883 -0.9972  1.3187  1.9432
 5623TIP3   OH216874   1.128   2.417   0.414 -0.4501  0.5016 -0.3479
 5623TIP3    H116875   1.061   2.480   0.391  1.3244  1.7286 -2.5898
 5623TIP3    H216876   1.148   2.371   0.332  1.6516  0.4372  0.1322
 5624TIP3   OH216877   3.711   2.942   4.465 -0.2693 -0.3338 -0.1111
 5624TIP3    H116878   3.711   2.879   4.537 -1.2939 -0.3721 -0.1334
 5624TIP3    H216879   3.655   3.013   4.495  1.1321  0.7560  0.0464
 5625TIP3   OH216880   1.528   0.028   0.969  0.2460  0.6460  0.4874
 5625TIP3    H116881   1.506  -0.040   0.906  2.3470 -2.4282  2.7916
 5625TIP3    H216882   1.616   0.056   0.944 -0.7785  3.1584 -0.7640
 5626TIP3   OH216883   1.906   3.846   2.748  0.9438 -0.5110  0.6028
 5626TIP3    H116884   1.885   3.773   2.806 -2.2089  0.2028  0.5764
 5626TIP3    H216885   1.968   3.899   2.798  1.0012 -1.7043  1.8553
 5627TIP3   OH216886   5.979   2.012   5.084  0.4360 -0.1885  0.5496
 5627TIP3    H116887   6.029   1.989   5.163  3.2902  0.6209 -0.8964
 5627TIP3    H216888   6.014   1.953   5.016 -2.0701 -0.9783 -0.1582
 5628TIP3   OH216889   2.015   0.741   4.550  0.7505  0.1603 -0.1576
 5628TIP3    H116890   2.005   0.689   4.471  1.1534 -0.6582  0.3171
 5628TIP3    H216891   1.953   0.814   4.539 -0.3144 -0.7721 -0.5502
 5629TIP3   OH216892   5.671   4.783   5.073  0.2306 -0.3240  0.2522
 5629TIP3    H116893   5.661   4.694   5.107  2.4590  0.0946  2.2593
 5629TIP3    H216894   5.673   4.839   5.151 -1.5495  1.5945 -0.9655
 5630TIP3   OH216895   4.669   0.864   3.056  0.1618  0.1400 -0.2944
 5630TIP3    H116896   4.764   0.860   3.046  0.1501  1.2062 -0.9260
 5630TIP3    H216897   4.656   0.876   3.150  0.4997 -3.1279  0.3158
 5631TIP3   OH216898   4.527   5.570   2.589  0.3631 -0.5411  0.2671
 5631TIP3    H116899   4.467   5.495   2.586  0.2825 -0.4610 -0.4258
 5631TIP3    H216900   4.580   5.555   2.667 -1.6589  0.2523  1.8944
 5632TIP3   OH216901   1.065   3.330   3.107  0.1068 -0.0327 -0.3139
 5632TIP3    H116902   1.103   3.365   3.188  0.7252 -0.4847 -0.3944
 5632TIP3    H216903   0.977   3.302   3.131  0.2701 -0.1192  0.1927
 5633TIP3   OH216904   2.577   2.251   0.900 -0.6609  0.5799  0.0422
 5633TIP3    H116905   2.625   2.333   0.908  0.6929  0.0780 -2.0498
 5633TIP3    H216906   2.485   2.275   0.913 -0.1713  2.1705  0.7848
 5634TIP3   OH216907   5.998   2.005   3.174  0.0373 -0.7290 -0.1051
 5634TIP3    H116908   5.921   2.027   3.123  0.1086  0.9193  0.4387
 5634TIP3    H216909   5.991   1.911   3.189 -0.5130 -1.0711 -2.2162
 5635TIP3   OH216910   4.991   1.384   2.695  0.1967 -0.3928  0.0821
 5635TIP3    H116911   5.025   1.459   2.648 -0.7895  0.7432  1.1155
 5635TIP3    H216912   4.896   1.390   2.685  0.0445 -0.8878  1.0474
 5636TIP3   OH216913   4.357   3.915   0.369 -0.4363  0.1244 -0.0215
 5636TIP3    H116914   4.291   3.909   0.300  1.6590 -1.7344 -2.0383
 5636TIP3    H216915   4.320   3.866   0.442 -0.8053 -2.0654 -1.5827
 5637TIP3   OH216916   2.629   0.245   3.323 -0.2695 -0.4956  0.5579
 5637TIP3    H116917   2.617   0.339   3.341  2.4564 -0.2176  1.5789
 5637TIP3    H216918   2.551   0.203   3.358 -1.5428  1.3969  0.1057
 5638TIP3   OH216919   4.844   5.205   3.246  0.3218 -0.2973 -0.2136
 5638TIP3    H116920   4.896   5.167   3.175  2.0168  0.5701  0.4886
 5638TIP3    H216921   4.888   5.288   3.265 -1.4585  0.5483  0.3324
 5639TIP3   OH216922   0.791   1.240   2.423  0.0777 -0.1233  0.4662
 5639TIP3    H116923   0.814   1.316   2.476 -0.4801 -0.3132  0.9954
 5639TIP3    H216924   0.751   1.179   2.486  0.3939 -0.7950  0.0271
 5640TIP3   OH216925   1.740   0.920   4.433 -0.0648 -0.0911  0.5519
 5640TIP3    H116926   1.735   0.960   4.520 -0.1517 -0.3043  0.6454
 5640TIP3    H216927   1.684   0.975   4.378  0.1892  0.1912  0.5740
 5641TIP3   OH216928   0.362   3.750   1.217  0.4180 -0.6825  0.0632
 5641TIP3    H116929   0.283   3.751   1.271  0.6805  1.0747  0.4665
 5641TIP3    H216930   0.381   3.657   1.203 -1.4430 -1.1323  0.3485
 5642TIP3   OH216931   1.701   4.579   2.386  0.1125 -0.7051 -0.0776
 5642TIP3    H116932   1.778   4.530   2.416  0.5868  0.6781  1.1095
 5642TIP3    H216933   1.736   4.639   2.320  0.2189  0.3534  0.9001
 5643TIP3   OH216934   4.163   4.939   4.895  0.0265  0.2235 -0.3386
 5643TIP3    H116935   4.250   4.974   4.915  1.3879 -2.6314 -0.7486
 5643TIP3    H216936   4.104   4.989   4.951  2.3392 -0.0658  2.6384
 5644TIP3   OH216937   2.909   1.876   3.245  0.1574 -0.4296  0.3532
 5644TIP3    H116938   2.875   1.884   3.156  0.6544 -0.5508  0.1464
 5644TIP3    H216939   2.940   1.964   3.267  0.6165 -0.5373  0.1590
 5645TIP3   OH216940   1.146   5.322   0.174  0.5999  0.4086  0.1363
 5645TIP3    H116941   1.095   5.401   0.161  0.6831  0.8516  2.1290
 5645TIP3    H216942   1.128   5.268   0.097 -0.0094  2.0532 -0.9125
 5646TIP3   OH216943   5.240   1.408   0.694  0.0775 -0.6006  0.0706
 5646TIP3    H116944   5.316   1.397   0.751 -1.2337  1.0829  2.2636
 5646TIP3    H216945   5.253   1.493   0.651 -0.6933 -0.1577  0.6941
 5647TIP3   OH216946   2.401   4.708   1.983  0.2275 -0.4098 -0.4418
 5647TIP3    H116947   2.313   4.740   1.966  0.1669 -0.6296 -0.5324
 5647TIP3    H216948   2.404   4.696   2.078 -0.1044 -1.1844 -0.5250
 5648TIP3   OH216949   6.013   4.691   0.174 -0.3716 -0.4165  0.4094
 5648TIP3    H116950   6.011   4.752   0.100 -1.1796 -0.1603  0.6334
 5648TIP3    H216951   5.974   4.611   0.141 -0.8448 -0.2631  0.5821
 5649TIP3   OH216952   0.559   5.144   4.540 -0.1888 -0.1434  0.6523
 5649TIP3    H116953   0.583   5.226   4.584  1.2218 -1.8527  3.3314
 5649TIP3    H216954   0.631   5.085   4.558 -1.0195 -1.9494 -1.4699
 5650TIP3   OH216955   3.852   0.974   1.997 -0.0436 -0.3432  0.3088
 5650TIP3    H116956   3.859   1.014   1.911 -0.0594 -1.2898 -0.1475
 5650TIP3    H216957   3.758   0.975   2.017 -0.1307 -0.8470 -0.0509
 5651TIP3   OH216958   2.242   3.625   0.901  0.0640 -0.3499  0.5473
 5651TIP3    H116959   2.301   3.669   0.962  1.5523  1.9449 -2.3209
 5651TIP3    H216960   2.292   3.617   0.820 -2.8607 -0.0967 -1.4541
 5652TIP3   OH216961   2.063   5.955   5.141  0.0143  0.4490 -0.4056
 5652TIP3    H116962   2.080   6.023   5.207  2.3820 -0.2557 -0.2008
 5652TIP3    H216963   2.065   5.873   5.191 -0.5933  0.0677 -0.9966
 5653TIP3   OH216964   0.614   2.012   3.037  0.5810 -0.1292 -0.1408
 5653TIP3    H116965   0.698   2.004   3.081  0.5656 -0.1947 -0.1233
 5653TIP3    H216966   0.557   2.054   3.102  0.1968 -1.4285  0.3759
 5654TIP3   OH216967   3.642   5.814   3.809  0.5691  0.1791 -0.0521
 5654TIP3    H116968   3.624   5.837   3.718 -0.0667  0.9699  0.2646
 5654TIP3    H216969   3.572   5.856   3.859  1.1264  0.0729  0.8403
 5655TIP3   OH216970   5.397   0.644   4.975 -0.0931 -0.3959  1.0653
 5655TIP3    H116971   5.440   0.680   4.897  1.0797  1.4667  2.4582
 5655TIP3    H216972   5.317   0.695   4.984 -1.1167 -1.7859  0.1731
 5656TIP3   OH216973   1.505   3.178   2.329 -0.2673 -0.3164 -0.9089
 5656TIP3    H116974   1.418   3.217   2.328 -0.3147 -0.0880  2.4522
 5656TIP3    H216975   1.565   3.251   2.341  0.1772 -0.7164 -0.6494
 5657TIP3   OH216976   4.529   5.256   0.142 -0.1071  0.3421  0.2538
 5657TIP3    H116977   4.616   5.263   0.182  0.0101 -1.4605  0.3692
 5657TIP3    H216978   4.478   5.205   0.204 -0.4317 -0.9786 -1.0473
 5658TIP3   OH216979   5.323   5.878   1.619 -0.2771  0.2907 -0.5235
 5658TIP3    H116980   5.290   5.927   1.544 -1.1120  1.6977  0.7148
 5658TIP3    H216981   5.253   5.884   1.684 -0.1343 -2.0170 -0.0743
 5659TIP3   OH216982   4.200   0.762   1.892 -0.5443 -0.0519 -0.5280
 5659TIP3    H116983   4.212   0.853   1.920 -0.5647  0.1469 -1.1487
 5659TIP3    H216984   4.260   0.711   1.947  0.9107  0.5635 -1.4642
 5660TIP3   OH216985   0.112   1.888   1.765 -0.5668  0.6906 -0.3375
 5660TIP3    H116986   0.125   1.880   1.860  0.7558 -0.0725 -0.5668
 5660TIP3    H216987   0.047   1.821   1.745  0.0233  0.0487 -0.1373
 5661TIP3   OH216988   5.276   3.128   3.828  0.1227  0.2403  0.5795
 5661TIP3    H116989   5.295   3.194   3.895 -3.1212 -0.5650  2.5026
 5661TIP3    H216990   5.258   3.179   3.748  1.7224  1.3652  0.8937
 5662TIP3   OH216991   4.423   4.196   0.490  0.2420 -0.4405  0.3561
 5662TIP3    H116992   4.330   4.184   0.472 -0.1715  0.0288  2.0473
 5662TIP3    H216993   4.460   4.108   0.486 -0.0524 -0.5342 -1.2543
 5663TIP3   OH216994   1.025   1.669   2.991  0.4532  0.0038  0.0783
 5663TIP3    H116995   1.032   1.575   2.976 -1.6269 -0.2633  0.5726
 5663TIP3    H216996   1.019   1.677   3.087 -1.8797  0.3754 -0.0389
 5664TIP3   OH216997   2.880   2.027   4.532  0.5095  0.6032 -0.0843
 5664TIP3    H116998   2.825   2.012   4.609 -1.6899  0.2513 -1.6332
 5664TIP3    H216999   2.916   2.115   4.544  0.0616  0.6229  1.2347
 5665TIP3   OH217000   0.267   1.615   1.695  0.1886 -0.9326  0.6998
 5665TIP3    H117001   0.347   1.586   1.650  0.0941 -0.5776  0.3075
 5665TIP3    H217002   0.276   1.579   1.783  1.3049  0.0119  0.9985
 5666TIP3   OH217003   1.039   4.819   1.301  0.5770 -0.0716  0.7293
 5666TIP3    H117004   0.985   4.841   1.225 -0.7281 -2.9902  0.6540
 5666TIP3    H217005   1.127   4.809   1.266  0.4053  0.7739  0.0315
 5667TIP3   OH217006   1.453   5.241   3.673 -0.2025  0.0471 -0.2909
 5667TIP3    H117007   1.502   5.160   3.689  0.6317  0.6251  0.1549
 5667TIP3    H217008   1.440   5.278   3.761 -1.2467  0.0223 -0.4242
 5668TIP3   OH217009   0.169   4.261   5.077 -0.8669  0.2185 -0.2695
 5668TIP3    H117010   0.116   4.282   5.000 -0.0518  0.7423 -0.7042
 5668TIP3    H217011   0.114   4.202   5.129 -1.8832  0.7700 -0.6874
 5669TIP3   OH217012   3.839   5.820   1.092  0.3673  0.2046 -0.8299
 5669TIP3    H117013   3.888   5.779   1.164 -0.4574 -1.0997 -0.9668
 5669TIP3    H217014   3.833   5.912   1.117  0.7601 -0.0760  0.4034
 5670TIP3   OH217015   5.058   4.459   1.523 -0.3635  0.2975  0.5199
 5670TIP3    H117016   5.115   4.386   1.502  0.6724  1.3812 -0.5654
 5670TIP3    H217017   4.981   4.446   1.469  0.7388  1.1255 -1.3251
 5671TIP3   OH217018   4.238   3.644   4.612  0.1842 -1.1019 -0.2333
 5671TIP3    H117019   4.155   3.691   4.619  0.7848 -0.1322  0.5652
 5671TIP3    H217020   4.262   3.652   4.520 -0.0227 -0.3498 -0.2308
 5672TIP3   OH217021   3.112   0.031   1.709  0.2380 -0.3666 -0.6785
 5672TIP3    H117022   3.197   0.031   1.752  0.0662  2.3052 -0.1923
 5672TIP3    H217023   3.050   0.013   1.780  0.2381 -0.0740 -0.6047
 5673TIP3   OH217024   0.552   2.404   2.276 -0.6813  0.0489  0.1345
 5673TIP3    H117025   0.486   2.376   2.340  0.3662 -1.2541  0.7078
 5673TIP3    H217026   0.628   2.350   2.296  0.1847  0.7035 -1.2516
 5674TIP3   OH217027   1.649   4.977   2.929 -0.5828  0.1779  0.7951
 5674TIP3    H117028   1.653   5.052   2.988 -1.6080  0.6699  0.2535
 5674TIP3    H217029   1.722   4.991   2.868 -1.3101  1.2586  0.1204
 5675TIP3   OH217030   2.616   1.821   3.964  0.3337 -0.5676 -0.0114
 5675TIP3    H117031   2.591   1.810   3.873 -1.4020 -0.5706  0.4300
 5675TIP3    H217032   2.573   1.748   4.009 -0.3984  0.5007  1.0685
 5676TIP3   OH217033   1.327   3.058   2.009  0.0683 -0.4457  0.1458
 5676TIP3    H117034   1.365   2.979   2.048 -0.0479 -0.6259 -0.1022
 5676TIP3    H217035   1.233   3.051   2.025 -0.0183 -0.6736 -0.4297
 5677TIP3   OH217036   5.987   0.240   3.348  0.2642  0.0050  0.5273
 5677TIP3    H117037   6.011   0.155   3.384  0.8162 -0.3051 -0.5266
 5677TIP3    H217038   5.942   0.285   3.419  1.2178 -0.6264  1.5504
 5678TIP3   OH217039   4.989   3.471   0.773  0.0693  0.0160  0.3702
 5678TIP3    H117040   4.971   3.539   0.837  1.2065  1.0040 -0.3398
 5678TIP3    H217041   4.956   3.391   0.814  0.1343  0.7286  1.8733
 5679TIP3   OH217042   2.718   0.468   1.090 -0.0986  0.0576 -0.0798
 5679TIP3    H117043   2.715   0.422   1.006  2.9177 -1.2885  0.4327
 5679TIP3    H217044   2.754   0.554   1.070 -0.4589  0.1571 -0.3039
 5680TIP3   OH217045   4.414   1.823   2.840  0.3546  0.5013  0.1008
 5680TIP3    H117046   4.407   1.904   2.891  1.7307  0.6171  0.1570
 5680TIP3    H217047   4.414   1.753   2.906 -2.9402  0.2274 -0.0359
 5681TIP3   OH217048   0.996   5.656   0.418 -0.1545 -0.1907  0.0851
 5681TIP3    H117049   1.072   5.605   0.391 -0.5829 -2.7178  3.0895
 5681TIP3    H217050   1.017   5.686   0.506 -2.4208 -0.6686  0.8729
 5682TIP3   OH217051   3.229   3.275   2.143  0.3064  0.7374 -0.0370
 5682TIP3    H117052   3.188   3.253   2.060 -0.8958  0.8024  0.5091
 5682TIP3    H217053   3.246   3.369   2.138 -1.1262  1.0407  0.3258
 5683TIP3   OH217054   1.628   1.775   0.687 -0.3797 -0.0742  0.2157
 5683TIP3    H117055   1.640   1.690   0.730 -0.3787 -0.4109 -0.4446
 5683TIP3    H217056   1.696   1.831   0.725 -0.5015 -0.3097  0.7948
 5684TIP3   OH217057   1.729   5.908   3.726 -0.3377  0.0342 -0.2169
 5684TIP3    H117058   1.816   5.939   3.700 -0.3739  0.6430  0.3518
 5684TIP3    H217059   1.684   5.890   3.643  0.1115  0.3371 -0.5344
 5685TIP3   OH217060   5.675   0.180   4.289 -0.0332 -0.0107  0.1281
 5685TIP3    H117061   5.697   0.269   4.260 -2.5711  0.6730  0.0664
 5685TIP3    H217062   5.695   0.180   4.382 -0.4993  0.8422  0.2470
 5686TIP3   OH217063   3.915   5.130   3.845  0.2421 -0.9177  0.1928
 5686TIP3    H117064   3.863   5.050   3.857 -1.6775  0.5466  2.4436
 5686TIP3    H217065   3.996   5.113   3.894  0.3001 -1.8126 -0.1827
 5687TIP3   OH217066   3.324   2.344   2.890  0.8728  0.5223 -0.9933
 5687TIP3    H117067   3.396   2.405   2.872  2.0413 -0.2128  0.8772
 5687TIP3    H217068   3.360   2.258   2.868  1.3835 -0.0886  1.8528
 5688TIP3   OH217069   5.252   3.908   0.504  0.5692  0.0164 -0.0099
 5688TIP3    H117070   5.304   3.953   0.570  2.1529 -0.1388 -1.1152
 5688TIP3    H217071   5.214   3.978   0.451  1.3635  0.1094 -0.4687
 5689TIP3   OH217072   2.295   4.054   4.902 -0.4009  0.0973 -0.0415
 5689TIP3    H117073   2.255   4.108   4.834 -1.2103  0.4231  0.6719
 5689TIP3    H217074   2.220   4.015   4.948  0.1389 -0.1968  0.5934
 5690TIP3   OH217075   0.699   3.574   4.927  0.0245 -0.2724  0.0322
 5690TIP3    H117076   0.765   3.506   4.918  0.1338 -0.0362 -1.0968
 5690TIP3    H217077   0.619   3.528   4.950  0.5274 -0.5746  1.2792
 5691TIP3   OH217078   4.717   0.107   4.055 -0.2943  0.6329  0.2957
 5691TIP3    H117079   4.785   0.125   3.990 -1.3402 -0.7314 -1.2566
 5691TIP3    H217080   4.718   0.183   4.113  2.0371  0.9609 -0.1120
 5692TIP3   OH217081   1.872   0.276   4.369 -0.3650 -0.0501 -0.1063
 5692TIP3    H117082   1.813   0.348   4.388  1.3389  1.0827  1.1686
 5692TIP3    H217083   1.837   0.201   4.418 -0.2604  0.8479  1.3915
 5693TIP3   OH217084   0.897   0.232   2.890  0.1688  0.2002 -0.6890
 5693TIP3    H117085   0.906   0.326   2.903 -0.6884  0.4833 -1.9399
 5693TIP3    H217086   0.842   0.224   2.812 -1.3192 -1.3367  0.4405
 5694TIP3   OH217087   0.552   2.285   2.967 -0.1910 -0.2189 -0.3849
 5694TIP3    H117088   0.604   2.206   2.977  1.5179  0.9532  0.4704
 5694TIP3    H217089   0.589   2.347   3.030 -1.0451  1.4938 -1.4707
 5695TIP3   OH217090   4.725   5.481   0.542  0.2894  0.0423 -0.0602
 5695TIP3    H117091   4.672   5.524   0.475 -0.0576 -0.7616 -0.3145
 5695TIP3    H217092   4.725   5.389   0.517  1.9370  0.0375 -0.1414
 5696TIP3   OH217093   1.838   0.092   1.906  0.1798  0.7588  0.2637
 5696TIP3    H117094   1.853   0.028   1.836 -0.9513  1.0733 -0.3031
 5696TIP3    H217095   1.918   0.145   1.907  0.6834  0.0295 -0.0001
 5697TIP3   OH217096   3.975   1.246   0.342 -0.2928  0.1467 -0.1145
 5697TIP3    H117097   3.977   1.340   0.325 -0.1194  0.4265  1.3507
 5697TIP3    H217098   4.066   1.222   0.357 -0.1684 -0.5302 -1.7696
 5698TIP3   OH217099   0.275   3.009   2.529  0.3303 -0.3140  0.0029
 5698TIP3    H117100   0.292   2.981   2.619 -1.3328 -1.3300  0.0409
 5698TIP3    H217101   0.288   2.930   2.477 -0.0593 -0.0707 -0.4713
 5699TIP3   OH217102   5.674   0.444   4.206 -0.3524 -0.3092  0.8077
 5699TIP3    H117103   5.737   0.506   4.241  0.8009 -1.5768  1.0949
 5699TIP3    H217104   5.593   0.462   4.253 -0.2028  1.3244  0.4735
 5700TIP3   OH217105   4.970   0.439   4.391  0.5754  0.4540  0.1861
 5700TIP3    H117106   4.923   0.466   4.470 -0.0489  1.0920 -0.3931
 5700TIP3    H217107   5.035   0.508   4.377  1.8854 -0.5304  1.1052
 5701TIP3   OH217108   2.165   4.888   3.820 -0.6333  0.5202  0.4424
 5701TIP3    H117109   2.158   4.944   3.897 -0.9179  0.3496  0.5442
 5701TIP3    H217110   2.243   4.919   3.774 -1.0043  1.2568  0.2905
 5702TIP3   OH217111   6.018   4.327   4.142  0.1177 -0.2493 -0.2082
 5702TIP3    H117112   6.099   4.347   4.094  0.1289 -2.0770 -1.0583
 5702TIP3    H217113   6.048   4.296   4.227  0.2922 -0.3833 -0.3165
 5703TIP3   OH217114   5.760   2.722   1.936 -0.9767 -0.1589  0.6124
 5703TIP3    H117115   5.794   2.806   1.969 -0.2493 -0.1739 -0.0795
 5703TIP3    H217116   5.726   2.678   2.014 -0.6379  0.4400  1.1075
 5704TIP3   OH217117   5.062   5.899   1.774 -0.2128  0.7542 -0.9554
 5704TIP3    H117118   5.041   5.959   1.703 -0.7206  1.2633 -0.3806
 5704TIP3    H217119   5.101   5.953   1.841 -1.7610  0.6693  0.0573
 5705TIP3   OH217120   3.801   1.059   4.101  0.3695 -0.2793  0.2028
 5705TIP3    H117121   3.767   0.975   4.133  0.1751 -0.4991 -0.5749
 5705TIP3    H217122   3.823   1.044   4.009  0.0834  0.5892 -0.0247
 5706TIP3   OH217123   1.976   3.138   1.484  0.6362  0.1693 -0.2016
 5706TIP3    H117124   1.990   3.151   1.390  0.4195 -1.5967 -0.5123
 5706TIP3    H217125   1.903   3.195   1.505  0.3716  0.2359 -1.2217
 5707TIP3   OH217126   0.096   0.192   0.631  0.7315 -0.0704  0.5322
 5707TIP3    H117127   0.027   0.229   0.685 -1.4734 -3.4507  0.3657
 5707TIP3    H217128   0.162   0.161   0.693 -0.4527 -1.4047  1.1958
 5708TIP3   OH217129   3.035   1.899   4.898  0.4030  0.8023 -0.5223
 5708TIP3    H117130   3.052   1.976   4.843  0.4868  1.1758  0.0168
 5708TIP3    H217131   2.940   1.900   4.911  0.5069  1.3499  0.2442
 5709TIP3   OH217132   3.331   1.002   1.581 -0.3049 -0.4312  0.4074
 5709TIP3    H117133   3.265   1.057   1.623 -0.2396 -0.1091  0.0888
 5709TIP3    H217134   3.410   1.056   1.581 -0.0287 -0.8256  0.8137
 5710TIP3   OH217135   4.650   2.113   2.279 -0.4966  0.5454  0.6716
 5710TIP3    H117136   4.603   2.040   2.320 -2.3991  1.8706  1.0236
 5710TIP3    H217137   4.686   2.163   2.353  0.8356 -0.0296  0.4332
 5711TIP3   OH217138   3.895   3.698   2.255  0.2463 -0.0591  0.0513
 5711TIP3    H117139   3.833   3.749   2.202 -0.5190 -0.0663  0.9218
 5711TIP3    H217140   3.870   3.607   2.241  0.1078 -0.0662  0.3445
 5712TIP3   OH217141   0.421   4.611   0.414 -0.0831  0.4127  0.4840
 5712TIP3    H117142   0.390   4.693   0.453 -0.0040  0.6622  0.0348
 5712TIP3    H217143   0.472   4.639   0.337 -1.2297 -0.0900 -0.4945
 5713TIP3   OH217144   2.059   0.260   0.758  0.0528 -0.2612 -0.2079
 5713TIP3    H117145   2.146   0.230   0.783 -1.3649 -1.8876  3.7311
 5713TIP3    H217146   2.046   0.339   0.810 -1.5086 -1.2618  1.0186
 5714TIP3   OH217147   4.703   4.324   4.030  0.2875  0.1872 -0.1280
 5714TIP3    H117148   4.641   4.317   3.958 -1.1392  0.9622  0.9670
 5714TIP3    H217149   4.655   4.292   4.107  1.9001 -1.0346  0.4401
 5715TIP3   OH217150   1.981   2.177   2.482 -0.5477 -0.0683 -0.3274
 5715TIP3    H117151   1.902   2.124   2.476 -0.7558  0.1017  0.7139
 5715TIP3    H217152   1.993   2.213   2.394 -0.7316 -1.3509 -0.9098
 5716TIP3   OH217153   0.113   3.044   4.803  0.2651  0.2179  0.2440
 5716TIP3    H117154   0.066   3.119   4.840  0.8635  0.7734 -0.0885
 5716TIP3    H217155   0.196   3.043   4.851  0.1043 -0.4746  0.5166
 5717TIP3   OH217156   1.652   2.205   3.377  0.6423  0.6441 -0.2664
 5717TIP3    H117157   1.641   2.160   3.293 -1.0512  0.4422  0.0453
 5717TIP3    H217158   1.733   2.255   3.366  0.5310  0.5093 -1.9682
 5718TIP3   OH217159   5.683   1.545   2.303  0.7007 -0.9300  0.1783
 5718TIP3    H117160   5.663   1.452   2.298  2.3600 -1.6413  3.3785
 5718TIP3    H217161   5.636   1.575   2.381 -1.0863  1.4017 -1.6483
 5719TIP3   OH217162   1.382   1.788   3.604 -0.3726  0.4662  0.5927
 5719TIP3    H117163   1.348   1.872   3.636  0.0669  0.5938  0.7226
 5719TIP3    H217164   1.466   1.778   3.647  0.4100  0.8104 -0.7854
 5720TIP3   OH217165   2.705   1.155   4.215  0.1435 -0.1607  0.2075
 5720TIP3    H117166   2.614   1.155   4.244 -0.2639  0.2668 -0.9876
 5720TIP3    H217167   2.720   1.065   4.183 -1.0122  0.6179 -2.8471
 5721TIP3   OH217168   1.914   2.700   3.974 -0.6139  0.7863  0.0132
 5721TIP3    H117169   1.865   2.618   3.966  2.2145 -0.8916 -1.6686
 5721TIP3    H217170   1.924   2.712   4.069 -1.8123 -0.3077  0.3104
 5722TIP3   OH217171   5.154   4.111   4.433  0.0958 -0.0513  0.3579
 5722TIP3    H117172   5.207   4.047   4.386  0.1187 -1.1909  1.8495
 5722TIP3    H217173   5.218   4.171   4.471  0.2510 -0.5130  0.8532
 5723TIP3   OH217174   4.162   3.661   0.044  0.0056  0.3066  0.5504
 5723TIP3    H117175   4.247   3.668   0.001 -0.2374  0.0965  0.0270
 5723TIP3    H217176   4.105   3.621  -0.021 -0.3640 -0.0517  1.0865
 5724TIP3   OH217177   4.206   1.360   2.965 -0.0635 -0.4946  0.7964
 5724TIP3    H117178   4.218   1.453   2.946  1.4800 -0.6973  0.6234
 5724TIP3    H217179   4.119   1.354   3.003 -0.4042  0.9394  0.2960
 5725TIP3   OH217180   1.419   4.227   1.136 -0.5119 -0.2820  0.3092
 5725TIP3    H117181   1.392   4.136   1.145  0.2577 -0.6681 -0.9952
 5725TIP3    H217182   1.388   4.252   1.049  2.6376 -0.5572 -1.0048
 5726TIP3   OH217183   3.981   5.152   2.790  0.4966  0.2871 -0.0970
 5726TIP3    H117184   4.067   5.184   2.817  0.9112 -1.2408  0.5056
 5726TIP3    H217185   3.962   5.081   2.851 -0.9826  0.2838 -0.5305
 5727TIP3   OH217186   6.219   3.503   4.569  0.1801 -0.5347 -0.0074
 5727TIP3    H117187   6.291   3.533   4.623 -0.4037  1.7903 -0.4080
 5727TIP3    H217188   6.191   3.420   4.608  0.9048  0.1968  2.1619
 5728TIP3   OH217189   0.526   5.279   1.460 -0.3304 -0.4309  0.4656
 5728TIP3    H117190   0.480   5.246   1.383  0.6568  0.0424 -0.3580
 5728TIP3    H217191   0.474   5.249   1.534 -1.9916  0.1330 -0.4159
 5729TIP3   OH217192   5.284   4.230   2.954  0.1950 -0.0762  0.2359
 5729TIP3    H117193   5.301   4.295   2.885  0.5564 -0.4725 -0.0535
 5729TIP3    H217194   5.300   4.277   3.035 -0.0546  0.3462  0.0436
 5730TIP3   OH217195   3.443   4.472   1.662  0.4166 -0.0605  0.6516
 5730TIP3    H117196   3.422   4.458   1.754  1.4079 -1.1660  0.7370
 5730TIP3    H217197   3.438   4.567   1.650  0.2833  0.0969  1.8447
 5731TIP3   OH217198   3.241   2.756   4.407  0.5997  0.6040  0.1513
 5731TIP3    H117199   3.219   2.667   4.380 -2.8145  1.1589  0.7065
 5731TIP3    H217200   3.234   2.808   4.327 -1.3677  0.9462  0.5075
 5732TIP3   OH217201   0.361   0.862   2.478 -0.3530  0.2507  0.1953
 5732TIP3    H117202   0.389   0.880   2.388  0.3000 -0.8096  0.1588
 5732TIP3    H217203   0.282   0.914   2.490  0.8358  2.2632 -0.1935
 5733TIP3   OH217204   4.848   1.117   3.322 -0.6941 -0.3781  0.0155
 5733TIP3    H117205   4.898   1.138   3.401 -0.9986  1.6074 -0.2781
 5733TIP3    H217206   4.843   1.199   3.273 -1.2844 -1.3430 -1.6573
 5734TIP3   OH217207   1.950   1.722   0.688  0.2390  0.2027  0.3210
 5734TIP3    H117208   1.959   1.674   0.770 -0.4244  1.4397  1.1311
 5734TIP3    H217209   1.903   1.802   0.711 -1.2274 -0.0737 -1.5055
 5735TIP3   OH217210   5.746   5.756   1.805  0.3642 -0.3119  0.0517
 5735TIP3    H117211   5.658   5.733   1.834  1.0231  0.0925  2.5422
 5735TIP3    H217212   5.786   5.673   1.780  0.5959 -1.1276  2.8543
 5736TIP3   OH217213   4.680   0.332   4.665  0.1572 -0.2967  0.3135
 5736TIP3    H117214   4.756   0.389   4.652 -2.0321  2.4831 -1.7001
 5736TIP3    H217215   4.636   0.368   4.743 -0.3504 -0.2722  0.0237
 5737TIP3   OH217216   2.225   2.162   1.249 -0.0178 -0.1809 -0.3007
 5737TIP3    H117217   2.245   2.070   1.269  1.2921  0.5340  2.0829
 5737TIP3    H217218   2.255   2.210   1.326 -2.1324  2.1233 -0.7904
 5738TIP3   OH217219   2.850   1.163   1.642 -0.0770  0.1638 -0.1853
 5738TIP3    H117220   2.848   1.068   1.654 -2.0537 -0.0120 -1.4376
 5738TIP3    H217221   2.760   1.191   1.659  0.2539  1.6786 -0.7724
 5739TIP3   OH217222   4.170   4.038   1.577  0.3215  0.5646  0.2677
 5739TIP3    H117223   4.145   3.996   1.660 -1.6187 -0.4509 -0.7521
 5739TIP3    H217224   4.203   3.967   1.523 -1.1789  0.6280 -0.8070
 5740TIP3   OH217225   3.946   2.068   4.314  0.3921 -0.1839  0.3441
 5740TIP3    H117226   3.872   2.015   4.284  0.2919  0.4551 -0.5709
 5740TIP3    H217227   4.021   2.008   4.314  0.2352 -0.3812 -0.4600
 5741TIP3   OH217228   2.541   5.867   4.533  0.7621 -0.1943 -0.5570
 5741TIP3    H117229   2.470   5.826   4.484  0.3173 -0.7363  0.5099
 5741TIP3    H217230   2.548   5.955   4.497 -1.8349  0.6046  0.6295
 5742TIP3   OH217231   1.963   3.260   0.801  0.1510 -0.7144 -0.5117
 5742TIP3    H117232   2.059   3.267   0.798  0.1738 -1.0413 -2.8065
 5742TIP3    H217233   1.933   3.349   0.783 -0.0963 -0.0250  2.7201
 5743TIP3   OH217234   3.434   2.729   1.992 -0.4208 -0.6761 -0.2833
 5743TIP3    H117235   3.388   2.742   1.909 -0.3130  0.2767 -0.2022
 5743TIP3    H217236   3.395   2.793   2.051 -0.0737 -0.9381  0.2365
 5744TIP3   OH217237   5.439   0.834   3.815  0.1495 -0.2189 -0.2290
 5744TIP3    H117238   5.476   0.921   3.799 -0.2200 -0.1097 -0.4927
 5744TIP3    H217239   5.496   0.774   3.766 -0.0818 -0.0413 -0.7165
 5745TIP3   OH217240   3.310   2.174   0.412  0.4026  0.0025 -0.3137
 5745TIP3    H117241   3.322   2.147   0.503 -1.8283 -0.7515 -0.1923
 5745TIP3    H217242   3.238   2.237   0.415  1.0024  0.7826 -1.4608
 5746TIP3   OH217243   2.007   3.005   0.744 -0.1124 -0.1689  0.4681
 5746TIP3    H117244   1.983   3.089   0.782  1.9378  0.2641  0.9218
 5746TIP3    H217245   2.098   3.015   0.719  0.0392 -2.1112  0.0633
 5747TIP3   OH217246   0.787   4.566   3.135  0.1718  0.0226  0.4059
 5747TIP3    H117247   0.712   4.565   3.194 -0.7186 -1.2112 -0.6809
 5747TIP3    H217248   0.766   4.633   3.071 -0.1618 -0.5171 -0.0621
 5748TIP3   OH217249   5.671   4.663   3.026 -0.2689 -1.0163  0.3058
 5748TIP3    H117250   5.601   4.649   3.089 -0.3940 -1.0357  0.1647
 5748TIP3    H217251   5.692   4.756   3.033 -1.0241 -0.7728 -0.3775
 5749TIP3   OH217252   5.936   2.554   0.352 -0.3253  0.2409 -0.5655
 5749TIP3    H117253   5.857   2.598   0.321 -0.3772  0.2566 -0.4109
 5749TIP3    H217254   6.008   2.606   0.314 -0.3858 -0.2743 -1.4069
 5750TIP3   OH217255   4.242   3.208   2.180  0.5126  0.1808  0.2931
 5750TIP3    H117256   4.329   3.245   2.196 -0.8525  2.7787  2.4805
 5750TIP3    H217257   4.214   3.176   2.266 -1.3331  0.9529  0.0173
 5751TIP3   OH217258   4.958   0.920   1.890 -0.5777 -0.0501  0.3874
 5751TIP3    H117259   4.897   0.951   1.957 -0.0285  1.1340  0.3574
 5751TIP3    H217260   5.018   0.861   1.937  1.5307  2.8475  1.6605
 5752TIP3   OH217261   3.956   1.756   4.187  0.0807 -0.4851  0.0258
 5752TIP3    H117262   3.996   1.669   4.187  0.0648 -0.4919 -0.0534
 5752TIP3    H217263   3.867   1.742   4.155 -0.9630 -0.9232  2.7904
 5753TIP3   OH217264   5.316   5.593   1.686  0.7391  0.8589 -0.0340
 5753TIP3    H117265   5.368   5.619   1.762 -0.5031  1.3163  0.6822
 5753TIP3    H217266   5.286   5.675   1.648  0.3305  0.5987 -0.2816
 5754TIP3   OH217267   6.163   3.715   1.089 -0.0148  0.5268 -0.0733
 5754TIP3    H117268   6.161   3.802   1.127  2.4551  0.2682  0.8111
 5754TIP3    H217269   6.181   3.729   0.996 -2.4767  0.9930 -0.5744
 5755TIP3   OH217270   3.841   3.169   2.257  0.4432 -0.2879 -0.2190
 5755TIP3    H117271   3.891   3.138   2.332  0.6010  1.0546  0.2494
 5755TIP3    H217272   3.782   3.096   2.236 -0.5571 -0.2164  2.0632
 5756TIP3   OH217273   1.820   0.585   0.740  0.3245 -0.4419 -0.0164
 5756TIP3    H117274   1.801   0.508   0.793 -0.6502  0.9508  1.7942
 5756TIP3    H217275   1.821   0.658   0.803  3.1111  0.8160 -1.3078
 5757TIP3   OH217276   2.340   0.941   1.325  0.5791 -0.1679 -0.3518
 5757TIP3    H117277   2.422   0.902   1.354  0.1246 -1.4961 -0.7428
 5757TIP3    H217278   2.365   1.014   1.269  1.4739  1.4236  1.9821
 5758TIP3   OH217279   1.897   3.085   0.501 -0.1469  0.4441  0.4531
 5758TIP3    H117280   1.942   3.039   0.572  0.4072 -1.0834 -0.8402
 5758TIP3    H217281   1.805   3.086   0.528  0.2187  1.0576  1.7773
 5759TIP3   OH217282   3.150   1.336   1.332  0.1421 -0.0567 -0.2433
 5759TIP3    H117283   3.208   1.376   1.396  1.9587 -0.6670 -1.4462
 5759TIP3    H217284   3.188   1.250   1.314 -3.9552 -2.8916  2.7502
 5760TIP3   OH217285   6.227   1.744   1.809 -0.2887  0.0071 -0.1855
 5760TIP3    H117286   6.159   1.808   1.792  0.0217  0.1150 -1.1120
 5760TIP3    H217287   6.181   1.665   1.835 -0.7736  0.0987 -0.7449
 5761TIP3   OH217288   1.761   2.154   0.592  0.2926  0.5041  0.0467
 5761TIP3    H117289   1.777   2.228   0.533 -0.9418  0.8441  0.1169
 5761TIP3    H217290   1.706   2.095   0.542  2.0482 -0.8803 -0.3677
 5762TIP3   OH217291   4.051   2.440   3.341  0.4837 -0.0180 -0.0646
 5762TIP3    H117292   4.114   2.479   3.281  0.9454 -0.5799  0.0474
 5762TIP3    H217293   3.994   2.388   3.285  1.5426 -1.3724  0.0776
 5763TIP3   OH217294   0.918   4.708   2.279 -0.4728  0.2314 -0.8885
 5763TIP3    H117295   0.956   4.761   2.349  0.1064  2.0140 -2.4681
 5763TIP3    H217296   0.826   4.701   2.302  0.2187 -2.1133  1.7501
 5764TIP3   OH217297   0.970   4.380   1.377 -0.0323 -0.7029  0.1583
 5764TIP3    H117298   0.920   4.428   1.443  0.0812  1.4058 -1.1856
 5764TIP3    H217299   1.055   4.366   1.416 -0.5315 -1.1294  1.1221
 5765TIP3   OH217300   0.139   0.736   3.864  0.2049 -0.2371  0.3341
 5765TIP3    H117301   0.102   0.783   3.939 -0.2521  0.8093 -0.5243
 5765TIP3    H217302   0.180   0.804   3.811 -0.9412 -0.7215 -1.2217
 5766TIP3   OH217303   4.502   2.888   0.954 -0.0337  0.3984  0.4559
 5766TIP3    H117304   4.474   2.862   0.866  0.8254 -2.7342  1.0167
 5766TIP3    H217305   4.420   2.900   1.002 -0.6093  3.9521 -1.0797
 5767TIP3   OH217306   2.687   4.069   4.149  0.0811 -0.6400  0.0075
 5767TIP3    H117307   2.644   4.000   4.100  0.4485 -0.4567 -0.5836
 5767TIP3    H217308   2.641   4.149   4.122  0.3494 -0.5275 -0.1166
 5768TIP3   OH217309   6.105   2.613   0.105  0.1635 -0.0856 -0.1382
 5768TIP3    H117310   6.043   2.614   0.032 -1.5153 -1.5137  1.1638
 5768TIP3    H217311   6.102   2.702   0.140 -0.2544  0.1770 -0.8286
 5769TIP3   OH217312   2.120   2.309   4.503  0.3385  0.4102  0.1579
 5769TIP3    H117313   2.169   2.237   4.462 -0.4604 -0.6135  0.9456
 5769TIP3    H217314   2.166   2.324   4.586  0.9900  1.3965 -0.3500
 5770TIP3   OH217315   4.813   2.002   1.495  0.0185 -0.1245  0.4406
 5770TIP3    H117316   4.777   1.982   1.581 -0.2996 -0.9278  0.1331
 5770TIP3    H217317   4.810   1.918   1.448 -2.1808  0.7945 -1.2147
 5771TIP3   OH217318   6.316   0.790   0.741 -0.3314  0.4205 -0.2953
 5771TIP3    H117319   6.264   0.715   0.771  0.4266 -0.4823 -1.1675
 5771TIP3    H217320   6.383   0.801   0.808 -0.0950 -0.0635 -0.4446
 5772TIP3   OH217321   2.922   1.227   4.088 -0.1477  0.1406  0.6752
 5772TIP3    H117322   2.919   1.323   4.095  1.9190  0.1578  2.6487
 5772TIP3    H217323   2.841   1.198   4.129 -0.7139  1.0323  0.2243
 5773TIP3   OH217324   2.629   4.970   1.213  0.1699 -0.0072  0.2630
 5773TIP3    H117325   2.655   4.985   1.122 -1.0520 -0.7751 -0.2343
 5773TIP3    H217326   2.562   4.902   1.208  0.1045 -0.0850  1.7486
 5774TIP3   OH217327   2.171   2.875   2.457 -0.1105 -0.2009  0.6174
 5774TIP3    H117328   2.262   2.865   2.428 -0.6011 -1.4644 -0.6157
 5774TIP3    H217329   2.164   2.967   2.482  0.7535  0.7258 -2.1595
 5775TIP3   OH217330   1.071   1.501   4.253  0.8097  0.3057 -0.5125
 5775TIP3    H117331   1.163   1.510   4.227  0.5262  1.2199 -1.2554
 5775TIP3    H217332   1.075   1.465   4.342  1.8333 -1.2911 -1.1646
 5776TIP3   OH217333   4.077   0.613   1.547 -0.0405  0.5394 -0.1650
 5776TIP3    H117334   4.008   0.677   1.527 -0.2924  0.9604  1.8514
 5776TIP3    H217335   4.156   0.665   1.554  0.1443  0.3181 -0.5638
 5777TIP3   OH217336   1.715   1.173   4.540 -0.1202 -0.0303 -0.4584
 5777TIP3    H117337   1.691   1.265   4.527 -0.8965  0.1307  1.6045
 5777TIP3    H217338   1.810   1.173   4.546 -0.1803  0.9490  1.1387
 5778TIP3   OH217339   3.030   0.375   2.621  0.0365  0.4755  0.0995
 5778TIP3    H117340   3.113   0.353   2.577 -0.0784  0.4605 -0.1115
 5778TIP3    H217341   2.996   0.450   2.572 -0.9827 -0.6569 -0.9711
 5779TIP3   OH217342   2.383   4.914   2.380 -0.1519  0.0118  0.1862
 5779TIP3    H117343   2.373   4.993   2.327  0.0761 -0.3321 -0.3918
 5779TIP3    H217344   2.305   4.912   2.435 -0.9154 -0.1323 -0.8489
 5780TIP3   OH217345   2.797   3.063   4.803 -0.1285 -0.0203 -0.0101
 5780TIP3    H117346   2.738   2.989   4.819  1.3540 -1.1764  0.3209
 5780TIP3    H217347   2.885   3.026   4.811  0.6645  1.8546  0.4980
 5781TIP3   OH217348   1.083   2.853   0.617  0.0165 -0.3353  0.5307
 5781TIP3    H117349   1.128   2.937   0.617  3.5276 -2.0554 -0.1961
 5781TIP3    H217350   1.041   2.848   0.531  0.2749  0.4013  0.3538
 5782TIP3   OH217351   2.275   5.244   4.117  0.3358 -0.0183  0.2071
 5782TIP3    H117352   2.329   5.314   4.081  0.4965 -0.1503  0.1918
 5782TIP3    H217353   2.272   5.263   4.211 -0.6728  0.7303  0.0364
 5783TIP3   OH217354   4.180   5.093   3.571 -0.7554  0.2049  0.1928
 5783TIP3    H117355   4.257   5.043   3.546 -1.6227 -0.5527 -1.0534
 5783TIP3    H217356   4.108   5.031   3.566 -1.4766  0.9201  1.2641
 5784TIP3   OH217357   6.061   5.150   0.962 -0.9232  0.4046  0.2550
 5784TIP3    H117358   6.109   5.210   0.904 -1.8686  0.2378 -0.7266
 5784TIP3    H217359   6.022   5.207   1.028 -0.2380  0.6538  0.4590
 5785TIP3   OH217360   1.293   4.973   2.932 -0.2257 -0.4106 -0.4533
 5785TIP3    H117361   1.325   4.970   3.022  0.4320  0.5320 -0.6442
 5785TIP3    H217362   1.264   5.063   2.919 -0.7513 -0.6511 -1.0507
 5786TIP3   OH217363   1.538   4.978   1.489  0.0500 -0.5077  0.2665
 5786TIP3    H117364   1.541   5.028   1.571  1.1807  0.6370 -0.4279
 5786TIP3    H217365   1.460   5.010   1.444  0.5264  0.3714  0.0255
 5787TIP3   OH217366   0.858   3.939   4.725 -0.0233 -0.5508 -0.1121
 5787TIP3    H117367   0.809   3.858   4.740 -1.4352  0.4397  0.9694
 5787TIP3    H217368   0.936   3.931   4.780  0.4782 -1.6801 -0.9699
 5788TIP3   OH217369   5.328   0.359   3.014  0.1623 -0.1575  0.3900
 5788TIP3    H117370   5.374   0.274   3.020 -1.2587 -1.0825 -1.0652
 5788TIP3    H217371   5.238   0.336   2.990 -0.6262  1.7113  1.3910
 5789TIP3   OH217372   0.297   2.208   3.538  0.1973 -0.6291 -0.4933
 5789TIP3    H117373   0.330   2.285   3.584 -0.6257  0.1519 -1.1710
 5789TIP3    H217374   0.208   2.232   3.512  0.1887 -1.5332 -1.3551
 5790TIP3   OH217375   2.932   2.811   0.077  0.5210 -0.2943  0.3389
 5790TIP3    H117376   2.933   2.876   0.148  0.5365 -0.1324  0.1900
 5790TIP3    H217377   2.859   2.838   0.021  1.3792  0.4086 -0.4767
 5791TIP3   OH217378   0.571   1.567   2.411  0.4897 -0.1421  0.3823
 5791TIP3    H117379   0.618   1.645   2.381  0.5286  0.4725  1.9594
 5791TIP3    H217380   0.628   1.528   2.476 -1.9126  1.8393  4.0174
 5792TIP3   OH217381   4.613   1.641   5.170  0.3378 -0.0358  0.0077
 5792TIP3    H117382   4.572   1.606   5.091 -0.7478  0.0836  0.4936
 5792TIP3    H217383   4.606   1.571   5.235  1.1717 -0.1145  0.0239
 5793TIP3   OH217384   1.064   1.506   5.080  0.0418 -0.6406 -0.4040
 5793TIP3    H117385   1.010   1.512   5.159  1.3292  2.3979  0.3857
 5793TIP3    H217386   1.007   1.536   5.010  0.1709  1.0988  0.1811
 5794TIP3   OH217387   6.020   3.575   3.351 -0.1179  0.4257 -0.0966
 5794TIP3    H117388   5.978   3.661   3.354 -2.3509 -0.6160  0.5544
 5794TIP3    H217389   6.108   3.590   3.386 -0.6467  2.3462  0.5234
 5795TIP3   OH217390   2.696   2.768   1.283 -0.4601  0.0539 -0.2402
 5795TIP3    H117391   2.726   2.806   1.365 -0.3145 -0.8001  0.1145
 5795TIP3    H217392   2.716   2.834   1.217  0.5112  0.2641  0.2504
 5796TIP3   OH217393   4.294   4.195   0.222 -0.1135  0.0478 -0.2611
 5796TIP3    H117394   4.351   4.226   0.152 -0.7078 -0.9443 -1.2035
 5796TIP3    H217395   4.259   4.112   0.191 -2.1830  0.6654  0.2295
 5797TIP3   OH217396   2.155   1.109   2.427  0.3978 -0.3449 -0.6005
 5797TIP3    H117397   2.164   1.126   2.334  1.7065  0.9723 -0.2744
 5797TIP3    H217398   2.091   1.173   2.457  1.8674  0.9748 -0.1805
 5798TIP3   OH217399   4.308   5.474   1.606 -0.2319 -0.3505 -0.6067
 5798TIP3    H117400   4.346   5.483   1.693 -1.9073 -0.5164  0.1962
 5798TIP3    H217401   4.238   5.539   1.603 -1.1568 -1.3352 -1.2589
 5799TIP3   OH217402   1.284   3.801   4.724 -0.4227 -0.4968  0.5876
 5799TIP3    H117403   1.247   3.761   4.645  0.6705 -0.4286  0.0116
 5799TIP3    H217404   1.278   3.895   4.707  1.2445 -0.4785 -0.1614
 5800TIP3   OH217405   5.935   1.395   3.202  0.2364 -0.1197 -0.2643
 5800TIP3    H117406   5.848   1.431   3.216  0.7062  0.5785  1.0281
 5800TIP3    H217407   5.958   1.353   3.285  1.5413  0.6499 -0.1982
 5801TIP3   OH217408   3.254   5.929   0.182  0.3373  0.3680  0.8155
 5801TIP3    H117409   3.207   5.926   0.265 -1.1599 -0.4863 -0.0284
 5801TIP3    H217410   3.300   5.845   0.177  0.2054  0.3050  0.6556
 5802TIP3   OH217411   3.963   1.780   1.824 -0.0390  0.3724  0.2541
 5802TIP3    H117412   3.982   1.858   1.773 -0.5597 -0.1257 -0.7411
 5802TIP3    H217413   3.982   1.805   1.915 -0.6924  1.8147  0.0253
 5803TIP3   OH217414   4.443   1.113   2.668  0.2050  0.0090 -0.0407
 5803TIP3    H117415   4.472   1.201   2.690 -3.9724  1.7164 -0.4524
 5803TIP3    H217416   4.349   1.122   2.651 -0.4542 -4.5582 -0.0949
 5804TIP3   OH217417   2.668   0.365   4.390  0.2651  0.7577  0.4674
 5804TIP3    H117418   2.662   0.459   4.407  1.0153  0.8591  0.2193
 5804TIP3    H217419   2.618   0.351   4.310 -0.2186  0.8679  0.7461
 5805TIP3   OH217420   1.663   3.992   0.449  0.3219  0.0244  0.2987
 5805TIP3    H117421   1.692   3.943   0.525  0.9601  0.6990  0.5037
 5805TIP3    H217422   1.739   4.046   0.425  0.4454 -0.7952 -1.3359
 5806TIP3   OH217423   5.803   4.383   1.359  0.0113 -0.4814  0.0686
 5806TIP3    H117424   5.743   4.375   1.434 -1.0925  0.4328 -0.6928
 5806TIP3    H217425   5.890   4.383   1.399 -0.4427 -2.0373  1.1876
 5807TIP3   OH217426   0.318   0.813   3.480  0.0533 -0.0325  0.1725
 5807TIP3    H117427   0.349   0.841   3.393  0.9402 -0.5119  0.3280
 5807TIP3    H217428   0.266   0.735   3.463  0.4839 -0.3041  0.1066
 5808TIP3   OH217429   6.269   3.495   3.851  0.0701 -0.6469  0.0164
 5808TIP3    H117430   6.353   3.514   3.894  0.3215 -0.3621 -0.5868
 5808TIP3    H217431   6.267   3.400   3.845  1.0017 -0.6057 -1.2198
 5809TIP3   OH217432   4.962   0.547   0.617  0.7130 -0.2987 -0.4304
 5809TIP3    H117433   5.017   0.469   0.608  1.9060  0.6950 -2.3857
 5809TIP3    H217434   4.876   0.519   0.587  1.0719 -0.9321 -0.8915
 5810TIP3   OH217435   0.052   1.510   3.163  0.0806  0.1400  0.3005
 5810TIP3    H117436   0.041   1.485   3.255 -1.2696  2.3888  0.8369
 5810TIP3    H217437  -0.034   1.544   3.137  0.5821  0.0403 -1.6552
 5811TIP3   OH217438   0.223   5.888   4.570  0.0718 -0.1970  0.1048
 5811TIP3    H117439   0.287   5.957   4.553 -1.5453  1.3624  0.1300
 5811TIP3    H217440   0.138   5.932   4.572 -0.9783 -2.0914  0.7261
 5812TIP3   OH217441   0.489   3.188   2.000  0.2079 -0.2459 -0.3348
 5812TIP3    H117442   0.475   3.115   2.060 -0.1074  0.2929  0.2678
 5812TIP3    H217443   0.570   3.167   1.954  0.6155 -0.5240  0.5004
 5813TIP3   OH217444   0.778   4.976   4.478 -0.0095  0.4331 -0.7154
 5813TIP3    H117445   0.785   5.029   4.399  0.9416 -0.6086 -1.3630
 5813TIP3    H217446   0.788   4.886   4.447 -0.9954 -0.0886  0.4299
 5814TIP3   OH217447   6.274   4.408   4.051  0.2586  0.0092 -0.0608
 5814TIP3    H117448   6.275   4.503   4.043  0.2395  0.0455  0.3600
 5814TIP3    H217449   6.308   4.376   3.966  2.5658  0.4511  0.6214
 5815TIP3   OH217450   4.499   4.063   1.891  0.8006 -0.3980 -0.5397
 5815TIP3    H117451   4.508   4.012   1.811  1.4221 -0.5670 -0.3696
 5815TIP3    H217452   4.522   4.152   1.866 -1.8433  0.1778 -1.2151
 5816TIP3   OH217453   1.635   2.360   4.831 -0.0870 -0.5006  0.0938
 5816TIP3    H117454   1.604   2.283   4.879 -1.2229 -1.0477 -1.4356
 5816TIP3    H217455   1.694   2.404   4.892 -1.4025 -1.1794  1.9456
 5817TIP3   OH217456   0.224   0.132   0.902 -0.5573  0.6480 -0.3642
 5817TIP3    H117457   0.288   0.073   0.943 -0.1817  1.2080 -0.1320
 5817TIP3    H217458   0.270   0.216   0.894 -1.5402  1.2954  0.5795
 5818TIP3   OH217459   3.134   5.290   2.200  0.5355 -0.3988 -0.0543
 5818TIP3    H117460   3.048   5.331   2.214  0.7222 -0.5655  1.9085
 5818TIP3    H217461   3.127   5.249   2.114 -0.9376  0.5979 -0.4521
 5819TIP3   OH217462  -0.003   5.472   1.694  0.0647  0.0673 -0.4194
 5819TIP3    H117463  -0.004   5.500   1.603 -0.4512 -0.1031 -0.4716
 5819TIP3    H217464   0.078   5.507   1.729 -0.2666  1.1101 -0.6482
 5820TIP3   OH217465   0.480   1.192   4.737 -0.2316  0.0573 -0.1312
 5820TIP3    H117466   0.487   1.122   4.802 -0.9708  1.0782  1.1088
 5820TIP3    H217467   0.416   1.160   4.673 -0.4999 -0.4370  0.3767
 5821TIP3   OH217468   1.986   1.306   2.515  0.0397 -0.0165  0.1824
 5821TIP3    H117469   2.061   1.364   2.524  0.1691 -0.4763  2.5267
 5821TIP3    H217470   1.912   1.365   2.501  0.2382  0.7357  2.0644
 5822TIP3   OH217471   5.833   0.664   3.553  0.0879 -0.1046 -0.2355
 5822TIP3    H117472   5.920   0.670   3.514 -0.6035 -0.1703 -1.8727
 5822TIP3    H217473   5.783   0.734   3.510 -0.6996 -0.1421  0.5902
 5823TIP3   OH217474   2.180   4.011   2.190 -0.7050 -0.5076  0.1125
 5823TIP3    H117475   2.214   4.002   2.280 -1.1687 -0.4147  0.3006
 5823TIP3    H217476   2.250   3.978   2.135 -0.2271 -0.1366  0.4863
 5824TIP3   OH217477   2.893   2.197   2.951 -0.1955  0.2731 -0.1867
 5824TIP3    H117478   2.950   2.189   2.874 -1.1067  0.5730 -0.9142
 5824TIP3    H217479   2.953   2.211   3.024  0.6505  0.8058 -0.9628
 5825TIP3   OH217480   2.653   4.719   0.355 -0.2065 -0.3775  0.1140
 5825TIP3    H117481   2.697   4.794   0.395  0.1923 -0.5833  0.0668
 5825TIP3    H217482   2.656   4.650   0.422  1.3027 -1.0338 -0.5829
 5826TIP3   OH217483   1.946   4.016   0.357 -0.0857  0.1667  0.6098
 5826TIP3    H117484   1.946   3.945   0.421 -0.4140 -0.3971  0.0098
 5826TIP3    H217485   2.004   3.984   0.287  0.4553  0.8695  0.7291
 5827TIP3   OH217486   2.240   5.830   0.347 -0.1399 -0.2161  0.1636
 5827TIP3    H117487   2.230   5.902   0.409 -2.3643 -0.1462 -0.2175
 5827TIP3    H217488   2.152   5.794   0.337  0.3747 -1.0143 -2.0209
 5828TIP3   OH217489   0.883   3.782   5.030  0.1370 -0.0440 -0.3615
 5828TIP3    H117490   0.807   3.733   4.998  0.1162  0.3462 -0.9260
 5828TIP3    H217491   0.959   3.732   4.998  0.1557 -1.2286  1.4062
 5829TIP3   OH217492   4.952   4.733   1.600  0.4542  0.1511 -0.1809
 5829TIP3    H117493   4.856   4.740   1.598  0.4183  0.3379  1.2085
 5829TIP3    H217494   4.969   4.639   1.594  0.1075 -0.0029  1.0398
 5830TIP3   OH217495   4.946   2.764   5.003 -0.4760  0.3426 -0.3478
 5830TIP3    H117496   4.980   2.688   5.051 -0.7472  0.2500 -0.3025
 5830TIP3    H217497   4.928   2.732   4.916 -0.6248  0.3486 -0.3187
 5831TIP3   OH217498   2.390   1.308   0.771 -0.3731 -0.4614  0.1263
 5831TIP3    H117499   2.303   1.326   0.806  0.2178  1.6263  0.6497
 5831TIP3    H217500   2.401   1.372   0.700  0.7263 -0.6886  0.0696
 5832TIP3   OH217501   2.382   4.768   4.445  0.0201  0.1486  0.0812
 5832TIP3    H117502   2.420   4.846   4.404 -0.7343  0.6628  0.3338
 5832TIP3    H217503   2.430   4.758   4.527 -0.9145  1.2936  0.8066
 5833TIP3   OH217504   0.260   5.740   2.985 -0.1290 -0.1223 -0.1699
 5833TIP3    H117505   0.180   5.760   3.033 -0.5216 -1.0218 -0.4242
 5833TIP3    H217506   0.243   5.770   2.896  0.7845  2.0001  0.3214
 5834TIP3   OH217507   5.583   0.302   0.384 -0.6252  0.0278  0.1650
 5834TIP3    H117508   5.562   0.268   0.471 -1.5877 -0.3825 -0.2137
 5834TIP3    H217509   5.662   0.354   0.397 -0.9126  0.2020  1.3385
 5835TIP3   OH217510   2.541   1.037   3.995  0.2344  0.0643  0.0301
 5835TIP3    H117511   2.537   1.014   3.903 -0.3382 -1.0310  0.3131
 5835TIP3    H217512   2.450   1.037   4.024  0.4348  0.0309  0.6868
 5836TIP3   OH217513   2.512   1.871   4.395 -0.4840  0.5715 -0.1190
 5836TIP3    H117514   2.525   1.929   4.319  0.4778  1.4712  0.7047
 5836TIP3    H217515   2.552   1.788   4.369  1.4312  1.4017  0.0246
 5837TIP3   OH217516   3.104   2.704   0.397 -0.4527  0.6549 -0.2668
 5837TIP3    H117517   3.086   2.767   0.328  0.3169  0.4647 -0.6521
 5837TIP3    H217518   3.024   2.702   0.450 -0.0899  2.8360  0.4664
 5838TIP3   OH217519   5.774   3.226   1.192 -0.2174  0.1391  0.1756
 5838TIP3    H117520   5.767   3.188   1.280  1.6222  0.3795  0.4643
 5838TIP3    H217521   5.714   3.301   1.195 -1.0219 -0.4936  0.8352
 5839TIP3   OH217522   3.144   3.096   1.887 -0.7635  0.3242 -0.3799
 5839TIP3    H117523   3.109   3.184   1.871 -2.6000 -0.4369 -0.7928
 5839TIP3    H217524   3.090   3.038   1.833  0.9161 -1.0068 -0.7353
 5840TIP3   OH217525   2.303   4.054   2.962 -0.6822  0.6932  0.1399
 5840TIP3    H117526   2.394   4.029   2.949 -0.4736  1.7160 -0.4809
 5840TIP3    H217527   2.307   4.127   3.024 -0.8950  1.9707 -1.2965
 5841TIP3   OH217528   2.457   1.267   1.473 -0.4863 -0.0111  0.1050
 5841TIP3    H117529   2.481   1.254   1.381 -2.0038  0.7653 -0.4376
 5841TIP3    H217530   2.492   1.353   1.494  3.0109 -1.5741  1.4207
 5842TIP3   OH217531   5.999   1.750   0.201  0.0826 -0.0446 -0.3090
 5842TIP3    H117532   6.072   1.759   0.263 -0.8206  0.8044  0.6669
 5842TIP3    H217533   6.025   1.801   0.125  0.9074 -0.5277 -0.3656
 5843TIP3   OH217534   4.591   1.317   1.664 -0.0650  0.5190 -0.2564
 5843TIP3    H117535   4.600   1.374   1.588 -0.2830  0.1178 -0.5882
 5843TIP3    H217536   4.547   1.371   1.729  1.7137  1.4509  0.2289
 5844TIP3   OH217537   2.695   3.264   4.961 -0.1176 -0.6826 -0.0301
 5844TIP3    H117538   2.740   3.188   4.923 -1.1216 -0.5724 -1.5594
 5844TIP3    H217539   2.634   3.226   5.025 -1.1337 -1.2950 -1.2963
 5845TIP3   OH217540   3.133   0.888   1.464 -0.0578 -0.6385  0.4140
 5845TIP3    H117541   3.177   0.852   1.387 -0.8441  0.4180 -0.5588
 5845TIP3    H217542   3.202   0.935   1.511  0.1396 -0.0951 -0.4043
 5846TIP3   OH217543   1.496   1.695   3.981 -0.1285 -0.3102  0.1259
 5846TIP3    H117544   1.539   1.671   3.899  1.3494 -0.2662  0.8468
 5846TIP3    H217545   1.520   1.787   3.994 -1.1118 -0.0440  0.1767
 5847TIP3   OH217546   5.778   4.802   0.806 -0.2474  0.2485  0.5072
 5847TIP3    H117547   5.843   4.752   0.757 -0.3404  0.3396  0.2887
 5847TIP3    H217548   5.786   4.891   0.771  0.0622  0.4347  1.0383
 5848TIP3   OH217549   0.569   4.090   3.822 -0.2002 -0.0193 -0.2883
 5848TIP3    H117550   0.556   4.182   3.843 -0.4364 -0.3306  1.0343
 5848TIP3    H217551   0.610   4.053   3.901 -0.7954 -1.1918 -0.5044
 5849TIP3   OH217552   5.021   5.130   4.007 -0.5079 -0.1823 -0.3096
 5849TIP3    H117553   4.956   5.195   4.032  0.4921  0.9007 -0.4169
 5849TIP3    H217554   5.087   5.180   3.959 -0.1793 -1.4455 -1.2346
 5850TIP3   OH217555   3.849   3.512   3.795  0.0691 -0.0935  0.5783
 5850TIP3    H117556   3.930   3.558   3.775 -0.5498  1.2835  1.1111
 5850TIP3    H217557   3.842   3.444   3.728  1.9793 -0.6767  0.9342
 5851TIP3   OH217558   0.884   0.163   0.478 -0.4791  0.0015  0.3604
 5851TIP3    H117559   0.933   0.103   0.421 -0.8828  0.1266 -0.1333
 5851TIP3    H217560   0.921   0.149   0.565  0.7026  0.3742 -0.0603
 5852TIP3   OH217561   4.959   5.419   3.333  0.5629  0.2094 -0.3304
 5852TIP3    H117562   4.972   5.378   3.419  1.0183 -1.7226 -1.2696
 5852TIP3    H217563   5.048   5.444   3.306  0.4832  0.3573 -0.4532
 5853TIP3   OH217564   2.813   1.454   0.115  0.1441  0.5436  0.3529
 5853TIP3    H117565   2.881   1.389   0.097  1.5224  1.9434  0.2012
 5853TIP3    H217566   2.774   1.473   0.030 -0.5891 -0.4051  0.4685
 5854TIP3   OH217567   5.199   3.555   1.192 -0.1519  0.3592 -0.2267
 5854TIP3    H117568   5.161   3.491   1.132  0.7062  0.4242 -0.8539
 5854TIP3    H217569   5.262   3.604   1.139  2.1687 -0.9434  1.1816
 5855TIP3   OH217570   1.661   5.520   3.169  0.2462  0.8125 -0.1740
 5855TIP3    H117571   1.613   5.480   3.096  0.8589  0.5810 -0.4569
 5855TIP3    H217572   1.632   5.471   3.246 -0.9806  1.5564 -0.1372
 5856TIP3   OH217573   2.426   0.138   1.935  0.5649  0.6145  0.1919
 5856TIP3    H117574   2.362   0.200   1.972  0.7641  1.0017 -0.1018
 5856TIP3    H217575   2.390   0.052   1.954 -0.0048  0.8292  0.1088
 5857TIP3   OH217576   1.436   2.406   4.418 -0.0025  0.2257 -0.4099
 5857TIP3    H117577   1.461   2.329   4.366  0.0821  0.3241 -0.5164
 5857TIP3    H217578   1.511   2.422   4.475  0.6141  1.1171 -1.4183
 5858TIP3   OH217579   5.145   3.809   2.205  0.0451  0.0137 -0.0291
 5858TIP3    H117580   5.060   3.842   2.236  0.3366  0.2576  0.5164
 5858TIP3    H217581   5.122   3.742   2.141 -0.5658  0.6628 -0.5140
 5859TIP3   OH217582   0.031   4.225   1.782  0.1587 -0.5466 -0.2967
 5859TIP3    H117583   0.041   4.152   1.844 -0.1998 -1.6830 -1.5159
 5859TIP3    H217584   0.040   4.184   1.696  0.9247  1.0353 -1.0086
 5860TIP3   OH217585   5.419   5.156   2.053 -0.3270 -0.6003 -0.5056
 5860TIP3    H117586   5.371   5.095   1.997 -2.1601  0.2556  0.0554
 5860TIP3    H217587   5.351   5.200   2.104  1.0436  1.0092  0.0141
 5861TIP3   OH217588   3.277   4.484   5.115 -0.4164 -0.3578 -0.5339
 5861TIP3    H117589   3.214   4.493   5.187  1.7463  1.8982  1.2438
 5861TIP3    H217590   3.230   4.518   5.038 -0.8569  3.2214  1.1239
 5862TIP3   OH217591   3.084   5.422   4.370  0.4154  0.0805 -0.7514
 5862TIP3    H117592   3.015   5.387   4.315 -0.3901  0.6282 -0.1167
 5862TIP3    H217593   3.101   5.354   4.435 -1.5484  1.0153  0.8344
 5863TIP3   OH217594   3.586   2.727   1.658 -0.3633  0.2764 -0.1429
 5863TIP3    H117595   3.649   2.662   1.626 -0.1136 -0.2536  1.3638
 5863TIP3    H217596   3.506   2.710   1.608 -0.0077 -0.5671 -0.4383
 5864TIP3   OH217597   3.499   5.125   4.832 -0.0162  0.0913 -0.4682
 5864TIP3    H117598   3.587   5.100   4.804 -0.1855  0.3630 -1.2635
 5864TIP3    H217599   3.507   5.136   4.927  0.1889 -2.4220 -0.1226
 5865TIP3   OH217600   4.086   1.878   1.426  0.5368 -0.0560  0.0604
 5865TIP3    H117601   4.154   1.824   1.466  1.1410  0.1897 -0.6108
 5865TIP3    H217602   4.086   1.852   1.334 -0.4306 -0.2029  0.0932
 5866TIP3   OH217603   0.061   1.309   5.068  0.4086 -0.2359 -0.4339
 5866TIP3    H117604   0.051   1.254   4.991 -0.5132 -0.8408  0.0911
 5866TIP3    H217605   0.023   1.393   5.043  0.8610 -0.1661 -0.8988
 5867TIP3   OH217606   2.234   1.675   0.965 -0.1756 -0.2339 -0.3853
 5867TIP3    H117607   2.259   1.752   0.913  0.1261 -1.0069 -1.4375
 5867TIP3    H217608   2.139   1.680   0.973  0.0416  1.9740  2.4070
 5868TIP3   OH217609   4.332   3.489   4.959 -0.3123 -0.1692 -0.0690
 5868TIP3    H117610   4.276   3.456   5.029  0.7187 -1.4245  0.2091
 5868TIP3    H217611   4.387   3.554   5.002  0.3953 -1.0164  0.3391
 5869TIP3   OH217612   0.580   2.646   2.562 -0.9873  0.0125  0.0904
 5869TIP3    H117613   0.496   2.625   2.602 -0.9521  0.9396  0.6841
 5869TIP3    H217614   0.561   2.653   2.468 -1.4653 -0.2905  0.1649
 5870TIP3   OH217615   2.418   0.337   5.195 -0.2897 -0.2369 -0.1052
 5870TIP3    H117616   2.439   0.426   5.223 -0.8656  0.1068 -0.7236
 5870TIP3    H217617   2.339   0.347   5.142  0.8542 -0.8176 -2.0084
 5871TIP3   OH217618   0.894   5.261   2.182  0.3500  0.2962 -0.2157
 5871TIP3    H117619   0.974   5.249   2.131  0.5139  0.0309  0.0976
 5871TIP3    H217620   0.898   5.193   2.250  0.8516  1.5343  1.0528
 5872TIP3   OH217621   0.540   1.549   3.176 -0.2312  0.3030  0.2519
 5872TIP3    H117622   0.527   1.497   3.097 -0.8140 -0.9157  1.1181
 5872TIP3    H217623   0.600   1.496   3.229  1.5018  1.8818 -0.0575
 5873TIP3   OH217624   1.918   0.568   5.013 -0.0226 -0.7514 -0.1886
 5873TIP3    H117625   1.832   0.591   4.978 -0.0403  0.7310  0.7419
 5873TIP3    H217626   1.979   0.590   4.942 -0.2916 -0.4989 -0.3460
 5874TIP3   OH217627   1.056   5.261   0.929 -0.1838  0.5667 -0.4504
 5874TIP3    H117628   0.963   5.274   0.909 -0.5258  2.0377  1.8159
 5874TIP3    H217629   1.102   5.317   0.866 -0.8115  0.0603 -1.3910
 5875TIP3   OH217630   4.522   0.962   4.825  0.0665  0.1592 -0.8145
 5875TIP3    H117631   4.566   0.884   4.789  0.2197  0.1677 -0.6461
 5875TIP3    H217632   4.440   0.967   4.777  0.1543  0.0184 -0.9825
 5876TIP3   OH217633   1.790   4.393   1.426 -0.1772 -0.5870 -0.1669
 5876TIP3    H117634   1.746   4.439   1.353 -1.0181 -1.3097 -0.1321
 5876TIP3    H217635   1.718   4.360   1.480  0.4402 -0.3688  0.8052
 5877TIP3   OH217636   3.169   1.019   4.357  0.2780 -0.2549  0.5080
 5877TIP3    H117637   3.104   1.026   4.427  0.3503 -0.9668  0.6589
 5877TIP3    H217638   3.236   0.961   4.393  1.2782  0.8990  0.5667
 5878TIP3   OH217639   5.880   5.762   3.842  0.4681  0.0970 -0.4028
 5878TIP3    H117640   5.973   5.781   3.854  0.7943 -1.5907 -0.0600
 5878TIP3    H217641   5.836   5.844   3.864  1.7804  0.4694  1.0132
 5879TIP3   OH217642   5.057   0.523   3.383  0.0230  0.1465 -1.1585
 5879TIP3    H117643   5.059   0.553   3.474  0.4029 -0.7114 -0.8721
 5879TIP3    H217644   5.040   0.429   3.390 -1.6475  0.3337 -2.0369
 5880TIP3   OH217645   2.399   2.181   0.576  0.0933 -0.4223  0.1219
 5880TIP3    H117646   2.420   2.166   0.668 -0.1833 -1.6694 -0.0033
 5880TIP3    H217647   2.306   2.161   0.570  0.6565 -2.9857 -0.9382
 5881TIP3   OH217648   3.538   1.361   2.405  0.3841  0.1113 -0.1999
 5881TIP3    H117649   3.502   1.303   2.339  1.0619  0.2513 -0.7038
 5881TIP3    H217650   3.465   1.417   2.431 -0.8890 -2.2223  1.7660
 5882TIP3   OH217651   3.817   5.770   1.469  0.7049  0.4801  0.3518
 5882TIP3    H117652   3.815   5.701   1.535 -1.5431 -0.0792 -0.2168
 5882TIP3    H217653   3.829   5.723   1.386 -4.1444  0.1606 -0.4766
 5883TIP3   OH217654   0.842   0.229   0.143  0.2197  0.0789  0.0879
 5883TIP3    H117655   0.890   0.151   0.174  0.1994 -0.8550 -2.0376
 5883TIP3    H217656   0.855   0.228   0.049 -0.3705  2.3156 -0.0548
 5884TIP3   OH217657   0.448   4.781   3.543  0.4630 -0.3337  0.4108
 5884TIP3    H117658   0.446   4.698   3.495 -0.2109 -0.8631  1.3167
 5884TIP3    H217659   0.452   4.755   3.635  2.0085  0.6584  0.6512
 5885TIP3   OH217660   6.277   2.398   0.792 -0.3007  0.5458 -0.4428
 5885TIP3    H117661   6.245   2.485   0.768  1.7918  1.5043  0.0719
 5885TIP3    H217662   6.234   2.379   0.875 -1.3459  0.7423 -0.9205
 5886TIP3   OH217663   2.633   1.776   3.681 -0.0295  0.2903 -0.1942
 5886TIP3    H117664   2.598   1.858   3.648 -0.2066  1.5177  2.7440
 5886TIP3    H217665   2.721   1.771   3.645 -0.0978  1.6646 -0.5950
 5887TIP3   OH217666   5.495   4.877   2.202 -0.3996 -0.0897 -0.2555
 5887TIP3    H117667   5.573   4.852   2.153  0.1715  0.1762  0.4897
 5887TIP3    H217668   5.432   4.905   2.135  0.0654 -0.5032 -0.8789
 5888TIP3   OH217669   2.708   5.351   1.209 -0.0132  0.7186  0.0911
 5888TIP3    H117670   2.742   5.387   1.291  1.0847 -0.6209  0.2586
 5888TIP3    H217671   2.767   5.386   1.141  0.0333  0.5789  0.0590
 5889TIP3   OH217672   5.536   1.259   4.521  0.2462 -0.0000 -0.2030
 5889TIP3    H117673   5.499   1.347   4.518  1.8986  0.7145 -1.6555
 5889TIP3    H217674   5.621   1.270   4.564  1.1379 -0.5865 -1.7457
 5890TIP3   OH217675   3.426   1.655   3.709  0.0239  0.2295 -0.6340
 5890TIP3    H117676   3.361   1.591   3.680  0.4241  0.0443 -1.1427
 5890TIP3    H217677   3.510   1.614   3.689  0.3616 -0.3696  1.7747
 5891TIP3   OH217678   2.987   1.015   2.152  0.0485  0.1948 -0.3687
 5891TIP3    H117679   3.058   1.079   2.148  0.9255 -0.7683 -0.6905
 5891TIP3    H217680   2.968   1.007   2.245  0.0742  0.7548 -0.3091
 5892TIP3   OH217681   5.802   2.280   3.571 -0.7228 -0.1831  0.0002
 5892TIP3    H117682   5.760   2.366   3.580 -0.4788  0.0623 -1.0881
 5892TIP3    H217683   5.736   2.225   3.530 -0.3717 -0.1121 -0.6610
 5893TIP3   OH217684   0.227   4.553   0.646 -0.0033 -0.3861  0.0669
 5893TIP3    H117685   0.167   4.593   0.583 -2.2508 -0.8822  1.7633
 5893TIP3    H217686   0.307   4.536   0.596 -0.1469  3.0145 -1.5879
 5894TIP3   OH217687   3.900   4.893   2.135  0.1341 -0.9667  0.4402
 5894TIP3    H117688   3.862   4.978   2.158  1.3485 -0.7995  1.9840
 5894TIP3    H217689   3.886   4.886   2.041 -2.9117 -0.5557  0.7538
 5895TIP3   OH217690   1.334   1.315   3.390 -0.0356  0.3064  0.8648
 5895TIP3    H117691   1.339   1.396   3.440 -1.9663 -0.3143  2.1596
 5895TIP3    H217692   1.425   1.295   3.367  0.6586  1.8147  2.1454
 5896TIP3   OH217693   5.615   1.569   5.145  0.1583 -0.1161  0.1240
 5896TIP3    H117694   5.664   1.642   5.108 -1.0622  0.9400  0.5413
 5896TIP3    H217695   5.592   1.598   5.233 -0.6188 -0.8764  0.1825
 5897TIP3   OH217696   5.051   3.572   2.903  0.3258 -0.0624 -0.7216
 5897TIP3    H117697   5.141   3.603   2.908  0.6322 -1.0592  2.3594
 5897TIP3    H217698   5.059   3.480   2.875  0.5519 -0.8209  1.6361
 5898TIP3   OH217699   5.543   0.735   5.204  0.1261 -0.7469  0.5515
 5898TIP3    H117700   5.482   0.706   5.137 -1.7207  2.2445  0.7801
 5898TIP3    H217701   5.537   0.830   5.204  3.4291 -0.3687  1.9232
 5899TIP3   OH217702   5.087   0.252   1.340 -0.0790 -0.3551  0.2525
 5899TIP3    H117703   5.016   0.313   1.358 -0.3117 -0.5683  0.0586
 5899TIP3    H217704   5.166   0.301   1.362 -0.2780 -0.0854  0.3807
 5900TIP3   OH217705   3.366   2.808   2.617 -0.7464 -0.3004  0.0380
 5900TIP3    H117706   3.450   2.763   2.616 -1.2672 -1.3010 -1.0640
 5900TIP3    H217707   3.305   2.745   2.657 -0.8114  0.7872  1.7638
 5901TIP3   OH217708   0.902   3.042   4.620 -1.0295 -0.2841 -0.4160
 5901TIP3    H117709   0.855   3.018   4.700  0.4171  1.0561  0.9149
 5901TIP3    H217710   0.952   2.964   4.597 -0.3259 -0.2469  0.8856
 5902TIP3   OH217711   4.510   1.005   1.802  0.1973  0.2512  0.3564
 5902TIP3    H117712   4.471   0.974   1.720  0.5007 -0.3973  0.4478
 5902TIP3    H217713   4.441   1.057   1.843 -0.4138 -0.4888  0.2902
 5903TIP3   OH217714   5.579   4.642   1.599  0.1146  0.2867  0.7224
 5903TIP3    H117715   5.521   4.618   1.527  1.2890  2.6257 -1.1678
 5903TIP3    H217716   5.633   4.565   1.614  0.1515 -0.1197 -1.2708
 5904TIP3   OH217717   3.542   1.143   1.267 -0.1229 -0.4164  0.4268
 5904TIP3    H117718   3.462   1.132   1.215  1.1021 -0.3898 -1.6005
 5904TIP3    H217719   3.541   1.235   1.292 -0.4907 -0.2952 -0.0086
 5905TIP3   OH217720   4.960   1.491   4.123 -0.1990 -0.0012  0.5313
 5905TIP3    H117721   4.889   1.492   4.187 -0.8175  1.8547 -0.1182
 5905TIP3    H217722   5.036   1.460   4.173 -0.5664  1.7625  2.3118
 5906TIP3   OH217723   4.285   4.179   2.882 -0.6359 -0.2488 -0.3837
 5906TIP3    H117724   4.243   4.178   2.968 -2.0563  0.3735 -1.0367
 5906TIP3    H217725   4.378   4.189   2.901 -1.1097  2.3245  1.0332
 5907TIP3   OH217726   0.030   2.510   0.438 -0.1808  0.7726 -0.1978
 5907TIP3    H117727   0.036   2.571   0.365 -0.6885 -0.7669 -1.5867
 5907TIP3    H217728  -0.051   2.462   0.422  0.3432 -0.4557  0.7117
 5908TIP3   OH217729   2.897   1.318   2.984  0.4618 -0.1983  0.6114
 5908TIP3    H117730   2.877   1.309   3.077 -0.3517  0.8944  0.5670
 5908TIP3    H217731   2.823   1.368   2.949  1.6235  0.9766 -0.2541
 5909TIP3   OH217732   1.429   3.742   0.354  0.0151  0.7544 -0.8673
 5909TIP3    H117733   1.492   3.767   0.287  0.1937  1.5846 -0.4026
 5909TIP3    H217734   1.477   3.748   0.437 -0.5448  0.9857 -0.5491
 5910TIP3   OH217735   2.565   5.944   3.753  0.0942  0.2141  0.4992
 5910TIP3    H117736   2.616   6.013   3.796  1.0768 -0.8133  1.0255
 5910TIP3    H217737   2.507   5.991   3.693  0.2985  1.5332  1.2967
 5911TIP3   OH217738   0.383   3.423   1.999  0.5196 -0.3554  0.6955
 5911TIP3    H117739   0.469   3.465   1.995  0.4076 -0.1759 -1.2276
 5911TIP3    H217740   0.402   3.332   2.019  1.4249 -0.8026 -1.7930
 5912TIP3   OH217741   4.160   3.460   2.081 -0.0326  0.3714  0.0533
 5912TIP3    H117742   4.140   3.465   2.174 -1.4008  0.1800 -0.2162
 5912TIP3    H217743   4.206   3.377   2.070  0.3528  0.5132  0.5906
 5913TIP3   OH217744   1.568   3.206   0.813  0.2456 -0.4575 -0.1683
 5913TIP3    H117745   1.488   3.180   0.768 -0.9680  0.3796  1.4263
 5913TIP3    H217746   1.578   3.142   0.883  0.2113  0.2326  0.4759
 5914TIP3   OH217747   6.320   5.513   3.600  0.4094  0.1444  0.3333
 5914TIP3    H117748   6.242   5.458   3.607  0.4603 -0.0048 -0.2753
 5914TIP3    H217749   6.286   5.602   3.594  0.3463  0.3099  2.3667
 5915TIP3   OH217750   2.573   2.408   3.099  0.2983 -0.3332  0.0904
 5915TIP3    H117751   2.501   2.349   3.121  0.0032  0.6440  1.9471
 5915TIP3    H217752   2.647   2.377   3.151 -0.2180  1.6168  2.1316
 5916TIP3   OH217753   3.991   3.766   0.907 -0.1375 -0.2107 -0.2222
 5916TIP3    H117754   4.062   3.702   0.903 -0.0862 -0.3059  1.3060
 5916TIP3    H217755   3.912   3.712   0.913 -0.3254 -0.1054 -1.5089
 5917TIP3   OH217756   5.598   0.469   5.114  0.0967 -0.0374 -0.3322
 5917TIP3    H117757   5.511   0.492   5.080 -0.4726 -1.7323 -0.1255
 5917TIP3    H217758   5.621   0.541   5.172 -0.5444  1.1168 -1.4655
 5918TIP3   OH217759   3.020   0.266   0.719 -0.0406 -0.3603  0.0003
 5918TIP3    H117760   2.956   0.329   0.686 -0.2624  0.0928  1.2374
 5918TIP3    H217761   3.047   0.216   0.642 -0.4013  0.7676 -0.8774
 5919TIP3   OH217762   2.426   3.062   3.031  0.2719  0.8902  0.0089
 5919TIP3    H117763   2.355   3.044   2.969  0.1951  0.0949  0.3282
 5919TIP3    H217764   2.503   3.076   2.975  0.4017 -0.6928 -0.2578
 5920TIP3   OH217765   6.205   5.542   1.243 -0.1128 -0.2787 -0.1502
 5920TIP3    H117766   6.173   5.588   1.166  0.1856 -0.2797 -0.2790
 5920TIP3    H217767   6.245   5.462   1.208  0.4882 -0.0298 -0.0460
 5921TIP3   OH217768   4.153   0.287   3.930  0.8224  0.6397 -0.0631
 5921TIP3    H117769   4.210   0.362   3.916  1.2292  0.4579  0.5722
 5921TIP3    H217770   4.127   0.259   3.842  0.6229  1.5516 -0.2977
 5922TIP3   OH217771   1.139   4.190   2.273 -0.7906  0.4344 -0.0217
 5922TIP3    H117772   1.157   4.181   2.367 -2.6500 -2.2206  0.1609
 5922TIP3    H217773   1.183   4.115   2.233 -1.7219  0.4075 -1.0145
 5923TIP3   OH217774   0.934   3.901   4.057 -0.3895  0.2205  1.0211
 5923TIP3    H117775   0.992   3.977   4.055  0.6163 -0.5090  1.2944
 5923TIP3    H217776   0.962   3.852   4.134 -2.3601  0.5608  1.9992
 5924TIP3   OH217777   4.929   0.785   3.391  0.0971 -0.6277  0.8485
 5924TIP3    H117778   5.007   0.730   3.397 -0.3901 -1.2119  1.9934
 5924TIP3    H217779   4.935   0.826   3.304  2.7183  0.9447  1.6636
 5925TIP3   OH217780   4.792   1.442   3.454 -0.1433  0.0824  0.2244
 5925TIP3    H117781   4.862   1.507   3.449  0.9103 -1.1382 -2.0289
 5925TIP3    H217782   4.837   1.359   3.468 -1.3509 -0.4427  1.2363
 5926TIP3   OH217783   5.257   1.360   3.374  0.0347 -0.1783 -0.0190
 5926TIP3    H117784   5.312   1.283   3.355  0.2250 -0.4426  1.4534
 5926TIP3    H217785   5.253   1.408   3.292 -0.2731 -1.8859 -1.0515
 5927TIP3   OH217786   3.684   1.912   3.168  0.0562 -0.0813  0.1586
 5927TIP3    H117787   3.770   1.889   3.202  0.2139 -0.2196 -0.3389
 5927TIP3    H217788   3.636   1.829   3.164 -0.2336  0.0478  0.7990
 5928TIP3   OH217789   1.347   1.603   2.667 -0.4074 -0.1294 -0.1386
 5928TIP3    H117790   1.332   1.578   2.758 -0.2021  0.0022 -0.0681
 5928TIP3    H217791   1.336   1.521   2.618 -0.9728 -0.1114 -0.0502
 5929TIP3   OH217792   1.278   0.027   2.236 -0.3226  0.4984  0.1686
 5929TIP3    H117793   1.342   0.049   2.304 -0.7757  2.2991  0.0761
 5929TIP3    H217794   1.323  -0.036   2.180  1.0632  1.0690  0.5869
 5930TIP3   OH217795   5.996   1.935   1.368  0.0211  0.2368  0.1847
 5930TIP3    H117796   6.083   1.918   1.402  0.8375 -0.4099 -2.0317
 5930TIP3    H217797   5.986   1.874   1.295 -2.1426  0.5577  0.1372
 5931TIP3   OH217798   4.832   1.208   2.881 -0.5548  0.3838 -0.0728
 5931TIP3    H117799   4.788   1.135   2.836  0.4682 -0.1264 -0.2812
 5931TIP3    H217800   4.900   1.236   2.819  0.2395  0.3108  0.7451
 5932TIP3   OH217801   0.893   0.909   3.821  0.7941 -0.0374 -0.3474
 5932TIP3    H117802   0.924   0.829   3.864 -1.7617 -0.7271  0.3889
 5932TIP3    H217803   0.934   0.980   3.871  0.6075 -0.8687  1.0459
 5933TIP3   OH217804   2.087   1.052   3.912 -0.0830  0.1878  0.4741
 5933TIP3    H117805   2.179   1.055   3.939 -0.1623 -1.2958  0.9784
 5933TIP3    H217806   2.087   1.089   3.823  0.4727  3.2883  1.6559
 5934TIP3   OH217807   2.670   3.582   0.420 -0.1461  1.0615 -0.0623
 5934TIP3    H117808   2.576   3.571   0.426 -0.1431  0.3205 -1.2332
 5934TIP3    H217809   2.685   3.674   0.444 -1.1003  1.0558  0.6022
 5935TIP3   OH217810   6.358   2.706   2.440 -0.1642 -0.1844 -0.2560
 5935TIP3    H117811   6.294   2.667   2.380  0.6951  0.7218 -1.8268
 5935TIP3    H217812   6.410   2.632   2.471 -0.7811 -0.7018 -0.4311
 5936TIP3   OH217813   1.021   4.302   0.556 -0.2930 -0.0591  0.2330
 5936TIP3    H117814   1.066   4.263   0.481  0.9062  0.6074  0.5793
 5936TIP3    H217815   1.036   4.396   0.546 -1.5754  0.1782  0.4024
 5937TIP3   OH217816   2.032   4.634   2.514 -0.5454 -0.1020 -0.1311
 5937TIP3    H117817   2.116   4.616   2.557 -0.0333 -1.4080 -1.5720
 5937TIP3    H217818   2.028   4.729   2.508  0.5484  0.0046  0.4924
 5938TIP3   OH217819   4.828   0.549   4.586  0.6105 -0.1013  0.3695
 5938TIP3    H117820   4.874   0.630   4.609 -0.0673  0.1830  0.7472
 5938TIP3    H217821   4.735   0.573   4.588  0.3626 -1.0709  1.2199
 5939TIP3   OH217822   0.258   5.232   3.288 -0.6458 -0.1441 -0.0694
 5939TIP3    H117823   0.340   5.188   3.267 -0.9789 -0.6157 -0.4138
 5939TIP3    H217824   0.243   5.214   3.381  0.4584  1.3250  0.4314
 5940TIP3   OH217825   0.791   4.532   1.545 -0.3383 -0.1065  0.2010
 5940TIP3    H117826   0.783   4.627   1.549 -2.2386 -0.2240 -0.0183
 5940TIP3    H217827   0.816   4.506   1.634 -0.7569  0.5265  0.5049
 5941TIP3   OH217828   0.513   1.365   1.316  0.2032  0.3088  0.3950
 5941TIP3    H117829   0.526   1.398   1.227  0.8658 -0.7850  0.0653
 5941TIP3    H217830   0.420   1.344   1.321 -0.0154  1.2225  0.2641
 5942TIP3   OH217831   5.048   1.164   0.831 -0.1457  0.7672  0.1902
 5942TIP3    H117832   5.139   1.188   0.846 -0.4251  1.2385  1.1942
 5942TIP3    H217833   5.029   1.098   0.898 -0.1349 -0.4201 -0.9319
 5943TIP3   OH217834   2.599   5.011   1.770 -0.1192 -0.9074 -0.1118
 5943TIP3    H117835   2.689   4.980   1.764  1.0493  2.1326 -0.1396
 5943TIP3    H217836   2.558   4.983   1.688  0.8305 -2.1385 -0.1930
 5944TIP3   OH217837   4.004   4.933   0.980  0.0681  0.2801 -0.9915
 5944TIP3    H117838   3.916   4.896   0.991 -0.4094  1.0705 -2.0045
 5944TIP3    H217839   3.992   5.027   0.995  1.1590  0.1576  1.0040
 5945TIP3   OH217840   5.230   4.871   3.605 -0.6346  0.1730  0.2146
 5945TIP3    H117841   5.228   4.850   3.699 -1.1248  0.6566  0.3129
 5945TIP3    H217842   5.140   4.893   3.583 -1.0031 -2.2025 -0.9039
 5946TIP3   OH217843   2.403   3.623   3.915 -0.2376  0.0652 -0.3111
 5946TIP3    H117844   2.435   3.660   3.833 -3.1161  1.4232 -0.9194
 5946TIP3    H217845   2.348   3.549   3.888 -0.1922 -0.2765  0.5004
 5947TIP3   OH217846   0.242   3.295   4.982  0.2938  0.3630  0.2827
 5947TIP3    H117847   0.268   3.204   4.995  0.8431  0.4391 -0.2183
 5947TIP3    H217848   0.147   3.294   4.985  0.3047  0.1426  2.6162
 5948TIP3   OH217849   0.729   5.204   0.227 -0.2436 -0.5428  0.4250
 5948TIP3    H117850   0.637   5.215   0.254 -0.2101  0.7706  0.0825
 5948TIP3    H217851   0.779   5.215   0.308 -0.3175  0.2162  0.3758
 5949TIP3   OH217852   1.926   5.033   3.491  0.7219 -0.6663 -0.2212
 5949TIP3    H117853   1.838   4.999   3.509 -0.3426  1.4665 -1.0247
 5949TIP3    H217854   1.981   4.955   3.485 -1.1749 -2.0946  0.0001
 5950TIP3   OH217855   0.074   3.037   1.071  0.3670  0.1184  0.1029
 5950TIP3    H117856   0.169   3.028   1.069  0.2567 -2.5122  1.7563
 5950TIP3    H217857   0.058   3.124   1.108  2.0699  0.9715 -1.0442
 5951TIP3   OH217858   0.466   0.069   4.913  0.3985 -0.7637  0.6322
 5951TIP3    H117859   0.549   0.051   4.869  0.7290  0.7150  0.6034
 5951TIP3    H217860   0.459   0.001   4.980  1.6259 -0.9239  0.6150
 5952TIP3   OH217861   4.721   3.632   4.498  0.5709 -0.0044  0.5440
 5952TIP3    H117862   4.717   3.728   4.500  1.0509  0.1159 -1.7301
 5952TIP3    H217863   4.805   3.611   4.539  1.4561  0.7185 -0.8094
 5953TIP3   OH217864   5.792   5.738   5.155 -0.0194  0.3403  0.0899
 5953TIP3    H117865   5.831   5.711   5.238  0.8383 -1.3382 -0.8004
 5953TIP3    H217866   5.698   5.728   5.168 -0.0132  1.7312  1.3752
 5954TIP3   OH217867   3.601   3.845   0.713  0.1188 -0.0496  0.3684
 5954TIP3    H117868   3.627   3.930   0.679  0.5779 -0.1955  0.3418
 5954TIP3    H217869   3.570   3.796   0.637 -1.0109  0.3952  0.5197
 5955TIP3   OH217870   5.777   4.911   4.634  0.0112  0.4422 -0.1126
 5955TIP3    H117871   5.863   4.952   4.632 -0.9972  2.7876 -2.5665
 5955TIP3    H217872   5.764   4.878   4.545 -1.0982 -1.1593  0.5949
 5956TIP3   OH217873   2.405   5.241   3.762  0.1588  0.0005  0.6927
 5956TIP3    H117874   2.404   5.249   3.666 -0.2112 -1.7647  0.5031
 5956TIP3    H217875   2.368   5.154   3.778 -2.1356  1.2196  2.5642
 5957TIP3   OH217876   1.254   4.848   0.316 -0.0340  0.5356 -0.5045
 5957TIP3    H117877   1.177   4.899   0.290 -0.1282  0.7401  0.1383
 5957TIP3    H217878   1.231   4.814   0.403  0.1492 -0.3566 -0.8031
 5958TIP3   OH217879   2.225   3.392   3.867  0.0456  0.3032 -0.1182
 5958TIP3    H117880   2.166   3.350   3.931 -0.1363 -0.7384 -0.9394
 5958TIP3    H217881   2.267   3.319   3.822  5.1487  0.7372  3.0809
 5959TIP3   OH217882   4.119   5.329   2.194  0.1474  0.7052  0.0143
 5959TIP3    H117883   4.084   5.324   2.283 -1.1685  1.0541 -0.4621
 5959TIP3    H217884   4.146   5.240   2.173 -1.4238  0.1943  0.0408
 5960TIP3   OH217885   2.818   1.280   1.119 -0.1030  0.0067 -0.4109
 5960TIP3    H117886   2.761   1.260   1.045  0.1606 -0.8544 -0.4010
 5960TIP3    H217887   2.809   1.374   1.133 -2.5989 -0.2997  0.4806
 5961TIP3   OH217888   5.059   5.654   2.277 -0.4264 -0.2687  0.4294
 5961TIP3    H117889   4.967   5.676   2.266 -1.0051 -2.1273  1.2185
 5961TIP3    H217890   5.093   5.722   2.335 -1.1713  0.6698 -0.2028
 5962TIP3   OH217891   5.706   2.684   0.242 -0.0926 -0.8316 -0.3159
 5962TIP3    H117892   5.705   2.780   0.243  1.8178 -0.7692  1.5959
 5962TIP3    H217893   5.614   2.659   0.239 -0.6471  1.0601 -0.3559
 5963TIP3   OH217894   0.567   4.992   3.402  0.1699  0.1277 -0.1633
 5963TIP3    H117895   0.517   4.933   3.459  1.5949 -0.4336  0.5608
 5963TIP3    H217896   0.596   4.936   3.330  0.7442  0.1538  0.0438
 5964TIP3   OH217897   1.312   2.477   4.151  0.2585  0.1788 -0.2932
 5964TIP3    H117898   1.373   2.460   4.223  1.5186  0.2246 -1.3185
 5964TIP3    H217899   1.240   2.524   4.192  1.3907  1.0448  0.7978
 5965TIP3   OH217900   5.165   4.691   2.817 -0.0234  0.3688 -0.0837
 5965TIP3    H117901   5.124   4.615   2.777  0.9109 -0.6379  0.8208
 5965TIP3    H217902   5.251   4.697   2.776  0.6225 -0.1831  1.1302
 5966TIP3   OH217903   2.346   2.662   0.523 -0.0115 -0.2536  0.0430
 5966TIP3    H117904   2.301   2.578   0.516  1.1974 -0.8949 -0.3862
 5966TIP3    H217905   2.349   2.695   0.433  2.3919 -1.3620 -0.3746
 5967TIP3   OH217906   1.214   3.697   4.469  0.5222  0.0013 -0.2492
 5967TIP3    H117907   1.120   3.688   4.456  0.3843 -0.2700  0.8396
 5967TIP3    H217908   1.252   3.621   4.424  0.2720  0.3624 -1.0905
 5968TIP3   OH217909   4.626   0.133   3.221 -0.3711 -0.0912  0.2105
 5968TIP3    H117910   4.651   0.077   3.148 -1.1335 -0.7472  0.4475
 5968TIP3    H217911   4.531   0.141   3.215 -0.2924  1.1313  0.2172
 5969TIP3   OH217912   0.046   1.966   0.073 -0.3553  0.7445 -0.4738
 5969TIP3    H117913   0.007   1.957  -0.014 -2.1791  1.9374  0.1564
 5969TIP3    H217914  -0.021   2.012   0.125  0.6273 -0.0129  1.5914
 5970TIP3   OH217915   1.431   1.325   4.466 -0.2008  0.2834 -0.0015
 5970TIP3    H117916   1.505   1.375   4.499 -1.1320  1.4674  0.3556
 5970TIP3    H217917   1.449   1.314   4.373  0.6708  0.0914  0.1780
 5971TIP3   OH217918   3.056   1.491   0.295 -0.2099 -0.8025 -0.2891
 5971TIP3    H117919   3.069   1.537   0.378  1.6710 -1.0705 -0.3960
 5971TIP3    H217920   2.978   1.531   0.257  0.4669  1.2302  0.3415
 5972TIP3   OH217921   2.976   3.640   0.864 -0.1536  0.1362  0.1689
 5972TIP3    H117922   3.008   3.574   0.925 -1.4768  0.7297  1.5780
 5972TIP3    H217923   2.945   3.590   0.789  1.1218 -0.6499  0.1437
 5973TIP3   OH217924   4.701   4.251   2.049 -0.6229 -0.3825  0.2275
 5973TIP3    H117925   4.619   4.300   2.047  0.1012  0.8896  0.3418
 5973TIP3    H217926   4.678   4.165   2.083 -1.8539  0.0516  0.5065
 5974TIP3   OH217927   6.075   0.569   0.177 -0.0854 -0.1396  0.1373
 5974TIP3    H117928   6.030   0.646   0.141 -1.9587 -1.3490 -0.2452
 5974TIP3    H217929   6.168   0.586   0.161 -0.5348  1.4525 -1.0980
 5975TIP3   OH217930   3.127   2.358   0.456  0.4189 -0.1025  0.0029
 5975TIP3    H117931   3.112   2.448   0.425 -1.6998 -0.0363  1.0905
 5975TIP3    H217932   3.053   2.339   0.512 -0.4942 -3.4073 -2.0454
 5976TIP3   OH217933   5.303   3.342   2.133 -0.3685  0.2119 -0.2174
 5976TIP3    H117934   5.273   3.258   2.165 -1.2425  0.5172 -0.2228
 5976TIP3    H217935   5.331   3.325   2.044 -2.1219  0.2430 -0.8101
 5977TIP3   OH217936   0.770   1.972   1.744 -0.4934 -0.6018 -0.1224
 5977TIP3    H117937   0.761   1.893   1.692  1.4932 -1.4882  0.7622
 5977TIP3    H217938   0.774   2.043   1.679  1.2920 -1.6046 -1.2040
 5978TIP3   OH217939   4.973   4.946   4.843 -0.2519  0.2169  0.3619
 5978TIP3    H117940   4.988   4.852   4.851  1.3604  0.5024  1.1626
 5978TIP3    H217941   5.044   4.986   4.893 -0.7151  1.8763 -0.2322
 5979TIP3   OH217942   0.917   4.029   3.248 -0.1666  0.0606  0.2680
 5979TIP3    H117943   0.898   4.123   3.248  2.2525  0.6043  1.0951
 5979TIP3    H217944   0.866   3.995   3.321 -1.2239  0.6696 -0.1568
 5980TIP3   OH217945   3.164   4.565   1.286  0.1186 -0.1166  0.3916
 5980TIP3    H117946   3.120   4.527   1.362  2.2603 -1.4229  1.0770
 5980TIP3    H217947   3.130   4.517   1.211  0.9263 -1.6852  0.9876
 5981TIP3   OH217948   4.997   4.865   5.173  0.1987  0.3753  0.1542
 5981TIP3    H117949   5.011   4.950   5.132  1.3605  0.4815  0.7193
 5981TIP3    H217950   5.047   4.870   5.255 -1.4668 -0.0907  1.2385
 5982TIP3   OH217951   0.393   5.523   3.582  0.2515  0.1165  1.0973
 5982TIP3    H117952   0.412   5.509   3.489  0.3450 -1.7080  1.3511
 5982TIP3    H217953   0.430   5.609   3.601  1.4334 -0.0545 -0.2389
 5983TIP3   OH217954   3.580   2.478   0.635 -0.4385  0.0378  0.5963
 5983TIP3    H117955   3.519   2.544   0.600 -1.1516 -1.6400 -1.5397
 5983TIP3    H217956   3.524   2.410   0.672  0.2127 -0.3359  0.9053
 5984TIP3   OH217957   3.566   3.238   2.764 -0.0514 -0.7476  0.4805
 5984TIP3    H117958   3.519   3.155   2.762 -1.5277  0.0479  0.4918
 5984TIP3    H217959   3.603   3.247   2.676 -0.7353 -0.9656  0.1625
 5985TIP3   OH217960   2.578   0.776   0.502 -0.7964  0.4094  0.1702
 5985TIP3    H117961   2.626   0.805   0.424 -1.6493 -0.5421 -0.7504
 5985TIP3    H217962   2.611   0.831   0.572 -0.1701  1.4778 -0.9138
 5986TIP3   OH217963   4.355   0.630   4.873 -0.5473  0.3374 -0.0712
 5986TIP3    H117964   4.362   0.671   4.786 -1.1423  0.0639 -0.2589
 5986TIP3    H217965   4.274   0.579   4.868  1.3959 -3.0099 -0.7467
 5987TIP3   OH217966   6.279   0.115   2.293  0.3970  0.0588  0.0853
 5987TIP3    H117967   6.214   0.086   2.358 -0.3071  2.7072  0.6914
 5987TIP3    H217968   6.348   0.048   2.296 -1.1288 -1.5378  1.2348
 5988TIP3   OH217969   1.080   2.350   1.658 -0.4273  0.2461 -0.1449
 5988TIP3    H117970   1.058   2.349   1.751  0.7418 -0.0294  0.1462
 5988TIP3    H217971   1.080   2.258   1.632 -1.1361  0.3421 -0.5328
 5989TIP3   OH217972   3.923   1.425   4.953 -0.1782 -0.0709  0.5602
 5989TIP3    H117973   3.999   1.484   4.949 -1.2242  1.3736  1.0828
 5989TIP3    H217974   3.902   1.419   5.046 -0.6496 -0.5492  0.4237
 5990TIP3   OH217975   2.156   1.365   2.837  0.1705 -0.4131 -0.1745
 5990TIP3    H117976   2.198   1.444   2.873 -0.5340  0.0193 -0.2772
 5990TIP3    H217977   2.222   1.297   2.846  0.6985  0.1286  0.1692
 5991TIP3   OH217978   0.174   0.431   0.513  0.1360 -0.3096  0.1488
 5991TIP3    H117979   0.270   0.433   0.518  0.1802  0.2440 -0.8130
 5991TIP3    H217980   0.149   0.358   0.570  1.1570 -0.7975 -0.0065
 5992TIP3   OH217981   4.792   0.642   3.608  0.4376  0.2866  0.7519
 5992TIP3    H117982   4.854   0.698   3.561 -0.4680 -0.0636 -0.9766
 5992TIP3    H217983   4.734   0.703   3.653  0.8736  0.6738  0.7931
 5993TIP3   OH217984   0.079   2.438   2.521 -0.1089  0.0699  0.1727
 5993TIP3    H117985   0.004   2.398   2.479  1.8729 -0.7492 -2.8687
 5993TIP3    H217986   0.117   2.368   2.575  0.0380 -0.3839 -0.5119
 5994TIP3   OH217987   4.058   4.391   1.861 -0.0200  0.4005  0.6413
 5994TIP3    H117988   4.045   4.297   1.876 -0.6056  0.3657 -0.0112
 5994TIP3    H217989   3.972   4.429   1.878  0.1607  0.7939  0.6719
 5995TIP3   OH217990   5.775   1.556   4.830 -0.4529  0.0929  0.6327
 5995TIP3    H117991   5.701   1.589   4.778  0.9767 -0.1932 -1.7324
 5995TIP3    H217992   5.795   1.471   4.790  0.7673 -0.1228  1.6556
 5996TIP3   OH217993   3.324   5.872   2.739 -0.4929  0.1455 -0.7880
 5996TIP3    H117994   3.278   5.913   2.812  0.6915 -1.5003  1.0174
 5996TIP3    H217995   3.257   5.822   2.693 -0.9785 -0.1778  0.2423
 5997TIP3   OH217996   4.296   2.627   1.198  0.6094  0.2233  0.0099
 5997TIP3    H117997   4.280   2.537   1.224 -2.2110  0.4347 -0.6652
 5997TIP3    H217998   4.392   2.635   1.196  0.9386 -2.6172  0.3972
 5998TIP3   OH217999   3.812   3.250   0.102  0.1545  0.5551 -0.5512
 5998TIP3    H118000   3.766   3.224   0.181 -0.9390  2.8072 -0.3514
 5998TIP3    H218001   3.886   3.302   0.132  2.8853 -2.8434 -0.8858
 5999TIP3   OH218002   3.026   3.917   4.484 -0.5181  0.2624  0.5800
 5999TIP3    H118003   2.955   3.976   4.508 -0.5977  0.3268  0.1801
 5999TIP3    H218004   2.985   3.832   4.471 -0.6161  0.4238 -0.2269
 6000TIP3   OH218005   2.742   1.319   4.591  0.3451  0.0205  0.4273
 6000TIP3    H118006   2.802   1.259   4.633  0.7109 -0.3148 -0.5463
 6000TIP3    H218007   2.658   1.304   4.635  0.7597 -0.1398  1.1831
 6001TIP3   OH218008   4.073   5.594   0.155 -0.2542 -0.0323  0.7463
 6001TIP3    H118009   3.977   5.593   0.144 -0.1472 -0.4484 -0.2732
 6001TIP3    H218010   4.089   5.532   0.226 -0.7018 -0.3749  0.5554
 6002TIP3   OH218011   1.638   1.908   4.383 -0.2500 -0.3902 -0.2098
 6002TIP3    H118012   1.685   1.981   4.343 -1.5573 -0.3296 -1.7201
 6002TIP3    H218013   1.659   1.915   4.476 -1.0392  2.4746 -0.1561
 6003TIP3   OH218014   5.098   0.370   4.727 -0.2395 -0.0623  0.6856
 6003TIP3    H118015   5.023   0.310   4.725 -0.5770  0.3671 -0.1679
 6003TIP3    H218016   5.081   0.426   4.803 -0.8749  0.1334  0.4085
 6004TIP3   OH218017   4.194   4.781   1.123 -0.3718  0.5721 -0.4767
 6004TIP3    H118018   4.153   4.842   1.062 -0.2070  0.2399 -0.9224
 6004TIP3    H218019   4.170   4.695   1.091  0.7618  0.3665 -0.8134
 6005TIP3   OH218020   4.438   1.515   4.553  0.3624  0.1803  1.1855
 6005TIP3    H118021   4.480   1.428   4.556  0.3411  0.1748  1.3432
 6005TIP3    H218022   4.351   1.500   4.591  0.2024  0.1825  0.8155
 6006TIP3   OH218023   6.192   2.387   1.482 -0.4669 -0.0460  0.9738
 6006TIP3    H118024   6.139   2.465   1.465 -2.7784 -1.4198  1.4401
 6006TIP3    H218025   6.266   2.419   1.534 -1.2372  1.8621  0.9726
 6007TIP3   OH218026   1.971   1.516   1.243  0.1850 -0.0463  0.7588
 6007TIP3    H118027   1.921   1.479   1.316 -0.4636  0.5556  0.6187
 6007TIP3    H218028   1.934   1.474   1.165  0.9978 -0.8266  0.7666
 6008TIP3   OH218029   5.565   3.278   1.622  0.0218  0.3446 -0.0717
 6008TIP3    H118030   5.471   3.261   1.621 -0.3042  2.0327 -0.5444
 6008TIP3    H218031   5.586   3.292   1.714  0.0400 -1.0470  0.1642
 6009TIP3   OH218032   2.961   0.613   1.634 -0.4005  0.5983 -0.3795
 6009TIP3    H118033   2.993   0.616   1.544 -1.0793 -0.5595 -0.6781
 6009TIP3    H218034   2.904   0.689   1.642 -0.1654  0.8273 -0.8586
 6010TIP3   OH218035   4.245   1.654   3.416  0.2121 -0.2885  0.5486
 6010TIP3    H118036   4.186   1.585   3.446 -0.1168 -0.9193 -1.4213
 6010TIP3    H218037   4.333   1.618   3.428  0.0475 -1.0042 -0.2763
 6011TIP3   OH218038   3.197   3.453   1.503 -0.4616  0.1050  0.2185
 6011TIP3    H118039   3.149   3.497   1.573 -0.7160 -0.2096  0.2409
 6011TIP3    H218040   3.152   3.369   1.491  0.2963 -0.3397  0.4725
 6012TIP3   OH218041   3.210   3.030   3.670 -0.1847  0.1746  0.5634
 6012TIP3    H118042   3.128   3.049   3.716 -1.4357 -2.3960 -0.3960
 6012TIP3    H218043   3.273   3.009   3.739 -0.9103  0.1969  1.2415
 6013TIP3   OH218044   5.950   2.060   0.585  0.0838  0.4568 -0.0017
 6013TIP3    H118045   6.038   2.096   0.597  0.6289 -0.2898 -1.5204
 6013TIP3    H218046   5.953   1.974   0.627  0.1848  0.2917 -0.3453
 6014TIP3   OH218047   3.037   5.547   1.390  0.9779 -0.1650  0.2750
 6014TIP3    H118048   2.997   5.512   1.469  0.9137  0.4098  0.5049
 6014TIP3    H218049   3.120   5.585   1.420  0.6993  0.5417  0.1679
 6015TIP3   OH218050   1.685   1.515   4.017 -0.2956  0.4351 -0.7379
 6015TIP3    H118051   1.636   1.438   3.986 -1.6153  0.1976  1.7096
 6015TIP3    H218052   1.621   1.586   4.014  0.8587  1.4741 -2.7922
 6016TIP3   OH218053   3.237   0.007   3.108 -0.2474 -0.3659  0.6334
 6016TIP3    H118054   3.223  -0.027   3.020 -1.4188  1.1000  0.2157
 6016TIP3    H218055   3.149   0.021   3.143  0.1873  0.8013  1.3307
 6017TIP3   OH218056   0.443   0.148   0.634  0.7833  0.1072  0.1403
 6017TIP3    H118057   0.519   0.121   0.685  0.5307  1.9973  1.6540
 6017TIP3    H218058   0.440   0.243   0.643 -0.4259  0.3309 -1.8477
 6018TIP3   OH218059   0.484   2.657   0.887  0.2338 -0.4127  0.4852
 6018TIP3    H118060   0.451   2.644   0.798  1.4369  0.9485 -0.1825
 6018TIP3    H218061   0.572   2.692   0.876  0.2093  0.3023  2.2110
 6019TIP3   OH218062   0.499   3.945   4.917 -0.3363 -0.0114 -0.2172
 6019TIP3    H118063   0.455   3.878   4.970 -2.1377  2.5296  1.8227
 6019TIP3    H218064   0.428   3.987   4.868  0.4735  1.3171 -0.3055
 6020TIP3   OH218065   4.116   0.199   1.750  0.3427 -0.3040 -0.1552
 6020TIP3    H118066   4.168   0.186   1.830 -0.3120 -0.1506  0.3062
 6020TIP3    H218067   4.033   0.156   1.769 -0.6865  1.7106  0.1649
 6021TIP3   OH218068   1.512   4.345   3.182 -0.1979  0.0794  0.6461
 6021TIP3    H118069   1.519   4.372   3.274 -1.9673  2.6135  0.1468
 6021TIP3    H218070   1.582   4.392   3.138  0.0274 -0.3533  0.5421
 6022TIP3   OH218071   4.632   3.803   2.936  0.7088  0.1958 -0.3200
 6022TIP3    H118072   4.541   3.815   2.962 -0.0234 -2.9527 -1.0739
 6022TIP3    H218073   4.662   3.892   2.915 -2.3563  1.2710 -0.7121
 6023TIP3   OH218074   2.887   4.146   4.560  0.1421  0.8805  0.0510
 6023TIP3    H118075   2.852   4.208   4.497 -0.1216 -0.5593 -1.2808
 6023TIP3    H218076   2.869   4.185   4.646 -0.9995  2.0912 -0.7125
 6024TIP3   OH218077   3.127   3.645   4.785 -0.3041 -0.1291 -0.5843
 6024TIP3    H118078   3.063   3.713   4.765 -0.5017 -0.1880 -0.1590
 6024TIP3    H218079   3.191   3.651   4.714  0.3146  1.2865  0.0547
 6025TIP3   OH218080   3.011   1.908   2.302 -0.2290  0.1473  0.6290
 6025TIP3    H118081   2.926   1.870   2.325  0.0476 -0.0456  1.3389
 6025TIP3    H218082   3.073   1.836   2.310 -0.0715  0.1439 -0.4446
 6026TIP3   OH218083   0.699   2.138   3.685 -0.4732  0.2772 -0.0775
 6026TIP3    H118084   0.634   2.185   3.738  0.5116 -0.6834  2.1143
 6026TIP3    H218085   0.726   2.202   3.618 -2.4162  1.2479 -0.0026
 6027TIP3   OH218086   0.345   0.903   4.290  0.0262 -0.7149 -0.5295
 6027TIP3    H118087   0.287   0.836   4.326 -2.9844  0.8293 -2.1243
 6027TIP3    H218088   0.363   0.961   4.364 -0.8977 -0.9602 -0.0943
 6028TIP3   OH218089   2.083   3.836   1.869 -0.4188 -0.2917  0.2838
 6028TIP3    H118090   2.146   3.764   1.874 -0.7316 -0.5798  0.0033
 6028TIP3    H218091   2.005   3.803   1.913 -0.2508  0.2102  0.9979
 6029TIP3   OH218092   2.392   4.659   2.252 -0.3518 -0.5586  0.5088
 6029TIP3    H118093   2.388   4.729   2.318 -0.5028 -1.8962  1.9656
 6029TIP3    H218094   2.303   4.624   2.249 -0.4514 -0.2687 -0.7351
 6030TIP3   OH218095   3.656   1.220   2.638  0.0762 -0.0033  0.4889
 6030TIP3    H118096   3.600   1.247   2.565  1.2595  0.3433 -0.3241
 6030TIP3    H218097   3.596   1.187   2.704 -0.9315 -2.3362 -1.4620
 6031TIP3   OH218098   5.901   5.614   2.169 -0.0738  0.6246 -0.2255
 6031TIP3    H118099   5.843   5.690   2.159 -0.2150  0.4088 -1.0944
 6031TIP3    H218100   5.850   5.552   2.222 -0.7670  0.3197 -1.2164
 6032TIP3   OH218101   5.239   3.582   3.619  0.4866  0.4561 -0.1253
 6032TIP3    H118102   5.298   3.544   3.684  0.8416  0.8038 -0.2382
 6032TIP3    H218103   5.294   3.643   3.570  0.1346  0.4580 -0.5190
 6033TIP3   OH218104   6.057   5.496   1.959 -0.0218 -0.1105  0.3131
 6033TIP3    H118105   6.007   5.436   1.905 -1.0192 -1.4427  2.5672
 6033TIP3    H218106   5.990   5.548   2.004  0.8053  2.2717 -1.0214
 6034TIP3   OH218107   1.630   4.571   2.755 -0.1735 -0.9147 -0.0552
 6034TIP3    H118108   1.576   4.631   2.703 -0.4288 -0.4470  0.7372
 6034TIP3    H218109   1.714   4.617   2.763  0.0541 -1.2396 -0.5209
 6035TIP3   OH218110   4.398   2.014   2.375 -0.3011 -0.6037 -0.2486
 6035TIP3    H118111   4.423   2.021   2.467 -1.6946 -0.3377  0.1301
 6035TIP3    H218112   4.417   1.923   2.352 -0.8993 -0.9526  0.6019
 6036TIP3   OH218113   2.951   5.500   1.640 -0.1023 -0.3109  0.1605
 6036TIP3    H118114   2.953   5.529   1.731  2.5907  1.4983 -0.3468
 6036TIP3    H218115   2.869   5.534   1.606 -1.6568 -1.8864  2.0965
 6037TIP3   OH218116   1.322   5.792   0.660 -0.0647 -0.1775 -0.2158
 6037TIP3    H118117   1.280   5.729   0.719  0.2389  0.4701  0.7138
 6037TIP3    H218118   1.387   5.836   0.715  0.1212  0.5491 -1.0059
 6038TIP3   OH218119   5.006   5.045   1.635  0.1403 -0.1525  0.2283
 6038TIP3    H118120   4.987   4.998   1.554  1.7738  0.2089 -0.4108
 6038TIP3    H218121   4.935   5.022   1.694  0.1312 -2.2758 -0.5418
 6039TIP3   OH218122   6.200   0.455   3.316 -0.2942 -0.1575 -0.5011
 6039TIP3    H118123   6.174   0.362   3.322 -0.0748 -0.1553  0.6043
 6039TIP3    H218124   6.246   0.472   3.397  1.7865  0.2965 -1.7171
 6040TIP3   OH218125   5.584   4.216   1.075  0.4088  0.0326  0.1225
 6040TIP3    H118126   5.609   4.177   1.159 -0.4727  1.0392  0.8813
 6040TIP3    H218127   5.659   4.270   1.050 -0.2106  1.6051  1.4766
 6041TIP3   OH218128   5.288   0.260   3.911  0.3355 -0.5053  0.0879
 6041TIP3    H118129   5.228   0.192   3.878  0.6116 -0.6645 -0.0834
 6041TIP3    H218130   5.277   0.333   3.851 -1.0682  0.1819  1.1032
 6042TIP3   OH218131   2.564   0.784   2.090 -0.1480  0.0057  0.0148
 6042TIP3    H118132   2.545   0.734   2.011 -1.3219 -0.0300  0.2977
 6042TIP3    H218133   2.624   0.853   2.061 -0.4614 -0.0881 -0.8832
 6043TIP3   OH218134   2.084   0.063   5.118  0.0844 -0.5817  0.5572
 6043TIP3    H118135   2.073   0.147   5.073 -0.8146 -0.4053  1.0602
 6043TIP3    H218136   2.106   0.088   5.208  0.0756 -0.8918  0.6449
 6044TIP3   OH218137   1.421   0.614   0.501 -0.0556 -0.1939  0.7999
 6044TIP3    H118138   1.482   0.616   0.427  0.8532 -0.4550  1.5278
 6044TIP3    H218139   1.461   0.670   0.567 -0.9308  0.1498  1.0508
 6045TIP3   OH218140   3.117   5.709   0.928 -0.0066 -0.5689  0.4255
 6045TIP3    H118141   3.048   5.736   0.867  1.6691 -0.5755 -1.6045
 6045TIP3    H218142   3.149   5.626   0.892  0.3011 -1.1563  1.9938
 6046TIP3   OH218143   3.821   5.271   5.005  0.0594  0.2846 -0.1194
 6046TIP3    H118144   3.837   5.350   4.953  1.6840  0.6556  0.8658
 6046TIP3    H218145   3.774   5.302   5.083 -1.5190 -0.1302 -0.8574
 6047TIP3   OH218146   4.155   2.347   3.797 -0.2768 -0.2817  0.3357
 6047TIP3    H118147   4.152   2.307   3.710  0.4212 -0.0345  0.1928
 6047TIP3    H218148   4.069   2.388   3.807  0.1958  1.1341 -0.9397
 6048TIP3   OH218149   4.536   3.283   4.171  0.3436 -0.1534 -0.6141
 6048TIP3    H118150   4.443   3.307   4.171  1.0075  3.0651 -2.1198
 6048TIP3    H218151   4.575   3.338   4.239  1.3182 -0.5553 -0.8292
 6049TIP3   OH218152   0.034   3.570   0.761 -0.0935  0.6819 -0.5370
 6049TIP3    H118153   0.086   3.502   0.719  0.3973  1.6309 -1.5341
 6049TIP3    H218154  -0.022   3.524   0.823  0.4459 -0.5779 -0.9665
 6050TIP3   OH218155   1.942   3.497   1.067 -0.3689 -0.5286  0.1688
 6050TIP3    H118156   1.860   3.495   1.116 -0.5066 -1.0538 -0.0771
 6050TIP3    H218157   1.916   3.492   0.975 -0.1040  0.3117  0.0379
 6051TIP3   OH218158   3.878   1.862   2.116  0.0502 -0.3846  0.2041
 6051TIP3    H118159   3.868   1.784   2.170  1.3338 -1.2573 -0.7502
 6051TIP3    H218160   3.968   1.891   2.132 -0.6002  1.2828  1.0109
 6052TIP3   OH218161   3.373   5.868   3.345 -0.2902  0.2076 -0.2577
 6052TIP3    H118162   3.296   5.886   3.400  1.0697  0.3513  1.7031
 6052TIP3    H218163   3.392   5.776   3.361  0.1162  0.2511 -0.4906
 6053TIP3   OH218164   4.862   1.323   3.133  0.3790  0.0933 -0.3016
 6053TIP3    H118165   4.866   1.266   3.056  1.4568  0.4649 -0.5436
 6053TIP3    H218166   4.807   1.396   3.106 -0.1907 -0.3470 -0.3287
 6054TIP3   OH218167   2.227   3.967   3.421 -0.2201  0.2750 -0.3352
 6054TIP3    H118168   2.184   3.971   3.336  1.5203 -0.6408 -1.3105
 6054TIP3    H218169   2.238   3.873   3.438 -0.1844  0.4534  0.7144
 6055TIP3   OH218170   1.813   5.160   3.087  0.1294 -0.1346 -0.1718
 6055TIP3    H118171   1.841   5.229   3.028  0.7308  0.1814  0.4683
 6055TIP3    H218172   1.802   5.203   3.172  1.1460 -0.9179  0.3893
 6056TIP3   OH218173   4.843   5.897   2.718  0.6921  0.5828 -0.6982
 6056TIP3    H118174   4.812   5.972   2.768 -0.5531  0.3839 -1.1499
 6056TIP3    H218175   4.771   5.875   2.658  1.2990 -0.5323 -1.0651
 6057TIP3   OH218176   5.540   0.576   2.126 -0.0110 -0.3645  0.3818
 6057TIP3    H118177   5.584   0.625   2.196 -1.0881  0.1013  0.7425
 6057TIP3    H218178   5.576   0.487   2.133  0.1603 -0.2288  1.2965
 6058TIP3   OH218179   2.567   5.848   2.503  0.1912  0.5869 -0.4584
 6058TIP3    H118180   2.611   5.828   2.421  1.2726  0.2740  0.1846
 6058TIP3    H218181   2.493   5.788   2.506  2.2003 -2.0189  0.4734
 6059TIP3   OH218182   2.995   2.130   3.310 -0.1037 -0.1488  0.4460
 6059TIP3    H118183   3.081   2.124   3.353 -0.0340  0.0121  0.3269
 6059TIP3    H218184   2.998   2.211   3.260 -1.0123  0.8515  1.9332
 6060TIP3   OH218185   5.052   0.920   0.084 -0.1971 -0.0480  0.4418
 6060TIP3    H118186   5.083   0.891  -0.002 -0.4078 -1.8677  0.9307
 6060TIP3    H218187   5.060   0.842   0.140  1.4896  1.4564  2.5215
 6061TIP3   OH218188   5.428   0.147   2.022 -0.3079  0.3189 -0.0198
 6061TIP3    H118189   5.458   0.230   1.983  1.1527 -0.4700 -0.6504
 6061TIP3    H218190   5.452   0.154   2.114  0.3476  0.3652 -0.1909
 6062TIP3   OH218191   3.348   1.924   2.135  0.3991 -0.2086 -0.4358
 6062TIP3    H118192   3.428   1.974   2.145 -0.5516  1.1827  0.5051
 6062TIP3    H218193   3.283   1.987   2.105 -0.2527 -1.4156 -1.7142
 6063TIP3   OH218194   5.128   4.679   3.393 -0.0416 -0.2108 -0.2237
 6063TIP3    H118195   5.203   4.619   3.384  0.4556  0.5236 -1.1595
 6063TIP3    H218196   5.158   4.747   3.453 -0.2787 -0.3984  0.1084
 6064TIP3   OH218197   1.466   2.443   5.139 -0.1721 -0.3268 -0.0676
 6064TIP3    H118198   1.396   2.442   5.204 -1.0128 -0.1712 -0.9404
 6064TIP3    H218199   1.457   2.528   5.096  0.2129 -0.5254 -0.5445
 6065TIP3   OH218200   6.049   4.619   1.270 -0.7058 -0.1912  0.1219
 6065TIP3    H118201   5.984   4.637   1.339 -0.7662  0.3722 -0.0712
 6065TIP3    H218202   6.004   4.643   1.189 -0.4517 -0.3473 -0.0639
 6066TIP3   OH218203   0.402   0.859   4.045  0.1752 -0.0490 -0.1242
 6066TIP3    H118204   0.380   0.863   4.138  0.8064 -2.1356  0.1582
 6066TIP3    H218205   0.473   0.923   4.035 -0.0336  0.3426  0.7664
 6067TIP3   OH218206   2.268   5.512   0.472  0.2556 -0.7922  0.1901
 6067TIP3    H118207   2.218   5.594   0.463 -2.3827 -2.3789 -0.9225
 6067TIP3    H218208   2.282   5.503   0.567  0.7266  0.9774  0.3228
 6068TIP3   OH218209   0.737   0.661   3.712  0.2145 -0.0661  0.0636
 6068TIP3    H118210   0.720   0.751   3.683 -1.6270 -0.6861 -0.9458
 6068TIP3    H218211   0.768   0.616   3.633  0.7177 -0.4395  0.4612
 6069TIP3   OH218212   2.213   2.498   0.137  0.2571  0.1992  0.0881
 6069TIP3    H118213   2.205   2.474   0.229  2.1799  2.0205  0.8146
 6069TIP3    H218214   2.191   2.591   0.134 -0.7055 -0.0436 -1.4931
 6070TIP3   OH218215   4.989   1.899   0.026  0.0095 -0.4273  0.1131
 6070TIP3    H118216   5.071   1.886   0.074  0.0078 -0.1567  0.1894
 6070TIP3    H218217   4.999   1.845  -0.053  0.0999 -0.7060  0.3104
 6071TIP3   OH218218   2.727   4.603   1.275 -0.2394  0.1211  0.4300
 6071TIP3    H118219   2.705   4.617   1.183 -0.8023  0.1129  0.5562
 6071TIP3    H218220   2.648   4.631   1.322 -0.4594 -1.1048  0.8313
 6072TIP3   OH218221   1.025   0.807   3.233  0.1244  0.4836 -0.2053
 6072TIP3    H118222   1.056   0.760   3.156  0.9161  0.8650 -0.1310
 6072TIP3    H218223   1.103   0.851   3.267 -0.5276  1.6252 -0.1191
 6073TIP3   OH218224   5.813   0.927   2.478  0.3831 -0.1337 -0.3110
 6073TIP3    H118225   5.867   0.969   2.411 -1.0018 -0.3268 -1.6184
 6073TIP3    H218226   5.748   0.993   2.501  0.7940 -0.0994  0.8268
 6074TIP3   OH218227   2.627   1.773   3.113 -0.2059 -0.2039  0.7450
 6074TIP3    H118228   2.702   1.726   3.150 -0.1454 -0.4686  0.2985
 6074TIP3    H218229   2.585   1.709   3.055  1.2118  0.9445 -1.7240
 6075TIP3   OH218230   1.192   5.523   5.035  0.1997  0.3251  0.0270
 6075TIP3    H118231   1.272   5.575   5.025  0.1115  0.9909  2.2251
 6075TIP3    H218232   1.121   5.586   5.035  0.0084  0.1592  1.6812
 6076TIP3   OH218233   4.429   2.955   5.126  0.0102  0.0658 -0.6041
 6076TIP3    H118234   4.334   2.945   5.129  0.0362 -0.2350 -0.7968
 6076TIP3    H218235   4.442   3.044   5.093 -0.2027  0.1084 -0.5767
 6077TIP3   OH218236   0.389   1.367   3.953 -0.2241 -0.2636  0.0875
 6077TIP3    H118237   0.309   1.399   3.996 -0.7295 -1.1827 -0.1530
 6077TIP3    H218238   0.371   1.275   3.934 -0.1429  0.1759 -2.4040
 6078TIP3   OH218239   1.255   3.433   4.724 -0.0400  0.3496  0.3445
 6078TIP3    H118240   1.291   3.476   4.802 -0.1341 -1.6847  1.5767
 6078TIP3    H218241   1.331   3.398   4.679 -0.1438 -0.4509  0.7745
 6079TIP3   OH218242   2.576   4.953   5.154 -0.8351  0.1180  0.1339
 6079TIP3    H118243   2.520   4.896   5.102 -2.0065  0.6443  0.7611
 6079TIP3    H218244   2.633   4.894   5.203 -0.9353 -0.4326 -0.4011
 6080TIP3   OH218245   3.853   4.383   4.936  0.2901 -0.0586  0.8416
 6080TIP3    H118246   3.905   4.417   5.008 -1.8237  1.7323  1.6615
 6080TIP3    H218247   3.774   4.438   4.936 -0.7898 -1.4610 -1.4196
 6081TIP3   OH218248   4.820   1.677   0.817 -0.0667  0.2897 -0.6630
 6081TIP3    H118249   4.847   1.587   0.836  0.1139  0.3697 -0.5355
 6081TIP3    H218250   4.729   1.682   0.847  0.1803  0.3823  0.1014
 6082TIP3   OH218251   0.685   4.456   0.047 -0.0614  0.2198 -0.3904
 6082TIP3    H118252   0.619   4.386   0.048  1.1137 -0.9614 -1.4576
 6082TIP3    H218253   0.768   4.411   0.064  0.5563  1.5987  0.4167
 6083TIP3   OH218254   1.614   5.027   1.745 -0.4325  0.0432 -0.1687
 6083TIP3    H118255   1.626   5.096   1.810 -1.5821  2.1114 -2.0460
 6083TIP3    H218256   1.696   5.026   1.695  0.3337 -1.3457  1.0164
 6084TIP3   OH218257   5.722   1.005   1.555  0.1900  0.7234  0.4172
 6084TIP3    H118258   5.812   0.974   1.562  0.3889  1.3729  0.7942
 6084TIP3    H218259   5.681   0.946   1.492  1.0140  0.7222 -0.1298
 6085TIP3   OH218260   5.536   0.049   4.905  0.0698  0.1097 -0.0258
 6085TIP3    H118261   5.563   0.120   4.964 -0.0685  0.7262 -0.6950
 6085TIP3    H218262   5.460   0.084   4.859  1.4718  0.5012 -2.1669
 6086TIP3   OH218263   2.976   3.849   2.628 -0.1208 -0.8609 -0.1561
 6086TIP3    H118264   3.033   3.778   2.657  0.7860  0.3306  1.0800
 6086TIP3    H218265   2.890   3.807   2.617  0.6754 -2.3983 -0.7330
 6087TIP3   OH218266   0.449   5.487   2.271 -0.2033 -0.0988 -0.2407
 6087TIP3    H118267   0.540   5.462   2.288 -0.5946 -1.2592  0.1968
 6087TIP3    H218268   0.455   5.580   2.247  0.8584  0.4826  1.9609
 6088TIP3   OH218269   3.921   5.052   3.375 -0.0476 -0.5787 -0.5843
 6088TIP3    H118270   3.912   5.011   3.289 -0.4246  0.0968 -0.8793
 6088TIP3    H218271   3.972   4.990   3.426  0.7709 -0.6930 -1.5017
 6089TIP3   OH218272   1.280   2.091   3.641 -0.3004 -0.4731  0.3581
 6089TIP3    H118273   1.324   2.164   3.596  0.5158 -1.0583  0.1762
 6089TIP3    H218274   1.219   2.133   3.701  0.5378  0.3853  0.6439
 6090TIP3   OH218275   4.756   3.092   3.164  0.2347 -0.1858 -0.4570
 6090TIP3    H118276   4.671   3.070   3.125  0.5191 -1.4673 -0.3887
 6090TIP3    H218277   4.819   3.040   3.115  1.1385  1.5231 -1.1947
 6091TIP3   OH218278   5.007   1.748   1.878  0.1411  0.2735  0.3194
 6091TIP3    H118279   5.055   1.736   1.796  0.8486  1.3869  0.5496
 6091TIP3    H218280   5.075   1.761   1.944 -0.4438  1.7655  0.6694
 6092TIP3   OH218281   4.969   1.237   3.554 -0.1920  0.0719  0.2318
 6092TIP3    H118282   5.061   1.209   3.549 -0.4970 -0.9820  0.3464
 6092TIP3    H218283   4.928   1.175   3.615 -1.5525 -1.1112 -1.7666
 6093TIP3   OH218284   6.355   2.018   3.895  0.3956  0.3511 -0.1719
 6093TIP3    H118285   6.427   2.035   3.834  0.3502 -0.0318 -0.3339
 6093TIP3    H218286   6.276   2.042   3.845  0.4558  1.5870  0.2963
 6094TIP3   OH218287   4.570   4.607   1.882 -0.3040 -0.1320  0.5476
 6094TIP3    H118288   4.481   4.582   1.858  0.1526 -0.7047 -0.6240
 6094TIP3    H218289   4.593   4.548   1.954 -1.0464  0.3680  1.2054
 6095TIP3   OH218290   2.917   4.639   0.561  0.0529 -0.0021 -0.1477
 6095TIP3    H118291   2.834   4.595   0.544 -0.1780  0.2592  0.2689
 6095TIP3    H218292   2.897   4.732   0.552  0.2264  0.0771  0.2300
 6096TIP3   OH218293   5.543   1.528   3.557 -0.2907 -0.2739  0.6344
 6096TIP3    H118294   5.634   1.558   3.559 -0.2063 -0.2511 -1.3304
 6096TIP3    H218295   5.493   1.605   3.531 -1.1004  0.0709  3.0003
 6097TIP3   OH218296   2.741   0.842   0.041 -0.2294 -0.4781  0.1960
 6097TIP3    H118297   2.672   0.799   0.093  0.5211  0.6273  2.1900
 6097TIP3    H218298   2.693   0.897  -0.021 -1.1631 -2.5691 -1.0411
 6098TIP3   OH218299   4.637   3.341   1.213 -0.1807  0.2836  0.4116
 6098TIP3    H118300   4.631   3.289   1.294 -1.2075  0.5685  0.5326
 6098TIP3    H218301   4.634   3.276   1.143  1.3047 -0.0168  0.5804
 6099TIP3   OH218302   1.185   4.288   0.346  0.1713 -0.2386 -0.3605
 6099TIP3    H118303   1.176   4.282   0.251 -0.9894 -0.5577 -0.2491
 6099TIP3    H218304   1.273   4.257   0.364  0.9895  1.2895 -1.4583
 6100TIP3   OH218305   4.835   2.245   0.265 -0.0863 -0.0098 -0.2226
 6100TIP3    H118306   4.896   2.232   0.192 -1.5373 -0.7946 -1.3626
 6100TIP3    H218307   4.811   2.338   0.260 -0.6748 -0.1902 -1.2090
 6101TIP3   OH218308   0.531   5.327   3.730 -0.3525 -0.2828 -0.2936
 6101TIP3    H118309   0.508   5.258   3.667 -0.3354  0.8654 -1.6165
 6101TIP3    H218310   0.472   5.399   3.709  0.7032  0.6891 -0.0424
 6102TIP3   OH218311   5.828   3.653   1.089  0.3041  0.2040 -0.2366
 6102TIP3    H118312   5.828   3.668   1.184 -1.8281 -0.1684 -0.1131
 6102TIP3    H218313   5.896   3.711   1.056 -0.2221  1.8534  1.3464
 6103TIP3   OH218314   4.207   1.245   2.648  0.1368 -0.5064 -0.4274
 6103TIP3    H118315   4.153   1.298   2.590  0.1700  1.2916  1.1103
 6103TIP3    H218316   4.145   1.200   2.705  0.1283  1.4136  1.2129
 6104TIP3   OH218317   5.663   3.107   1.412  0.2408  0.1060  0.2328
 6104TIP3    H118318   5.648   3.184   1.467 -0.6454  0.7845 -0.9223
 6104TIP3    H218319   5.736   3.062   1.454  0.7918  1.5772  0.9225
 6105TIP3   OH218320   5.124   4.343   2.030 -0.4600 -0.3607 -0.5324
 6105TIP3    H118321   5.075   4.410   2.079  1.5986  0.2716  0.8126
 6105TIP3    H218322   5.134   4.271   2.092  2.4543  0.5697  0.2659
 6106TIP3   OH218323   3.500   0.421   0.555  0.6078  0.2722  0.0106
 6106TIP3    H118324   3.565   0.351   0.554  0.9060  0.4604  2.4322
 6106TIP3    H218325   3.423   0.382   0.596 -0.3581  0.4854 -1.5051
 6107TIP3   OH218326   3.719   3.084   3.931 -0.1947  0.2845  0.4755
 6107TIP3    H118327   3.794   3.144   3.927  0.0154 -0.0148 -0.6133
 6107TIP3    H218328   3.739   3.025   4.003 -0.2742  1.3391  1.3944
 6108TIP3   OH218329   2.940   5.902   3.652  0.6158 -0.9822 -0.6737
 6108TIP3    H118330   2.893   5.907   3.568  0.0960  1.7185 -0.3316
 6108TIP3    H218331   2.888   5.841   3.704 -2.2347  1.2771 -0.5868
 6109TIP3   OH218332   6.182   4.737   0.812 -0.5355 -0.5188 -0.3970
 6109TIP3    H118333   6.209   4.802   0.747 -0.4498  0.2497  0.3742
 6109TIP3    H218334   6.264   4.701   0.846 -0.5702 -0.7035 -0.5107
 6110TIP3   OH218335   6.210   2.362   1.049 -1.0532  0.4312  0.0454
 6110TIP3    H118336   6.274   2.326   1.111  2.3529  0.4591 -3.0684
 6110TIP3    H218337   6.160   2.426   1.100 -1.2352 -2.2242  3.5747
 6111TIP3   OH218338   6.099   1.225   3.667 -0.0332 -0.1800  0.9500
 6111TIP3    H118339   6.010   1.260   3.675 -1.0107 -2.1438 -0.3963
 6111TIP3    H218340   6.128   1.252   3.580  0.1942 -0.5948  0.8946
 6112TIP3   OH218341   4.573   3.321   3.083 -0.2261  0.4979 -0.4713
 6112TIP3    H118342   4.630   3.304   3.158 -0.8950  1.4558  0.2795
 6112TIP3    H218343   4.536   3.236   3.062  0.9195 -0.0126 -0.5235
 6113TIP3   OH218344   5.217   0.652   2.426 -0.4581 -0.4016 -0.0718
 6113TIP3    H118345   5.166   0.621   2.501  0.2634 -1.4704  0.0068
 6113TIP3    H218346   5.237   0.744   2.446  0.1123 -0.7926  1.2891
 6114TIP3   OH218347   3.973   3.639   2.876  1.0383  0.1073 -0.2112
 6114TIP3    H118348   3.929   3.716   2.912  0.7941 -0.2616  0.2952
 6114TIP3    H218349   4.037   3.674   2.814 -0.3125  0.6274 -1.3473
 6115TIP3   OH218350   5.414   5.148   2.646 -0.0396  0.4764  0.0866
 6115TIP3    H118351   5.500   5.159   2.686  0.3282  1.8871 -1.0012
 6115TIP3    H218352   5.352   5.165   2.718  0.6038  0.9832  0.5355
 6116TIP3   OH218353   5.669   3.694   4.743  0.4579  0.3118  0.1970
 6116TIP3    H118354   5.633   3.736   4.821  1.3283  3.1651 -0.8261
 6116TIP3    H218355   5.596   3.693   4.681  0.9451  2.4322 -0.5028
 6117TIP3   OH218356   0.984   5.703   5.030  0.0375 -0.2227 -0.9962
 6117TIP3    H118357   0.987   5.790   5.069  0.5779  0.0261 -1.5828
 6117TIP3    H218358   1.006   5.717   4.937  1.2722 -1.1104 -0.8656
 6118TIP3   OH218359   1.644   3.988   1.164  0.2027  0.2817 -0.6571
 6118TIP3    H118360   1.611   3.917   1.219  1.4206  0.5669  0.5004
 6118TIP3    H218361   1.735   3.964   1.147  0.3506  1.1001 -1.0403
 6119TIP3   OH218362   2.975   1.044   3.555 -0.9467 -0.2528 -0.6249
 6119TIP3    H118363   3.065   1.074   3.541 -1.0134 -0.4687 -1.5626
 6119TIP3    H218364   2.948   1.010   3.470 -1.8901 -0.2659 -0.3257
 6120TIP3   OH218365   5.192   3.954   3.285  0.4539 -0.0341 -0.1059
 6120TIP3    H118366   5.269   3.944   3.230 -0.4799 -1.2297 -1.2556
 6120TIP3    H218367   5.137   3.879   3.264 -1.1889  0.9576  0.4158
 6121TIP3   OH218368   5.772   0.779   0.128  0.8463 -0.5199  0.3505
 6121TIP3    H118369   5.709   0.710   0.146 -0.5115  1.0290  1.9177
 6121TIP3    H218370   5.825   0.785   0.208  2.3663 -1.1407 -0.5773
 6122TIP3   OH218371   1.939   2.819   4.250 -0.3254 -0.4230  0.3870
 6122TIP3    H118372   1.993   2.868   4.313 -0.3036  0.6274 -0.4201
 6122TIP3    H218373   1.857   2.804   4.297 -1.0257  1.9858  0.0924
 6123TIP3   OH218374   4.550   1.057   3.999 -1.1067  0.4586  0.6458
 6123TIP3    H118375   4.628   1.112   4.002 -1.1548  0.5617  0.1625
 6123TIP3    H218376   4.516   1.069   3.910 -0.2269 -1.5590 -0.0296
 6124TIP3   OH218377   5.671   5.003   4.076  0.1175 -0.0744  0.4233
 6124TIP3    H118378   5.761   4.999   4.109  0.3161  0.4494 -0.0423
 6124TIP3    H218379   5.616   4.998   4.155  0.5813  0.8786  0.8097
 6125TIP3   OH218380   4.621   4.525   0.499 -0.7338 -0.2547 -0.5460
 6125TIP3    H118381   4.710   4.518   0.467 -0.4869  0.2333 -0.0038
 6125TIP3    H218382   4.626   4.496   0.590 -0.7778  1.3070  0.0006
 6126TIP3   OH218383   1.314   5.288   3.439 -0.2744 -0.1419 -0.3855
 6126TIP3    H118384   1.244   5.223   3.442  1.9358 -2.6910 -0.4551
 6126TIP3    H218385   1.347   5.291   3.529 -1.2702  2.0782 -0.0346
 6127TIP3   OH218386   5.499   3.239   0.582 -0.7073  0.1112  0.0317
 6127TIP3    H118387   5.551   3.263   0.659 -0.2961  0.0154 -0.2091
 6127TIP3    H218388   5.435   3.176   0.614  0.1791 -0.7767  0.0909
 6128TIP3   OH218389   6.158   3.671   1.890 -0.0740  0.0808  0.8215
 6128TIP3    H118390   6.187   3.590   1.849 -1.2561 -1.3328  2.5975
 6128TIP3    H218391   6.237   3.706   1.932  0.8424  0.8696 -1.4177
 6129TIP3   OH218392   3.123   1.666   3.204 -0.0353  0.3267  0.5447
 6129TIP3    H118393   3.160   1.749   3.233 -0.6329  0.1386  1.9306
 6129TIP3    H218394   3.092   1.624   3.285 -1.1623 -0.5332 -0.2963
 6130TIP3   OH218395   6.282   5.673   1.868  0.0872  0.3839 -0.0444
 6130TIP3    H118396   6.305   5.609   1.801  1.2001 -0.1709  0.8468
 6130TIP3    H218397   6.219   5.627   1.925  0.3087  0.3359  0.1626
 6131TIP3   OH218398   4.820   5.657   2.920 -0.1141 -0.1781 -0.4216
 6131TIP3    H118399   4.840   5.725   2.855 -1.4632  0.1359 -0.5472
 6131TIP3    H218400   4.892   5.594   2.912 -0.2334 -0.1418 -2.2094
 6132TIP3   OH218401   1.268   2.397   1.988  0.8861 -0.7685 -0.1248
 6132TIP3    H118402   1.272   2.305   1.963  2.7785 -1.1718  1.4298
 6132TIP3    H218403   1.228   2.397   2.075 -0.2133  0.0111 -0.6163
 6133TIP3   OH218404   4.068   3.637   4.012  0.1379  0.1885  0.2825
 6133TIP3    H118405   4.091   3.628   3.919 -0.5456 -0.6272  0.1749
 6133TIP3    H218406   4.098   3.725   4.036 -2.1922  1.5868 -1.4718
 6134TIP3   OH218407   1.491   1.911   2.088 -1.1717 -0.0607  0.1213
 6134TIP3    H118408   1.458   1.821   2.082  1.4983 -1.1057 -0.3972
 6134TIP3    H218409   1.485   1.933   2.180 -1.0415 -1.1422  0.4061
 6135TIP3   OH218410   1.881   2.768   0.740  0.3121  0.1403  0.3952
 6135TIP3    H118411   1.920   2.706   0.679 -1.0032  0.3626 -0.7154
 6135TIP3    H218412   1.917   2.853   0.714  1.1326  0.0251  1.1048
 6136TIP3   OH218413   4.106   3.434   2.348 -0.4303  0.5553  0.5152
 6136TIP3    H118414   4.027   3.475   2.384 -1.1189  0.1723 -0.4742
 6136TIP3    H218415   4.110   3.349   2.391  0.3985  1.2038  1.7830
 6137TIP3   OH218416   3.612   4.644   3.807  0.1847  0.7425 -0.6058
 6137TIP3    H118417   3.524   4.606   3.808  0.9811 -1.1938  0.7314
 6137TIP3    H218418   3.653   4.608   3.728  0.6498 -0.6036  0.2103
 6138TIP3   OH218419   4.359   1.065   4.517 -0.0875 -0.0696  0.0808
 6138TIP3    H118420   4.406   1.094   4.439 -0.1957  0.2311  0.1283
 6138TIP3    H218421   4.267   1.075   4.496 -0.1442  2.6731  1.2017
 6139TIP3   OH218422   1.751   4.287   2.186  0.2705 -0.0387 -0.1804
 6139TIP3    H118423   1.815   4.230   2.144  0.3759 -0.2433  0.2604
 6139TIP3    H218424   1.752   4.366   2.132  1.0754  0.0582 -0.0445
 6140TIP3   OH218425   4.211   5.395   0.813 -0.2173  0.1527  0.5810
 6140TIP3    H118426   4.229   5.439   0.896 -0.0720  2.7706 -0.7406
 6140TIP3    H218427   4.265   5.440   0.749 -0.3826 -1.7390 -1.0007
 6141TIP3   OH218428   2.384   3.696   1.140 -0.6293  0.2225 -0.3720
 6141TIP3    H118429   2.296   3.677   1.174 -0.5982 -0.7730 -0.8179
 6141TIP3    H218430   2.431   3.613   1.148  0.4071  0.8432  0.2285
 6142TIP3   OH218431   1.217   2.147   5.166  0.2706 -0.5100 -0.1486
 6142TIP3    H118432   1.141   2.117   5.215  1.7234 -3.5162  0.4762
 6142TIP3    H218433   1.232   2.079   5.100  0.2135  1.9253 -2.8646
 6143TIP3   OH218434   4.913   0.444   1.383 -0.6461  1.0130 -0.7658
 6143TIP3    H118435   4.885   0.534   1.365  0.6851  1.7868  0.7360
 6143TIP3    H218436   4.897   0.433   1.477  1.2513  0.4662 -0.4740
 6144TIP3   OH218437   5.665   5.569   3.122  0.8822 -0.6432 -0.3916
 6144TIP3    H118438   5.579   5.537   3.147 -0.0122  0.8205 -1.4653
 6144TIP3    H218439   5.674   5.652   3.167  0.0249  1.1236 -3.2253
 6145TIP3   OH218440   5.070   0.442   1.965  0.5746 -0.0069  0.1718
 6145TIP3    H118441   5.116   0.526   1.954  1.2371 -0.2747  0.7900
 6145TIP3    H218442   5.034   0.423   1.879  2.1968 -0.1136 -0.5296
 6146TIP3   OH218443   4.950   4.006   3.587  0.3683 -0.4230  0.3904
 6146TIP3    H118444   5.042   3.984   3.601  0.8962  0.9510 -0.6646
 6146TIP3    H218445   4.919   3.942   3.523  0.1529 -1.7807  1.7952
 6147TIP3   OH218446   1.495   0.704   0.906  0.2778  0.1732  0.1953
 6147TIP3    H118447   1.554   0.644   0.951  0.1076  0.1815  0.4303
 6147TIP3    H218448   1.491   0.781   0.964 -2.3193 -0.9943  1.7209
 6148TIP3   OH218449   1.172   0.460   4.688  0.2611 -0.4342  0.4487
 6148TIP3    H118450   1.131   0.539   4.723  0.9743 -0.6544  1.8655
 6148TIP3    H218451   1.170   0.398   4.761  1.9015 -0.8916  0.1411
 6149TIP3   OH218452   3.972   5.843   4.826  0.3634  0.0836  0.5433
 6149TIP3    H118453   3.902   5.868   4.886  0.2784 -1.7739  1.2508
 6149TIP3    H218454   4.052   5.878   4.866  0.4460 -1.9899  2.3241
 6150TIP3   OH218455   5.143   4.808   4.118 -0.0961 -0.9670 -0.2859
 6150TIP3    H118456   5.062   4.858   4.126  0.7821  0.3346  1.0971
 6150TIP3    H218457   5.123   4.739   4.055 -1.2671  1.3812 -2.6960
 6151TIP3   OH218458   1.064   5.663   3.085 -0.3566 -0.6076  0.0311
 6151TIP3    H118459   1.128   5.622   3.143 -2.8097 -2.6331  1.5202
 6151TIP3    H218460   1.005   5.711   3.144 -0.7435  0.4589 -1.1850
 6152TIP3   OH218461   6.150   3.961   0.889 -0.1873  0.4479 -0.0415
 6152TIP3    H118462   6.133   3.884   0.834  1.6223 -0.3314  0.4083
 6152TIP3    H218463   6.167   4.032   0.827 -1.3747  0.3970 -0.4591
 6153TIP3   OH218464   0.097   2.099   0.883 -0.3371  0.5710  0.5342
 6153TIP3    H118465   0.160   2.078   0.814 -1.7882  2.3179 -1.4620
 6153TIP3    H218466   0.148   2.142   0.951  0.9796 -0.3060  0.1343
 6154TIP3   OH218467   5.481   1.655   2.548  0.1492 -0.0066  0.0366
 6154TIP3    H118468   5.480   1.628   2.640  0.0029  0.3978  0.1549
 6154TIP3    H218469   5.509   1.747   2.551 -1.1482  0.4085 -0.2227
 6155TIP3   OH218470   5.978   4.905   2.649  0.0505  0.5194  0.3716
 6155TIP3    H118471   6.062   4.949   2.641  1.0165 -1.4335 -1.0625
 6155TIP3    H218472   5.930   4.931   2.570  0.5012 -0.6506 -0.3174
 6156TIP3   OH218473   0.615   4.282   1.069  0.6125 -0.0705  0.6103
 6156TIP3    H118474   0.533   4.234   1.083  0.4002 -0.3598 -1.3639
 6156TIP3    H218475   0.683   4.217   1.084  0.4741  0.0245  1.7058
 6157TIP3   OH218476   1.051   4.296   3.354 -0.2764  0.1299  0.1021
 6157TIP3    H118477   1.110   4.296   3.279 -0.6865  1.8661 -0.2707
 6157TIP3    H218478   1.059   4.208   3.391  2.0970  0.1379 -0.2531
 6158TIP3   OH218479   0.673   5.686   4.215 -0.2067  0.2364  0.4959
 6158TIP3    H118480   0.648   5.683   4.307  0.5480  0.6949  0.7271
 6158TIP3    H218481   0.759   5.644   4.212  0.3567  1.3544  0.2281
 6159TIP3   OH218482   3.808   2.272   4.848 -0.2936  0.1355 -0.1990
 6159TIP3    H118483   3.902   2.261   4.862 -0.3511  1.0730  1.1729
 6159TIP3    H218484   3.767   2.219   4.916 -0.7049  0.9305  0.1946
 6160TIP3   OH218485   0.662   0.494   4.973 -0.2351 -0.2536 -0.3777
 6160TIP3    H118486   0.680   0.546   5.051  0.1853  0.0064 -0.6403
 6160TIP3    H218487   0.747   0.454   4.952  0.2223  1.4392 -1.9790
 6161TIP3   OH218488   1.769   2.703   1.003  0.3151 -0.6528  0.5254
 6161TIP3    H118489   1.812   2.776   1.047  0.7061 -1.3774  1.3634
 6161TIP3    H218490   1.801   2.708   0.912  1.5129 -0.6547  0.9258
 6162TIP3   OH218491   4.636   3.953   2.683  0.1074  1.1894 -0.1036
 6162TIP3    H118492   4.704   3.946   2.616 -1.9339 -1.8211 -2.0687
 6162TIP3    H218493   4.560   3.910   2.645 -2.8275  3.8913  2.2046
 6163TIP3   OH218494   5.165   1.933   4.509  0.4221 -0.4659 -0.0562
 6163TIP3    H118495   5.131   2.023   4.508 -0.1602 -0.6615  0.9020
 6163TIP3    H218496   5.170   1.909   4.417 -0.3246  0.2235 -0.2901
 6164TIP3   OH218497   3.989   0.749   0.105  0.4259 -0.1865 -0.7538
 6164TIP3    H118498   3.906   0.778   0.067  0.0054 -0.2227  0.0977
 6164TIP3    H218499   4.043   0.827   0.108 -0.2757  0.2857  0.4388
 6165TIP3   OH218500   5.453   1.423   0.904  0.3629 -0.0325 -0.4089
 6165TIP3    H118501   5.543   1.442   0.931 -0.0533  1.2159  0.1948
 6165TIP3    H218502   5.410   1.393   0.984 -0.0309  0.4618 -0.4266
 6166TIP3   OH218503   3.274   1.393   4.073  0.3583  0.2148  0.2041
 6166TIP3    H118504   3.340   1.462   4.087  0.9973 -0.0166 -1.4851
 6166TIP3    H218505   3.231   1.384   4.158 -0.1672  3.1099  0.3431
 6167TIP3   OH218506   5.935   4.871   4.370  0.0225  0.4488  0.6692
 6167TIP3    H118507   5.929   4.927   4.292  0.6258 -0.9108 -0.3878
 6167TIP3    H218508   6.014   4.901   4.415  0.2504  0.5653  0.1977
 6168TIP3   OH218509   5.775   5.210   1.971  0.4992  0.1063  0.8344
 6168TIP3    H118510   5.712   5.245   1.907  0.4442 -0.1852  0.7283
 6168TIP3    H218511   5.732   5.221   2.055 -0.9771 -2.7240  0.5696
 6169TIP3   OH218512   4.579   3.199   1.495 -1.0451  0.2919 -0.2742
 6169TIP3    H118513   4.597   3.106   1.500 -0.8807  0.2287 -1.6333
 6169TIP3    H218514   4.485   3.204   1.477 -0.9649  0.3623 -0.6912
 6170TIP3   OH218515   4.476   3.923   1.656 -0.2433  0.7805  0.1867
 6170TIP3    H118516   4.479   3.890   1.566 -0.6527 -0.9048  0.7516
 6170TIP3    H218517   4.383   3.936   1.672 -0.5344 -2.0025  1.3514
 6171TIP3   OH218518   5.164   0.861   0.885 -0.0362 -0.0605  0.2223
 6171TIP3    H118519   5.116   0.879   0.804 -1.4745 -1.0828  0.8111
 6171TIP3    H218520   5.256   0.862   0.858 -0.3757  1.2601 -1.0810
 6172TIP3   OH218521   2.757   1.548   1.090  0.2115  0.3646  0.0454
 6172TIP3    H118522   2.687   1.533   1.026  0.7961 -0.0641 -0.5028
 6172TIP3    H218523   2.787   1.637   1.073  0.1265  0.3770 -0.0396
 6173TIP3   OH218524   3.938   1.547   0.933  0.1896  0.7004 -0.6901
 6173TIP3    H118525   3.844   1.531   0.948  0.3964  0.3031  0.2728
 6173TIP3    H218526   3.980   1.463   0.950  1.1745  1.8143  3.4787
 6174TIP3   OH218527   4.499   5.312   3.553 -0.1704 -0.0994  0.9339
 6174TIP3    H118528   4.529   5.322   3.463  0.1115 -0.6058  0.9677
 6174TIP3    H218529   4.407   5.338   3.551 -0.2042 -0.2405  0.4746
 6175TIP3   OH218530   5.580   2.488   1.191  0.0242 -0.8736 -0.1080
 6175TIP3    H118531   5.663   2.530   1.170 -1.2341  1.8207 -0.1111
 6175TIP3    H218532   5.595   2.449   1.277  0.8422  1.1104  0.7311
 6176TIP3   OH218533   5.607   5.129   0.898  0.1320  0.3142  0.1924
 6176TIP3    H118534   5.654   5.198   0.852 -0.4238  0.3390 -0.3536
 6176TIP3    H218535   5.535   5.106   0.840  0.0458 -0.4125  0.5695
 6177TIP3   OH218536   3.956   4.877   0.587 -0.1033  0.1871 -0.0893
 6177TIP3    H118537   3.949   4.972   0.593  1.6691  0.3524 -0.2054
 6177TIP3    H218538   3.909   4.855   0.506  1.5731  1.2687 -1.4224
 6178TIP3   OH218539   3.128   0.826   4.717 -0.7311  0.2238 -0.2454
 6178TIP3    H118540   3.119   0.732   4.735 -1.8004 -0.1909 -2.5916
 6178TIP3    H218541   3.039   0.856   4.701 -0.3677  1.5928  0.1772
 6179TIP3   OH218542   2.013   5.753   2.668  0.4093 -0.1973  0.6768
 6179TIP3    H118543   2.031   5.817   2.599  2.3886 -1.6052 -0.1994
 6179TIP3    H218544   2.074   5.774   2.738 -0.3482  0.0947  1.2738
 6180TIP3   OH218545   1.209   0.939   2.659  0.6338  0.1393 -0.3042
 6180TIP3    H118546   1.247   0.944   2.747  1.8959 -2.9369 -0.5610
 6180TIP3    H218547   1.149   0.865   2.663  0.6039  0.0379 -1.9980
 6181TIP3   OH218548   1.871   4.703   1.575  0.0830 -0.3100 -0.2412
 6181TIP3    H118549   1.964   4.701   1.554  0.4116  2.4128  0.6029
 6181TIP3    H218550   1.827   4.702   1.490  0.8451 -1.6269 -0.6483
 6182TIP3   OH218551   4.398   1.865   1.970 -0.1320 -0.1485 -0.5598
 6182TIP3    H118552   4.448   1.935   2.010  0.8913 -0.8224 -0.6313
 6182TIP3    H218553   4.373   1.899   1.884  2.0842 -0.5714 -1.4335
 6183TIP3   OH218554   2.959   2.623   4.720  0.0410 -0.3468 -0.6778
 6183TIP3    H118555   2.887   2.576   4.677  0.2715 -1.2788 -0.0760
 6183TIP3    H218556   2.923   2.652   4.804 -0.0915  0.5641 -1.0326
 6184TIP3   OH218557   5.962   2.550   4.678  0.3609  0.1242  0.0338
 6184TIP3    H118558   5.884   2.597   4.707  0.1081 -0.4270  0.2427
 6184TIP3    H218559   6.023   2.620   4.652 -0.0994  0.5622  0.1133
 6185TIP3   OH218560   0.422   1.649   2.044 -0.7006  0.3788 -0.1382
 6185TIP3    H118561   0.347   1.612   1.999 -0.0935 -0.6913 -0.2875
 6185TIP3    H218562   0.485   1.669   1.975 -1.1704  2.1290 -0.1140
 6186TIP3   OH218563   3.375   5.068   0.420  0.3119 -0.1627 -0.0736
 6186TIP3    H118564   3.434   4.999   0.388  1.3081  1.7712 -2.7830
 6186TIP3    H218565   3.434   5.142   0.439 -0.9938  0.9870 -0.3805
 6187TIP3   OH218566   3.845   2.518   3.523 -0.1731 -0.4966 -0.1150
 6187TIP3    H118567   3.781   2.447   3.521  1.1746 -1.7944  0.7188
 6187TIP3    H218568   3.921   2.483   3.478  0.3299  0.6546 -0.2039
 6188TIP3   OH218569   1.930   5.437   2.133  0.0178  0.1268  0.0755
 6188TIP3    H118570   1.856   5.463   2.078  0.2695  1.9790  0.5346
 6188TIP3    H218571   1.963   5.357   2.093 -1.7042 -0.2881 -0.6283
 6189TIP3   OH218572   2.693   1.891   0.745  0.1389 -0.6864 -0.4658
 6189TIP3    H118573   2.711   1.935   0.662 -0.8305  0.2629 -0.1978
 6189TIP3    H218574   2.605   1.856   0.735 -1.1277  1.7641  1.0499
 6190TIP3   OH218575   1.406   5.683   5.039 -0.4265  0.1032 -0.0130
 6190TIP3    H118576   1.459   5.745   5.089 -1.3641 -0.1470  1.3733
 6190TIP3    H218577   1.338   5.736   4.999 -0.7461  0.0825  0.4956
 6191TIP3   OH218578   1.396   1.923   3.129  0.4486  0.4100  0.1595
 6191TIP3    H118579   1.347   1.973   3.195 -0.5147  0.0371 -0.2449
 6191TIP3    H218580   1.336   1.918   3.054  0.8883 -0.5504 -0.1444
 6192TIP3   OH218581   1.499   5.841   4.224 -0.3490  0.6585  0.6072
 6192TIP3    H118582   1.584   5.798   4.210  1.0896  2.9774  1.6442
 6192TIP3    H218583   1.503   5.920   4.170 -1.1293  1.6741  1.9796
 6193TIP3   OH218584   3.904   3.344   3.599 -0.4290  0.2665  0.0683
 6193TIP3    H118585   3.941   3.367   3.514 -0.1256 -0.2486  0.0544
 6193TIP3    H218586   3.980   3.321   3.653 -0.3652  2.9254  1.2648
 6194TIP3   OH218587   4.261   3.182   2.726 -0.3375  0.0120 -0.3073
 6194TIP3    H118588   4.303   3.232   2.796  0.3582  0.6141 -1.1465
 6194TIP3    H218589   4.173   3.163   2.760  0.6098 -1.3853  1.5285
 6195TIP3   OH218590   0.969   2.184   4.228  0.1755 -0.2715 -0.1122
 6195TIP3    H118591   0.925   2.235   4.296 -2.0949  1.3994 -2.6596
 6195TIP3    H218592   0.907   2.115   4.206  1.5943 -1.8363  0.5598
 6196TIP3   OH218593   5.671   4.534   2.587  0.1078 -0.2943  0.3648
 6196TIP3    H118594   5.605   4.483   2.540 -0.7186  1.3598 -0.3673
 6196TIP3    H218595   5.745   4.540   2.526  0.0299 -0.2638  0.2724
 6197TIP3   OH218596   0.624   3.062   2.667 -0.3182  0.2156 -0.7236
 6197TIP3    H118597   0.581   3.140   2.700 -2.9365 -1.0714 -0.8681
 6197TIP3    H218598   0.633   3.078   2.573  0.6760  0.9799 -0.5139
 6198TIP3   OH218599   1.285   4.862   0.867 -0.1033  0.2702  0.6504
 6198TIP3    H118600   1.361   4.882   0.921 -0.9840 -0.5905  2.2832
 6198TIP3    H218601   1.250   4.781   0.904 -1.9920  0.8079  0.1451
 6199TIP3   OH218602   3.631   1.362   3.030 -0.6899  0.0343 -0.1609
 6199TIP3    H118603   3.595   1.427   3.091 -0.2210 -0.9332  1.1919
 6199TIP3    H218604   3.557   1.339   2.975 -1.2581  0.6013  0.3372
 6200TIP3   OH218605   4.368   0.307   5.117 -0.5603 -0.0634  0.1049
 6200TIP3    H118606   4.397   0.394   5.146 -1.1386  0.5525 -1.0860
 6200TIP3    H218607   4.338   0.264   5.197 -2.3917  1.6867  0.4381
 6201TIP3   OH218608   1.481   5.373   0.626 -0.4277 -0.1079  0.4155
 6201TIP3    H118609   1.541   5.443   0.653 -1.0318  0.2854  0.7749
 6201TIP3    H218610   1.486   5.373   0.531  1.4718 -1.2788  0.4817
 6202TIP3   OH218611   5.009   4.470   2.779  0.3260  0.0928  0.1045
 6202TIP3    H118612   5.035   4.471   2.687 -0.3574 -1.6452 -0.1479
 6202TIP3    H218613   5.020   4.379   2.806  0.7525  0.6197  1.8304
 6203TIP3   OH218614   1.819   5.766   3.947 -0.1483 -0.0385  0.1538
 6203TIP3    H118615   1.763   5.792   3.874 -1.1254  0.7819  1.1477
 6203TIP3    H218616   1.865   5.845   3.973 -1.0463  0.0969  1.4401
 6204TIP3   OH218617   0.984   3.837   1.116 -0.1163 -0.1345  0.8434
 6204TIP3    H118618   0.907   3.851   1.171  0.7675  0.1570  2.0491
 6204TIP3    H218619   1.058   3.861   1.172  0.7511  1.9664 -1.0638
 6205TIP3   OH218620   6.259   4.778   1.232  0.0362 -0.6695  0.3363
 6205TIP3    H118621   6.228   4.856   1.185 -0.3557 -0.9482  0.1239
 6205TIP3    H218622   6.181   4.723   1.239  0.2998 -1.0125  0.5474
 6206TIP3   OH218623   6.236   4.306   1.433 -0.3632  0.2816 -0.4303
 6206TIP3    H118624   6.307   4.317   1.496  0.1348  0.6113 -1.0424
 6206TIP3    H218625   6.262   4.230   1.381 -2.0301 -1.6854  1.4205
 6207TIP3   OH218626   0.412   3.156   4.303 -0.5052 -0.2963  0.2422
 6207TIP3    H118627   0.385   3.197   4.221  0.1388  0.0448  0.1866
 6207TIP3    H218628   0.508   3.164   4.303 -0.5712  1.2638  1.8025
 6208TIP3   OH218629   5.216   0.444   2.254 -0.2968 -0.2256 -0.2388
 6208TIP3    H118630   5.222   0.510   2.323 -2.4070 -0.3818  0.1535
 6208TIP3    H218631   5.267   0.370   2.287  0.3678  0.4262  0.2325
 6209TIP3   OH218632   2.122   2.879   1.437  0.6670 -0.2581  0.3906
 6209TIP3    H118633   2.213   2.862   1.416  1.3284  2.6427  0.5264
 6209TIP3    H218634   2.107   2.969   1.410 -2.1241 -0.5670  0.5765
 6210TIP3   OH218635   5.234   5.877   2.804  0.4269 -0.0837 -0.0108
 6210TIP3    H118636   5.182   5.929   2.743  2.1157  2.3912  0.5054
 6210TIP3    H218637   5.308   5.847   2.752 -0.1370 -1.4127 -0.1004
 6211TIP3   OH218638   0.262   3.458   3.360  0.4838 -0.4006  1.0646
 6211TIP3    H118639   0.201   3.436   3.431  0.2146 -1.4033  0.5428
 6211TIP3    H218640   0.235   3.546   3.333 -1.1553 -1.0498  0.4455
 6212TIP3   OH218641   4.912   2.700   1.998  0.3078  0.1617  0.1330
 6212TIP3    H118642   4.993   2.736   1.960  0.6508  1.5484  2.0495
 6212TIP3    H218643   4.843   2.726   1.936  1.0196  1.0907 -0.2970
 6213TIP3   OH218644   0.075   3.817   5.030 -0.3953 -0.0625  0.2390
 6213TIP3    H118645   0.022   3.856   5.099 -0.4232 -1.6437  1.1569
 6213TIP3    H218646   0.162   3.808   5.069 -0.3097 -0.6142 -0.0751
 6214TIP3   OH218647   4.086   4.497   2.414 -0.0876 -0.0106 -0.3963
 6214TIP3    H118648   4.068   4.446   2.335  0.0641 -0.6302 -0.0422
 6214TIP3    H218649   4.064   4.587   2.391 -0.3857 -0.2427 -1.0278
 6215TIP3   OH218650   3.789  -0.027   4.452  0.3471  0.1306  0.3622
 6215TIP3    H118651   3.740  -0.017   4.370  2.0656 -2.2460 -1.0881
 6215TIP3    H218652   3.807   0.063   4.480  0.0145  1.0520 -2.0912
 6216TIP3   OH218653   1.715   1.989   4.647  0.3406 -0.1388  0.6507
 6216TIP3    H118654   1.754   1.919   4.700 -0.0310 -0.4990  0.4555
 6216TIP3    H218655   1.778   2.061   4.652 -0.0165  0.0887  2.1521
 6217TIP3   OH218656   4.513   4.943   2.276  0.2387  0.0091 -0.5179
 6217TIP3    H118657   4.444   4.907   2.220 -1.5834  1.5165  0.6844
 6217TIP3    H218658   4.510   5.037   2.260  3.2982  0.0167 -1.7849
 6218TIP3   OH218659   1.282   5.983   3.829  0.1732  0.2053 -0.5661
 6218TIP3    H118660   1.259   5.911   3.769 -0.7170 -0.9606  1.1046
 6218TIP3    H218661   1.217   6.050   3.811  0.1749  0.0556 -1.1904
 6219TIP3   OH218662   5.524   3.298   3.784 -0.9429 -0.1119 -0.4694
 6219TIP3    H118663   5.518   3.207   3.812 -3.0042 -0.2123 -1.1337
 6219TIP3    H218664   5.506   3.348   3.864  0.3874 -0.2444 -0.0583
 6220TIP3   OH218665   3.588   0.494   2.592  0.0230 -0.5820  0.1627
 6220TIP3    H118666   3.675   0.533   2.604 -0.8541  0.7533  3.0335
 6220TIP3    H218667   3.531   0.567   2.571 -0.7193 -1.1605  0.1216
 6221TIP3   OH218668   4.880   0.325   2.627 -0.1097  0.0310  0.5381
 6221TIP3    H118669   4.888   0.273   2.707  0.7154 -0.9401 -0.1496
 6221TIP3    H218670   4.849   0.411   2.657 -1.4497 -0.8234  1.6990
 6222TIP3   OH218671   4.888   1.649   2.129  0.3335 -0.7783  0.0464
 6222TIP3    H118672   4.853   1.667   2.042  1.6646  1.8604 -0.0311
 6222TIP3    H218673   4.982   1.657   2.119  0.4990 -0.2656  1.7724
 6223TIP3   OH218674   5.867   0.700   5.128 -0.2828  0.3955  0.0932
 6223TIP3    H118675   5.879   0.605   5.121 -2.6460  0.0982 -0.7548
 6223TIP3    H218676   5.872   0.717   5.222  0.3965 -0.5180  0.2385
 6224TIP3   OH218677   5.276   5.595   2.740 -0.6662  0.1725  0.4124
 6224TIP3    H118678   5.358   5.548   2.727 -0.1208  0.5845  2.1059
 6224TIP3    H218679   5.277   5.665   2.675  0.1651 -0.0295  0.2021
 6225TIP3   OH218680   5.755   0.066   4.001 -0.1058  0.7985  0.1514
 6225TIP3    H118681   5.702   0.105   3.933 -1.4379 -2.2046 -0.7166
 6225TIP3    H218682   5.692   0.019   4.057  1.3454 -0.3319  0.9120
 6226TIP3   OH218683   1.014   3.743   0.302  0.1933  0.0895 -0.7589
 6226TIP3    H118684   1.083   3.764   0.239  0.7975 -0.8807 -0.4488
 6226TIP3    H218685   1.060   3.741   0.387 -0.3202 -0.0370 -0.4831
 6227TIP3   OH218686   0.602   1.053   0.026  0.4648 -0.6256  0.2871
 6227TIP3    H118687   0.655   1.068  -0.053  0.7441 -1.7820  0.2371
 6227TIP3    H218688   0.559   1.137   0.042  2.2370  0.3308  0.2699
 6228TIP3   OH218689   3.141   2.817   4.161  0.2203  0.1140 -0.1271
 6228TIP3    H118690   3.226   2.843   4.124 -0.9630  3.2812 -0.9805
 6228TIP3    H218691   3.114   2.743   4.107  2.8606 -1.7845  0.9304
 6229TIP3   OH218692   2.734   4.479   0.209 -0.4416  0.1788 -0.3252
 6229TIP3    H118693   2.771   4.449   0.292 -1.2002 -0.5456 -0.2294
 6229TIP3    H218694   2.709   4.570   0.225  0.0545  0.2563  0.0193
 6230TIP3   OH218695   3.832   2.636   2.855 -0.0958  0.0801 -0.6696
 6230TIP3    H118696   3.850   2.630   2.949  1.0167  0.2052 -0.8682
 6230TIP3    H218697   3.877   2.561   2.817  0.2511  0.5658 -1.2171
 6231TIP3   OH218698   0.440   5.529   4.116  0.2740  0.0992 -0.6464
 6231TIP3    H118699   0.365   5.540   4.174  0.5091 -0.5092 -0.2197
 6231TIP3    H218700   0.485   5.614   4.119  0.7842 -0.1961  0.7875
 6232TIP3   OH218701   0.101   3.137   2.377  0.0566 -0.0119 -0.0749
 6232TIP3    H118702   0.046   3.199   2.424 -0.5651  0.7101 -1.6754
 6232TIP3    H218703   0.156   3.098   2.444 -0.9942  0.7437  1.2746
 6233TIP3   OH218704   3.339   2.892   1.791  0.8431  0.3658  0.0352
 6233TIP3    H118705   3.403   2.963   1.783 -0.6768  1.6993 -1.0644
 6233TIP3    H218706   3.328   2.860   1.701  1.1107 -0.9420  0.4416
 6234TIP3   OH218707   4.788   2.536   0.239  0.0174  0.0507 -0.1959
 6234TIP3    H118708   4.825   2.621   0.263 -1.1832  0.8593 -1.0859
 6234TIP3    H218709   4.802   2.529   0.145  0.0541 -0.7192 -0.1364
 6235TIP3   OH218710   0.707   5.161   1.908  0.7985  0.4383  0.1774
 6235TIP3    H118711   0.621   5.155   1.950  0.5822 -0.6289 -0.3846
 6235TIP3    H218712   0.738   5.249   1.930 -0.3770  0.7908  0.5053
 6236TIP3   OH218713   6.108   1.035   3.870  0.3611  0.6298  0.2373
 6236TIP3    H118714   6.025   1.004   3.905 -1.0759  1.7582 -1.9666
 6236TIP3    H218715   6.084   1.104   3.808  3.0613  2.3717  0.9398
 6237TIP3   OH218716   5.989   5.064   0.244 -0.1257 -0.3911 -0.1160
 6237TIP3    H118717   5.947   5.112   0.316 -2.0548 -1.6585 -0.3337
 6237TIP3    H218718   6.007   4.978   0.281 -0.6069 -0.8615 -0.9598
 6238TIP3   OH218719   3.744   5.768   4.701  0.1377 -0.2268 -0.2816
 6238TIP3    H118720   3.836   5.778   4.722  0.0682  1.7114 -0.7427
 6238TIP3    H218721   3.698   5.814   4.771 -0.6424 -2.9551  1.1212
 6239TIP3   OH218722   0.592   3.131   2.395 -0.6016  0.0745 -0.3948
 6239TIP3    H118723   0.613   3.222   2.376 -0.1219  0.2282  0.8539
 6239TIP3    H218724   0.570   3.094   2.309  0.0125  1.1394 -1.0332
 6240TIP3   OH218725   3.451   2.170   0.662  0.0077  0.1047 -0.8091
 6240TIP3    H118726   3.372   2.206   0.704  0.1041  1.2208 -1.5346
 6240TIP3    H218727   3.500   2.131   0.734 -1.0997 -0.4103 -0.3089
 6241TIP3   OH218728   0.209   3.701   0.427  0.2071  0.0055 -0.0596
 6241TIP3    H118729   0.221   3.650   0.507 -0.2501 -0.1537 -0.0892
 6241TIP3    H218730   0.114   3.711   0.419  0.2576  0.1605 -0.4956
 6242TIP3   OH218731   2.243   3.435   3.387 -0.1654  0.3181  0.2593
 6242TIP3    H118732   2.185   3.367   3.423 -0.3012  0.2963 -0.0057
 6242TIP3    H218733   2.299   3.388   3.325 -1.1586  0.6832 -0.9476
 6243TIP3   OH218734   0.584   0.952   4.852 -0.0102 -0.1770 -0.1804
 6243TIP3    H118735   0.602   0.989   4.938 -0.5548  0.6745 -0.4247
 6243TIP3    H218736   0.557   0.862   4.870  1.1820 -0.4306  0.4238
 6244TIP3   OH218737   0.995   1.640   1.728 -0.0042 -0.1996 -0.1754
 6244TIP3    H118738   0.908   1.613   1.699 -0.0427  0.6034 -0.8360
 6244TIP3    H218739   1.022   1.707   1.665  1.7271 -1.4858 -0.8832
 6245TIP3   OH218740   1.926   1.203   0.579  0.6792  0.3043 -0.0146
 6245TIP3    H118741   1.851   1.168   0.530  0.2198  1.9941 -0.5639
 6245TIP3    H218742   1.954   1.130   0.634  0.1298 -1.1144 -1.5364
 6246TIP3   OH218743   3.094   3.768   4.127 -0.3154  0.1704  0.5002
 6246TIP3    H118744   3.095   3.765   4.222  0.1284  1.6218  0.5616
 6246TIP3    H218745   3.054   3.685   4.101  1.7479 -1.3686  1.8788
 6247TIP3   OH218746   3.780   2.265   4.568 -0.2067  0.2252 -0.1154
 6247TIP3    H118747   3.764   2.249   4.661 -1.1973 -0.7728 -0.4209
 6247TIP3    H218748   3.696   2.244   4.526  0.4152 -0.0003 -1.2921
 6248TIP3   OH218749   3.723   2.754   1.907 -0.4317 -0.4963 -0.9988
 6248TIP3    H118750   3.670   2.767   1.985 -0.1304 -0.8522 -0.7348
 6248TIP3    H218751   3.660   2.737   1.837 -0.7193  0.1369 -0.9033
 6249TIP3   OH218752   3.949   3.919   2.033  0.8373 -0.1179 -0.3648
 6249TIP3    H118753   3.991   3.938   2.117 -0.8037  2.2667  0.0041
 6249TIP3    H218754   3.878   3.859   2.055 -0.2072  1.2698  0.1681
 6250TIP3   OH218755   4.245   3.404   1.131  0.1903 -0.1521 -0.2800
 6250TIP3    H118756   4.227   3.441   1.217  0.4793 -1.0013  0.1543
 6250TIP3    H218757   4.212   3.314   1.136  2.8542 -1.2084 -0.0381
 6251TIP3   OH218758   1.536   0.682   4.017 -0.2718 -0.7210  0.2143
 6251TIP3    H118759   1.538   0.777   4.024 -0.5624 -0.7434  0.6927
 6251TIP3    H218760   1.484   0.654   4.092  1.3404 -1.3719  1.1317
 6252TIP3   OH218761   2.867   0.795   1.314  0.0277  0.1868 -0.6019
 6252TIP3    H118762   2.938   0.823   1.371  1.0700 -0.8693 -1.3140
 6252TIP3    H218763   2.893   0.826   1.227  0.9917 -2.4036 -1.3351
 6253TIP3   OH218764   2.744   1.136   1.353  0.1743  0.1361  0.1246
 6253TIP3    H118765   2.777   1.176   1.272 -0.1829  0.8576  0.3282
 6253TIP3    H218766   2.794   1.179   1.423  1.9364 -1.9156  0.2106
 6254TIP3   OH218767   6.336   0.165   2.708 -0.0458 -0.6301  0.6163
 6254TIP3    H118768   6.417   0.153   2.757  0.5407 -1.0188 -0.4205
 6254TIP3    H218769   6.305   0.075   2.692 -1.4270 -0.4853  2.1685
 6255TIP3   OH218770   5.634   1.034   3.787 -0.5191 -0.1811 -0.4350
 6255TIP3    H118771   5.701   1.102   3.787 -1.5854  0.9442 -2.0782
 6255TIP3    H218772   5.631   1.003   3.878  1.6103  0.3042 -0.1559
 6256TIP3   OH218773   4.373   0.524   0.067  0.6899 -0.3281 -0.1056
 6256TIP3    H118774   4.297   0.505   0.012  0.9448 -0.7923 -0.2993
 6256TIP3    H218775   4.364   0.617   0.088 -0.5246 -0.6188  0.7949
 6257TIP3   OH218776   4.559   5.654   2.946 -1.2134  0.2174  0.3556
 6257TIP3    H118777   4.654   5.641   2.941 -0.8174  2.4856  0.9542
 6257TIP3    H218778   4.525   5.572   2.981  0.4970 -0.6901 -0.0117
 6258TIP3   OH218779   5.542   5.498   2.705  0.5442 -0.3452  0.1636
 6258TIP3    H118780   5.525   5.464   2.793 -0.3451 -1.9142 -0.5821
 6258TIP3    H218781   5.612   5.562   2.718 -0.4481  0.4486  2.1998
 6259TIP3   OH218782   4.676   4.108   3.555  0.0656 -0.0753  0.0546
 6259TIP3    H118783   4.664   4.057   3.474  1.4503 -0.7342  0.2360
 6259TIP3    H218784   4.770   4.104   3.572  0.0726  1.7626  0.6173
 6260TIP3   OH218785   6.166   4.765   2.270 -0.6852  0.5181 -0.8237
 6260TIP3    H118786   6.131   4.683   2.234  0.4109 -1.5053  2.2743
 6260TIP3    H218787   6.098   4.830   2.252 -3.3452 -1.9028 -0.2118
 6261TIP3   OH218788   5.320   2.695   0.773 -0.2284  0.3638 -0.1576
 6261TIP3    H118789   5.368   2.688   0.855 -0.1563  0.1014 -0.2210
 6261TIP3    H218790   5.380   2.662   0.707 -0.6512 -0.4091 -0.1760
 6262TIP3   OH218791   0.444   5.715   2.022 -0.2120 -0.2416 -0.6876
 6262TIP3    H118792   0.474   5.625   2.010  0.9930 -0.2461  1.7060
 6262TIP3    H218793   0.521   5.769   2.006 -0.8693  0.3893 -1.8727
 6263TIP3   OH218794   4.721   5.561   3.338 -0.6162 -0.3275  0.2991
 6263TIP3    H118795   4.745   5.652   3.317 -2.1625 -0.2368 -1.3999
 6263TIP3    H218796   4.804   5.514   3.340  0.0832  0.8204 -0.4984
 6264TIP3   OH218797   4.502   3.484   1.487  0.0134 -0.3911 -0.4517
 6264TIP3    H118798   4.518   3.390   1.481 -1.1355 -0.5998 -0.4277
 6264TIP3    H218799   4.500   3.502   1.581  3.0670  0.2042 -0.3949
 6265TIP3   OH218800   0.618   4.555   1.118  0.7507 -0.1966 -0.0980
 6265TIP3    H118801   0.701   4.548   1.163  0.5058  1.9009  0.8000
 6265TIP3    H218802   0.577   4.470   1.129  2.3268 -0.9305  0.3335
 6266TIP3   OH218803   3.017   4.382   5.103  0.0209 -0.2281  0.5503
 6266TIP3    H118804   3.083   4.316   5.123 -1.1902 -1.4995  0.4879
 6266TIP3    H218805   3.024   4.395   5.009  0.4050 -0.1015  0.5947
 6267TIP3   OH218806   1.114   4.663   4.373 -0.5146  0.3596  0.2728
 6267TIP3    H118807   1.201   4.644   4.337  0.1490  0.0135  1.9695
 6267TIP3    H218808   1.084   4.580   4.409 -1.1731  0.6848  0.4897
 6268TIP3   OH218809   5.913   1.594   0.632 -0.0904  0.2224  0.5140
 6268TIP3    H118810   5.870   1.649   0.567  0.8875  1.0363  0.5315
 6268TIP3    H218811   5.879   1.506   0.616 -1.7372  0.8148  0.5236
 6269TIP3   OH218812   2.014   1.826   0.371  0.3016 -0.3937 -0.8618
 6269TIP3    H118813   2.011   1.859   0.281 -1.2696 -0.7248 -0.9570
 6269TIP3    H218814   1.924   1.801   0.391  0.1733  1.5318  1.4963
 6270TIP3   OH218815   3.420   1.352   2.841 -0.1710 -0.1307 -0.4081
 6270TIP3    H118816   3.363   1.322   2.911 -0.4136 -0.1448 -0.6105
 6270TIP3    H218817   3.395   1.300   2.765 -1.0389  1.0077 -0.9276
 6271TIP3   OH218818   5.688   0.891   0.962 -0.0940  0.3948  0.4886
 6271TIP3    H118819   5.697   0.848   1.048  0.5234  0.6865  0.5723
 6271TIP3    H218820   5.610   0.850   0.924  1.5070 -2.1900 -0.2302
 6272TIP3   OH218821   5.537   4.062   4.676  0.3829  0.0624 -0.2601
 6272TIP3    H118822   5.572   3.985   4.632 -0.5961 -0.0432 -0.8926
 6272TIP3    H218823   5.451   4.035   4.708  0.1696  0.7882 -0.2026
 6273TIP3   OH218824   3.670   3.948   5.192 -0.7711  0.0316  0.3564
 6273TIP3    H118825   3.751   3.979   5.151  0.1565 -0.9990  1.3134
 6273TIP3    H218826   3.631   3.889   5.128 -0.3079 -0.1110  0.1993
 6274TIP3   OH218827   1.461   2.458   0.864 -0.6772  0.2427 -0.0043
 6274TIP3    H118828   1.548   2.479   0.830 -1.7869  1.0664 -2.5254
 6274TIP3    H218829   1.447   2.522   0.933  1.1143 -0.6439  1.3004
 6275TIP3   OH218830   3.006   5.625   4.977 -0.2722 -0.1270  0.1230
 6275TIP3    H118831   2.977   5.706   5.019  0.6816 -0.6755  1.9163
 6275TIP3    H218832   2.931   5.566   4.982  0.0888 -0.4698  1.8595
 6276TIP3   OH218833   5.941   4.591   3.007  0.1963  0.0280  0.0869
 6276TIP3    H118834   5.852   4.625   3.002 -0.3811 -1.3079  0.7366
 6276TIP3    H218835   5.933   4.510   3.058  1.6310 -0.6076 -0.6268
 6277TIP3   OH218836   2.653   5.264   1.824 -0.4354  0.3926 -0.6089
 6277TIP3    H118837   2.667   5.289   1.732 -0.3227 -0.3336 -0.7966
 6277TIP3    H218838   2.634   5.170   1.820 -0.5726  0.3888  0.1013
 6278TIP3   OH218839   1.932   1.210   4.121  0.8082 -0.4002  0.4590
 6278TIP3    H118840   1.953   1.118   4.101 -0.6514 -1.4130  3.0511
 6278TIP3    H218841   2.010   1.243   4.166  1.2755 -0.4013 -0.3348
 6279TIP3   OH218842   4.327   4.464   1.951  0.1140  0.5010 -0.4474
 6279TIP3    H118843   4.286   4.394   1.901  1.2704  0.9261 -2.0575
 6279TIP3    H218844   4.254   4.507   1.997 -0.9162 -0.1860 -1.4105
 6280TIP3   OH218845   2.613   0.059   3.623  0.7273 -0.1966  0.2231
 6280TIP3    H118846   2.672   0.104   3.683 -0.1046  1.5611 -0.2216
 6280TIP3    H218847   2.541   0.120   3.609  0.0967 -1.2216 -1.2885
 6281TIP3   OH218848   0.915   2.450   1.917  0.4880  0.3214  0.0716
 6281TIP3    H118849   0.982   2.386   1.941 -0.3212  0.0640  1.7591
 6281TIP3    H218850   0.838   2.397   1.896 -0.4405  0.6981  2.2828
 6282TIP3   OH218851   4.787   1.411   0.312 -0.5510  0.4377  0.4688
 6282TIP3    H118852   4.715   1.449   0.363 -1.2444 -0.4434  0.1540
 6282TIP3    H218853   4.793   1.466   0.234  1.0165  2.2829  1.7682
 6283TIP3   OH218854   2.966   4.373   4.029  0.8729 -0.1485 -0.4426
 6283TIP3    H118855   2.963   4.296   4.084  1.1702 -0.1624 -0.4420
 6283TIP3    H218856   2.937   4.445   4.085  0.4379 -0.2827 -0.4898
 6284TIP3   OH218857   3.213   0.341   4.407  0.3356 -0.2798 -0.2265
 6284TIP3    H118858   3.239   0.316   4.318 -0.4130  0.7533 -0.7612
 6284TIP3    H218859   3.169   0.263   4.442  0.1525 -0.5258 -0.9716
 6285TIP3   OH218860   4.807   1.131   1.330  0.0755 -0.2057 -0.6464
 6285TIP3    H118861   4.741   1.135   1.400  0.0291  0.2401 -0.7073
 6285TIP3    H218862   4.834   1.040   1.326  1.1105  0.0014  0.9043
 6286TIP3   OH218863   4.833   1.925   3.723  0.2843  0.3558  0.4636
 6286TIP3    H118864   4.794   1.895   3.805 -2.5081 -0.8843 -1.1724
 6286TIP3    H218865   4.910   1.976   3.750  0.6082 -1.5684  3.7241
 6287TIP3   OH218866   3.787   3.388   4.086  0.1099  0.5708  0.6897
 6287TIP3    H118867   3.835   3.436   4.018 -1.7177 -0.5852 -1.5350
 6287TIP3    H218868   3.696   3.390   4.057 -0.6170 -0.6521  2.7400
 6288TIP3   OH218869   5.979   3.479   0.263 -0.6029  0.5695  0.0974
 6288TIP3    H118870   6.051   3.462   0.202 -1.2642 -2.3963 -0.0488
 6288TIP3    H218871   5.923   3.542   0.218 -0.1309 -0.1509 -1.5938
 6289TIP3   OH218872   1.438   3.498   1.622  0.6671  0.5029 -0.0203
 6289TIP3    H118873   1.379   3.469   1.553 -0.7437  0.7868  1.0251
 6289TIP3    H218874   1.509   3.433   1.622 -0.5479 -0.8611 -0.1232
 6290TIP3   OH218875   0.630   3.137   3.125 -0.0259  0.1469 -0.6776
 6290TIP3    H118876   0.666   3.183   3.049 -2.4610  0.3762 -1.8071
 6290TIP3    H218877   0.563   3.197   3.159 -0.4813 -0.8900  0.3078
 6291TIP3   OH218878   2.339   0.176   3.681  0.0075  0.1149 -0.1993
 6291TIP3    H118879   2.348   0.260   3.635  0.3707 -0.3450 -0.9924
 6291TIP3    H218880   2.252   0.179   3.720  0.0114  0.8561 -0.2324
 6292TIP3   OH218881   0.463   0.402   1.658 -0.2136  0.6929  0.2968
 6292TIP3    H118882   0.386   0.356   1.693  0.4350  0.1124  0.9801
 6292TIP3    H218883   0.430   0.489   1.636 -1.1281  0.3720  0.3377
 6293TIP3   OH218884   1.005   1.831   1.518  0.4702 -0.0391 -0.5626
 6293TIP3    H118885   0.929   1.889   1.514 -0.1107 -0.6646  0.6854
 6293TIP3    H218886   1.073   1.876   1.468  0.1455  1.8669  0.6077
 6294TIP3   OH218887   6.015   5.429   0.675  0.2992 -0.1650 -0.4662
 6294TIP3    H118888   6.009   5.413   0.769 -1.4220 -1.8037 -0.8058
 6294TIP3    H218889   6.056   5.350   0.639  1.5975  0.7389 -1.0473
 6295TIP3   OH218890   5.747   3.852   1.446 -0.2346 -0.5641  0.5754
 6295TIP3    H118891   5.677   3.800   1.407  0.1702 -1.0489  0.4883
 6295TIP3    H218892   5.825   3.829   1.396  0.1157 -0.5260  1.1002
 6296TIP3   OH218893   5.317   4.347   0.987 -0.3036  0.1479 -0.3620
 6296TIP3    H118894   5.395   4.304   0.950 -0.2027 -1.4154  1.5103
 6296TIP3    H218895   5.267   4.276   1.026 -1.7719  1.3769  0.0819
 6297TIP3   OH218896   3.305  -0.029   3.409  0.4921  0.1867 -0.1511
 6297TIP3    H118897   3.292   0.014   3.324  0.1490  2.1368  0.8339
 6297TIP3    H218898   3.362   0.031   3.458 -0.2761 -0.3018  1.4049
 6298TIP3   OH218899   3.636   4.038   1.800 -0.3024 -0.9486 -0.7344
 6298TIP3    H118900   3.706   3.973   1.796  1.2739  0.6198 -0.0659
 6298TIP3    H218901   3.639   4.072   1.890 -0.6859  0.4476 -1.2172
 6299TIP3   OH218902   5.570   4.482   0.761 -0.0500 -0.0722 -0.1746
 6299TIP3    H118903   5.637   4.472   0.694  0.1155  1.0869 -0.1984
 6299TIP3    H218904   5.507   4.413   0.742  0.1269  0.0714 -1.3577
 6300TIP3   OH218905   5.111   1.238   1.527  0.2171 -0.3749 -0.5312
 6300TIP3    H118906   5.034   1.278   1.488  0.2731 -0.1034 -0.3634
 6300TIP3    H218907   5.119   1.280   1.613  0.2525 -0.7685 -0.3381
 6301TIP3   OH218908   5.194   5.509   0.258  0.1778  0.4568  0.2511
 6301TIP3    H118909   5.176   5.415   0.263  1.1005  0.1923 -1.0476
 6301TIP3    H218910   5.280   5.519   0.300  1.3724  0.2789 -2.0231
 6302TIP3   OH218911   0.052   4.478  -0.026 -0.6339  0.1434 -0.6652
 6302TIP3    H118912  -0.024   4.481   0.033 -0.8301 -1.1722 -0.8375
 6302TIP3    H218913   0.118   4.533   0.018 -1.5429  1.0113 -0.3388
 6303TIP3   OH218914   0.636   5.347   4.014  0.3648 -0.6562 -0.8000
 6303TIP3    H118915   0.620   5.333   3.921 -2.2457  0.6491 -0.6426
 6303TIP3    H218916   0.592   5.430   4.033  0.0810 -1.3161  1.7704
 6304TIP3   OH218917   0.881   3.245   0.160 -0.3897  0.5553  0.2964
 6304TIP3    H118918   0.826   3.289   0.095  0.6431  3.4604  1.2020
 6304TIP3    H218919   0.969   3.246   0.121 -0.0393  0.9068  1.0806
 6305TIP3   OH218920   0.200   3.364   0.709 -0.2257 -0.3038  0.1182
 6305TIP3    H118921   0.277   3.322   0.672  1.6162  0.2614  3.0197
 6305TIP3    H218922   0.223   3.457   0.712 -0.2074 -0.3330  2.6602
 6306TIP3   OH218923   3.791   0.477   0.172 -0.0608  0.1317  0.1095
 6306TIP3    H118924   3.732   0.457   0.100  0.6269  0.5684 -0.5932
 6306TIP3    H218925   3.787   0.400   0.229 -0.7698 -0.1312 -0.2837
 6307TIP3   OH218926   3.071   1.872   1.290  0.0813  0.0630 -0.0065
 6307TIP3    H118927   3.150   1.838   1.333 -0.2013 -0.7754 -0.1253
 6307TIP3    H218928   3.094   1.961   1.264  0.5066  0.3287  1.2292
 6308TIP3   OH218929   4.789   3.581   3.004  0.2121 -0.3222  0.6397
 6308TIP3    H118930   4.746   3.666   2.996  0.2378 -0.2047  1.6108
 6308TIP3    H218931   4.879   3.596   2.978 -0.1537 -0.4208 -0.7635
 6309TIP3   OH218932   5.970   0.093   1.168  0.0456  0.0230  0.9034
 6309TIP3    H118933   5.937   0.166   1.221 -0.8620  0.9873 -0.9066
 6309TIP3    H218934   5.914   0.092   1.091  0.3748 -2.2883  0.6230
 6310TIP3   OH218935   3.268   0.292   4.155 -0.2868 -0.2047  0.1037
 6310TIP3    H118936   3.204   0.327   4.092 -3.1978 -2.4851  1.5548
 6310TIP3    H218937   3.329   0.243   4.101 -1.6122 -0.5505 -1.1631
 6311TIP3   OH218938   6.250   1.968   2.978 -0.1121  0.0782 -0.0416
 6311TIP3    H118939   6.255   2.060   3.005  0.5063  0.4202 -1.2364
 6311TIP3    H218940   6.291   1.920   3.049 -2.5365  0.4432  1.7272
 6312TIP3   OH218941   2.431   2.207   5.024 -0.4988  0.2583  0.2604
 6312TIP3    H118942   2.459   2.285   4.978 -0.3476 -0.0346 -0.1476
 6312TIP3    H218943   2.478   2.135   4.981  0.1278  0.0425  1.2651
 6313TIP3   OH218944   2.595   5.392   4.816  0.2014  0.1760 -0.2539
 6313TIP3    H118945   2.643   5.460   4.770 -0.4221 -0.6317 -2.2036
 6313TIP3    H218946   2.622   5.310   4.774 -0.3568 -0.6266  0.8688
 6314TIP3   OH218947   1.051   2.028   2.308 -0.9478 -0.7778  0.7135
 6314TIP3    H118948   1.134   2.070   2.285 -0.6383 -1.4793  0.5251
 6314TIP3    H218949   1.055   2.018   2.403 -1.9835  1.6016  1.0860
 6315TIP3   OH218950   3.101   2.439   1.113 -0.2409 -0.6643 -0.1270
 6315TIP3    H118951   3.048   2.399   1.183 -1.4708 -0.8280 -1.1180
 6315TIP3    H218952   3.172   2.377   1.097  0.0298 -0.6455  0.9296
 6316TIP3   OH218953   4.920   4.923   3.865 -0.1746  0.2017  0.1794
 6316TIP3    H118954   4.971   5.000   3.889 -1.2595  0.7296  0.8265
 6316TIP3    H218955   4.866   4.905   3.942  0.3989 -1.4940  0.2287
 6317TIP3   OH218956   5.466   0.572   2.486  0.4917  0.3466 -0.3351
 6317TIP3    H118957   5.380   0.604   2.460 -0.2320 -1.1875  0.0062
 6317TIP3    H218958   5.474   0.596   2.579 -1.0395 -2.2680  0.5854
 6318TIP3   OH218959   5.067   0.519   0.884 -0.3488  0.3343  0.1544
 6318TIP3    H118960   5.074   0.424   0.892  0.1830  0.4687  1.4435
 6318TIP3    H218961   5.015   0.533   0.804 -0.8980 -1.0420  0.2583
 6319TIP3   OH218962   5.682   4.398   4.250  0.0722  0.5932  0.1554
 6319TIP3    H118963   5.726   4.336   4.191 -0.0024  1.6381 -1.0313
 6319TIP3    H218964   5.592   4.366   4.255 -0.1160  0.9235 -0.9308
 6320TIP3   OH218965   3.598   4.022   0.297 -0.4043 -0.2410 -0.1524
 6320TIP3    H118966   3.556   4.108   0.293  0.2215  0.0608 -0.2673
 6320TIP3    H218967   3.684   4.039   0.335 -1.2222 -1.1770  2.2924
 6321TIP3   OH218968   5.101   4.629   3.932  0.3341 -0.1573  0.3219
 6321TIP3    H118969   5.164   4.582   3.878  0.8642  1.7095 -0.7420
 6321TIP3    H218970   5.021   4.630   3.879  0.3033  0.0849  0.3741
 6322TIP3   OH218971   3.727   0.131   1.280 -0.3119 -0.7425  0.3464
 6322TIP3    H118972   3.719   0.221   1.310  1.6977 -0.4474  0.0888
 6322TIP3    H218973   3.700   0.078   1.356  0.7592  0.0550  1.3197
 6323TIP3   OH218974   3.797   1.649   0.464  0.3373  0.2188 -0.2117
 6323TIP3    H118975   3.779   1.608   0.549 -0.2479  1.4622  0.2999
 6323TIP3    H218976   3.881   1.692   0.476  2.2591 -2.8252 -1.5547
 6324TIP3   OH218977   4.867   4.609   4.854 -0.1026  0.2195 -0.0438
 6324TIP3    H118978   4.919   4.584   4.931 -0.2793  0.8109  0.2690
 6324TIP3    H218979   4.931   4.611   4.782 -0.2749 -2.3319 -0.3604
 6325TIP3   OH218980   1.435   4.199   1.445 -0.1582 -0.7976  0.0303
 6325TIP3    H118981   1.441   4.201   1.349  0.3436 -1.9019  0.0290
 6325TIP3    H218982   1.433   4.106   1.467  0.6554 -0.5663  1.1488
 6326TIP3   OH218983   0.258   5.908   3.952 -0.0756  0.0820 -0.1294
 6326TIP3    H118984   0.351   5.883   3.960 -0.2095 -0.5054 -0.3854
 6326TIP3    H218985   0.245   5.971   4.023  0.1832 -0.8710  0.8098
 6327TIP3   OH218986   3.993   3.912   0.680 -0.1582  0.2414 -0.3429
 6327TIP3    H118987   3.915   3.967   0.683 -2.1554 -2.4427  0.5188
 6327TIP3    H218988   4.006   3.884   0.771  2.3028  1.1467 -0.3229
 6328TIP3   OH218989   6.027   2.216   4.045 -0.0350  0.0663 -0.2272
 6328TIP3    H118990   6.071   2.157   4.106  1.3475  2.3830  1.1886
 6328TIP3    H218991   6.056   2.188   3.959  0.1024 -1.6483  0.3532
 6329TIP3   OH218992   1.100   0.656   1.233 -0.0786 -0.7607 -0.1738
 6329TIP3    H118993   1.068   0.740   1.200  1.1915  0.0545  0.5743
 6329TIP3    H218994   1.194   0.657   1.212  0.1108 -1.6175  0.5840
 6330TIP3   OH218995   2.285   3.218   1.392  0.3348 -0.0580 -0.3942
 6330TIP3    H118996   2.237   3.161   1.333 -2.5832  2.5553 -0.8277
 6330TIP3    H218997   2.337   3.274   1.335  3.8683 -2.5434  0.0548
 6331TIP3   OH218998   0.966   1.197   5.115  0.7799  0.4432  0.3729
 6331TIP3    H118999   0.946   1.123   5.173 -0.3471  0.6096  0.2184
 6331TIP3    H219000   0.989   1.268   5.175 -2.4993  1.2889  0.8653
 6332TIP3   OH219001   0.418   5.518   1.016  0.2661 -0.2637 -0.4008
 6332TIP3    H119002   0.495   5.524   1.073 -1.0508 -1.1201  1.6077
 6332TIP3    H219003   0.402   5.608   0.988  0.9557  0.2022  0.6200
 6333TIP3   OH219004   0.224   0.810   4.508  0.6341  0.4401  0.0118
 6333TIP3    H119005   0.309   0.781   4.542  0.8122  0.5630 -0.3304
 6333TIP3    H219006   0.178   0.846   4.585  0.6558 -0.1649  0.3186
 6334TIP3   OH219007   4.952   1.375   1.281  0.2515  0.4064 -0.4699
 6334TIP3    H119008   4.924   1.284   1.290  1.2607  0.2460  1.4675
 6334TIP3    H219009   4.987   1.380   1.192 -0.0562 -1.0319 -0.6975
 6335TIP3   OH219010   0.003   2.774   0.978 -0.0532  0.4830  0.0289
 6335TIP3    H119011   0.027   2.711   1.046 -2.1597 -0.6806 -0.2052
 6335TIP3    H219012   0.037   2.858   1.010 -0.0012 -0.2131  1.9618
 6336TIP3   OH219013   1.892   5.507   0.030  0.1372  0.2861 -0.3412
 6336TIP3    H119014   1.915   5.433  -0.027 -1.7043 -2.5606  2.2912
 6336TIP3    H219015   1.948   5.496   0.107  0.0410  1.8524 -0.0328
 6337TIP3   OH219016   3.736   4.913   3.853  0.2733 -0.1347 -0.0911
 6337TIP3    H119017   3.682   4.953   3.920  0.1844 -0.5621  0.0984
 6337TIP3    H219018   3.687   4.835   3.826  0.3912 -0.0619 -0.5273
 6338TIP3   OH219019   1.192   4.872   3.521 -0.5688 -0.2875 -0.0697
 6338TIP3    H119020   1.264   4.897   3.579 -0.8590 -0.3530  0.3173
 6338TIP3    H219021   1.146   4.954   3.503  0.8571  0.1669 -2.0742
 6339TIP3   OH219022   0.347   4.861   0.523 -0.6233  0.0258 -0.8777
 6339TIP3    H119023   0.432   4.905   0.518  1.1608 -3.1799 -1.8976
 6339TIP3    H219024   0.302   4.887   0.442  0.2785  0.1162 -1.3570
 6340TIP3   OH219025   1.250   5.470   1.633 -0.4161  0.2871  0.8846
 6340TIP3    H119026   1.291   5.469   1.546 -1.9130 -0.3485  0.1592
 6340TIP3    H219027   1.269   5.383   1.669  2.0506  1.2370  2.1605
 6341TIP3   OH219028   5.034   0.107   1.833 -0.1990 -0.7112 -0.2645
 6341TIP3    H119029   4.955   0.116   1.779 -0.0278 -2.0195 -0.7795
 6341TIP3    H219030   5.042   0.013   1.848  0.0846 -0.4245  1.6074
 6342TIP3   OH219031   1.758   4.112   3.026  0.3833 -0.0578  0.6551
 6342TIP3    H119032   1.713   4.096   2.943  0.3989 -2.3367  1.0230
 6342TIP3    H219033   1.698   4.079   3.092  1.3939 -0.5146  1.3638
 6343TIP3   OH219034   3.731   2.778   1.169  0.7704  0.1007 -0.4216
 6343TIP3    H119035   3.644   2.779   1.207  0.2421 -2.4400 -1.3754
 6343TIP3    H219036   3.789   2.808   1.239 -0.5864 -0.5591  1.0233
 6344TIP3   OH219037   2.343   0.555   0.735 -0.1778  0.0628  0.1474
 6344TIP3    H119038   2.255   0.560   0.698 -0.1404  0.9936  0.1603
 6344TIP3    H219039   2.383   0.478   0.693 -1.8419 -1.9884  2.0434
 6345TIP3   OH219040   6.076   0.337   0.798 -0.3146 -0.4841 -0.3251
 6345TIP3    H119041   6.115   0.262   0.754 -0.3302 -0.0728 -1.0536
 6345TIP3    H219042   6.087   0.319   0.892  0.8304 -0.7811 -0.5104
 6346TIP3   OH219043   5.981   1.751   4.884 -0.5367 -0.1491 -0.4530
 6346TIP3    H119044   6.041   1.814   4.845 -1.0573  0.2581 -0.6088
 6346TIP3    H219045   5.956   1.693   4.811 -1.4852  0.5928 -0.7351
 6347TIP3   OH219046   0.834   3.676   1.362 -0.2674  0.5330  0.3434
 6347TIP3    H119047   0.813   3.764   1.329  0.6567  1.3295  1.7572
 6347TIP3    H219048   0.831   3.686   1.457  1.9835 -0.4007  0.5667
 6348TIP3   OH219049   2.828   5.747   1.303 -0.4387 -0.0851  0.0692
 6348TIP3    H119050   2.905   5.764   1.250  0.2604 -1.5127  0.5694
 6348TIP3    H219051   2.830   5.813   1.372  0.3871 -0.1691  0.1270
 6349TIP3   OH219052   4.026   0.394   2.425 -0.0473 -0.1191 -0.1109
 6349TIP3    H119053   4.108   0.442   2.416 -0.0421 -0.3492 -1.4617
 6349TIP3    H219054   4.053   0.306   2.454  0.0910  0.0955  0.4292
 6350TIP3   OH219055   1.956   4.164   4.822 -0.1493  0.1641 -0.8794
 6350TIP3    H119056   1.917   4.077   4.817 -1.6179  0.6056  1.4144
 6350TIP3    H219057   2.034   4.159   4.766 -0.7456 -2.2764 -1.6151
 6351TIP3   OH219058   2.373   2.191   2.339 -0.2637  0.1961  0.4440
 6351TIP3    H119059   2.345   2.133   2.269 -0.0858  0.2509  0.3267
 6351TIP3    H219060   2.338   2.152   2.419  2.4154 -1.7874  0.7743
 6352TIP3   OH219061   5.440   3.181   2.976 -0.5915 -0.1714  0.1479
 6352TIP3    H119062   5.438   3.254   3.037 -2.2720  0.1090 -0.2038
 6352TIP3    H219063   5.348   3.157   2.963 -0.2724 -0.4873 -1.9488
 6353TIP3   OH219064   1.282   2.538   3.575  0.4695 -0.2612 -0.6202
 6353TIP3    H119065   1.322   2.554   3.660  0.2000 -3.5096  0.2602
 6353TIP3    H219066   1.199   2.494   3.596  0.6862 -1.7040 -2.5187
 6354TIP3   OH219067   4.152   3.203   1.817  0.4166  0.1579 -0.4478
 6354TIP3    H119068   4.090   3.230   1.884  1.3719  1.5044 -0.0613
 6354TIP3    H219069   4.184   3.285   1.779  2.3678 -0.4599 -0.2415
 6355TIP3   OH219070   5.865   0.961   4.429 -0.1602 -0.0243  0.4687
 6355TIP3    H119071   5.954   0.959   4.394 -0.1146  2.8263  0.1886
 6355TIP3    H219072   5.876   0.970   4.523 -0.1350  0.7775  0.3915
 6356TIP3   OH219073   1.387   4.496   1.112  0.6921 -0.4641  0.0791
 6356TIP3    H119074   1.408   4.402   1.111 -0.7426 -0.8018  0.1817
 6356TIP3    H219075   1.321   4.507   1.044  0.1646  0.3047  0.6998
 6357TIP3   OH219076   1.899   4.733   4.186  0.1606  0.0728  0.2051
 6357TIP3    H119077   1.852   4.650   4.191 -0.1128  0.1244 -1.1146
 6357TIP3    H219078   1.940   4.733   4.099  1.3348  0.7045  0.7282
 6358TIP3   OH219079   3.153   4.485   3.456 -0.0088 -0.2231 -0.3890
 6358TIP3    H119080   3.148   4.413   3.519 -2.2970 -0.9228 -1.2610
 6358TIP3    H219081   3.246   4.494   3.437  0.5592 -1.2640  1.6193
 6359TIP3   OH219082   4.436   2.002   2.657  0.4489 -0.2795  0.0234
 6359TIP3    H119083   4.359   2.051   2.686  0.9613 -0.0228  0.9753
 6359TIP3    H219084   4.444   1.930   2.720  0.6143 -0.6863 -0.4504
 6360TIP3   OH219085   0.984   2.099   4.625 -0.3704 -0.4517 -0.0229
 6360TIP3    H119086   1.064   2.147   4.643 -0.0715 -0.3446 -1.4773
 6360TIP3    H219087   0.914   2.162   4.642 -0.0136  0.2939 -1.2009
 6361TIP3   OH219088   0.774   2.720   1.515  0.2794  0.0590  0.4198
 6361TIP3    H119089   0.843   2.786   1.503 -0.2305  0.2092 -2.1778
 6361TIP3    H219090   0.744   2.700   1.427 -1.1817 -2.0008  1.2992
 6362TIP3   OH219091   2.572   0.670   0.820  0.6061 -0.2104 -0.3116
 6362TIP3    H119092   2.600   0.581   0.798  0.8365  0.1080 -1.3737
 6362TIP3    H219093   2.482   0.676   0.788  0.7925  0.1164 -0.7969
 6363TIP3   OH219094   1.851   3.532   3.920  0.1337  0.6430  0.9343
 6363TIP3    H119095   1.916   3.575   3.865 -0.6482 -0.5409 -1.0040
 6363TIP3    H219096   1.883   3.442   3.929 -1.1250  0.0842  0.0649
 6364TIP3   OH219097   3.674   1.880   4.428 -0.7086 -0.5423  0.0979
 6364TIP3    H119098   3.705   1.791   4.413 -0.6657 -0.5543  0.2556
 6364TIP3    H219099   3.641   1.880   4.518  2.2535  0.4219  1.3056
 6365TIP3   OH219100   6.066   2.076   3.802  0.7076  0.2620 -0.3999
 6365TIP3    H119101   5.985   2.025   3.794  0.0536  1.0990  0.5626
 6365TIP3    H219102   6.072   2.124   3.720 -2.4127  3.8357  1.1619
 6366TIP3   OH219103   5.701   0.535   4.605 -0.1044  0.4617 -0.0037
 6366TIP3    H119104   5.713   0.589   4.683  0.5647  0.3140 -0.0056
 6366TIP3    H219105   5.782   0.545   4.556  1.2936 -2.7870  1.3678
 6367TIP3   OH219106   2.763   5.760   3.453 -0.1055  0.0210  0.0105
 6367TIP3    H119107   2.774   5.702   3.378 -1.4612  0.6258 -0.7016
 6367TIP3    H219108   2.696   5.716   3.507 -1.1575  0.8836 -0.5452
 6368TIP3   OH219109   5.863   0.560   1.941 -0.2142  0.3809  0.3009
 6368TIP3    H119110   5.825   0.585   2.025 -0.8138 -1.0206  0.4692
 6368TIP3    H219111   5.879   0.466   1.949 -0.1159  0.2593 -1.0954
 6369TIP3   OH219112   3.849   1.026   0.480 -0.0655 -0.0144 -0.0883
 6369TIP3    H119113   3.873   1.021   0.573 -0.7107  0.4245  0.1087
 6369TIP3    H219114   3.863   1.118   0.457  0.7837 -0.2663 -0.6269
 6370TIP3   OH219115   1.917   4.284   3.768 -0.0367  0.9589 -0.2572
 6370TIP3    H119116   2.004   4.250   3.748  0.4452  0.0875  2.8264
 6370TIP3    H219117   1.857   4.221   3.728  0.8314 -0.9707  1.3159
 6371TIP3   OH219118   3.504   1.425   4.775  0.1777  0.5726 -0.2583
 6371TIP3    H119119   3.565   1.370   4.824  0.0280 -1.3641 -2.0944
 6371TIP3    H219120   3.418   1.403   4.811  0.0882 -0.6981 -1.1650
 6372TIP3   OH219121   5.428   3.161   1.014  0.3635  0.0878 -0.3346
 6372TIP3    H119122   5.418   3.113   1.096 -0.9784 -0.9327 -1.0585
 6372TIP3    H219123   5.498   3.114   0.968  1.3274  0.8441  0.3296
 6373TIP3   OH219124   6.272   3.952   0.609  0.6349 -0.5546 -0.0416
 6373TIP3    H119125   6.339   3.888   0.633  1.7565  0.6954  0.2523
 6373TIP3    H219126   6.316   4.037   0.615 -0.6943  0.2287 -0.8415
 6374TIP3   OH219127   2.133   5.146   3.714 -0.3420 -0.1843 -0.6007
 6374TIP3    H119128   2.107   5.126   3.804  1.7112  1.6161  0.4916
 6374TIP3    H219129   2.051   5.148   3.665 -1.8018  1.1821  1.7366
 6375TIP3   OH219130   2.108   5.384   3.104  0.2983 -0.1559 -0.4133
 6375TIP3    H119131   2.100   5.476   3.126  1.8127  0.1267 -0.9575
 6375TIP3    H219132   2.122   5.340   3.188 -2.0086 -0.1454  0.0538
 6376TIP3   OH219133   1.996   4.700   0.684  0.3916 -0.6190 -0.7451
 6376TIP3    H119134   1.949   4.627   0.724  1.3544 -1.2245 -0.6815
 6376TIP3    H219135   1.964   4.703   0.594 -0.5152 -0.3597 -0.4191
 6377TIP3   OH219136   1.644   3.354   1.841  0.7454  0.2646  0.9990
 6377TIP3    H119137   1.572   3.291   1.843  0.5346  0.4357 -0.2511
 6377TIP3    H219138   1.605   3.436   1.874  0.4100  0.3058  0.5130
 6378TIP3   OH219139   2.045   4.430   1.323  0.6302  0.4105 -0.0005
 6378TIP3    H119140   1.966   4.428   1.377  0.8395  0.7089  0.3218
 6378TIP3    H219141   2.017   4.395   1.239  0.7271 -1.8053  0.8291
 6379TIP3   OH219142   1.975   3.422   4.315  0.2238  0.3255 -0.1307
 6379TIP3    H119143   2.041   3.375   4.366  1.0059 -0.0902 -1.4731
 6379TIP3    H219144   2.009   3.511   4.309  0.6775  0.1219 -0.7859
 6380TIP3   OH219145   3.087   2.896   2.755 -1.2630  0.0751  0.2529
 6380TIP3    H119146   3.063   2.948   2.678 -1.8431  1.0908  1.1024
 6380TIP3    H219147   3.137   2.956   2.810  1.1965 -1.2895 -0.3192
 6381TIP3   OH219148   2.337   5.344   0.291  0.5801  0.0150  0.0766
 6381TIP3    H119149   2.338   5.257   0.332 -1.4513 -0.9139 -1.6069
 6381TIP3    H219150   2.306   5.402   0.361  1.5300 -0.6699  1.1093
 6382TIP3   OH219151   0.416   5.261   2.435  0.6021  0.0078  0.1020
 6382TIP3    H119152   0.404   5.344   2.388  4.3000  1.0773  0.6976
 6382TIP3    H219153   0.394   5.282   2.526 -1.2830 -0.5538 -0.1861
 6383TIP3   OH219154   1.387   2.788   2.688 -0.6567  0.4544 -0.0517
 6383TIP3    H119155   1.460   2.773   2.628 -1.3500  0.0841 -0.8177
 6383TIP3    H219156   1.360   2.878   2.672 -0.3850  0.5849  0.2176
 6384TIP3   OH219157   4.387   3.016   4.307 -0.0165  0.0758 -0.2446
 6384TIP3    H119158   4.434   3.093   4.340 -1.2850  0.9863 -0.5016
 6384TIP3    H219159   4.296   3.030   4.333 -0.3703 -1.0605 -0.8008
 6385TIP3   OH219160   0.214   1.603   4.567  0.1478 -0.4148 -0.0060
 6385TIP3    H119161   0.165   1.633   4.643  0.7832  0.1077  0.2052
 6385TIP3    H219162   0.264   1.528   4.599  1.3066  0.5001  0.4252
 6386TIP3   OH219163   5.937   0.976   4.703  0.3587 -0.8851  0.4451
 6386TIP3    H119164   5.842   0.988   4.703  0.3874 -0.5819 -0.4304
 6386TIP3    H219165   5.962   0.981   4.795 -0.2794  0.7412  0.5635
 6387TIP3   OH219166   2.446   3.419   0.468 -0.0555  0.1999  0.3344
 6387TIP3    H119167   2.412   3.331   0.485  0.9947 -0.3295 -0.2221
 6387TIP3    H219168   2.468   3.453   0.555  0.4089 -0.4586  0.4842
 6388TIP3   OH219169   1.301   1.531   3.526  0.3445  0.1285 -0.6010
 6388TIP3    H119170   1.235   1.526   3.596  2.1942 -0.7108  1.2003
 6388TIP3    H219171   1.344   1.615   3.540  0.1902  0.3178 -1.2625
 6389TIP3   OH219172   0.270   5.184   1.289  0.2755  0.1730 -0.2954
 6389TIP3    H119173   0.284   5.164   1.382  1.0530  2.0876  0.0296
 6389TIP3    H219174   0.299   5.104   1.244  0.0564 -0.7245  1.0685
 6390TIP3   OH219175   2.995   2.126   1.170  0.2732 -0.0094  0.1511
 6390TIP3    H119176   2.931   2.188   1.134 -0.7634 -0.6805  0.7856
 6390TIP3    H219177   3.027   2.168   1.249  0.1733  0.0750  0.1470
 6391TIP3   OH219178   0.385   3.720   1.792  0.6049  0.0823 -0.2232
 6391TIP3    H119179   0.356   3.801   1.833 -0.1265  0.7545 -1.9698
 6391TIP3    H219180   0.322   3.654   1.822  0.2316  0.5007 -0.0760
 6392TIP3   OH219181   2.776   3.638   4.217  0.9534  0.0187  0.0970
 6392TIP3    H119182   2.696   3.585   4.210  1.8004 -1.5320  1.3226
 6392TIP3    H219183   2.744   3.728   4.227 -0.5683 -0.3303 -1.1367
 6393TIP3   OH219184   2.816   2.604   4.222 -0.1246  0.5638 -0.5907
 6393TIP3    H119185   2.724   2.631   4.227  0.0429  0.9306  1.0760
 6393TIP3    H219186   2.865   2.685   4.238  0.4887  0.2154 -0.6874
 6394TIP3   OH219187   1.750   0.516   0.442  0.0914  0.1482  0.0065
 6394TIP3    H119188   1.775   0.554   0.526  2.0103 -0.1704 -0.3852
 6394TIP3    H219189   1.819   0.453   0.423 -1.1156 -0.8930 -1.0984
 6395TIP3   OH219190   0.319   1.257   2.170  0.1558  0.1755 -0.1172
 6395TIP3    H119191   0.256   1.329   2.181  1.0323  1.0057 -0.4047
 6395TIP3    H219192   0.379   1.288   2.102  1.3197 -0.2891  0.6644
 6396TIP3   OH219193   3.192   4.669   2.075  0.5468 -0.1666 -0.1725
 6396TIP3    H119194   3.247   4.603   2.117  0.5638  0.6229  1.0996
 6396TIP3    H219195   3.136   4.620   2.014  0.5783 -1.3431  0.7285
 6397TIP3   OH219196   1.454   3.260   4.577 -0.0347 -0.1361  0.2124
 6397TIP3    H119197   1.396   3.238   4.503  0.6068 -1.8694  0.1653
 6397TIP3    H219198   1.523   3.313   4.539 -0.4428  0.1345 -0.1586
 6398TIP3   OH219199   4.840   3.132   1.723 -0.3473  0.0472  0.3162
 6398TIP3    H119200   4.888   3.095   1.797  1.7188 -0.6313 -1.2863
 6398TIP3    H219201   4.795   3.058   1.683 -1.3723  0.3939  0.7962
 6399TIP3   OH219202   2.332   1.627   5.091 -0.3241  0.0179  0.0121
 6399TIP3    H119203   2.280   1.568   5.146  0.8999  0.8467  2.2093
 6399TIP3    H219204   2.295   1.714   5.106  0.7367  0.4158  0.5210
 6400TIP3   OH219205   1.480   1.877   2.627  0.2974 -0.1964 -0.6307
 6400TIP3    H119206   1.543   1.919   2.686 -0.8013  0.2447  0.2710
 6400TIP3    H219207   1.473   1.788   2.660 -2.1844  0.6881  1.6123
 6401TIP3   OH219208   4.275   3.904   3.493  0.0279  0.4359 -1.0626
 6401TIP3    H119209   4.311   3.822   3.525 -0.1805  2.0699  4.3127
 6401TIP3    H219210   4.180   3.888   3.488 -0.0658  0.3578  0.4253
 6402TIP3   OH219211   0.707   0.912   3.600  0.6072 -0.0847 -0.1423
 6402TIP3    H119212   0.764   0.932   3.675  0.5842 -0.2370 -0.0838
 6402TIP3    H219213   0.619   0.927   3.633  0.6291  0.5565 -0.3561
 6403TIP3   OH219214   3.185   3.685   2.768  0.4823 -0.3975 -0.2714
 6403TIP3    H119215   3.194   3.589   2.772  1.2532 -0.4029 -1.4423
 6403TIP3    H219216   3.256   3.719   2.822 -0.5040 -0.4648  1.1192
 6404TIP3   OH219217   0.816   1.141   0.483  0.0645  0.1196 -0.1816
 6404TIP3    H119218   0.751   1.194   0.530  0.8619  0.4594  0.5650
 6404TIP3    H219219   0.896   1.194   0.485  1.4503 -1.8417  2.2514
 6405TIP3   OH219220   6.335   0.295   2.481 -0.3867 -0.0885  0.6540
 6405TIP3    H119221   6.312   0.235   2.410 -0.3626  0.2028  0.3995
 6405TIP3    H219222   6.328   0.242   2.560 -0.0652 -0.5143  0.4012
 6406TIP3   OH219223   1.435   5.778   3.648  0.2061 -0.3388 -0.4680
 6406TIP3    H119224   1.435   5.873   3.650 -0.1370 -0.3411 -0.1004
 6406TIP3    H219225   1.343   5.754   3.655  0.4139 -0.7235  2.6864
 6407TIP3   OH219226   3.169   0.561   4.845  0.2475 -0.1353 -0.4802
 6407TIP3    H119227   3.083   0.588   4.877 -0.4086  0.7194 -2.7802
 6407TIP3    H219228   3.174   0.468   4.865  0.4075  0.4947  3.0151
 6408TIP3   OH219229   4.062   0.230   3.233 -0.2968  0.0719 -0.6241
 6408TIP3    H119230   4.009   0.157   3.265  0.1091  0.2455  0.4916
 6408TIP3    H219231   4.041   0.303   3.292  2.4177 -0.3186  0.9969
 6409TIP3   OH219232   2.204   2.444   3.807  0.0082  0.2785  0.6572
 6409TIP3    H119233   2.114   2.426   3.837  0.2553 -1.0581  0.6785
 6409TIP3    H219234   2.225   2.369   3.751 -0.0295  2.1166 -2.0170
 6410TIP3   OH219235   1.825   2.469   3.658 -0.2799  0.9080 -0.2389
 6410TIP3    H119236   1.867   2.420   3.729 -0.7228 -0.0806 -0.6441
 6410TIP3    H219237   1.897   2.516   3.616  0.2124  0.3702 -0.0238
 6411TIP3   OH219238   3.433   5.950   4.221  0.3512  0.2300 -0.0006
 6411TIP3    H119239   3.475   6.023   4.266 -0.9415  1.2760 -0.4321
 6411TIP3    H219240   3.344   5.979   4.206  0.3525 -0.6484 -1.9755
 6412TIP3   OH219241   4.785   2.540   2.720  0.2343  0.3937 -0.0627
 6412TIP3    H119242   4.808   2.448   2.721  0.8104  0.5294 -0.2936
 6412TIP3    H219243   4.691   2.542   2.701  0.0334 -0.1687  0.8523
 6413TIP3   OH219244   2.435   4.502   3.551  0.3454 -0.3246 -0.7174
 6413TIP3    H119245   2.431   4.577   3.491 -0.0955  0.0839 -0.1932
 6413TIP3    H219246   2.474   4.537   3.630  0.2316 -0.6763 -0.5030
 6414TIP3   OH219247   5.236   1.669   2.362 -0.3321  0.6785  0.0454
 6414TIP3    H119248   5.151   1.705   2.385 -0.1704  2.2871 -1.5822
 6414TIP3    H219249   5.299   1.732   2.398  0.0624  0.7183 -0.6857
 6415TIP3   OH219250   4.185   3.149   2.444  0.0513  0.0816  0.5889
 6415TIP3    H119251   4.213   3.175   2.532 -1.6429  0.7462  0.9605
 6415TIP3    H219252   4.118   3.082   2.459 -0.2387  0.1876 -0.2108
 6416TIP3   OH219253   3.923   5.695   3.823 -0.3464  0.3223 -0.3830
 6416TIP3    H119254   3.903   5.701   3.729 -1.8119 -0.9012 -0.1937
 6416TIP3    H219255   3.863   5.757   3.864 -0.9107 -0.3727 -0.1365
 6417TIP3   OH219256   0.503   0.918   3.003 -0.0600  0.0019  0.1330
 6417TIP3    H119257   0.528   0.870   2.924 -2.5935 -1.2053 -0.0271
 6417TIP3    H219258   0.437   0.981   2.973 -2.1621 -1.4592  1.4015
 6418TIP3   OH219259   0.863   1.893   4.190  0.2881 -0.6827  0.5518
 6418TIP3    H119260   0.937   1.863   4.138  1.0820  0.7471  0.8214
 6418TIP3    H219261   0.888   1.873   4.281 -0.5611 -2.0422  0.5205
 6419TIP3   OH219262   0.754   5.075   4.797 -0.3103  0.6048  0.1923
 6419TIP3    H119263   0.734   5.169   4.798 -3.1142  0.1102  2.5479
 6419TIP3    H219264   0.802   5.060   4.879 -0.4902 -0.1085  0.1727
 6420TIP3   OH219265   3.874   0.385   1.703 -0.2677 -0.1960 -0.0742
 6420TIP3    H119266   3.894   0.439   1.626  0.2936  1.1349  0.9613
 6420TIP3    H219267   3.960   0.361   1.737 -0.5161 -1.7347 -0.4914
 6421TIP3   OH219268   4.494   0.183   2.612 -0.2966 -0.5520  0.2922
 6421TIP3    H119269   4.406   0.219   2.620 -0.2258 -0.7840  2.7837
 6421TIP3    H219270   4.538   0.238   2.547 -1.9386  0.1950 -0.2164
 6422TIP3   OH219271   1.566   2.881   3.367  0.2112  0.2833 -0.0321
 6422TIP3    H119272   1.502   2.904   3.434  1.0794  0.5643  0.7192
 6422TIP3    H219273   1.626   2.821   3.410  0.0260 -0.5904 -0.9533
 6423TIP3   OH219274   0.334   4.355   2.413  0.6830  0.0915  0.6633
 6423TIP3    H119275   0.311   4.401   2.332 -0.0585 -0.9283  0.2679
 6423TIP3    H219276   0.420   4.317   2.395 -0.3788 -1.9463 -0.5071
 6424TIP3   OH219277   4.987   4.344   3.601 -0.0065 -0.5221  0.1020
 6424TIP3    H119278   4.971   4.434   3.632 -0.5457 -0.4002 -0.5027
 6424TIP3    H219279   5.018   4.297   3.678 -2.6269 -0.5944  1.2200
 6425TIP3   OH219280   2.152   1.895   1.519 -0.0950  0.0842  0.8765
 6425TIP3    H119281   2.143   1.864   1.609 -1.0199 -0.3290  0.6488
 6425TIP3    H219282   2.068   1.935   1.498  0.3477  0.8087  0.4263
 6426TIP3   OH219283   1.002   0.533   4.181 -0.4728 -0.5792 -0.1172
 6426TIP3    H119284   0.926   0.513   4.236  0.2940 -2.9977  0.1786
 6426TIP3    H219285   1.077   0.518   4.238  0.2817  0.0062 -0.9375
 6427TIP3   OH219286   3.582   3.774   5.004 -0.2444 -0.1053 -0.1700
 6427TIP3    H119287   3.561   3.803   4.915 -0.8776 -1.6397 -0.5589
 6427TIP3    H219288   3.497   3.756   5.044 -0.0358  1.7125  1.1944
 6428TIP3   OH219289   5.648   2.091   0.895  0.2918  0.4929  0.0869
 6428TIP3    H119290   5.556   2.068   0.893  0.2397  0.7203 -0.0804
 6428TIP3    H219291   5.660   2.151   0.822  1.3773 -2.4989 -2.4124
 6429TIP3   OH219292   5.408   0.318   1.026 -0.2054 -0.0496  0.1825
 6429TIP3    H119293   5.391   0.409   1.050 -1.0754 -0.3112  0.5962
 6429TIP3    H219294   5.330   0.292   0.976 -0.6918 -1.0426  1.4359
 6430TIP3   OH219295   3.735   1.973   0.731  0.9443 -0.5598 -0.0961
 6430TIP3    H119296   3.680   2.008   0.801 -1.8035  0.3543 -2.5215
 6430TIP3    H219297   3.710   1.881   0.725 -1.3934  0.0926 -1.9270
 6431TIP3   OH219298   3.422   2.798   1.209 -0.7843  0.1453  0.2419
 6431TIP3    H119299   3.348   2.831   1.157 -0.3994  0.4965 -0.0883
 6431TIP3    H219300   3.381   2.751   1.281 -1.3440  0.7070  0.3003
 6432TIP3   OH219301   5.833   5.073   5.010 -0.0762  0.1247  0.3434
 6432TIP3    H119302   5.829   4.981   4.982 -0.2938  0.2107  0.0811
 6432TIP3    H219303   5.747   5.108   4.986 -1.0629 -0.2963  2.8973
 6433TIP3   OH219304   1.813   4.408   3.366 -0.4121  0.6255  0.0229
 6433TIP3    H119305   1.847   4.470   3.301  1.3539  1.6216  1.7944
 6433TIP3    H219306   1.830   4.450   3.450 -0.0408 -1.8253  1.2570
 6434TIP3   OH219307   2.442   5.415   3.962  0.8311  0.5592 -0.1023
 6434TIP3    H119308   2.400   5.368   3.890  0.6664  1.8642 -0.8833
 6434TIP3    H219309   2.497   5.480   3.919  1.6597  0.5817  0.9504
 6435TIP3   OH219310   1.130   4.565   0.552  0.1174 -0.0924 -0.1585
 6435TIP3    H119311   1.216   4.531   0.525  1.3556  0.8587  2.2956
 6435TIP3    H219312   1.147   4.656   0.577 -0.7346 -0.8456  3.7972
 6436TIP3   OH219313   2.815   5.236   1.525  0.3114  0.1646  0.3354
 6436TIP3    H119314   2.861   5.320   1.517  0.8634 -0.0559  1.1029
 6436TIP3    H219315   2.881   5.175   1.556 -0.1114 -0.5430 -0.1377
 6437TIP3   OH219316   2.185   4.336   1.611  0.5188 -1.0365  0.0067
 6437TIP3    H119317   2.240   4.262   1.582 -0.2977 -1.2040 -1.2173
 6437TIP3    H219318   2.104   4.295   1.640 -0.4375 -0.5999 -1.8760
 6438TIP3   OH219319   5.163   2.509   4.552  0.6481  0.0729 -0.5214
 6438TIP3    H119320   5.160   2.604   4.539 -2.5735  0.2808  0.8338
 6438TIP3    H219321   5.102   2.474   4.487 -0.7363 -0.6861  1.0990
 6439TIP3   OH219322   0.629   0.961   1.319  0.4098  0.1254 -0.4608
 6439TIP3    H119323   0.586   0.954   1.234  0.9201  2.8443 -1.0383
 6439TIP3    H219324   0.722   0.960   1.300  0.7423 -3.4470  0.5812
 6440TIP3   OH219325   5.185   0.263   1.615 -0.2594  0.6232 -0.5276
 6440TIP3    H119326   5.153   0.265   1.706  0.6880 -1.0998 -0.1152
 6440TIP3    H219327   5.106   0.280   1.563 -1.1964 -0.1701  0.5587
 6441TIP3   OH219328   4.029   1.955   0.827 -0.0658 -0.3019  0.1949
 6441TIP3    H119329   4.052   1.921   0.740  0.0018 -1.3510  0.6194
 6441TIP3    H219330   3.937   1.982   0.818  0.4343  1.2874 -0.6961
 6442TIP3   OH219331   4.257   5.809   5.174 -0.0042 -0.3296 -0.6476
 6442TIP3    H119332   4.281   5.901   5.176  1.4552 -0.6667 -1.2346
 6442TIP3    H219333   4.162   5.809   5.164 -0.2653  1.0922  1.1402
 6443TIP3   OH219334   2.315   3.145   2.076 -0.4284 -0.0973  0.0309
 6443TIP3    H119335   2.308   3.081   2.005  0.0704  0.4989 -0.5731
 6443TIP3    H219336   2.374   3.105   2.139 -1.4696 -0.9567  0.4798
 6444TIP3   OH219337   1.525   3.322   4.963 -0.5089 -0.1906 -0.1036
 6444TIP3    H119338   1.550   3.233   4.988  1.3540  0.7354  1.6521
 6444TIP3    H219339   1.581   3.343   4.888 -0.2772 -0.1889  0.0680
 6445TIP3   OH219340   4.255   1.358   1.591 -0.7010  0.1522 -0.2522
 6445TIP3    H119341   4.187   1.405   1.639 -1.3232 -1.8163  0.8819
 6445TIP3    H219342   4.331   1.359   1.649 -0.4072  0.5322 -0.6307
 6446TIP3   OH219343   6.008   0.338   1.622 -0.3183 -0.2416 -0.7013
 6446TIP3    H119344   6.055   0.405   1.572  1.5092 -0.7858  0.1877
 6446TIP3    H219345   5.925   0.380   1.646  0.7795  1.7369 -0.1651
 6447TIP3   OH219346   2.154   0.401   0.032 -0.1853 -0.1846  1.0200
 6447TIP3    H119347   2.181   0.356   0.113  0.0768  0.2231  1.1583
 6447TIP3    H219348   2.105   0.477   0.063  0.8722  0.5875  0.8131
 6448TIP3   OH219349   5.243   2.972   0.636  0.1158 -1.0610  0.1641
 6448TIP3    H119350   5.227   3.046   0.578  0.2232 -2.0266 -1.1326
 6448TIP3    H219351   5.310   2.921   0.591  0.2820 -1.7746  1.2044
 6449TIP3   OH219352   3.694   1.994   4.180  0.2491  0.1346  0.5171
 6449TIP3    H119353   3.680   1.900   4.175  0.5452 -0.0290  2.1605
 6449TIP3    H219354   3.658   2.019   4.266 -1.1425  1.7691 -0.4641
 6450TIP3   OH219355   0.700   4.575   0.607 -0.0010 -0.0770 -0.6679
 6450TIP3    H119356   0.696   4.511   0.678  1.6308 -0.1534 -0.6001
 6450TIP3    H219357   0.618   4.624   0.614 -0.1934 -0.5587  0.8085
 6451TIP3   OH219358   3.007   2.718   1.135 -0.5312  0.0373  0.2009
 6451TIP3    H119359   3.031   2.627   1.121  0.6294  0.4538 -0.7414
 6451TIP3    H219360   2.981   2.723   1.227 -0.1988 -1.1523  0.3737
 6452TIP3   OH219361   4.775   0.586   2.445  0.1741 -0.4820  0.0719
 6452TIP3    H119362   4.757   0.663   2.499  0.8824 -0.7413  0.7002
 6452TIP3    H219363   4.752   0.613   2.356  1.3123  0.7942  0.1276
 6453TIP3   OH219364   5.596   4.510   5.087  0.5344 -0.3856 -0.0268
 6453TIP3    H119365   5.555   4.429   5.055  0.4015 -0.5592  0.5789
 6453TIP3    H219366   5.549   4.530   5.168  2.0348 -0.9128  1.0048
 6454TIP3   OH219367   2.336   5.157   1.272  0.0654 -0.0365 -0.3537
 6454TIP3    H119368   2.366   5.066   1.275  0.9601  0.2578  2.1313
 6454TIP3    H219369   2.373   5.192   1.191 -0.9894 -2.0522 -1.7982
 6455TIP3   OH219370   4.814   3.868   3.401 -0.6339  0.0192 -0.3536
 6455TIP3    H119371   4.722   3.848   3.385 -0.5323  0.4683 -1.6487
 6455TIP3    H219372   4.845   3.799   3.460 -2.0218  0.3991  0.8672
 6456TIP3   OH219373   5.597   3.513   1.017 -0.7325 -0.1331  0.3616
 6456TIP3    H119374   5.545   3.489   1.093  0.5075  0.8728  1.5681
 6456TIP3    H219375   5.666   3.569   1.051  0.2620 -0.1961 -1.4075
 6457TIP3   OH219376   1.340   0.049   3.702 -0.0086 -0.6117  0.6994
 6457TIP3    H119377   1.401   0.042   3.775 -2.0485 -0.0878  2.5728
 6457TIP3    H219378   1.358   0.134   3.664  0.8038 -0.7090  0.8518
 6458TIP3   OH219379   4.292   5.382   5.054  0.3133 -0.4610  0.0921
 6458TIP3    H119380   4.321   5.462   5.011  2.2265 -1.5607 -0.8097
 6458TIP3    H219381   4.291   5.404   5.147  1.1448  0.5257 -0.1117
 6459TIP3   OH219382   0.087   4.944   3.373 -0.5405  0.0110  0.3383
 6459TIP3    H119383   0.043   5.029   3.376  0.7575  0.7683 -0.9379
 6459TIP3    H219384   0.177   4.964   3.347 -0.4936 -1.8386 -1.1460
 6460TIP3   OH219385   3.718   5.936   4.387  0.2429 -0.2520  0.2200
 6460TIP3    H119386   3.642   5.931   4.445 -0.5334  0.7224 -0.6616
 6460TIP3    H219387   3.708   5.861   4.328 -0.3349  0.1737 -0.2297
 6461TIP3   OH219388   0.840   2.681   2.771  0.6958 -0.2445 -0.6879
 6461TIP3    H119389   0.920   2.734   2.775  0.9827 -0.7424  0.6751
 6461TIP3    H219390   0.785   2.714   2.842 -0.0292 -0.3726 -1.1749
 6462TIP3   OH219391   5.293   3.687   2.980 -0.5896  0.0237  0.1799
 6462TIP3    H119392   5.372   3.634   2.996  0.2028  1.0371 -0.2672
 6462TIP3    H219393   5.271   3.724   3.065 -0.3032  0.1042  0.2216
 6463TIP3   OH219394   4.238   5.952   4.361 -0.4470  0.3508  0.3002
 6463TIP3    H119395   4.186   6.008   4.419  0.8138  1.8967  0.0015
 6463TIP3    H219396   4.174   5.914   4.300 -1.2412  2.3039 -0.1356
 6464TIP3   OH219397   5.567   3.549   1.887 -0.5165 -0.5213 -0.0619
 6464TIP3    H119398   5.616   3.545   1.969 -0.6365 -0.4220  0.0155
 6464TIP3    H219399   5.512   3.471   1.888 -0.6871 -0.4014  0.0616
 6465TIP3   OH219400   2.106   1.616   2.255 -0.1132 -0.5216  0.2430
 6465TIP3    H119401   2.071   1.534   2.290 -0.1434 -0.2865  0.7765
 6465TIP3    H219402   2.066   1.624   2.168 -0.6223 -0.7528  0.4497
 6466TIP3   OH219403   3.899   5.953   3.953 -0.3672 -0.5242 -0.2673
 6466TIP3    H119404   3.908   5.978   3.861  1.0762  1.1334  0.2526
 6466TIP3    H219405   3.806   5.963   3.972 -1.0372 -2.6875 -1.9608
 6467TIP3   OH219406   0.563   4.227   2.363  0.1422 -0.6567 -0.2324
 6467TIP3    H119407   0.612   4.178   2.297  2.4167  1.4735 -0.3039
 6467TIP3    H219408   0.600   4.198   2.447 -0.0973 -0.6747 -0.1322
 6468TIP3   OH219409   6.130   0.464   2.536  0.1969 -0.0567 -0.1655
 6468TIP3    H119410   6.115   0.430   2.624  0.1981  2.0394  0.7191
 6468TIP3    H219411   6.218   0.435   2.514 -0.1717 -1.4459  0.0836
 6469TIP3   OH219412   1.704   5.657   4.171 -0.4116  0.3189  0.6690
 6469TIP3    H119413   1.712   5.573   4.126 -0.0717 -0.1503  1.5721
 6469TIP3    H219414   1.755   5.718   4.117  0.6184 -0.3967  0.8083
 6470TIP3   OH219415   6.158   5.760   2.254  0.7083 -0.4861 -0.3605
 6470TIP3    H119416   6.089   5.727   2.196 -0.3765  1.7289 -0.4733
 6470TIP3    H219417   6.201   5.682   2.288  0.4364 -1.9020 -3.0055
 6471TIP3   OH219418   3.307   3.829   1.385  0.0112  0.0808 -0.3141
 6471TIP3    H119419   3.387   3.799   1.343  0.5396  0.9655  0.0352
 6471TIP3    H219420   3.333   3.907   1.435 -0.8589 -0.1809  0.5958
 6472TIP3   OH219421   0.761   2.282   3.466 -0.0351 -0.1721 -0.1507
 6472TIP3    H119422   0.774   2.372   3.435 -1.3123  0.4077  0.8922
 6472TIP3    H219423   0.816   2.229   3.408  0.3640  1.2175 -1.1166
 6473TIP3   OH219424   2.398   3.207   1.663  0.3372  0.2302  0.1996
 6473TIP3    H119425   2.491   3.223   1.673  0.0713  3.3900 -1.1750
 6473TIP3    H219426   2.377   3.241   1.576 -1.9425 -1.3022  0.0599
 6474TIP3   OH219427   1.420   1.517   2.247  0.2648  0.2867 -0.0882
 6474TIP3    H119428   1.494   1.528   2.306 -0.5940  0.4968  0.9833
 6474TIP3    H219429   1.362   1.591   2.267 -0.6851 -0.4005 -0.2198
 6475TIP3   OH219430   3.375   1.724   4.382  0.2454 -0.4771 -0.3403
 6475TIP3    H119431   3.401   1.743   4.472  1.4462 -0.8240 -0.6008
 6475TIP3    H219432   3.381   1.809   4.337  1.7856 -0.6880 -0.5870
 6476TIP3   OH219433   5.589   5.945   0.353 -0.3701 -0.0013  0.2093
 6476TIP3    H119434   5.558   5.933   0.443 -0.8799  1.4978  0.2602
 6476TIP3    H219435   5.657   6.011   0.359 -2.1019  2.0120 -0.7485
 6477TIP3   OH219436   5.499   3.666   4.497  0.2814 -0.3241  0.5211
 6477TIP3    H119437   5.499   3.590   4.438  0.8268  0.1275 -0.0803
 6477TIP3    H219438   5.409   3.699   4.494  0.1290 -0.7449  0.5154
 6478TIP3   OH219439   4.739   1.434   0.636 -0.4248  0.2079 -0.4683
 6478TIP3    H119440   4.786   1.416   0.717 -0.5771  0.7517 -0.2572
 6478TIP3    H219441   4.806   1.468   0.577 -0.3277 -0.1206 -0.5488
 6479TIP3   OH219442   5.624   2.619   2.235 -0.1730  0.1498  0.3352
 6479TIP3    H119443   5.559   2.659   2.293  0.4488 -3.0600  3.6302
 6479TIP3    H219444   5.708   2.638   2.277  0.3512 -1.9142  0.2978
 6480TIP3   OH219445   3.555   1.299   0.267 -0.0904 -0.0389 -0.0049
 6480TIP3    H119446   3.461   1.289   0.257 -0.0877  0.3987 -0.4993
 6480TIP3    H219447   3.574   1.263   0.354 -0.7578  0.1699  0.2347
 6481TIP3   OH219448   2.630   2.950   1.053  0.0485 -0.0610  0.2752
 6481TIP3    H119449   2.542   2.916   1.072 -1.2047  3.2335  1.0323
 6481TIP3    H219450   2.617   3.044   1.042  3.3823  0.3997 -0.5896
 6482TIP3   OH219451   1.234   5.372   0.747  0.4306  0.3022  0.2582
 6482TIP3    H119452   1.327   5.375   0.726  1.0784 -3.4642  1.7754
 6482TIP3    H219453   1.197   5.313   0.681 -0.6774  0.8889  0.3392
 6483TIP3   OH219454   4.935   2.341   1.596  0.2459  0.3126  0.4340
 6483TIP3    H119455   4.986   2.422   1.603 -1.2863  1.2174  1.7683
 6483TIP3    H219456   4.960   2.290   1.673  0.6189 -0.1598  0.0098
 6484TIP3   OH219457   1.610   4.678   4.914 -0.2567 -0.2925  0.2928
 6484TIP3    H119458   1.604   4.646   5.004 -2.1240  0.2728  0.4196
 6484TIP3    H219459   1.704   4.689   4.899  0.1259 -0.8579  1.9980
 6485TIP3   OH219460   3.925   2.277   2.769  0.3332  0.4758 -0.4376
 6485TIP3    H119461   3.864   2.290   2.841  1.7277  0.3528  0.8143
 6485TIP3    H219462   3.889   2.329   2.697  0.1025  2.4519  1.0425
 6486TIP3   OH219463   0.003   5.795   5.066 -0.2501  0.8523  0.0390
 6486TIP3    H119464  -0.021   5.883   5.098 -0.9827 -0.4938  3.7880
 6486TIP3    H219465   0.099   5.794   5.067 -0.2328  1.2362  1.4191
 6487TIP3   OH219466   6.213   5.567   4.614 -0.2873 -0.5040 -0.3934
 6487TIP3    H119467   6.189   5.563   4.707 -1.4191 -0.2788 -0.6625
 6487TIP3    H219468   6.176   5.487   4.576 -0.8455 -0.0212 -0.8741
 6488TIP3   OH219469   4.956   5.167   2.435 -0.3534 -0.1275 -0.7031
 6488TIP3    H119470   5.051   5.156   2.440 -0.1046  0.6252 -2.7788
 6488TIP3    H219471   4.927   5.096   2.378 -1.5031 -2.1996  2.2784
 6489TIP3   OH219472   5.373   2.995   2.372  0.2410 -0.2828  0.0674
 6489TIP3    H119473   5.309   2.933   2.406  1.3679 -1.3747  0.2409
 6489TIP3    H219474   5.350   3.004   2.279  0.0143 -0.8862  0.0621
 6490TIP3   OH219475   1.414   2.082   1.861  0.1615 -0.0863  0.2595
 6490TIP3    H119476   1.414   2.071   1.956  1.0535 -0.5092  0.2231
 6490TIP3    H219477   1.470   2.011   1.829  0.1371  0.2507 -0.5530
 6491TIP3   OH219478   5.989   3.518   2.187 -0.2375  0.0912  0.2745
 6491TIP3    H119479   5.910   3.565   2.215 -0.6153 -0.7909  0.6984
 6491TIP3    H219480   6.056   3.587   2.181 -0.3057  0.4520  2.6604
 6492TIP3   OH219481   1.366   3.573   0.626 -0.1943 -0.4349 -0.0134
 6492TIP3    H119482   1.460   3.590   0.634 -0.0885 -1.0461  0.0230
 6492TIP3    H219483   1.338   3.546   0.714 -0.3944 -0.3374 -0.0444
 6493TIP3   OH219484   2.027   0.403   0.984 -0.1016  0.4221 -0.0380
 6493TIP3    H119485   1.983   0.479   1.020 -1.7759 -0.0646 -0.9810
 6493TIP3    H219486   1.990   0.329   1.031  1.5411  0.1380  0.9021
 6494TIP3   OH219487   3.380   4.747   3.993  1.0675 -0.0914 -0.2527
 6494TIP3    H119488   3.363   4.653   3.991  0.3027 -0.0195  1.5064
 6494TIP3    H219489   3.431   4.761   4.073  1.9765  0.8826 -0.9730
 6495TIP3   OH219490   3.013   3.060   2.986 -0.1041  0.4137 -0.2357
 6495TIP3    H119491   3.011   3.098   3.074 -0.1701 -0.4012  0.1217
 6495TIP3    H219492   3.084   3.105   2.942  0.6227  0.0950  0.5795
 6496TIP3   OH219493   4.741   3.467   3.260  0.5043 -0.0893 -0.1461
 6496TIP3    H119494   4.753   3.515   3.179 -0.9442 -0.8329 -0.8318
 6496TIP3    H219495   4.819   3.410   3.266  1.4006  1.1050 -0.1626
 6497TIP3   OH219496   6.060   3.676   2.899  0.3194 -0.5299  0.6316
 6497TIP3    H119497   6.057   3.656   2.805 -0.3376 -0.6245  0.6664
 6497TIP3    H219498   6.023   3.599   2.941 -1.2783  0.3091  0.8320
 6498TIP3   OH219499   4.921   0.889   0.389  0.1378 -0.5038 -0.4878
 6498TIP3    H119500   4.883   0.971   0.360 -0.3876 -0.9701 -1.1540
 6498TIP3    H219501   4.989   0.870   0.324  1.1197  0.0291  0.3676
 6499TIP3   OH219502   4.782   3.216   4.912  0.6854 -0.2088 -0.0694
 6499TIP3    H119503   4.835   3.255   4.843 -0.7051 -0.0846 -1.1237
 6499TIP3    H219504   4.713   3.169   4.865  0.6340 -1.4958  1.2166
 6500TIP3   OH219505   1.934   0.879   1.880  0.2430  0.3782  0.2926
 6500TIP3    H119506   1.877   0.818   1.835  0.0043 -0.0888  1.2026
 6500TIP3    H219507   1.970   0.934   1.811 -0.4698 -0.0169 -0.4045
 6501TIP3   OH219508   1.405   4.096   3.712  0.0247 -0.1417  0.2613
 6501TIP3    H119509   1.393   4.186   3.682  0.1417 -0.2947 -0.2412
 6501TIP3    H219510   1.343   4.087   3.784  1.6528  1.0858  1.9235
 6502TIP3   OH219511   4.770   2.476   2.076 -0.2457  0.0682 -0.4046
 6502TIP3    H119512   4.829   2.538   2.033  0.5331 -1.5183 -1.7678
 6502TIP3    H219513   4.730   2.427   2.004 -2.1805  0.1361  0.5550
 6503TIP3   OH219514   1.903   2.322   0.816  0.0352  0.6746  0.3869
 6503TIP3    H119515   1.850   2.257   0.770  0.5871  0.3709  0.1622
 6503TIP3    H219516   1.850   2.348   0.891 -1.7995  2.7492 -1.5166
 6504TIP3   OH219517   0.120   2.242   2.744 -0.0814  0.5665  0.0945
 6504TIP3    H119518   0.100   2.149   2.740 -1.1764  0.8216 -0.9826
 6504TIP3    H219519   0.210   2.246   2.779  0.1873 -0.9024 -0.3532
 6505TIP3   OH219520   1.820   5.136   4.947  0.0126  0.3920 -0.2134
 6505TIP3    H119521   1.843   5.154   5.039  1.4144 -0.3240 -0.3979
 6505TIP3    H219522   1.742   5.189   4.931 -0.5738  0.1225  1.5444
 6506TIP3   OH219523   4.086   5.283   4.845 -0.0397 -0.5690 -0.2838
 6506TIP3    H119524   4.139   5.269   4.923 -1.4623  1.6498  1.1890
 6506TIP3    H219525   4.000   5.249   4.867 -0.7666  1.0759 -0.3891
 6507TIP3   OH219526   3.914   1.734   3.646  0.5990  0.1083  0.7175
 6507TIP3    H119527   3.920   1.778   3.731  0.4752  0.2017  0.6780
 6507TIP3    H219528   3.985   1.772   3.595  0.4142  0.3551  0.6417
 6508TIP3   OH219529   2.688   5.152   4.345  0.1775  0.5540  0.4785
 6508TIP3    H119530   2.676   5.196   4.429 -0.7023 -2.2235  1.9392
 6508TIP3    H219531   2.775   5.113   4.351 -0.1195 -0.1392  0.3513
 6509TIP3   OH219532   4.213   2.176   2.756 -0.1578 -0.0519  0.4060
 6509TIP3    H119533   4.181   2.107   2.815 -0.5453 -0.6453 -0.4910
 6509TIP3    H219534   4.135   2.211   2.715  0.2126 -0.6376 -0.8393
 6510TIP3   OH219535   4.254   3.140   4.788 -0.1049 -0.0557 -0.1943
 6510TIP3    H119536   4.243   3.230   4.756 -0.3730 -0.0451 -0.0801
 6510TIP3    H219537   4.183   3.092   4.746 -0.4557 -0.0427  0.3772
 6511TIP3   OH219538   1.450   0.113   1.783 -0.1562 -0.1360  0.4667
 6511TIP3    H119539   1.481   0.195   1.744  0.9697  0.3395  2.2525
 6511TIP3    H219540   1.529   0.070   1.815 -1.0328 -0.2460  2.6608
 6512TIP3   OH219541   6.147   3.302   2.184 -0.0443 -0.4862 -0.0484
 6512TIP3    H119542   6.191   3.352   2.252  0.4758 -1.1447  0.1065
 6512TIP3    H219543   6.110   3.368   2.125  3.0365  0.1282 -1.4614
 6513TIP3   OH219544   3.891   5.200   1.079  0.0509 -0.6231 -0.0225
 6513TIP3    H119545   3.895   5.135   1.149 -2.0260  1.5897  2.4136
 6513TIP3    H219546   3.947   5.272   1.110 -1.3901  0.6522 -0.2409
 6514TIP3   OH219547   6.303   0.548   4.358 -0.3549  0.0198 -0.0309
 6514TIP3    H119548   6.331   0.494   4.284 -0.3018 -0.2991  0.2186
 6514TIP3    H219549   6.207   0.541   4.358 -0.6214  2.3549 -1.8349
 6515TIP3   OH219550   2.569   3.356   3.673 -0.2023  0.6058 -0.3731
 6515TIP3    H119551   2.553   3.336   3.580 -3.3770 -0.2722  0.2679
 6515TIP3    H219552   2.566   3.271   3.716 -0.2915  1.1762  0.7576
 6516TIP3   OH219553   5.690   0.628   3.123  1.0700 -0.6145  0.9437
 6516TIP3    H119554   5.783   0.640   3.144  0.6636 -0.4626  2.8567
 6516TIP3    H219555   5.673   0.536   3.144  0.8036 -0.6677  0.5060
 6517TIP3   OH219556   2.257   1.109   1.889  0.6186 -0.3882 -0.1485
 6517TIP3    H119557   2.327   1.127   1.827  0.4552 -0.5644 -0.3848
 6517TIP3    H219558   2.185   1.076   1.836  1.7058 -4.2635  0.4089
 6518TIP3   OH219559   4.397   0.437   0.711  0.1169 -0.2853 -0.0452
 6518TIP3    H119560   4.318   0.483   0.739 -0.7599 -3.0085  2.6166
 6518TIP3    H219561   4.468   0.483   0.755 -0.7926 -1.5859  3.0957
 6519TIP3   OH219562   4.290   4.816   1.805 -0.4985  0.0135 -0.0442
 6519TIP3    H119563   4.337   4.872   1.744  0.7951 -0.3374  0.6021
 6519TIP3    H219564   4.200   4.816   1.773 -0.3512  1.7500 -0.5679
 6520TIP3   OH219565   4.691   0.985   2.251 -0.5451  0.0430 -0.2024
 6520TIP3    H119566   4.662   0.955   2.165 -1.1660  0.5048 -0.1626
 6520TIP3    H219567   4.767   1.040   2.233  0.0286 -0.7751 -0.3505
 6521TIP3   OH219568   0.395   1.445   4.670 -0.2553  0.6118  0.3736
 6521TIP3    H119569   0.420   1.364   4.716 -1.6194  1.2568  2.3731
 6521TIP3    H219570   0.478   1.491   4.657  0.4784 -0.8155 -0.2982
 6522TIP3   OH219571   3.994   4.849   3.796 -0.0255  0.0162  0.2279
 6522TIP3    H119572   4.023   4.780   3.856  1.2207  0.9370  0.7207
 6522TIP3    H219573   3.900   4.856   3.811  0.0601 -0.6520  1.1489
 6523TIP3   OH219574   5.057   3.671   4.890 -0.2800 -0.1376  0.5152
 6523TIP3    H119575   5.047   3.587   4.936  0.5331 -0.8698 -0.5643
 6523TIP3    H219576   5.149   3.670   4.861 -0.3069  1.0733  0.3692
 6524TIP3   OH219577   1.495   0.308   3.798 -0.0342 -0.1438  0.0636
 6524TIP3    H119578   1.452   0.301   3.713  1.3081  1.5262 -0.8379
 6524TIP3    H219579   1.448   0.379   3.842 -1.2789 -1.5719  1.1195
 6525TIP3   OH219580   4.939   5.283   1.890  0.8504 -0.1713 -0.1785
 6525TIP3    H119581   4.981   5.198   1.891  2.6205  0.6592  1.0451
 6525TIP3    H219582   4.846   5.264   1.907  0.9922 -1.9097 -1.1583
 6526TIP3   OH219583   3.909   2.037   1.152 -0.1709 -0.0743 -0.0389
 6526TIP3    H119584   3.891   1.950   1.118 -1.1563  0.0519  0.1334
 6526TIP3    H219585   3.866   2.097   1.091 -0.8531  0.2110  0.7065
 6527TIP3   OH219586   1.271   4.545   2.395  0.4672 -0.7252 -0.2935
 6527TIP3    H119587   1.297   4.570   2.483 -1.8609 -3.4412  1.3401
 6527TIP3    H219588   1.246   4.627   2.353  0.4529  0.5161  1.9847
 6528TIP3   OH219589   4.176   5.121   0.776  0.3595 -1.0281  0.9693
 6528TIP3    H119590   4.245   5.077   0.826 -0.2330 -0.9278  1.9217
 6528TIP3    H219591   4.187   5.214   0.796  1.2967 -0.7673 -0.6395
 6529TIP3   OH219592   1.515   0.605   3.746  0.2670  0.7740 -0.0727
 6529TIP3    H119593   1.597   0.560   3.726 -0.5646 -1.6640  1.5010
 6529TIP3    H219594   1.526   0.634   3.837 -1.4008 -1.8005  1.0618
 6530TIP3   OH219595   2.372   0.006   2.494  0.2399 -0.2619  0.0799
 6530TIP3    H119596   2.297   0.066   2.489 -0.0240 -0.3460  2.1513
 6530TIP3    H219597   2.384  -0.024   2.404 -1.8201  0.2441 -0.4319
 6531TIP3   OH219598   4.879   4.704   2.384 -0.1931 -0.1033  0.9303
 6531TIP3    H119599   4.836   4.627   2.348 -0.8455  0.9500 -0.6863
 6531TIP3    H219600   4.961   4.672   2.422 -0.2681 -1.5186 -0.0570
 6532TIP3   OH219601   5.229   3.706   1.737  0.5636  0.3673 -0.0599
 6532TIP3    H119602   5.139   3.735   1.722 -0.0034 -0.6903  1.1508
 6532TIP3    H219603   5.280   3.749   1.668 -0.8520  1.0179 -0.7312
 6533TIP3   OH219604   5.161   4.055   2.509 -0.5860  0.6214  0.3403
 6533TIP3    H119605   5.217   3.981   2.487 -0.9102  0.8893 -1.5276
 6533TIP3    H219606   5.219   4.117   2.554  0.2029  0.1596 -0.0266
 6534TIP3   OH219607   1.171   5.668   1.309  0.1637 -0.0181  0.1467
 6534TIP3    H119608   1.259   5.699   1.288 -0.0198  0.7282  0.4575
 6534TIP3    H219609   1.132   5.648   1.224  0.3030  0.5512 -0.0512
 6535TIP3   OH219610   0.954   1.000   2.518  0.4016  0.1306 -0.3025
 6535TIP3    H119611   0.935   0.977   2.609 -0.4249  0.4441 -0.3875
 6535TIP3    H219612   1.049   1.006   2.514  0.5696 -1.6877  0.1037
 6536TIP3   OH219613   1.700   1.405   3.577  0.2857  0.0985 -0.3828
 6536TIP3    H119614   1.667   1.440   3.494  1.1542 -0.0274 -0.7847
 6536TIP3    H219615   1.638   1.336   3.600 -0.7115  1.0053 -0.2433
 6537TIP3   OH219616   3.354   1.985   1.110 -0.3786  0.3121 -0.0486
 6537TIP3    H119617   3.348   1.906   1.056 -0.9681  0.7239 -0.6083
 6537TIP3    H219618   3.378   1.953   1.197 -1.1701 -0.5477 -0.1247
 6538TIP3   OH219619   0.416   3.273   3.208  0.2827  0.1780  0.0001
 6538TIP3    H119620   0.451   3.350   3.164  0.6471 -1.2546 -2.4309
 6538TIP3    H219621   0.387   3.304   3.293 -2.1652  3.6397 -1.8417
 6539TIP3   OH219622   5.635   2.931   2.390  0.4942  0.2231 -0.1805
 6539TIP3    H119623   5.544   2.949   2.415  0.5094  0.2967 -0.1780
 6539TIP3    H219624   5.632   2.924   2.295  0.3319 -0.6499 -0.1216
 6540TIP3   OH219625   6.274   4.963   1.921  0.1040  0.3737 -0.7390
 6540TIP3    H119626   6.267   5.051   1.884 -2.6427  0.2093 -0.7929
 6540TIP3    H219627   6.185   4.929   1.919  1.0441 -2.3236 -0.4432
 6541TIP3   OH219628   3.588   5.560   3.008 -0.4657  0.6395 -0.6934
 6541TIP3    H119629   3.681   5.539   3.000 -0.2305  1.6323 -0.6349
 6541TIP3    H219630   3.572   5.627   2.942 -1.4398 -0.4268 -1.5737
 6542TIP3   OH219631   1.219   3.576   2.533  0.1267  0.8693  0.1595
 6542TIP3    H119632   1.196   3.657   2.578  1.5168  0.6665  1.3058
 6542TIP3    H219633   1.210   3.508   2.600  1.4726  0.4478 -0.0694
 6543TIP3   OH219634   5.341   5.318   4.964  0.2182  0.5572  0.1193
 6543TIP3    H119635   5.249   5.342   4.969  0.0811 -0.0049  0.4282
 6543TIP3    H219636   5.388   5.401   4.952 -0.4808  0.6727 -2.2537
 6544TIP3   OH219637   1.768   3.965   3.843  0.2716 -0.4109 -0.6608
 6544TIP3    H119638   1.725   3.900   3.899  0.8636 -0.1232  0.1489
 6544TIP3    H219639   1.842   3.920   3.804  0.1967 -0.4510 -0.7568
 6545TIP3   OH219640   0.542   3.804   2.425 -0.0125  0.0396 -0.0635
 6545TIP3    H119641   0.577   3.769   2.343 -0.9443  0.3267 -0.5945
 6545TIP3    H219642   0.537   3.727   2.483  1.2151 -0.0558 -0.0511
 6546TIP3   OH219643   4.278   5.556   1.310  0.2232  0.0059  0.0675
 6546TIP3    H119644   4.301   5.482   1.368 -0.7435  1.0564  1.8731
 6546TIP3    H219645   4.332   5.628   1.342  0.0519  0.4806 -0.7045
 6547TIP3   OH219646   3.073   4.926   0.871  0.4547  0.7047 -0.0116
 6547TIP3    H119647   3.115   4.945   0.955  0.4435  0.7246 -0.0107
 6547TIP3    H219648   3.146   4.911   0.811  0.4608  0.2250  0.1105
 6548TIP3   OH219649   2.397   0.151   3.417  0.1401  0.0490 -0.1670
 6548TIP3    H119650   2.357   0.165   3.503 -1.8391  0.4081 -1.0913
 6548TIP3    H219651   2.398   0.055   3.406  1.9240 -0.1101  0.8714
 6549TIP3   OH219652   2.900   3.718   1.385 -0.5615 -0.0587  0.3343
 6549TIP3    H119653   2.975   3.669   1.352 -1.5383 -0.7542 -0.9682
 6549TIP3    H219654   2.925   3.810   1.376  0.6446 -0.2808  1.2093
 6550TIP3   OH219655   2.266   4.590   0.071 -0.2283 -0.1417 -0.2354
 6550TIP3    H119656   2.332   4.521   0.073 -1.2839 -1.1766  0.7351
 6550TIP3    H219657   2.315   4.671   0.085  1.1107 -0.5874 -1.9869
 6551TIP3   OH219658   4.935   2.743   0.324  0.3769  0.1927 -0.2804
 6551TIP3    H119659   4.891   2.786   0.397  0.1431 -0.1671 -0.2023
 6551TIP3    H219660   4.950   2.812   0.260  0.4673  0.4842  0.0565
 6552TIP3   OH219661   2.843   3.360   2.498  1.0980  0.0481 -0.0838
 6552TIP3    H119662   2.792   3.361   2.579  1.9130  3.1607  0.5215
 6552TIP3    H219663   2.930   3.332   2.525  1.1402  0.2255 -0.0322
 6553TIP3   OH219664   5.518   0.840   0.418  0.0796  0.3815 -0.1285
 6553TIP3    H119665   5.551   0.857   0.330 -0.0243  2.1941  0.1612
 6553TIP3    H219666   5.560   0.906   0.473 -2.5129  1.5285  0.5794
 6554TIP3   OH219667   6.354   3.200   2.793  0.4592 -1.1540 -0.2088
 6554TIP3    H119668   6.347   3.160   2.706 -0.7595  1.3141 -1.3238
 6554TIP3    H219669   6.274   3.173   2.838 -0.2031 -0.2978 -0.8398
 6555TIP3   OH219670   5.786   2.170   5.000 -0.6131  0.0832  0.0636
 6555TIP3    H119671   5.781   2.161   4.904 -1.0949  0.5182  0.0395
 6555TIP3    H219672   5.849   2.104   5.027 -0.6283 -0.1881 -0.5374
 6556TIP3   OH219673   4.047   3.371   0.264  0.2514 -0.5178 -0.1237
 6556TIP3    H119674   4.034   3.465   0.253 -0.2132 -0.6260 -0.5325
 6556TIP3    H219675   4.048   3.357   0.359  0.1179 -0.1325 -0.0674
 6557TIP3   OH219676   1.691   2.048   5.095  0.0589 -0.3450 -0.0309
 6557TIP3    H119677   1.649   1.999   5.166 -1.5976 -0.4822 -1.0556
 6557TIP3    H219678   1.620   2.095   5.052  1.0993  0.1879 -1.2666
 6558TIP3   OH219679   3.761   4.326   0.092 -0.2207  0.6518 -0.4719
 6558TIP3    H119680   3.674   4.289   0.077 -0.7481  1.3622  0.6535
 6558TIP3    H219681   3.752   4.375   0.174  1.5868 -0.3332  0.3830
 6559TIP3   OH219682   1.997   0.302   5.020  0.4825 -0.1324  0.3444
 6559TIP3    H119683   1.930   0.234   5.006  0.5106  0.0177 -0.5718
 6559TIP3    H219684   1.948   0.375   5.058  0.4459 -0.6316  1.3076
 6560TIP3   OH219685   0.664   3.713   0.922  0.0917 -0.2999 -0.4847
 6560TIP3    H119686   0.711   3.724   1.005 -0.0702 -2.3454 -0.0618
 6560TIP3    H219687   0.726   3.668   0.865  0.0948  0.8307 -1.3889
 6561TIP3   OH219688   0.096   1.199   1.985  0.3533  0.0586 -0.9070
 6561TIP3    H119689   0.005   1.173   2.002  0.2971  0.8854  0.1082
 6561TIP3    H219690   0.133   1.216   2.071  1.3498  0.1661 -1.3429
 6562TIP3   OH219691   5.593   0.862   4.347 -0.1940 -0.2762  0.0823
 6562TIP3    H119692   5.578   0.770   4.368  1.5919 -0.4939  0.5623
 6562TIP3    H219693   5.686   0.877   4.366 -0.2182  1.3955 -0.8526
 6563TIP3   OH219694   0.710   4.654   2.515 -0.2324 -0.0781  0.0720
 6563TIP3    H119695   0.655   4.579   2.536 -1.0568  0.3576 -0.4736
 6563TIP3    H219696   0.768   4.664   2.591 -2.2146  0.6356  1.5665
 6564TIP3   OH219697   5.968   3.314   3.989  0.0959  0.5523  0.5136
 6564TIP3    H119698   5.960   3.233   3.939  0.7966  1.0820 -0.4892
 6564TIP3    H219699   5.972   3.285   4.080 -2.1587 -0.3681  0.3712
 6565TIP3   OH219700   4.762   0.363   3.647 -0.3413 -0.2657  0.4004
 6565TIP3    H119701   4.735   0.332   3.561  1.6738 -3.2797  0.7156
 6565TIP3    H219702   4.790   0.454   3.633 -2.0785  0.0211 -1.6044
 6566TIP3   OH219703   2.258   5.445   1.827  0.1713 -0.6358  0.1212
 6566TIP3    H119704   2.261   5.441   1.923 -1.1760  0.1329  0.2271
 6566TIP3    H219705   2.243   5.354   1.800 -0.2578 -0.7453  0.7004
 6567TIP3   OH219706   5.909   4.203   4.431 -0.0806 -0.4149  0.6038
 6567TIP3    H119707   5.934   4.293   4.450  0.3116 -0.4921  0.4513
 6567TIP3    H219708   5.886   4.166   4.517  1.6611 -0.7581  0.9486
 6568TIP3   OH219709   2.757   2.408   5.053  0.0033  0.8793  0.0262
 6568TIP3    H119710   2.809   2.330   5.039 -0.4749  0.8811 -2.0917
 6568TIP3    H219711   2.793   2.448   5.132  0.6260 -1.1519  0.8047
 6569TIP3   OH219712   5.009   4.855   3.191  0.4944 -0.2428 -0.2056
 6569TIP3    H119713   4.937   4.804   3.154  0.9980  0.4767 -2.3169
 6569TIP3    H219714   5.035   4.806   3.270 -1.4277 -1.1958 -0.1026
 6570TIP3   OH219715   1.854   4.465   1.718  0.2120  0.0535  0.0044
 6570TIP3    H119716   1.777   4.436   1.671 -0.2998 -0.4245  1.1063
 6570TIP3    H219717   1.888   4.538   1.666 -0.3561 -0.4195 -1.0538
 6571TIP3   OH219718   2.145   3.480   0.327  0.1959  0.2963  0.3863
 6571TIP3    H119719   2.136   3.440   0.414 -0.7464  0.7247  0.4978
 6571TIP3    H219720   2.231   3.523   0.330  0.4722 -0.2601  0.8582
 6572TIP3   OH219721   4.866   0.141   3.800  0.2529 -0.2251 -0.6494
 6572TIP3    H119722   4.835   0.223   3.762 -0.2537  0.1321  0.4733
 6572TIP3    H219723   4.948   0.122   3.754 -0.2434  0.2600 -1.7674
 6573TIP3   OH219724   0.769   5.592   4.644 -0.1160  0.3039 -0.2247
 6573TIP3    H119725   0.798   5.656   4.709  0.8591 -1.8751  1.6105
 6573TIP3    H219726   0.674   5.607   4.638 -0.1227  1.0583  1.1389
 6574TIP3   OH219727   0.732   4.755   4.998  0.3574 -0.1718 -0.1287
 6574TIP3    H119728   0.768   4.769   4.911 -0.0364 -2.7079 -0.7524
 6574TIP3    H219729   0.672   4.682   4.989 -2.1644  1.4900  1.6536
 6575TIP3   OH219730   1.989   0.395   0.384 -0.1994 -0.0799 -0.5967
 6575TIP3    H119731   2.081   0.405   0.407 -0.5290 -0.4584  1.0224
 6575TIP3    H219732   1.978   0.446   0.304  1.2064  0.7367 -0.2919
 6576TIP3   OH219733   2.124   1.676   4.063  0.0572 -0.1868  0.0470
 6576TIP3    H119734   2.039   1.650   4.099  0.1477  0.5937  0.8596
 6576TIP3    H219735   2.174   1.595   4.059 -0.8964 -0.7531 -0.9541
 6577TIP3   OH219736   5.619   1.036   0.579  0.4158 -0.0216 -0.1758
 6577TIP3    H119737   5.551   1.097   0.551  1.0999  0.8478  0.0082
 6577TIP3    H219738   5.657   1.077   0.657  2.6417  0.6745 -1.5244
 6578TIP3   OH219739   2.333   4.202   0.602  0.3185 -0.2249  0.2712
 6578TIP3    H119740   2.261   4.242   0.652  0.9605 -0.1348  1.1585
 6578TIP3    H219741   2.333   4.248   0.519 -1.2214 -0.8378 -0.1060
 6579TIP3   OH219742   5.439   1.871   0.221 -0.1399  0.6756  0.3193
 6579TIP3    H119743   5.452   1.895   0.313 -2.9105  0.1139  0.9590
 6579TIP3    H219744   5.409   1.952   0.180  1.2144  0.9566 -0.1655
 6580TIP3   OH219745   0.484   3.689   0.345  0.3070  0.0883 -0.0913
 6580TIP3    H119746   0.394   3.688   0.377  0.2340  1.8460 -0.1482
 6580TIP3    H219747   0.535   3.647   0.414  0.0577  3.1424  2.1762
 6581TIP3   OH219748   3.625   5.946   3.567  0.3952  0.3321  0.2188
 6581TIP3    H119749   3.574   5.894   3.505  0.4479 -0.8353  1.1139
 6581TIP3    H219750   3.619   6.036   3.534 -1.5699  0.1188 -0.1417
 6582TIP3   OH219751   5.140   2.964   4.922  0.6678  0.3013 -0.4316
 6582TIP3    H119752   5.071   2.914   4.966  0.3491  1.6678  0.6839
 6582TIP3    H219753   5.103   2.986   4.837 -0.1189  0.6284 -0.0186
 6583TIP3   OH219754   3.590   5.121   1.275  0.6856 -0.1893  0.0226
 6583TIP3    H119755   3.582   5.205   1.229 -0.2792  0.5854  1.5279
 6583TIP3    H219756   3.556   5.057   1.213  1.3148  0.5362 -1.1058
 6584TIP3   OH219757   1.944   5.519   4.928  0.3048  0.0954  0.0821
 6584TIP3    H119758   2.004   5.563   4.867  1.3591 -0.2127  0.8682
 6584TIP3    H219759   2.001   5.470   4.986 -0.7746 -1.0821  0.1961
 6585TIP3   OH219760   5.705   3.576   2.114 -0.2123  0.6117 -0.5862
 6585TIP3    H119761   5.654   3.609   2.188 -0.8042 -1.7738  0.1536
 6585TIP3    H219762   5.759   3.650   2.087 -2.3155  2.5298  0.1327
 6586TIP3   OH219763   1.867   0.097   3.298  0.1541  0.0996 -0.1926
 6586TIP3    H119764   1.950   0.053   3.277 -0.5996 -1.2176 -0.5588
 6586TIP3    H219765   1.887   0.190   3.294  1.8692 -0.1850  0.7538
 6587TIP3   OH219766   1.675   4.512   3.031  0.0301 -0.2528  0.5221
 6587TIP3    H119767   1.677   4.529   2.937  1.5577  1.2395  0.7976
 6587TIP3    H219768   1.654   4.597   3.070 -0.7527 -0.8949  1.5465
 6588TIP3   OH219769   5.597   3.203   2.724 -0.4100 -0.1081  0.1509
 6588TIP3    H119770   5.672   3.144   2.731 -0.2006  0.1295 -0.0790
 6588TIP3    H219771   5.556   3.201   2.811  0.4987  0.6114  0.6049
 6589TIP3   OH219772   4.071   3.093   0.722  0.4497  0.1422 -0.0704
 6589TIP3    H119773   4.013   3.130   0.788 -1.0640 -2.0933 -0.0152
 6589TIP3    H219774   4.022   3.099   0.640  0.2573 -1.3635 -0.1023
 6590TIP3   OH219775   5.567   5.741   3.681 -0.1730 -0.2135 -0.5189
 6590TIP3    H119776   5.556   5.828   3.721  0.8617  0.3178 -1.3242
 6590TIP3    H219777   5.492   5.733   3.622  0.0065  0.3873 -0.8461
 6591TIP3   OH219778   3.894   0.706   2.017 -0.3212 -0.4069 -0.2018
 6591TIP3    H119779   3.934   0.688   2.103 -0.1367 -1.5681 -0.5083
 6591TIP3    H219780   3.861   0.796   2.024  0.0012 -0.3597  0.9625
 6592TIP3   OH219781   2.412   3.405   2.298 -0.2530 -0.2784  0.6208
 6592TIP3    H119782   2.339   3.377   2.353 -1.0000 -0.6587 -0.5569
 6592TIP3    H219783   2.474   3.332   2.301 -1.1270 -1.0947 -0.5113
 6593TIP3   OH219784   3.384   3.742   1.845  0.1432  0.5857 -0.3961
 6593TIP3    H119785   3.371   3.808   1.777 -0.9163 -0.2532 -1.0426
 6593TIP3    H219786   3.341   3.779   1.922 -2.7122 -0.3308 -1.4089
 6594TIP3   OH219787   2.716   5.591   0.591 -0.3204  0.1018 -0.0366
 6594TIP3    H119788   2.752   5.504   0.608 -2.4931 -1.3906 -2.3242
 6594TIP3    H219789   2.753   5.615   0.506 -2.1761 -0.0798 -0.9334
 6595TIP3   OH219790   3.854   0.102   2.431 -0.1532 -0.4673 -0.4318
 6595TIP3    H119791   3.914   0.084   2.503  1.0814  2.0069 -0.7417
 6595TIP3    H219792   3.786   0.158   2.469 -0.1002 -0.0553 -0.9199
 6596TIP3   OH219793   1.851   2.646   2.329  0.1955 -0.0903 -0.2841
 6596TIP3    H119794   1.840   2.560   2.289 -0.7838  0.4428 -1.2191
 6596TIP3    H219795   1.822   2.708   2.262  0.9148  0.9828  0.3521
 6597TIP3   OH219796   3.117   5.642   4.143  0.4765  0.3272 -0.3459
 6597TIP3    H119797   3.112   5.701   4.218  0.2114  0.3157 -0.3532
 6597TIP3    H219798   3.063   5.567   4.167 -0.0853  0.5804 -0.7689
 6598TIP3   OH219799   2.880   0.434   2.380 -0.2273 -0.0557  0.1951
 6598TIP3    H119800   2.801   0.481   2.353 -0.3565 -1.2882 -1.7201
 6598TIP3    H219801   2.849   0.350   2.412  0.3364 -0.9906 -1.6133
 6599TIP3   OH219802   0.577   2.123   1.894 -0.4675 -0.8024 -0.3059
 6599TIP3    H119803   0.651   2.067   1.870 -0.5940 -0.7592 -0.7977
 6599TIP3    H219804   0.544   2.085   1.976  1.9955  0.9432  1.6582
 6600TIP3   OH219805   0.311   2.949   3.593 -0.1232 -0.2143 -0.1663
 6600TIP3    H119806   0.285   2.938   3.501  1.7066 -1.4731 -0.5898
 6600TIP3    H219807   0.400   2.913   3.597  0.1119  0.4761  1.9618
 6601TIP3   OH219808   5.350   1.581   0.428  0.7179  0.0127  0.3388
 6601TIP3    H119809   5.328   1.516   0.362  1.0001  1.4095 -1.1888
 6601TIP3    H219810   5.306   1.661   0.399  1.4681  0.8567  1.4295
 6602TIP3   OH219811   5.783   1.714   1.264 -0.3978 -0.6652 -0.1619
 6602TIP3    H119812   5.827   1.664   1.196 -1.5052 -2.7870  0.5750
 6602TIP3    H219813   5.807   1.805   1.247  0.0392 -1.2033 -2.8349
 6603TIP3   OH219814   5.696   3.063   0.972 -0.2243  0.3695  0.1130
 6603TIP3    H119815   5.713   3.121   1.047  0.8391  2.0049 -1.3255
 6603TIP3    H219816   5.751   3.098   0.902  0.0767 -2.1033 -0.9874
 6604TIP3   OH219817   0.756   2.700   0.886  0.0668 -0.3946  0.1135
 6604TIP3    H119818   0.796   2.727   0.968  1.5656 -1.9327 -0.0641
 6604TIP3    H219819   0.824   2.650   0.841 -1.8106 -2.5282 -0.5157
 6605TIP3   OH219820   1.674   5.209   1.942 -0.3191  0.7513 -0.3745
 6605TIP3    H119821   1.643   5.244   2.026  1.1276  1.2106  0.0031
 6605TIP3    H219822   1.640   5.270   1.877  0.1971  1.5394  0.0718
 6606TIP3   OH219823   3.275   0.983   2.426 -0.1384 -0.5508  0.7947
 6606TIP3    H119824   3.280   0.975   2.331 -0.1413 -1.6217  0.8752
 6606TIP3    H219825   3.257   1.076   2.441  0.4633 -0.2547 -0.2206
 6607TIP3   OH219826   4.426   1.240   0.268  0.4260 -0.4523  0.1670
 6607TIP3    H119827   4.470   1.321   0.240 -1.0249  0.4579  0.4483
 6607TIP3    H219828   4.449   1.232   0.361 -0.3920  0.2989  0.4450
 6608TIP3   OH219829   0.045   0.920   3.298 -0.3524 -0.2277 -0.0069
 6608TIP3    H119830   0.086   0.919   3.212  0.4850  0.0167  0.3720
 6608TIP3    H219831  -0.020   0.850   3.296 -0.2030 -0.3453 -0.7700
 6609TIP3   OH219832   1.509   3.023   4.281 -0.4321 -0.0473 -0.0496
 6609TIP3    H119833   1.443   3.089   4.301 -1.1066 -0.8479  0.4177
 6609TIP3    H219834   1.579   3.072   4.238 -0.8543  0.9974  0.4070
 6610TIP3   OH219835   1.615   2.278   1.874 -0.0908 -0.7678 -0.3806
 6610TIP3    H119836   1.532   2.240   1.845 -1.7699  1.4025  1.2384
 6610TIP3    H219837   1.653   2.211   1.931 -1.0253 -1.5535 -0.6388
 6611TIP3   OH219838   3.804   0.742   0.337  0.2044  0.0275  0.2982
 6611TIP3    H119839   3.815   0.819   0.393 -1.9025  0.5181  0.1023
 6611TIP3    H219840   3.715   0.712   0.355  0.2206 -1.0376 -1.2754
 6612TIP3   OH219841   1.330   0.464   3.963  0.5209  0.9163  0.5581
 6612TIP3    H119842   1.266   0.524   3.925 -0.7952 -0.5366  0.3853
 6612TIP3    H219843   1.386   0.520   4.018 -1.0309  2.2023  0.8988
 6613TIP3   OH219844   2.630   0.367   0.791 -0.2899 -0.4481  0.1868
 6613TIP3    H119845   2.614   0.307   0.864 -0.8953 -0.7114 -0.1629
 6613TIP3    H219846   2.566   0.342   0.724 -0.3992  0.4386 -0.0488
 6614TIP3   OH219847   3.507   2.364   1.220  0.1025  0.4899 -0.4686
 6614TIP3    H119848   3.564   2.426   1.174 -0.8056  1.1379 -0.7365
 6614TIP3    H219849   3.496   2.403   1.307  0.4373  0.1240 -0.2574
 6615TIP3   OH219850   0.806   5.837   4.766  0.0246  0.5772  0.4097
 6615TIP3    H119851   0.900   5.843   4.780  0.1607 -0.3230 -0.0555
 6615TIP3    H219852   0.771   5.920   4.800  1.0644  1.2554 -0.1250
 6616TIP3   OH219853   1.679   3.642   0.489  0.4283 -0.5656  0.8466
 6616TIP3    H119854   1.767   3.628   0.455  0.8341 -1.5570  2.1862
 6616TIP3    H219855   1.689   3.634   0.584 -0.9178  0.4540  1.1150
 6617TIP3   OH219856   1.483   2.524   1.837 -0.0959  0.3473 -0.0225
 6617TIP3    H119857   1.546   2.454   1.856  1.3314  1.6448  0.1761
 6617TIP3    H219858   1.407   2.502   1.891  0.2764 -1.0993 -0.0453
 6618TIP3   OH219859   2.711   4.335   0.839  0.2549  0.0024  0.3125
 6618TIP3    H119860   2.636   4.371   0.886  0.4579  0.5295  0.2346
 6618TIP3    H219861   2.690   4.347   0.746  1.6330  2.7567  0.2516
 6619TIP3   OH219862   1.237   4.704   3.292  0.0226  0.0585 -0.8193
 6619TIP3    H119863   1.184   4.733   3.218 -0.5708 -1.0419 -0.8444
 6619TIP3    H219864   1.216   4.765   3.362 -0.5950  0.1758 -1.0990
 6620TIP3   OH219865   2.990   3.056   4.228 -0.2948  0.2183  0.4650
 6620TIP3    H119866   3.011   3.083   4.318  0.7088  1.7784 -0.1902
 6620TIP3    H219867   3.020   2.966   4.223 -0.8386 -0.0651  1.8457
 6621TIP3   OH219868   6.362   2.756   3.576  0.7155 -0.4155 -0.3236
 6621TIP3    H119869   6.401   2.722   3.496  0.4215  0.5280 -0.8785
 6621TIP3    H219870   6.277   2.791   3.549  1.3336  1.5026  0.0371
 6622TIP3   OH219871   4.166   5.043   3.957 -0.0310 -0.6206 -0.1521
 6622TIP3    H119872   4.162   4.977   3.888  3.5876 -1.1666 -0.0300
 6622TIP3    H219873   4.190   4.995   4.036 -0.0821  0.5069  0.5751
 6623TIP3   OH219874   2.553   2.966   2.002  0.3528  0.2539 -0.3764
 6623TIP3    H119875   2.617   2.936   2.066 -0.3785  1.6538  1.0778
 6623TIP3    H219876   2.475   2.913   2.018  0.2710  0.3896 -0.3235
 6624TIP3   OH219877   1.392   0.266   3.542  0.4429 -0.2801 -0.0964
 6624TIP3    H119878   1.336   0.311   3.479  0.2378 -2.2535 -1.3847
 6624TIP3    H219879   1.475   0.254   3.497  0.7984 -0.4001  0.5710
 6625TIP3   OH219880   5.768   2.719   4.852  0.5772 -0.2288  0.0390
 6625TIP3    H119881   5.786   2.652   4.918 -1.7174  0.1008  1.1010
 6625TIP3    H219882   5.712   2.783   4.897  0.2151  0.8208 -1.7904
 6626TIP3   OH219883   2.866   1.754   4.056 -0.6296  0.3671 -0.2180
 6626TIP3    H119884   2.792   1.809   4.029  0.1983  1.7440  0.1993
 6626TIP3    H219885   2.939   1.785   4.002 -0.1608 -0.4079 -0.0408
 6627TIP3   OH219886   6.079   2.226   3.571  0.0274  0.1068 -0.2036
 6627TIP3    H119887   6.113   2.199   3.486  1.3526 -0.1249  0.3706
 6627TIP3    H219888   5.987   2.246   3.555  0.2962  0.2563 -1.7237
 6628TIP3   OH219889   0.697   0.809   4.125  0.1327  0.1738 -0.1027
 6628TIP3    H119890   0.737   0.845   4.204  1.9093 -0.8087 -0.5027
 6628TIP3    H219891   0.671   0.886   4.074 -0.9375  0.8181  1.3409
 6629TIP3   OH219892   5.722   1.320   5.072  0.0293 -0.3143  0.4116
 6629TIP3    H119893   5.670   1.401   5.080 -1.6370 -1.3409  0.4581
 6629TIP3    H219894   5.748   1.318   4.980 -0.4589 -0.0262  0.2617
 6630TIP3   OH219895   5.410   1.498   4.445 -0.0500 -0.4743  0.0013
 6630TIP3    H119896   5.330   1.497   4.499 -0.4221 -0.1185 -0.5454
 6630TIP3    H219897   5.379   1.515   4.356  0.9195  3.5532  0.2529
 6631TIP3   OH219898   4.667   3.332   4.643 -0.1453  0.4735 -0.3688
 6631TIP3    H119899   4.612   3.411   4.637 -0.4271  0.2513 -0.8635
 6631TIP3    H219900   4.658   3.291   4.556  2.5084  1.5508 -1.2447
 6632TIP3   OH219901   3.818   4.327   4.440  0.4028  0.2084  0.4339
 6632TIP3    H119902   3.800   4.283   4.523 -0.1928  1.9213  1.2587
 6632TIP3    H219903   3.802   4.420   4.458 -2.3336  0.4284 -2.2360
 6633TIP3   OH219904   0.516   0.693   0.550 -0.4102 -0.0501 -0.3989
 6633TIP3    H119905   0.597   0.674   0.504 -0.3067 -0.7038  0.0438
 6633TIP3    H219906   0.450   0.641   0.505 -1.1247  2.3554 -2.3889
 6634TIP3   OH219907   5.054   4.724   4.394 -0.2796  0.9349  0.3957
 6634TIP3    H119908   5.111   4.780   4.343 -0.3417  1.0512  0.4530
 6634TIP3    H219909   5.052   4.641   4.347 -0.5994  1.1472  0.0333
 6635TIP3   OH219910   4.493   2.301   2.667  0.3373  0.1421 -0.7326
 6635TIP3    H119911   4.439   2.237   2.621 -0.0675  0.7305 -1.0928
 6635TIP3    H219912   4.458   2.302   2.756  1.7478 -1.7045 -0.1155
 6636TIP3   OH219913   0.251   0.524   3.468 -0.5419  0.2087 -0.1903
 6636TIP3    H119914   0.256   0.462   3.395  0.3964  0.9356 -0.7743
 6636TIP3    H219915   0.331   0.506   3.519 -0.8157  0.2073  0.2387
 6637TIP3   OH219916   0.945   4.414   2.325  0.0310 -0.2462 -0.2234
 6637TIP3    H119917   1.019   4.361   2.295  2.0178  1.5996  1.1450
 6637TIP3    H219918   0.939   4.485   2.261 -0.8926 -0.6137 -0.5677
 6638TIP3   OH219919   3.466   1.194   4.115 -0.8037 -0.2218 -0.2160
 6638TIP3    H119920   3.541   1.226   4.165 -1.1217  0.7228 -0.3356
 6638TIP3    H219921   3.405   1.267   4.113 -1.5544 -0.8373 -0.4867
 6639TIP3   OH219922   5.441   3.798   1.901 -0.0548 -0.2382 -0.3462
 6639TIP3    H119923   5.361   3.794   1.847 -1.1549 -1.1672  1.2679
 6639TIP3    H219924   5.475   3.709   1.899  0.2116 -0.1462  0.0405
 6640TIP3   OH219925   4.159   3.454   1.382 -0.1351  0.6387 -0.2468
 6640TIP3    H119926   4.227   3.461   1.449  1.5706 -0.0091 -1.8515
 6640TIP3    H219927   4.102   3.530   1.397  1.4928  1.7457  0.5317
 6641TIP3   OH219928   5.760   0.029   2.825 -0.0315  0.2915  0.1912
 6641TIP3    H119929   5.732   0.084   2.751  0.6052 -1.1383 -1.1688
 6641TIP3    H219930   5.849   0.058   2.844  0.3484 -0.3037 -0.6047
 6642TIP3   OH219931   0.759   1.865   4.466 -0.0729  0.0538  0.4427
 6642TIP3    H119932   0.786   1.776   4.445 -0.3671 -0.1472  0.9064
 6642TIP3    H219933   0.820   1.893   4.534 -0.2349  0.0599  0.5848
 6643TIP3   OH219934   2.534   1.351   3.124  0.0358 -0.5443  0.1987
 6643TIP3    H119935   2.511   1.260   3.106  0.8927 -0.1599 -3.5917
 6643TIP3    H219936   2.537   1.356   3.220 -0.9188 -4.2163  0.5821
 6644TIP3   OH219937   0.619   0.586   1.795 -0.2342  0.4548 -0.1783
 6644TIP3    H119938   0.575   0.615   1.875 -0.8096  0.4355 -0.4824
 6644TIP3    H219939   0.558   0.522   1.756  0.3825 -0.1127 -0.2363
 6645TIP3   OH219940   1.693   5.730   2.114 -0.6272 -0.1151  0.0711
 6645TIP3    H119941   1.726   5.780   2.189 -0.7463 -2.9008  2.1654
 6645TIP3    H219942   1.631   5.667   2.152 -2.3266 -0.2823 -2.6989
   6.35457   5.99115   5.18849   0.00000   0.00000  -2.11820   0.00000  -2.11820  -2.99557
