Title
29212
    1ASP      N    1   2.353   3.817   4.928 -0.2382 -0.0886  0.4356
    1ASP    HT1    2   2.388   3.738   4.987 -0.1573  0.6994  1.4793
    1ASP    HT2    3   2.373   3.795   4.829  0.4855 -0.1783  0.5979
    1ASP    HT3    4   2.250   3.820   4.940 -0.6169 -1.8240 -1.7651
    1ASP     CA    5   2.432   3.941   4.968  0.2236 -0.1677 -0.0474
    1ASP     HA    6   2.416   4.010   4.886  1.0477 -2.7599 -2.5243
    1ASP     CB    7   2.371   3.992   5.105 -0.2125  0.1191  0.2949
    1ASP    HB1    8   2.387   3.906   5.174 -0.0536  1.2024  1.6652
    1ASP    HB2    9   2.261   4.010   5.095 -0.1512 -0.3926 -1.8211
    1ASP     CG   10   2.424   4.116   5.162 -0.2039  0.1956  0.7842
    1ASP    OD1   11   2.472   4.205   5.084 -0.0147 -0.8956  0.0776
    1ASP    OD2   12   2.413   4.138   5.285  0.3249 -0.1429  0.6112
    1ASP      C   13   2.582   3.917   4.957 -0.2215  0.2666 -0.1062
    1ASP      O   14   2.627   3.809   4.929 -0.4953  0.5338 -0.4385
    2GLY      N   15   2.658   4.030   4.987 -0.1212 -0.0930 -0.9534
    2GLY     HN   16   2.614   4.113   5.020  1.3312 -0.2152  1.4599
    2GLY     CA   17   2.801   4.032   4.999 -0.0862  0.3924 -0.0028
    2GLY    HA1   18   2.820   3.978   5.091  0.1333 -1.8532 -1.2838
    2GLY    HA2   19   2.835   4.134   4.988  0.7924  0.2665  1.3174
    2GLY      C   20   2.891   3.958   4.896 -0.0686  0.0032  0.4149
    2GLY      O   21   2.895   3.985   4.770 -0.0688 -0.0175 -0.4536
    3ASP      N   22   2.982   3.871   4.945  0.1187 -0.4763  0.1410
    3ASP     HN   23   3.001   3.860   5.042 -0.6370 -1.2025  0.2204
    3ASP     CA   24   3.070   3.794   4.858 -0.0050 -0.1754 -0.0989
    3ASP     HA   25   3.120   3.858   4.788  0.8071  1.0887  1.5785
    3ASP     CB   26   3.167   3.715   4.952  0.2747 -0.1092  0.5515
    3ASP    HB1   27   3.231   3.640   4.901  0.7440  0.2679  0.5852
    3ASP    HB2   28   3.101   3.664   5.025 -0.5134  1.2758  0.8277
    3ASP     CG   29   3.252   3.816   5.018  0.2662 -0.5214  0.4441
    3ASP    OD1   30   3.305   3.912   4.953 -0.1073  0.7169  0.1513
    3ASP    OD2   31   3.280   3.804   5.140  0.1108 -0.1702  0.1382
    3ASP      C   32   2.994   3.688   4.767  0.8451 -0.0088  0.0358
    3ASP      O   33   3.051   3.644   4.663 -0.5902 -0.1862 -0.5494
    4GLY      N   34   2.860   3.649   4.787  0.3156 -0.3091  0.4103
    4GLY     HN   35   2.806   3.686   4.861 -0.1887  0.2620 -0.2352
    4GLY     CA   36   2.787   3.561   4.695 -0.0566 -0.3641  0.2054
    4GLY    HA1   37   2.694   3.534   4.743  0.4107 -1.4797  0.5098
    4GLY    HA2   38   2.850   3.475   4.679  1.7660  1.1083 -0.8821
    4GLY      C   39   2.752   3.627   4.565 -0.2787 -0.0879  0.0765
    4GLY      O   40   2.793   3.742   4.530  0.3247 -0.1609  0.0789
    5PRO      N   41   2.670   3.554   4.487  0.6120 -0.2421  0.2387
    5PRO     CD   42   2.666   3.401   4.482  0.4492  0.5438 -0.2529
    5PRO    HD1   43   2.602   3.368   4.566 -0.7601  2.1783 -0.4875
    5PRO    HD2   44   2.770   3.361   4.488  0.1748  0.0225  1.3390
    5PRO     CA   45   2.607   3.609   4.368  0.2545 -0.6496 -1.0285
    5PRO     HA   46   2.677   3.627   4.288  0.7217  0.2150 -0.4399
    5PRO     CB   47   2.509   3.498   4.321 -0.8670  0.7295  0.3711
    5PRO    HB1   48   2.492   3.502   4.211 -0.3008 -0.8901  0.2086
    5PRO    HB2   49   2.412   3.496   4.374 -2.6000  0.8475 -2.5465
    5PRO     CG   50   2.595   3.368   4.347  0.5206 -0.3020  0.6866
    5PRO    HG1   51   2.529   3.281   4.370 -1.5756  0.8386 -0.6158
    5PRO    HG2   52   2.671   3.345   4.269  1.8014 -1.8594  2.3347
    5PRO      C   53   2.538   3.744   4.373  0.7787 -0.3935  0.1688
    5PRO      O   54   2.485   3.789   4.473  0.2502  0.4161 -0.1924
    6GLY      N   55   2.537   3.817   4.258  0.7601  0.0166  0.5011
    6GLY     HN   56   2.582   3.769   4.183  0.5771 -0.8563  0.9313
    6GLY     CA   57   2.466   3.941   4.235  0.0959 -0.6303  0.0648
    6GLY    HA1   58   2.478   3.963   4.130 -2.8884 -0.2064 -0.2689
    6GLY    HA2   59   2.514   4.014   4.298  1.2701 -1.6633  0.3986
    6GLY      C   60   2.317   3.956   4.268 -0.5312 -0.0377  0.2237
    6GLY      O   61   2.239   3.862   4.255  0.4536 -0.9082  0.5524
    7ASP      N   62   2.276   4.074   4.304 -0.1724 -0.3976  0.7954
    7ASP     HN   63   2.338   4.152   4.309  0.2824 -0.7607  0.9216
    7ASP     CA   64   2.135   4.098   4.336 -0.5355 -1.3988  0.0711
    7ASP     HA   65   2.095   4.011   4.387 -0.1237 -1.6345 -0.0076
    7ASP     CB   66   2.126   4.222   4.433  0.5531  0.4174  0.2982
    7ASP    HB1   67   2.023   4.259   4.453  0.4018 -0.5549  1.4759
    7ASP    HB2   68   2.185   4.300   4.381  0.5146 -1.2368 -2.3786
    7ASP     CG   69   2.199   4.213   4.565 -0.5587 -0.2117  0.4494
    7ASP    OD1   70   2.308   4.146   4.566 -0.2038 -0.2511 -0.4404
    7ASP    OD2   71   2.155   4.293   4.653  0.1459  0.6042 -0.0732
    7ASP      C   72   2.067   4.134   4.205  0.3548  0.2630 -0.1528
    7ASP      O   73   2.131   4.192   4.118  0.3311 -0.0357 -0.0610
    8PRO      N   74   1.944   4.092   4.170 -0.4640  0.7623 -0.3233
    8PRO     CD   75   1.863   4.002   4.254  0.4360  0.3155 -0.3056
    8PRO    HD1   76   1.865   4.020   4.363 -0.0172 -1.3935  0.0042
    8PRO    HD2   77   1.889   3.896   4.237 -0.5391  0.0921 -0.4931
    8PRO     CA   78   1.881   4.132   4.056  0.1770 -0.6616 -0.0043
    8PRO     HA   79   1.936   4.102   3.968  0.1692 -2.4060  0.5346
    8PRO     CB   80   1.754   4.044   4.047 -0.4330 -0.5146  0.4838
    8PRO    HB1   81   1.766   3.945   3.998  1.9216 -1.5135  2.8078
    8PRO    HB2   82   1.669   4.094   3.997 -1.0517 -2.2752 -0.3136
    8PRO     CG   83   1.721   4.030   4.197 -0.6067 -0.1570  0.4347
    8PRO    HG1   84   1.677   4.126   4.232 -0.7931 -0.9506  2.5607
    8PRO    HG2   85   1.648   3.954   4.233  0.1394 -0.6989  0.8440
    8PRO      C   86   1.862   4.281   4.044  0.1588  0.3318  0.1162
    8PRO      O   87   1.837   4.347   4.146 -0.4564 -0.4479 -0.2071
    9GLY      N   88   1.871   4.330   3.918  0.7633  0.3340 -0.2384
    9GLY     HN   89   1.902   4.277   3.839  1.6643 -1.0867  1.0087
    9GLY     CA   90   1.846   4.471   3.892 -0.2137 -0.2477  0.5629
    9GLY    HA1   91   1.907   4.500   3.808  0.0534 -0.8034  0.5599
    9GLY    HA2   92   1.860   4.522   3.986 -0.2651 -0.4245  0.6674
    9GLY      C   93   1.698   4.501   3.854 -0.4513 -0.4332 -0.6502
    9GLY      O   94   1.614   4.412   3.846  0.1343  0.3831 -0.0146
   10ASP      N   95   1.668   4.632   3.853  0.4568  0.0898  0.2990
   10ASP     HN   96   1.736   4.705   3.859  0.8693 -0.2785  0.0899
   10ASP     CA   97   1.535   4.675   3.812 -0.3521  0.7023  0.0622
   10ASP     HA   98   1.463   4.607   3.854 -1.0354  1.4049  0.0647
   10ASP     CB   99   1.495   4.814   3.855 -0.6102 -0.2185  0.3778
   10ASP    HB1  100   1.516   4.822   3.963 -0.8751 -0.1641  0.4264
   10ASP    HB2  101   1.387   4.834   3.838 -0.5732 -0.4103 -0.0983
   10ASP     CG  102   1.573   4.924   3.788  0.1183  0.3020 -0.3472
   10ASP    OD1  103   1.680   4.914   3.727 -0.3550  0.1307  0.3128
   10ASP    OD2  104   1.520   5.041   3.802 -0.1464  0.4360  0.7317
   10ASP      C  105   1.515   4.659   3.660  0.7135  0.2236  0.3892
   10ASP      O  106   1.618   4.654   3.587  0.4452  0.0638 -0.4499
   11GLY      N  107   1.388   4.646   3.612 -0.2743 -0.0023 -0.1131
   11GLY     HN  108   1.306   4.640   3.668 -2.3908 -2.6012 -3.1549
   11GLY     CA  109   1.353   4.653   3.470 -0.5151  0.2390 -0.2155
   11GLY    HA1  110   1.289   4.568   3.450  0.1877 -0.1168 -1.0426
   11GLY    HA2  111   1.444   4.653   3.411  0.0051  0.3184  0.5767
   11GLY      C  112   1.293   4.784   3.440  0.8791 -0.8823  0.4472
   11GLY    OT1  113   1.365   4.884   3.416 -0.6234  0.0393  0.7187
   11GLY    OT2  114   1.165   4.798   3.451 -0.1389  0.5033  0.0431
   12LIT    LIT  115   1.526   5.378   5.430 -0.0675 -0.3105 -0.0919
   13LIT    LIT  116   2.869   5.403   2.357 -1.0625 -0.0731  0.0452
   14LIT    LIT  117   6.333   5.960   3.700 -0.3122  0.1814 -0.2985
   15LIT    LIT  118   2.011   1.070   2.265 -0.4208  0.3026  0.1787
   16LIT    LIT  119   1.240   5.025   3.464 -0.4045  0.5525  0.1167
   17LIT    LIT  120   4.968   3.540   3.976  0.5454  0.3937  0.8119
   18LIT    LIT  121   3.534   0.309   0.234 -0.3288  0.2052 -0.0807
   19LIT    LIT  122   3.214   1.228   0.184 -0.8256 -0.7019 -0.1448
   20LIT    LIT  123   0.523   0.227   0.693 -0.1980  0.0411 -0.2322
   21LIT    LIT  124   0.976   6.479   1.190  0.1683  0.6637 -0.1916
   22LIT    LIT  125   0.835   1.679   4.909  0.2839  0.6547 -0.9635
   23LIT    LIT  126   1.770   4.203   1.185 -0.3836  0.0567  0.0023
   24LIT    LIT  127   2.106   2.321   5.242  0.7635 -0.3083 -0.1853
   25LIT    LIT  128   2.417   4.295   4.933 -0.1738  0.1107 -0.4522
   26LIT    LIT  129   1.708   5.102   3.749  0.6066 -0.0071  0.2033
   27LIT    LIT  130   2.725   1.514   1.553 -0.7187 -0.3978  0.4739
   28LIT    LIT  131   0.305   4.358   0.215 -0.5697  0.4858 -1.4499
   29LIT    LIT  132   4.659   1.545   0.160 -0.5493 -0.0639 -0.1314
   30LIT    LIT  133   5.433   5.676   3.766 -0.0179 -0.5857  1.0952
   31LIT    LIT  134   1.714   3.307   3.271 -0.6536 -0.6486  1.0597
   32LIT    LIT  135   2.250   3.960   0.423  0.7173 -0.0698 -0.1054
   33LIT    LIT  136   3.523   0.985   4.937 -0.3438  0.8098 -0.6200
   34LIT    LIT  137   6.404   2.199   2.464  0.2946 -0.0892 -0.1547
   35LIT    LIT  138   0.797   5.151   1.678  0.7869  0.1707 -0.1371
   36LIT    LIT  139   2.144   2.922   3.746  0.9545 -0.9436  0.1236
   37LIT    LIT  140   1.016   5.498   4.487 -0.0206  0.1964 -1.2037
   38LIT    LIT  141   6.978   0.340   4.998  0.1124 -0.3557  0.7573
   39LIT    LIT  142   2.548   4.277   5.267 -0.4765  0.0072  1.4002
   40LIT    LIT  143   5.609   3.461   1.205 -0.3869 -0.2263  0.5765
   41LIT    LIT  144   1.276   5.828   2.941  0.4682  0.3612  0.8351
   42LIT    LIT  145   3.406   3.947   5.124 -0.2349 -0.6140 -0.2304
   43CLA    CLA  146   3.065   5.571   3.174  0.6546  0.0830 -0.0369
   44CLA    CLA  147   5.879   0.428   5.006 -0.5289 -0.0748 -0.0161
   45CLA    CLA  148   1.347   1.762   5.689 -0.3747  0.3968  0.1111
   46CLA    CLA  149   7.210   5.483   1.217  0.0037  0.0617 -0.2258
   47CLA    CLA  150   0.338   1.976   4.652 -0.1120  0.0708  0.0686
   48CLA    CLA  151   5.386   5.964   0.090 -0.1869  0.1335 -0.0495
   49CLA    CLA  152   3.882   4.796   5.816  0.3281 -0.1709 -0.0718
   50CLA    CLA  153   1.047   3.780   4.350  0.1884 -0.0242 -0.0606
   51CLA    CLA  154   2.391   5.412   1.476  0.0101  0.0987  0.2662
   52CLA    CLA  155   6.139   4.640   4.073 -0.1522 -0.0505  0.0530
   53CLA    CLA  156   4.094   4.362   5.114  0.0532  0.2327  0.4878
   54CLA    CLA  157   5.984   1.186   5.284 -0.1494  0.0056 -0.2369
   55CLA    CLA  158   1.708   4.948   3.047 -0.4891  0.2212 -0.2285
   56CLA    CLA  159   6.144   5.241   5.121  0.5789  0.0086 -0.1108
   57CLA    CLA  160   4.649   0.259   0.957 -0.3055 -0.0681 -0.3807
   58CLA    CLA  161   2.902   0.180   2.614 -0.2218 -0.2086 -0.2124
   59CLA    CLA  162   0.188   6.490   0.534  0.1870 -0.2320 -0.0056
   60CLA    CLA  163   2.406   3.002   2.918  0.2371 -0.0882  0.0277
   61CLA    CLA  164   6.134   3.178   0.032 -0.0819  0.2917  0.1140
   62CLA    CLA  165   2.470   1.543   5.052 -0.8287  0.0019 -0.0411
   63CLA    CLA  166   5.822   1.530   0.615 -0.2293  0.2034 -0.3604
   64CLA    CLA  167   2.037   2.956   3.543  0.0442 -0.3123 -0.4967
   65CLA    CLA  168   2.317   6.294   3.492  0.0087  0.4009 -0.3093
   66CLA    CLA  169   4.142   2.846   5.170  0.1088  0.4631 -0.2684
   67CLA    CLA  170   4.001   0.426   0.278 -0.5562  0.2255 -0.3933
   68CLA    CLA  171   5.328   3.110   1.637  0.0114  0.0782 -0.0540
   69CLA    CLA  172   5.743   2.328   3.437  0.1801 -0.1137  0.1242
   70TIP3   OH2  173   4.381   0.778   3.965  0.0399 -0.0472  0.3651
   70TIP3    H1  174   4.470   0.766   3.933 -0.2632 -0.5715 -0.3000
   70TIP3    H2  175   4.350   0.857   3.921 -0.1672 -0.4276 -0.1753
   71TIP3   OH2  176   5.030   4.316   4.638 -0.3325  0.0823 -0.4058
   71TIP3    H1  177   5.005   4.316   4.730 -0.2820 -0.2840 -0.3870
   71TIP3    H2  178   5.080   4.396   4.626  1.9340 -1.0867  0.5403
   72TIP3   OH2  179   5.145   1.184   5.666 -0.7838  0.7793 -0.1081
   72TIP3    H1  180   5.161   1.117   5.599 -2.4041  1.0078 -0.7578
   72TIP3    H2  181   5.128   1.264   5.617 -1.1763  1.1455  0.6078
   73TIP3   OH2  182   4.559   1.565   4.610 -0.2255 -0.8341 -0.2000
   73TIP3    H1  183   4.646   1.584   4.576  0.0122 -0.0090  0.8339
   73TIP3    H2  184   4.513   1.649   4.608 -0.6817 -1.0679  0.1469
   74TIP3   OH2  185   4.911   0.929   2.851  0.3787  0.2181  0.0982
   74TIP3    H1  186   4.878   0.841   2.867  0.7266  0.0660 -0.0133
   74TIP3    H2  187   4.871   0.982   2.920  1.5169 -0.3442  1.2302
   75TIP3   OH2  188   2.184   2.522   4.904  0.3198 -0.4874  0.1739
   75TIP3    H1  189   2.246   2.594   4.901 -0.4315  0.4736  3.3134
   75TIP3    H2  190   2.236   2.444   4.888  2.6916  0.1827  3.6088
   76TIP3   OH2  191   4.571   0.709   2.901 -0.0266 -0.2093  0.0236
   76TIP3    H1  192   4.660   0.683   2.927 -1.1422 -1.9183  2.5010
   76TIP3    H2  193   4.575   0.805   2.897  1.9637 -0.2518 -0.1608
   77TIP3   OH2  194   1.107   0.943   5.184  0.0627  1.0296 -0.1500
   77TIP3    H1  195   1.202   0.941   5.188  0.1156  0.9284 -1.2665
   77TIP3    H2  196   1.080   0.972   5.271  1.1356  1.9869 -0.1154
   78TIP3   OH2  197   6.993   4.551   0.728 -0.1680 -0.0651 -0.4617
   78TIP3    H1  198   7.034   4.634   0.755  0.7454 -0.5597 -0.2909
   78TIP3    H2  199   6.906   4.553   0.768 -0.4675  1.1737 -1.1309
   79TIP3   OH2  200   5.118   6.009   2.173  0.2816  0.3960 -0.0306
   79TIP3    H1  201   5.086   6.005   2.083 -0.0714 -1.0386  0.1340
   79TIP3    H2  202   5.053   6.061   2.220  0.7787  1.6760 -0.7090
   80TIP3   OH2  203   5.046   6.811   1.686  0.6315 -0.2893  0.3049
   80TIP3    H1  204   5.136   6.829   1.712  0.4011  0.3630  0.6724
   80TIP3    H2  205   5.008   6.763   1.759  1.2068 -2.2959 -0.6204
   81TIP3   OH2  206   6.530   2.087   4.193  0.4829 -0.0180 -0.0457
   81TIP3    H1  207   6.455   2.108   4.137 -1.7513 -0.6825  2.4528
   81TIP3    H2  208   6.588   2.163   4.184 -2.4392  2.5706  0.8868
   82TIP3   OH2  209   3.520   2.340   4.693  0.1098  0.7205  0.2362
   82TIP3    H1  210   3.552   2.387   4.616  0.4546 -0.1051 -0.1438
   82TIP3    H2  211   3.498   2.253   4.659 -3.2312  1.3983  0.3018
   83TIP3   OH2  212   0.322   6.497   2.637 -0.1460  0.2156 -0.7696
   83TIP3    H1  213   0.404   6.499   2.588  0.7910  0.5214  0.7464
   83TIP3    H2  214   0.299   6.589   2.648 -0.5878  0.1355 -0.9996
   84TIP3   OH2  215   0.862   5.889   4.111  0.0036 -0.1644 -0.1172
   84TIP3    H1  216   0.877   5.890   4.206  1.0669 -0.6492 -0.2639
   84TIP3    H2  217   0.797   5.957   4.097 -0.2502 -0.1505  0.9745
   85TIP3   OH2  218   0.285   0.463   5.473  0.6748 -0.5957  0.4029
   85TIP3    H1  219   0.378   0.466   5.449  0.1585 -0.0015 -1.6595
   85TIP3    H2  220   0.239   0.452   5.390 -1.1874  0.6569  1.2099
   86TIP3   OH2  221   3.181   3.934   3.124  0.1531 -0.1421  0.3229
   86TIP3    H1  222   3.253   3.995   3.106 -0.1499  0.8766  2.2718
   86TIP3    H2  223   3.197   3.860   3.065  0.9589  1.4637 -1.5871
   87TIP3   OH2  224   2.216   1.261   4.056  0.0874 -0.5762  0.0241
   87TIP3    H1  225   2.144   1.261   4.119  1.0530 -1.2823  1.1753
   87TIP3    H2  226   2.244   1.169   4.052  1.0788 -0.2748 -0.1966
   88TIP3   OH2  227   5.230   6.567   1.868 -0.1163 -0.0011 -0.0038
   88TIP3    H1  228   5.217   6.640   1.929  0.8644  0.0865  0.1264
   88TIP3    H2  229   5.325   6.566   1.852 -0.4328  0.4720 -2.1437
   89TIP3   OH2  230   3.390   3.696   2.589 -0.1751  0.2484 -0.2545
   89TIP3    H1  231   3.474   3.665   2.620 -0.6168 -0.3989  0.3268
   89TIP3    H2  232   3.378   3.781   2.633 -0.3727 -0.2283  0.6336
   90TIP3   OH2  233   2.405   1.515   3.082 -0.4952  0.0327 -0.3897
   90TIP3    H1  234   2.478   1.480   3.133 -2.1857 -1.8813  0.8365
   90TIP3    H2  235   2.369   1.585   3.136 -0.5639 -0.1127 -0.2478
   91TIP3   OH2  236   1.624   1.864   5.408  0.0908  0.4982 -0.2789
   91TIP3    H1  237   1.554   1.910   5.362 -1.1644 -0.2847  0.7738
   91TIP3    H2  238   1.583   1.832   5.489  1.5699 -0.2999  0.1961
   92TIP3   OH2  239   1.843   0.840   5.752 -0.8216 -0.3482 -0.2582
   92TIP3    H1  240   1.763   0.887   5.776  0.4877  1.2560  1.2498
   92TIP3    H2  241   1.838   0.758   5.801 -1.7351 -0.4675 -0.5295
   93TIP3   OH2  242   2.338   3.875   1.304  0.1027 -0.5035 -0.5246
   93TIP3    H1  243   2.332   3.826   1.387  1.1763  2.1122  1.2227
   93TIP3    H2  244   2.248   3.879   1.272 -0.2327 -2.1841  0.1054
   94TIP3   OH2  245   2.017   5.775   3.400  0.4210 -0.8123 -0.3108
   94TIP3    H1  246   2.042   5.863   3.373 -1.6134  0.0189  0.3113
   94TIP3    H2  247   2.063   5.761   3.483  0.1043 -0.0048  0.0013
   95TIP3   OH2  248   0.759   2.858   0.619  0.3622 -0.4226 -0.8871
   95TIP3    H1  249   0.760   2.884   0.711  1.7509 -0.0585 -0.9770
   95TIP3    H2  250   0.735   2.765   0.620  1.2882 -0.6637 -0.0826
   96TIP3   OH2  251   1.984   4.220   2.007 -0.4001  0.3805 -0.3873
   96TIP3    H1  252   2.039   4.169   1.948  0.1885 -0.7768  1.0883
   96TIP3    H2  253   1.909   4.163   2.025 -0.1809  0.3791  0.5783
   97TIP3   OH2  254   0.506   4.229   5.463  0.0199  0.0625 -0.6491
   97TIP3    H1  255   0.570   4.246   5.532  0.2492  0.0314 -0.8526
   97TIP3    H2  256   0.483   4.136   5.473 -0.8172  0.3301  0.1128
   98TIP3   OH2  257   4.087   5.813   1.976  0.2936  0.2386 -0.4454
   98TIP3    H1  258   4.060   5.870   2.048  1.4951  0.0715  0.1454
   98TIP3    H2  259   4.043   5.850   1.899  1.1956  2.1185 -0.1147
   99TIP3   OH2  260   3.588   0.464   5.110  0.4853  0.1619 -0.1629
   99TIP3    H1  261   3.672   0.510   5.102  1.4749 -1.3836  0.7639
   99TIP3    H2  262   3.599   0.407   5.187 -0.6695 -1.5707 -1.2082
  100TIP3   OH2  263   2.243   5.270   3.946 -0.1530 -0.1043  0.9718
  100TIP3    H1  264   2.208   5.198   3.894 -1.7871  0.7143  0.8653
  100TIP3    H2  265   2.259   5.340   3.883 -0.9203  0.4475  1.3697
  101TIP3   OH2  266   6.457   6.127   4.655 -0.4135  0.2205 -0.3158
  101TIP3    H1  267   6.439   6.033   4.642  0.8396 -0.1660  0.5802
  101TIP3    H2  268   6.382   6.171   4.614 -0.6608 -1.1442 -1.4287
  102TIP3   OH2  269   6.295   6.023   1.790 -0.8118 -0.0983  0.1337
  102TIP3    H1  270   6.261   6.108   1.816 -0.5724  0.1585 -0.3819
  102TIP3    H2  271   6.234   5.960   1.829 -0.6332  0.2775  1.0415
  103TIP3   OH2  272   0.109   3.361   4.889 -0.1212  0.3313 -0.1838
  103TIP3    H1  273   0.187   3.398   4.848  0.9175  0.5600  1.8741
  103TIP3    H2  274   0.059   3.437   4.919 -1.4593  0.2068 -1.9507
  104TIP3   OH2  275   5.553   6.483   1.823  0.1753  0.1246  0.3491
  104TIP3    H1  276   5.570   6.571   1.790  0.6819  0.3693  1.2182
  104TIP3    H2  277   5.511   6.438   1.750 -0.1445  1.0991 -0.0907
  105TIP3   OH2  278   3.667   4.756   2.426  0.5107  0.7614 -0.6130
  105TIP3    H1  279   3.749   4.722   2.463 -0.0585 -1.8997 -1.5933
  105TIP3    H2  280   3.688   4.774   2.334  0.2343  1.0091 -0.6290
  106TIP3   OH2  281   4.432   6.533   4.280 -0.2541 -0.1751 -0.5556
  106TIP3    H1  282   4.365   6.502   4.342 -0.0084  0.7695  0.1906
  106TIP3    H2  283   4.494   6.581   4.333  0.7554 -0.5875 -1.3323
  107TIP3   OH2  284   1.680   6.627   2.030  0.2331  0.4546  0.2572
  107TIP3    H1  285   1.694   6.598   1.940  2.0591  0.1390  0.5984
  107TIP3    H2  286   1.646   6.550   2.075 -0.9641  0.6950 -0.2059
  108TIP3   OH2  287   2.082   1.665   5.020  0.4361  0.3956  0.5806
  108TIP3    H1  288   2.068   1.618   5.103  0.4777  2.7375  2.0057
  108TIP3    H2  289   2.165   1.710   5.032  0.8733  0.1003 -1.1236
  109TIP3   OH2  290   1.247   4.985   1.938  0.7421  0.0021  0.5642
  109TIP3    H1  291   1.299   4.928   1.994  0.4666 -0.9202 -0.0891
  109TIP3    H2  292   1.182   4.927   1.898  0.7350  0.6824 -0.4612
  110TIP3   OH2  293   4.059   3.203   0.348  0.4512 -0.4925 -0.2565
  110TIP3    H1  294   4.015   3.284   0.370 -0.2147 -0.9742  0.2131
  110TIP3    H2  295   4.034   3.186   0.257  0.5750 -0.1911 -0.3485
  111TIP3   OH2  296   2.334   1.207   0.820 -0.4289  0.0780  0.1089
  111TIP3    H1  297   2.299   1.122   0.850 -0.8289  0.1772 -0.0677
  111TIP3    H2  298   2.422   1.187   0.789 -0.0147 -0.0434  1.2844
  112TIP3   OH2  299   4.117   0.701   4.152  0.1724  0.3762 -0.5363
  112TIP3    H1  300   4.151   0.653   4.077 -0.3559  0.9755 -1.1775
  112TIP3    H2  301   4.147   0.791   4.138  2.3809  0.0217  1.3830
  113TIP3   OH2  302   2.103   3.298   3.551 -0.5740  0.1688  0.1231
  113TIP3    H1  303   2.120   3.204   3.564  2.5234  0.4722 -0.7762
  113TIP3    H2  304   2.148   3.340   3.624 -0.5575  0.9921 -0.3515
  114TIP3   OH2  305   5.972   5.138   2.056  0.5332  0.3725 -0.0870
  114TIP3    H1  306   5.951   5.062   2.002  1.7602 -0.0572  0.0047
  114TIP3    H2  307   5.896   5.149   2.112  0.6721 -1.3595  0.5135
  115TIP3   OH2  308   1.326   3.207   5.184 -0.5221  0.3834 -0.0181
  115TIP3    H1  309   1.243   3.213   5.136  0.3230 -1.2484 -1.8090
  115TIP3    H2  310   1.331   3.116   5.213  0.4195  0.5906  0.5140
  116TIP3   OH2  311   0.317   3.706   2.440 -0.0983 -0.2181 -0.2861
  116TIP3    H1  312   0.228   3.726   2.472 -0.8609 -1.0690 -1.7634
  116TIP3    H2  313   0.366   3.683   2.519 -1.0025  0.8993  0.6484
  117TIP3   OH2  314   3.529   5.881   5.619 -0.8492 -0.0213 -0.6249
  117TIP3    H1  315   3.527   5.922   5.532  1.3745  0.4049 -0.5402
  117TIP3    H2  316   3.438   5.858   5.637 -1.8042  2.4826 -1.8140
  118TIP3   OH2  317   4.302   5.060   4.712 -0.4635  0.3833  0.1345
  118TIP3    H1  318   4.365   5.085   4.644 -1.4599  0.1703 -0.8873
  118TIP3    H2  319   4.352   5.004   4.770  1.0224  2.3383  0.8595
  119TIP3   OH2  320   6.375   1.414   0.139 -0.1560 -0.6884 -0.1023
  119TIP3    H1  321   6.400   1.502   0.110  0.1130 -0.6865  0.1295
  119TIP3    H2  322   6.456   1.377   0.175 -0.5729 -0.5076  1.0720
  120TIP3   OH2  323   2.687   3.585   2.264  0.5198  0.8228 -0.0502
  120TIP3    H1  324   2.749   3.538   2.209 -0.1328 -0.7978  0.5523
  120TIP3    H2  325   2.726   3.583   2.351 -1.0027 -1.5646  0.6680
  121TIP3   OH2  326   6.761   1.672   2.407  0.2608 -0.0686 -0.2248
  121TIP3    H1  327   6.685   1.629   2.446 -0.1100  0.6655 -0.1021
  121TIP3    H2  328   6.806   1.604   2.357 -0.5229 -0.4920 -0.3607
  122TIP3   OH2  329   1.072   6.046   2.351  0.7721 -0.7230 -0.1278
  122TIP3    H1  330   1.020   6.113   2.306  0.8427  0.3785  1.3387
  122TIP3    H2  331   1.150   6.035   2.297 -0.5288 -1.7408 -1.8907
  123TIP3   OH2  332   4.580   5.268   1.423  0.2916  0.1688 -0.0698
  123TIP3    H1  333   4.528   5.332   1.472 -0.6402  0.3906 -1.3033
  123TIP3    H2  334   4.623   5.320   1.355  1.5585 -0.1376  0.4627
  124TIP3   OH2  335   2.455   3.319   1.933  0.0297  0.1209  0.4131
  124TIP3    H1  336   2.473   3.377   2.007 -0.1184 -0.0951  0.6197
  124TIP3    H2  337   2.539   3.307   1.890  0.7763 -2.1894  2.3002
  125TIP3   OH2  338   5.529   4.361   4.492  0.1288  0.3063 -0.2333
  125TIP3    H1  339   5.476   4.420   4.438  0.2838  1.3384  0.6929
  125TIP3    H2  340   5.566   4.418   4.560  1.7658 -0.5364 -0.3688
  126TIP3   OH2  341   4.223   3.501   5.030 -0.2715  0.0216  0.1454
  126TIP3    H1  342   4.202   3.423   5.080  0.9013 -0.0178  0.6153
  126TIP3    H2  343   4.212   3.475   4.938  0.0664 -0.6821  0.3032
  127TIP3   OH2  344   4.878   5.467   4.625 -0.4093 -0.1498  0.7036
  127TIP3    H1  345   4.866   5.559   4.601  1.3942  0.1841  0.9277
  127TIP3    H2  346   4.798   5.443   4.671 -1.8016  0.6897 -1.1490
  128TIP3   OH2  347   4.720   1.098   3.017  0.5321 -0.3228 -0.4104
  128TIP3    H1  348   4.707   1.190   3.040 -0.6390 -1.1788  2.9575
  128TIP3    H2  349   4.672   1.087   2.935  0.0062  1.8728 -0.4694
  129TIP3   OH2  350   3.606   2.587   4.540  0.2253 -0.1483  0.2348
  129TIP3    H1  351   3.542   2.638   4.590  0.2593 -0.3970  0.5316
  129TIP3    H2  352   3.688   2.597   4.588  0.5571  0.6633 -0.4681
  130TIP3   OH2  353   5.390   2.647   3.315 -0.2594 -0.2797  0.5569
  130TIP3    H1  354   5.322   2.664   3.250 -0.3911  0.2318  0.8226
  130TIP3    H2  355   5.442   2.576   3.277 -0.1870  0.1732 -0.2205
  131TIP3   OH2  356   4.271   1.552   3.421 -0.3139  0.2209 -0.2075
  131TIP3    H1  357   4.179   1.556   3.396 -0.3072  0.5653 -0.1840
  131TIP3    H2  358   4.306   1.476   3.374 -0.6226  0.0541 -0.1708
  132TIP3   OH2  359   0.230   5.090   5.885 -0.8126  0.3205  0.1405
  132TIP3    H1  360   0.169   5.043   5.827  0.6433 -0.6053 -0.7141
  132TIP3    H2  361   0.291   5.022   5.914 -0.5499  1.1088  1.4674
  133TIP3   OH2  362   3.813   6.675   3.498  0.0205  0.6154  0.4357
  133TIP3    H1  363   3.794   6.767   3.515  0.0018  0.7613 -0.3143
  133TIP3    H2  364   3.902   6.675   3.462  0.5721  0.1831  1.7287
  134TIP3   OH2  365   6.308   0.892   5.365 -0.0701 -0.3863  0.2594
  134TIP3    H1  366   6.336   0.960   5.303 -0.7126 -0.0945  0.2817
  134TIP3    H2  367   6.222   0.865   5.333  0.4509 -1.6634 -0.1355
  135TIP3   OH2  368   4.441   2.044   3.832 -0.2829 -0.3120 -0.1188
  135TIP3    H1  369   4.381   2.080   3.898  2.0366  0.7003  1.5704
  135TIP3    H2  370   4.383   1.999   3.770 -2.7949  0.8618  1.1979
  136TIP3   OH2  371   1.738   4.602   4.766  0.0368 -0.4074  0.0902
  136TIP3    H1  372   1.813   4.552   4.734 -0.8133 -2.4070  1.1020
  136TIP3    H2  373   1.739   4.682   4.713  1.9991 -1.0431 -0.9291
  137TIP3   OH2  374   5.193   4.797   5.890 -0.2419 -0.3683 -0.0962
  137TIP3    H1  375   5.235   4.713   5.877  0.3345 -0.0920 -0.0248
  137TIP3    H2  376   5.240   4.858   5.834  0.2916  0.2024  0.9376
  138TIP3   OH2  377   5.804   6.054   3.333 -0.2674 -0.0847  0.1731
  138TIP3    H1  378   5.899   6.064   3.328 -0.2292 -0.3595  0.3313
  138TIP3    H2  379   5.772   6.139   3.362 -0.1499  0.2973 -0.7844
  139TIP3   OH2  380   1.404   2.032   2.092  0.0016  0.1980 -0.3488
  139TIP3    H1  381   1.347   1.960   2.118 -0.8218  0.4418 -1.3920
  139TIP3    H2  382   1.484   2.020   2.143  0.2426 -1.9892 -1.1568
  140TIP3   OH2  383   5.999   4.060   2.079  0.2632  0.7165 -0.8753
  140TIP3    H1  384   5.980   4.120   2.007  2.0530  0.4281 -1.6382
  140TIP3    H2  385   5.954   3.979   2.055  0.2637  0.8475 -1.3178
  141TIP3   OH2  386   2.084   4.875   0.062 -0.3936  0.1699  0.1505
  141TIP3    H1  387   2.098   4.884  -0.032 -0.9305 -0.4934 -0.0031
  141TIP3    H2  388   2.097   4.782   0.079  0.3529  0.3921  0.8513
  142TIP3   OH2  389   5.969   0.759   4.241 -0.5993 -0.5045 -0.3248
  142TIP3    H1  390   6.056   0.766   4.281 -1.5753 -0.5703  1.9735
  142TIP3    H2  391   5.914   0.817   4.293 -2.4425 -2.3537 -0.0672
  143TIP3   OH2  392   5.367   4.780   0.500 -0.1911  0.2461 -0.9940
  143TIP3    H1  393   5.378   4.768   0.594  0.6737 -1.4026 -1.2795
  143TIP3    H2  394   5.288   4.730   0.478  0.4301 -0.5998 -1.3541
  144TIP3   OH2  395   1.258   2.487   1.359 -0.4608  0.2300  0.6605
  144TIP3    H1  396   1.192   2.491   1.289 -0.9733  1.2031  1.1733
  144TIP3    H2  397   1.229   2.553   1.422  1.0316  0.6818  0.8892
  145TIP3   OH2  398   1.924   2.737   0.885 -0.4532  0.2364  0.3031
  145TIP3    H1  399   1.873   2.805   0.930 -1.0038 -0.0681  0.1571
  145TIP3    H2  400   1.870   2.658   0.893  0.4390 -0.3321  0.9725
  146TIP3   OH2  401   6.718   5.588   4.802  0.0725 -0.5631 -0.2703
  146TIP3    H1  402   6.740   5.616   4.713 -0.0981 -2.7433 -1.0570
  146TIP3    H2  403   6.786   5.525   4.825 -1.9153 -2.8955 -0.3892
  147TIP3   OH2  404   6.478   0.642   4.451 -0.2327  0.7346  0.2097
  147TIP3    H1  405   6.393   0.611   4.419  0.6917 -2.1122  0.2365
  147TIP3    H2  406   6.462   0.732   4.478 -2.5983  1.1996 -2.2759
  148TIP3   OH2  407   2.060   2.595   3.837 -0.0884 -0.7669 -0.5969
  148TIP3    H1  408   2.083   2.586   3.930  1.8003  1.0180 -0.8149
  148TIP3    H2  409   1.984   2.654   3.837  0.3256 -0.2236 -0.2009
  149TIP3   OH2  410   5.290   2.748   5.739  0.1931 -0.1892 -0.9118
  149TIP3    H1  411   5.321   2.826   5.786 -0.8327  0.0307 -0.5782
  149TIP3    H2  412   5.210   2.776   5.695 -0.7599 -1.3160  0.0473
  150TIP3   OH2  413   0.099   2.765   0.359  0.5490 -0.3109  0.5146
  150TIP3    H1  414   0.102   2.670   0.348  0.9378 -0.1420 -1.0148
  150TIP3    H2  415   0.181   2.796   0.320 -0.7351  0.8334 -1.4359
  151TIP3   OH2  416   3.067   1.734   1.654 -0.1648 -0.1391 -0.1522
  151TIP3    H1  417   3.139   1.796   1.666  0.4970 -0.9981  0.4414
  151TIP3    H2  418   2.994   1.788   1.623  0.6190  0.8084 -0.4144
  152TIP3   OH2  419   5.090   1.112   1.910 -0.0232  0.6402  0.0443
  152TIP3    H1  420   5.109   1.194   1.957  0.5781  0.5039  0.0419
  152TIP3    H2  421   5.170   1.060   1.919 -0.3047  0.1603 -0.1892
  153TIP3   OH2  422   6.368   3.476   5.407 -1.0371  0.0243 -0.5882
  153TIP3    H1  423   6.435   3.522   5.357  0.1488 -1.3143 -0.3251
  153TIP3    H2  424   6.344   3.536   5.477  2.0912 -0.4561  1.1009
  154TIP3   OH2  425   0.837   4.220   5.388  0.0906  0.5027 -0.1580
  154TIP3    H1  426   0.785   4.140   5.394 -0.2212  0.6535 -0.7230
  154TIP3    H2  427   0.922   4.191   5.357 -0.9017  0.6522 -3.4597
  155TIP3   OH2  428   4.860   2.031   2.698  0.4435  0.2384 -0.5896
  155TIP3    H1  429   4.842   2.047   2.791  0.6915  1.2672 -0.7057
  155TIP3    H2  430   4.782   1.986   2.666 -0.2534  1.1358 -0.1991
  156TIP3   OH2  431   4.862   0.397   0.350 -0.0083 -0.0728 -0.1199
  156TIP3    H1  432   4.941   0.403   0.403 -0.6948 -0.0536  0.9424
  156TIP3    H2  433   4.798   0.451   0.396 -0.9438 -0.9242 -0.3743
  157TIP3   OH2  434   4.082   2.432   2.834 -0.0049  0.0342  0.5231
  157TIP3    H1  435   4.125   2.398   2.912  1.9878  0.5678 -0.2900
  157TIP3    H2  436   4.141   2.499   2.800 -0.3588 -0.7737 -1.9331
  158TIP3   OH2  437   2.395   2.669   4.598 -0.9523  0.3266 -0.0501
  158TIP3    H1  438   2.414   2.759   4.569 -0.1905  0.0236 -0.4926
  158TIP3    H2  439   2.305   2.654   4.567 -1.3109  1.1393  0.5409
  159TIP3   OH2  440   2.785   4.124   0.818 -0.4017 -0.1440  0.0268
  159TIP3    H1  441   2.788   4.219   0.824  1.4953 -0.1683  0.1740
  159TIP3    H2  442   2.803   4.105   0.726  1.1994 -0.3592  0.3502
  160TIP3   OH2  443   4.050   4.820   4.854 -0.3335 -0.3295  0.1655
  160TIP3    H1  444   4.003   4.901   4.875  1.2319  0.8247 -0.5157
  160TIP3    H2  445   4.090   4.794   4.937  0.2851  0.3967  0.1104
  161TIP3   OH2  446   4.376   3.686   0.432  0.2877  0.0140 -0.0690
  161TIP3    H1  447   4.367   3.776   0.464  1.2224  0.6685 -1.5589
  161TIP3    H2  448   4.453   3.653   0.478 -0.1351 -0.0864  0.5816
  162TIP3   OH2  449   0.079   2.634   4.495 -0.8078 -0.4014  0.1257
  162TIP3    H1  450   0.099   2.662   4.406  1.9844 -1.3800  0.3331
  162TIP3    H2  451   0.157   2.656   4.545 -2.5130  0.6338  2.5271
  163TIP3   OH2  452   2.509   4.462   5.263  0.0420  0.2168  0.2168
  163TIP3    H1  453   2.431   4.517   5.251  1.1783  1.6970 -0.8113
  163TIP3    H2  454   2.578   4.524   5.286  1.7271 -0.5265 -2.4324
  164TIP3   OH2  455   7.090   4.275   0.208 -0.1827  0.0022  0.1191
  164TIP3    H1  456   7.076   4.346   0.146 -2.2421 -0.8476 -0.4977
  164TIP3    H2  457   7.002   4.240   0.224  0.2970  0.0111  3.3616
  165TIP3   OH2  458   4.768   3.768   1.068 -0.1093  0.2405  0.0549
  165TIP3    H1  459   4.744   3.740   0.980 -0.3852 -0.0251  0.2063
  165TIP3    H2  460   4.691   3.745   1.121 -0.7749  2.2406  0.0216
  166TIP3   OH2  461   1.171   4.670   4.976 -0.4080 -0.6586 -0.2445
  166TIP3    H1  462   1.174   4.574   4.971 -2.5729 -0.7609 -0.7133
  166TIP3    H2  463   1.088   4.693   4.933  0.2400  1.4597 -0.4436
  167TIP3   OH2  464   4.317   1.693   5.619  0.8171  0.2391  0.3796
  167TIP3    H1  465   4.235   1.732   5.588 -0.0662 -0.3211  1.9290
  167TIP3    H2  466   4.350   1.754   5.685  0.6465 -0.4662  1.1307
  168TIP3   OH2  467   3.651   2.734   5.844  0.5465 -0.0451 -0.0012
  168TIP3    H1  468   3.622   2.814   5.887  0.8066  0.0997 -0.0926
  168TIP3    H2  469   3.637   2.750   5.751 -0.6500 -0.6150  0.0695
  169TIP3   OH2  470   5.199   3.405   5.459 -0.6686 -0.1143 -0.6848
  169TIP3    H1  471   5.243   3.416   5.543  0.7682 -1.7844 -1.1586
  169TIP3    H2  472   5.231   3.477   5.405 -0.2596 -0.0318 -0.3341
  170TIP3   OH2  473   3.046   6.098   4.435  0.4203 -0.6139 -0.4445
  170TIP3    H1  474   3.098   6.018   4.438 -0.0494 -0.8989  1.3897
  170TIP3    H2  475   3.042   6.127   4.526 -3.6283 -1.3078 -0.1987
  171TIP3   OH2  476   1.581   1.085   4.617 -0.0490 -0.1196 -0.0263
  171TIP3    H1  477   1.573   1.011   4.556 -1.8421  0.5493 -0.6719
  171TIP3    H2  478   1.665   1.126   4.594  1.2340 -2.1703  0.6740
  172TIP3   OH2  479   2.618   5.810   1.414  0.0213 -0.0884 -0.5981
  172TIP3    H1  480   2.547   5.793   1.475 -0.0402 -0.7869 -0.8579
  172TIP3    H2  481   2.692   5.835   1.469 -0.0472 -0.6595 -0.2366
  173TIP3   OH2  482   5.700   0.828   0.931 -0.0156  0.0313  0.6607
  173TIP3    H1  483   5.747   0.747   0.949 -0.0317  0.3344  2.2754
  173TIP3    H2  484   5.768   0.891   0.909  0.1950  0.0195  1.2397
  174TIP3   OH2  485   2.484   3.763   3.029  0.0522 -0.0563  0.2857
  174TIP3    H1  486   2.470   3.686   3.084  2.2111 -2.1025 -1.8394
  174TIP3    H2  487   2.418   3.757   2.960  0.3922 -0.1488 -0.0339
  175TIP3   OH2  488   2.977   4.161   0.322  0.1803 -0.1133  0.2623
  175TIP3    H1  489   2.885   4.165   0.348 -1.2671 -1.8373 -3.8590
  175TIP3    H2  490   2.998   4.251   0.297 -1.6411 -0.2364 -2.0774
  176TIP3   OH2  491   3.976   6.124   4.131 -0.3098  0.0726 -0.2183
  176TIP3    H1  492   3.988   6.181   4.207 -0.9300 -1.1707  0.8544
  176TIP3    H2  493   3.899   6.159   4.086  0.6755  1.4479 -0.9015
  177TIP3   OH2  494   4.032   6.296   1.143  0.1265 -0.0744 -0.1831
  177TIP3    H1  495   4.084   6.377   1.144 -2.7040  1.9245 -1.2710
  177TIP3    H2  496   3.993   6.294   1.055  0.6034 -3.0567 -0.4393
  178TIP3   OH2  497   4.569   0.412   0.250  0.3456  0.1051  0.0946
  178TIP3    H1  498   4.587   0.398   0.343  0.2768  0.1857  0.1200
  178TIP3    H2  499   4.488   0.364   0.234  0.5853 -0.2682 -0.0230
  179TIP3   OH2  500   2.842   0.082   1.400 -0.7551  0.2076  0.1630
  179TIP3    H1  501   2.779   0.009   1.403 -0.4084 -0.1246 -0.4011
  179TIP3    H2  502   2.810   0.144   1.465 -0.9385 -0.5505  0.8131
  180TIP3   OH2  503   5.417   4.404   5.096 -0.3019  0.6435 -0.0104
  180TIP3    H1  504   5.426   4.384   5.003 -1.6214 -0.0321 -0.0090
  180TIP3    H2  505   5.377   4.491   5.098 -0.7601  0.4339 -0.0800
  181TIP3   OH2  506   3.959   5.831   1.030 -0.1199 -0.5199  0.3488
  181TIP3    H1  507   3.986   5.900   0.969  0.9503  0.2491  1.6484
  181TIP3    H2  508   3.872   5.805   0.999  1.0418 -1.3581 -2.5104
  182TIP3   OH2  509   5.818   1.167   5.662 -0.1474  0.1473  0.6157
  182TIP3    H1  510   5.753   1.169   5.731 -0.7682 -0.0700  0.0482
  182TIP3    H2  511   5.789   1.233   5.599 -0.3469 -0.6037 -0.0961
  183TIP3   OH2  512   2.591   2.538   2.582  0.0447  0.2471 -0.0056
  183TIP3    H1  513   2.656   2.513   2.517 -0.7833 -2.1411 -0.0106
  183TIP3    H2  514   2.519   2.576   2.532  1.3349  2.9249  0.0018
  184TIP3   OH2  515   7.070   5.317   2.970 -0.0710 -0.4650 -0.1865
  184TIP3    H1  516   7.004   5.248   2.968 -0.6976  0.0758  0.9731
  184TIP3    H2  517   7.109   5.311   3.057  0.3911  0.1741 -0.3392
  185TIP3   OH2  518   1.589   1.036   3.988  0.5278  0.4849 -0.6615
  185TIP3    H1  519   1.626   1.042   4.076 -2.9107 -4.1231  1.5531
  185TIP3    H2  520   1.518   1.100   3.987  0.5372  0.5141  0.0084
  186TIP3   OH2  521   6.328   1.881   3.857 -0.4668  0.0276  0.2936
  186TIP3    H1  522   6.398   1.947   3.860 -1.2406  0.9207 -0.5310
  186TIP3    H2  523   6.280   1.893   3.938 -0.3644  0.2083  0.3289
  187TIP3   OH2  524   2.261   4.644   1.454  0.5547 -0.4307  0.0511
  187TIP3    H1  525   2.318   4.721   1.462 -0.8334  0.5795  0.5828
  187TIP3    H2  526   2.260   4.625   1.361 -0.4840  1.3413 -0.3585
  188TIP3   OH2  527   2.953   6.018  -0.011  0.4974 -0.1400  0.0856
  188TIP3    H1  528   2.871   5.970   0.005  0.5297  0.0118  0.7146
  188TIP3    H2  529   3.015   5.981   0.051  1.0998 -0.6890 -0.8088
  189TIP3   OH2  530   7.191   5.255   1.669 -0.4715  0.3429 -0.5086
  189TIP3    H1  531   7.125   5.286   1.607  0.3379 -2.0619 -2.7933
  189TIP3    H2  532   7.255   5.326   1.674 -0.3598  0.5008 -2.8484
  190TIP3   OH2  533   3.842   6.713   3.821  0.2344 -0.6839 -0.1404
  190TIP3    H1  534   3.875   6.636   3.866  1.1231 -1.0978 -1.4263
  190TIP3    H2  535   3.865   6.699   3.729 -0.6908  0.5406 -0.5964
  191TIP3   OH2  536   1.231   2.325   1.639  0.0236 -0.9514 -0.0131
  191TIP3    H1  537   1.173   2.275   1.696 -0.1863 -1.7139 -0.8703
  191TIP3    H2  538   1.194   2.414   1.639 -0.7308 -1.2591  0.0020
  192TIP3   OH2  539   1.442   0.243   1.602  0.4505 -0.0216  0.2600
  192TIP3    H1  540   1.508   0.186   1.562  0.8320  0.4921  0.1383
  192TIP3    H2  541   1.439   0.320   1.545 -1.7889 -0.9118 -0.9460
  193TIP3   OH2  542   6.115   1.830   3.666 -0.0563 -0.3888  0.1336
  193TIP3    H1  543   6.183   1.865   3.723  0.9268 -1.0447 -0.6171
  193TIP3    H2  544   6.033   1.864   3.703  0.7800  2.0500 -0.1059
  194TIP3   OH2  545   3.115   1.963   0.725  0.0118  0.2347 -0.3593
  194TIP3    H1  546   3.062   1.934   0.799  0.4301  0.2472 -0.0555
  194TIP3    H2  547   3.135   2.055   0.744 -0.9456  0.6179 -1.1093
  195TIP3   OH2  548   0.492   0.123   1.719 -0.3967  0.6051  0.1933
  195TIP3    H1  549   0.506   0.217   1.727  0.6598  0.4445  0.4052
  195TIP3    H2  550   0.562   0.084   1.772  0.1984 -0.3252 -1.2097
  196TIP3   OH2  551   3.641   5.065   1.655 -0.4338  0.2865 -0.0992
  196TIP3    H1  552   3.651   5.120   1.732  0.7719 -0.7359  0.5238
  196TIP3    H2  553   3.550   5.077   1.628 -0.8534  0.7530  1.4158
  197TIP3   OH2  554   4.030   3.001   1.563  0.0991  0.6040  0.7212
  197TIP3    H1  555   4.061   3.082   1.603  0.0683  0.4985  0.9567
  197TIP3    H2  556   4.087   2.988   1.487  1.0353  0.0904  1.4903
  198TIP3   OH2  557   1.783   5.359   4.295  0.5370  0.1686  0.0203
  198TIP3    H1  558   1.821   5.325   4.376  0.4816 -1.1911 -0.4943
  198TIP3    H2  559   1.767   5.281   4.241 -0.2120  0.9687 -0.9637
  199TIP3   OH2  560   0.544   5.010   5.126 -0.0169  0.4900  0.3949
  199TIP3    H1  561   0.473   5.002   5.190 -1.2160 -1.2469 -1.0619
  199TIP3    H2  562   0.609   5.065   5.170 -2.2003  2.1053  1.8190
  200TIP3   OH2  563   4.135   3.153   0.754  0.2727  0.2852  0.5794
  200TIP3    H1  564   4.190   3.144   0.831  0.0263  2.6053  1.0933
  200TIP3    H2  565   4.067   3.086   0.764  0.8518 -0.1287  1.8265
  201TIP3   OH2  566   3.453   0.069   1.058 -0.2529  0.0918  0.4596
  201TIP3    H1  567   3.411   0.054   0.974 -0.4385  1.4104  0.2970
  201TIP3    H2  568   3.546   0.073   1.038 -0.3148  0.6646  0.2637
  202TIP3   OH2  569   5.595   4.146   2.489 -0.1938  0.7292 -0.3667
  202TIP3    H1  570   5.686   4.155   2.458  0.0615 -0.0250  0.1283
  202TIP3    H2  571   5.564   4.236   2.497  0.9233  1.0497  0.6418
  203TIP3   OH2  572   4.287   2.086   2.619 -0.1284 -0.4247 -0.0563
  203TIP3    H1  573   4.206   2.126   2.650  0.5328  0.1623  0.9858
  203TIP3    H2  574   4.351   2.107   2.687  1.0499 -0.3116 -1.1779
  204TIP3   OH2  575   3.772   0.200   0.564 -0.1361 -0.3502  0.4361
  204TIP3    H1  576   3.752   0.107   0.577  1.9955 -0.9528 -0.2324
  204TIP3    H2  577   3.834   0.221   0.634 -0.4620  0.5362  0.4715
  205TIP3   OH2  578   6.555   0.052   0.960 -0.2008 -0.0480 -0.9178
  205TIP3    H1  579   6.545   0.129   1.016  0.3007  0.3870 -1.4084
  205TIP3    H2  580   6.621   0.078   0.896 -1.1368 -0.3362 -2.0396
  206TIP3   OH2  581   1.102   6.761   1.465  0.1797  0.4766 -0.0146
  206TIP3    H1  582   1.145   6.844   1.447  0.3397  0.2165 -0.8892
  206TIP3    H2  583   1.009   6.777   1.446  0.3273  0.2427 -0.9832
  207TIP3   OH2  584   6.187   3.237   3.710 -0.4030 -0.2550 -0.2983
  207TIP3    H1  585   6.170   3.321   3.753  2.0534 -0.7531  1.9047
  207TIP3    H2  586   6.101   3.194   3.707 -1.3761  1.5419  0.2353
  208TIP3   OH2  587   6.224   3.117   0.376  0.0263 -0.1291 -0.0428
  208TIP3    H1  588   6.316   3.145   0.378  0.5520 -1.5148 -1.8828
  208TIP3    H2  589   6.188   3.159   0.299 -0.7931  0.0816  0.4459
  209TIP3   OH2  590   5.116   0.931   1.281 -0.2426  0.0152 -0.6685
  209TIP3    H1  591   5.117   0.836   1.279 -0.7429  0.0073 -0.7014
  209TIP3    H2  592   5.092   0.954   1.371  1.9698  0.1464 -0.0612
  210TIP3   OH2  593   3.954   1.928   4.688  0.6568  0.2051 -0.0825
  210TIP3    H1  594   3.888   1.983   4.646  0.8891 -1.5001 -2.9208
  210TIP3    H2  595   4.036   1.974   4.676  0.5422  0.3495 -0.3051
  211TIP3   OH2  596   0.073   4.303   3.817  0.3280 -0.2127 -0.4043
  211TIP3    H1  597   0.046   4.312   3.908 -0.3098 -2.6885 -0.2810
  211TIP3    H2  598   0.161   4.265   3.822  0.3380 -0.2467 -0.8143
  212TIP3   OH2  599   3.480   3.826   0.791 -0.2996 -0.5311  0.1937
  212TIP3    H1  600   3.476   3.919   0.814  0.2061 -0.2361 -0.8330
  212TIP3    H2  601   3.427   3.818   0.712 -0.5963 -1.1849  0.4508
  213TIP3   OH2  602   2.780   5.499   3.357  0.1027  0.2836  0.0643
  213TIP3    H1  603   2.740   5.413   3.345  2.1996 -0.8815  0.9015
  213TIP3    H2  604   2.815   5.522   3.271 -1.2661  0.7921 -0.3925
  214TIP3   OH2  605   0.644   2.716   4.500  0.4007 -0.0980  0.2122
  214TIP3    H1  606   0.680   2.690   4.416 -0.6592 -1.3503  0.1300
  214TIP3    H2  607   0.692   2.663   4.564  0.3231 -0.0654  0.2974
  215TIP3   OH2  608   3.472   3.870   4.734 -0.3363 -0.1683  0.0455
  215TIP3    H1  609   3.463   3.870   4.829  0.7847  1.7067  0.1879
  215TIP3    H2  610   3.382   3.880   4.702 -0.6485 -0.0629  0.9231
  216TIP3   OH2  611   0.541   5.153   0.787  0.1426 -0.9548 -0.2738
  216TIP3    H1  612   0.588   5.215   0.730  1.3944 -1.8034 -0.2110
  216TIP3    H2  613   0.486   5.103   0.727 -0.1825 -0.4064 -0.4440
  217TIP3   OH2  614   6.792   2.404   5.009 -0.5742 -0.9458 -0.1802
  217TIP3    H1  615   6.874   2.399   5.058  0.2560 -0.0482 -1.4097
  217TIP3    H2  616   6.819   2.404   4.917 -1.8118  1.0720 -0.6051
  218TIP3   OH2  617   1.750   6.105   3.231  0.0746 -0.1549  0.8566
  218TIP3    H1  618   1.766   6.078   3.140  0.0388  0.2721  0.7175
  218TIP3    H2  619   1.836   6.130   3.263 -0.2411  2.1510  0.1053
  219TIP3   OH2  620   7.114   4.554   3.175  0.3245 -0.2015  0.8667
  219TIP3    H1  621   7.155   4.599   3.249  0.4640  3.1887 -1.0825
  219TIP3    H2  622   7.024   4.585   3.176  0.8175  1.5353 -1.4447
  220TIP3   OH2  623   6.837   3.790   4.947  0.0866 -0.0880  0.1503
  220TIP3    H1  624   6.827   3.718   4.884 -1.6440  1.1611 -1.0618
  220TIP3    H2  625   6.840   3.869   4.894 -1.4723  1.0184  1.6052
  221TIP3   OH2  626   5.126   5.650   0.475 -0.5554  0.2976 -0.0777
  221TIP3    H1  627   5.187   5.690   0.414  2.0763 -3.5146 -0.2640
  221TIP3    H2  628   5.062   5.605   0.420 -1.4297  1.2728  0.1050
  222TIP3   OH2  629   2.804   2.176   0.807  0.1914 -0.2130 -0.2325
  222TIP3    H1  630   2.835   2.092   0.843 -1.2067 -0.9425 -0.6331
  222TIP3    H2  631   2.884   2.223   0.784  1.0272 -1.2337  0.4493
  223TIP3   OH2  632   7.182   1.420   2.239  0.7745 -0.1189  0.1281
  223TIP3    H1  633   7.118   1.458   2.179  0.4847  0.6010  0.8675
  223TIP3    H2  634   7.174   1.325   2.226 -0.3346 -0.0323  0.0889
  224TIP3   OH2  635   4.505   1.205   3.508 -0.1917  0.6599 -0.1681
  224TIP3    H1  636   4.435   1.147   3.539 -0.3820  0.4697 -0.9308
  224TIP3    H2  637   4.586   1.157   3.525 -0.2698  0.7140  0.3623
  225TIP3   OH2  638   0.527   0.624   0.809  0.4952  0.1205 -0.3962
  225TIP3    H1  639   0.456   0.680   0.840  0.8980 -0.2821  1.3693
  225TIP3    H2  640   0.606   0.674   0.825  0.7201 -0.1294 -0.7192
  226TIP3   OH2  641   6.698   1.564   1.934  0.0507  0.2352  0.3386
  226TIP3    H1  642   6.754   1.492   1.964 -1.1980 -1.2257 -0.7002
  226TIP3    H2  643   6.674   1.611   2.014  2.6506  0.8848  0.8317
  227TIP3   OH2  644   2.473   4.226   4.758  0.0065  0.2701 -0.2248
  227TIP3    H1  645   2.398   4.201   4.704  0.1073 -3.9647  1.2568
  227TIP3    H2  646   2.547   4.229   4.697 -0.4608 -1.0230 -0.8873
  228TIP3   OH2  647   1.586   5.184   1.522  0.1689  0.0812  0.3604
  228TIP3    H1  648   1.586   5.135   1.605  0.7076 -0.1584  0.2258
  228TIP3    H2  649   1.679   5.192   1.500  0.0264 -2.8064 -1.9562
  229TIP3   OH2  650   3.123   2.171   0.306  0.9951  0.2597  0.3843
  229TIP3    H1  651   3.064   2.097   0.291  0.0966  1.2135 -0.9682
  229TIP3    H2  652   3.065   2.248   0.306  1.9406  1.0130  1.4978
  230TIP3   OH2  653   5.403   6.479   5.302 -0.5113 -0.4350  0.4870
  230TIP3    H1  654   5.401   6.504   5.394 -0.0505 -0.4461  0.5028
  230TIP3    H2  655   5.489   6.506   5.272 -0.2567 -1.3896  0.3265
  231TIP3   OH2  656   2.646   0.826   5.224  0.1161 -0.4179  0.3733
  231TIP3    H1  657   2.707   0.756   5.245  0.3324 -0.2011  0.4730
  231TIP3    H2  658   2.689   0.876   5.155 -1.1470 -1.8919 -1.6044
  232TIP3   OH2  659   4.465   3.135   1.374 -0.2542 -0.0146  0.2465
  232TIP3    H1  660   4.554   3.126   1.408  0.3375 -4.0776 -1.8519
  232TIP3    H2  661   4.475   3.180   1.290  0.1394 -2.0448 -0.8350
  233TIP3   OH2  662   3.781   3.964   3.588  0.2240  0.3024 -0.2744
  233TIP3    H1  663   3.814   4.054   3.596  0.1923  0.3132 -0.2670
  233TIP3    H2  664   3.841   3.922   3.527  2.9212 -0.9276  2.8704
  234TIP3   OH2  665   1.604   3.233   0.004  0.1737 -0.2297  0.5793
  234TIP3    H1  666   1.573   3.143   0.008  0.6264 -0.3946  0.4440
  234TIP3    H2  667   1.530   3.286   0.034 -1.4260 -0.3255 -2.7608
  235TIP3   OH2  668   0.173   0.461   3.601  0.6125  0.3543 -0.1613
  235TIP3    H1  669   0.199   0.369   3.607 -1.9371 -0.4676 -0.2117
  235TIP3    H2  670   0.219   0.504   3.674  2.0659 -0.8766 -0.3083
  236TIP3   OH2  671   3.613   1.070   0.913  0.0537 -0.5938  1.0202
  236TIP3    H1  672   3.636   1.075   0.820  0.5276 -0.4035  1.1410
  236TIP3    H2  673   3.697   1.055   0.957 -0.3794 -2.4564  1.2927
  237TIP3   OH2  674   5.722   2.617   2.638  0.2071  0.2571  0.5713
  237TIP3    H1  675   5.764   2.579   2.560 -0.7245  1.8948 -0.8179
  237TIP3    H2  676   5.634   2.578   2.639  0.5606 -0.5546  1.4552
  238TIP3   OH2  677   1.180   6.308   2.881 -0.1427 -0.7200 -0.2357
  238TIP3    H1  678   1.236   6.232   2.865 -1.0440 -1.8993  1.7852
  238TIP3    H2  679   1.104   6.293   2.826 -0.2296 -1.2006  0.0067
  239TIP3   OH2  680   4.954   4.812   2.613 -0.3522 -0.2104  0.0351
  239TIP3    H1  681   4.997   4.758   2.547 -0.3923 -2.4333  1.7204
  239TIP3    H2  682   4.860   4.794   2.600 -0.3361 -0.9609  0.9300
  240TIP3   OH2  683   6.512   5.624   3.611  0.2774 -0.0648 -0.4037
  240TIP3    H1  684   6.423   5.614   3.576  1.0088 -1.3932 -2.0390
  240TIP3    H2  685   6.524   5.548   3.668  0.2914  0.2728  0.0555
  241TIP3   OH2  686   6.106   0.307   5.365 -0.1863  0.0437 -0.2294
  241TIP3    H1  687   6.099   0.223   5.320  1.3485  0.0806 -0.5944
  241TIP3    H2  688   6.101   0.285   5.458  1.5526 -0.6446 -0.2670
  242TIP3   OH2  689   0.741   5.313   4.505  0.5410 -0.1914 -0.3479
  242TIP3    H1  690   0.789   5.374   4.560  0.7666 -1.8940  1.4759
  242TIP3    H2  691   0.756   5.227   4.546 -0.7383 -1.3118 -2.0792
  243TIP3   OH2  692   1.298   1.613   4.707 -0.4141  0.2077  0.0415
  243TIP3    H1  693   1.231   1.546   4.719 -0.6034  0.1961 -1.0054
  243TIP3    H2  694   1.318   1.611   4.613  0.9289  0.3193  0.2997
  244TIP3   OH2  695   4.718   5.642   3.704  0.5470 -0.3441  0.4973
  244TIP3    H1  696   4.684   5.725   3.670  1.8915  0.5003  1.1349
  244TIP3    H2  697   4.660   5.622   3.778  0.6146  0.3819  0.7606
  245TIP3   OH2  698   3.018   0.516   3.416 -0.1321  0.2991  0.3802
  245TIP3    H1  699   3.087   0.557   3.363  1.0524 -0.0414  1.6114
  245TIP3    H2  700   2.997   0.582   3.482 -0.5032  0.1333  0.4261
  246TIP3   OH2  701   7.035   1.950   1.421  0.2066 -0.9758 -0.1906
  246TIP3    H1  702   7.065   2.020   1.479 -0.1254 -1.4709  0.5949
  246TIP3    H2  703   7.111   1.893   1.410  0.9089  0.2265 -1.9772
  247TIP3   OH2  704   1.497   3.505   5.046  0.3240  0.6204 -0.1680
  247TIP3    H1  705   1.420   3.562   5.040 -1.1678 -1.0868  1.4158
  247TIP3    H2  706   1.471   3.424   5.001  1.5428  0.3036 -0.3556
  248TIP3   OH2  707   1.515   3.976   2.301  0.4120  0.4507 -0.2885
  248TIP3    H1  708   1.503   3.889   2.264 -1.0303 -0.0166  1.1299
  248TIP3    H2  709   1.427   4.012   2.305  0.6133  0.8520  1.6700
  249TIP3   OH2  710   0.838   6.801   5.251 -0.1041 -0.5131 -0.1902
  249TIP3    H1  711   0.910   6.745   5.220  1.6994  1.1706  0.7092
  249TIP3    H2  712   0.816   6.767   5.337  1.3359  0.3487  0.5743
  250TIP3   OH2  713   6.939   2.150   2.258 -0.1799  0.1428  0.1141
  250TIP3    H1  714   6.941   2.055   2.263 -1.3686  0.1333  0.9385
  250TIP3    H2  715   6.932   2.169   2.164 -3.1815 -0.7409  0.0493
  251TIP3   OH2  716   1.672   0.116   3.099 -0.3873 -0.0753  0.2120
  251TIP3    H1  717   1.732   0.184   3.129 -0.5348  0.4534 -0.6368
  251TIP3    H2  718   1.669   0.052   3.170  1.3061 -0.2077  0.1881
  252TIP3   OH2  719   3.161   1.797   2.927 -0.4626 -0.0824 -0.0920
  252TIP3    H1  720   3.110   1.716   2.926  1.2410 -1.2249 -2.0911
  252TIP3    H2  721   3.113   1.856   2.870  0.5639 -1.3334 -2.4007
  253TIP3   OH2  722   0.017   1.862   5.715 -0.4351 -0.4955 -0.0752
  253TIP3    H1  723  -0.036   1.924   5.764  0.8423 -0.4847  1.3576
  253TIP3    H2  724   0.060   1.809   5.782 -0.9304 -2.4824 -1.2398
  254TIP3   OH2  725   5.391   4.407   2.984 -0.4836 -0.3576  0.2699
  254TIP3    H1  726   5.346   4.492   2.982 -2.2476 -1.2433  0.2114
  254TIP3    H2  727   5.351   4.357   2.912  0.0254 -1.4617  0.7269
  255TIP3   OH2  728   6.736   3.559   1.433  0.2372  0.3314 -0.2714
  255TIP3    H1  729   6.750   3.529   1.523  1.6726  1.5508 -0.0500
  255TIP3    H2  730   6.795   3.506   1.380  0.3859  0.5359 -0.3111
  256TIP3   OH2  731   2.280   5.218   3.145 -0.1198  0.0018  0.4754
  256TIP3    H1  732   2.275   5.249   3.236 -1.0145 -1.6667  1.0314
  256TIP3    H2  733   2.215   5.271   3.098  0.4223  0.9485  0.7621
  257TIP3   OH2  734   0.127   5.359   3.467 -0.0167 -0.5879  0.0639
  257TIP3    H1  735   0.156   5.278   3.507  1.1075 -0.4958 -0.5375
  257TIP3    H2  736   0.203   5.391   3.418 -0.9913 -0.1237 -1.2213
  258TIP3   OH2  737   0.224   2.140   3.692 -0.5903 -0.2967 -0.2530
  258TIP3    H1  738   0.266   2.112   3.610 -2.1769  0.0375 -1.2326
  258TIP3    H2  739   0.237   2.235   3.693  0.2668 -0.4132  0.3970
  259TIP3   OH2  740   1.690   2.470   0.382  0.4641 -0.1978  0.1648
  259TIP3    H1  741   1.758   2.423   0.429  0.3040 -0.5807  0.0211
  259TIP3    H2  742   1.653   2.404   0.323 -1.1492 -0.4704  1.4023
  260TIP3   OH2  743   6.130   1.548   3.778  0.0276  0.0728  0.4649
  260TIP3    H1  744   6.220   1.565   3.807  0.4231  1.0681 -1.2584
  260TIP3    H2  745   6.096   1.633   3.754 -2.4369  0.2040  3.6885
  261TIP3   OH2  746   4.432   2.802   4.986  0.3450 -0.2297 -0.1822
  261TIP3    H1  747   4.344   2.810   5.023 -0.0332  1.2168 -1.2971
  261TIP3    H2  748   4.425   2.729   4.924 -0.9187  1.5525 -2.3183
  262TIP3   OH2  749   4.518   5.074   1.627  0.4736  0.0181 -0.4091
  262TIP3    H1  750   4.557   5.112   1.548  1.3947 -0.9057 -0.4246
  262TIP3    H2  751   4.446   5.020   1.595  0.1313  0.5242 -0.5096
  263TIP3   OH2  752   6.186   1.196   1.468 -0.1796 -0.2451  0.0702
  263TIP3    H1  753   6.238   1.276   1.482 -0.3547  0.0350 -0.8132
  263TIP3    H2  754   6.101   1.228   1.438 -0.7140 -0.7234  1.0401
  264TIP3   OH2  755   3.897   6.553   4.465  0.6049 -0.3553  0.0197
  264TIP3    H1  756   3.831   6.525   4.402  1.4652  0.6271 -1.3925
  264TIP3    H2  757   3.919   6.474   4.514 -0.5324 -1.0159 -0.4920
  265TIP3   OH2  758   0.158   1.929   0.305 -0.0335  0.0959  0.3034
  265TIP3    H1  759   0.098   1.868   0.348 -0.5193  1.0636  1.0521
  265TIP3    H2  760   0.161   1.901   0.214  0.5785 -1.6825  0.8220
  266TIP3   OH2  761   2.876   0.481   1.664 -0.1955 -0.2628 -0.1866
  266TIP3    H1  762   2.831   0.398   1.650  0.2341 -0.1283 -2.8106
  266TIP3    H2  763   2.813   0.535   1.710 -1.4565 -1.1812 -0.7929
  267TIP3   OH2  764   7.021   4.802   5.231  0.3201 -0.6974  0.0887
  267TIP3    H1  765   7.007   4.851   5.312 -0.7425  0.9124 -1.0066
  267TIP3    H2  766   7.075   4.860   5.177  0.8600 -1.6693 -0.4480
  268TIP3   OH2  767   0.124   6.158   3.454 -0.0167 -0.3618  0.2821
  268TIP3    H1  768   0.160   6.246   3.446 -0.2551 -0.3531 -0.8313
  268TIP3    H2  769   0.073   6.146   3.374  0.1402 -1.5693  0.3488
  269TIP3   OH2  770   2.284   3.224   3.114  0.2256  0.1526  0.0412
  269TIP3    H1  771   2.326   3.148   3.073 -1.1894 -1.7943  1.9249
  269TIP3    H2  772   2.193   3.220   3.083  0.2806  1.5126 -0.3506
  270TIP3   OH2  773   4.422   3.307   0.582  0.8532  0.5005  0.6754
  270TIP3    H1  774   4.346   3.362   0.566  0.8053  0.1700 -0.3424
  270TIP3    H2  775   4.394   3.220   0.554  1.2086  0.1306  1.4500
  271TIP3   OH2  776   4.196   0.179   3.884 -0.3120  0.3825 -0.0626
  271TIP3    H1  777   4.249   0.105   3.854 -0.2660  0.0613  0.7833
  271TIP3    H2  778   4.195   0.171   3.980 -1.2462  0.8220 -0.0211
  272TIP3   OH2  779   3.039   4.434   0.273 -0.1339 -0.2666  0.2497
  272TIP3    H1  780   3.081   4.479   0.346 -0.2235  0.9114 -0.3937
  272TIP3    H2  781   3.019   4.504   0.210  0.4859 -1.3121 -1.1645
  273TIP3   OH2  782   0.386   1.321   1.389 -0.7930  0.2917  0.4243
  273TIP3    H1  783   0.437   1.243   1.372 -0.9404  0.4262 -0.7397
  273TIP3    H2  784   0.441   1.375   1.446  0.5165  0.5587 -1.0069
  274TIP3   OH2  785   5.848   0.856   2.786 -0.0671 -0.1137 -0.3373
  274TIP3    H1  786   5.867   0.854   2.880  1.2619 -2.0054 -0.5960
  274TIP3    H2  787   5.890   0.937   2.756 -0.3138  0.4025  0.6385
  275TIP3   OH2  788   2.542   3.670   4.009  0.2537  0.0927  0.2829
  275TIP3    H1  789   2.507   3.584   3.983 -1.8061  0.9817 -0.1152
  275TIP3    H2  790   2.465   3.727   4.013  1.7565  2.3880 -1.2273
  276TIP3   OH2  791   4.535   5.245   4.125  0.1838  0.1345  0.1620
  276TIP3    H1  792   4.502   5.232   4.036 -1.1700  0.1056  0.6456
  276TIP3    H2  793   4.532   5.158   4.165 -1.6693  0.5516  1.0221
  277TIP3   OH2  794   3.814   0.980   4.013 -0.5073 -0.3551  0.0561
  277TIP3    H1  795   3.818   1.074   4.032  1.5570 -0.2493 -0.6174
  277TIP3    H2  796   3.866   0.940   4.082  2.6661 -0.4557 -2.1540
  278TIP3   OH2  797   6.807   6.446   0.274 -0.0746 -0.1305  0.6873
  278TIP3    H1  798   6.849   6.431   0.359  1.5614  1.1978  0.1737
  278TIP3    H2  799   6.852   6.386   0.215 -0.2772 -0.1058  0.5078
  279TIP3   OH2  800   0.063   4.161   0.526  0.2011 -0.2994 -0.1807
  279TIP3    H1  801   0.012   4.201   0.597  1.2515  2.1130 -0.7120
  279TIP3    H2  802   0.029   4.071   0.521 -1.2904  0.0515  2.0179
  280TIP3   OH2  803   5.841   5.573   5.831 -0.2916  0.1353 -0.2135
  280TIP3    H1  804   5.872   5.644   5.888 -1.4766 -0.5663  1.4008
  280TIP3    H2  805   5.883   5.494   5.866  1.6678  0.0624 -2.4953
  281TIP3   OH2  806   4.976   6.209   4.757  0.2734  0.5145  0.1211
  281TIP3    H1  807   4.886   6.229   4.731 -0.4304 -1.7501  0.5695
  281TIP3    H2  808   4.975   6.213   4.853  0.4381 -0.2794  0.1598
  282TIP3   OH2  809   4.466   1.618   1.891 -0.0518  0.5199 -0.0648
  282TIP3    H1  810   4.510   1.701   1.870  0.7077  0.0202 -0.4745
  282TIP3    H2  811   4.376   1.631   1.860  0.3917  0.7350 -1.3287
  283TIP3   OH2  812   7.148   1.597   1.301  0.3067  0.0289  0.0547
  283TIP3    H1  813   7.167   1.679   1.346 -1.4951  0.3595  0.2549
  283TIP3    H2  814   7.071   1.562   1.346  0.5219 -1.3478 -0.5919
  284TIP3   OH2  815   2.940   4.703   3.980 -0.0852  0.6201  0.4577
  284TIP3    H1  816   2.954   4.630   3.919 -1.5364  0.4947  0.2468
  284TIP3    H2  817   3.017   4.702   4.037 -0.5603 -1.7807  1.1647
  285TIP3   OH2  818   5.507   0.433   4.233  0.3560  0.0838  0.2045
  285TIP3    H1  819   5.523   0.339   4.233 -1.3757 -0.2498  1.4767
  285TIP3    H2  820   5.465   0.451   4.149 -0.4181 -0.5010  0.4599
  286TIP3   OH2  821   1.258   1.951   3.870 -0.2198 -0.0218  0.0161
  286TIP3    H1  822   1.219   1.974   3.786 -1.1840  0.1651  0.4874
  286TIP3    H2  823   1.347   1.923   3.850 -0.7187 -0.8124 -1.1567
  287TIP3   OH2  824   6.606   3.541   0.532 -0.3763  0.5762 -0.1422
  287TIP3    H1  825   6.581   3.557   0.623 -1.2951 -0.9407 -0.0889
  287TIP3    H2  826   6.701   3.534   0.534 -0.5017 -1.7380  1.1530
  288TIP3   OH2  827   5.855   2.671   5.650  0.1769 -0.2319 -0.0476
  288TIP3    H1  828   5.863   2.753   5.701 -0.0959 -0.3931  0.2587
  288TIP3    H2  829   5.761   2.661   5.636  0.1259 -1.0421  0.8249
  289TIP3   OH2  830   3.002   4.255   2.160 -0.1902  0.7647 -0.3338
  289TIP3    H1  831   2.987   4.212   2.244  0.6201  0.2756 -0.4168
  289TIP3    H2  832   2.917   4.253   2.116 -1.1291  2.8326  1.2480
  290TIP3   OH2  833   1.983   1.607   3.745  0.7544  0.2052 -0.0100
  290TIP3    H1  834   1.992   1.582   3.653  1.5291 -0.7490  0.3096
  290TIP3    H2  835   1.893   1.637   3.753  0.8622  0.9269 -1.2249
  291TIP3   OH2  836   1.790   0.741   4.221  0.2893  0.1549  0.2409
  291TIP3    H1  837   1.741   0.786   4.290  1.6546 -0.0925  1.4091
  291TIP3    H2  838   1.875   0.784   4.219  1.0580 -1.2972  0.2621
  292TIP3   OH2  839   1.868   4.519   5.016  0.2316  0.6986  0.4572
  292TIP3    H1  840   1.795   4.511   4.954  0.7415  2.9757 -0.5534
  292TIP3    H2  841   1.828   4.515   5.102 -0.8062 -0.1185 -0.0456
  293TIP3   OH2  842   1.267   5.610   1.625 -0.2133 -0.2036 -0.4251
  293TIP3    H1  843   1.320   5.535   1.597  1.6722  0.8151  0.2633
  293TIP3    H2  844   1.254   5.596   1.719 -2.0002 -0.8892 -0.7237
  294TIP3   OH2  845   0.599   4.706   4.792 -0.2807 -0.2639  0.0190
  294TIP3    H1  846   0.530   4.685   4.729  0.6698 -0.9499 -0.8435
  294TIP3    H2  847   0.640   4.622   4.811  1.2552  0.2912 -0.6580
  295TIP3   OH2  848   2.118   4.591   0.119  0.7182 -0.4975  0.2151
  295TIP3    H1  849   2.077   4.558   0.199 -0.2252  1.6580  0.6904
  295TIP3    H2  850   2.190   4.530   0.103 -0.8762 -2.7349  0.9939
  296TIP3   OH2  851   1.494   2.484   3.249 -0.1293  0.2817 -0.4966
  296TIP3    H1  852   1.508   2.579   3.254  0.5653  0.1937 -0.5456
  296TIP3    H2  853   1.534   2.450   3.329 -0.0519  0.0002 -0.6540
  297TIP3   OH2  854   5.158   4.063   0.821 -0.5355 -0.4003 -0.3087
  297TIP3    H1  855   5.116   3.993   0.871 -0.6020 -0.5346 -0.5491
  297TIP3    H2  856   5.087   4.100   0.768 -0.7026  0.4396  0.4635
  298TIP3   OH2  857   4.345   5.779   0.826  0.2119 -0.1711 -0.3781
  298TIP3    H1  858   4.368   5.869   0.847  0.7794 -0.5938  0.8808
  298TIP3    H2  859   4.283   5.753   0.894  0.2945 -0.8333 -0.5480
  299TIP3   OH2  860   0.103   4.702   2.231 -0.1235 -0.3718 -0.2356
  299TIP3    H1  861   0.152   4.712   2.312 -0.3537  0.0602 -0.1508
  299TIP3    H2  862   0.125   4.613   2.201  2.4436  0.5509 -1.3486
  300TIP3   OH2  863   6.790   1.899   1.308 -0.0481 -0.4853 -0.0821
  300TIP3    H1  864   6.793   1.816   1.260 -1.5656 -1.2391  1.0187
  300TIP3    H2  865   6.876   1.905   1.350  0.4007 -1.0520 -0.8909
  301TIP3   OH2  866   6.325   3.422   2.902  0.0753  0.3431  0.3163
  301TIP3    H1  867   6.295   3.371   2.977  0.3805  2.4670  2.0051
  301TIP3    H2  868   6.411   3.384   2.881  0.5173  0.3993  1.8389
  302TIP3   OH2  869   1.783   6.220   0.749 -0.2443 -0.6261  0.5016
  302TIP3    H1  870   1.846   6.204   0.679  0.4966  1.3988  0.6289
  302TIP3    H2  871   1.828   6.281   0.808 -2.1302  0.4648  0.8851
  303TIP3   OH2  872   0.800   5.137   3.834  0.1157  0.1426  0.5298
  303TIP3    H1  873   0.725   5.089   3.869  0.1738  0.2985  0.8770
  303TIP3    H2  874   0.816   5.099   3.748 -0.9789  0.7665  0.0371
  304TIP3   OH2  875   5.983   5.059   4.922 -0.1626  0.1250 -0.8474
  304TIP3    H1  876   5.936   5.139   4.899 -0.4634  0.4934  0.9248
  304TIP3    H2  877   6.047   5.086   4.988 -0.9140 -1.2200  0.5080
  305TIP3   OH2  878   0.939   6.380   2.744 -0.1011  0.6466 -0.3645
  305TIP3    H1  879   0.926   6.288   2.723  0.9154  0.4775 -0.2784
  305TIP3    H2  880   0.850   6.416   2.750 -0.5568 -0.6549  1.1814
  306TIP3   OH2  881   1.109   5.251   3.808  0.4352  0.0568 -0.5374
  306TIP3    H1  882   1.186   5.296   3.841 -0.7769  1.3060  0.7619
  306TIP3    H2  883   1.036   5.307   3.834 -0.7860  0.2094 -3.8575
  307TIP3   OH2  884   3.024   6.594   4.397  0.0850  0.1843 -0.1184
  307TIP3    H1  885   3.014   6.621   4.489  0.2698  0.4840 -0.1857
  307TIP3    H2  886   3.119   6.589   4.385  0.0603  0.2113 -0.3132
  308TIP3   OH2  887   2.867   2.984   3.194 -0.0080  0.1795  0.2500
  308TIP3    H1  888   2.806   2.948   3.130  0.1848  0.9167 -0.3430
  308TIP3    H2  889   2.859   3.079   3.186 -0.7042  0.3132  1.9947
  309TIP3   OH2  890   2.753   6.185   4.530  0.6743 -0.5754 -0.2168
  309TIP3    H1  891   2.836   6.165   4.573  1.2414  0.0026 -1.0194
  309TIP3    H2  892   2.763   6.150   4.442 -1.0654 -3.1984  0.4793
  310TIP3   OH2  893   1.573   1.974   4.019 -0.9318  0.1001 -0.1114
  310TIP3    H1  894   1.565   1.884   4.053 -0.3717  0.6182  1.4842
  310TIP3    H2  895   1.562   2.029   4.096 -0.4709  1.3839 -0.9431
  311TIP3   OH2  896   2.499   6.654   1.636  0.3007 -0.3285 -0.0923
  311TIP3    H1  897   2.552   6.647   1.557  0.4146  1.8735 -0.2599
  311TIP3    H2  898   2.557   6.627   1.707  0.9434 -0.0392 -0.5076
  312TIP3   OH2  899   4.694   4.098   1.242 -0.7087  0.0471  0.1709
  312TIP3    H1  900   4.626   4.159   1.272  0.4583  1.3351  0.3237
  312TIP3    H2  901   4.667   4.075   1.153 -2.1323 -0.7056  0.7630
  313TIP3   OH2  902   1.123   6.190   3.427  0.1149  0.7748  0.2665
  313TIP3    H1  903   1.156   6.218   3.512  0.2350  1.0378  0.1352
  313TIP3    H2  904   1.118   6.270   3.375  0.9465  0.4941 -0.2732
  314TIP3   OH2  905   1.613   5.900   2.513 -0.1503  0.8378  0.2574
  314TIP3    H1  906   1.686   5.878   2.455 -0.1998 -0.1455  0.5561
  314TIP3    H2  907   1.575   5.816   2.537 -0.9917  1.3084  0.6183
  315TIP3   OH2  908   7.218   4.834   3.066  0.5385  0.0081  0.0707
  315TIP3    H1  909   7.230   4.882   2.984  0.9647  0.5572  0.4498
  315TIP3    H2  910   7.179   4.751   3.040 -1.4644  1.0540 -0.4974
  316TIP3   OH2  911   4.967   4.891   0.626  0.0633  0.0173 -0.0836
  316TIP3    H1  912   5.025   4.825   0.664  0.6840 -0.5582 -1.9471
  316TIP3    H2  913   4.888   4.842   0.603 -0.9818  0.6739  1.8327
  317TIP3   OH2  914   0.282   2.872   2.503  0.4450  0.2898  0.2040
  317TIP3    H1  915   0.241   2.940   2.450 -0.3125 -0.4435 -0.1736
  317TIP3    H2  916   0.220   2.799   2.502  1.5685 -0.7006 -0.0307
  318TIP3   OH2  917   1.325   3.817   5.050 -0.3319 -0.1100  0.0666
  318TIP3    H1  918   1.231   3.835   5.043 -0.0119  1.5190 -0.3801
  318TIP3    H2  919   1.356   3.876   5.118  0.3562 -0.6848  0.2558
  319TIP3   OH2  920   6.078   3.777   2.832  0.6638 -0.3517 -0.2935
  319TIP3    H1  921   6.081   3.868   2.860  0.4949 -0.9178  1.7522
  319TIP3    H2  922   6.025   3.778   2.752 -2.2411  0.9843  1.4557
  320TIP3   OH2  923   4.974   2.733   1.988 -1.1832  0.2295 -0.2291
  320TIP3    H1  924   4.920   2.808   1.962 -0.1939  0.9494 -0.2788
  320TIP3    H2  925   5.039   2.725   1.918  0.3013  0.9581  0.9851
  321TIP3   OH2  926   1.674   3.305   2.653  0.2359  0.1904  0.3196
  321TIP3    H1  927   1.688   3.383   2.599  2.9059  0.5491  1.3634
  321TIP3    H2  928   1.638   3.338   2.735 -0.1236  0.1074  0.1993
  322TIP3   OH2  929   3.833   2.911   3.122 -0.1054 -0.6284  0.4406
  322TIP3    H1  930   3.835   2.891   3.216 -0.4100 -0.7764  0.4186
  322TIP3    H2  931   3.868   3.000   3.116  1.4145 -1.1907  0.5280
  323TIP3   OH2  932   3.268   3.993   2.019  0.3903  0.7565  0.1870
  323TIP3    H1  933   3.265   4.011   2.113 -2.3005 -0.9517  0.5272
  323TIP3    H2  934   3.269   4.079   1.978  0.3797  1.5415  1.7745
  324TIP3   OH2  935   5.223   4.378   3.997 -0.3464 -0.4681 -0.3879
  324TIP3    H1  936   5.142   4.334   4.019 -0.7179  0.3509 -0.0753
  324TIP3    H2  937   5.196   4.466   3.969  0.5631  0.6759  2.0471
  325TIP3   OH2  938   1.711   3.440   0.412  0.1299 -0.6049  0.4597
  325TIP3    H1  939   1.635   3.473   0.365  1.3948  1.6192 -0.1776
  325TIP3    H2  940   1.689   3.350   0.434 -1.9529 -0.5672 -1.2248
  326TIP3   OH2  941   3.070   6.830   0.343 -0.1719 -0.3731 -0.0313
  326TIP3    H1  942   3.025   6.797   0.265 -1.2062  0.7686  0.0490
  326TIP3    H2  943   3.069   6.757   0.405 -2.1247 -0.3374  0.0360
  327TIP3   OH2  944   5.164   2.567   4.364 -0.8254 -0.0824  0.0849
  327TIP3    H1  945   5.135   2.476   4.369 -0.2625 -0.4794 -2.5709
  327TIP3    H2  946   5.127   2.599   4.282  0.6690  1.4674 -0.0271
  328TIP3   OH2  947   4.873   1.245   1.573  0.4976 -0.1171  0.6533
  328TIP3    H1  948   4.805   1.300   1.532 -0.7829 -0.4313  2.2463
  328TIP3    H2  949   4.824   1.170   1.608  1.8576 -0.9389  0.8377
  329TIP3   OH2  950   2.600   1.190   1.442  0.6326  0.0680  0.1052
  329TIP3    H1  951   2.639   1.103   1.440  0.0378 -0.2260  0.9634
  329TIP3    H2  952   2.541   1.189   1.517 -0.1060  0.9016 -0.4413
  330TIP3   OH2  953   1.823   6.567   4.592 -0.0622  0.5467  0.2779
  330TIP3    H1  954   1.814   6.510   4.515  0.4147  1.4612 -0.4744
  330TIP3    H2  955   1.762   6.638   4.576  0.5738  1.1252  0.3808
  331TIP3   OH2  956   5.261   4.127   3.073  0.0330 -0.4830 -0.4971
  331TIP3    H1  957   5.341   4.172   3.046  0.6071 -0.7505  0.7151
  331TIP3    H2  958   5.279   4.096   3.162 -0.5874 -2.5712 -1.0496
  332TIP3   OH2  959   4.316   0.246   2.982  0.4759  0.1174 -0.0046
  332TIP3    H1  960   4.230   0.285   2.999  0.4908 -0.5997  1.9516
  332TIP3    H2  961   4.327   0.254   2.887 -1.5206  0.6724 -0.2460
  333TIP3   OH2  962   0.815   5.455   2.045 -0.3417  0.0352 -0.4985
  333TIP3    H1  963   0.898   5.408   2.039  0.7663  1.7684  0.4248
  333TIP3    H2  964   0.811   5.485   2.136 -2.0505 -0.1179 -0.4892
  334TIP3   OH2  965   6.981   4.526   4.414 -0.4351  0.1582  0.5895
  334TIP3    H1  966   6.918   4.464   4.376 -1.3851 -0.0007  2.3061
  334TIP3    H2  967   6.933   4.608   4.422  0.5475  0.9163 -0.8533
  335TIP3   OH2  968   7.240   2.107   5.254  0.0387  0.0380 -0.4394
  335TIP3    H1  969   7.208   2.075   5.170  0.2187 -0.5800 -0.2765
  335TIP3    H2  970   7.167   2.093   5.314  0.8416 -2.1223  0.1123
  336TIP3   OH2  971   0.520   4.951   3.508  0.0902  0.3820  0.1818
  336TIP3    H1  972   0.434   4.945   3.549  0.2660  0.1322  0.5259
  336TIP3    H2  973   0.519   4.885   3.439  0.5717 -0.7759  1.2546
  337TIP3   OH2  974   3.237   3.013   3.519  0.2221 -0.2780  0.0649
  337TIP3    H1  975   3.282   2.994   3.436 -0.4871  1.6325 -0.8256
  337TIP3    H2  976   3.302   2.995   3.586  1.7261  0.6042 -1.0713
  338TIP3   OH2  977   4.612   3.874   5.865  0.6638  0.2455 -0.1190
  338TIP3    H1  978   4.544   3.832   5.813 -0.5940  1.5310  0.4244
  338TIP3    H2  979   4.677   3.902   5.800  0.8433 -1.2291 -0.6160
  339TIP3   OH2  980   0.141   1.946   0.807  0.4940  0.3248 -0.5209
  339TIP3    H1  981   0.117   1.882   0.739  0.0930 -0.0453 -0.0444
  339TIP3    H2  982   0.163   1.892   0.883 -1.2588  0.7716  0.3486
  340TIP3   OH2  983   1.645   4.738   4.985 -0.1058 -0.0150  0.2097
  340TIP3    H1  984   1.663   4.685   4.908  0.4547  0.7065 -0.1568
  340TIP3    H2  985   1.716   4.718   5.046  1.3138  1.8852 -0.7504
  341TIP3   OH2  986   3.242   1.209   3.152 -0.3883 -0.3949 -0.1291
  341TIP3    H1  987   3.215   1.156   3.077 -1.1256  2.8066 -2.3367
  341TIP3    H2  988   3.171   1.197   3.216 -0.3381 -2.2590 -0.3583
  342TIP3   OH2  989   4.286   4.771   2.162 -0.4992 -0.2497  0.2403
  342TIP3    H1  990   4.287   4.696   2.222 -2.6866  0.5507  1.3756
  342TIP3    H2  991   4.245   4.842   2.212  0.7308  1.4759 -1.0969
  343TIP3   OH2  992   5.159   1.959   0.079  0.0754  0.0166 -0.3512
  343TIP3    H1  993   5.222   1.897   0.115  0.7604  1.3595  0.8483
  343TIP3    H2  994   5.121   1.913   0.004  1.3929 -1.3975 -0.2083
  344TIP3   OH2  995   5.294   5.999   3.539  0.2572  0.2604 -0.1824
  344TIP3    H1  996   5.362   6.013   3.473 -0.6226  1.0101 -0.9480
  344TIP3    H2  997   5.236   5.935   3.500 -0.8112  1.4328 -0.5830
  345TIP3   OH2  998   6.580   1.224   1.659 -0.0231  0.0557  0.2136
  345TIP3    H1  999   6.573   1.130   1.676  1.0539 -0.1086 -0.1563
  345TIP3    H2 1000   6.496   1.260   1.689 -0.4267 -1.0060  0.4190
  346TIP3   OH2 1001   5.366   1.432   2.301  0.1068 -0.3683  0.0230
  346TIP3    H1 1002   5.312   1.382   2.363 -1.8167  0.9286 -0.5138
  346TIP3    H2 1003   5.429   1.479   2.357  0.0935 -1.1976  0.7589
  347TIP3   OH2 1004   1.118   2.745   0.548 -0.5087  0.2124 -0.3449
  347TIP3    H1 1005   1.139   2.781   0.634  0.0706  2.3862 -1.3394
  347TIP3    H2 1006   1.180   2.673   0.537 -1.1434 -0.6517  1.3597
  348TIP3   OH2 1007   3.578   5.067   5.031 -0.0035 -0.2754 -0.5212
  348TIP3    H1 1008   3.516   5.054   4.959 -1.2320 -1.5034  0.6899
  348TIP3    H2 1009   3.557   5.154   5.066 -0.3591 -0.2616 -0.7672
  349TIP3   OH2 1010   4.372   1.786   0.020  0.4883 -0.8526  0.0031
  349TIP3    H1 1011   4.343   1.877   0.027  1.2539 -0.5650 -0.4977
  349TIP3    H2 1012   4.315   1.738   0.080  2.0247  0.3919  2.6448
  350TIP3   OH2 1013   3.950   0.158   1.593  0.2514  0.0232  0.1823
  350TIP3    H1 1014   3.935   0.224   1.661  1.3279 -1.1262  1.6163
  350TIP3    H2 1015   3.888   0.088   1.614 -0.2924  0.2012 -0.8071
  351TIP3   OH2 1016   3.376   2.173   3.746 -0.5831  0.5362 -0.0138
  351TIP3    H1 1017   3.332   2.255   3.725  1.4515  1.6538 -0.1880
  351TIP3    H2 1018   3.468   2.187   3.721  0.0524 -1.4130  0.9436
  352TIP3   OH2 1019   1.554   0.851   0.087 -0.4982 -0.4446  0.1159
  352TIP3    H1 1020   1.495   0.926   0.095  1.2417  0.9753  0.4280
  352TIP3    H2 1021   1.549   0.826  -0.005 -0.3816  0.7153 -0.2239
  353TIP3   OH2 1022   1.960   3.683   4.044  0.2686  0.4186 -0.2489
  353TIP3    H1 1023   2.041   3.728   4.019  1.1531 -2.0569 -2.4237
  353TIP3    H2 1024   1.906   3.686   3.965 -1.1584  0.7613  0.7107
  354TIP3   OH2 1025   5.544   4.600   0.795 -0.4521 -0.1325  0.2819
  354TIP3    H1 1026   5.597   4.569   0.722 -0.0959 -1.3988  1.0608
  354TIP3    H2 1027   5.604   4.651   0.849 -0.3881 -0.3430  0.4076
  355TIP3   OH2 1028   3.476   1.352   0.880  0.4641 -0.2212 -0.2922
  355TIP3    H1 1029   3.516   1.268   0.860  0.4500 -0.2257 -0.3021
  355TIP3    H2 1030   3.470   1.396   0.795 -2.4971 -1.4824 -0.8540
  356TIP3   OH2 1031   4.424   0.930   4.234 -1.1338 -0.0329 -0.6202
  356TIP3    H1 1032   4.444   1.023   4.244  0.3176 -0.3580 -0.3433
  356TIP3    H2 1033   4.338   0.929   4.192 -0.2952  1.4633 -2.5227
  357TIP3   OH2 1034   6.513   4.503   2.749 -0.5894 -0.0684  0.1447
  357TIP3    H1 1035   6.525   4.421   2.796 -0.8966  0.1466  0.6041
  357TIP3    H2 1036   6.560   4.568   2.801 -1.0251  0.1910  0.2231
  358TIP3   OH2 1037   5.311   0.046   1.387  0.1527  0.3848 -0.3506
  358TIP3    H1 1038   5.316   0.140   1.408 -0.9521  0.6600 -1.2104
  358TIP3    H2 1039   5.269   0.043   1.301 -0.3148 -0.9205 -0.1035
  359TIP3   OH2 1040   0.051   2.923   3.077 -0.3190  0.0459 -0.0180
  359TIP3    H1 1041   0.017   2.998   3.029 -1.6772  0.4878  1.5279
  359TIP3    H2 1042  -0.002   2.849   3.048  0.2361 -0.1063 -0.6745
  360TIP3   OH2 1043   3.873   4.673   3.775  0.0924 -0.2832 -0.3960
  360TIP3    H1 1044   3.917   4.698   3.856 -0.7771  1.5454 -0.4555
  360TIP3    H2 1045   3.864   4.754   3.726 -1.9839 -0.8540 -1.0465
  361TIP3   OH2 1046   4.673   5.875   2.655 -0.1412 -0.6260  0.3126
  361TIP3    H1 1047   4.710   5.953   2.697 -0.1911 -1.1798  1.4438
  361TIP3    H2 1048   4.578   5.886   2.662 -0.1639 -0.3728 -0.3419
  362TIP3   OH2 1049   1.278   2.799   1.280  0.1635 -0.2683  0.1509
  362TIP3    H1 1050   1.255   2.805   1.373 -2.4698  0.0702 -0.4447
  362TIP3    H2 1051   1.207   2.846   1.235  1.8376  0.3524 -1.9935
  363TIP3   OH2 1052   5.485   2.772   1.456  0.4424  0.0648  0.0823
  363TIP3    H1 1053   5.495   2.809   1.544  0.1931 -1.8372  0.9794
  363TIP3    H2 1054   5.402   2.725   1.460  1.8699 -2.6701 -0.1017
  364TIP3   OH2 1055   1.368   3.684   3.160 -0.3635  0.5320 -0.1372
  364TIP3    H1 1056   1.295   3.706   3.217  1.1708 -0.5373  2.3782
  364TIP3    H2 1057   1.344   3.600   3.120  0.1265 -0.6723  1.9804
  365TIP3   OH2 1058   0.504   1.543   1.881  0.0861 -0.5518 -0.1047
  365TIP3    H1 1059   0.531   1.496   1.802  1.9421 -0.7072  0.5840
  365TIP3    H2 1060   0.546   1.628   1.875  0.2647 -0.5722  0.7266
  366TIP3   OH2 1061   4.129   3.577   4.295  0.2280 -0.3453  0.5528
  366TIP3    H1 1062   4.182   3.642   4.250 -0.0500 -0.4768  0.0304
  366TIP3    H2 1063   4.080   3.627   4.360  0.1471 -0.0622  0.2743
  367TIP3   OH2 1064   6.359   5.018   4.965  0.5596 -0.2502 -0.1099
  367TIP3    H1 1065   6.331   5.099   5.008 -1.4864 -0.2471 -1.3657
  367TIP3    H2 1066   6.417   4.977   5.030 -0.8404  0.6912  1.8678
  368TIP3   OH2 1067   0.930   3.350   0.410  0.9685 -0.0089  0.4163
  368TIP3    H1 1068   0.928   3.441   0.381  1.7924 -0.1766 -0.2284
  368TIP3    H2 1069   0.918   3.299   0.330 -0.4397 -0.4726  0.9023
  369TIP3   OH2 1070   3.512   4.581   1.378  0.4985  0.2220 -0.3594
  369TIP3    H1 1071   3.592   4.604   1.425  0.8167 -1.9385  0.2809
  369TIP3    H2 1072   3.522   4.489   1.357 -0.7506  0.5144 -2.5332
  370TIP3   OH2 1073   0.649   0.140   0.805 -0.5249 -0.1327 -0.0369
  370TIP3    H1 1074   0.687   0.198   0.870 -1.0978  0.3071 -0.0880
  370TIP3    H2 1075   0.718   0.075   0.788 -0.8580 -1.1473  2.0862
  371TIP3   OH2 1076   6.917   1.601   5.039  0.2020 -0.0068  0.3312
  371TIP3    H1 1077   6.848   1.597   4.973 -0.6146 -0.5028  1.2017
  371TIP3    H2 1078   6.883   1.659   5.107  1.6230  1.6794 -0.3168
  372TIP3   OH2 1079   0.245   1.008   1.350  0.4813 -0.3945  0.1080
  372TIP3    H1 1080   0.339   1.026   1.349  0.4780 -0.2902  1.2061
  372TIP3    H2 1081   0.227   0.975   1.438 -1.2343  3.7571  1.5757
  373TIP3   OH2 1082   3.232   1.837   1.941  1.1385  0.0461 -0.8214
  373TIP3    H1 1083   3.315   1.790   1.930  0.4334 -0.9279 -2.3078
  373TIP3    H2 1084   3.178   1.778   1.993  1.5677  0.9744  0.7393
  374TIP3   OH2 1085   0.639   4.053   1.254 -0.2619 -0.2311  0.2962
  374TIP3    H1 1086   0.716   4.106   1.277 -1.1732  0.9807  0.7078
  374TIP3    H2 1087   0.629   4.065   1.160 -1.3930  1.7687  0.5897
  375TIP3   OH2 1088   1.414   0.552   1.958 -0.1708 -0.4011  0.2405
  375TIP3    H1 1089   1.342   0.607   1.990  0.6914  0.6267  0.4363
  375TIP3    H2 1090   1.472   0.611   1.911 -0.1462 -1.4657 -1.1504
  376TIP3   OH2 1091   7.036   6.127   3.093  0.0331  0.0714  0.0346
  376TIP3    H1 1092   6.993   6.212   3.090 -2.1167 -0.7614  2.7781
  376TIP3    H2 1093   7.121   6.144   3.133  0.7849  1.2208 -1.9221
  377TIP3   OH2 1094   0.035   0.638   2.343  0.4180  0.4930 -0.2971
  377TIP3    H1 1095   0.078   0.630   2.259  1.8837 -0.7013  0.5220
  377TIP3    H2 1096   0.029   0.733   2.358  3.2676  0.7541 -0.2369
  378TIP3   OH2 1097   2.123   3.817   0.422  0.8237  0.6295 -0.2082
  378TIP3    H1 1098   2.111   3.734   0.469  0.8956 -0.1655 -1.5265
  378TIP3    H2 1099   2.060   3.813   0.351  0.1077  2.2039  0.3100
  379TIP3   OH2 1100   3.246   3.680   1.322  0.5995 -0.1151  0.3641
  379TIP3    H1 1101   3.248   3.738   1.398  0.7039  0.1274  0.1742
  379TIP3    H2 1102   3.331   3.636   1.324  0.6189 -0.0777  0.3616
  380TIP3   OH2 1103   0.655   1.726   3.375 -0.1971  0.3386  0.0350
  380TIP3    H1 1104   0.727   1.785   3.352  0.2003 -0.0965  0.1480
  380TIP3    H2 1105   0.680   1.642   3.339 -1.3044  0.4810 -1.1350
  381TIP3   OH2 1106   3.232   6.368   2.185  0.0687 -0.0045 -0.1464
  381TIP3    H1 1107   3.301   6.321   2.138 -0.2924  1.0370 -1.7751
  381TIP3    H2 1108   3.173   6.299   2.215  0.8677 -0.7724 -0.3036
  382TIP3   OH2 1109   5.670   3.049   3.145  0.0716  0.0483  0.2638
  382TIP3    H1 1110   5.673   2.987   3.218  0.1782 -2.4931 -1.7885
  382TIP3    H2 1111   5.577   3.065   3.131  0.0353  0.2024  0.6563
  383TIP3   OH2 1112   3.358   4.578   1.036 -0.8368 -0.3361 -0.4154
  383TIP3    H1 1113   3.411   4.647   0.997 -0.4185 -0.3103  0.1832
  383TIP3    H2 1114   3.390   4.497   0.998  1.8224 -0.6806  2.1689
  384TIP3   OH2 1115   2.235   3.464   0.671 -0.0517 -0.1523  0.1475
  384TIP3    H1 1116   2.226   3.554   0.639 -1.6262 -0.3349 -0.0152
  384TIP3    H2 1117   2.311   3.466   0.728  0.1925  1.1892 -0.1972
  385TIP3   OH2 1118   1.303   2.299   1.077  0.0173  0.0509 -0.1910
  385TIP3    H1 1119   1.338   2.270   1.161 -0.4451  1.0782  0.3810
  385TIP3    H2 1120   1.208   2.297   1.089 -0.0537  1.9353 -0.0175
  386TIP3   OH2 1121   5.547   1.716   3.998  0.0353  0.1858  0.8538
  386TIP3    H1 1122   5.476   1.694   3.937  1.1887 -2.4361  0.3109
  386TIP3    H2 1123   5.514   1.687   4.083  0.3027 -0.7694  0.6460
  387TIP3   OH2 1124   3.347   1.289   5.225  0.1861  0.1668  0.4647
  387TIP3    H1 1125   3.343   1.378   5.191  0.7217  0.2597  0.6401
  387TIP3    H2 1126   3.256   1.267   5.247  0.0418  0.6299  0.3283
  388TIP3   OH2 1127   2.508   4.514   4.523  0.5188 -0.2969 -0.0217
  388TIP3    H1 1128   2.438   4.507   4.587 -0.8192 -0.2863 -1.4210
  388TIP3    H2 1129   2.531   4.424   4.502  1.2836 -0.2994  0.7968
  389TIP3   OH2 1130   1.008   0.258   5.706 -0.6343  0.1953 -0.3719
  389TIP3    H1 1131   1.043   0.260   5.617  1.3942  1.1232  0.3758
  389TIP3    H2 1132   1.033   0.172   5.740  1.6425  1.0731  0.3605
  390TIP3   OH2 1133   2.410   3.868   3.683  0.3523 -0.0942 -0.0149
  390TIP3    H1 1134   2.490   3.922   3.682  0.2633  0.0292 -1.1969
  390TIP3    H2 1135   2.440   3.781   3.655 -0.1843  0.3725 -2.2335
  391TIP3   OH2 1136   2.052   1.622   0.301 -0.5864 -0.4273 -0.6225
  391TIP3    H1 1137   2.050   1.715   0.279 -2.0689 -0.0620  0.8610
  391TIP3    H2 1138   1.979   1.584   0.252 -0.4917 -0.6423 -0.5980
  392TIP3   OH2 1139   4.283   5.827   4.256 -1.0419 -1.4128  0.2151
  392TIP3    H1 1140   4.248   5.793   4.338 -0.0053 -1.0330  0.8283
  392TIP3    H2 1141   4.251   5.766   4.189 -0.4333 -2.7575  1.1080
  393TIP3   OH2 1142   4.931   2.055   1.343 -0.0726  0.1318 -0.4493
  393TIP3    H1 1143   4.855   2.094   1.301 -0.0461 -0.3055 -0.9118
  393TIP3    H2 1144   4.958   1.984   1.284  0.0767 -0.3678  0.2000
  394TIP3   OH2 1145   3.306   1.175   3.518 -0.2022 -0.1761  0.3489
  394TIP3    H1 1146   3.318   1.084   3.546  0.7838 -0.2623 -0.3230
  394TIP3    H2 1147   3.250   1.169   3.441 -1.1269 -0.1082  1.0026
  395TIP3   OH2 1148   0.197   5.219   1.146  0.3618 -0.1444 -0.0014
  395TIP3    H1 1149   0.281   5.265   1.142 -0.0829  0.6150 -3.1034
  395TIP3    H2 1150   0.132   5.287   1.131 -0.5471 -1.2391 -1.2438
  396TIP3   OH2 1151   5.343   2.226   4.202 -0.0573  0.1938 -0.1487
  396TIP3    H1 1152   5.413   2.290   4.187  0.9537 -0.9800 -0.6130
  396TIP3    H2 1153   5.350   2.205   4.295  1.0632 -0.8244 -0.4264
  397TIP3   OH2 1154   1.055   1.556   2.468 -1.0626 -0.5396 -0.2307
  397TIP3    H1 1155   1.052   1.461   2.458 -2.6119 -0.8296  2.2270
  397TIP3    H2 1156   0.976   1.587   2.424 -1.0458 -0.4777 -0.2177
  398TIP3   OH2 1157   0.999   2.862   1.727 -0.1710  0.4891  0.2106
  398TIP3    H1 1158   0.962   2.928   1.785 -0.0660  1.6875 -1.0469
  398TIP3    H2 1159   1.075   2.828   1.775 -0.1716  1.3342  0.8359
  399TIP3   OH2 1160   7.099   2.424   2.007 -0.4061 -0.2665  0.4213
  399TIP3    H1 1161   7.187   2.392   1.992 -0.5626 -0.6973  0.4084
  399TIP3    H2 1162   7.043   2.347   1.998 -0.8025  0.0363  0.2467
  400TIP3   OH2 1163   3.395   6.095   5.145  0.0268 -0.5057  0.2829
  400TIP3    H1 1164   3.450   6.156   5.097  0.4450  0.4253  1.8733
  400TIP3    H2 1165   3.381   6.023   5.085 -1.1240  1.4670 -1.9806
  401TIP3   OH2 1166   5.817   1.560   5.295 -0.5147  0.4083 -0.0968
  401TIP3    H1 1167   5.843   1.649   5.270 -4.7800  2.0082  0.3777
  401TIP3    H2 1168   5.784   1.521   5.214  0.5812 -0.4781 -0.1319
  402TIP3   OH2 1169   1.363   6.418   4.298 -0.2981  0.1645  0.0754
  402TIP3    H1 1170   1.353   6.512   4.284 -0.3966  0.5237  2.1787
  402TIP3    H2 1171   1.274   6.387   4.318 -0.1554 -0.2550  0.0803
  403TIP3   OH2 1172   4.361   1.277   1.426 -0.3161  0.0363 -0.0844
  403TIP3    H1 1173   4.388   1.294   1.336 -0.4700 -1.8095 -0.5256
  403TIP3    H2 1174   4.293   1.210   1.417  0.2275 -0.7555  1.4366
  404TIP3   OH2 1175   6.675   5.865   3.243 -0.0641 -0.6821 -0.4795
  404TIP3    H1 1176   6.664   5.863   3.148 -1.8891 -1.9158 -0.2949
  404TIP3    H2 1177   6.743   5.801   3.262  1.4621  0.6962 -1.0187
  405TIP3   OH2 1178   2.146   0.883   5.101  0.3099  0.3570  0.4843
  405TIP3    H1 1179   2.195   0.855   5.024  1.4736  1.0314  0.9428
  405TIP3    H2 1180   2.214   0.901   5.167 -0.6637 -0.3995  1.7364
  406TIP3   OH2 1181   6.057   6.158   0.476 -0.0510 -0.6632 -0.0574
  406TIP3    H1 1182   6.144   6.183   0.447 -0.4214 -1.3758 -1.9273
  406TIP3    H2 1183   6.025   6.234   0.525  1.3053 -0.0893 -0.0196
  407TIP3   OH2 1184   4.343   4.932   4.143 -0.0921 -0.3980  0.0999
  407TIP3    H1 1185   4.379   4.955   4.057 -0.8780  1.1595  0.1527
  407TIP3    H2 1186   4.418   4.898   4.191  0.7126  0.1831 -0.6967
  408TIP3   OH2 1187   5.247   5.354   4.421 -0.0311  0.1158 -0.0324
  408TIP3    H1 1188   5.199   5.380   4.342 -0.2223 -0.3938 -0.0889
  408TIP3    H2 1189   5.337   5.380   4.403  0.4226 -2.0872 -1.4597
  409TIP3   OH2 1190   1.462   0.873   0.482  0.2600  0.5272  0.0830
  409TIP3    H1 1191   1.436   0.816   0.410  0.7323  0.2043  0.1627
  409TIP3    H2 1192   1.551   0.845   0.504  0.3591  1.0505  0.3674
  410TIP3   OH2 1193   4.967   1.178   5.246 -0.0908  0.4568  0.7957
  410TIP3    H1 1194   4.910   1.227   5.187  1.2303  0.3957 -0.6015
  410TIP3    H2 1195   5.042   1.154   5.192 -0.5809 -3.0312  1.3901
  411TIP3   OH2 1196   2.841   6.164   2.843  0.4149  0.1686  0.0027
  411TIP3    H1 1197   2.884   6.117   2.771 -1.2006 -2.2756  0.4932
  411TIP3    H2 1198   2.911   6.212   2.886  2.4665 -2.6101  0.0106
  412TIP3   OH2 1199   3.118   3.568   1.117  0.0540  0.2504  0.1398
  412TIP3    H1 1200   3.154   3.636   1.174 -1.8541  2.0899 -0.6957
  412TIP3    H2 1201   3.127   3.605   1.029 -1.0356 -0.5699 -0.3316
  413TIP3   OH2 1202   7.134   2.190   2.726  0.4822  0.4245  0.2275
  413TIP3    H1 1203   7.053   2.148   2.753  1.3803 -1.3007  0.4176
  413TIP3    H2 1204   7.119   2.215   2.635 -0.1471 -0.2118  0.1450
  414TIP3   OH2 1205   4.527   2.672   1.205 -0.1832 -0.3982 -0.1197
  414TIP3    H1 1206   4.494   2.590   1.242 -0.4037 -1.3399 -2.2128
  414TIP3    H2 1207   4.609   2.688   1.252 -0.9141 -0.9420  1.4185
  415TIP3   OH2 1208   4.699   5.347   1.804 -0.2194 -0.3270  0.1048
  415TIP3    H1 1209   4.623   5.316   1.852 -0.0118 -1.2156 -0.1265
  415TIP3    H2 1210   4.674   5.434   1.773  0.2485  1.0348  3.1950
  416TIP3   OH2 1211   0.434   0.696   0.543 -0.5430 -0.3068  0.2681
  416TIP3    H1 1212   0.520   0.674   0.507 -0.4343  0.4033  0.0739
  416TIP3    H2 1213   0.445   0.685   0.637  0.3853  1.6939  0.4591
  417TIP3   OH2 1214   7.204   0.296   2.225 -0.3917  0.3754 -0.2308
  417TIP3    H1 1215   7.141   0.243   2.274 -0.4137  0.7865  0.1902
  417TIP3    H2 1216   7.149   0.355   2.172 -0.4255 -1.3505 -2.2578
  418TIP3   OH2 1217   3.898   1.220   0.484  0.1915  0.1742 -0.2854
  418TIP3    H1 1218   3.904   1.178   0.569 -0.2942  0.5753 -0.0454
  418TIP3    H2 1219   3.806   1.245   0.475 -0.0061 -0.8529 -1.4170
  419TIP3   OH2 1220   2.933   1.707   3.857  0.3309  0.4590  0.2618
  419TIP3    H1 1221   2.970   1.692   3.771 -0.1748 -2.2069  0.4376
  419TIP3    H2 1222   2.969   1.637   3.912 -2.1686 -0.1569  1.2607
  420TIP3   OH2 1223   3.819   2.821   0.516  0.4696  0.8437 -0.0150
  420TIP3    H1 1224   3.906   2.857   0.497  0.8093  0.5106  0.8590
  420TIP3    H2 1225   3.762   2.898   0.516  0.6677  1.0137 -1.0425
  421TIP3   OH2 1226   4.212   6.319   0.678  0.2360  0.0462 -0.5283
  421TIP3    H1 1227   4.245   6.271   0.602  0.4960  0.6084 -0.7760
  421TIP3    H2 1228   4.291   6.356   0.718  0.1221 -0.4115  0.1338
  422TIP3   OH2 1229   5.338   0.117   0.675  0.2184 -0.0586 -0.1487
  422TIP3    H1 1230   5.327   0.168   0.755 -0.4786 -0.8339  0.2701
  422TIP3    H2 1231   5.275   0.154   0.614  0.4435  0.2525 -0.1917
  423TIP3   OH2 1232   6.549   4.999   4.683 -0.3545  0.1779 -0.3375
  423TIP3    H1 1233   6.476   4.967   4.736 -0.0893  0.6076  0.2951
  423TIP3    H2 1234   6.627   4.974   4.733 -0.1043  0.6746 -0.4757
  424TIP3   OH2 1235   0.320   4.561   0.496  0.5041  0.5375  0.3096
  424TIP3    H1 1236   0.338   4.545   0.588 -2.7050 -0.0750  0.9687
  424TIP3    H2 1237   0.226   4.544   0.487  0.3348  2.3086 -2.7044
  425TIP3   OH2 1238   6.336   6.019   0.887 -0.1148  0.4413 -0.2203
  425TIP3    H1 1239   6.242   5.998   0.885 -0.3837  1.5517  0.0666
  425TIP3    H2 1240   6.374   5.953   0.946 -0.7016 -0.0391 -0.3636
  426TIP3   OH2 1241   2.263   3.963   1.924 -0.2446  0.6162  0.5422
  426TIP3    H1 1242   2.356   3.988   1.920  0.0829 -0.5642  0.3664
  426TIP3    H2 1243   2.234   3.995   2.010  0.4674  0.5548  0.8160
  427TIP3   OH2 1244   0.016   4.762   1.592 -0.2731 -0.1133  0.3100
  427TIP3    H1 1245   0.063   4.694   1.543 -2.3050 -1.9090  0.6506
  427TIP3    H2 1246  -0.030   4.812   1.524  0.9177  0.7116  0.0843
  428TIP3   OH2 1247   1.055   1.602   5.629 -0.3758 -0.0355  0.7959
  428TIP3    H1 1248   1.063   1.546   5.706  2.0698 -1.5039 -0.4005
  428TIP3    H2 1249   1.132   1.659   5.632 -0.3375  0.0046 -0.4223
  429TIP3   OH2 1250   2.918   4.178   4.570  0.0018 -0.1965 -0.5731
  429TIP3    H1 1251   2.921   4.109   4.636  1.0048 -0.4721 -0.8910
  429TIP3    H2 1252   2.871   4.137   4.496  1.3515 -0.8620 -1.0947
  430TIP3   OH2 1253   0.073   4.516   0.611  0.4260  0.5360 -0.2433
  430TIP3    H1 1254   0.060   4.462   0.690 -0.5041  1.3885  0.2087
  430TIP3    H2 1255   0.041   4.603   0.637  1.6747  1.2447 -1.0336
  431TIP3   OH2 1256   1.109   3.211   5.015 -0.2041 -0.7824  0.1191
  431TIP3    H1 1257   1.023   3.167   5.013  0.3126 -1.8250 -1.7873
  431TIP3    H2 1258   1.144   3.197   4.927  2.1185 -0.7376  0.9962
  432TIP3   OH2 1259   4.141   5.318   5.511  0.3055 -0.0018  0.0013
  432TIP3    H1 1260   4.136   5.300   5.418 -0.2065  0.5890 -0.0908
  432TIP3    H2 1261   4.062   5.369   5.530  1.3716  1.5887  0.3685
  433TIP3   OH2 1262   2.101   2.785   2.650  0.0675  0.2034  0.1380
  433TIP3    H1 1263   2.133   2.791   2.560 -0.1552  0.9796  0.1004
  433TIP3    H2 1264   2.148   2.711   2.688 -1.0002 -1.1830 -1.0974
  434TIP3   OH2 1265   3.897   4.012   2.204  0.0088 -0.3298 -0.5316
  434TIP3    H1 1266   3.932   3.983   2.288  1.1871 -1.1043 -1.2557
  434TIP3    H2 1267   3.974   4.039   2.154 -0.7179  0.5795 -1.2038
  435TIP3   OH2 1268   4.535   1.523   2.141 -0.4613 -0.6315  0.5712
  435TIP3    H1 1269   4.527   1.547   2.049  0.8585 -0.0832  0.5771
  435TIP3    H2 1270   4.460   1.466   2.158  0.5964 -2.8018 -1.4999
  436TIP3   OH2 1271   4.536   1.523   3.761 -0.6610 -0.2641  0.1042
  436TIP3    H1 1272   4.572   1.475   3.687  0.0880 -0.6735  0.7116
  436TIP3    H2 1273   4.442   1.530   3.743 -0.1946  1.7318 -2.0333
  437TIP3   OH2 1274   5.193   5.064   5.659 -0.5162  0.2979  0.0806
  437TIP3    H1 1275   5.107   5.062   5.701 -0.7559  1.4558 -0.3154
  437TIP3    H2 1276   5.226   5.152   5.676  1.0402 -0.4297  1.0670
  438TIP3   OH2 1277   3.259   0.458   0.466  0.6752  0.2017  0.0590
  438TIP3    H1 1278   3.195   0.518   0.504  0.0869 -0.0406 -0.5359
  438TIP3    H2 1279   3.250   0.378   0.516  0.2454  0.0457 -0.2587
  439TIP3   OH2 1280   4.053   4.059   5.110 -0.4878 -0.4084 -0.2233
  439TIP3    H1 1281   4.061   4.025   5.021  2.3507 -0.4949 -0.0131
  439TIP3    H2 1282   4.055   4.154   5.100 -1.7545 -0.3780 -0.3311
  440TIP3   OH2 1283   7.197   2.080   2.392 -0.2477 -0.3536 -0.0822
  440TIP3    H1 1284   7.104   2.097   2.379 -0.2467  0.1044  0.4897
  440TIP3    H2 1285   7.233   2.164   2.422  0.4298 -0.4094 -0.7055
  441TIP3   OH2 1286   2.639   4.454   1.117  0.0622 -0.0112 -0.7417
  441TIP3    H1 1287   2.682   4.443   1.032 -1.1373 -0.7100 -1.2744
  441TIP3    H2 1288   2.550   4.423   1.103 -0.6138  1.3334  0.3623
  442TIP3   OH2 1289   6.974   6.301   2.017  0.0459  0.1112  0.0056
  442TIP3    H1 1290   6.995   6.213   2.050 -0.6316  0.5047  1.5863
  442TIP3    H2 1291   6.879   6.299   2.003  0.1725  0.2996 -0.8868
  443TIP3   OH2 1292   1.659   0.501   0.092 -0.3306  0.0617  0.1304
  443TIP3    H1 1293   1.653   0.428   0.030 -0.8520  1.3142 -1.3239
  443TIP3    H2 1294   1.710   0.567   0.046 -2.2180  1.7206  0.3136
  444TIP3   OH2 1295   4.258   5.614   4.075 -0.4036  0.0398 -0.4843
  444TIP3    H1 1296   4.317   5.596   4.002  1.2966  0.9804  0.5846
  444TIP3    H2 1297   4.290   5.560   4.146 -0.0389  1.4666  0.4760
  445TIP3   OH2 1298   4.140   6.462   4.394 -0.8164 -0.0528  0.2173
  445TIP3    H1 1299   4.138   6.503   4.307  1.1355  1.6054  0.8863
  445TIP3    H2 1300   4.089   6.522   4.449 -2.5016 -1.3679  0.1816
  446TIP3   OH2 1301   4.790   1.396   5.665 -0.4964  0.0125 -0.8560
  446TIP3    H1 1302   4.785   1.486   5.697  1.2651 -0.1973  0.1304
  446TIP3    H2 1303   4.702   1.360   5.680 -0.3603  0.6042  1.7851
  447TIP3   OH2 1304   0.770   4.468   2.655  0.3468 -0.2763  0.0676
  447TIP3    H1 1305   0.768   4.477   2.750  0.1155 -1.2728  0.1745
  447TIP3    H2 1306   0.690   4.420   2.634 -0.0242  0.6667 -0.7267
  448TIP3   OH2 1307   7.183   2.178   1.645 -0.2241  0.4205  0.0348
  448TIP3    H1 1308   7.089   2.196   1.647 -0.3433 -0.1143  2.3247
  448TIP3    H2 1309   7.223   2.260   1.672  0.0010  0.6734 -1.0215
  449TIP3   OH2 1310   2.211   3.961   3.875 -0.1863 -0.5021 -0.3534
  449TIP3    H1 1311   2.237   4.051   3.897  0.6218 -0.7376 -0.3133
  449TIP3    H2 1312   2.274   3.933   3.809 -0.7797 -0.8475 -0.7761
  450TIP3   OH2 1313   3.771   3.650   2.739 -0.0498 -0.7670  0.2996
  450TIP3    H1 1314   3.691   3.602   2.760 -0.5857 -0.2332 -0.4315
  450TIP3    H2 1315   3.759   3.675   2.647  0.9112 -0.5848  0.2209
  451TIP3   OH2 1316   3.805   2.397   0.964  0.0272 -0.1233 -0.3977
  451TIP3    H1 1317   3.745   2.460   1.005  0.4457 -0.1290  0.2466
  451TIP3    H2 1318   3.849   2.447   0.895 -1.9385 -0.5713 -2.0686
  452TIP3   OH2 1319   5.298   6.426   0.291 -0.0049  0.6226 -0.1023
  452TIP3    H1 1320   5.254   6.344   0.269  3.1581 -1.3421  0.1950
  452TIP3    H2 1321   5.245   6.465   0.360 -2.0358 -0.7374 -0.8083
  453TIP3   OH2 1322   3.110   4.551   0.592  0.3131  0.3928 -0.0514
  453TIP3    H1 1323   3.172   4.623   0.576  0.7090  0.0009 -0.3122
  453TIP3    H2 1324   3.027   4.595   0.612  0.2794  0.9242 -1.2564
  454TIP3   OH2 1325   1.221   3.523   4.349 -0.8419  0.3480 -0.0196
  454TIP3    H1 1326   1.287   3.542   4.416  0.3765 -0.8395 -0.8240
  454TIP3    H2 1327   1.161   3.598   4.352 -0.1340  0.9015  1.5387
  455TIP3   OH2 1328   0.841   6.661   5.490 -0.6431 -0.3473 -0.1772
  455TIP3    H1 1329   0.892   6.616   5.558  1.3228  2.3977  0.3815
  455TIP3    H2 1330   0.750   6.642   5.511 -0.0321 -1.0210  2.2238
  456TIP3   OH2 1331   3.027   5.263   0.321 -0.0801 -0.6393  0.3772
  456TIP3    H1 1332   3.045   5.333   0.384 -0.4099  0.0035 -0.2322
  456TIP3    H2 1333   3.102   5.266   0.260  0.7596 -1.9207  1.2924
  457TIP3   OH2 1334   2.004   5.487   4.251 -0.3762  0.1941  0.0624
  457TIP3    H1 1335   1.917   5.450   4.264  0.3921 -1.2088  1.6593
  457TIP3    H2 1336   2.055   5.453   4.325  1.9045 -0.2126 -1.6086
  458TIP3   OH2 1337   5.731   4.948   4.941 -1.0070 -0.0464  0.1685
  458TIP3    H1 1338   5.817   4.973   4.974 -0.6699 -0.6360 -0.2359
  458TIP3    H2 1339   5.669   4.999   4.993 -0.3717  1.4211 -0.4645
  459TIP3   OH2 1340   4.648   0.852   0.777  0.1043  0.2600  0.0975
  459TIP3    H1 1341   4.735   0.840   0.739  0.2882  0.9798  0.2760
  459TIP3    H2 1342   4.590   0.799   0.721  1.0305 -2.6892  1.6916
  460TIP3   OH2 1343   2.599   4.564   5.542 -0.2683 -0.4832 -0.0986
  460TIP3    H1 1344   2.537   4.625   5.582 -0.1962 -0.2256 -0.3684
  460TIP3    H2 1345   2.674   4.620   5.517  0.6361 -0.9799  1.3716
  461TIP3   OH2 1346   0.781   6.523   0.007  0.2545 -0.3606 -0.2781
  461TIP3    H1 1347   0.694   6.558   0.024  0.6460  0.6654 -0.3061
  461TIP3    H2 1348   0.793   6.455   0.073 -1.1555 -1.6050 -1.2484
  462TIP3   OH2 1349   6.498   0.905   4.564 -0.0237  0.7327 -0.1273
  462TIP3    H1 1350   6.449   0.960   4.625  0.9855  2.7503 -1.0363
  462TIP3    H2 1351   6.568   0.867   4.616 -0.8971  0.0350  0.5753
  463TIP3   OH2 1352   5.660   5.417   0.668 -0.3598 -0.3519  0.2523
  463TIP3    H1 1353   5.604   5.365   0.725 -1.2956 -0.4753 -0.7393
  463TIP3    H2 1354   5.746   5.413   0.709 -1.0843 -0.0715  1.8749
  464TIP3   OH2 1355   4.603   2.318   2.123  0.5725  0.0633 -0.2631
  464TIP3    H1 1356   4.553   2.380   2.177  1.0348 -1.0329  1.4814
  464TIP3    H2 1357   4.670   2.372   2.081  1.3261  0.6920  1.6585
  465TIP3   OH2 1358   2.115   1.880   0.218  0.7955  0.0995 -0.4666
  465TIP3    H1 1359   2.077   1.912   0.136  2.8654  1.7912 -0.8606
  465TIP3    H2 1360   2.209   1.875   0.200  1.2930  0.4542  1.7820
  466TIP3   OH2 1361   0.478   0.846   2.440 -0.0165  0.0384 -0.2026
  466TIP3    H1 1362   0.385   0.851   2.462  0.0513  0.6877 -0.0453
  466TIP3    H2 1363   0.488   0.762   2.394 -1.0110  0.7800 -1.8112
  467TIP3   OH2 1364   6.588   0.938   5.218  0.2872 -0.0278 -0.2711
  467TIP3    H1 1365   6.682   0.931   5.196  0.5474  0.6030  0.5996
  467TIP3    H2 1366   6.577   1.029   5.246 -1.0433  0.5292 -2.3874
  468TIP3   OH2 1367   1.872   3.602   4.659 -0.0793 -0.2606 -0.2061
  468TIP3    H1 1368   1.805   3.599   4.727 -0.9733  1.5403 -0.9334
  468TIP3    H2 1369   1.854   3.683   4.611  0.8167 -1.1933 -2.2778
  469TIP3   OH2 1370   2.084   0.951   0.119 -0.7269 -0.1954  0.6740
  469TIP3    H1 1371   2.101   0.858   0.104 -1.5087 -0.4196  1.1258
  469TIP3    H2 1372   1.990   0.956   0.134 -1.2129  1.0275 -2.0931
  470TIP3   OH2 1373   1.930   5.217   0.925 -0.0243 -0.3130 -0.6341
  470TIP3    H1 1374   1.893   5.137   0.961 -0.6982 -0.3729 -1.4373
  470TIP3    H2 1375   1.862   5.252   0.869  0.5386  0.4426 -0.8675
  471TIP3   OH2 1376   1.384   1.892   1.835  0.1206  0.7059 -0.9361
  471TIP3    H1 1377   1.297   1.924   1.812  0.3893  1.8704 -0.4366
  471TIP3    H2 1378   1.396   1.920   1.926  0.2484 -1.1791 -0.3262
  472TIP3   OH2 1379   1.205   5.085   0.540  0.1400 -0.3161 -0.5321
  472TIP3    H1 1380   1.288   5.094   0.494  0.3648 -0.9324 -0.2638
  472TIP3    H2 1381   1.154   5.025   0.486 -0.0353 -0.1269 -0.5739
  473TIP3   OH2 1382   0.107   6.513   4.737 -0.0937  0.3234 -0.0719
  473TIP3    H1 1383   0.140   6.439   4.686 -2.4609  0.4038 -1.8798
  473TIP3    H2 1384   0.136   6.591   4.689  0.2430  0.5102  0.4248
  474TIP3   OH2 1385   3.301   0.334   3.512 -0.0281  0.7462 -0.2488
  474TIP3    H1 1386   3.281   0.400   3.446 -1.5674  1.3245  0.7347
  474TIP3    H2 1387   3.397   0.330   3.514  0.0598  1.6308 -1.6058
  475TIP3   OH2 1388   3.619   2.232   4.414  0.1970  0.3337  0.5700
  475TIP3    H1 1389   3.612   2.269   4.325  0.4805  0.9899  0.8131
  475TIP3    H2 1390   3.531   2.199   4.433  0.5975 -1.7324 -0.7531
  476TIP3   OH2 1391   3.445   1.061   4.418  0.2834 -0.5068  0.3270
  476TIP3    H1 1392   3.385   1.041   4.346  0.6941 -0.6061  0.0103
  476TIP3    H2 1393   3.389   1.098   4.486 -0.1262 -0.5235  0.0030
  477TIP3   OH2 1394   4.777   3.078   3.300 -0.3776  0.2566  0.0876
  477TIP3    H1 1395   4.866   3.044   3.309 -0.2152  0.3719 -0.9667
  477TIP3    H2 1396   4.767   3.093   3.206 -1.9988 -1.0774  0.0028
  478TIP3   OH2 1397   4.325   4.729   2.523 -0.1783 -0.5281  0.5917
  478TIP3    H1 1398   4.365   4.694   2.444  0.8871 -0.2947  1.0150
  478TIP3    H2 1399   4.361   4.676   2.594  0.8629  0.8835  1.1614
  479TIP3   OH2 1400   5.435   3.890   4.641  0.1705  0.2373  0.6767
  479TIP3    H1 1401   5.483   3.806   4.644  1.2818  0.8366  3.5658
  479TIP3    H2 1402   5.362   3.877   4.702 -0.2338  1.0395  0.3651
  480TIP3   OH2 1403   2.088   2.900   2.889 -0.0115 -0.7431 -0.0906
  480TIP3    H1 1404   2.078   2.877   2.797  1.1495 -0.7808 -0.2267
  480TIP3    H2 1405   2.182   2.915   2.900 -0.1510 -0.5907  1.0512
  481TIP3   OH2 1406   0.830   1.400   1.975 -0.3867 -0.5626 -0.2447
  481TIP3    H1 1407   0.783   1.422   2.055  0.3203  0.2733 -0.0385
  481TIP3    H2 1408   0.919   1.435   1.989 -0.0563 -1.0162 -1.1073
  482TIP3   OH2 1409   3.726   4.203   5.269  0.1655  0.2352 -0.3831
  482TIP3    H1 1410   3.685   4.204   5.356 -1.4617 -1.5942 -1.0565
  482TIP3    H2 1411   3.817   4.181   5.285 -0.4447 -1.6416  0.8078
  483TIP3   OH2 1412   1.427   0.315   5.840 -0.2214 -0.5604 -0.5665
  483TIP3    H1 1413   1.509   0.267   5.831  0.5211  0.0824  1.8428
  483TIP3    H2 1414   1.453   0.407   5.837 -0.5075 -0.3197  1.9689
  484TIP3   OH2 1415   2.199   2.201   2.097 -0.2237  0.9640 -0.0676
  484TIP3    H1 1416   2.189   2.108   2.118  2.9198  0.2464 -1.1651
  484TIP3    H2 1417   2.259   2.234   2.165  1.0835  1.3858 -1.3820
  485TIP3   OH2 1418   0.401   3.596   0.733 -1.0359  0.2862  0.6396
  485TIP3    H1 1419   0.484   3.594   0.685 -1.2547  0.4398  0.2508
  485TIP3    H2 1420   0.394   3.686   0.766 -1.8975  0.7915 -0.8476
  486TIP3   OH2 1421   2.339   0.068   5.420 -0.1059 -0.4184 -0.1988
  486TIP3    H1 1422   2.296  -0.002   5.468 -2.9934  2.0551  1.1452
  486TIP3    H2 1423   2.296   0.069   5.334  1.5322 -1.6226 -1.0969
  487TIP3   OH2 1424   0.404   5.554   0.968 -0.6956 -0.2776 -0.3177
  487TIP3    H1 1425   0.368   5.601   0.893 -0.2543  0.4338 -0.0952
  487TIP3    H2 1426   0.343   5.574   1.040  0.3048  1.2607  0.1601
  488TIP3   OH2 1427   5.313   5.785   0.337 -0.7714  0.0082 -0.0077
  488TIP3    H1 1428   5.322   5.827   0.251  0.4030 -0.4718 -0.1456
  488TIP3    H2 1429   5.351   5.848   0.398  1.2053 -0.8761 -0.2427
  489TIP3   OH2 1430   5.801   2.265   2.943 -0.6072 -0.3753  0.2855
  489TIP3    H1 1431   5.868   2.275   2.876 -1.1207  2.0116  0.0309
  489TIP3    H2 1432   5.790   2.171   2.953  1.7500 -0.8115 -0.6725
  490TIP3   OH2 1433   6.212   2.774   5.222  0.4504  0.0206  0.2546
  490TIP3    H1 1434   6.247   2.764   5.133 -2.8503  0.6098 -1.2731
  490TIP3    H2 1435   6.270   2.722   5.277  2.5427 -0.4938 -2.2371
  491TIP3   OH2 1436   5.895   4.113   5.363 -0.1696  0.3440  0.7928
  491TIP3    H1 1437   5.858   4.142   5.446 -2.8339  1.0353 -0.5152
  491TIP3    H2 1438   5.870   4.021   5.355  0.0267  0.2945  0.7256
  492TIP3   OH2 1439   6.165   5.171   0.152 -0.6602  0.8176  0.2092
  492TIP3    H1 1440   6.183   5.264   0.138  1.9786  0.2512 -0.9570
  492TIP3    H2 1441   6.148   5.137   0.064 -0.2604 -0.0197  0.4480
  493TIP3   OH2 1442   4.605   3.376   3.268 -0.2273 -0.3374  0.0559
  493TIP3    H1 1443   4.528   3.390   3.214  0.5417  0.8162 -0.7772
  493TIP3    H2 1444   4.610   3.281   3.280 -0.6964 -0.5735 -1.4808
  494TIP3   OH2 1445   6.658   4.646   3.842 -0.0563  0.2564  0.3272
  494TIP3    H1 1446   6.569   4.656   3.810 -0.4674 -0.0431  1.3215
  494TIP3    H2 1447   6.712   4.696   3.781 -0.9769  0.9784  0.0824
  495TIP3   OH2 1448   1.184   2.983   1.914 -0.7440 -0.7570  0.3719
  495TIP3    H1 1449   1.252   2.917   1.929 -0.0026 -0.2000 -0.4372
  495TIP3    H2 1450   1.212   3.057   1.967 -1.0349 -0.7331  0.4893
  496TIP3   OH2 1451   3.128   5.349   3.983  0.0143  0.1909  0.2730
  496TIP3    H1 1452   3.104   5.327   4.074  0.2920 -1.0777  0.0618
  496TIP3    H2 1453   3.045   5.372   3.941 -0.6053 -2.1529  0.0888
  497TIP3   OH2 1454   2.227   3.306   2.194  0.6043 -0.2723  0.2885
  497TIP3    H1 1455   2.246   3.358   2.273  1.5883  0.4731 -0.4044
  497TIP3    H2 1456   2.306   3.254   2.181 -0.6065 -2.5170  1.3371
  498TIP3   OH2 1457   1.235   4.248   0.645  0.2319  1.1289  0.4666
  498TIP3    H1 1458   1.261   4.334   0.677  1.0050  1.1349 -0.1357
  498TIP3    H2 1459   1.317   4.210   0.611 -0.0079  0.0044  1.0831
  499TIP3   OH2 1460   7.096   5.690   4.150 -0.1716  0.2429  0.2686
  499TIP3    H1 1461   7.022   5.712   4.094  0.6292 -0.4928 -1.1216
  499TIP3    H2 1462   7.135   5.612   4.110  0.4352 -0.2991  1.8498
  500TIP3   OH2 1463   0.863   3.045   1.460  0.1636  0.1290 -0.7623
  500TIP3    H1 1464   0.857   3.079   1.549 -3.0759  0.1109 -0.8719
  500TIP3    H2 1465   0.819   3.110   1.406  0.2496 -0.8235 -2.0356
  501TIP3   OH2 1466   2.515   3.188   3.725 -0.4147 -0.2636 -0.3090
  501TIP3    H1 1467   2.505   3.231   3.640 -0.0007  1.3962  0.4399
  501TIP3    H2 1468   2.593   3.134   3.716  0.7979  1.4336 -0.4318
  502TIP3   OH2 1469   0.919   5.924   5.785 -0.0707 -0.0064  0.3288
  502TIP3    H1 1470   0.944   5.927   5.877 -0.4470 -0.1492  0.4361
  502TIP3    H2 1471   0.897   6.015   5.764  1.2036  0.2632  0.0374
  503TIP3   OH2 1472   2.551   5.340   2.009  0.0653  0.3377 -0.3774
  503TIP3    H1 1473   2.638   5.353   1.971 -0.9291  4.4044 -1.8295
  503TIP3    H2 1474   2.492   5.349   1.934 -1.7129 -2.6064  0.5202
  504TIP3   OH2 1475   1.456   0.643   4.305 -0.5589 -0.2851 -0.6265
  504TIP3    H1 1476   1.438   0.697   4.382 -0.6110  1.9124 -2.1010
  504TIP3    H2 1477   1.467   0.555   4.341 -1.0028  0.5592  1.8371
  505TIP3   OH2 1478   0.743   5.123   0.962  0.0128  0.2700  0.4762
  505TIP3    H1 1479   0.679   5.118   0.891 -0.4145  1.1748  0.7899
  505TIP3    H2 1480   0.806   5.054   0.941 -0.7573 -0.2734 -0.1306
  506TIP3   OH2 1481   4.294   0.449   5.178 -0.3220 -0.1375 -0.1454
  506TIP3    H1 1482   4.332   0.464   5.092  0.1952 -1.6964 -0.2226
  506TIP3    H2 1483   4.368   0.424   5.233 -0.8181 -0.3034  0.4588
  507TIP3   OH2 1484   0.182   4.147   5.677 -0.1415 -0.1196  0.2387
  507TIP3    H1 1485   0.097   4.113   5.705  0.4153 -0.9287  1.0140
  507TIP3    H2 1486   0.163   4.201   5.601 -1.1085 -1.9296 -0.8584
  508TIP3   OH2 1487   4.175   5.651   1.021 -0.2539 -0.4736  0.1165
  508TIP3    H1 1488   4.100   5.708   1.037 -0.9766 -1.5843  0.7654
  508TIP3    H2 1489   4.139   5.576   0.974  0.6594 -0.4796 -0.5937
  509TIP3   OH2 1490   0.869   0.941   4.073  0.8930  0.4518 -0.9945
  509TIP3    H1 1491   0.798   0.887   4.036  0.9002 -0.8450  0.7591
  509TIP3    H2 1492   0.942   0.880   4.082  0.5586  0.3693  2.0898
  510TIP3   OH2 1493   6.559   5.788   1.121 -0.4042  0.2182 -0.3918
  510TIP3    H1 1494   6.514   5.723   1.175  1.2735 -1.4347 -0.8701
  510TIP3    H2 1495   6.537   5.872   1.160 -1.8235 -0.7116  0.8840
  511TIP3   OH2 1496   6.018   4.456   2.388 -0.8051 -0.1104  0.1863
  511TIP3    H1 1497   6.058   4.370   2.397 -1.1652 -0.4713 -1.3054
  511TIP3    H2 1498   6.091   4.517   2.395 -0.2197 -0.6654 -0.7808
  512TIP3   OH2 1499   6.409   4.008   4.309  0.8665  0.4611 -0.2514
  512TIP3    H1 1500   6.360   3.958   4.243  2.2253  0.3849 -1.2597
  512TIP3    H2 1501   6.449   4.079   4.260  1.2463  0.8929  0.6624
  513TIP3   OH2 1502   1.381   6.730   4.464 -0.5886 -0.2498  0.4562
  513TIP3    H1 1503   1.384   6.695   4.553  0.0550 -1.9780 -0.1858
  513TIP3    H2 1504   1.471   6.757   4.446 -0.2650 -1.7253 -0.3039
  514TIP3   OH2 1505   1.361   6.207   3.959  0.1877  0.2016 -0.5860
  514TIP3    H1 1506   1.403   6.156   3.890 -0.0343  0.0773 -0.6301
  514TIP3    H2 1507   1.328   6.141   4.021 -0.8771  0.2368 -1.0824
  515TIP3   OH2 1508   5.699   1.169   0.888 -0.0544 -0.2648  0.3886
  515TIP3    H1 1509   5.622   1.168   0.944 -0.4578 -0.2311 -0.1510
  515TIP3    H2 1510   5.664   1.184   0.800  0.6526  0.8609  0.2669
  516TIP3   OH2 1511   6.355   3.087   4.954  0.3577  0.9514 -0.3094
  516TIP3    H1 1512   6.440   3.122   4.983 -0.3748  1.7510  0.9846
  516TIP3    H2 1513   6.361   2.993   4.968  1.1074  0.9700 -0.4588
  517TIP3   OH2 1514   5.021   0.141   3.728  0.2686 -0.4483 -0.0596
  517TIP3    H1 1515   4.934   0.130   3.765  0.0754  2.6447  0.6683
  517TIP3    H2 1516   5.081   0.121   3.800  0.0762 -0.1122  0.1944
  518TIP3   OH2 1517   1.578   2.731   3.288  0.1563 -0.2021 -0.7240
  518TIP3    H1 1518   1.581   2.731   3.383 -1.0609 -2.0699 -0.6214
  518TIP3    H2 1519   1.664   2.699   3.261  0.7752  1.0615 -0.3162
  519TIP3   OH2 1520   2.055   5.443   2.222 -0.0892 -0.0197 -0.6547
  519TIP3    H1 1521   2.032   5.404   2.138 -0.2251  0.5656 -0.8947
  519TIP3    H2 1522   2.148   5.424   2.233  0.5156  1.8892 -2.0494
  520TIP3   OH2 1523   4.474   0.652   4.624 -0.3180  0.5746  0.2041
  520TIP3    H1 1524   4.386   0.622   4.599 -0.1236 -0.9240  1.1850
  520TIP3    H2 1525   4.459   0.730   4.677 -0.9035  1.7218 -1.5601
  521TIP3   OH2 1526   3.203   4.992   0.629 -0.0411 -0.1778  0.4810
  521TIP3    H1 1527   3.291   5.029   0.627 -0.8598  1.8631 -0.4671
  521TIP3    H2 1528   3.152   5.053   0.683 -2.0950  1.8689 -3.3833
  522TIP3   OH2 1529   4.993   4.624   0.128 -0.2610 -0.0145  0.1364
  522TIP3    H1 1530   5.001   4.529   0.123 -1.7767 -0.1189 -1.1228
  522TIP3    H2 1531   5.001   4.645   0.221 -1.5953 -1.5585  0.6284
  523TIP3   OH2 1532   7.056   4.922   1.423 -0.0922 -0.2519  0.4042
  523TIP3    H1 1533   7.055   5.011   1.387 -0.9114 -0.0371  0.9193
  523TIP3    H2 1534   6.972   4.885   1.397  1.1099 -1.6802 -1.6824
  524TIP3   OH2 1535   5.386   2.021   0.405  0.0787  0.1361 -0.2134
  524TIP3    H1 1536   5.428   2.107   0.398 -1.2647  0.7198 -1.3531
  524TIP3    H2 1537   5.303   2.038   0.450  0.9255 -0.9972  1.9336
  525TIP3   OH2 1538   2.967   1.082   4.600  0.4662  0.4552 -0.0261
  525TIP3    H1 1539   2.943   1.003   4.550 -1.2932 -0.0992  1.5927
  525TIP3    H2 1540   3.039   1.120   4.550 -0.5111 -0.6112 -2.4298
  526TIP3   OH2 1541   3.008   1.295   5.458  0.1720 -0.0878  0.3039
  526TIP3    H1 1542   2.962   1.375   5.482  0.4587 -0.4723  2.2795
  526TIP3    H2 1543   3.053   1.317   5.377  0.5370  1.8736  0.9889
  527TIP3   OH2 1544   2.329   0.312   0.537  0.8378  0.1158 -0.2932
  527TIP3    H1 1545   2.257   0.314   0.599  2.5446 -0.5056  1.8499
  527TIP3    H2 1546   2.302   0.370   0.466 -1.6903 -0.0503  0.4458
  528TIP3   OH2 1547   3.680   6.318   4.130 -0.0012 -0.3767 -0.1670
  528TIP3    H1 1548   3.611   6.355   4.075  0.9276  0.3295 -0.8902
  528TIP3    H2 1549   3.723   6.395   4.168 -0.2909 -0.8374  1.1673
  529TIP3   OH2 1550   2.758   1.907   1.907 -0.6571  0.0295  0.3930
  529TIP3    H1 1551   2.839   1.955   1.920 -1.0823  1.3062 -1.3070
  529TIP3    H2 1552   2.725   1.891   1.995  0.4955  1.1214  1.0540
  530TIP3   OH2 1553   3.156   6.727   3.582  0.1047  0.1062  0.6462
  530TIP3    H1 1554   3.091   6.657   3.578  1.9192 -1.7411  1.6794
  530TIP3    H2 1555   3.147   6.764   3.670  0.9538 -0.7282  1.1063
  531TIP3   OH2 1556   0.630   4.224   4.021 -0.6489 -0.4061  0.1328
  531TIP3    H1 1557   0.614   4.280   3.945  0.5075  0.0561  0.2095
  531TIP3    H2 1558   0.644   4.137   3.983 -1.8670 -0.5565 -0.0286
  532TIP3   OH2 1559   5.653   4.069   0.899  0.4262  0.2364 -0.5047
  532TIP3    H1 1560   5.641   4.163   0.890  0.2303  0.0848 -1.9963
  532TIP3    H2 1561   5.565   4.035   0.918  0.4462  0.3080 -0.2738
  533TIP3   OH2 1562   1.140   0.262   0.100  0.3380 -0.1890  0.0022
  533TIP3    H1 1563   1.206   0.193   0.095 -0.0105 -0.4436 -1.8161
  533TIP3    H2 1564   1.097   0.260   0.014 -0.5169  1.4654  0.3577
  534TIP3   OH2 1565   4.033   0.087   4.840  0.0166 -0.0229  0.0328
  534TIP3    H1 1566   4.096   0.154   4.815  1.1383  0.2220  3.0974
  534TIP3    H2 1567   4.081   0.005   4.830  0.1439  0.0066  0.3606
  535TIP3   OH2 1568   6.819   1.571   5.686 -0.1647  0.3501 -0.2668
  535TIP3    H1 1569   6.847   1.658   5.714  2.3316 -0.1473 -0.9592
  535TIP3    H2 1570   6.769   1.587   5.606  0.8645  1.1426 -0.7828
  536TIP3   OH2 1571   5.353   2.191   3.279 -0.1477  0.7615  0.6108
  536TIP3    H1 1572   5.311   2.206   3.364 -1.4402  1.2766 -0.1015
  536TIP3    H2 1573   5.355   2.278   3.238  0.3900  0.4994  0.0686
  537TIP3   OH2 1574   5.246   2.325   3.947 -0.0752 -0.2775  0.5068
  537TIP3    H1 1575   5.260   2.293   4.036  0.5734 -0.2754  0.4063
  537TIP3    H2 1576   5.151   2.321   3.936 -0.2730  0.8418  1.6026
  538TIP3   OH2 1577   0.583   6.088   3.061 -0.2283  0.6788 -0.1880
  538TIP3    H1 1578   0.666   6.134   3.073  0.4176 -0.3309 -0.6273
  538TIP3    H2 1579   0.607   6.007   3.016 -1.3239 -0.0642  0.5072
  539TIP3   OH2 1580   0.274   0.458   2.199 -0.1688  0.2315 -0.5831
  539TIP3    H1 1581   0.354   0.442   2.148 -0.3746  0.2919 -0.9281
  539TIP3    H2 1582   0.208   0.478   2.134 -0.3935  0.4929 -0.2783
  540TIP3   OH2 1583   0.566   1.580   0.897 -0.2311 -0.2594 -0.0762
  540TIP3    H1 1584   0.587   1.609   0.809  0.1730  2.2416  0.7446
  540TIP3    H2 1585   0.550   1.661   0.946 -1.7716 -1.6034  1.8343
  541TIP3   OH2 1586   1.414   1.949   5.273  0.2947 -0.4075  0.5855
  541TIP3    H1 1587   1.383   2.033   5.239 -0.3121 -0.3932  1.1626
  541TIP3    H2 1588   1.335   1.897   5.285  0.6383 -0.9516  0.5527
  542TIP3   OH2 1589   4.483   6.733   2.586  0.5883  0.2268 -0.1686
  542TIP3    H1 1590   4.470   6.640   2.568  0.8480 -0.3012  2.0392
  542TIP3    H2 1591   4.574   6.740   2.614  0.5049  1.1175 -0.0827
  543TIP3   OH2 1592   3.314   6.614   2.232 -0.0329  0.3532  0.3098
  543TIP3    H1 1593   3.278   6.529   2.253 -0.5081 -0.3071 -2.6756
  543TIP3    H2 1594   3.390   6.595   2.176  0.0157  1.8709 -0.1996
  544TIP3   OH2 1595   0.272   5.165   4.869 -0.2576  0.3332  0.0267
  544TIP3    H1 1596   0.230   5.085   4.899  0.6504  0.1279  0.7762
  544TIP3    H2 1597   0.359   5.137   4.840  0.4110  1.1636  1.1518
  545TIP3   OH2 1598   2.718   5.637   4.254  0.3265 -0.2986  0.1875
  545TIP3    H1 1599   2.635   5.685   4.244  0.0784 -0.6101  0.7263
  545TIP3    H2 1600   2.746   5.655   4.344 -0.4298 -2.1760  0.8475
  546TIP3   OH2 1601   6.582   5.253   1.661 -0.5089 -0.4082 -0.1295
  546TIP3    H1 1602   6.544   5.173   1.698  1.0170 -0.2264  2.0271
  546TIP3    H2 1603   6.675   5.232   1.649 -0.1341  0.9437  0.2464
  547TIP3   OH2 1604   5.105   1.136   4.987  0.5670  0.3517  0.0208
  547TIP3    H1 1605   5.093   1.226   4.955  0.4191  0.5651  0.6547
  547TIP3    H2 1606   5.185   1.140   5.039  1.5214 -0.2850 -1.3462
  548TIP3   OH2 1607   0.805   0.833   3.324  0.4022 -0.1885 -0.0561
  548TIP3    H1 1608   0.854   0.809   3.245 -0.4414 -1.1937 -0.2977
  548TIP3    H2 1609   0.717   0.853   3.292  0.4570  0.9335  0.4548
  549TIP3   OH2 1610   6.584   4.977   5.478  0.3584 -0.2589  0.1812
  549TIP3    H1 1611   6.661   4.943   5.523 -0.4079 -1.2327  0.8279
  549TIP3    H2 1612   6.602   5.070   5.465  3.5447 -1.1276 -3.6040
  550TIP3   OH2 1613   5.722   4.406   2.422 -0.6681 -0.0162  0.2908
  550TIP3    H1 1614   5.811   4.407   2.387 -0.9254  1.1553 -0.3794
  550TIP3    H2 1615   5.731   4.442   2.511 -0.3523 -0.8091  0.5918
  551TIP3   OH2 1616   1.407   2.490   4.065 -0.2943  0.0766  0.4619
  551TIP3    H1 1617   1.409   2.454   4.154  0.2518 -0.1762  0.3515
  551TIP3    H2 1618   1.320   2.467   4.032 -0.3842 -0.1054  0.8187
  552TIP3   OH2 1619   6.528   1.728   0.020  0.1291 -0.3337 -0.4835
  552TIP3    H1 1620   6.500   1.731   0.112  0.9041  0.7447 -0.2583
  552TIP3    H2 1621   6.479   1.798  -0.022 -1.8548 -2.1887 -1.4212
  553TIP3   OH2 1622   3.700   4.207   3.217 -0.1603 -0.0919  0.0502
  553TIP3    H1 1623   3.670   4.122   3.248  2.0891 -1.6930 -1.8259
  553TIP3    H2 1624   3.675   4.208   3.124 -1.4828  1.9924  0.3659
  554TIP3   OH2 1625   4.698   5.114   5.167 -0.0699  0.0333 -0.0103
  554TIP3    H1 1626   4.732   5.025   5.158 -2.0057 -0.5936 -2.4708
  554TIP3    H2 1627   4.643   5.111   5.245 -0.1059 -0.9635 -0.0593
  555TIP3   OH2 1628   1.621   4.911   3.446  0.6821 -0.4326  0.8373
  555TIP3    H1 1629   1.528   4.892   3.434  0.0241  0.8082  3.3177
  555TIP3    H2 1630   1.647   4.856   3.520  1.8551 -0.5080  0.3826
  556TIP3   OH2 1631   5.851   0.181   0.628  0.6142 -0.5442 -1.2118
  556TIP3    H1 1632   5.902   0.235   0.568  1.4547  0.3790  0.2707
  556TIP3    H2 1633   5.760   0.196   0.602  0.8257  1.5887 -0.8888
  557TIP3   OH2 1634   1.511   4.491   5.421  0.1831 -0.2926 -0.1086
  557TIP3    H1 1635   1.486   4.577   5.454 -1.4492 -0.6478 -0.3386
  557TIP3    H2 1636   1.492   4.431   5.494  0.1471 -0.6085 -0.3760
  558TIP3   OH2 1637   1.725   6.312   1.720  0.0690 -0.2107  0.7445
  558TIP3    H1 1638   1.688   6.228   1.748 -0.7601  0.5436  2.0237
  558TIP3    H2 1639   1.810   6.317   1.763  0.3250 -0.5954  0.2878
  559TIP3   OH2 1640   5.766   6.577   1.513 -0.4601 -0.2963 -0.3158
  559TIP3    H1 1641   5.806   6.513   1.572  1.9446  0.1104 -1.3997
  559TIP3    H2 1642   5.682   6.538   1.490  0.5535 -2.7023 -0.2796
  560TIP3   OH2 1643   5.152   4.459   4.957 -0.7757  0.2741 -0.7674
  560TIP3    H1 1644   5.232   4.448   4.905 -1.2343  0.8656 -1.6092
  560TIP3    H2 1645   5.168   4.538   5.009  0.0828 -0.8612  0.7708
  561TIP3   OH2 1646   4.173   4.561   3.563  0.6250 -0.0952 -0.1332
  561TIP3    H1 1647   4.136   4.571   3.475  1.1291  0.3566 -0.2987
  561TIP3    H2 1648   4.143   4.638   3.610  0.0024 -0.5473  0.2258
  562TIP3   OH2 1649   6.106   5.032   3.796  0.1017  0.3879  0.0545
  562TIP3    H1 1650   6.062   4.954   3.830 -0.6493  0.5744 -0.4751
  562TIP3    H2 1651   6.197   5.005   3.785  0.3489  0.2624  2.0427
  563TIP3   OH2 1652   1.457   3.267   4.887  0.4985  0.2406 -0.5773
  563TIP3    H1 1653   1.512   3.254   4.810 -0.3595 -0.5175 -1.0879
  563TIP3    H2 1654   1.380   3.212   4.871  0.0317  0.5325  0.5511
  564TIP3   OH2 1655   5.109   5.834   0.054  0.0422  0.6387  0.0659
  564TIP3    H1 1656   5.056   5.903   0.015 -0.1987  0.5295  0.1953
  564TIP3    H2 1657   5.199   5.863   0.042  0.0566 -0.0371 -1.8271
  565TIP3   OH2 1658   6.384   3.494   2.149 -0.2427  0.0986 -0.3677
  565TIP3    H1 1659   6.298   3.482   2.109 -0.6737  1.4475  0.1018
  565TIP3    H2 1660   6.377   3.449   2.233 -0.8879  1.1540  0.1632
  566TIP3   OH2 1661   3.834   0.984   5.199 -0.4486 -0.3902  0.4006
  566TIP3    H1 1662   3.907   1.032   5.161 -0.6306  0.0727  0.6176
  566TIP3    H2 1663   3.873   0.932   5.269 -0.2399 -0.5936  0.1302
  567TIP3   OH2 1664   2.108   3.564   0.982  0.3740  0.3053  0.3222
  567TIP3    H1 1665   2.143   3.475   0.969  0.3544  0.0875  1.6008
  567TIP3    H2 1666   2.065   3.561   1.068 -2.0265  0.8299 -0.7776
  568TIP3   OH2 1667   0.425   1.401   3.344  0.2618  0.2309  0.2936
  568TIP3    H1 1668   0.356   1.335   3.339 -0.6483  1.1610  0.0030
  568TIP3    H2 1669   0.441   1.413   3.437 -0.3299  0.3389  0.3901
  569TIP3   OH2 1670   5.242   4.862   2.364  0.4662  0.0064  0.1179
  569TIP3    H1 1671   5.268   4.771   2.349  2.0366  0.4696 -0.0947
  569TIP3    H2 1672   5.287   4.887   2.445  0.2223  0.6719  0.0567
  570TIP3   OH2 1673   2.106   5.033   2.130  0.2507  0.1509 -0.0528
  570TIP3    H1 1674   2.190   5.047   2.173  0.7001 -1.4882 -0.3272
  570TIP3    H2 1675   2.128   4.983   2.051 -1.0032 -0.5247  0.0105
  571TIP3   OH2 1676   6.969   6.697   5.494  0.2361 -0.0599  0.3316
  571TIP3    H1 1677   6.912   6.762   5.451  0.6332 -0.6726 -1.1964
  571TIP3    H2 1678   6.909   6.630   5.526  0.0525 -0.6052 -1.0993
  572TIP3   OH2 1679   4.572   2.981   1.123 -0.0661 -0.0042  0.2190
  572TIP3    H1 1680   4.634   2.911   1.103 -1.6652 -1.5032  0.2697
  572TIP3    H2 1681   4.520   2.947   1.195 -1.3126  0.9679 -0.1879
  573TIP3   OH2 1682   6.707   5.906   2.944  0.2478  0.0808 -0.3526
  573TIP3    H1 1683   6.789   5.940   2.907  1.2321 -2.3317 -0.5694
  573TIP3    H2 1684   6.648   5.981   2.944  1.6541  1.2983 -2.5568
  574TIP3   OH2 1685   5.898   2.371   5.669 -0.2762 -0.2844 -0.3017
  574TIP3    H1 1686   5.884   2.461   5.639  0.2906 -0.5809 -1.5342
  574TIP3    H2 1687   5.840   2.361   5.744 -0.5385  1.0256 -0.3116
  575TIP3   OH2 1688   3.234   1.296   4.169 -0.0241  0.2238  0.9204
  575TIP3    H1 1689   3.299   1.350   4.213 -0.7281  1.5771  0.3556
  575TIP3    H2 1690   3.285   1.234   4.117  0.8165  1.0075  0.7924
  576TIP3   OH2 1691   4.957   4.088   3.268 -0.7716 -0.3469 -0.0268
  576TIP3    H1 1692   4.979   4.123   3.182  0.3865  0.8102  0.6995
  576TIP3    H2 1693   5.028   4.117   3.325 -1.1737 -1.6275  1.2039
  577TIP3   OH2 1694   3.858   5.046   0.526  0.6645  0.8316  0.7613
  577TIP3    H1 1695   3.854   5.069   0.433  0.1324  1.5765  0.9580
  577TIP3    H2 1696   3.850   4.951   0.527  1.1230  0.7749  0.0207
  578TIP3   OH2 1697   2.362   1.388   2.848  0.8070  0.4865 -0.3496
  578TIP3    H1 1698   2.275   1.347   2.856  1.1998 -0.5293 -1.1251
  578TIP3    H2 1699   2.379   1.424   2.935 -0.2593  0.4167 -0.0992
  579TIP3   OH2 1700   5.120   5.633   3.993 -0.0529  0.2276  0.0906
  579TIP3    H1 1701   5.191   5.618   4.055 -0.5849 -0.3575  0.5760
  579TIP3    H2 1702   5.065   5.699   4.036  0.4635  1.0610 -0.5126
  580TIP3   OH2 1703   4.037   2.646   2.553  0.3621 -0.0877 -0.1620
  580TIP3    H1 1704   4.113   2.684   2.511  0.1651 -1.6974 -2.1738
  580TIP3    H2 1705   4.068   2.616   2.638  1.7343  0.0797 -0.5858
  581TIP3   OH2 1706   6.901   2.691   4.053  0.0719  0.7076 -0.0072
  581TIP3    H1 1707   6.809   2.717   4.043 -0.3439 -1.4495 -3.1958
  581TIP3    H2 1708   6.899   2.597   4.066  1.8637  0.8674  2.2237
  582TIP3   OH2 1709   3.515   0.521   4.362  0.5708 -0.1132 -0.7661
  582TIP3    H1 1710   3.485   0.527   4.452  1.7552 -0.2163 -0.3544
  582TIP3    H2 1711   3.460   0.452   4.324  0.3007 -0.3094 -0.0383
  583TIP3   OH2 1712   4.256   3.125   2.793 -0.6108 -0.2307  0.0078
  583TIP3    H1 1713   4.312   3.202   2.781 -0.6314  0.0346  1.4393
  583TIP3    H2 1714   4.204   3.145   2.871 -3.3557 -0.0896 -1.7335
  584TIP3   OH2 1715   1.881   3.651   4.301  0.4635  0.0195  0.8750
  584TIP3    H1 1716   1.881   3.678   4.209 -1.3016 -1.6756  0.2988
  584TIP3    H2 1717   1.817   3.708   4.343  0.4841  0.1028  0.7927
  585TIP3   OH2 1718   2.138   1.818   0.896 -0.0726 -0.0513 -0.1928
  585TIP3    H1 1719   2.087   1.858   0.825 -0.0539  1.5835  0.6649
  585TIP3    H2 1720   2.081   1.749   0.930 -1.4384  1.2437  0.2574
  586TIP3   OH2 1721   6.106   0.046   4.525 -0.5036 -0.6070 -0.4411
  586TIP3    H1 1722   6.034  -0.016   4.512 -2.4837  0.8851  2.2496
  586TIP3    H2 1723   6.185  -0.008   4.526 -1.9683 -2.8550  0.1269
  587TIP3   OH2 1724   4.123   0.433   4.904  0.1922 -0.1227 -0.1521
  587TIP3    H1 1725   4.079   0.384   4.835 -0.1501  0.0216 -0.0374
  587TIP3    H2 1726   4.191   0.374   4.936  1.1951  0.2610 -1.4665
  588TIP3   OH2 1727   0.677   6.198   5.362  0.4884 -0.6934 -0.3343
  588TIP3    H1 1728   0.602   6.255   5.375  0.7889 -0.5095  0.7486
  588TIP3    H2 1729   0.753   6.255   5.377  0.8306 -1.0230 -0.7772
  589TIP3   OH2 1730   3.839   2.713   2.906 -0.1339  0.3364 -0.2783
  589TIP3    H1 1731   3.841   2.770   2.983 -2.0510  0.1233 -0.0186
  589TIP3    H2 1732   3.832   2.773   2.832  0.7230  0.5133 -0.2194
  590TIP3   OH2 1733   2.359   3.363   5.604  0.0228  0.3058 -0.2248
  590TIP3    H1 1734   2.346   3.281   5.556  0.6224  0.8860 -1.4127
  590TIP3    H2 1735   2.329   3.431   5.545  0.7461  1.0416  0.2241
  591TIP3   OH2 1736   0.276   1.351   5.093  0.2167  0.2242  0.1338
  591TIP3    H1 1737   0.222   1.273   5.095  0.4263  0.0759  1.5811
  591TIP3    H2 1738   0.214   1.424   5.089  0.0280 -0.0046 -1.4085
  592TIP3   OH2 1739   0.968   3.361   3.548  0.0637  0.3481  0.2781
  592TIP3    H1 1740   1.053   3.339   3.509 -0.9791 -0.0462 -1.9359
  592TIP3    H2 1741   0.981   3.349   3.642  1.6494 -2.6240 -0.1867
  593TIP3   OH2 1742   6.359   1.626   5.756  0.4068 -0.8619  0.2663
  593TIP3    H1 1743   6.431   1.563   5.748  0.2703 -0.8182 -1.9637
  593TIP3    H2 1744   6.280   1.572   5.754  0.3273 -0.8081  1.3662
  594TIP3   OH2 1745   3.328   3.207   2.547 -0.2513 -0.0547 -0.4287
  594TIP3    H1 1746   3.421   3.206   2.524 -0.3283 -2.2600 -0.8729
  594TIP3    H2 1747   3.288   3.147   2.485 -2.0717  1.1638 -0.4960
  595TIP3   OH2 1748   1.533   5.284   5.781 -0.6321 -0.4075  0.3164
  595TIP3    H1 1749   1.509   5.377   5.777 -0.1252 -0.1866  1.6401
  595TIP3    H2 1750   1.462   5.238   5.736 -1.5649  0.5182  0.8027
  596TIP3   OH2 1751   3.347   4.933   2.172  0.8170  0.2825 -0.1814
  596TIP3    H1 1752   3.408   4.859   2.171 -0.6270 -1.0204  1.6662
  596TIP3    H2 1753   3.403   5.009   2.192  2.0518 -0.6088 -0.0823
  597TIP3   OH2 1754   0.069   4.301   4.506  0.2780 -0.7864 -0.3240
  597TIP3    H1 1755  -0.006   4.244   4.489 -0.2257  0.3644 -2.2286
  597TIP3    H2 1756   0.069   4.363   4.433  1.4856  0.9369  1.0644
  598TIP3   OH2 1757   1.804   3.286   5.698 -0.1059  0.2840 -0.1713
  598TIP3    H1 1758   1.804   3.381   5.684  1.5620  0.1218 -1.6013
  598TIP3    H2 1759   1.777   3.249   5.614 -0.4101 -0.5186  0.2716
  599TIP3   OH2 1760   5.112   1.752   3.971 -0.4564  0.2262 -0.3257
  599TIP3    H1 1761   5.181   1.688   3.956 -1.1244 -0.8175  0.8166
  599TIP3    H2 1762   5.056   1.746   3.893 -1.3143 -1.6984  0.3601
  600TIP3   OH2 1763   4.571   1.514   1.212  0.6615 -0.2053 -0.2385
  600TIP3    H1 1764   4.638   1.487   1.149  0.0048  0.9220 -1.4813
  600TIP3    H2 1765   4.589   1.607   1.226 -0.0304 -0.1354  0.1975
  601TIP3   OH2 1766   1.198   2.008   0.940 -0.2316 -0.7494 -0.4361
  601TIP3    H1 1767   1.231   1.992   0.852  2.6756  0.1388  0.3915
  601TIP3    H2 1768   1.182   2.102   0.943  0.3874 -0.6512  0.1651
  602TIP3   OH2 1769   1.369   3.588   1.537 -0.1126  0.1336  0.1173
  602TIP3    H1 1770   1.464   3.577   1.530  0.0661  1.7965 -0.3166
  602TIP3    H2 1771   1.336   3.499   1.549  1.4578 -0.5216 -0.1821
  603TIP3   OH2 1772   1.819   2.189   4.673 -0.0507  0.1573  0.2531
  603TIP3    H1 1773   1.895   2.132   4.661 -0.1327 -0.2335  1.4598
  603TIP3    H2 1774   1.762   2.141   4.733 -0.3215  1.3200  0.9633
  604TIP3   OH2 1775   2.694   6.579   0.926  0.1208  0.0665  0.7180
  604TIP3    H1 1776   2.744   6.513   0.974 -0.4585 -1.2469 -0.3919
  604TIP3    H2 1777   2.761   6.635   0.886  0.6488 -0.3206  1.0408
  605TIP3   OH2 1778   1.302   1.674   4.434  0.1350  0.0495 -0.0724
  605TIP3    H1 1779   1.297   1.606   4.366 -1.9036 -1.3019  1.3333
  605TIP3    H2 1780   1.232   1.735   4.412 -2.1964 -1.7031  2.0511
  606TIP3   OH2 1781   1.977   1.280   5.321 -0.5552  0.4827 -0.3418
  606TIP3    H1 1782   1.955   1.207   5.379 -0.2936  0.2695 -0.5094
  606TIP3    H2 1783   2.072   1.289   5.328 -0.4722  0.2194 -1.0059
  607TIP3   OH2 1784   0.722   3.774   4.323  0.4030  0.6369 -0.1221
  607TIP3    H1 1785   0.813   3.756   4.303  0.6976  2.1577 -0.2787
  607TIP3    H2 1786   0.721   3.794   4.416  0.4901  1.9580 -0.3793
  608TIP3   OH2 1787   3.026   0.354   2.990 -0.7021 -0.3231 -0.1343
  608TIP3    H1 1788   2.956   0.329   2.931 -0.7564  0.4646 -0.4195
  608TIP3    H2 1789   3.074   0.422   2.943  0.1992 -0.7806  0.0926
  609TIP3   OH2 1790   5.678   1.579   4.491 -0.2968 -0.0230  0.4026
  609TIP3    H1 1791   5.626   1.555   4.415 -0.2373  0.6194  0.1542
  609TIP3    H2 1792   5.752   1.519   4.490 -0.5045 -0.2758  0.1857
  610TIP3   OH2 1793   2.318   2.023   0.698 -0.1498 -0.5510  0.4035
  610TIP3    H1 1794   2.413   2.028   0.696 -0.0174 -2.3378  0.5887
  610TIP3    H2 1795   2.292   2.032   0.606  0.1944 -0.1979  0.3379
  611TIP3   OH2 1796   1.882   4.729   1.814  0.5327 -0.0470 -0.0409
  611TIP3    H1 1797   1.874   4.660   1.881  0.0837  0.8542  0.8576
  611TIP3    H2 1798   1.895   4.681   1.732 -1.3058 -1.2708  0.3206
  612TIP3   OH2 1799   5.849   6.363   3.163  0.9423 -0.0037 -0.7696
  612TIP3    H1 1800   5.802   6.295   3.116  2.8041 -0.8741 -1.4655
  612TIP3    H2 1801   5.830   6.444   3.115 -2.5097  0.3692  0.9255
  613TIP3   OH2 1802   5.563   1.486   1.716 -0.0460  0.3117  0.2363
  613TIP3    H1 1803   5.627   1.512   1.782  1.3323  0.5143 -1.1265
  613TIP3    H2 1804   5.593   1.529   1.636 -1.8216  0.2864 -0.4800
  614TIP3   OH2 1805   1.242   2.649   2.955 -0.3727  0.0449 -0.0030
  614TIP3    H1 1806   1.261   2.727   3.006 -1.0871 -0.3920  0.9607
  614TIP3    H2 1807   1.169   2.675   2.898 -0.8824 -0.0174  0.6051
  615TIP3   OH2 1808   5.640   4.281   2.153 -0.6891  0.4789 -0.1047
  615TIP3    H1 1809   5.549   4.286   2.123 -0.9459 -1.7046  0.1849
  615TIP3    H2 1810   5.642   4.207   2.212  1.0127  1.3727  1.0359
  616TIP3   OH2 1811   1.865   1.694   5.525  0.2619 -0.1919  0.2646
  616TIP3    H1 1812   1.821   1.715   5.443 -0.3635 -0.7511  0.4514
  616TIP3    H2 1813   1.809   1.733   5.593  0.4174 -0.3039  0.4594
  617TIP3   OH2 1814   5.087   5.187   0.188 -0.2970  0.3266  0.3337
  617TIP3    H1 1815   5.164   5.223   0.231 -0.0144 -0.1674  0.2449
  617TIP3    H2 1816   5.092   5.093   0.203 -1.4810  0.3975  1.2983
  618TIP3   OH2 1817   5.229   0.026   2.006  0.3635  0.3054  0.3716
  618TIP3    H1 1818   5.210   0.100   2.063  0.1136 -0.2688  1.0524
  618TIP3    H2 1819   5.234  -0.049   2.065  1.5445 -0.0815 -0.1917
  619TIP3   OH2 1820   4.937   6.417   1.558  0.9128  0.1465  0.0886
  619TIP3    H1 1821   4.993   6.482   1.514  2.2400  0.0843  1.5992
  619TIP3    H2 1822   4.993   6.379   1.626  0.0779 -2.3617 -0.5144
  620TIP3   OH2 1823   6.618   6.684   2.180 -0.6093  0.0872 -0.5139
  620TIP3    H1 1824   6.537   6.646   2.216 -0.0863 -0.3378  0.2285
  620TIP3    H2 1825   6.630   6.764   2.231  0.8988 -1.2195  1.3301
  621TIP3   OH2 1826   1.120   1.410   4.686  0.3468  0.6220 -0.2349
  621TIP3    H1 1827   1.057   1.392   4.616 -0.2734  1.9959 -0.0621
  621TIP3    H2 1828   1.157   1.325   4.708 -1.3482 -0.2073 -0.4500
  622TIP3   OH2 1829   5.326   5.756   2.335  0.7801 -0.9470  0.0814
  622TIP3    H1 1830   5.348   5.797   2.251  0.3774  0.4725  0.6324
  622TIP3    H2 1831   5.235   5.780   2.350  1.0476 -0.5626  1.2363
  623TIP3   OH2 1832   6.144   4.692   5.779 -0.1785  0.1901 -0.1101
  623TIP3    H1 1833   6.184   4.606   5.768  2.3570  1.5336 -2.4596
  623TIP3    H2 1834   6.063   4.688   5.728 -0.7073 -1.0782  0.7673
  624TIP3   OH2 1835   7.064   6.748   2.221 -0.0299  0.1630 -0.5490
  624TIP3    H1 1836   7.012   6.675   2.187 -1.3619  0.8108  0.0172
  624TIP3    H2 1837   7.060   6.739   2.316  0.3968  0.5677 -0.4894
  625TIP3   OH2 1838   2.982   3.211   2.666 -0.3299  0.2127 -0.1425
  625TIP3    H1 1839   3.005   3.300   2.692  1.0063  0.3575 -1.6464
  625TIP3    H2 1840   2.930   3.177   2.739 -1.1809  2.3340  0.3068
  626TIP3   OH2 1841   0.073   1.878   3.741  0.0273  0.1852 -0.5689
  626TIP3    H1 1842   0.020   1.864   3.819  0.0345 -0.4902 -0.6776
  626TIP3    H2 1843   0.113   1.964   3.753  2.3058 -1.0760  1.4812
  627TIP3   OH2 1844   2.427   0.397   3.971 -0.6122 -0.5697 -0.3796
  627TIP3    H1 1845   2.508   0.353   3.945  0.4447  1.0054  0.1058
  627TIP3    H2 1846   2.381   0.413   3.889  0.2139 -0.2912 -0.8027
  628TIP3   OH2 1847   0.320   1.083   0.925  0.0348 -0.1595  0.4966
  628TIP3    H1 1848   0.310   1.141   1.000 -1.2773  0.3031 -0.0111
  628TIP3    H2 1849   0.337   0.997   0.964  0.3727  0.2623  1.2966
  629TIP3   OH2 1850   4.266   3.909   1.364 -0.3270  0.2679  0.0929
  629TIP3    H1 1851   4.269   3.872   1.452 -0.2797  1.4563  0.6023
  629TIP3    H2 1852   4.274   4.003   1.377 -0.3403  0.4616 -1.1854
  630TIP3   OH2 1853   6.620   6.236   1.649  0.0680 -0.1374  0.1686
  630TIP3    H1 1854   6.543   6.247   1.593  0.0682 -0.3830  0.1176
  630TIP3    H2 1855   6.670   6.317   1.637  0.0130 -0.1427 -0.1035
  631TIP3   OH2 1856   2.201   5.981   1.002  0.0589  0.3454 -0.1554
  631TIP3    H1 1857   2.144   5.907   1.026 -1.4366  0.7704 -2.1226
  631TIP3    H2 1858   2.277   5.940   0.961 -0.8767 -0.1626 -1.4787
  632TIP3   OH2 1859   5.023   1.100   2.335 -0.1307 -0.1436  0.0135
  632TIP3    H1 1860   5.063   1.174   2.382  0.1894 -1.2684  1.6138
  632TIP3    H2 1861   5.098   1.048   2.305 -0.3539  0.1624 -1.0937
  633TIP3   OH2 1862   3.040   5.168   5.062  0.1714 -0.2261  0.0196
  633TIP3    H1 1863   3.057   5.108   5.135 -1.6304 -0.2386  0.4826
  633TIP3    H2 1864   3.018   5.251   5.104  2.9302  0.9403 -0.6168
  634TIP3   OH2 1865   5.793   5.479   3.202  0.0424  0.0987  0.2100
  634TIP3    H1 1866   5.816   5.555   3.256  0.6116  0.6531 -0.7709
  634TIP3    H2 1867   5.703   5.496   3.174 -0.8558 -0.9754  2.2315
  635TIP3   OH2 1868   2.266   4.661   1.196 -0.2781 -0.1221  0.2527
  635TIP3    H1 1869   2.354   4.688   1.169  0.3698 -2.1659  0.1324
  635TIP3    H2 1870   2.209   4.734   1.171  1.5843  2.0479  1.9766
  636TIP3   OH2 1871   3.783   3.917   1.904  0.1885  0.5578 -0.2992
  636TIP3    H1 1872   3.692   3.888   1.916 -0.0506  0.3833 -2.3049
  636TIP3    H2 1873   3.812   3.938   1.993 -0.7838 -2.3753  0.8327
  637TIP3   OH2 1874   2.443   5.014   3.056  0.1111 -0.1320  0.4294
  637TIP3    H1 1875   2.408   4.928   3.035  1.6681 -1.2309  2.0654
  637TIP3    H2 1876   2.370   5.060   3.098 -0.9338 -0.3693 -1.0631
  638TIP3   OH2 1877   2.790   3.835   5.303 -0.2043 -0.3570  0.1040
  638TIP3    H1 1878   2.782   3.748   5.266  0.0680 -0.3042 -0.0832
  638TIP3    H2 1879   2.883   3.855   5.298 -0.2244 -0.1714  0.4119
  639TIP3   OH2 1880   4.066   0.606   2.041 -0.4446 -0.5990  0.2624
  639TIP3    H1 1881   4.059   0.701   2.043 -1.7354 -0.6691  0.0061
  639TIP3    H2 1882   4.043   0.579   2.130 -1.3731 -0.7218 -0.0004
  640TIP3   OH2 1883   4.261   6.103   1.838  0.6747 -0.0422 -0.0995
  640TIP3    H1 1884   4.188   6.107   1.776  0.3540 -0.3178  0.2525
  640TIP3    H2 1885   4.219   6.090   1.923  1.1632 -0.8061  0.0337
  641TIP3   OH2 1886   1.284   2.720   0.792 -0.1754 -0.2862  0.6763
  641TIP3    H1 1887   1.361   2.749   0.841  0.1143  0.5975 -0.2551
  641TIP3    H2 1888   1.267   2.632   0.824  1.6319 -0.7582  0.4577
  642TIP3   OH2 1889   3.514   3.259   1.357  0.1933 -0.5794  0.0789
  642TIP3    H1 1890   3.589   3.200   1.367 -0.0535 -0.9649 -0.2740
  642TIP3    H2 1891   3.467   3.225   1.281  1.0338  1.1709 -1.2906
  643TIP3   OH2 1892   1.940   6.641   2.965 -0.0276 -0.5240  0.4569
  643TIP3    H1 1893   1.856   6.600   2.984 -0.8981  0.9819 -0.0493
  643TIP3    H2 1894   1.966   6.682   3.047  2.0255 -3.8891  1.7297
  644TIP3   OH2 1895   5.996   4.359   0.361 -0.2069  0.2826  0.3129
  644TIP3    H1 1896   6.074   4.371   0.416 -0.8665 -0.4390  1.4404
  644TIP3    H2 1897   6.004   4.270   0.327  0.5051  0.9127 -1.3294
  645TIP3   OH2 1898   5.866   2.083   4.082 -0.1837 -0.7435  0.1169
  645TIP3    H1 1899   5.813   2.112   4.156 -1.0085 -0.5507 -0.5420
  645TIP3    H2 1900   5.805   2.039   4.023  0.3534 -0.4308 -0.7033
  646TIP3   OH2 1901   0.530   3.705   4.991  0.3355  0.0270  0.0615
  646TIP3    H1 1902   0.606   3.755   5.022 -0.1827  0.0655  1.3300
  646TIP3    H2 1903   0.477   3.692   5.069  0.4287 -2.4963 -0.2041
  647TIP3   OH2 1904   5.563   5.664   1.576  0.2714  0.2667 -0.3515
  647TIP3    H1 1905   5.653   5.637   1.557  0.5900 -0.0947  1.4892
  647TIP3    H2 1906   5.510   5.586   1.558  0.3236  0.4343 -1.2934
  648TIP3   OH2 1907   3.910   3.495   3.277 -0.8929  0.0766  0.2334
  648TIP3    H1 1908   3.958   3.578   3.277 -1.6628  0.5350  0.5812
  648TIP3    H2 1909   3.914   3.465   3.187  0.7334 -0.3099  0.4094
  649TIP3   OH2 1910   2.686   3.022   4.390 -0.0633  0.2950  0.2905
  649TIP3    H1 1911   2.692   2.927   4.393  1.5536  0.3155 -0.8327
  649TIP3    H2 1912   2.706   3.044   4.299 -2.2048  1.6399  0.0685
  650TIP3   OH2 1913   2.664   1.675   3.909  0.2806  0.6498 -0.6831
  650TIP3    H1 1914   2.659   1.580   3.924  0.7232  0.4782 -1.5798
  650TIP3    H2 1915   2.757   1.695   3.914  0.0986  1.2743  0.7935
  651TIP3   OH2 1916   2.931   5.468   3.567 -0.5638  0.0130 -0.0501
  651TIP3    H1 1917   2.855   5.497   3.517  1.2299  2.1984 -1.7203
  651TIP3    H2 1918   2.952   5.382   3.531 -1.6618 -0.2024 -0.2106
  652TIP3   OH2 1919   4.585   4.128   2.111 -0.0277  0.0064  0.5665
  652TIP3    H1 1920   4.641   4.195   2.150 -0.5374  0.1773  1.0193
  652TIP3    H2 1921   4.640   4.051   2.105  0.2446  0.1611  1.0522
  653TIP3   OH2 1922   1.601   6.559   1.750 -0.0119 -0.3765  0.2660
  653TIP3    H1 1923   1.675   6.616   1.730  0.5214 -0.6357  1.4357
  653TIP3    H2 1924   1.635   6.470   1.735 -0.7713 -0.4430 -1.3452
  654TIP3   OH2 1925   0.713   5.828   3.584  0.1403  0.7588  0.3232
  654TIP3    H1 1926   0.711   5.739   3.550 -2.4513  1.2673 -1.1084
  654TIP3    H2 1927   0.684   5.819   3.675 -1.5072  0.2499 -0.2239
  655TIP3   OH2 1928   5.512   5.370   1.051  0.3017  0.0315 -0.7990
  655TIP3    H1 1929   5.524   5.398   1.142 -1.5023  0.9019 -0.7683
  655TIP3    H2 1930   5.426   5.328   1.051  1.0075 -1.4862 -1.7945
  656TIP3   OH2 1931   4.626   6.573   1.329 -0.1874 -0.0207 -0.3391
  656TIP3    H1 1932   4.593   6.661   1.348  1.1782  0.6499 -0.9288
  656TIP3    H2 1933   4.646   6.536   1.415 -1.2628  0.0315 -0.0575
  657TIP3   OH2 1934   2.851   0.526   4.362 -0.1595 -0.0556  0.2353
  657TIP3    H1 1935   2.895   0.487   4.287 -0.6364  0.8521 -0.5514
  657TIP3    H2 1936   2.900   0.606   4.380 -0.6967  0.2929  0.1854
  658TIP3   OH2 1937   4.644   6.705   5.736 -0.4903  0.5535  0.2822
  658TIP3    H1 1938   4.647   6.738   5.826  0.2530  1.8174 -0.1756
  658TIP3    H2 1939   4.551   6.698   5.716 -0.6633  0.2338  1.1496
  659TIP3   OH2 1940   3.049   2.926   2.635 -0.1354 -0.8873 -0.7106
  659TIP3    H1 1941   3.065   3.020   2.623 -2.2443 -0.4700 -0.7446
  659TIP3    H2 1942   3.042   2.914   2.729  0.6105 -1.1226 -0.6781
  660TIP3   OH2 1943   0.321   3.212   2.181 -0.5960  0.3848 -0.2002
  660TIP3    H1 1944   0.382   3.223   2.254  1.5798  0.5053 -1.9402
  660TIP3    H2 1945   0.275   3.296   2.175  0.1037  0.8094  0.2760
  661TIP3   OH2 1946   2.336   5.278   3.621 -0.2317 -0.3658  0.2083
  661TIP3    H1 1947   2.334   5.353   3.563 -0.6604  0.6721  1.5125
  661TIP3    H2 1948   2.402   5.299   3.687 -0.3163 -1.1425  0.5561
  662TIP3   OH2 1949   2.943   3.537   3.500 -0.2009 -0.1414  0.5655
  662TIP3    H1 1950   2.875   3.471   3.491 -0.2522  0.1315 -1.5615
  662TIP3    H2 1951   3.026   3.489   3.491 -0.2285 -0.0093 -0.5350
  663TIP3   OH2 1952   3.756   0.865   4.609 -0.3291  0.4502  0.2098
  663TIP3    H1 1953   3.765   0.887   4.516 -0.6015  0.5161  0.1979
  663TIP3    H2 1954   3.807   0.931   4.655  0.4236 -0.0186  0.0658
  664TIP3   OH2 1955   3.379   2.923   3.287 -0.4951 -0.9762  0.1198
  664TIP3    H1 1956   3.473   2.939   3.282 -0.2850 -0.0642  3.9069
  664TIP3    H2 1957   3.362   2.858   3.219  2.8011 -0.9226 -0.9076
  665TIP3   OH2 1958   0.313   4.687   2.767  0.1702  0.1211 -0.3923
  665TIP3    H1 1959   0.332   4.594   2.760  0.2836  0.1505 -0.4815
  665TIP3    H2 1960   0.300   4.716   2.676  0.5649  0.2798 -0.3995
  666TIP3   OH2 1961   2.314   2.968   4.551  0.1454  0.3739  0.2392
  666TIP3    H1 1962   2.223   2.978   4.579 -0.3134 -0.7292 -0.7574
  666TIP3    H2 1963   2.309   2.957   4.456  1.3618  0.7453  0.1112
  667TIP3   OH2 1964   5.787   2.551   0.150 -0.0835  0.0380 -0.6076
  667TIP3    H1 1965   5.751   2.479   0.202 -0.6965  0.7750  0.0173
  667TIP3    H2 1966   5.758   2.630   0.196  0.8365  0.6822 -1.1062
  668TIP3   OH2 1967   3.397   3.270   1.091 -0.7647 -0.2134  0.0266
  668TIP3    H1 1968   3.370   3.292   1.002  0.1626 -1.0576 -0.4848
  668TIP3    H2 1969   3.401   3.175   1.092 -2.6380 -0.3293  1.5645
  669TIP3   OH2 1970   4.844   5.666   3.951  0.5179  0.0304 -0.2821
  669TIP3    H1 1971   4.802   5.669   4.037 -0.9261 -0.6947 -0.9283
  669TIP3    H2 1972   4.922   5.611   3.964 -0.1093 -0.7053  0.3987
  670TIP3   OH2 1973   1.236   5.960   1.411  0.0962 -0.8151  0.0800
  670TIP3    H1 1974   1.222   6.043   1.457 -1.7809 -1.5661  1.0009
  670TIP3    H2 1975   1.295   5.911   1.469  2.4205  0.3443 -1.1690
  671TIP3   OH2 1976   5.574   4.886   4.143 -0.2822 -0.4016  0.2605
  671TIP3    H1 1977   5.581   4.849   4.231 -0.8749  0.7256  0.7961
  671TIP3    H2 1978   5.654   4.938   4.133  0.6322 -1.8931 -0.5560
  672TIP3   OH2 1979   0.210   1.817   0.047  0.1220 -0.0283 -0.3752
  672TIP3    H1 1980   0.222   1.888  -0.016  0.4413  1.4674  1.2644
  672TIP3    H2 1981   0.199   1.739  -0.006  2.1084  0.8518 -2.2472
  673TIP3   OH2 1982   0.779   5.986   0.647  0.2574  1.0469  0.3184
  673TIP3    H1 1983   0.851   5.993   0.710 -1.9484  0.2640  3.1592
  673TIP3    H2 1984   0.759   6.077   0.624  0.2291  1.4953  1.9330
  674TIP3   OH2 1985   3.859   4.591   2.529  0.0605  0.2937 -0.3607
  674TIP3    H1 1986   3.913   4.562   2.455 -0.3464  0.6215 -0.7938
  674TIP3    H2 1987   3.841   4.511   2.578 -1.4502 -0.3183 -1.8120
  675TIP3   OH2 1988   6.060   0.793   5.301  0.4193 -0.1087 -0.1781
  675TIP3    H1 1989   6.071   0.760   5.212  1.9072  1.8396 -0.7914
  675TIP3    H2 1990   5.978   0.843   5.298 -0.3849 -1.3675  0.0238
  676TIP3   OH2 1991   3.342   3.536   4.666 -0.4740 -0.6678 -0.0917
  676TIP3    H1 1992   3.249   3.516   4.677 -0.3296 -1.2628  0.0815
  676TIP3    H2 1993   3.385   3.491   4.739 -0.2775  1.5158  1.2442
  677TIP3   OH2 1994   4.974   1.570   0.836 -0.5841  0.1463 -0.6873
  677TIP3    H1 1995   4.985   1.579   0.930 -1.2950 -0.0753 -0.5783
  677TIP3    H2 1996   5.041   1.507   0.810  0.9539  1.6776 -0.6588
  678TIP3   OH2 1997   4.355   6.338   5.225 -0.2951 -0.3792  0.1415
  678TIP3    H1 1998   4.340   6.408   5.289 -0.0720 -2.7234  2.9836
  678TIP3    H2 1999   4.276   6.283   5.232 -0.6655 -0.2694 -2.3364
  679TIP3   OH2 2000   3.359   4.392   2.848 -0.3706 -0.0017 -0.0873
  679TIP3    H1 2001   3.302   4.448   2.795 -0.7590  1.7404  2.0289
  679TIP3    H2 2002   3.299   4.346   2.907  0.2743  1.7709  2.0914
  680TIP3   OH2 2003   2.173   0.056   0.152  0.0023 -0.0718  0.5861
  680TIP3    H1 2004   2.180   0.073   0.058 -0.3567 -1.0102  0.3673
  680TIP3    H2 2005   2.098  -0.004   0.159  0.2209 -0.2569  1.4346
  681TIP3   OH2 2006   0.347   0.352   1.145  0.4925 -0.2556  0.5043
  681TIP3    H1 2007   0.336   0.260   1.121  2.2139  0.0154 -1.5790
  681TIP3    H2 2008   0.438   0.359   1.172  0.9155  1.1744 -1.1533
  682TIP3   OH2 2009   2.301   0.320   4.743  0.1060  0.3538 -0.0036
  682TIP3    H1 2010   2.345   0.271   4.813  0.0915  1.4743  0.8316
  682TIP3    H2 2011   2.352   0.302   4.665  0.5404 -0.3801  0.4364
  683TIP3   OH2 2012   3.685   2.840   1.362  0.0206 -0.0694  0.0697
  683TIP3    H1 2013   3.603   2.794   1.343 -1.1711  1.5101  1.1259
  683TIP3    H2 2014   3.658   2.919   1.408  2.0237  1.3544 -1.0330
  684TIP3   OH2 2015   6.662   1.382   5.251  0.6800 -0.1504 -0.1695
  684TIP3    H1 2016   6.567   1.377   5.249  0.6658  0.1843 -2.5163
  684TIP3    H2 2017   6.686   1.342   5.335 -1.5327  0.4455  0.8320
  685TIP3   OH2 2018   6.322   5.008   3.118  0.1531 -0.4978 -0.1453
  685TIP3    H1 2019   6.359   5.092   3.145  1.4339 -1.0998  0.0835
  685TIP3    H2 2020   6.262   5.030   3.047  0.7658  0.5737 -0.3623
  686TIP3   OH2 2021   5.628   4.209   5.881  0.3427 -0.2589  0.0782
  686TIP3    H1 2022   5.556   4.210   5.818 -0.2203 -0.0133  0.7070
  686TIP3    H2 2023   5.646   4.116   5.894  0.6654 -0.3045 -0.6621
  687TIP3   OH2 2024   0.922   3.705   3.602 -0.6288  0.4901 -0.0261
  687TIP3    H1 2025   0.866   3.657   3.663 -0.0794  0.7662  0.7082
  687TIP3    H2 2026   0.861   3.743   3.539 -0.9902 -2.8288 -1.8982
  688TIP3   OH2 2027   1.175   6.504   1.533 -0.0570 -0.5061  0.0737
  688TIP3    H1 2028   1.268   6.525   1.544  0.0196  0.4744 -1.9829
  688TIP3    H2 2029   1.139   6.579   1.485 -1.8181 -1.1097  0.3714
  689TIP3   OH2 2030   0.055   1.798   1.460 -0.0850 -0.0397  0.4179
  689TIP3    H1 2031   0.125   1.735   1.470 -0.9413 -1.0528  0.1850
  689TIP3    H2 2032   0.057   1.850   1.540 -0.4336 -1.4546  1.3716
  690TIP3   OH2 2033   0.189   0.522   2.542  0.3062  0.2218 -0.8220
  690TIP3    H1 2034   0.259   0.474   2.497  0.9910  1.7523 -1.4765
  690TIP3    H2 2035   0.123   0.537   2.475  0.4412  0.8195 -0.8305
  691TIP3   OH2 2036   2.422   4.754   4.434  0.6742  0.0244  0.6929
  691TIP3    H1 2037   2.464   4.675   4.467 -1.0224 -0.5268  1.6602
  691TIP3    H2 2038   2.424   4.815   4.507  1.6991  0.8008  0.0465
  692TIP3   OH2 2039   4.101   4.548   3.912 -0.5510 -0.3378  0.4051
  692TIP3    H1 2040   4.145   4.588   3.987  2.0438  3.7075 -2.7849
  692TIP3    H2 2041   4.099   4.617   3.846 -0.4428 -4.1015 -4.1009
  693TIP3   OH2 2042   2.933   0.684   5.334  0.3407  0.4123 -0.2899
  693TIP3    H1 2043   2.929   0.598   5.375 -2.8701  0.9058  0.7512
  693TIP3    H2 2044   3.001   0.731   5.382  0.8651 -0.9521  0.3400
  694TIP3   OH2 2045   5.034   5.693   3.205  0.1451  0.5529 -0.3252
  694TIP3    H1 2046   4.989   5.674   3.287  0.8479  0.5715  0.0729
  694TIP3    H2 2047   5.042   5.608   3.162  0.4201  0.4290 -0.0352
  695TIP3   OH2 2048   5.786   6.313   0.022 -0.5840  0.5842 -0.3346
  695TIP3    H1 2049   5.823   6.382   0.077  1.4851 -0.8379  0.1563
  695TIP3    H2 2050   5.702   6.292   0.064 -0.4062  1.5433  0.5449
  696TIP3   OH2 2051   3.128   0.122   4.268  0.0828 -0.2534  0.2309
  696TIP3    H1 2052   3.069   0.099   4.340 -1.8222  0.4074 -1.0376
  696TIP3    H2 2053   3.089   0.201   4.230  2.0425  0.4468 -0.4265
  697TIP3   OH2 2054   4.364   4.891   3.517 -0.1435 -0.0499 -0.0188
  697TIP3    H1 2055   4.342   4.891   3.423  0.4672  1.7850 -0.2206
  697TIP3    H2 2056   4.290   4.935   3.559 -1.2552 -2.4414  0.6519
  698TIP3   OH2 2057   4.849   1.611   4.546 -0.2849  0.0645 -0.4135
  698TIP3    H1 2058   4.883   1.692   4.507  1.0893 -0.2551  0.0499
  698TIP3    H2 2059   4.925   1.553   4.549 -1.0467 -0.9292  0.0880
  699TIP3   OH2 2060   6.515   5.706   4.913  0.1220 -0.0409 -0.5098
  699TIP3    H1 2061   6.601   5.671   4.887  0.0605  0.2262 -1.1014
  699TIP3    H2 2062   6.452   5.653   4.865 -0.0203  0.0994 -0.4782
  700TIP3   OH2 2063   3.465   1.118   4.062 -0.1700 -0.0331  0.1261
  700TIP3    H1 2064   3.490   1.061   3.988  1.0075  0.3423  0.2247
  700TIP3    H2 2065   3.512   1.199   4.047 -0.3940  0.2628  0.9829
  701TIP3   OH2 2066   3.198   5.881   4.505  0.0076  0.1550 -0.5344
  701TIP3    H1 2067   3.258   5.843   4.569  0.6807 -0.3199 -1.4279
  701TIP3    H2 2068   3.184   5.811   4.440 -1.8980  0.0826 -0.1023
  702TIP3   OH2 2069   4.272   6.625   0.414 -0.5132  0.0375  0.6199
  702TIP3    H1 2070   4.335   6.653   0.480 -1.1739  2.2175  0.4166
  702TIP3    H2 2071   4.325   6.594   0.341  0.2325 -1.6292  1.7975
  703TIP3   OH2 2072   2.486   4.198   1.427  0.0763 -0.8236 -0.2240
  703TIP3    H1 2073   2.554   4.140   1.393  0.1559 -0.4277 -0.7786
  703TIP3    H2 2074   2.515   4.286   1.401 -1.1697 -0.7248 -1.4470
  704TIP3   OH2 2075   2.340   5.416   2.223  0.4303 -0.4322 -0.1774
  704TIP3    H1 2076   2.378   5.458   2.300  1.3268 -0.7804 -0.4192
  704TIP3    H2 2077   2.414   5.405   2.163 -0.1781 -0.5465 -0.9177
  705TIP3   OH2 2078   3.396   0.167   0.263  0.1543 -0.2528  0.3204
  705TIP3    H1 2079   3.302   0.167   0.245  0.3675  0.9925 -0.8825
  705TIP3    H2 2080   3.404   0.120   0.347 -1.5368 -0.2499  0.5118
  706TIP3   OH2 2081   2.682   5.732   5.414  0.0532  0.6584 -0.8611
  706TIP3    H1 2082   2.595   5.699   5.437  0.2642  0.1011 -0.8387
  706TIP3    H2 2083   2.701   5.693   5.328  0.9638 -0.5718 -0.1321
  707TIP3   OH2 2084   4.989   1.625   2.175  0.0251  0.3845 -0.2024
  707TIP3    H1 2085   5.063   1.604   2.233  1.2435  0.8581 -1.5119
  707TIP3    H2 2086   4.915   1.637   2.234  1.2774  1.1483  1.3055
  708TIP3   OH2 2087   4.464   4.405   2.503  0.1371 -0.1481  0.0782
  708TIP3    H1 2088   4.553   4.430   2.530  0.0030  0.3769  0.0403
  708TIP3    H2 2089   4.414   4.404   2.585  0.1200 -0.1936  0.0670
  709TIP3   OH2 2090   3.614   4.795   0.399 -0.2042 -0.0786 -0.2236
  709TIP3    H1 2091   3.553   4.748   0.456  1.1120  0.8316  2.0806
  709TIP3    H2 2092   3.698   4.790   0.444 -0.0338  4.8522  0.5524
  710TIP3   OH2 2093   3.823   0.628   4.951 -0.1558 -0.4354 -0.0360
  710TIP3    H1 2094   3.873   0.570   5.008 -1.8953 -1.5535  0.4061
  710TIP3    H2 2095   3.838   0.595   4.863 -1.2440 -1.6960  0.2223
  711TIP3   OH2 2096   3.416   1.129   4.840  0.4131  0.8966  0.1160
  711TIP3    H1 2097   3.320   1.125   4.847  0.3935 -2.1156 -0.7954
  711TIP3    H2 2098   3.433   1.219   4.810 -2.4174  0.6280 -2.9614
  712TIP3   OH2 2099   1.030   5.388   2.781 -0.3611 -0.0672 -0.3005
  712TIP3    H1 2100   0.968   5.384   2.854 -0.4867  0.4958 -0.3771
  712TIP3    H2 2101   1.115   5.401   2.823 -0.2188 -1.3012 -0.1664
  713TIP3   OH2 2102   2.761   3.620   5.176 -0.1532  0.0716  0.1439
  713TIP3    H1 2103   2.780   3.527   5.189  0.9076  0.3994  1.0782
  713TIP3    H2 2104   2.729   3.626   5.086 -0.1397 -1.1739  0.0431
  714TIP3   OH2 2105   1.226   0.856   5.784  0.2352  0.2167  0.1733
  714TIP3    H1 2106   1.137   0.892   5.787 -0.9262 -2.3572  3.1687
  714TIP3    H2 2107   1.218   0.780   5.726  0.9594  0.9734 -0.9307
  715TIP3   OH2 2108   4.136   3.895   0.848  0.2124 -0.1000 -0.4122
  715TIP3    H1 2109   4.117   3.804   0.872  2.0965 -0.1750  1.0367
  715TIP3    H2 2110   4.113   3.945   0.926  0.4692  0.4776 -0.7069
  716TIP3   OH2 2111   3.076   4.948   5.204 -0.1672  0.3812  0.8581
  716TIP3    H1 2112   3.138   4.890   5.159  1.4705  1.9046  1.0524
  716TIP3    H2 2113   3.011   4.888   5.241  1.6507 -1.3912  1.4056
  717TIP3   OH2 2114   0.257   5.608   4.957  0.1852  0.1810  0.5169
  717TIP3    H1 2115   0.251   5.551   4.880 -0.0443  1.2233 -0.2495
  717TIP3    H2 2116   0.177   5.660   4.955 -0.3623 -0.5589  2.1078
  718TIP3   OH2 2117   0.880   3.388   2.101  0.9500  0.0301  0.5572
  718TIP3    H1 2118   0.923   3.466   2.135 -1.0858  1.3555  0.2600
  718TIP3    H2 2119   0.794   3.418   2.072  0.2056 -2.2717  0.1278
  719TIP3   OH2 2120   3.864   5.213   1.071 -0.0235 -0.5524  0.1228
  719TIP3    H1 2121   3.917   5.156   1.126  3.4394  1.5910 -0.6655
  719TIP3    H2 2122   3.885   5.187   0.982  0.8271  1.1744 -0.2288
  720TIP3   OH2 2123   6.950   3.497   4.505  0.0930  0.0982 -0.4980
  720TIP3    H1 2124   6.874   3.439   4.508 -0.4086  0.7483 -0.4749
  720TIP3    H2 2125   6.961   3.525   4.596  1.3273 -1.2115 -0.2071
  721TIP3   OH2 2126   4.095   0.475   0.594 -0.5688  0.5008  0.4056
  721TIP3    H1 2127   4.017   0.479   0.649  0.0569  4.0243  1.2419
  721TIP3    H2 2128   4.061   0.467   0.505 -1.7036 -1.4855  0.9485
  722TIP3   OH2 2129   6.725   1.676   1.159 -0.4360  0.4406  0.1075
  722TIP3    H1 2130   6.689   1.678   1.070  0.4379 -0.4297 -0.2876
  722TIP3    H2 2131   6.800   1.617   1.153 -0.3546  0.3803  1.4292
  723TIP3   OH2 2132   1.419   0.494   0.400 -0.7109  0.4460  0.3313
  723TIP3    H1 2133   1.402   0.577   0.356 -1.9190  0.2720  0.4148
  723TIP3    H2 2134   1.462   0.439   0.334  0.4113  1.2419  0.3871
  724TIP3   OH2 2135   5.330   6.763   2.541  0.9406  0.0801  0.1028
  724TIP3    H1 2136   5.238   6.763   2.567  0.6745 -0.5498 -0.8215
  724TIP3    H2 2137   5.329   6.780   2.447  1.8181  0.8449  0.2113
  725TIP3   OH2 2138   3.480   6.544   2.735  0.8138  0.0333  0.7556
  725TIP3    H1 2139   3.490   6.607   2.807  1.8428  1.7328 -0.7828
  725TIP3    H2 2140   3.565   6.544   2.692 -0.4582  1.0192 -1.9683
  726TIP3   OH2 2141   1.663   3.052   1.822 -0.7936 -0.4670  0.0782
  726TIP3    H1 2142   1.698   3.002   1.896  0.6690 -0.9951 -0.9394
  726TIP3    H2 2143   1.686   3.000   1.745 -2.7344 -0.1944 -0.7581
  727TIP3   OH2 2144   3.325   5.814   2.549 -0.2006 -0.4142 -0.0696
  727TIP3    H1 2145   3.320   5.908   2.530  0.2046 -0.2304  0.6885
  727TIP3    H2 2146   3.355   5.775   2.467  1.1736  0.3139  0.0576
  728TIP3   OH2 2147   4.636   0.387   3.645  0.3111  0.2759 -0.4863
  728TIP3    H1 2148   4.655   0.314   3.704  0.1658  0.6278  0.0012
  728TIP3    H2 2149   4.699   0.454   3.668  0.0225  0.5503 -0.4916
  729TIP3   OH2 2150   4.154   1.112   1.835 -1.0243  0.5802 -0.2721
  729TIP3    H1 2151   4.185   1.174   1.901 -1.1513 -0.7010  1.0456
  729TIP3    H2 2152   4.088   1.160   1.786 -0.2465  1.8628 -0.0959
  730TIP3   OH2 2153   5.274   5.775   3.818 -0.5801  0.2255 -0.0579
  730TIP3    H1 2154   5.233   5.717   3.882  0.0511  0.1131  0.2552
  730TIP3    H2 2155   5.207   5.791   3.752 -1.2700  0.4010  0.6753
  731TIP3   OH2 2156   4.107   5.792   3.389  0.4611 -0.2733 -0.0951
  731TIP3    H1 2157   4.128   5.746   3.471  0.6448  0.5898  0.3625
  731TIP3    H2 2158   4.022   5.757   3.363  0.8401 -1.2444 -0.0461
  732TIP3   OH2 2159   0.449   0.640   2.700 -0.0010 -0.2592 -0.6189
  732TIP3    H1 2160   0.415   0.556   2.669  1.3853 -0.8852 -0.5168
  732TIP3    H2 2161   0.444   0.634   2.796  1.9981 -1.1153 -0.5099
  733TIP3   OH2 2162   0.688   3.891   5.094  0.4161 -0.4732 -0.1743
  733TIP3    H1 2163   0.686   3.981   5.125 -0.6373  0.5539 -2.9087
  733TIP3    H2 2164   0.773   3.883   5.051  0.9060 -1.1399  0.8712
  734TIP3   OH2 2165   2.287   5.569   5.036 -1.2039 -0.1126  0.4858
  734TIP3    H1 2166   2.353   5.570   5.106 -0.9162 -1.9692  0.2767
  734TIP3    H2 2167   2.231   5.644   5.055 -0.3006  0.2356  1.9018
  735TIP3   OH2 2168   3.398   1.743   5.275  0.6782  0.0367 -0.0219
  735TIP3    H1 2169   3.448   1.785   5.345 -0.3894  1.7989 -0.2770
  735TIP3    H2 2170   3.317   1.792   5.270  0.2847 -0.7187 -1.8171
  736TIP3   OH2 2171   3.777   3.868   5.358  0.3103 -0.1670 -0.2034
  736TIP3    H1 2172   3.832   3.943   5.337 -0.0224 -0.1352 -0.9977
  736TIP3    H2 2173   3.752   3.882   5.450 -0.4504  1.1531 -0.5811
  737TIP3   OH2 2174   3.608   1.182   2.118  0.0837 -0.2720  0.4161
  737TIP3    H1 2175   3.588   1.276   2.126  1.7712  0.0966  0.6832
  737TIP3    H2 2176   3.584   1.145   2.203 -1.4677 -0.2898  0.0017
  738TIP3   OH2 2177   2.934   6.588   5.172  0.5318 -0.0457  0.7618
  738TIP3    H1 2178   2.901   6.603   5.084 -0.5090 -1.2300  0.9225
  738TIP3    H2 2179   2.859   6.601   5.229  0.4884 -1.9721  1.2054
  739TIP3   OH2 2180   4.536   1.151   4.679 -0.3569 -0.0604 -0.1359
  739TIP3    H1 2181   4.588   1.136   4.600 -1.5601 -1.9232 -0.6464
  739TIP3    H2 2182   4.578   1.225   4.722  1.4245 -0.1573 -1.5934
  740TIP3   OH2 2183   5.138   4.336   1.844  0.0957  0.2120 -0.3654
  740TIP3    H1 2184   5.094   4.253   1.830  1.0996 -0.1687 -1.4934
  740TIP3    H2 2185   5.085   4.381   1.909 -0.7825 -1.0671 -0.1588
  741TIP3   OH2 2186   2.165   2.207   4.613 -0.0035  0.6213 -0.0623
  741TIP3    H1 2187   2.187   2.216   4.520  1.9669  0.7535  0.3911
  741TIP3    H2 2188   2.108   2.282   4.631 -0.8992  0.2640 -1.2804
  742TIP3   OH2 2189   6.211   6.682   0.293  0.3621  0.0438  0.0840
  742TIP3    H1 2190   6.300   6.716   0.284  0.7598 -1.1170 -0.6644
  742TIP3    H2 2191   6.214   6.596   0.250 -0.8798 -0.4311  0.8893
  743TIP3   OH2 2192   4.558   1.204   5.136  0.5259 -0.1953 -0.1778
  743TIP3    H1 2193   4.600   1.234   5.216 -0.9209 -1.8926  1.3125
  743TIP3    H2 2194   4.609   1.127   5.109 -0.4058 -1.0859  0.5321
  744TIP3   OH2 2195   5.680   0.691   5.808 -0.4286  0.4072 -0.0483
  744TIP3    H1 2196   5.653   0.716   5.720  1.2353  2.0620 -0.1487
  744TIP3    H2 2197   5.620   0.739   5.866 -1.0658 -0.1206 -0.2631
  745TIP3   OH2 2198   2.908   4.712   1.172 -0.0776  0.2469 -0.0577
  745TIP3    H1 2199   2.854   4.708   1.251  0.3693  0.6891  0.2789
  745TIP3    H2 2200   2.984   4.764   1.198  0.9223 -1.0421 -0.2720
  746TIP3   OH2 2201   6.156   2.890   1.861  0.2130 -0.0571 -0.0246
  746TIP3    H1 2202   6.216   2.955   1.826 -0.1414  0.4111  0.2206
  746TIP3    H2 2203   6.120   2.847   1.784 -0.7690  1.1545 -0.2783
  747TIP3   OH2 2204   4.412   2.981   0.884 -0.3973  0.5300  0.4113
  747TIP3    H1 2205   4.476   3.010   0.819 -0.0638  0.0328  0.5102
  747TIP3    H2 2206   4.459   2.987   0.968 -0.7577  0.9739  0.5848
  748TIP3   OH2 2207   6.695   6.208   0.552 -0.1764  0.6447 -0.5748
  748TIP3    H1 2208   6.641   6.274   0.510  0.6877  0.3714 -2.1795
  748TIP3    H2 2209   6.637   6.167   0.617 -0.9969  2.3041 -0.2124
  749TIP3   OH2 2210   5.461   5.811   5.071  0.5974  0.3707 -0.3286
  749TIP3    H1 2211   5.529   5.777   5.130 -1.1551 -1.1784  0.9565
  749TIP3    H2 2212   5.440   5.897   5.106 -1.6923 -1.2196  2.6633
  750TIP3   OH2 2213   2.118   4.997   1.422 -0.0377  0.5733 -0.0155
  750TIP3    H1 2214   2.079   5.036   1.343 -0.7654  0.7628  0.4200
  750TIP3    H2 2215   2.048   4.942   1.458  0.1510  0.7805  0.6915
  751TIP3   OH2 2216   3.725   3.554   4.293 -0.5375 -0.4123  0.3495
  751TIP3    H1 2217   3.745   3.525   4.382  2.4798 -1.8712 -0.6623
  751TIP3    H2 2218   3.766   3.640   4.285  0.2178 -0.7887  0.0612
  752TIP3   OH2 2219   2.233   3.886   3.196 -0.5424  0.3336 -0.2352
  752TIP3    H1 2220   2.231   3.791   3.185 -1.0231  0.5175 -2.0127
  752TIP3    H2 2221   2.275   3.899   3.281 -2.8630 -1.5416  1.3474
  753TIP3   OH2 2222   6.257   0.151   2.166  0.8115  0.0235  0.2125
  753TIP3    H1 2223   6.277   0.232   2.120  0.4171 -0.0091 -0.0224
  753TIP3    H2 2224   6.307   0.083   2.120  1.1805  0.1414  0.4405
  754TIP3   OH2 2225   1.854   0.674   3.640 -0.1048 -0.1901 -0.1784
  754TIP3    H1 2226   1.802   0.595   3.650  0.0608 -0.2648  0.1229
  754TIP3    H2 2227   1.819   0.734   3.707 -2.2332  1.1131 -2.2794
  755TIP3   OH2 2228   6.808   0.488   1.765 -0.5868 -0.3076  0.3897
  755TIP3    H1 2229   6.864   0.419   1.801 -0.6233 -0.7175 -0.3170
  755TIP3    H2 2230   6.861   0.568   1.771 -0.4010 -0.4639  0.8617
  756TIP3   OH2 2231   5.768   3.105   5.342  0.4852 -0.0792  0.5724
  756TIP3    H1 2232   5.842   3.155   5.377  1.9613 -1.9297  0.2427
  756TIP3    H2 2233   5.765   3.129   5.249 -0.6056  1.4341  0.9473
  757TIP3   OH2 2234   4.222   2.167   5.748 -0.0541  0.1975  0.3368
  757TIP3    H1 2235   4.134   2.205   5.752 -0.6563 -1.0694 -0.4963
  757TIP3    H2 2236   4.244   2.146   5.839 -1.1724 -0.6984  0.4119
  758TIP3   OH2 2237   2.693   5.508   1.759 -0.4077 -0.3115 -0.3916
  758TIP3    H1 2238   2.701   5.484   1.667 -0.4054 -0.2882 -0.3972
  758TIP3    H2 2239   2.694   5.424   1.806  0.7849 -0.2734 -0.3129
  759TIP3   OH2 2240   5.291   0.931   3.596  0.1242  0.0355  0.1543
  759TIP3    H1 2241   5.323   0.984   3.669  0.4846 -1.0901  0.8381
  759TIP3    H2 2242   5.216   0.884   3.632  1.9286 -2.6563  0.7298
  760TIP3   OH2 2243   5.862   0.160   4.160  0.3737  0.2571  0.8480
  760TIP3    H1 2244   5.877   0.250   4.188  2.1788  0.0707  0.5988
  760TIP3    H2 2245   5.942   0.136   4.113 -1.0473 -0.6527 -1.2642
  761TIP3   OH2 2246   2.191   0.056   5.167 -0.0863  0.7831 -0.3057
  761TIP3    H1 2247   2.255   0.080   5.099  0.5820 -0.4243 -0.1287
  761TIP3    H2 2248   2.153  -0.026   5.136 -1.7580  1.5882 -0.5136
  762TIP3   OH2 2249   3.505   5.197   4.127 -0.2598  0.3238 -0.0506
  762TIP3    H1 2250   3.565   5.164   4.060  0.1663 -0.5690  0.7435
  762TIP3    H2 2251   3.492   5.289   4.105  1.4067  0.5446 -0.2416
  763TIP3   OH2 2252   4.938   4.507   3.180  0.2591  0.0261 -0.3157
  763TIP3    H1 2253   4.883   4.566   3.232  0.7928 -1.3972  2.0175
  763TIP3    H2 2254   4.879   4.436   3.155  0.3104  0.0754 -0.5821
  764TIP3   OH2 2255   4.293   2.260   2.145 -0.4541 -0.8808 -0.0973
  764TIP3    H1 2256   4.346   2.340   2.146 -1.1665 -0.2058 -3.0976
  764TIP3    H2 2257   4.219   2.280   2.202 -0.1983  0.2937 -0.1469
  765TIP3   OH2 2258   3.598   4.446   2.485  0.4181 -0.3995 -0.1730
  765TIP3    H1 2259   3.659   4.428   2.413 -1.6621  1.2385 -2.5200
  765TIP3    H2 2260   3.616   4.537   2.508  1.3373 -1.0209  1.7798
  766TIP3   OH2 2261   5.042   6.451   5.048 -0.5167  0.3188 -0.2478
  766TIP3    H1 2262   5.045   6.482   5.139  0.3517 -1.0862  0.2330
  766TIP3    H2 2263   5.134   6.446   5.021 -0.7839  2.0725 -1.7319
  767TIP3   OH2 2264   5.925   1.040   0.396 -0.0839 -0.3448 -0.1636
  767TIP3    H1 2265   5.879   1.101   0.454  1.1248  0.5650 -0.1231
  767TIP3    H2 2266   5.868   0.964   0.391  0.1662 -0.9003  3.0649
  768TIP3   OH2 2267   4.047   6.461   0.442 -0.6033  0.3097 -0.2298
  768TIP3    H1 2268   4.062   6.413   0.361 -1.2760  1.0901 -0.8404
  768TIP3    H2 2269   4.125   6.515   0.454 -0.5950  0.3499 -0.4733
  769TIP3   OH2 2270   3.784   4.110   5.020  0.2158  0.5184 -0.3954
  769TIP3    H1 2271   3.749   4.136   5.105 -0.0947  3.1618 -1.2287
  769TIP3    H2 2272   3.878   4.099   5.035  0.3091  1.8240  0.1683
  770TIP3   OH2 2273   3.256   6.509   3.095 -0.0131 -0.1124 -0.5550
  770TIP3    H1 2274   3.337   6.528   3.048 -0.5970  0.5079 -1.3316
  770TIP3    H2 2275   3.192   6.571   3.060 -0.6862 -0.2046  0.4495
  771TIP3   OH2 2276   6.589   3.409   2.405 -0.1550 -0.2438  0.4201
  771TIP3    H1 2277   6.614   3.402   2.497 -2.1339  1.8908  1.2163
  771TIP3    H2 2278   6.494   3.410   2.406 -0.2543  2.3158 -1.3230
  772TIP3   OH2 2279   3.096   2.400   4.418  0.0291 -0.1637  0.5470
  772TIP3    H1 2280   3.162   2.336   4.445  1.0099 -0.5686 -2.4427
  772TIP3    H2 2281   3.024   2.347   4.384 -0.0490  0.2962 -0.0168
  773TIP3   OH2 2282   5.037   5.647   2.557 -0.3285  0.1864 -0.3795
  773TIP3    H1 2283   5.051   5.673   2.466  3.2093 -0.8002 -0.2547
  773TIP3    H2 2284   5.035   5.551   2.555  1.8203  0.0546  0.7017
  774TIP3   OH2 2285   0.495   1.236   5.685 -0.3004 -0.0245 -0.0538
  774TIP3    H1 2286   0.426   1.296   5.713 -0.2806 -0.2873  0.5745
  774TIP3    H2 2287   0.511   1.258   5.593 -2.0897 -0.7681 -0.5863
  775TIP3   OH2 2288   0.727   2.230   0.192 -0.0976 -0.3229  0.3040
  775TIP3    H1 2289   0.815   2.267   0.196  0.0876 -0.8089  0.8625
  775TIP3    H2 2290   0.731   2.151   0.247 -0.4919 -1.1577 -0.8283
  776TIP3   OH2 2291   3.298  -0.001   3.176  0.0392 -0.7668 -0.2918
  776TIP3    H1 2292   3.277   0.088   3.205 -0.7010 -1.1369  0.3541
  776TIP3    H2 2293   3.283  -0.055   3.253 -0.1309 -1.5306 -0.8486
  777TIP3   OH2 2294   3.877   4.002   0.681  0.2645 -0.0261 -0.1279
  777TIP3    H1 2295   3.921   3.918   0.676  0.7396  0.2800 -1.5959
  777TIP3    H2 2296   3.926   4.059   0.621 -0.1836  1.2328  0.6540
  778TIP3   OH2 2297   5.078   2.752   5.535 -0.0410  0.5330  0.1648
  778TIP3    H1 2298   5.106   2.706   5.456 -0.5944  1.4854 -0.6008
  778TIP3    H2 2299   5.011   2.695   5.573 -1.4411  1.1123 -1.3116
  779TIP3   OH2 2300   5.463   5.308   3.102 -0.5586 -0.4874  0.5463
  779TIP3    H1 2301   5.396   5.376   3.095 -0.6095 -0.5523  0.4070
  779TIP3    H2 2302   5.522   5.324   3.029 -1.8261 -1.9683 -0.8749
  780TIP3   OH2 2303   5.037   6.592   5.593 -0.6829  0.2506 -0.0762
  780TIP3    H1 2304   5.093   6.550   5.659 -2.4745  0.6038  1.7803
  780TIP3    H2 2305   5.073   6.680   5.583  0.1902 -0.1231 -0.3428
  781TIP3   OH2 2306   0.237   4.399   5.235 -0.2100 -0.1813 -0.1539
  781TIP3    H1 2307   0.171   4.358   5.179  0.5815 -0.8042 -0.6462
  781TIP3    H2 2308   0.310   4.419   5.176 -0.7860  2.5534 -0.0828
  782TIP3   OH2 2309   0.123   4.514   5.652 -0.8968 -0.4034  0.0461
  782TIP3    H1 2310   0.214   4.502   5.677 -0.6896 -0.3052 -0.6471
  782TIP3    H2 2311   0.113   4.465   5.570 -2.0367 -2.2727  1.2269
  783TIP3   OH2 2312   3.531   2.925   1.969 -0.3729  0.5450  0.4108
  783TIP3    H1 2313   3.556   2.894   2.056 -2.5218 -1.4549  0.4246
  783TIP3    H2 2314   3.501   2.846   1.923 -1.7189  1.9286 -1.2458
  784TIP3   OH2 2315   4.787   1.230   3.814 -0.3504 -0.2715  0.0157
  784TIP3    H1 2316   4.769   1.251   3.906 -0.9659 -0.5400 -0.0426
  784TIP3    H2 2317   4.852   1.160   3.818  0.8117  0.7796  0.2215
  785TIP3   OH2 2318   2.398   0.256   4.454 -0.3366  0.8018  0.2177
  785TIP3    H1 2319   2.426   0.270   4.364 -0.3324 -0.0033  0.0873
  785TIP3    H2 2320   2.305   0.233   4.447  0.1804 -1.5705  0.1745
  786TIP3   OH2 2321   4.964   4.864   1.342  0.4562 -0.9519  0.2148
  786TIP3    H1 2322   4.926   4.942   1.302  0.4477 -1.1969 -0.2731
  786TIP3    H2 2323   4.993   4.892   1.428  2.2724  0.1096 -0.6838
  787TIP3   OH2 2324   2.072   2.531   3.417  0.5972 -0.7770 -0.6442
  787TIP3    H1 2325   2.150   2.564   3.461  0.1985 -1.9421  1.0590
  787TIP3    H2 2326   2.087   2.437   3.408 -0.3019 -0.9074 -0.9511
  788TIP3   OH2 2327   4.946   5.741   5.103 -0.3344  0.3404 -0.5188
  788TIP3    H1 2328   4.983   5.736   5.015  1.6005 -1.2384  0.2994
  788TIP3    H2 2329   4.953   5.652   5.137 -1.6278  0.7790  1.0260
  789TIP3   OH2 2330   0.553   5.459   0.532  0.1894 -0.2534  0.4216
  789TIP3    H1 2331   0.500   5.392   0.488 -0.5569  1.1232 -0.9206
  789TIP3    H2 2332   0.643   5.438   0.508 -0.1191 -0.2021 -0.8658
  790TIP3   OH2 2333   7.089   4.504   4.036  0.3201 -0.3027  0.0098
  790TIP3    H1 2334   7.028   4.439   4.071  0.0780 -0.5038 -0.7723
  790TIP3    H2 2335   7.046   4.540   3.959  1.3736 -0.7765 -0.8316
  791TIP3   OH2 2336   2.002   1.549   1.913 -0.4086  0.3498 -0.4121
  791TIP3    H1 2337   1.978   1.598   1.992  0.3654 -1.1692  0.8305
  791TIP3    H2 2338   2.082   1.501   1.938 -1.5719 -2.2047 -1.2210
  792TIP3   OH2 2339   6.390   0.031   5.332  0.1457 -0.1745  0.5757
  792TIP3    H1 2340   6.375   0.078   5.250 -1.0116  0.9962  1.4265
  792TIP3    H2 2341   6.398  -0.061   5.306  0.0123  0.2028 -0.8591
  793TIP3   OH2 2342   1.306   4.507   1.444  0.1289 -0.0427 -0.2828
  793TIP3    H1 2343   1.293   4.573   1.512 -0.8906 -0.5678  0.0496
  793TIP3    H2 2344   1.334   4.429   1.492  2.1111  0.3283 -0.7463
  794TIP3   OH2 2345   4.979   0.623   0.794 -0.1256 -0.1519 -0.2057
  794TIP3    H1 2346   4.939   0.674   0.723 -0.9577 -1.7666 -0.9304
  794TIP3    H2 2347   4.920   0.550   0.808  1.6116 -1.5839  0.0105
  795TIP3   OH2 2348   3.466   5.851   1.482 -0.1305 -0.1934 -0.2912
  795TIP3    H1 2349   3.379   5.876   1.452 -0.7351 -0.2338  1.3498
  795TIP3    H2 2350   3.483   5.767   1.438 -1.0640 -0.3651 -0.3469
  796TIP3   OH2 2351   2.417   0.960   1.923 -0.1136  0.5258  0.3224
  796TIP3    H1 2352   2.486   0.934   1.983  1.4444  1.8380 -0.8384
  796TIP3    H2 2353   2.454   0.946   1.836 -1.5732  0.6233 -0.3495
  797TIP3   OH2 2354   5.023   2.960   3.331 -0.1638 -0.5475 -0.1069
  797TIP3    H1 2355   4.971   2.901   3.385  0.5013 -0.9988  0.0401
  797TIP3    H2 2356   5.080   2.903   3.280  0.1213 -0.0617 -0.3413
  798TIP3   OH2 2357   3.902   1.591   1.688 -0.4584 -0.0768  0.2279
  798TIP3    H1 2358   3.833   1.540   1.645 -0.1655 -0.5387  0.2960
  798TIP3    H2 2359   3.978   1.581   1.631 -0.1246 -0.5251  0.7291
  799TIP3   OH2 2360   0.679   3.194   5.674  0.4867 -0.1075 -0.2108
  799TIP3    H1 2361   0.680   3.283   5.711 -2.1825 -0.0775 -0.0022
  799TIP3    H2 2362   0.744   3.146   5.726  1.2389  1.4451  0.3672
  800TIP3   OH2 2363   5.075   6.760   3.235  0.2366 -0.8948  0.2354
  800TIP3    H1 2364   5.139   6.737   3.302  0.6838 -1.3361 -0.3264
  800TIP3    H2 2365   5.122   6.820   3.176  0.4500 -1.9174 -0.6785
  801TIP3   OH2 2366   0.728   6.517   4.278  0.4116 -0.3937  0.1563
  801TIP3    H1 2367   0.823   6.522   4.271  0.2426  1.5505 -3.2995
  801TIP3    H2 2368   0.705   6.574   4.352  1.8870 -0.0636  0.3792
  802TIP3   OH2 2369   5.678   0.876   5.196 -0.1933 -0.4614 -0.3729
  802TIP3    H1 2370   5.732   0.931   5.139 -0.1433 -0.0220  0.0869
  802TIP3    H2 2371   5.701   0.904   5.285  0.5079 -1.8612 -0.0933
  803TIP3   OH2 2372   2.269   3.087   3.370 -0.2001 -0.3110 -0.0300
  803TIP3    H1 2373   2.192   3.071   3.424 -1.2452  0.4176 -1.2576
  803TIP3    H2 2374   2.234   3.120   3.287  1.4202 -0.2094 -0.7073
  804TIP3   OH2 2375   3.909   2.907   4.841 -0.1816  0.0836  0.1836
  804TIP3    H1 2376   3.900   2.858   4.923  0.0571 -1.6742 -0.8032
  804TIP3    H2 2377   3.820   2.910   4.805 -0.2427  0.6374  0.3704
  805TIP3   OH2 2378   2.346   5.765   4.562  0.0751  0.2672 -0.4169
  805TIP3    H1 2379   2.326   5.821   4.488  1.4755 -0.7740 -1.6378
  805TIP3    H2 2380   2.416   5.811   4.609 -1.3415  1.3061  0.7640
  806TIP3   OH2 2381   4.213   1.808   2.816 -0.7813 -0.5296 -0.1643
  806TIP3    H1 2382   4.198   1.829   2.724 -1.4818  0.4982  0.1717
  806TIP3    H2 2383   4.286   1.865   2.842 -3.6102  2.8683  1.1401
  807TIP3   OH2 2384   0.237   3.932   4.894  0.0169 -0.1925 -0.3364
  807TIP3    H1 2385   0.191   3.849   4.901  0.6904 -0.4998  0.6790
  807TIP3    H2 2386   0.233   3.970   4.982  0.9595  0.1685 -0.4342
  808TIP3   OH2 2387   4.349   2.910   2.384  0.2003 -0.0104 -0.0585
  808TIP3    H1 2388   4.286   2.976   2.354  0.3348  0.5260  0.7930
  808TIP3    H2 2389   4.359   2.851   2.310 -0.0170  0.8693 -0.8083
  809TIP3   OH2 2390   1.148   1.185   3.933 -0.1457  0.5448 -0.4410
  809TIP3    H1 2391   1.121   1.157   4.020 -0.3808 -0.2262 -0.7468
  809TIP3    H2 2392   1.242   1.201   3.941  0.3236 -1.7061 -0.5339
  810TIP3   OH2 2393   5.252   5.477   3.114  0.2644  0.4116 -1.0401
  810TIP3    H1 2394   5.206   5.439   3.190 -0.2205 -1.6381 -2.2940
  810TIP3    H2 2395   5.262   5.569   3.137 -1.1953  0.1681  0.8908
  811TIP3   OH2 2396   4.666   4.377   4.149  0.0636  0.1755  0.0300
  811TIP3    H1 2397   4.638   4.290   4.120  0.1629  0.0520  0.3033
  811TIP3    H2 2398   4.615   4.394   4.227  0.2358  0.2490  0.1276
  812TIP3   OH2 2399   0.321   6.173   0.196  0.1579  0.6435  0.1723
  812TIP3    H1 2400   0.327   6.082   0.225  0.9856  0.1588 -1.4366
  812TIP3    H2 2401   0.228   6.187   0.177  0.2665 -0.4622 -1.3345
  813TIP3   OH2 2402   3.624   5.682   4.849  0.0571  0.5364 -0.3139
  813TIP3    H1 2403   3.610   5.599   4.896  1.6762  0.7370  0.5611
  813TIP3    H2 2404   3.715   5.678   4.819 -0.8233  0.4870 -3.3817
  814TIP3   OH2 2405   5.761   0.859   1.329  0.1679  0.2934  0.1599
  814TIP3    H1 2406   5.817   0.794   1.371  1.7161  1.2542 -0.3125
  814TIP3    H2 2407   5.806   0.881   1.247 -1.3573  0.4900 -0.6797
  815TIP3   OH2 2408   2.808   0.017   0.153 -0.1891 -0.1815  0.1559
  815TIP3    H1 2409   2.772  -0.038   0.223 -1.8623 -0.9625 -1.2538
  815TIP3    H2 2410   2.853   0.088   0.199 -3.2077  0.6764  2.0704
  816TIP3   OH2 2411   4.839   0.782   1.233  0.2600  0.2801 -0.6100
  816TIP3    H1 2412   4.795   0.754   1.313 -0.4244 -2.1854 -1.7654
  816TIP3    H2 2413   4.933   0.775   1.253  0.1250  1.3039  0.4634
  817TIP3   OH2 2414   3.782   6.091   4.741 -0.3837 -0.1781  0.2631
  817TIP3    H1 2415   3.766   6.058   4.830  0.6208 -0.7555  0.2483
  817TIP3    H2 2416   3.695   6.102   4.704 -0.8213 -2.4909  0.4132
  818TIP3   OH2 2417   1.231   0.231   2.989  0.3529  0.3053 -0.0582
  818TIP3    H1 2418   1.311   0.190   2.954 -0.2559 -0.2189 -0.8547
  818TIP3    H2 2419   1.160   0.173   2.963 -0.7091  2.4373 -2.2755
  819TIP3   OH2 2420   5.732   4.244   0.509 -0.0357  0.2770 -0.1060
  819TIP3    H1 2421   5.701   4.333   0.497 -0.7705 -0.0932 -1.0741
  819TIP3    H2 2422   5.797   4.231   0.439 -0.7356 -0.2933 -0.6677
  820TIP3   OH2 2423   2.693   6.683   2.628 -0.4181  0.4883 -0.2585
  820TIP3    H1 2424   2.698   6.738   2.550 -0.6046  1.3820  0.3407
  820TIP3    H2 2425   2.694   6.745   2.701 -2.8677 -0.1087  0.4013
  821TIP3   OH2 2426   3.081   5.975   5.634 -0.3890  0.0955  0.7113
  821TIP3    H1 2427   3.127   5.931   5.705 -0.5552 -0.4414  0.4942
  821TIP3    H2 2428   3.020   5.909   5.600 -0.0577  0.2244 -0.1586
  822TIP3   OH2 2429   2.186   3.245   4.023 -0.1213 -0.4297  0.0116
  822TIP3    H1 2430   2.118   3.299   4.062 -1.1699 -1.6569 -0.0314
  822TIP3    H2 2431   2.206   3.179   4.089  1.3756  0.1677  0.2021
  823TIP3   OH2 2432   0.859   4.631   1.294 -0.0915 -0.1330 -0.1711
  823TIP3    H1 2433   0.832   4.650   1.204  1.2612  0.2993 -0.5101
  823TIP3    H2 2434   0.949   4.600   1.286 -0.7266 -2.5108  0.8053
  824TIP3   OH2 2435   0.444   1.646   2.530  0.1110  0.1727 -0.7351
  824TIP3    H1 2436   0.512   1.683   2.473  0.0491  1.8566  0.2451
  824TIP3    H2 2437   0.363   1.659   2.482  0.3444 -0.9569 -1.4746
  825TIP3   OH2 2438   2.953   3.198   0.592 -0.9681  0.1916 -0.3997
  825TIP3    H1 2439   3.009   3.212   0.516 -0.4492  1.3706  0.1784
  825TIP3    H2 2440   2.970   3.273   0.649  0.0385 -1.5132  1.7223
  826TIP3   OH2 2441   1.780   1.366   4.735  1.0086 -0.5404 -0.0199
  826TIP3    H1 2442   1.698   1.390   4.778  0.5630 -0.7137 -0.7562
  826TIP3    H2 2443   1.828   1.449   4.728  1.0817 -0.5080  0.7802
  827TIP3   OH2 2444   4.220   6.024   0.429  0.3250  0.5937  0.5321
  827TIP3    H1 2445   4.217   6.040   0.335  0.2876  1.8039  0.7144
  827TIP3    H2 2446   4.189   5.934   0.440 -0.0059  0.5597 -0.5787
  828TIP3   OH2 2447   7.007   2.774   3.814  0.5608 -0.8201 -0.7704
  828TIP3    H1 2448   7.067   2.839   3.850 -1.0386 -0.0082  0.5776
  828TIP3    H2 2449   6.966   2.734   3.891 -1.7611 -0.2213 -1.6258
  829TIP3   OH2 2450   0.864   1.147   2.251  0.1342  0.3685  0.6978
  829TIP3    H1 2451   0.922   1.077   2.221  0.2150  1.6471 -2.4980
  829TIP3    H2 2452   0.777   1.106   2.256 -0.0181  0.1767 -2.1748
  830TIP3   OH2 2453   1.653   5.593   3.575  0.1256 -0.1946  0.4824
  830TIP3    H1 2454   1.582   5.544   3.534 -0.9495  1.0634  0.7628
  830TIP3    H2 2455   1.673   5.544   3.655 -1.3252  0.0611  1.0540
  831TIP3   OH2 2456   0.988   0.933   4.676  0.6224 -0.0161  0.7041
  831TIP3    H1 2457   0.952   1.021   4.663 -0.0797 -0.3262  0.5196
  831TIP3    H2 2458   1.031   0.938   4.761 -0.8353  0.0667  1.4744
  832TIP3   OH2 2459   4.901   6.648   3.048  0.2152  0.0894 -0.4168
  832TIP3    H1 2460   4.958   6.705   3.099 -0.1531  0.7351 -0.7103
  832TIP3    H2 2461   4.888   6.571   3.104  2.4379 -0.7016 -0.8829
  833TIP3   OH2 2462   4.979   4.937   2.298  0.2856 -0.2646  0.0574
  833TIP3    H1 2463   4.962   4.933   2.204 -1.6228  1.6276  0.2455
  833TIP3    H2 2464   5.074   4.928   2.306  0.8038  1.9662 -2.2639
  834TIP3   OH2 2465   5.503   4.122   4.221  0.4511 -0.2357  0.0297
  834TIP3    H1 2466   5.512   4.080   4.135  0.5837  0.3168 -0.2333
  834TIP3    H2 2467   5.512   4.215   4.203 -1.0633  0.0174  0.4404
  835TIP3   OH2 2468   2.970   3.545   1.668  0.4673 -0.2426 -0.1528
  835TIP3    H1 2469   3.004   3.497   1.744 -0.7853 -0.0905  0.5386
  835TIP3    H2 2470   2.997   3.636   1.683  0.3532 -0.2396  0.0504
  836TIP3   OH2 2471   4.440   5.811   2.949  0.1225 -0.7984 -0.1804
  836TIP3    H1 2472   4.531   5.787   2.930  0.7099  0.7413  0.5002
  836TIP3    H2 2473   4.406   5.843   2.865  0.4354 -0.7331 -0.2843
  837TIP3   OH2 2474   1.756   5.779   2.867  0.0539 -0.5825  0.8493
  837TIP3    H1 2475   1.763   5.846   2.798 -2.1891  0.0286  1.1359
  837TIP3    H2 2476   1.791   5.821   2.945 -0.7207  0.0593  0.8700
  838TIP3   OH2 2477   3.406   3.502   3.500  0.2259  0.1122  0.7114
  838TIP3    H1 2478   3.428   3.523   3.590  0.1130 -0.1513  0.7986
  838TIP3    H2 2479   3.311   3.493   3.499  0.3720 -1.9620  1.0091
  839TIP3   OH2 2480   3.475   0.821   4.587  0.3110  0.4433 -0.5172
  839TIP3    H1 2481   3.446   0.885   4.522 -0.2674 -0.6217 -1.3304
  839TIP3    H2 2482   3.569   0.812   4.573 -0.1982 -1.9484 -3.2664
  840TIP3   OH2 2483   3.001   4.676   3.508  0.3956 -0.1938 -0.0007
  840TIP3    H1 2484   3.022   4.673   3.415  1.6165 -0.1483  0.2537
  840TIP3    H2 2485   3.037   4.759   3.538  0.4683 -0.4399  0.6140
  841TIP3   OH2 2486   6.360   5.295   0.625  0.2525 -0.0284 -0.4665
  841TIP3    H1 2487   6.296   5.351   0.581  1.4033  0.1698 -2.0026
  841TIP3    H2 2488   6.408   5.354   0.684  1.1232  0.5517 -1.7030
  842TIP3   OH2 2489   3.558   6.733   3.678  0.1371 -0.1799  0.0583
  842TIP3    H1 2490   3.611   6.811   3.695  0.8385 -0.9355  1.5176
  842TIP3    H2 2491   3.531   6.742   3.587 -0.1587  1.9711  0.3000
  843TIP3   OH2 2492   3.965   0.555   4.345  0.1660 -0.0044  0.5666
  843TIP3    H1 2493   3.891   0.558   4.285  0.6710  1.7075 -0.0184
  843TIP3    H2 2494   4.025   0.622   4.313  0.6380  0.7190  2.7506
  844TIP3   OH2 2495   5.336   3.293   1.885 -0.5074 -0.0760 -0.0566
  844TIP3    H1 2496   5.331   3.376   1.836  2.8813 -0.0819 -0.6650
  844TIP3    H2 2497   5.325   3.225   1.818  0.2635 -0.0824 -0.1871
  845TIP3   OH2 2498   5.111   5.991   4.653  0.2973  0.3246  0.3614
  845TIP3    H1 2499   5.069   6.075   4.674  0.4678  0.7316 -0.8714
  845TIP3    H2 2500   5.153   5.965   4.735 -0.8067  0.8091  1.1132
  846TIP3   OH2 2501   4.145   4.922   2.553 -0.0681  0.1183  0.0050
  846TIP3    H1 2502   4.190   4.843   2.524 -0.5548  0.4617 -1.7918
  846TIP3    H2 2503   4.080   4.891   2.616  1.3070 -0.6108  1.1028
  847TIP3   OH2 2504   0.812   1.594   5.840  0.4842  0.3145 -0.3402
  847TIP3    H1 2505   0.883   1.531   5.850  1.2581  0.9755 -1.5271
  847TIP3    H2 2506   0.855   1.678   5.824 -0.5343  0.5558 -2.0762
  848TIP3   OH2 2507   6.290   2.140   1.923  0.0363 -0.8406  0.0753
  848TIP3    H1 2508   6.287   2.084   1.845  1.7366 -0.1468 -0.5270
  848TIP3    H2 2509   6.222   2.104   1.980  1.3649 -3.8685 -0.0426
  849TIP3   OH2 2510   1.169   0.619   2.642 -0.3530 -0.5963 -0.2395
  849TIP3    H1 2511   1.081   0.582   2.640 -0.2522 -0.8982  0.5745
  849TIP3    H2 2512   1.225   0.547   2.670  0.1564 -0.3974 -0.7141
  850TIP3   OH2 2513   0.060   4.618   2.840 -0.2204 -0.4059 -0.0969
  850TIP3    H1 2514   0.086   4.561   2.913 -1.2842 -1.6310 -0.6323
  850TIP3    H2 2515   0.139   4.668   2.819  0.6876 -1.5150  0.5555
  851TIP3   OH2 2516   2.563   6.280   0.801  1.0344  0.2243 -0.2894
  851TIP3    H1 2517   2.481   6.261   0.755 -0.1024  0.6749  1.4558
  851TIP3    H2 2518   2.557   6.373   0.824  0.7519 -0.3417  2.1834
  852TIP3   OH2 2519   5.196   3.311   2.577  0.0663  0.1707  0.7374
  852TIP3    H1 2520   5.160   3.372   2.642 -1.4861 -0.6118  0.6570
  852TIP3    H2 2521   5.246   3.248   2.629 -0.8206 -0.2064  1.1575
  853TIP3   OH2 2522   2.409   4.180   3.920 -0.1074 -0.2986  0.0553
  853TIP3    H1 2523   2.352   4.216   3.988 -1.5112 -1.3440 -0.5148
  853TIP3    H2 2524   2.454   4.256   3.882 -1.4152  0.6027  0.2671
  854TIP3   OH2 2525   0.236   1.206   3.310  0.0094  0.4320 -0.3910
  854TIP3    H1 2526   0.193   1.206   3.396  1.0058  1.6994  0.1341
  854TIP3    H2 2527   0.212   1.122   3.271 -0.2016 -0.3014  1.2596
  855TIP3   OH2 2528   1.041   6.001   0.794 -0.0425 -0.1952  0.1770
  855TIP3    H1 2529   1.064   5.999   0.887 -0.6253  2.2404  0.4346
  855TIP3    H2 2530   1.067   5.914   0.761  0.9800 -0.8027  2.3927
  856TIP3   OH2 2531   6.508   0.551   1.967 -0.5394  0.5225  0.2368
  856TIP3    H1 2532   6.543   0.474   2.011  1.0231  1.0777  0.0265
  856TIP3    H2 2533   6.464   0.600   2.037 -1.3809 -0.4387  0.4019
  857TIP3   OH2 2534   1.475   5.807   4.334  0.0360  0.2850 -0.6095
  857TIP3    H1 2535   1.469   5.744   4.405 -1.8401  0.4395 -0.5917
  857TIP3    H2 2536   1.541   5.870   4.363 -0.1521 -0.0756  0.6366
  858TIP3   OH2 2537   1.423   1.540   5.898  0.0076  0.4080 -0.3285
  858TIP3    H1 2538   1.385   1.584   5.822  0.3118  1.6851  0.2321
  858TIP3    H2 2539   1.490   1.483   5.861 -0.0697  0.7636 -1.0424
  859TIP3   OH2 2540   5.917   2.471   3.945 -0.2031 -0.1060  0.2163
  859TIP3    H1 2541   5.836   2.479   3.894 -1.5064  2.2410  2.4461
  859TIP3    H2 2542   5.910   2.538   4.012  2.4446 -1.5663  2.1349
  860TIP3   OH2 2543   1.803   2.316   3.659  0.1666  0.1739 -0.1936
  860TIP3    H1 2544   1.775   2.308   3.750 -0.4928  0.7896 -0.3351
  860TIP3    H2 2545   1.726   2.347   3.613  0.0154 -1.6274 -1.2580
  861TIP3   OH2 2546   2.802   2.693   0.314 -0.3043 -0.0915  0.3977
  861TIP3    H1 2547   2.891   2.692   0.278 -0.4807 -1.6161 -0.0630
  861TIP3    H2 2548   2.813   2.667   0.406 -0.2654 -0.3288  0.3277
  862TIP3   OH2 2549   5.483   3.889   2.528  0.3821  0.2023 -0.5116
  862TIP3    H1 2550   5.519   3.862   2.444  0.5709  0.1793 -0.4229
  862TIP3    H2 2551   5.508   3.981   2.536  0.3878  0.1965 -0.4663
  863TIP3   OH2 2552   0.965   0.344   2.425 -0.2799 -0.1254  0.1539
  863TIP3    H1 2553   0.991   0.312   2.511 -1.9108 -0.9769  0.3784
  863TIP3    H2 2554   0.977   0.270   2.367 -2.0714 -0.5588  0.2687
  864TIP3   OH2 2555   4.139   3.740   5.144  0.8899 -0.2471  0.1106
  864TIP3    H1 2556   4.209   3.782   5.093 -0.0159 -0.5130 -1.4086
  864TIP3    H2 2557   4.133   3.652   5.109 -0.5219 -0.0846 -0.1214
  865TIP3   OH2 2558   1.460   0.758   1.140  0.2435 -0.6653  1.2091
  865TIP3    H1 2559   1.495   0.719   1.060 -0.3136  0.3626  0.4379
  865TIP3    H2 2560   1.483   0.696   1.209 -0.0010 -2.0011  0.1435
  866TIP3   OH2 2561   6.855   5.177   1.667  0.1662  0.6723 -0.2872
  866TIP3    H1 2562   6.864   5.185   1.572 -0.6311 -0.3314 -0.4692
  866TIP3    H2 2563   6.883   5.087   1.686 -0.9446  0.4265  0.2512
  867TIP3   OH2 2564   0.428   1.462   3.632  0.2249 -0.1209 -0.0646
  867TIP3    H1 2565   0.366   1.527   3.665 -0.5959 -0.4853 -0.8249
  867TIP3    H2 2566   0.511   1.509   3.626 -0.6240  1.2793 -1.8377
  868TIP3   OH2 2567   2.367   0.415   0.240 -0.8625 -0.3415  0.3590
  868TIP3    H1 2568   2.337   0.324   0.232  0.8696 -0.9301  0.0328
  868TIP3    H2 2569   2.332   0.458   0.162  0.0486 -1.2995 -0.6306
  869TIP3   OH2 2570   4.947   4.717   2.980 -0.2374  0.4153 -0.5772
  869TIP3    H1 2571   4.883   4.786   2.962  0.2071  0.8168 -0.6459
  869TIP3    H2 2572   4.907   4.665   3.050 -0.2837  1.1530 -0.0371
  870TIP3   OH2 2573   6.710   0.757   2.474  0.1543  0.7776 -0.7367
  870TIP3    H1 2574   6.639   0.801   2.426  1.0179  2.0162 -0.9297
  870TIP3    H2 2575   6.776   0.738   2.408  0.2196  0.0729 -0.4738
  871TIP3   OH2 2576   1.621   3.548   1.883 -0.3009 -0.0684 -0.0054
  871TIP3    H1 2577   1.559   3.485   1.920 -0.7796  0.8861  0.8827
  871TIP3    H2 2578   1.676   3.497   1.824 -2.0662 -0.8986 -0.9726
  872TIP3   OH2 2579   1.332   4.293   4.613  0.0986 -0.0667 -0.2236
  872TIP3    H1 2580   1.399   4.333   4.668  1.0821 -3.7814  1.5931
  872TIP3    H2 2581   1.358   4.317   4.524  0.9955  2.5322  0.6389
  873TIP3   OH2 2582   1.778   3.773   1.910 -0.6611  0.4911 -0.0605
  873TIP3    H1 2583   1.735   3.690   1.929 -0.6295  0.9121  2.0831
  873TIP3    H2 2584   1.871   3.751   1.902 -0.8746  0.0392 -1.6799
  874TIP3   OH2 2585   1.327   0.476   1.020  0.3344  0.9939 -0.1085
  874TIP3    H1 2586   1.256   0.534   0.994  0.5514  1.3659  0.1297
  874TIP3    H2 2587   1.407   0.518   0.987  0.4544  0.6092 -0.3216
  875TIP3   OH2 2588   2.042   3.955   2.623 -0.0322  0.1759  0.3059
  875TIP3    H1 2589   1.971   3.893   2.639  1.1352 -1.0548  0.8931
  875TIP3    H2 2590   2.100   3.910   2.562 -0.1143  1.4684 -0.7577
  876TIP3   OH2 2591   2.918   5.738   5.149  0.3015  0.1262  0.3264
  876TIP3    H1 2592   2.989   5.703   5.096  0.2307 -0.2775  0.4884
  876TIP3    H2 2593   2.943   5.828   5.168  0.8985 -0.0974  0.6129
  877TIP3   OH2 2594   0.457   3.093   0.065  0.5040  0.0612 -0.5352
  877TIP3    H1 2595   0.415   3.071   0.148  0.7823 -0.4765 -0.5315
  877TIP3    H2 2596   0.385   3.100   0.003  0.2243  1.1601 -0.1148
  878TIP3   OH2 2597   7.116   3.832   2.343 -0.8245  0.3009  0.0049
  878TIP3    H1 2598   7.183   3.818   2.276 -0.2675  1.4110  0.3021
  878TIP3    H2 2599   7.044   3.774   2.318 -0.4526  0.3827 -1.3065
  879TIP3   OH2 2600   0.804   2.404   3.303  0.0993 -0.1165 -0.0322
  879TIP3    H1 2601   0.844   2.467   3.363 -1.0564  0.3730  0.2395
  879TIP3    H2 2602   0.819   2.442   3.216  1.2033 -0.5072 -0.0350
  880TIP3   OH2 2603   4.186   3.823   1.630  0.1834 -0.0416  0.4259
  880TIP3    H1 2604   4.161   3.892   1.691  1.2416  0.3156  0.4651
  880TIP3    H2 2605   4.212   3.750   1.686 -1.5419 -0.7265  0.3885
  881TIP3   OH2 2606   3.949   4.184   4.578  0.1078  0.4985  0.2948
  881TIP3    H1 2607   3.891   4.165   4.651 -1.9949  3.5710 -0.4211
  881TIP3    H2 2608   4.000   4.260   4.607  2.6971 -1.1030  0.2497
  882TIP3   OH2 2609   3.248   6.722   4.706  0.1019  0.6643  0.0469
  882TIP3    H1 2610   3.253   6.644   4.761  1.3228  0.5308 -0.2262
  882TIP3    H2 2611   3.277   6.793   4.763  1.9577  0.4393 -0.5256
  883TIP3   OH2 2612   3.695   0.373   1.753 -0.3478 -0.1798  0.2380
  883TIP3    H1 2613   3.626   0.415   1.804 -1.8673 -1.8394 -0.3245
  883TIP3    H2 2614   3.675   0.397   1.662  0.0776 -0.3152  0.1078
  884TIP3   OH2 2615   6.694   3.526   5.410  0.2279  0.0466 -0.1753
  884TIP3    H1 2616   6.632   3.549   5.341  0.7226  0.1820 -0.5792
  884TIP3    H2 2617   6.765   3.590   5.401 -0.2634  0.8385  1.2349
  885TIP3   OH2 2618   7.049   2.841   2.823  0.1722 -0.1988 -0.2069
  885TIP3    H1 2619   7.030   2.778   2.892  1.9190 -1.4740 -0.8230
  885TIP3    H2 2620   6.986   2.821   2.754  0.1074 -0.6411 -0.0212
  886TIP3   OH2 2621   3.229   4.964   3.103  0.3522  0.2843 -0.6751
  886TIP3    H1 2622   3.252   5.023   3.031 -0.9479 -0.5660 -1.8607
  886TIP3    H2 2623   3.138   4.940   3.085  0.0179 -0.0152  1.2446
  887TIP3   OH2 2624   7.210   2.323   3.785  0.3713  0.5503 -0.0477
  887TIP3    H1 2625   7.120   2.293   3.797  0.1132  0.1244 -2.5256
  887TIP3    H2 2626   7.259   2.278   3.853 -0.9391 -0.9983 -0.0554
  888TIP3   OH2 2627   0.570   5.907   0.468 -0.8327  0.0462  0.3529
  888TIP3    H1 2628   0.608   5.960   0.398  1.2907 -1.0848  0.5763
  888TIP3    H2 2629   0.633   5.911   0.540 -2.4768  0.3242  1.8421
  889TIP3   OH2 2630   1.774   4.737   3.291 -0.2343 -0.0365  0.5928
  889TIP3    H1 2631   1.791   4.769   3.202 -1.2612  0.0577  0.4203
  889TIP3    H2 2632   1.726   4.808   3.333 -2.2106 -1.1494  0.3258
  890TIP3   OH2 2633   1.337   4.733   4.255  0.6037 -0.2209  0.3298
  890TIP3    H1 2634   1.339   4.655   4.199  3.7845  0.9758 -1.5156
  890TIP3    H2 2635   1.428   4.763   4.256 -0.1442  2.3626  2.6262
  891TIP3   OH2 2636   3.051   3.931   0.206 -0.5109 -0.3422  0.2482
  891TIP3    H1 2637   3.023   4.007   0.256  0.4995  0.5565 -0.5201
  891TIP3    H2 2638   3.044   3.958   0.115 -1.4617 -1.6514 -0.0872
  892TIP3   OH2 2639   6.298   0.745   4.655  0.3975  0.1715 -0.8499
  892TIP3    H1 2640   6.332   0.834   4.663  1.5188 -0.1550 -1.7263
  892TIP3    H2 2641   6.348   0.694   4.718 -0.9292  0.3133  0.3724
  893TIP3   OH2 2642   4.980   1.009   3.881  0.7383  0.1777  0.8708
  893TIP3    H1 2643   5.005   0.918   3.900 -4.0529 -1.6266  0.0592
  893TIP3    H2 2644   5.024   1.028   3.798 -0.0024 -2.4349 -0.2403
  894TIP3   OH2 2645   3.939   5.302   5.783  0.4589 -0.4836  0.1269
  894TIP3    H1 2646   3.912   5.372   5.723 -0.1303 -1.3462 -0.6409
  894TIP3    H2 2647   3.891   5.225   5.753  1.4497 -1.3359  0.6643
  895TIP3   OH2 2648   3.504   1.540   0.093  0.1513 -0.0661 -0.3090
  895TIP3    H1 2649   3.458   1.587   0.023  0.8973  0.0906 -0.6998
  895TIP3    H2 2650   3.516   1.605   0.162 -0.6651 -0.2436  0.0200
  896TIP3   OH2 2651   0.580   4.712   5.392 -0.1983  0.1678  0.3659
  896TIP3    H1 2652   0.626   4.736   5.472  0.0738 -0.3227  0.3596
  896TIP3    H2 2653   0.510   4.653   5.421 -1.6117  1.8600  0.5282
  897TIP3   OH2 2654   2.637   1.721   4.829 -0.4523 -0.6477 -0.2836
  897TIP3    H1 2655   2.726   1.744   4.857 -0.9466  1.5842 -0.3572
  897TIP3    H2 2656   2.605   1.662   4.898  0.8198 -0.9393  0.0982
  898TIP3   OH2 2657   6.764   2.522   1.279  0.1553  0.2405 -0.2628
  898TIP3    H1 2658   6.677   2.488   1.256  0.8807 -0.5793 -1.9135
  898TIP3    H2 2659   6.759   2.616   1.258 -0.8445  0.5850  1.3113
  899TIP3   OH2 2660   2.518   2.507   1.508 -0.5548  0.4368 -0.5110
  899TIP3    H1 2661   2.482   2.595   1.494 -1.8009  0.2546  1.2749
  899TIP3    H2 2662   2.453   2.463   1.562  0.3555 -1.3979 -0.8533
  900TIP3   OH2 2663   3.944   2.691   3.667  0.3498  0.0544  0.1798
  900TIP3    H1 2664   3.932   2.677   3.573 -1.5815  1.3647  0.1807
  900TIP3    H2 2665   3.901   2.775   3.685  0.4164 -0.3023  2.2875
  901TIP3   OH2 2666   2.345   3.628   3.375 -0.2754  0.0894 -0.1734
  901TIP3    H1 2667   2.437   3.655   3.369 -0.2713  0.0094 -0.4794
  901TIP3    H2 2668   2.327   3.626   3.469  0.1043 -0.1300 -0.1048
  902TIP3   OH2 2669   0.219   3.781   5.310  0.0369  0.0056 -0.6735
  902TIP3    H1 2670   0.184   3.858   5.355 -1.9241 -1.1916 -0.0208
  902TIP3    H2 2671   0.306   3.808   5.281  0.6872  1.4905  2.2136
  903TIP3   OH2 2672   4.163   5.764   2.315 -0.3558 -0.3073 -0.1310
  903TIP3    H1 2673   4.229   5.812   2.266 -1.1033 -0.4306 -1.2897
  903TIP3    H2 2674   4.211   5.691   2.355  0.5238  0.6059  0.5295
  904TIP3   OH2 2675   3.121   0.291   4.990 -0.6180  0.4211 -0.8903
  904TIP3    H1 2676   3.130   0.234   4.913 -1.8908 -1.0194 -0.0314
  904TIP3    H2 2677   3.185   0.256   5.052 -1.8242 -0.5213 -0.1344
  905TIP3   OH2 2678   5.475   3.151   2.364 -0.0695  0.0071  0.3668
  905TIP3    H1 2679   5.394   3.170   2.317  0.3501  0.9667  0.0053
  905TIP3    H2 2680   5.477   3.215   2.435  0.0937 -0.3941  0.7283
  906TIP3   OH2 2681   2.927   0.872   1.559  0.2679 -0.2379  0.4774
  906TIP3    H1 2682   2.836   0.873   1.528 -0.5377  3.2301  2.4695
  906TIP3    H2 2683   2.979   0.878   1.479 -1.3374  0.1593 -0.6017
  907TIP3   OH2 2684   2.052   4.587   1.645  0.0364 -0.7637 -0.1157
  907TIP3    H1 2685   2.059   4.492   1.654  0.7328 -0.7536 -0.5330
  907TIP3    H2 2686   2.109   4.608   1.571  1.0385  0.1478  0.8878
  908TIP3   OH2 2687   6.754   6.688   0.168  0.3859 -0.1889  0.1177
  908TIP3    H1 2688   6.695   6.657   0.099  0.2420  1.9188 -0.7669
  908TIP3    H2 2689   6.802   6.609   0.195 -1.9013 -1.7236 -0.0160
  909TIP3   OH2 2690   3.800   4.341   1.824 -0.4441  0.0189  0.0363
  909TIP3    H1 2691   3.733   4.290   1.778 -0.0715 -0.9703  0.5554
  909TIP3    H2 2692   3.845   4.389   1.755  0.7118 -2.1374 -0.8192
  910TIP3   OH2 2693   3.791   5.323   0.196  0.1351  0.1577  0.5004
  910TIP3    H1 2694   3.752   5.348   0.112  0.8000 -0.0435  0.1236
  910TIP3    H2 2695   3.731   5.359   0.262 -0.4237  0.2701 -0.0551
  911TIP3   OH2 2696   6.786   1.607   3.553 -0.5652 -0.2783  0.3986
  911TIP3    H1 2697   6.765   1.624   3.461  0.1448 -1.0868  0.0717
  911TIP3    H2 2698   6.881   1.604   3.556 -0.5863 -0.4002  1.1398
  912TIP3   OH2 2699   5.569   6.348   2.059 -0.4036 -0.5327  0.1699
  912TIP3    H1 2700   5.567   6.400   1.978  0.7737 -1.0654 -0.2224
  912TIP3    H2 2701   5.575   6.257   2.029  0.8365 -0.6919  0.8524
  913TIP3   OH2 2702   0.722   0.498   2.120 -0.8314  0.3743 -0.9915
  913TIP3    H1 2703   0.777   0.566   2.083  2.1194  0.4658  2.9397
  913TIP3    H2 2704   0.646   0.545   2.155  0.9071  1.7103  1.1897
  914TIP3   OH2 2705   6.234   3.076   1.542 -0.6577 -0.4078  0.2531
  914TIP3    H1 2706   6.301   3.143   1.533  0.0871 -1.0651  0.8635
  914TIP3    H2 2707   6.231   3.056   1.635 -2.5950  0.4971  0.4531
  915TIP3   OH2 2708   3.297  -0.014   3.679  0.6905  0.2258 -0.1063
  915TIP3    H1 2709   3.353   0.056   3.647  1.7723  0.1277  1.4533
  915TIP3    H2 2710   3.229  -0.023   3.612  1.1057  2.0471 -0.8325
  916TIP3   OH2 2711   2.151   5.899   2.376 -0.5769 -0.0727  0.4398
  916TIP3    H1 2712   2.126   5.816   2.335  1.7827  0.0560 -1.4958
  916TIP3    H2 2713   2.223   5.876   2.434  0.2585  0.6149 -0.2978
  917TIP3   OH2 2714   5.516   6.232   0.130 -0.0255 -0.2367  0.3643
  917TIP3    H1 2715   5.497   6.252   0.221 -2.0540 -0.5110  0.0416
  917TIP3    H2 2716   5.474   6.148   0.114 -0.9158  0.4545 -1.1753
  918TIP3   OH2 2717   4.528   5.254   0.812  0.0218 -0.2363  0.2692
  918TIP3    H1 2718   4.538   5.346   0.838  1.6338  0.0310 -1.1212
  918TIP3    H2 2719   4.557   5.252   0.721 -3.5464 -1.4717 -1.0185
  919TIP3   OH2 2720   1.827   5.815   3.156 -0.2258 -0.0107  0.2264
  919TIP3    H1 2721   1.864   5.863   3.230  0.6356  0.8288 -0.7432
  919TIP3    H2 2722   1.868   5.729   3.160 -0.5465 -0.1409  0.9906
  920TIP3   OH2 2723   1.563   0.548   5.806 -0.3590 -0.2653  0.4330
  920TIP3    H1 2724   1.542   0.636   5.775 -3.0623 -0.4675  1.4019
  920TIP3    H2 2725   1.621   0.562   5.880  0.0338  0.6202 -0.0219
  921TIP3   OH2 2726   2.173   5.356   0.878  0.2946  0.1551 -0.0679
  921TIP3    H1 2727   2.085   5.319   0.889  0.5394 -0.5055 -0.2573
  921TIP3    H2 2728   2.165   5.447   0.906 -0.3825  0.0192  0.1973
  922TIP3   OH2 2729   3.798   4.913   3.666 -0.0098 -0.1148 -0.4928
  922TIP3    H1 2730   3.720   4.858   3.673 -1.1789  1.6120  0.6087
  922TIP3    H2 2731   3.765   5.002   3.660  1.8743  0.6381 -0.4851
  923TIP3   OH2 2732   3.164   4.572   3.013 -0.2495  0.0591 -0.1259
  923TIP3    H1 2733   3.095   4.515   2.982 -1.2930  0.6704  0.9644
  923TIP3    H2 2734   3.144   4.658   2.975 -0.2682  0.3032  0.4214
  924TIP3   OH2 2735   5.895   4.854   3.926  0.2452  0.3085 -0.2955
  924TIP3    H1 2736   5.948   4.776   3.946  0.0893  0.7296  2.0083
  924TIP3    H2 2737   5.810   4.819   3.899  0.8608 -0.3198 -1.5368
  925TIP3   OH2 2738   3.656   2.823   2.198  0.6044 -0.0218 -0.1221
  925TIP3    H1 2739   3.658   2.781   2.284 -0.3050  0.2741  0.0483
  925TIP3    H2 2740   3.749   2.830   2.174  0.9079  0.3600  1.0585
  926TIP3   OH2 2741   3.116   3.217   3.042 -0.0299 -0.2123  0.0274
  926TIP3    H1 2742   3.161   3.206   2.958  0.7069  1.1825  0.1965
  926TIP3    H2 2743   3.185   3.246   3.102 -0.0862 -3.1814  1.7029
  927TIP3   OH2 2744   4.498   3.783   2.071 -0.1127  0.4091  0.2745
  927TIP3    H1 2745   4.514   3.733   2.151  0.2563  1.5304  0.9336
  927TIP3    H2 2746   4.574   3.841   2.064 -0.6032  0.9946 -0.3616
  928TIP3   OH2 2747   3.269   5.966   2.999  0.4848 -0.0321 -0.3919
  928TIP3    H1 2748   3.283   5.967   3.094 -0.6373  0.1533 -0.2128
  928TIP3    H2 2749   3.230   5.880   2.982  0.9839 -0.1950 -0.7447
  929TIP3   OH2 2750   5.983   6.709   1.189  0.0507  0.3811 -0.0456
  929TIP3    H1 2751   5.957   6.776   1.126  0.9105  1.1422  0.3894
  929TIP3    H2 2752   5.928   6.727   1.266  1.1136  1.3705  0.5126
  930TIP3   OH2 2753   1.564   4.391   0.329  0.1264 -0.4399  0.4901
  930TIP3    H1 2754   1.506   4.315   0.341  0.6412 -0.9558 -0.1727
  930TIP3    H2 2755   1.647   4.353   0.300  0.8098  0.2871  1.4311
  931TIP3   OH2 2756   3.767   3.169   3.322  0.0347 -0.0973 -0.6355
  931TIP3    H1 2757   3.715   3.093   3.349  0.9648 -0.2074  0.9772
  931TIP3    H2 2758   3.707   3.243   3.332 -0.8536 -0.5747 -2.1308
  932TIP3   OH2 2759   3.995   5.779   0.570 -0.4662 -0.3431 -0.0516
  932TIP3    H1 2760   4.065   5.726   0.532 -1.4595 -0.6518 -1.4956
  932TIP3    H2 2761   3.916   5.726   0.561 -0.9468  0.0641  1.4335
  933TIP3   OH2 2762   1.801   2.503   0.938 -0.3077 -0.5240  0.3929
  933TIP3    H1 2763   1.723   2.469   0.981 -1.0462 -2.0119 -1.9170
  933TIP3    H2 2764   1.870   2.439   0.956  0.0618  0.0883  1.2775
  934TIP3   OH2 2765   6.786   3.637   2.724  0.1964 -0.2435 -0.7646
  934TIP3    H1 2766   6.696   3.606   2.727  0.3405 -0.7093 -1.3045
  934TIP3    H2 2767   6.792   3.689   2.644  0.4266 -0.2762 -0.7709
  935TIP3   OH2 2768   2.164   0.071   0.605 -0.4859  0.3984  0.1244
  935TIP3    H1 2769   2.158   0.053   0.511  1.3435 -2.0376  0.3685
  935TIP3    H2 2770   2.244   0.123   0.614 -0.3009  0.0776  0.3686
  936TIP3   OH2 2771   6.477   4.163   2.553 -0.5448 -0.1739  0.2475
  936TIP3    H1 2772   6.459   4.191   2.463 -0.9288 -0.3564  0.2634
  936TIP3    H2 2773   6.392   4.170   2.597 -0.5333 -0.8434  0.3853
  937TIP3   OH2 2774   1.671   0.666   3.975 -0.3052 -0.3488  0.0989
  937TIP3    H1 2775   1.697   0.742   3.922 -3.1963  0.6867 -0.0336
  937TIP3    H2 2776   1.691   0.692   4.065  2.3965 -1.1467 -0.1730
  938TIP3   OH2 2777   1.438   1.691   1.676 -0.7298  0.6646 -0.1522
  938TIP3    H1 2778   1.457   1.735   1.593 -0.0554 -0.2319 -0.4842
  938TIP3    H2 2779   1.437   1.762   1.740  2.9182  0.9613 -0.2373
  939TIP3   OH2 2780   3.613   0.997   5.761 -0.1073  0.2061 -0.2383
  939TIP3    H1 2781   3.706   1.014   5.746  0.2714 -0.0422  1.5944
  939TIP3    H2 2782   3.600   1.015   5.854 -2.3147  1.9727 -0.8151
  940TIP3   OH2 2783   2.079   5.819   4.223  0.3189  0.7081 -0.1875
  940TIP3    H1 2784   2.099   5.910   4.201  0.5028  0.4173 -1.2596
  940TIP3    H2 2785   2.082   5.816   4.319  3.1696  1.1796 -0.1989
  941TIP3   OH2 2786   1.769   1.435   1.803 -0.2333 -0.2136 -0.4114
  941TIP3    H1 2787   1.710   1.505   1.832 -1.3738 -2.0808  2.1656
  941TIP3    H2 2788   1.854   1.457   1.843 -0.5277 -0.1641  0.1961
  942TIP3   OH2 2789   0.246   5.411   4.758  0.0585  0.3059  0.5917
  942TIP3    H1 2790   0.174   5.421   4.696  1.2175  1.7252 -0.6062
  942TIP3    H2 2791   0.226   5.330   4.805 -1.1841 -0.4935 -1.2039
  943TIP3   OH2 2792   4.279   4.461   4.882  0.3468 -0.4859  0.2238
  943TIP3    H1 2793   4.364   4.431   4.915 -0.4368 -3.8280 -0.4178
  943TIP3    H2 2794   4.216   4.434   4.950 -0.3909  0.4868 -0.0475
  944TIP3   OH2 2795   6.097   6.787   1.569  0.1373 -0.4149  0.3003
  944TIP3    H1 2796   6.177   6.838   1.554 -0.2790 -0.1247 -0.9474
  944TIP3    H2 2797   6.128   6.696   1.575  0.6405 -0.2296  0.6030
  945TIP3   OH2 2798   4.111   2.121   1.359  0.0670  0.0312 -0.4103
  945TIP3    H1 2799   4.078   2.134   1.270 -1.0566  1.1735  0.1533
  945TIP3    H2 2800   4.075   2.194   1.410  1.1352 -0.2890  0.8727
  946TIP3   OH2 2801   1.440   1.554   2.694  0.0456  0.9208 -0.3465
  946TIP3    H1 2802   1.390   1.499   2.754  1.3629  0.8073  0.7047
  946TIP3    H2 2803   1.376   1.584   2.629 -0.6460 -2.2792 -1.3160
  947TIP3   OH2 2804   5.678   3.747   4.071 -0.1405 -0.5311  0.1704
  947TIP3    H1 2805   5.675   3.710   3.982 -1.6593 -0.8725  0.3379
  947TIP3    H2 2806   5.742   3.818   4.065 -0.9576  0.1350 -1.4951
  948TIP3   OH2 2807   0.064   3.653   2.513 -0.4223  0.4189  0.1571
  948TIP3    H1 2808  -0.005   3.682   2.454 -1.1864 -0.1686  0.7510
  948TIP3    H2 2809   0.019   3.607   2.583  0.6079 -0.4446  0.2879
  949TIP3   OH2 2810   0.554   4.786   2.937 -0.1802  0.1983  0.8085
  949TIP3    H1 2811   0.594   4.803   2.851 -0.4094 -1.6233  0.3132
  949TIP3    H2 2812   0.460   4.790   2.920 -0.2724  2.0723  1.4839
  950TIP3   OH2 2813   4.240   6.017   0.148 -0.3800  0.2671 -0.3161
  950TIP3    H1 2814   4.319   5.990   0.101 -0.3476  2.0667 -1.4015
  950TIP3    H2 2815   4.177   6.038   0.078 -0.9262  1.3538  0.4745
  951TIP3   OH2 2816   7.011   5.979   4.020 -0.0074 -0.3594 -0.1859
  951TIP3    H1 2817   6.938   6.041   4.030  0.4883  0.1230  0.4689
  951TIP3    H2 2818   6.969   5.893   4.022 -0.3688 -0.2264  2.7139
  952TIP3   OH2 2819   3.954   5.073   1.284  0.4082 -0.1374  0.5568
  952TIP3    H1 2820   3.877   5.066   1.341 -0.0238  0.8982  0.1280
  952TIP3    H2 2821   4.028   5.054   1.341 -0.1628 -1.3669  0.9360
  953TIP3   OH2 2822   4.415   2.614   1.973 -0.0690 -0.4336  0.0272
  953TIP3    H1 2823   4.420   2.684   1.907  0.1964  0.6963  1.1901
  953TIP3    H2 2824   4.458   2.539   1.932  0.9468  0.5247 -0.7430
  954TIP3   OH2 2825   1.429   5.311   2.246  0.1148 -0.2362  0.3237
  954TIP3    H1 2826   1.406   5.327   2.155  0.2184 -0.6033  0.2318
  954TIP3    H2 2827   1.524   5.299   2.245  0.0048 -1.1344  0.3459
  955TIP3   OH2 2828   4.585   1.832   3.406 -0.0363 -0.4392 -0.4666
  955TIP3    H1 2829   4.630   1.869   3.483 -0.1346 -0.2014 -0.5198
  955TIP3    H2 2830   4.605   1.739   3.409  0.2473 -0.3762 -0.3459
  956TIP3   OH2 2831   6.050   6.366   4.727 -0.3379 -0.2439  0.2911
  956TIP3    H1 2832   6.107   6.320   4.665 -0.8122  0.1322 -0.4471
  956TIP3    H2 2833   6.050   6.311   4.805  1.0651 -0.2332  0.3393
  957TIP3   OH2 2834   4.685   4.632   3.570 -0.2352  0.4320  0.2367
  957TIP3    H1 2835   4.726   4.555   3.608  0.0382 -0.7238 -2.2259
  957TIP3    H2 2836   4.593   4.610   3.562 -0.0126 -0.0526 -1.3046
  958TIP3   OH2 2837   5.754   2.132   4.322  0.4351  0.1236  0.1998
  958TIP3    H1 2838   5.694   2.196   4.360  1.5834  2.2390 -1.3287
  958TIP3    H2 2839   5.807   2.102   4.396 -1.3173 -0.5514  1.2731
  959TIP3   OH2 2840   6.068   3.324   2.093  0.0001  0.2339  0.3725
  959TIP3    H1 2841   6.014   3.314   2.171 -3.0896  1.5172 -1.4037
  959TIP3    H2 2842   6.024   3.272   2.026  2.1847 -0.3167 -0.7341
  960TIP3   OH2 2843   2.750   4.228   2.051  0.1937  0.2980  0.2523
  960TIP3    H1 2844   2.714   4.173   2.121 -0.2557  1.7836  1.2376
  960TIP3    H2 2845   2.675   4.244   1.993  0.4339 -0.4778 -0.2866
  961TIP3   OH2 2846   1.083   6.418   3.313 -0.0033 -0.2261  0.1935
  961TIP3    H1 2847   1.089   6.426   3.218 -0.5926 -2.8873 -0.1560
  961TIP3    H2 2848   1.168   6.450   3.344 -0.0820  1.4172 -1.1136
  962TIP3   OH2 2849   1.373   3.395   1.972  0.7830 -0.1253  0.0562
  962TIP3    H1 2850   1.296   3.453   1.965  1.2855  0.4721 -0.6402
  962TIP3    H2 2851   1.339   3.315   2.012 -0.7159 -0.8172 -2.4088
  963TIP3   OH2 2852   5.387   4.151   1.802  0.6280 -0.1185 -0.0854
  963TIP3    H1 2853   5.335   4.099   1.740  0.1750 -0.8121  0.8477
  963TIP3    H2 2854   5.338   4.233   1.811 -0.3057 -0.7313  0.7201
  964TIP3   OH2 2855   7.044   2.258   0.712  0.3470  0.1073 -0.2837
  964TIP3    H1 2856   7.008   2.182   0.665  1.6361  0.0823 -1.2882
  964TIP3    H2 2857   7.056   2.324   0.644 -1.7680  1.6679  0.7439
  965TIP3   OH2 2858   1.272   2.806   3.777  0.5010  0.1557  0.2876
  965TIP3    H1 2859   1.231   2.733   3.824  1.4780  0.1486  1.1705
  965TIP3    H2 2860   1.285   2.773   3.688 -0.4268 -0.2084  0.2729
  966TIP3   OH2 2861   2.085   0.486   3.965  0.0776 -0.0997  0.3505
  966TIP3    H1 2862   2.040   0.483   4.049 -0.6624 -1.0060 -0.0582
  966TIP3    H2 2863   2.040   0.421   3.911  1.8366 -1.0141 -0.0998
  967TIP3   OH2 2864   1.909   0.148   5.637 -0.5935 -0.0522  0.4664
  967TIP3    H1 2865   1.923   0.109   5.550  1.1002  1.3301  0.0640
  967TIP3    H2 2866   1.852   0.224   5.620  2.4538  2.2990 -0.1137
  968TIP3   OH2 2867   1.006   2.755   2.606 -0.0369  0.2379 -0.0208
  968TIP3    H1 2868   1.085   2.740   2.555  0.2965 -0.1673  0.6059
  968TIP3    H2 2869   1.018   2.841   2.646 -0.6093  0.8759 -1.1719
  969TIP3   OH2 2870   5.180   0.018   1.171  0.6274  0.1337  0.1408
  969TIP3    H1 2871   5.137   0.056   1.094 -0.8421 -0.8908  0.4061
  969TIP3    H2 2872   5.108  -0.019   1.223  1.8542 -1.9545  0.4640
  970TIP3   OH2 2873   4.184   6.187   5.389 -0.2319 -0.7544  0.0275
  970TIP3    H1 2874   4.263   6.197   5.441  0.3870 -1.3900 -0.7598
  970TIP3    H2 2875   4.113   6.178   5.453  0.1300  1.0506  0.7546
  971TIP3   OH2 2876   2.769   2.174   1.145 -0.3343 -0.0650  0.0760
  971TIP3    H1 2877   2.709   2.166   1.219 -0.4497  1.1588  0.1296
  971TIP3    H2 2878   2.731   2.242   1.090  1.6618  1.7589  0.8059
  972TIP3   OH2 2879   5.699   6.096   5.508  0.5418  0.5568  0.3193
  972TIP3    H1 2880   5.783   6.079   5.550  0.0018  0.4184  1.3932
  972TIP3    H2 2881   5.721   6.130   5.421  1.7030  1.2216  0.8602
  973TIP3   OH2 2882   2.428   0.738   3.687 -0.1990  0.4753 -0.0784
  973TIP3    H1 2883   2.471   0.658   3.658 -0.3397  1.0291 -1.9796
  973TIP3    H2 2884   2.345   0.709   3.725  0.2636 -0.3418  0.3323
  974TIP3   OH2 2885   2.530   3.466   1.096  0.9364  0.3201 -0.5066
  974TIP3    H1 2886   2.581   3.532   1.142 -1.5464  1.3539  0.9985
  974TIP3    H2 2887   2.464   3.437   1.160  0.4484 -1.9107 -1.8801
  975TIP3   OH2 2888   6.569   0.948   3.922 -0.4347  0.3948 -0.4216
  975TIP3    H1 2889   6.628   0.874   3.914  0.7556  1.3406 -0.7321
  975TIP3    H2 2890   6.570   0.970   4.015 -2.5945 -1.3447  0.1083
  976TIP3   OH2 2891   0.818   0.507   5.458  0.1061 -0.6402  0.3878
  976TIP3    H1 2892   0.817   0.601   5.473 -0.1177 -0.4848 -0.5597
  976TIP3    H2 2893   0.905   0.488   5.424  0.1949 -0.7990  0.6971
  977TIP3   OH2 2894   0.129   0.720   3.751 -0.1551 -0.2678  0.2557
  977TIP3    H1 2895   0.092   0.790   3.697 -1.6582 -1.0205  0.2590
  977TIP3    H2 2896   0.160   0.765   3.830  2.3530  0.9014 -1.2638
  978TIP3   OH2 2897   0.326   0.777   3.372  0.2260 -0.1518 -0.1874
  978TIP3    H1 2898   0.242   0.777   3.418  0.5955 -0.0255  0.4905
  978TIP3    H2 2899   0.302   0.767   3.279 -0.5346 -0.1126 -0.0017
  979TIP3   OH2 2900   2.574   6.007   4.671  0.3873  0.3962  0.5322
  979TIP3    H1 2901   2.654   5.988   4.720  0.2420  0.4633  0.7956
  979TIP3    H2 2902   2.598   6.079   4.613 -0.2047  2.3107  2.5434
  980TIP3   OH2 2903   4.266   0.284   5.563  0.5598 -0.4233  0.6147
  980TIP3    H1 2904   4.218   0.298   5.645  0.3494 -1.2299  0.6314
  980TIP3    H2 2905   4.223   0.342   5.501  0.0681 -0.5547  0.8269
  981TIP3   OH2 2906   0.698   2.464   4.002  0.3817  0.2577 -0.6065
  981TIP3    H1 2907   0.729   2.510   4.080 -0.5051 -0.2155  0.0469
  981TIP3    H2 2908   0.613   2.503   3.983 -0.6834 -1.4708  0.3342
  982TIP3   OH2 2909   4.474   2.142   0.712  0.1697  0.2576 -0.5461
  982TIP3    H1 2910   4.454   2.170   0.622  1.5131  0.0887 -0.9221
  982TIP3    H2 2911   4.557   2.094   0.704  0.3765  0.3597  0.8028
  983TIP3   OH2 2912   4.584   2.694   0.252  0.3792  0.1209  0.4116
  983TIP3    H1 2913   4.550   2.621   0.304 -1.2882 -0.3606 -1.2362
  983TIP3    H2 2914   4.506   2.733   0.213  1.3524  2.1063  0.3591
  984TIP3   OH2 2915   3.690   1.104   4.968  0.4222  0.1890 -0.2241
  984TIP3    H1 2916   3.727   1.068   5.049  0.8126  2.1737  0.5350
  984TIP3    H2 2917   3.680   1.197   4.986 -2.4386  0.2082 -1.3699
  985TIP3   OH2 2918   4.233   5.995   3.287 -0.1108  0.4532  0.2991
  985TIP3    H1 2919   4.155   6.047   3.269 -0.7150 -0.1757  0.9931
  985TIP3    H2 2920   4.199   5.915   3.328  0.8732  0.0165  0.2920
  986TIP3   OH2 2921   4.263   2.368   2.467 -0.3008 -0.1889 -0.3172
  986TIP3    H1 2922   4.304   2.447   2.502 -2.7929  1.7569 -1.3875
  986TIP3    H2 2923   4.331   2.301   2.470  1.1485  1.2385  3.1681
  987TIP3   OH2 2924   6.156   2.792   4.953 -0.7658 -0.1713  0.1093
  987TIP3    H1 2925   6.170   2.884   4.932 -0.4816 -0.1516  0.3743
  987TIP3    H2 2926   6.243   2.753   4.948 -1.0635 -0.7156 -1.3284
  988TIP3   OH2 2927   4.649   1.822   0.826 -0.3446  0.3525  0.3031
  988TIP3    H1 2928   4.554   1.832   0.819 -0.2276  0.6324 -0.9747
  988TIP3    H2 2929   4.672   1.873   0.904 -1.2479  0.2182  0.6684
  989TIP3   OH2 2930   5.211   6.147   0.286  0.0766  0.4586  0.2347
  989TIP3    H1 2931   5.251   6.136   0.372  0.4765 -1.3299 -0.1482
  989TIP3    H2 2932   5.243   6.074   0.234 -1.9116  0.2165 -0.7799
  990TIP3   OH2 2933   1.933   4.194   4.794 -0.3508 -0.1906 -0.2322
  990TIP3    H1 2934   2.012   4.218   4.745  0.5309  0.6635  1.5238
  990TIP3    H2 2935   1.891   4.127   4.740  2.1179 -1.4746 -0.7262
  991TIP3   OH2 2936   5.303   4.294   2.479 -0.0187 -0.0151  0.0557
  991TIP3    H1 2937   5.324   4.387   2.489  0.8625 -0.2119  0.1750
  991TIP3    H2 2938   5.214   4.285   2.514 -0.4145  0.9097 -0.6721
  992TIP3   OH2 2939   4.319   5.337   2.826 -0.1883 -0.2302 -0.0294
  992TIP3    H1 2940   4.389   5.401   2.813  2.2901 -2.2692  2.1030
  992TIP3    H2 2941   4.356   5.254   2.796 -2.2935 -1.1635 -0.2422
  993TIP3   OH2 2942   5.076   2.051   4.199  0.4802  0.3568 -0.5870
  993TIP3    H1 2943   5.008   1.991   4.169  0.5913  0.2402 -0.6049
  993TIP3    H2 2944   5.089   2.110   4.124  2.0624 -1.0636 -1.4845
  994TIP3   OH2 2945   4.602   2.284   3.836  0.2065  0.2828  0.2702
  994TIP3    H1 2946   4.660   2.243   3.900 -1.9409  0.4683  2.4674
  994TIP3    H2 2947   4.537   2.216   3.815  0.7330  0.2888 -1.6314
  995TIP3   OH2 2948   3.397   2.080   5.475 -0.3965 -0.6189  0.0364
  995TIP3    H1 2949   3.431   1.991   5.477 -1.4292 -1.0141  1.5127
  995TIP3    H2 2950   3.392   2.102   5.381  1.7065 -1.3409 -0.3112
  996TIP3   OH2 2951   5.654   4.649   1.847 -0.3359  0.0819 -0.0357
  996TIP3    H1 2952   5.677   4.630   1.756 -1.8264  0.3023 -0.4742
  996TIP3    H2 2953   5.597   4.725   1.842 -2.8524 -1.6117  0.7557
  997TIP3   OH2 2954   1.961   6.385   4.947  0.5017  0.4293  0.6892
  997TIP3    H1 2955   2.056   6.391   4.936  0.7036  3.3291  2.8041
  997TIP3    H2 2956   1.948   6.386   5.042 -1.6511 -0.9694  0.4747
  998TIP3   OH2 2957   0.714   0.455   4.871  0.1883 -0.0384 -0.5526
  998TIP3    H1 2958   0.799   0.462   4.828  1.6037 -0.7634  1.9187
  998TIP3    H2 2959   0.668   0.535   4.846  2.1288  1.0261 -0.9296
  999TIP3   OH2 2960   1.148   0.540   2.326 -0.1728  0.1324  0.1028
  999TIP3    H1 2961   1.127   0.614   2.382  1.4914  0.3484  0.5153
  999TIP3    H2 2962   1.088   0.471   2.353 -0.5306  0.7677  0.9697
 1000TIP3   OH2 2963   3.436   1.224   1.430  0.0729  0.1638  0.1552
 1000TIP3    H1 2964   3.404   1.301   1.383 -1.9428 -1.9775 -2.3174
 1000TIP3    H2 2965   3.463   1.163   1.361  1.5867 -1.3949  1.9989
 1001TIP3   OH2 2966   0.312   4.530   0.846  0.3667  0.0525  0.1696
 1001TIP3    H1 2967   0.231   4.482   0.860  0.1756 -0.3302 -1.8288
 1001TIP3    H2 2968   0.299   4.614   0.890 -1.0145 -0.1004  0.0888
 1002TIP3   OH2 2969   0.694   3.989   0.953  0.7763  0.2166 -0.4220
 1002TIP3    H1 2970   0.667   3.901   0.927  3.1242 -0.6039 -0.3078
 1002TIP3    H2 2971   0.638   4.048   0.903 -0.5563 -1.3354 -0.8156
 1003TIP3   OH2 2972   5.543   1.200   1.779 -0.1612  0.6343 -0.1848
 1003TIP3    H1 2973   5.607   1.256   1.736  0.6389  0.4409  0.7117
 1003TIP3    H2 2974   5.463   1.254   1.784  0.6135  1.7574  0.7417
 1004TIP3   OH2 2975   5.575   2.549   5.240 -0.3312 -0.3084 -0.0063
 1004TIP3    H1 2976   5.594   2.524   5.150  1.3691  1.0013 -0.0549
 1004TIP3    H2 2977   5.525   2.630   5.233 -1.5060 -0.9912  0.2315
 1005TIP3   OH2 2978   3.382   3.695   0.162  0.3251 -0.3019  0.6876
 1005TIP3    H1 2979   3.373   3.772   0.218  3.3631  1.3438 -0.8177
 1005TIP3    H2 2980   3.475   3.692   0.140  0.0034 -3.3589 -0.8484
 1006TIP3   OH2 2981   0.745   6.046   0.291 -0.3190 -0.1622 -0.3500
 1006TIP3    H1 2982   0.765   6.082   0.205 -0.5597  0.4164 -0.1686
 1006TIP3    H2 2983   0.762   6.118   0.352 -2.1868  0.1277 -0.1122
 1007TIP3   OH2 2984   3.832   5.891   2.151 -0.2506 -0.0797 -0.7994
 1007TIP3    H1 2985   3.847   5.955   2.220  0.6038  0.3886 -1.3990
 1007TIP3    H2 2986   3.848   5.806   2.192  0.3787  0.1991 -0.4562
 1008TIP3   OH2 2987   1.324   5.731   4.694  0.1879  0.1121  1.0542
 1008TIP3    H1 2988   1.357   5.820   4.695  0.3448  0.0767  0.0675
 1008TIP3    H2 2989   1.238   5.736   4.737 -0.5388  1.0624 -0.4101
 1009TIP3   OH2 2990   1.242   4.531   1.937 -0.3319 -0.0365  0.1742
 1009TIP3    H1 2991   1.258   4.624   1.950 -0.6153  0.0422 -0.0454
 1009TIP3    H2 2992   1.264   4.491   2.022  2.4409 -0.1289 -0.4744
 1010TIP3   OH2 2993   3.953   0.155   3.033  0.0129 -0.3480 -0.6084
 1010TIP3    H1 2994   3.995   0.222   3.088 -2.2755  0.7644 -0.0749
 1010TIP3    H2 2995   3.998   0.160   2.949 -1.5420  3.6402 -1.4114
 1011TIP3   OH2 2996   0.821   6.311   3.822 -0.7974  0.1350 -0.2672
 1011TIP3    H1 2997   0.843   6.238   3.764  0.2573  1.1683 -1.2177
 1011TIP3    H2 2998   0.881   6.381   3.796 -1.8331  1.3715  0.5682
 1012TIP3   OH2 2999   4.835   3.000   4.481 -0.2222 -0.0576  0.0333
 1012TIP3    H1 3000   4.879   2.963   4.404  0.5306 -0.7327  0.7637
 1012TIP3    H2 3001   4.893   2.979   4.554 -0.6107  1.1201  0.7156
 1013TIP3   OH2 3002   2.750   4.966   1.160  0.1423  0.1591 -0.0821
 1013TIP3    H1 3003   2.825   5.001   1.208 -0.5492  1.7088 -0.0475
 1013TIP3    H2 3004   2.768   4.873   1.151  1.5847  0.3210  0.7982
 1014TIP3   OH2 3005   6.995   5.844   5.402  0.0760  0.2632 -0.0250
 1014TIP3    H1 3006   6.919   5.888   5.437 -1.8017 -2.6584 -0.0457
 1014TIP3    H2 3007   7.059   5.846   5.473 -1.2246  0.0528  1.1980
 1015TIP3   OH2 3008   0.686   1.479   3.266 -0.3816 -0.4659  0.1771
 1015TIP3    H1 3009   0.707   1.452   3.177  0.1207  0.4524  0.0010
 1015TIP3    H2 3010   0.601   1.439   3.284 -0.3892 -0.8324 -0.6364
 1016TIP3   OH2 3011   5.655   2.104   5.907  0.1884  0.6305 -0.5467
 1016TIP3    H1 3012   5.629   2.106   5.815  2.2300 -0.8939 -1.2397
 1016TIP3    H2 3013   5.721   2.172   5.916  1.9879 -0.9733 -0.9641
 1017TIP3   OH2 3014   1.330   6.714   2.992 -0.1519  0.0397  0.6898
 1017TIP3    H1 3015   1.263   6.781   2.980 -1.5501 -1.1013  1.7948
 1017TIP3    H2 3016   1.410   6.764   3.009 -0.4137  1.4571 -1.7574
 1018TIP3   OH2 3017   2.112   0.304   5.752 -0.2668 -0.6064  0.1625
 1018TIP3    H1 3018   2.059   0.239   5.707  0.7114 -0.3730 -1.4076
 1018TIP3    H2 3019   2.086   0.387   5.714  1.3915 -0.5164 -0.9139
 1019TIP3   OH2 3020   5.649   2.153   1.999  0.0707  0.0443  0.2458
 1019TIP3    H1 3021   5.659   2.175   2.092 -1.8666 -0.6603  0.6683
 1019TIP3    H2 3022   5.677   2.061   1.993 -2.2490 -0.7528  0.7046
 1020TIP3   OH2 3023   3.076   1.871   4.055 -0.0234 -0.0186 -0.0126
 1020TIP3    H1 3024   3.129   1.924   3.996 -2.0686  3.1962  0.8098
 1020TIP3    H2 3025   3.008   1.834   3.998  0.4883 -0.5142 -0.3203
 1021TIP3   OH2 3026   0.312   6.149   1.112 -0.4035  0.5802  0.2047
 1021TIP3    H1 3027   0.229   6.133   1.157 -0.9691  2.1556 -0.1933
 1021TIP3    H2 3028   0.308   6.095   1.033 -1.3352  1.0944 -0.1138
 1022TIP3   OH2 3029   0.907   5.500   3.189  0.0314 -0.1336  0.5212
 1022TIP3    H1 3030   0.850   5.577   3.184 -1.0550 -0.9428 -0.1076
 1022TIP3    H2 3031   0.995   5.536   3.190 -0.4084  1.0979 -0.8056
 1023TIP3   OH2 3032   6.284   6.078   2.796 -0.5332 -0.1382 -0.3995
 1023TIP3    H1 3033   6.234   6.155   2.770 -0.1935  0.0196 -0.6017
 1023TIP3    H2 3034   6.315   6.040   2.714  0.3593  0.2323 -0.2413
 1024TIP3   OH2 3035   4.490   5.444   1.125  0.3230  0.0544  0.3107
 1024TIP3    H1 3036   4.572   5.491   1.141  1.5909 -1.6209 -0.9173
 1024TIP3    H2 3037   4.469   5.463   1.033  0.0631 -0.5868  0.2312
 1025TIP3   OH2 3038   0.701   5.385   3.283  0.4282 -0.4324 -0.5587
 1025TIP3    H1 3039   0.734   5.300   3.313  0.2896 -0.9320 -1.7586
 1025TIP3    H2 3040   0.778   5.430   3.247  0.6082  0.1896  0.5707
 1026TIP3   OH2 3041   6.393   0.832   1.191 -0.2358 -0.2260  0.2663
 1026TIP3    H1 3042   6.380   0.750   1.143  0.0742 -1.8261  2.7619
 1026TIP3    H2 3043   6.455   0.810   1.261 -1.5186  1.6620  2.1261
 1027TIP3   OH2 3044   6.935   5.001   5.474 -0.2835 -0.5382 -0.0886
 1027TIP3    H1 3045   6.898   5.060   5.541 -1.5078  0.1974 -1.3554
 1027TIP3    H2 3046   7.021   4.977   5.509 -1.3317 -1.1285  2.3098
 1028TIP3   OH2 3047   1.335   2.051   2.752 -0.2057  0.8574 -0.4293
 1028TIP3    H1 3048   1.288   2.029   2.671 -0.6075 -1.4217  0.3553
 1028TIP3    H2 3049   1.277   2.022   2.822  1.7463 -0.8021  0.5966
 1029TIP3   OH2 3050   5.909   5.248   5.530  0.0134 -0.0427 -0.1141
 1029TIP3    H1 3051   5.849   5.184   5.569  1.9286 -1.7567  0.2185
 1029TIP3    H2 3052   5.874   5.263   5.442 -0.9914 -0.8957  0.1174
 1030TIP3   OH2 3053   2.095   4.348   1.395  0.1475 -0.2304  0.3059
 1030TIP3    H1 3054   2.114   4.255   1.404 -1.3432 -0.4483  1.6589
 1030TIP3    H2 3055   2.181   4.391   1.403  0.7394 -1.4342  0.5889
 1031TIP3   OH2 3056   3.800   6.224   2.111 -0.3995 -0.4384  1.1302
 1031TIP3    H1 3057   3.810   6.309   2.069  1.4563 -1.1727 -0.0389
 1031TIP3    H2 3058   3.710   6.198   2.091 -0.0931 -0.0142 -1.0317
 1032TIP3   OH2 3059   2.155   1.249   5.689  0.4336  0.5226  0.1711
 1032TIP3    H1 3060   2.124   1.338   5.704 -0.0782  0.3455  0.1602
 1032TIP3    H2 3061   2.240   1.246   5.733  1.0834  1.4172 -0.9707
 1033TIP3   OH2 3062   5.065   6.143   3.637 -0.0067 -0.2035 -0.4258
 1033TIP3    H1 3063   5.135   6.078   3.629 -1.4908 -1.9627  0.1105
 1033TIP3    H2 3064   5.035   6.158   3.548  0.0785 -0.5934 -0.5217
 1034TIP3   OH2 3065   2.799   6.186   4.231 -0.0243  0.2714 -0.5328
 1034TIP3    H1 3066   2.892   6.188   4.209  0.1394  1.4879  0.2127
 1034TIP3    H2 3067   2.777   6.276   4.254 -0.8941 -0.3725  1.3533
 1035TIP3   OH2 3068   3.364   1.518   5.110 -0.0338  0.2703 -0.0655
 1035TIP3    H1 3069   3.312   1.569   5.048  2.0231  0.8244 -1.4499
 1035TIP3    H2 3070   3.403   1.583   5.168 -0.3115 -0.0861  0.5427
 1036TIP3   OH2 3071   6.575   1.430   5.735  0.0987 -0.0872 -0.3588
 1036TIP3    H1 3072   6.577   1.361   5.669 -0.3148  0.9173 -1.4700
 1036TIP3    H2 3073   6.663   1.469   5.732  0.3749 -0.6327  0.3610
 1037TIP3   OH2 3074   3.275   1.459   5.536 -0.7204  0.0210 -0.0649
 1037TIP3    H1 3075   3.206   1.495   5.479  0.5531  0.9215 -1.0916
 1037TIP3    H2 3076   3.318   1.393   5.481 -0.1564  0.1386  0.2381
 1038TIP3   OH2 3077   6.109   1.313   3.660 -0.3039  0.7944 -0.1979
 1038TIP3    H1 3078   6.110   1.249   3.731 -0.1173  0.4717 -0.4903
 1038TIP3    H2 3079   6.125   1.397   3.703  1.4038  0.4214 -0.0294
 1039TIP3   OH2 3080   6.113   2.251   5.555 -0.2002  0.2470  0.0589
 1039TIP3    H1 3081   6.047   2.297   5.607 -0.8808  0.4947 -0.9936
 1039TIP3    H2 3082   6.107   2.290   5.468  2.4610  1.4001  0.2984
 1040TIP3   OH2 3083   0.407   3.592   2.943  0.1268  0.0451 -0.3081
 1040TIP3    H1 3084   0.492   3.582   2.987  0.1606 -0.0502 -0.3954
 1040TIP3    H2 3085   0.349   3.627   3.011  0.4470  0.9226 -0.4714
 1041TIP3   OH2 3086   0.838   6.398   5.082 -0.0338  0.3277 -0.2695
 1041TIP3    H1 3087   0.872   6.447   5.157  2.0621 -2.2570  0.6317
 1041TIP3    H2 3088   0.748   6.376   5.108  0.3796  0.1842  1.1559
 1042TIP3   OH2 3089   5.770   3.865   1.516 -0.4427  0.9089  0.5569
 1042TIP3    H1 3090   5.768   3.892   1.424  1.1806 -0.2124  0.1415
 1042TIP3    H2 3091   5.849   3.811   1.523 -2.1422 -1.5865  1.9030
 1043TIP3   OH2 3092   2.980   6.312   5.126  0.1017  0.0711 -0.2074
 1043TIP3    H1 3093   3.058   6.289   5.075 -0.3580  2.1086 -1.9385
 1043TIP3    H2 3094   2.999   6.400   5.160 -0.2983 -0.5655  1.8433
 1044TIP3   OH2 3095   2.099   0.168   2.215 -0.3548 -0.1673 -0.1524
 1044TIP3    H1 3096   2.006   0.147   2.209 -0.0706 -1.1171 -2.2076
 1044TIP3    H2 3097   2.144   0.086   2.196  0.9100  0.2859  0.7581
 1045TIP3   OH2 3098   3.104   3.714   3.308  0.6377 -0.5437  0.2882
 1045TIP3    H1 3099   3.027   3.738   3.360 -0.8694  1.7358 -2.6781
 1045TIP3    H2 3100   3.177   3.760   3.351 -0.2340 -0.1018  1.3348
 1046TIP3   OH2 3101   0.060   0.439   4.497 -0.0619 -0.4505 -0.6713
 1046TIP3    H1 3102   0.142   0.477   4.527 -0.0885  0.4985 -1.7309
 1046TIP3    H2 3103   0.077   0.411   4.407 -1.3464  1.3752 -1.5534
 1047TIP3   OH2 3104   2.774   4.749   1.400  0.0338 -0.1235 -0.2460
 1047TIP3    H1 3105   2.786   4.710   1.486  3.3334  0.4589 -0.3177
 1047TIP3    H2 3106   2.756   4.841   1.418  0.6567 -0.0157 -0.1291
 1048TIP3   OH2 3107   7.089   4.677   5.748  0.2578  0.5772  0.0083
 1048TIP3    H1 3108   6.996   4.652   5.742  0.6420 -1.5446  1.6115
 1048TIP3    H2 3109   7.132   4.623   5.682  0.5873 -0.0737  0.7359
 1049TIP3   OH2 3110   1.119   6.493   0.130 -0.2695  0.1880  0.1518
 1049TIP3    H1 3111   1.182   6.525   0.194  1.1021  0.7827 -1.4180
 1049TIP3    H2 3112   1.089   6.571   0.083 -2.2160 -0.0821  0.8489
 1050TIP3   OH2 3113   0.336   3.305   1.107 -0.1234  0.1681 -0.2759
 1050TIP3    H1 3114   0.360   3.232   1.164  2.1096 -1.1289 -2.6593
 1050TIP3    H2 3115   0.395   3.376   1.133 -0.0956  0.0621 -0.0481
 1051TIP3   OH2 3116   1.723   5.667   4.678 -0.1859  0.4830  0.2731
 1051TIP3    H1 3117   1.697   5.602   4.744 -0.3738 -0.6646 -0.9001
 1051TIP3    H2 3118   1.740   5.746   4.729 -0.5062 -0.3133  1.6855
 1052TIP3   OH2 3119   0.746   1.332   2.739  0.1022 -0.1790  0.8072
 1052TIP3    H1 3120   0.667   1.282   2.759 -0.3645 -0.4747 -1.4168
 1052TIP3    H2 3121   0.713   1.416   2.704  0.7360 -0.3737 -0.3032
 1053TIP3   OH2 3122   1.243   6.330   0.341  0.5660 -0.2529  0.4683
 1053TIP3    H1 3123   1.194   6.261   0.385 -0.1613 -1.3227 -1.8713
 1053TIP3    H2 3124   1.318   6.286   0.301  1.3413  0.7136  0.8179
 1054TIP3   OH2 3125   5.088   2.230   1.665 -0.0571  0.3932  0.0820
 1054TIP3    H1 3126   5.002   2.257   1.695 -0.2822  0.8518 -0.9361
 1054TIP3    H2 3127   5.074   2.143   1.628  0.1942 -0.1157  1.1641
 1055TIP3   OH2 3128   6.502   2.248   0.127  0.0515  0.2806 -0.3801
 1055TIP3    H1 3129   6.460   2.309   0.188 -1.1242  0.1388 -1.0164
 1055TIP3    H2 3130   6.456   2.165   0.142  1.3107 -0.3470  0.1392
 1056TIP3   OH2 3131   6.480   2.883   5.442  0.2149 -0.0814  0.2803
 1056TIP3    H1 3132   6.451   2.793   5.455  0.3408 -0.3141 -0.9382
 1056TIP3    H2 3133   6.428   2.934   5.503 -0.1829 -0.9307  0.6586
 1057TIP3   OH2 3134   1.973   0.316   1.148 -0.0095  0.3683  0.0480
 1057TIP3    H1 3135   1.881   0.328   1.124 -0.6031  0.2925  2.0607
 1057TIP3    H2 3136   2.009   0.405   1.150 -0.2020  0.4511 -0.1391
 1058TIP3   OH2 3137   1.693   1.109   4.270 -0.2314 -0.5033 -0.1552
 1058TIP3    H1 3138   1.669   1.033   4.324 -0.1701 -0.3668  0.0664
 1058TIP3    H2 3139   1.714   1.177   4.333  0.6269 -0.5807 -0.3337
 1059TIP3   OH2 3140   0.210   1.557   2.290  0.6696  0.3570  0.1141
 1059TIP3    H1 3141   0.122   1.520   2.282  0.0439  1.9747 -1.2134
 1059TIP3    H2 3142   0.264   1.505   2.232  0.4090 -0.1423  0.3146
 1060TIP3   OH2 3143   2.260   2.671   0.602 -0.7454 -0.0329  0.1060
 1060TIP3    H1 3144   2.303   2.636   0.524 -0.8575  0.3277 -0.1207
 1060TIP3    H2 3145   2.270   2.602   0.668  1.5811  0.6457  0.5650
 1061TIP3   OH2 3146   5.300   1.867   2.445 -0.4665 -0.0403 -0.2968
 1061TIP3    H1 3147   5.311   1.936   2.380 -0.9229  0.2848 -0.0298
 1061TIP3    H2 3148   5.212   1.880   2.481  0.2626  0.6325  1.3568
 1062TIP3   OH2 3149   7.046   2.526   1.246 -0.2665  0.2828 -0.5092
 1062TIP3    H1 3150   7.079   2.500   1.160 -1.5855  1.2275 -1.3481
 1062TIP3    H2 3151   6.959   2.485   1.252  0.7552 -1.8317  1.4712
 1063TIP3   OH2 3152   4.468   1.286   1.667  0.6866  0.2775 -0.6308
 1063TIP3    H1 3153   4.551   1.240   1.678  0.8759  0.1120 -2.5229
 1063TIP3    H2 3154   4.431   1.252   1.586 -2.3039 -1.2119  1.1429
 1064TIP3   OH2 3155   0.719   1.145   0.664 -0.5660 -0.6012 -0.2429
 1064TIP3    H1 3156   0.687   1.235   0.673  1.0922  0.2529 -2.2233
 1064TIP3    H2 3157   0.639   1.092   0.661 -1.6692  1.0205 -1.0156
 1065TIP3   OH2 3158   6.038   2.072   4.989 -0.2441  0.1692 -0.0780
 1065TIP3    H1 3159   6.091   2.012   5.041  0.3373 -1.0683 -1.9821
 1065TIP3    H2 3160   6.087   2.154   4.991  0.4775 -0.2577  0.2090
 1066TIP3   OH2 3161   5.029   2.212   3.558  0.2355  0.0611 -0.3677
 1066TIP3    H1 3162   5.002   2.303   3.570  0.3061 -0.1227  1.3949
 1066TIP3    H2 3163   5.124   2.214   3.558  0.2865 -0.2055  1.7920
 1067TIP3   OH2 3164   3.325   3.258   4.485  0.3860  0.6106  0.0435
 1067TIP3    H1 3165   3.236   3.268   4.519  0.0376 -0.4611 -0.5102
 1067TIP3    H2 3166   3.332   3.324   4.416 -1.1628 -1.3494 -2.1551
 1068TIP3   OH2 3167   6.346   3.677   0.947  0.1850 -0.1954  0.2301
 1068TIP3    H1 3168   6.400   3.610   0.905  1.6749  1.1568 -0.1172
 1068TIP3    H2 3169   6.407   3.748   0.968 -1.0688  0.4702  1.9080
 1069TIP3   OH2 3170   5.768   1.362   2.657  0.9573  0.1986 -0.5259
 1069TIP3    H1 3171   5.768   1.382   2.751 -0.9710 -1.9817  0.0276
 1069TIP3    H2 3172   5.685   1.397   2.625  1.3380  0.4060 -1.3083
 1070TIP3   OH2 3173   4.134   0.469   5.412  0.0095  0.1380  0.0008
 1070TIP3    H1 3174   4.186   0.491   5.335 -0.6375  1.5809 -0.0538
 1070TIP3    H2 3175   4.138   0.547   5.468  0.9506 -1.0818  1.7419
 1071TIP3   OH2 3176   5.764   4.577   0.597  0.6303  0.5913  0.7517
 1071TIP3    H1 3177   5.829   4.550   0.662  0.0702  0.8453  1.4332
 1071TIP3    H2 3178   5.762   4.673   0.604 -1.2174  0.4938  2.1558
 1072TIP3   OH2 3179   5.940   2.941   1.472 -0.4882  0.0526  0.0054
 1072TIP3    H1 3180   5.950   3.026   1.429 -0.0716 -0.4828 -0.9865
 1072TIP3    H2 3181   5.892   2.960   1.552 -0.6586  1.1806 -0.3522
 1073TIP3   OH2 3182   3.538   3.324   3.333 -0.8374 -0.7096  0.2479
 1073TIP3    H1 3183   3.545   3.355   3.243 -0.3545  0.2848  0.6136
 1073TIP3    H2 3184   3.501   3.398   3.381  1.0310 -0.3870  1.2848
 1074TIP3   OH2 3185   5.240   6.029   4.901  0.0738  0.3550 -0.1686
 1074TIP3    H1 3186   5.171   6.081   4.943 -1.5818 -0.0469 -2.2213
 1074TIP3    H2 3187   5.311   6.027   4.965 -1.1110  2.3010  1.3149
 1075TIP3   OH2 3188   6.726   4.162   1.686  0.2231 -0.0102  0.3017
 1075TIP3    H1 3189   6.672   4.095   1.644  0.9417 -0.8869  0.7539
 1075TIP3    H2 3190   6.754   4.123   1.768  0.3257  1.0067  0.7610
 1076TIP3   OH2 3191   0.122   3.860   2.127  0.2299 -0.3976 -0.3577
 1076TIP3    H1 3192   0.164   3.779   2.098 -0.7972 -1.2240  0.3955
 1076TIP3    H2 3193   0.192   3.925   2.127  1.1323 -1.3529 -0.7025
 1077TIP3   OH2 3194   4.740   0.845   1.511 -0.3224 -0.4098 -0.5393
 1077TIP3    H1 3195   4.807   0.903   1.547  1.0761 -0.8465 -2.3069
 1077TIP3    H2 3196   4.722   0.783   1.582  3.7327 -2.4544 -0.9653
 1078TIP3   OH2 3197   6.303   6.114   5.873  0.0299 -0.0632 -0.6465
 1078TIP3    H1 3198   6.309   6.193   5.819  0.6628 -0.5090 -1.2556
 1078TIP3    H2 3199   6.340   6.139   5.957  1.1816  0.0348 -1.1559
 1079TIP3   OH2 3200   5.748   3.056   4.706  0.3555 -0.1000 -0.0343
 1079TIP3    H1 3201   5.728   2.977   4.655  1.8093 -0.3744 -0.2349
 1079TIP3    H2 3202   5.673   3.067   4.764 -0.3719 -0.9960 -0.7734
 1080TIP3   OH2 3203   3.856   0.751   3.681  0.2454 -0.6729 -0.0449
 1080TIP3    H1 3204   3.931   0.753   3.741 -0.3083  1.7258  0.6904
 1080TIP3    H2 3205   3.783   0.783   3.734 -1.0372 -1.6915 -1.1274
 1081TIP3   OH2 3206   0.434   2.962   5.519  0.7062  0.0265 -0.0613
 1081TIP3    H1 3207   0.512   2.933   5.566  0.7522  0.0624 -0.1144
 1081TIP3    H2 3208   0.374   2.888   5.523  0.6738  0.0625  0.1329
 1082TIP3   OH2 3209   6.256   5.313   0.953 -0.0686 -0.1181  0.4868
 1082TIP3    H1 3210   6.321   5.374   0.920  1.0403 -1.2096  0.5924
 1082TIP3    H2 3211   6.175   5.336   0.906  1.1005 -0.7126 -1.9967
 1083TIP3   OH2 3212   1.073   4.036   2.910 -0.5107 -0.5657 -0.4012
 1083TIP3    H1 3213   1.078   4.131   2.925  0.6636 -0.8176  0.9904
 1083TIP3    H2 3214   1.054   3.999   2.996 -0.1939 -1.6558 -0.7897
 1084TIP3   OH2 3215   1.436   4.037   4.643  0.1156 -0.0439 -0.1439
 1084TIP3    H1 3216   1.403   4.125   4.625 -1.5013 -0.9736 -2.1247
 1084TIP3    H2 3217   1.417   3.987   4.564  2.0898 -1.9104  0.4493
 1085TIP3   OH2 3218   1.838   2.469   5.401  0.5579  0.0097 -0.7250
 1085TIP3    H1 3219   1.839   2.401   5.468  0.6447  1.9628  1.3653
 1085TIP3    H2 3220   1.764   2.445   5.344  1.0374 -2.1789 -0.5256
 1086TIP3   OH2 3221   4.692   2.370   4.774  0.3886 -0.3465 -0.4375
 1086TIP3    H1 3222   4.650   2.372   4.688  1.1507  0.6103 -0.8014
 1086TIP3    H2 3223   4.721   2.460   4.789  2.2528 -0.9416 -0.1855
 1087TIP3   OH2 3224   6.436   6.206   3.984  0.3334 -0.5733 -0.5117
 1087TIP3    H1 3225   6.384   6.238   3.909  1.1235  2.2409  0.0175
 1087TIP3    H2 3226   6.514   6.167   3.944  0.1349 -0.2939 -1.1942
 1088TIP3   OH2 3227   0.500   2.638   3.945  0.0682 -0.3190  0.8253
 1088TIP3    H1 3228   0.459   2.710   3.992  2.2497  0.6248  1.3977
 1088TIP3    H2 3229   0.545   2.680   3.872 -0.1085 -1.3348  0.1126
 1089TIP3   OH2 3230   1.347   4.980   2.217  0.4429 -0.1243 -0.2171
 1089TIP3    H1 3231   1.300   5.038   2.277  2.3912 -0.3445  1.6339
 1089TIP3    H2 3232   1.346   4.895   2.260  0.1591 -0.7963 -1.4986
 1090TIP3   OH2 3233   4.504   6.742   0.594 -0.1403  0.8965 -0.4440
 1090TIP3    H1 3234   4.524   6.826   0.637  1.0030 -0.1695  1.2142
 1090TIP3    H2 3235   4.445   6.698   0.655  0.1940  0.0296 -0.7369
 1091TIP3   OH2 3236   3.694   0.927   2.981 -0.3234 -0.0373  0.1456
 1091TIP3    H1 3237   3.663   0.968   3.062 -2.3432  1.2965 -1.2139
 1091TIP3    H2 3238   3.692   0.996   2.916  1.7466 -0.9515 -1.0102
 1092TIP3   OH2 3239   4.851   5.408   5.038 -0.3304  0.1735 -0.5963
 1092TIP3    H1 3240   4.764   5.387   5.006 -0.6494 -0.9181  0.8510
 1092TIP3    H2 3241   4.837   5.439   5.128  0.8047 -0.8202 -0.0442
 1093TIP3   OH2 3242   0.667   1.056   2.850 -0.2400 -0.0050 -0.0539
 1093TIP3    H1 3243   0.612   1.089   2.921  0.1137  0.4642  0.0070
 1093TIP3    H2 3244   0.675   0.963   2.866  0.0422  0.1399  0.6679
 1094TIP3   OH2 3245   2.347   0.661   0.712 -0.0012  0.5690 -0.3411
 1094TIP3    H1 3246   2.406   0.612   0.653  1.4248  0.9814  0.6900
 1094TIP3    H2 3247   2.326   0.598   0.781 -2.5763 -0.2820 -1.7675
 1095TIP3   OH2 3248   4.269   5.984   4.809  0.1619 -0.6366 -0.4306
 1095TIP3    H1 3249   4.363   5.972   4.793  0.1721 -1.6795  0.3218
 1095TIP3    H2 3250   4.261   5.986   4.905 -0.0317  4.2437 -0.2889
 1096TIP3   OH2 3251   1.773   4.333   2.655 -0.3608 -0.4643  0.2904
 1096TIP3    H1 3252   1.780   4.401   2.589 -0.6872 -0.1341  0.5926
 1096TIP3    H2 3253   1.758   4.252   2.605 -1.9437 -0.0312 -0.0107
 1097TIP3   OH2 3254   4.178   4.779   5.126  0.1112 -0.2492 -0.1479
 1097TIP3    H1 3255   4.209   4.859   5.170  0.2001 -0.3371 -0.0491
 1097TIP3    H2 3256   4.210   4.708   5.182  0.7023 -0.3844 -0.6549
 1098TIP3   OH2 3257   3.317   1.903   1.677 -0.1084  0.0527 -0.2264
 1098TIP3    H1 3258   3.339   1.928   1.767  0.8246  0.9862 -0.6854
 1098TIP3    H2 3259   3.390   1.850   1.648 -0.1210  0.2435 -0.6210
 1099TIP3   OH2 3260   2.963   0.456   4.817 -0.5872  0.2902 -0.3113
 1099TIP3    H1 3261   3.018   0.428   4.890 -1.6214 -0.9546  0.0167
 1099TIP3    H2 3262   2.982   0.550   4.809  1.1369  0.0231  0.1460
 1100TIP3   OH2 3263   4.680   0.663   3.184 -0.9119 -0.2786  0.5419
 1100TIP3    H1 3264   4.657   0.572   3.165 -1.7470 -0.2734  1.4343
 1100TIP3    H2 3265   4.598   0.702   3.216  0.1267 -0.0394  3.0949
 1101TIP3   OH2 3266   3.912   4.890   4.394 -0.7161  0.5465  0.3041
 1101TIP3    H1 3267   3.860   4.877   4.474 -1.0957  0.9206  0.1276
 1101TIP3    H2 3268   3.993   4.930   4.425  0.1005 -1.3734  0.7500
 1102TIP3   OH2 3269   2.135   3.600   2.372 -0.1618 -0.3207  0.7265
 1102TIP3    H1 3270   2.067   3.542   2.407 -2.1049 -0.2958 -2.5478
 1102TIP3    H2 3271   2.216   3.550   2.378 -0.5443 -0.7456  3.8684
 1103TIP3   OH2 3272   5.623   1.074   4.541 -0.1701  0.3270  0.3832
 1103TIP3    H1 3273   5.554   1.090   4.604  1.0551  2.7885  1.2247
 1103TIP3    H2 3274   5.703   1.103   4.585  1.1002 -0.3362 -1.3649
 1104TIP3   OH2 3275   0.867   2.022   4.036  0.0218  0.4179 -0.2169
 1104TIP3    H1 3276   0.818   2.101   4.016  0.9239  0.8348 -0.8652
 1104TIP3    H2 3277   0.855   1.967   3.958  2.5320  1.5328 -1.5154
 1105TIP3   OH2 3278   2.264   3.665   5.590 -0.2677 -0.4792 -0.3597
 1105TIP3    H1 3279   2.331   3.728   5.613 -2.1810  1.1336  1.2162
 1105TIP3    H2 3280   2.216   3.705   5.517 -0.7364 -0.6822 -0.1700
 1106TIP3   OH2 3281   5.499   1.878   0.035  0.0169  0.4463  0.3174
 1106TIP3    H1 3282   5.546   1.831   0.104 -1.8465 -0.2511  1.1537
 1106TIP3    H2 3283   5.497   1.969   0.065 -0.7755  0.1501  1.1928
 1107TIP3   OH2 3284   3.062   3.606   5.853 -0.2788 -0.1108  0.3080
 1107TIP3    H1 3285   3.074   3.692   5.892 -0.9480 -0.3784  1.1446
 1107TIP3    H2 3286   3.150   3.576   5.830 -0.0913  1.0137 -0.4892
 1108TIP3   OH2 3287   3.218   6.479   0.973 -0.4554  0.4152  0.4678
 1108TIP3    H1 3288   3.208   6.496   0.880  1.1461  0.0873  0.2092
 1108TIP3    H2 3289   3.167   6.549   1.016  0.3226  1.7028 -0.6345
 1109TIP3   OH2 3290   4.849   1.033   0.382  0.0003  0.4827  0.1377
 1109TIP3    H1 3291   4.794   1.060   0.308 -0.6979  0.2673  0.5681
 1109TIP3    H2 3292   4.924   1.093   0.379 -0.1172  0.6034 -0.6251
 1110TIP3   OH2 3293   7.017   3.933   3.924  0.4625 -1.0735  0.1423
 1110TIP3    H1 3294   7.009   4.025   3.898 -2.3657 -1.6868 -1.6225
 1110TIP3    H2 3295   7.017   3.935   4.020  0.7033  0.7548  0.1423
 1111TIP3   OH2 3296   0.230   0.824   2.580  0.0374  0.0522  0.6551
 1111TIP3    H1 3297   0.308   0.792   2.626 -0.8290 -1.6256  1.0550
 1111TIP3    H2 3298   0.180   0.745   2.560 -0.8759  0.9647 -0.8995
 1112TIP3   OH2 3299   2.087   4.881   2.745 -0.0300 -0.3332  0.0613
 1112TIP3    H1 3300   2.168   4.855   2.790  0.6793  0.5694 -0.6460
 1112TIP3    H2 3301   2.102   4.855   2.654 -0.9791 -1.1138  0.1179
 1113TIP3   OH2 3302   4.736   1.562   3.528  0.5161 -0.0386 -0.3830
 1113TIP3    H1 3303   4.752   1.468   3.537  0.1124 -0.0071  0.8704
 1113TIP3    H2 3304   4.824   1.601   3.525  0.6936 -0.3861  0.1126
 1114TIP3   OH2 3305   0.748   0.439   2.828 -0.3996  0.0677  0.2202
 1114TIP3    H1 3306   0.810   0.437   2.901 -0.7486  1.7199  0.5945
 1114TIP3    H2 3307   0.662   0.437   2.869 -0.5995  0.4674 -0.1704
 1115TIP3   OH2 3308   3.064   2.674   0.173  0.0939 -0.5481 -0.3733
 1115TIP3    H1 3309   3.091   2.614   0.103 -1.3672 -1.0311 -0.5684
 1115TIP3    H2 3310   3.095   2.633   0.253 -0.2430 -1.1958 -0.5655
 1116TIP3   OH2 3311   5.987   1.809   2.258 -0.1172 -0.2084 -0.6612
 1116TIP3    H1 3312   6.082   1.811   2.243  0.3785 -0.5966  1.8761
 1116TIP3    H2 3313   5.974   1.731   2.311 -1.7963  0.1423 -0.5251
 1117TIP3   OH2 3314   2.210   1.207   3.541 -0.0445  0.2735 -0.2460
 1117TIP3    H1 3315   2.126   1.182   3.579  0.0993 -0.5805 -0.4715
 1117TIP3    H2 3316   2.248   1.267   3.605  0.4817 -1.6337  1.3149
 1118TIP3   OH2 3317   3.920   5.481   5.581  0.2636 -0.1119  0.3628
 1118TIP3    H1 3318   3.984   5.537   5.623  0.9758 -0.1661 -0.6245
 1118TIP3    H2 3319   3.872   5.539   5.521 -0.6136 -0.0737  1.0737
 1119TIP3   OH2 3320   6.581   3.845   5.088  0.5882  0.2844  0.2650
 1119TIP3    H1 3321   6.577   3.931   5.129 -1.8841  1.0733 -1.4180
 1119TIP3    H2 3322   6.662   3.847   5.036  0.3631  1.7574 -0.0654
 1120TIP3   OH2 3323   4.948   6.622   4.830 -0.1343  0.6875 -0.1106
 1120TIP3    H1 3324   4.990   6.592   4.749 -1.6469  0.3932 -0.8279
 1120TIP3    H2 3325   4.985   6.566   4.898 -1.5526 -1.7327 -1.1562
 1121TIP3   OH2 3326   0.300   0.298   5.678  0.7180 -0.1602 -0.2172
 1121TIP3    H1 3327   0.267   0.326   5.593 -2.9634 -1.5429  0.5522
 1121TIP3    H2 3328   0.298   0.377   5.732 -0.6374 -0.0065 -0.4586
 1122TIP3   OH2 3329   6.839   2.437   4.056 -0.0333  0.4470 -0.1290
 1122TIP3    H1 3330   6.770   2.398   4.110  0.6025 -0.4899  0.0183
 1122TIP3    H2 3331   6.852   2.374   3.985 -0.3707  1.3366 -1.0053
 1123TIP3   OH2 3332   3.585   4.558   3.815 -0.4204  0.2118 -0.4570
 1123TIP3    H1 3333   3.677   4.583   3.804 -0.7833  1.8394 -0.0240
 1123TIP3    H2 3334   3.536   4.621   3.762 -1.4208  0.7612  1.0737
 1124TIP3   OH2 3335   0.946   2.894   5.144 -1.1113  0.4088 -0.0705
 1124TIP3    H1 3336   0.893   2.890   5.223 -1.9637 -0.6583 -0.6639
 1124TIP3    H2 3337   0.904   2.962   5.091 -0.9480  0.6473  0.1034
 1125TIP3   OH2 3338   2.810   3.282   2.212  0.2305 -0.8276 -0.2057
 1125TIP3    H1 3339   2.902   3.285   2.235  0.0793  0.7502  0.3194
 1125TIP3    H2 3340   2.807   3.313   2.122  0.1796 -0.4891 -0.0886
 1126TIP3   OH2 3341   0.722   2.685   1.265  0.0185  0.3415  0.1034
 1126TIP3    H1 3342   0.705   2.776   1.288 -0.7863  0.2008  0.0730
 1126TIP3    H2 3343   0.735   2.640   1.348  0.5694  0.5060  0.1120
 1127TIP3   OH2 3344   2.613   1.194   5.403  0.2458 -0.8105 -0.0516
 1127TIP3    H1 3345   2.653   1.119   5.358 -0.8100 -1.0696 -0.6051
 1127TIP3    H2 3346   2.542   1.221   5.344  1.6852  1.7604 -0.7615
 1128TIP3   OH2 3347   7.105   6.469   4.381  0.1626 -0.3882  0.2095
 1128TIP3    H1 3348   7.093   6.527   4.457  1.1622  1.0902 -0.7196
 1128TIP3    H2 3349   7.037   6.495   4.320 -0.0615 -0.9520  0.2129
 1129TIP3   OH2 3350   0.706   0.280   5.598  0.1756 -0.3869  0.0010
 1129TIP3    H1 3351   0.672   0.326   5.675 -0.6988 -0.7544 -0.1536
 1129TIP3    H2 3352   0.748   0.349   5.546  0.8512 -0.1441  0.8252
 1130TIP3   OH2 3353   0.497   0.861   5.767 -0.1580  0.1234 -0.2804
 1130TIP3    H1 3354   0.479   0.935   5.824  0.2203 -0.0580  0.0763
 1130TIP3    H2 3355   0.464   0.889   5.681 -0.8552  0.3372  0.0494
 1131TIP3   OH2 3356   1.108   1.840   4.338  0.5401 -0.1439 -0.2469
 1131TIP3    H1 3357   1.112   1.905   4.268 -0.1591  0.5004  0.2887
 1131TIP3    H2 3358   1.059   1.767   4.300 -1.5398  0.9809  0.1253
 1132TIP3   OH2 3359   1.001   5.244   3.197 -0.2668  0.0738  0.4159
 1132TIP3    H1 3360   0.971   5.321   3.149 -0.5954 -0.0391  0.4428
 1132TIP3    H2 3361   0.929   5.221   3.254  0.8442  1.4398  2.4877
 1133TIP3   OH2 3362   6.766   4.161   2.239 -0.2852  0.1249  0.3009
 1133TIP3    H1 3363   6.835   4.222   2.265 -0.4043  1.0437 -1.3927
 1133TIP3    H2 3364   6.767   4.164   2.143 -0.4900 -2.3366  0.1593
 1134TIP3   OH2 3365   2.463   4.538   2.441  0.3001  0.2482 -0.2564
 1134TIP3    H1 3366   2.395   4.533   2.509  0.1932 -2.1674 -0.4271
 1134TIP3    H2 3367   2.417   4.570   2.363 -0.8888 -1.9077 -0.5267
 1135TIP3   OH2 3368   1.924   4.822   3.788  0.5061  0.2837 -0.0916
 1135TIP3    H1 3369   1.840   4.857   3.757 -0.2059 -1.8588 -0.7289
 1135TIP3    H2 3370   1.983   4.832   3.713  0.7513  1.4627  0.2378
 1136TIP3   OH2 3371   4.771   2.823   2.365  0.1001 -0.9472 -0.1341
 1136TIP3    H1 3372   4.787   2.889   2.297  0.0570 -0.1910  0.5625
 1136TIP3    H2 3373   4.856   2.781   2.378  0.3423 -0.4258  0.0168
 1137TIP3   OH2 3374   4.019   3.557   2.324 -0.5069 -0.3207  0.2984
 1137TIP3    H1 3375   4.071   3.633   2.352 -0.2886  0.0400 -1.0368
 1137TIP3    H2 3376   4.084   3.487   2.315  0.3296  0.7505 -3.8465
 1138TIP3   OH2 3377   3.315   2.671   0.868  0.6063 -0.1324 -0.3476
 1138TIP3    H1 3378   3.383   2.688   0.803  0.0186  1.0990 -0.6819
 1138TIP3    H2 3379   3.296   2.757   0.905  0.8712 -0.8006  1.4249
 1139TIP3   OH2 3380   4.292   3.515   1.199  0.1006  0.3807  0.0366
 1139TIP3    H1 3381   4.367   3.567   1.170  0.0234  0.0509 -0.7686
 1139TIP3    H2 3382   4.312   3.426   1.170  0.5288 -0.1941  1.9313
 1140TIP3   OH2 3383   2.678   5.543   5.204 -0.2783  0.0048  0.3009
 1140TIP3    H1 3384   2.744   5.484   5.242  0.4426  1.5080  1.4907
 1140TIP3    H2 3385   2.727   5.599   5.144 -0.6952  0.3397  0.2681
 1141TIP3   OH2 3386   1.459   4.309   5.629  0.4119 -0.1894 -0.2728
 1141TIP3    H1 3387   1.504   4.231   5.660 -1.1982 -0.7632  0.7563
 1141TIP3    H2 3388   1.437   4.357   5.709 -1.8448 -0.5582 -0.6136
 1142TIP3   OH2 3389   3.373   5.475   0.885  0.5722 -0.0416  0.1002
 1142TIP3    H1 3390   3.427   5.532   0.830 -0.1356  0.2041 -0.3523
 1142TIP3    H2 3391   3.293   5.526   0.901  1.2851  0.4685  2.5145
 1143TIP3   OH2 3392   5.092   0.161   4.745  0.1411 -0.6411  0.0012
 1143TIP3    H1 3393   5.183   0.192   4.742 -0.1095  0.7240  2.9649
 1143TIP3    H2 3394   5.055   0.187   4.661  1.1081  3.6368  0.6512
 1144TIP3   OH2 3395   0.409   3.918   2.850  0.6225  0.4363  0.1133
 1144TIP3    H1 3396   0.426   3.851   2.784  0.4240  0.3255  0.1725
 1144TIP3    H2 3397   0.326   3.891   2.890  0.0304  1.2615 -0.5446
 1145TIP3   OH2 3398   2.379   2.504   0.438  0.0552 -0.5084 -0.2487
 1145TIP3    H1 3399   2.429   2.529   0.360 -0.2066 -0.0204 -0.2637
 1145TIP3    H2 3400   2.409   2.415   0.458  0.4101 -0.4893 -0.6739
 1146TIP3   OH2 3401   3.862   2.529   4.763  0.4935  0.4842  0.1392
 1146TIP3    H1 3402   3.859   2.439   4.731 -1.7453  1.6120 -3.2993
 1146TIP3    H2 3403   3.955   2.550   4.766  0.9883 -1.2124 -1.3620
 1147TIP3   OH2 3404   5.788   5.507   1.493 -0.1401 -0.4006 -0.3297
 1147TIP3    H1 3405   5.833   5.571   1.438  0.2708 -2.2755 -2.3135
 1147TIP3    H2 3406   5.857   5.470   1.548 -0.4949  1.2365  1.3390
 1148TIP3   OH2 3407   5.871   4.614   5.668  0.0129  0.2811 -0.4024
 1148TIP3    H1 3408   5.914   4.547   5.614 -0.2128 -0.1785 -0.0256
 1148TIP3    H2 3409   5.838   4.678   5.606  0.1987  0.0207 -0.7735
 1149TIP3   OH2 3410   3.971   0.069   2.363  0.2315  0.5956  0.1413
 1149TIP3    H1 3411   3.916   0.038   2.292 -0.9128 -0.3662  1.4009
 1149TIP3    H2 3412   3.984   0.162   2.344 -0.0284  0.3545 -1.3111
 1150TIP3   OH2 3413   4.772   6.520   1.088 -0.2850 -0.1002 -0.3029
 1150TIP3    H1 3414   4.736   6.557   1.169 -0.5281 -0.9780 -0.0022
 1150TIP3    H2 3415   4.705   6.459   1.058 -1.4103  2.0682 -2.6088
 1151TIP3   OH2 3416   4.834   2.654   5.325  0.4141  0.3661 -0.8648
 1151TIP3    H1 3417   4.830   2.701   5.241  1.1735 -0.2104 -1.2352
 1151TIP3    H2 3418   4.927   2.633   5.337  0.5911  1.9223  0.9730
 1152TIP3   OH2 3419   3.586   6.347   0.383 -0.1794  0.2127 -0.4343
 1152TIP3    H1 3420   3.584   6.285   0.310 -2.5117 -2.7863  1.9374
 1152TIP3    H2 3421   3.517   6.410   0.363 -0.6093 -0.4187 -0.9888
 1153TIP3   OH2 3422   0.574   1.782   1.762  0.2365 -0.6420 -0.1497
 1153TIP3    H1 3423   0.640   1.771   1.693  0.4335 -1.3715  0.1404
 1153TIP3    H2 3424   0.505   1.835   1.722  0.3074 -1.1340 -0.9428
 1154TIP3   OH2 3425   5.755   3.885   5.315 -0.2793 -0.3995 -0.6030
 1154TIP3    H1 3426   5.758   3.789   5.313  1.1587 -0.3877 -0.2511
 1154TIP3    H2 3427   5.665   3.907   5.292 -0.9192 -1.8692  0.3351
 1155TIP3   OH2 3428   2.799   5.262   1.882 -0.3204  0.1098 -0.2234
 1155TIP3    H1 3429   2.886   5.281   1.847 -0.2608 -0.5291 -0.4453
 1155TIP3    H2 3430   2.782   5.171   1.855 -1.0523  0.2295 -0.1785
 1156TIP3   OH2 3431   1.947   1.584   4.801 -0.7357  0.8451 -0.1354
 1156TIP3    H1 3432   1.888   1.659   4.790  1.3519  2.3527 -2.0908
 1156TIP3    H2 3433   1.980   1.593   4.891 -1.6773  1.3586  0.1744
 1157TIP3   OH2 3434   0.376   4.327   1.900  0.4653 -0.0581  0.1610
 1157TIP3    H1 3435   0.414   4.282   1.824 -2.2488 -0.0315 -1.3316
 1157TIP3    H2 3436   0.452   4.349   1.955  2.8636  1.5949 -3.3825
 1158TIP3   OH2 3437   0.893   2.088   0.984  0.3599 -0.6181 -0.2832
 1158TIP3    H1 3438   0.912   2.163   1.040 -1.6936 -0.1912 -0.0601
 1158TIP3    H2 3439   0.908   2.012   1.040 -1.1182 -0.2115  0.7118
 1159TIP3   OH2 3440   4.377   2.598   3.318 -0.7085 -0.5138 -0.0032
 1159TIP3    H1 3441   4.436   2.546   3.373 -3.8731 -1.6959  2.6000
 1159TIP3    H2 3442   4.411   2.687   3.323  1.4486 -1.2976  0.3971
 1160TIP3   OH2 3443   1.445   4.245   3.985 -0.1742  0.0908 -0.2401
 1160TIP3    H1 3444   1.367   4.276   3.939 -0.0366  0.3751 -0.2798
 1160TIP3    H2 3445   1.518   4.273   3.930 -0.0936 -1.6176 -1.0894
 1161TIP3   OH2 3446   1.423   4.142   0.468  0.4196  0.6693 -0.5767
 1161TIP3    H1 3447   1.433   4.088   0.546 -0.9749  2.0914  0.6449
 1161TIP3    H2 3448   1.504   4.127   0.418  1.8249  0.5322  1.6245
 1162TIP3   OH2 3449   5.964   0.790   3.967  0.6057 -0.8947  0.1668
 1162TIP3    H1 3450   6.001   0.702   3.960 -0.1071 -1.3639  1.8827
 1162TIP3    H2 3451   5.970   0.812   4.060  0.9607  0.9704 -0.2546
 1163TIP3   OH2 3452   2.397   3.894   0.523  0.0525 -0.1759 -0.3729
 1163TIP3    H1 3453   2.399   3.833   0.596  1.5411 -0.1380 -0.3476
 1163TIP3    H2 3454   2.488   3.899   0.493 -0.6977 -1.3690 -3.2114
 1164TIP3   OH2 3455   0.736   4.741   3.157 -0.5999 -0.6090 -0.1476
 1164TIP3    H1 3456   0.816   4.692   3.136 -1.6714 -2.6188  0.2729
 1164TIP3    H2 3457   0.711   4.782   3.074 -0.3001 -1.7366 -0.8145
 1165TIP3   OH2 3458   3.217   1.833   4.696  0.0041 -0.1233  0.2388
 1165TIP3    H1 3459   3.124   1.816   4.681  0.2412 -1.0712 -0.1707
 1165TIP3    H2 3460   3.225   1.929   4.689 -1.3047  0.2302  2.3737
 1166TIP3   OH2 3461   1.696   5.466   1.344 -0.4178 -0.4675 -0.1181
 1166TIP3    H1 3462   1.682   5.555   1.314  0.2099 -0.1910  0.3963
 1166TIP3    H2 3463   1.620   5.447   1.400 -0.5064 -0.2323 -0.1596
 1167TIP3   OH2 3464   6.030   5.695   3.570 -0.1785 -0.3679  0.1129
 1167TIP3    H1 3465   5.984   5.719   3.489  2.4747  2.6876 -0.6654
 1167TIP3    H2 3466   6.003   5.761   3.633 -0.2112 -1.1864  0.9765
 1168TIP3   OH2 3467   6.874   0.837   1.482  0.3912 -0.0990  0.0275
 1168TIP3    H1 3468   6.825   0.756   1.495  0.5218 -0.2576 -0.4514
 1168TIP3    H2 3469   6.806   0.904   1.472  0.2686 -0.2805 -0.3914
 1169TIP3   OH2 3470   5.454   2.531   2.676  0.0817  0.1280 -0.3878
 1169TIP3    H1 3471   5.432   2.488   2.758 -2.0477  0.2357 -0.8674
 1169TIP3    H2 3472   5.391   2.603   2.668  3.1063  3.1073  0.0974
 1170TIP3   OH2 3473   1.902   4.914   1.571 -0.2050 -0.4531  0.6831
 1170TIP3    H1 3474   1.914   5.003   1.605  3.0271 -0.9169  1.0625
 1170TIP3    H2 3475   1.898   4.858   1.648 -2.3714 -0.7294  0.4506
 1171TIP3   OH2 3476   0.053   3.645   4.140 -0.0157  0.4713 -0.1265
 1171TIP3    H1 3477   0.021   3.583   4.206 -0.3428 -1.1243 -1.7037
 1171TIP3    H2 3478  -0.026   3.671   4.092  0.4501 -0.0940 -1.2489
 1172TIP3   OH2 3479   1.975   5.013   5.812  0.3919 -0.1290  0.3027
 1172TIP3    H1 3480   1.892   5.060   5.822  0.3496  0.0627 -0.8118
 1172TIP3    H2 3481   2.008   5.041   5.727  1.8461  0.1583  0.9339
 1173TIP3   OH2 3482   1.350   3.429   4.654  0.0992 -0.2812 -0.4553
 1173TIP3    H1 3483   1.446   3.424   4.664  0.0914 -0.0358 -0.2504
 1173TIP3    H2 3484   1.327   3.514   4.691 -0.4785 -1.3083  1.6742
 1174TIP3   OH2 3485   3.584   3.413   0.610 -0.3969  0.0070  0.5537
 1174TIP3    H1 3486   3.557   3.470   0.538 -2.8036 -0.4515  1.0037
 1174TIP3    H2 3487   3.666   3.374   0.580 -0.6620  0.8016 -1.3739
 1175TIP3   OH2 3488   1.491   2.035   3.116 -0.0122 -0.3732 -0.1893
 1175TIP3    H1 3489   1.481   1.956   3.062  0.6639 -0.5445 -0.0795
 1175TIP3    H2 3490   1.564   2.014   3.175 -0.7332 -0.1920  0.7937
 1176TIP3   OH2 3491   5.421   6.688   3.108  0.2332  0.0378 -0.5362
 1176TIP3    H1 3492   5.364   6.611   3.105 -0.5945  0.5414  0.9442
 1176TIP3    H2 3493   5.383   6.749   3.045 -1.1991  0.5409  0.7428
 1177TIP3   OH2 3494   3.864   3.634   3.987 -0.0909 -0.0667 -0.0084
 1177TIP3    H1 3495   3.834   3.698   4.052 -1.2394  0.4988 -1.0484
 1177TIP3    H2 3496   3.936   3.678   3.942 -1.2731  0.7957 -1.1342
 1178TIP3   OH2 3497   3.908   5.666   2.285  0.0777  0.8468 -0.4722
 1178TIP3    H1 3498   3.890   5.659   2.379  0.0904 -0.1906 -0.5436
 1178TIP3    H2 3499   3.990   5.716   2.281  0.9018 -0.3836  0.1556
 1179TIP3   OH2 3500   6.353   2.642   5.481 -0.2424  0.3994 -0.2044
 1179TIP3    H1 3501   6.366   2.633   5.576 -1.1677  0.7436 -0.0297
 1179TIP3    H2 3502   6.260   2.662   5.472 -0.2755 -0.1812 -1.2302
 1180TIP3   OH2 3503   5.804   3.570   4.380 -0.4029 -0.2757 -0.1646
 1180TIP3    H1 3504   5.879   3.629   4.370  0.1311 -1.1384 -1.5484
 1180TIP3    H2 3505   5.767   3.563   4.292 -1.2174 -1.0292  0.2203
 1181TIP3   OH2 3506   0.105   0.158   0.325  0.5303  0.1950  0.4202
 1181TIP3    H1 3507   0.062   0.238   0.355 -1.3255 -1.0790  1.3327
 1181TIP3    H2 3508   0.198   0.171   0.347 -0.2542  0.5657  4.1233
 1182TIP3   OH2 3509   5.921   6.421   3.608 -0.6552  0.0460  0.3253
 1182TIP3    H1 3510   5.927   6.439   3.702  0.1496  1.2794  0.0619
 1182TIP3    H2 3511   5.843   6.468   3.580 -1.0156 -0.4972  0.4068
 1183TIP3   OH2 3512   6.794   0.560   1.418  0.0067 -0.0440 -0.0662
 1183TIP3    H1 3513   6.702   0.547   1.397 -0.1293 -0.3854  0.7376
 1183TIP3    H2 3514   6.831   0.472   1.419 -0.0516 -0.0781  1.3816
 1184TIP3   OH2 3515   0.412   0.647   1.142 -0.5539  0.2946  0.0003
 1184TIP3    H1 3516   0.336   0.706   1.147 -1.4978 -0.8769 -0.0885
 1184TIP3    H2 3517   0.374   0.559   1.148  0.6213 -0.3862 -1.8549
 1185TIP3   OH2 3518   3.886   2.362   1.364 -0.0687  0.0016 -0.0012
 1185TIP3    H1 3519   3.796   2.393   1.360 -0.1585 -0.0410  1.3423
 1185TIP3    H2 3520   3.919   2.395   1.447  0.3706 -2.0659  0.6866
 1186TIP3   OH2 3521   0.246   4.639   1.492 -0.2106  0.5357  0.2256
 1186TIP3    H1 3522   0.238   4.582   1.415 -0.8999  0.5491  0.2751
 1186TIP3    H2 3523   0.292   4.586   1.557  0.8817  0.7251 -0.3856
 1187TIP3   OH2 3524   3.813   1.356   3.391  0.4637 -0.2846  0.1673
 1187TIP3    H1 3525   3.861   1.282   3.355  1.6625  0.1922  0.7392
 1187TIP3    H2 3526   3.723   1.324   3.400  1.0418 -1.8395  0.8457
 1188TIP3   OH2 3527   3.498   5.663   2.349 -0.0021  0.3239  0.6573
 1188TIP3    H1 3528   3.579   5.642   2.396  0.8484  0.6373 -0.6306
 1188TIP3    H2 3529   3.519   5.741   2.298 -0.6938 -0.3775 -0.7409
 1189TIP3   OH2 3530   1.026   4.851   5.147 -0.0026  0.3330  0.2254
 1189TIP3    H1 3531   1.108   4.804   5.155 -0.4031 -1.0825 -2.5636
 1189TIP3    H2 3532   0.959   4.787   5.173 -0.3063  1.3722  2.1819
 1190TIP3   OH2 3533   4.567   2.967   3.703 -0.2444 -0.2497 -0.4677
 1190TIP3    H1 3534   4.610   2.936   3.783 -0.3947 -1.3986 -0.8098
 1190TIP3    H2 3535   4.549   3.059   3.720 -1.2018 -0.7042  1.2486
 1191TIP3   OH2 3536   4.362   3.911   5.057 -0.3222  0.6793 -0.2414
 1191TIP3    H1 3537   4.396   3.953   4.978  0.7971 -0.6914 -0.5340
 1191TIP3    H2 3538   4.322   3.983   5.107  0.5784  1.8863 -1.1858
 1192TIP3   OH2 3539   4.682   2.933   0.479  0.8318 -0.5618 -0.4968
 1192TIP3    H1 3540   4.686   3.026   0.503  2.0889 -1.0075  1.1901
 1192TIP3    H2 3541   4.594   2.922   0.443  0.4355  1.1553 -0.1820
 1193TIP3   OH2 3542   6.162   0.627   0.334  0.3377 -0.3658 -0.4273
 1193TIP3    H1 3543   6.123   0.714   0.330  0.6482  0.0825  3.4195
 1193TIP3    H2 3544   6.241   0.634   0.281  0.4797  1.7574 -0.0034
 1194TIP3   OH2 3545   2.122   1.761   4.351 -0.4842 -0.6384  0.3858
 1194TIP3    H1 3546   2.093   1.683   4.399  0.6596 -1.9066 -0.9166
 1194TIP3    H2 3547   2.196   1.793   4.402 -0.2702 -1.0447  0.3354
 1195TIP3   OH2 3548   3.251   5.706   4.840 -0.3933  0.2567  0.0374
 1195TIP3    H1 3549   3.156   5.704   4.843 -0.4317 -3.0999  0.7159
 1195TIP3    H2 3550   3.277   5.751   4.920 -1.4851 -1.2226  1.2956
 1196TIP3   OH2 3551   0.336   1.371   0.673 -0.1883 -0.5142 -0.1551
 1196TIP3    H1 3552   0.335   1.387   0.768 -0.6206 -2.0825  0.1290
 1196TIP3    H2 3553   0.358   1.456   0.635 -1.5371  0.5393  1.2723
 1197TIP3   OH2 3554   0.184   4.112   1.499 -0.2235  0.2204 -0.0983
 1197TIP3    H1 3555   0.089   4.111   1.486 -0.7233  3.5899  2.0274
 1197TIP3    H2 3556   0.197   4.073   1.586 -0.1320  2.6576  1.0578
 1198TIP3   OH2 3557   3.587   3.675   2.149  0.1098 -0.3751 -0.0340
 1198TIP3    H1 3558   3.669   3.625   2.153  0.6958  0.6147  0.7675
 1198TIP3    H2 3559   3.609   3.752   2.095 -0.0646  0.2635  0.7855
 1199TIP3   OH2 3560   6.079   2.813   4.635  0.2461 -0.6479  0.2261
 1199TIP3    H1 3561   6.100   2.871   4.563  1.4863 -0.9040  0.3540
 1199TIP3    H2 3562   6.103   2.863   4.714 -1.8437 -0.0572  0.5365
 1200TIP3   OH2 3563   3.219   2.081   3.015 -0.4324  0.0579 -0.3412
 1200TIP3    H1 3564   3.314   2.093   3.022 -0.3479 -0.3693 -0.7365
 1200TIP3    H2 3565   3.206   1.986   3.018 -1.0770  0.1690  2.4521
 1201TIP3   OH2 3566   0.232   1.717   2.046  0.0626 -0.0047 -0.0952
 1201TIP3    H1 3567   0.172   1.752   2.112  0.2773  0.3716 -0.0929
 1201TIP3    H2 3568   0.314   1.765   2.060 -0.6601  2.1472 -2.3796
 1202TIP3   OH2 3569   6.075   2.546   0.856 -0.0817  0.3698 -0.2169
 1202TIP3    H1 3570   6.087   2.623   0.912 -0.3559 -1.5253  2.6722
 1202TIP3    H2 3571   6.009   2.573   0.792 -1.2746  2.1293  1.6193
 1203TIP3   OH2 3572   1.312   0.146   3.277  0.5164  0.7663  0.4688
 1203TIP3    H1 3573   1.317   0.128   3.184 -0.0773  2.3453  0.0957
 1203TIP3    H2 3574   1.250   0.083   3.312 -0.1663  0.9342 -0.4284
 1204TIP3   OH2 3575   5.630   2.721   2.045 -1.0104 -0.3750  0.0045
 1204TIP3    H1 3576   5.563   2.768   2.095 -2.8253 -0.1167 -2.4908
 1204TIP3    H2 3577   5.581   2.661   1.989  0.8704 -0.3511 -1.7888
 1205TIP3   OH2 3578   5.587   5.269   2.408 -0.0048 -0.5027 -0.0548
 1205TIP3    H1 3579   5.676   5.284   2.440  0.1820 -0.0023 -0.7876
 1205TIP3    H2 3580   5.549   5.357   2.402 -0.8880 -0.7723  1.1758
 1206TIP3   OH2 3581   0.251   1.614   1.509 -0.3153 -0.2977  0.0837
 1206TIP3    H1 3582   0.320   1.670   1.474 -0.4643 -0.7866 -1.0437
 1206TIP3    H2 3583   0.274   1.603   1.601  1.4272 -0.8647 -0.3665
 1207TIP3   OH2 3584   1.129   0.389   3.509 -0.3507  0.1361 -0.4893
 1207TIP3    H1 3585   1.200   0.450   3.489 -0.3744 -0.0180 -1.0805
 1207TIP3    H2 3586   1.062   0.443   3.552 -0.4980  0.6031 -1.2732
 1208TIP3   OH2 3587   6.228   6.523   0.599  0.5683  0.1407  0.3379
 1208TIP3    H1 3588   6.207   6.614   0.576  1.1552 -0.0881 -1.2840
 1208TIP3    H2 3589   6.153   6.472   0.567  0.9227 -0.0850 -0.1462
 1209TIP3   OH2 3590   4.823   0.392   0.737 -0.2540  0.0387  0.5225
 1209TIP3    H1 3591   4.885   0.325   0.710 -1.9927 -0.2981 -3.3236
 1209TIP3    H2 3592   4.768   0.349   0.803  0.3483 -1.4365  0.0936
 1210TIP3   OH2 3593   0.078   1.392   3.193 -0.3302  0.0847  0.3377
 1210TIP3    H1 3594   0.024   1.426   3.264 -1.1924  0.8476 -0.6554
 1210TIP3    H2 3595   0.126   1.319   3.233 -0.5049  0.7234  1.7867
 1211TIP3   OH2 3596   5.180   2.656   1.774 -0.2961 -0.0533  0.0625
 1211TIP3    H1 3597   5.180   2.575   1.825  0.7130  0.7238  1.3393
 1211TIP3    H2 3598   5.221   2.632   1.691 -1.5638 -1.2311 -0.2586
 1212TIP3   OH2 3599   6.036   5.372   3.125 -0.3479 -0.2111  0.0391
 1212TIP3    H1 3600   5.955   5.418   3.147 -0.2407  0.6420 -1.2412
 1212TIP3    H2 3601   6.076   5.424   3.056  1.4062 -0.5116  0.7582
 1213TIP3   OH2 3602   0.707   3.418   3.968 -0.0993  0.2807  0.6361
 1213TIP3    H1 3603   0.663   3.351   4.020  0.4110 -2.5741 -2.2486
 1213TIP3    H2 3604   0.791   3.431   4.012 -0.8241  0.2105  2.1009
 1214TIP3   OH2 3605   0.765   6.112   2.797  0.3620  0.6883 -0.1135
 1214TIP3    H1 3606   0.789   6.167   2.872  0.7248 -1.2063  1.2423
 1214TIP3    H2 3607   0.670   6.101   2.806  0.5847 -0.6668  0.9479
 1215TIP3   OH2 3608   5.186   0.032   2.418  0.0835  0.2782 -0.7065
 1215TIP3    H1 3609   5.128   0.108   2.415 -0.4363 -0.1176 -0.7505
 1215TIP3    H2 3610   5.177  -0.008   2.332  0.7197  0.4305 -0.8493
 1216TIP3   OH2 3611   1.329   3.051   4.377  0.1301 -0.2516 -0.5626
 1216TIP3    H1 3612   1.401   3.079   4.434  1.6523  1.3190 -3.0648
 1216TIP3    H2 3613   1.363   2.975   4.330 -0.7505 -0.9385 -0.1327
 1217TIP3   OH2 3614   0.650   0.284   0.550  0.1892 -0.0534  0.1723
 1217TIP3    H1 3615   0.634   0.325   0.465  1.1574 -0.1500 -0.0674
 1217TIP3    H2 3616   0.742   0.301   0.568  0.0884 -0.3592  1.0307
 1218TIP3   OH2 3617   1.530   1.694   0.086  0.1953 -0.2985 -0.3681
 1218TIP3    H1 3618   1.493   1.612   0.052  0.4994 -0.1630 -1.0617
 1218TIP3    H2 3619   1.500   1.761   0.024  1.3404 -0.1459 -0.7802
 1219TIP3   OH2 3620   4.164   4.108   5.583  0.3627  0.3171 -0.2106
 1219TIP3    H1 3621   4.109   4.177   5.621  0.9616  0.9237 -0.4347
 1219TIP3    H2 3622   4.115   4.027   5.600 -0.7443  0.8663 -0.6597
 1220TIP3   OH2 3623   5.708   3.064   2.557 -0.3038  0.1007 -0.0322
 1220TIP3    H1 3624   5.712   2.968   2.559 -4.3751 -0.2824 -1.6033
 1220TIP3    H2 3625   5.685   3.090   2.646 -0.4574 -0.4864  0.1030
 1221TIP3   OH2 3626   0.844   2.932   3.912 -0.0781 -0.5071  0.5619
 1221TIP3    H1 3627   0.871   3.024   3.914 -1.2447 -0.1508  1.2403
 1221TIP3    H2 3628   0.830   2.912   3.819  0.8446 -0.2202  0.3515
 1222TIP3   OH2 3629   0.107   3.750   1.527 -0.2936 -0.0226 -0.6339
 1222TIP3    H1 3630   0.159   3.828   1.549 -2.0428  1.6463 -2.0132
 1222TIP3    H2 3631   0.151   3.713   1.450  1.4930 -1.4570  0.9839
 1223TIP3   OH2 3632   0.645   0.744   3.928 -0.6970  0.2098 -0.4482
 1223TIP3    H1 3633   0.643   0.803   3.853 -0.2653 -1.1360 -1.5598
 1223TIP3    H2 3634   0.565   0.692   3.919 -0.7584  0.1896  0.1701
 1224TIP3   OH2 3635   3.607   1.670   3.961  0.5731 -0.8869 -0.0392
 1224TIP3    H1 3636   3.513   1.674   3.943  0.7159 -0.0879 -0.6969
 1224TIP3    H2 3637   3.642   1.611   3.894  0.4543 -1.7949  0.6724
 1225TIP3   OH2 3638   2.298   2.297   3.550  0.1751 -0.1948 -0.3291
 1225TIP3    H1 3639   2.321   2.215   3.593 -2.0551 -0.4437  0.5219
 1225TIP3    H2 3640   2.212   2.319   3.585 -0.3444  1.2598 -2.3495
 1226TIP3   OH2 3641   3.365   4.157   4.884 -0.3006  0.0549 -0.5407
 1226TIP3    H1 3642   3.335   4.070   4.911 -0.1943  0.0510 -0.4344
 1226TIP3    H2 3643   3.357   4.157   4.789 -0.5809  0.0320 -0.5185
 1227TIP3   OH2 3644   0.498   4.170   0.816 -0.5538  0.5813 -0.2296
 1227TIP3    H1 3645   0.462   4.120   0.889 -0.1579 -0.5345 -0.7751
 1227TIP3    H2 3646   0.442   4.150   0.742  0.4130 -0.1845 -0.7859
 1228TIP3   OH2 3647   5.169   6.169   3.088 -0.5073  0.6033  0.1847
 1228TIP3    H1 3648   5.214   6.087   3.107 -0.7353  0.7878  1.6099
 1228TIP3    H2 3649   5.136   6.158   2.999 -1.9324 -1.5149  0.8900
 1229TIP3   OH2 3650   6.258   6.009   4.396  0.9478  0.3495  0.0972
 1229TIP3    H1 3651   6.324   6.009   4.327  1.3816 -1.1106  0.4753
 1229TIP3    H2 3652   6.194   5.944   4.369 -1.1375  2.6754 -0.9219
 1230TIP3   OH2 3653   4.973   2.317   2.889  0.4323 -0.7535 -0.4564
 1230TIP3    H1 3654   4.999   2.329   2.980 -1.7445  0.2203  0.0860
 1230TIP3    H2 3655   4.936   2.229   2.886 -1.9059  0.1470  0.2722
 1231TIP3   OH2 3656   6.030   3.824   0.692  0.3784 -0.3107  0.0070
 1231TIP3    H1 3657   5.969   3.898   0.687  0.6067  0.0063  1.4228
 1231TIP3    H2 3658   6.112   3.864   0.721  0.8291 -0.9645 -0.3561
 1232TIP3   OH2 3659   0.158   0.499   0.210  0.2327 -0.3292 -0.4925
 1232TIP3    H1 3660   0.078   0.468   0.252  0.2281  1.7109  1.1133
 1232TIP3    H2 3661   0.227   0.486   0.275  0.0955  3.6383  0.6871
 1233TIP3   OH2 3662   5.023   2.853   0.655 -0.2778  0.4755  0.4915
 1233TIP3    H1 3663   5.068   2.791   0.598 -0.0617  0.0082  1.1630
 1233TIP3    H2 3664   5.092   2.894   0.707 -0.1281  2.9612 -1.4718
 1234TIP3   OH2 3665   1.011   4.320   1.468  0.5801 -0.3823 -0.3094
 1234TIP3    H1 3666   1.096   4.324   1.512  0.2427 -0.2486  0.3324
 1234TIP3    H2 3667   0.958   4.387   1.511 -0.1112 -1.0083 -0.1585
 1235TIP3   OH2 3668   6.611   2.933   2.790  0.0315 -0.1655 -0.4443
 1235TIP3    H1 3669   6.596   2.908   2.881  0.0219 -1.6328 -0.8290
 1235TIP3    H2 3670   6.530   2.978   2.764  0.7099  1.8838  0.7671
 1236TIP3   OH2 3671   4.087   5.732   5.033  0.1932  0.4014 -0.0306
 1236TIP3    H1 3672   4.001   5.719   4.993  1.2435 -0.0385 -2.3149
 1236TIP3    H2 3673   4.127   5.645   5.031  0.2757  0.3485  2.1355
 1237TIP3   OH2 3674   3.274   2.118   2.101  0.1258 -0.0991 -0.4264
 1237TIP3    H1 3675   3.340   2.108   2.032 -0.2480 -1.0008 -0.6619
 1237TIP3    H2 3676   3.207   2.053   2.080 -0.6589  0.5427  0.0272
 1238TIP3   OH2 3677   4.554   6.098   3.340  0.3165  0.3942 -0.7238
 1238TIP3    H1 3678   4.525   6.098   3.431  1.0946 -0.2065 -0.4587
 1238TIP3    H2 3679   4.475   6.115   3.289 -0.3598 -0.4975 -0.0063
 1239TIP3   OH2 3680   0.571   6.204   1.203  0.4057 -0.1205 -0.2889
 1239TIP3    H1 3681   0.480   6.177   1.195  0.9412 -2.2852  0.2553
 1239TIP3    H2 3682   0.568   6.299   1.207 -1.8501 -0.1621 -0.0177
 1240TIP3   OH2 3683   7.222   5.705   4.973  0.2741 -0.4592  0.6889
 1240TIP3    H1 3684   7.157   5.634   4.972  0.2420 -0.4303  0.7510
 1240TIP3    H2 3685   7.184   5.771   5.031  0.1642 -0.2604  0.3976
 1241TIP3   OH2 3686   4.133   2.716   2.004  0.0467 -0.1849  0.3421
 1241TIP3    H1 3687   4.225   2.698   1.982  0.6739  1.7960  1.1300
 1241TIP3    H2 3688   4.097   2.755   1.924 -0.3582 -1.6608 -0.2242
 1242TIP3   OH2 3689   0.994   0.052   2.892  0.3140  0.5575 -0.0465
 1242TIP3    H1 3690   0.926   0.026   2.830  1.7460 -0.1715 -1.3936
 1242TIP3    H2 3691   0.956   0.038   2.978 -1.1119 -0.1204 -0.7606
 1243TIP3   OH2 3692   2.916   1.934   2.214 -0.2398 -0.2492  0.2244
 1243TIP3    H1 3693   2.838   1.966   2.168 -0.6128  0.4174  1.2989
 1243TIP3    H2 3694   2.934   2.001   2.280  0.7677 -0.7989  0.5200
 1244TIP3   OH2 3695   5.045   6.627   2.265  0.6043  0.2427 -0.0657
 1244TIP3    H1 3696   5.013   6.698   2.210 -2.2566  0.4463  1.6339
 1244TIP3    H2 3697   5.020   6.547   2.218 -0.1268  0.4182  0.0005
 1245TIP3   OH2 3698   2.097   6.119   0.466  0.5861  0.2635  0.3321
 1245TIP3    H1 3699   2.097   6.152   0.556 -1.0141 -0.3211  0.5812
 1245TIP3    H2 3700   2.007   6.134   0.435  0.4938 -1.5230 -0.3997
 1246TIP3   OH2 3701   1.511   3.348   2.219 -0.4162 -0.1376  0.5400
 1246TIP3    H1 3702   1.517   3.254   2.232 -0.8615  0.0938  2.9534
 1246TIP3    H2 3703   1.514   3.360   2.124 -0.3948 -2.5630  0.1808
 1247TIP3   OH2 3704   3.678   3.857   0.483 -0.2321 -0.2732 -0.3204
 1247TIP3    H1 3705   3.675   3.949   0.509  1.0348 -0.4051  0.3694
 1247TIP3    H2 3706   3.760   3.848   0.434 -0.2605 -1.0674 -0.2469
 1248TIP3   OH2 3707   3.040   3.203   3.937 -0.0950  0.1471 -0.3812
 1248TIP3    H1 3708   3.103   3.269   3.908 -0.1112  0.3843  0.1189
 1248TIP3    H2 3709   2.974   3.200   3.868 -0.0909  0.6457 -0.4057
 1249TIP3   OH2 3710   0.512   6.718   4.760 -0.4551  0.2009  0.1612
 1249TIP3    H1 3711   0.536   6.686   4.847 -1.6859 -0.4443  0.2820
 1249TIP3    H2 3712   0.565   6.796   4.748 -0.6186  0.5752  1.6977
 1250TIP3   OH2 3713   4.477   4.582   4.056 -0.0643 -0.2840 -0.3162
 1250TIP3    H1 3714   4.427   4.559   4.134 -0.5565 -1.0385 -0.8332
 1250TIP3    H2 3715   4.560   4.535   4.066  0.0945  0.0673  0.0150
 1251TIP3   OH2 3716   0.890   4.710   4.830 -0.0185 -0.4331 -0.0145
 1251TIP3    H1 3717   0.838   4.767   4.886  1.2062 -1.9191  2.8452
 1251TIP3    H2 3718   0.853   4.622   4.843  1.4304 -1.0862 -0.0678
 1252TIP3   OH2 3719   7.052   5.442   1.897  0.2546 -0.5591  0.0958
 1252TIP3    H1 3720   7.009   5.364   1.932 -0.2624 -1.2969 -2.0433
 1252TIP3    H2 3721   6.981   5.493   1.857  0.6843  0.7041  0.8845
 1253TIP3   OH2 3722   0.879   4.024   1.584 -0.3784  0.3881 -0.5129
 1253TIP3    H1 3723   0.914   4.068   1.507 -0.1304  1.0405 -0.0335
 1253TIP3    H2 3724   0.893   3.931   1.566 -1.3307  0.4573 -1.7419
 1254TIP3   OH2 3725   6.367   4.275   0.596  0.1998 -0.2491 -0.1977
 1254TIP3    H1 3726   6.434   4.206   0.601  1.3493  0.6851 -1.7549
 1254TIP3    H2 3727   6.385   4.320   0.513 -0.7969  1.6451  0.5519
 1255TIP3   OH2 3728   3.944   4.539   0.291  0.2823 -0.3767 -0.2687
 1255TIP3    H1 3729   3.954   4.628   0.256  0.0985 -0.0096  0.5954
 1255TIP3    H2 3730   3.881   4.497   0.232 -0.5328  0.4455 -0.0125
 1256TIP3   OH2 3731   4.697   5.807   1.332  0.2704  0.2097  0.3627
 1256TIP3    H1 3732   4.680   5.898   1.356 -1.8260 -0.1075  0.2402
 1256TIP3    H2 3733   4.618   5.780   1.285  2.1704 -0.7016 -2.5620
 1257TIP3   OH2 3734   2.255   0.504   5.396  0.5592 -0.5056  0.0113
 1257TIP3    H1 3735   2.233   0.593   5.423 -1.6816 -1.5536  2.0102
 1257TIP3    H2 3736   2.350   0.498   5.405  0.6735  1.4581  0.5137
 1258TIP3   OH2 3737   5.639   5.230   4.498 -0.2145  0.2092 -0.3655
 1258TIP3    H1 3738   5.582   5.197   4.429  0.7507  0.8071 -1.4939
 1258TIP3    H2 3739   5.676   5.152   4.540  0.1887 -0.1641 -1.3980
 1259TIP3   OH2 3740   5.347   3.521   1.715  0.2437  0.3742  0.2194
 1259TIP3    H1 3741   5.312   3.593   1.662 -2.4913 -0.4238  0.7796
 1259TIP3    H2 3742   5.408   3.476   1.657  1.7148  2.8292 -0.2876
 1260TIP3   OH2 3743   1.872   3.918   0.557 -0.2373 -0.7050 -0.4707
 1260TIP3    H1 3744   1.822   3.995   0.584 -0.9875 -1.0043 -0.9734
 1260TIP3    H2 3745   1.957   3.953   0.529 -0.5096 -0.0808 -0.5298
 1261TIP3   OH2 3746   3.489   5.199   2.516  0.3049 -0.4346  0.1505
 1261TIP3    H1 3747   3.499   5.107   2.538  0.7426 -0.7257 -1.1710
 1261TIP3    H2 3748   3.575   5.225   2.482  0.6016  0.8276  1.6973
 1262TIP3   OH2 3749   2.225   2.361   1.430 -0.1344  0.3584 -0.4714
 1262TIP3    H1 3750   2.205   2.394   1.343 -2.6133  0.6076  0.1310
 1262TIP3    H2 3751   2.223   2.439   1.486 -1.0262 -0.1261  0.1811
 1263TIP3   OH2 3752   0.050   3.975   5.414  0.4417  0.4254 -0.3430
 1263TIP3    H1 3753   0.028   3.998   5.505  2.7956  2.3406 -0.1622
 1263TIP3    H2 3754  -0.012   4.024   5.361  1.7043  2.7567  0.2088
 1264TIP3   OH2 3755   4.454   5.797   1.171 -0.0245  0.2936 -0.3924
 1264TIP3    H1 3756   4.387   5.860   1.144 -0.4776  0.3346  0.7370
 1264TIP3    H2 3757   4.409   5.713   1.168  0.6538 -0.0449 -2.1467
 1265TIP3   OH2 3758   1.132   4.926   3.861  0.3391  0.6025 -0.0303
 1265TIP3    H1 3759   1.095   5.003   3.818 -0.1936  0.4870  0.2128
 1265TIP3    H2 3760   1.212   4.957   3.903 -0.0611  1.1082  0.3677
 1266TIP3   OH2 3761   0.116   0.175   5.216 -0.2899  0.3571 -0.0191
 1266TIP3    H1 3762   0.076   0.227   5.146 -2.1113 -1.1011 -0.1459
 1266TIP3    H2 3763   0.182   0.121   5.171 -1.4009 -0.5216 -0.6425
 1267TIP3   OH2 3764   6.709   4.641   0.117 -0.2252 -0.5142  0.4033
 1267TIP3    H1 3765   6.656   4.693   0.178  1.6376 -0.2327  1.8584
 1267TIP3    H2 3766   6.795   4.684   0.117  0.7520 -2.3779  0.0169
 1268TIP3   OH2 3767   5.560   6.636   4.690  0.2965 -0.6983 -0.3471
 1268TIP3    H1 3768   5.527   6.686   4.765 -1.1899  0.2293 -1.5688
 1268TIP3    H2 3769   5.625   6.694   4.650  1.4414 -1.3880  0.4556
 1269TIP3   OH2 3770   3.971   4.080   5.355 -0.1784  0.2770  0.7171
 1269TIP3    H1 3771   4.038   4.077   5.422  1.0533 -3.8120 -0.3765
 1269TIP3    H2 3772   4.015   4.049   5.275 -2.5935  0.6318 -0.8728
 1270TIP3   OH2 3773   7.074   2.295   3.373  0.3937 -0.0793  0.4095
 1270TIP3    H1 3774   7.047   2.204   3.369 -0.5081  0.2375 -1.3306
 1270TIP3    H2 3775   7.023   2.332   3.446 -4.6464  0.6217 -2.9735
 1271TIP3   OH2 3776   5.309   6.743   1.301  0.3083 -0.5352 -0.1552
 1271TIP3    H1 3777   5.393   6.746   1.256  0.6629  0.3366  0.5348
 1271TIP3    H2 3778   5.245   6.765   1.234  0.6755 -0.7171 -0.5710
 1272TIP3   OH2 3779   5.187   3.537   2.783  0.8994  0.0846 -0.0291
 1272TIP3    H1 3780   5.183   3.541   2.879  0.7618 -1.9868  0.0872
 1272TIP3    H2 3781   5.233   3.617   2.758 -0.5291  1.5292  1.6397
 1273TIP3   OH2 3782   4.240   2.701   3.032  0.5863 -0.0793  0.2558
 1273TIP3    H1 3783   4.325   2.736   3.003  0.6320 -0.9729 -0.7308
 1273TIP3    H2 3784   4.214   2.760   3.103  1.1017  1.3861 -0.7209
 1274TIP3   OH2 3785   5.838   5.559   1.846 -0.5966  0.0417  0.6306
 1274TIP3    H1 3786   5.874   5.491   1.789 -1.8478 -0.1343  0.0105
 1274TIP3    H2 3787   5.904   5.570   1.915  0.3707 -0.6343 -0.1546
 1275TIP3   OH2 3788   1.007   3.824   5.874  0.2743 -0.2693  0.0762
 1275TIP3    H1 3789   1.075   3.891   5.874  0.3508 -0.3500  0.6646
 1275TIP3    H2 3790   0.925   3.873   5.865  0.3111 -0.0717  0.7636
 1276TIP3   OH2 3791   0.489   2.073   0.994  0.1208  0.1955  0.5106
 1276TIP3    H1 3792   0.443   2.154   0.973  1.5648  0.7479 -0.7085
 1276TIP3    H2 3793   0.576   2.101   1.023 -0.1168 -0.8377  2.3514
 1277TIP3   OH2 3794   0.231   6.744   2.387 -0.6684  0.4492  0.5778
 1277TIP3    H1 3795   0.273   6.796   2.456 -0.6024 -1.4204  2.0250
 1277TIP3    H2 3796   0.195   6.668   2.432  0.4186 -1.4875 -1.5864
 1278TIP3   OH2 3797   0.459   4.675   2.144 -0.4212 -0.5663 -0.1470
 1278TIP3    H1 3798   0.531   4.619   2.114 -0.8185 -0.7330 -0.8278
 1278TIP3    H2 3799   0.406   4.618   2.199 -0.8325 -0.8721 -0.8505
 1279TIP3   OH2 3800   3.097   2.363   4.762 -0.4925  0.0527 -0.0440
 1279TIP3    H1 3801   3.003   2.354   4.752 -0.4920  1.2195 -1.4451
 1279TIP3    H2 3802   3.134   2.294   4.706 -0.4790 -1.1101  1.3399
 1280TIP3   OH2 3803   0.253   3.476   4.643 -0.2148  0.2322 -0.2204
 1280TIP3    H1 3804   0.329   3.490   4.588  0.3793  1.4561  0.8624
 1280TIP3    H2 3805   0.205   3.559   4.639 -1.5547 -0.5481 -0.9501
 1281TIP3   OH2 3806   6.369   4.149   5.255  0.6477  0.6672 -0.1854
 1281TIP3    H1 3807   6.286   4.163   5.300  1.3367  0.4007  1.1944
 1281TIP3    H2 3808   6.355   4.188   5.168 -0.6724  1.2596  0.2595
 1282TIP3   OH2 3809   5.641   4.344   1.807  0.1471  1.3278 -0.3404
 1282TIP3    H1 3810   5.564   4.386   1.845 -0.5118  0.3324 -0.5341
 1282TIP3    H2 3811   5.607   4.268   1.760  1.2857  0.5883 -0.0417
 1283TIP3   OH2 3812   3.116   0.722   2.713  0.4567 -0.3928 -0.2068
 1283TIP3    H1 3813   3.074   0.688   2.792 -0.0654 -0.2509 -0.4178
 1283TIP3    H2 3814   3.205   0.743   2.740 -0.3242  1.7398  0.9510
 1284TIP3   OH2 3815   2.327   5.241   2.617 -0.8358  0.6695 -0.2484
 1284TIP3    H1 3816   2.327   5.164   2.560 -0.3506  0.8911 -0.5619
 1284TIP3    H2 3817   2.393   5.221   2.684 -1.0226  0.6314 -0.0762
 1285TIP3   OH2 3818   0.964   0.414   4.283 -0.0366  0.1849 -0.3983
 1285TIP3    H1 3819   0.922   0.476   4.224 -1.0323 -0.2491 -0.1670
 1285TIP3    H2 3820   0.922   0.330   4.264  0.6827 -0.2530 -0.1103
 1286TIP3   OH2 3821   3.772   5.869   4.436  0.3848 -0.1771 -0.4469
 1286TIP3    H1 3822   3.856   5.896   4.400 -0.5354  2.4770 -0.8524
 1286TIP3    H2 3823   3.779   5.887   4.530  0.9692 -2.0138 -0.1156
 1287TIP3   OH2 3824   3.281   0.224   0.625  0.3850  0.0202 -0.0615
 1287TIP3    H1 3825   3.352   0.159   0.626 -1.0860 -1.6897 -0.2376
 1287TIP3    H2 3826   3.205   0.176   0.658 -0.4579  2.1145  1.2268
 1288TIP3   OH2 3827   2.798   1.550   4.598  0.1356 -0.2566  0.4049
 1288TIP3    H1 3828   2.825   1.514   4.513 -0.2065 -0.0375  0.1978
 1288TIP3    H2 3829   2.702   1.551   4.593  0.1337  0.3635  0.5382
 1289TIP3   OH2 3830   3.360   5.411   0.572  0.0807 -0.0981 -0.1055
 1289TIP3    H1 3831   3.371   5.425   0.478 -0.7392 -1.4324 -0.4436
 1289TIP3    H2 3832   3.265   5.420   0.586  0.1899  0.0122  0.5715
 1290TIP3   OH2 3833   4.494   5.051   0.456  0.0621  0.2360 -0.1569
 1290TIP3    H1 3834   4.569   5.075   0.511  0.7161 -0.2981 -0.8115
 1290TIP3    H2 3835   4.428   5.117   0.478 -0.1224 -0.6213  2.1208
 1291TIP3   OH2 3836   1.564   5.595   2.893 -0.2159  0.1137  0.3794
 1291TIP3    H1 3837   1.594   5.557   2.976  1.3478  1.4917  0.4896
 1291TIP3    H2 3838   1.624   5.668   2.877 -2.3230  1.7790 -0.4324
 1292TIP3   OH2 3839   6.303   2.000   3.187 -0.3230 -0.9125 -0.6223
 1292TIP3    H1 3840   6.392   1.970   3.167  1.2964  1.4189  2.2471
 1292TIP3    H2 3841   6.278   1.949   3.265 -0.9668 -0.5915 -0.6146
 1293TIP3   OH2 3842   2.549   6.261   2.718  0.3352 -0.5658 -0.3039
 1293TIP3    H1 3843   2.640   6.272   2.693  0.0615 -0.2607 -1.1996
 1293TIP3    H2 3844   2.501   6.325   2.666 -0.0881  1.4382  2.3151
 1294TIP3   OH2 3845   6.898   5.958   0.901 -0.2826 -0.0307  0.3625
 1294TIP3    H1 3846   6.873   6.048   0.877 -0.1276 -0.1365 -0.2139
 1294TIP3    H2 3847   6.989   5.965   0.928 -0.5363  0.1344  1.1944
 1295TIP3   OH2 3848   0.999   2.539   4.718  0.3456  0.4363 -0.1608
 1295TIP3    H1 3849   0.955   2.489   4.650  1.1049 -0.6016  0.0930
 1295TIP3    H2 3850   0.945   2.526   4.796  0.2815  0.4111 -0.2094
 1296TIP3   OH2 3851   6.269   4.685   2.019  0.0766 -0.6432  0.0564
 1296TIP3    H1 3852   6.259   4.603   2.067  0.7523 -0.1307  1.1114
 1296TIP3    H2 3853   6.364   4.700   2.018 -0.0739  0.3134  0.1915
 1297TIP3   OH2 3854   4.702   4.265   3.815 -0.9222 -0.3071 -0.1092
 1297TIP3    H1 3855   4.617   4.249   3.856 -0.7992 -0.5297  0.0560
 1297TIP3    H2 3856   4.738   4.339   3.863 -1.1765  0.0140 -0.4078
 1298TIP3   OH2 3857   6.448   2.661   3.567  0.4475 -0.5857  0.5030
 1298TIP3    H1 3858   6.506   2.630   3.497  0.3612  1.2204 -0.4484
 1298TIP3    H2 3859   6.365   2.617   3.551 -0.5701  1.9871 -2.5777
 1299TIP3   OH2 3860   2.498   1.706   3.515 -0.1302 -0.1540 -0.6108
 1299TIP3    H1 3861   2.574   1.741   3.468  1.5824  0.8642  2.6302
 1299TIP3    H2 3862   2.526   1.619   3.545 -0.9862 -0.5591 -0.9448
 1300TIP3   OH2 3863   6.297   1.654   0.453 -0.2647 -0.0253  0.2010
 1300TIP3    H1 3864   6.343   1.570   0.457 -2.0148 -1.0415 -0.0234
 1300TIP3    H2 3865   6.293   1.675   0.360 -0.9092 -0.3325  0.1547
 1301TIP3   OH2 3866   3.557   2.793   4.321  0.3269 -0.1437  0.3766
 1301TIP3    H1 3867   3.599   2.871   4.358  1.9325 -0.5835 -0.4009
 1301TIP3    H2 3868   3.587   2.721   4.377 -2.3158 -0.1076  1.9907
 1302TIP3   OH2 3869   0.722   6.536   1.830  0.2358  0.3750 -0.4904
 1302TIP3    H1 3870   0.659   6.468   1.853 -0.1726  0.7784 -0.4012
 1302TIP3    H2 3871   0.757   6.567   1.915 -0.3828  1.0259 -0.4638
 1303TIP3   OH2 3872   3.444   1.459   3.277 -0.2154 -0.3736 -0.3934
 1303TIP3    H1 3873   3.475   1.418   3.196 -0.9084  0.0555 -0.8794
 1303TIP3    H2 3874   3.379   1.523   3.249 -1.7053 -1.3788  0.6041
 1304TIP3   OH2 3875   1.337   4.509   2.199 -0.5234  0.1861 -0.0111
 1304TIP3    H1 3876   1.280   4.585   2.209  0.3399  1.0007 -1.1131
 1304TIP3    H2 3877   1.424   4.540   2.223  0.6689  0.8230 -4.3288
 1305TIP3   OH2 3878   1.470   2.016   5.823  0.1087  0.3794  0.7385
 1305TIP3    H1 3879   1.556   2.006   5.862  0.8559 -0.5899 -1.0489
 1305TIP3    H2 3880   1.446   1.928   5.793 -0.6458  0.9667 -0.4696
 1306TIP3   OH2 3881   1.803   1.584   4.257 -0.0662 -0.2980 -0.5212
 1306TIP3    H1 3882   1.875   1.629   4.213  0.6795  0.0879  1.0205
 1306TIP3    H2 3883   1.747   1.553   4.186  0.3627  1.4487 -1.7036
 1307TIP3   OH2 3884   6.432   5.351   5.157 -0.3028 -0.4338  0.4017
 1307TIP3    H1 3885   6.353   5.307   5.126  0.1621 -1.0211  0.0307
 1307TIP3    H2 3886   6.478   5.286   5.209  0.9762 -0.8010 -1.1284
 1308TIP3   OH2 3887   2.258   5.408   4.823 -0.9775  0.3155  0.1057
 1308TIP3    H1 3888   2.264   5.475   4.891 -0.0467  0.2710  0.0814
 1308TIP3    H2 3889   2.302   5.447   4.747  0.2726 -0.6072  0.3268
 1309TIP3   OH2 3890   5.798   1.094   1.451  0.5679  0.3202 -0.3708
 1309TIP3    H1 3891   5.843   1.159   1.398 -0.6042  1.2218 -0.2971
 1309TIP3    H2 3892   5.777   1.023   1.390  0.7464  0.5716 -0.7276
 1310TIP3   OH2 3893   1.443   5.996   3.771 -0.2886  0.1427  0.1169
 1310TIP3    H1 3894   1.366   5.961   3.726 -0.0598 -0.2608  0.0308
 1310TIP3    H2 3895   1.499   5.919   3.785 -0.1107  0.3562  0.5936
 1311TIP3   OH2 3896   6.559   2.795   3.779 -0.0251 -0.0754 -0.0580
 1311TIP3    H1 3897   6.478   2.818   3.825  0.0140 -1.3348  0.6680
 1311TIP3    H2 3898   6.529   2.760   3.695 -0.3205 -1.6170  0.6590
 1312TIP3   OH2 3899   5.863   5.268   5.267 -0.2907 -0.0946  0.3557
 1312TIP3    H1 3900   5.949   5.261   5.226 -1.1456 -1.4811 -1.3407
 1312TIP3    H2 3901   5.810   5.315   5.203 -0.4333  2.3060  2.1023
 1313TIP3   OH2 3902   3.924   4.346   5.508 -0.4331  0.4795  0.0829
 1313TIP3    H1 3903   3.934   4.283   5.436  1.5370  0.4682  0.3321
 1313TIP3    H2 3904   3.959   4.428   5.473 -0.0257  0.6274  0.8314
 1314TIP3   OH2 3905   1.857   6.365   2.249  0.1000  0.3717 -0.3084
 1314TIP3    H1 3906   1.824   6.401   2.167 -0.9532 -1.3407 -0.6890
 1314TIP3    H2 3907   1.796   6.295   2.271  0.9653  0.0892  1.3909
 1315TIP3   OH2 3908   4.660   2.113   1.525 -0.4571 -0.6076 -0.2544
 1315TIP3    H1 3909   4.702   2.027   1.529  3.6055  1.1682  2.1070
 1315TIP3    H2 3910   4.574   2.099   1.565  0.2598 -3.4457  0.5639
 1316TIP3   OH2 3911   6.752   3.400   4.981 -0.4487 -0.4769 -0.1611
 1316TIP3    H1 3912   6.751   3.367   5.071  0.6163 -0.7139 -0.2143
 1316TIP3    H2 3913   6.666   3.438   4.968 -1.0016 -1.4380  0.5864
 1317TIP3   OH2 3914   3.550   1.850   4.193  0.0813 -0.3643 -0.2996
 1317TIP3    H1 3915   3.619   1.886   4.138 -0.1506 -0.1416 -0.4491
 1317TIP3    H2 3916   3.560   1.755   4.185  0.7126 -0.3379  0.1221
 1318TIP3   OH2 3917   6.232   4.962   5.859 -0.4547  0.2309 -0.2067
 1318TIP3    H1 3918   6.136   4.963   5.864 -0.6172  1.5723 -2.3028
 1318TIP3    H2 3919   6.251   4.900   5.788  0.0050  2.2325 -1.9237
 1319TIP3   OH2 3920   0.268   0.191   4.604  0.0782  0.2664 -0.2191
 1319TIP3    H1 3921   0.290   0.232   4.521  0.5252 -0.1170 -0.2938
 1319TIP3    H2 3922   0.268   0.097   4.585  0.7687  0.1451  0.3503
 1320TIP3   OH2 3923   0.672   5.652   5.693  0.6695  0.0495 -0.0388
 1320TIP3    H1 3924   0.600   5.715   5.699 -2.1086 -2.6464 -1.7655
 1320TIP3    H2 3925   0.740   5.698   5.644 -0.2138  2.4394  0.8229
 1321TIP3   OH2 3926   3.336   4.544   1.884 -0.1623  0.2986  0.2123
 1321TIP3    H1 3927   3.430   4.546   1.863 -0.3097 -1.5499 -0.8581
 1321TIP3    H2 3928   3.293   4.550   1.799 -0.9475 -1.0695  0.4903
 1322TIP3   OH2 3929   3.842   0.122   3.680  0.2870 -0.1365 -0.5610
 1322TIP3    H1 3930   3.791   0.051   3.641 -0.1868 -0.0854 -0.0498
 1322TIP3    H2 3931   3.857   0.094   3.770  2.3966 -0.7987 -1.0767
 1323TIP3   OH2 3932   6.989   5.173   2.213  0.2710 -0.1588 -0.1761
 1323TIP3    H1 3933   7.079   5.204   2.221  0.0013  0.2830  1.5770
 1323TIP3    H2 3934   6.977   5.157   2.120  1.7105  1.1436 -0.6200
 1324TIP3   OH2 3935   5.057   2.950   2.403 -0.7698  0.3971  0.3159
 1324TIP3    H1 3936   5.028   3.039   2.386 -1.2434 -0.0284 -1.2503
 1324TIP3    H2 3937   5.033   2.934   2.495  0.1686  2.1747  0.8979
 1325TIP3   OH2 3938   1.680   3.425   1.025 -0.0334 -0.7838  0.9052
 1325TIP3    H1 3939   1.673   3.338   1.063 -0.9224 -1.4649 -0.7355
 1325TIP3    H2 3940   1.687   3.410   0.931  0.1605  0.9004  0.6234
 1326TIP3   OH2 3941   2.875   1.668   0.988 -0.1715 -0.0674 -0.5534
 1326TIP3    H1 3942   2.920   1.732   1.043 -2.7334  2.0699 -0.7328
 1326TIP3    H2 3943   2.813   1.719   0.937 -0.8514 -2.4857 -2.3634
 1327TIP3   OH2 3944   2.237   4.891   4.081  0.4329  0.2614 -0.2757
 1327TIP3    H1 3945   2.272   4.930   4.000 -0.1647  1.4077  0.0009
 1327TIP3    H2 3946   2.309   4.837   4.114  1.3271  1.2168 -0.6213
 1328TIP3   OH2 3947   4.861   3.524   3.821 -0.1753 -0.3726 -0.6165
 1328TIP3    H1 3948   4.921   3.510   3.747 -0.6261  0.9518 -1.2541
 1328TIP3    H2 3949   4.789   3.576   3.785 -0.9734 -0.6673  0.4956
 1329TIP3   OH2 3950   0.023   3.503   5.634 -0.0496  0.5800 -0.7192
 1329TIP3    H1 3951   0.052   3.488   5.544  0.5519 -1.5255 -0.2166
 1329TIP3    H2 3952   0.013   3.415   5.671  0.4802  1.4057  1.5198
 1330TIP3   OH2 3953   6.788   0.275   1.485 -0.9811  0.4924  0.2207
 1330TIP3    H1 3954   6.780   0.211   1.556  1.5011 -1.2048 -0.8836
 1330TIP3    H2 3955   6.719   0.249   1.423 -0.4332 -0.7675  0.0936
 1331TIP3   OH2 3956   0.270   5.632   1.198  0.1235  0.5745  0.7461
 1331TIP3    H1 3957   0.188   5.585   1.209 -1.0494  2.3500 -0.0333
 1331TIP3    H2 3958   0.303   5.643   1.287 -1.0773  0.8404  1.1796
 1332TIP3   OH2 3959   6.979   2.524   0.187 -0.2364  0.4910 -0.1140
 1332TIP3    H1 3960   6.909   2.484   0.238  1.0084 -0.6341  0.7870
 1332TIP3    H2 3961   6.946   2.525   0.097 -1.4236  0.0465  0.3025
 1333TIP3   OH2 3962   0.265   3.382   2.863 -0.4262  0.2842  0.6700
 1333TIP3    H1 3963   0.325   3.443   2.907  1.1543 -1.5713  1.2274
 1333TIP3    H2 3964   0.208   3.350   2.934  1.6106 -2.1062  1.3936
 1334TIP3   OH2 3965   1.733   3.179   1.510 -1.0761  0.4973  0.0838
 1334TIP3    H1 3966   1.729   3.100   1.564  2.3860 -0.0555 -0.2844
 1334TIP3    H2 3967   1.776   3.151   1.430  0.6144  2.8061  0.1107
 1335TIP3   OH2 3968   5.313   2.066   1.203  0.1737  0.1541 -0.1541
 1335TIP3    H1 3969   5.265   2.132   1.154  1.7396  1.7594  0.3582
 1335TIP3    H2 3970   5.402   2.100   1.208  1.1642 -2.2731 -0.2914
 1336TIP3   OH2 3971   0.545   6.161   3.576  0.3125  0.1888  0.5416
 1336TIP3    H1 3972   0.638   6.179   3.572 -0.0379  2.2829  0.7486
 1336TIP3    H2 3973   0.523   6.124   3.491  1.0065  1.5192 -0.2497
 1337TIP3   OH2 3974   4.286   2.846   3.571  0.3926 -0.1776 -0.3464
 1337TIP3    H1 3975   4.208   2.815   3.525  1.1332 -1.2723 -0.9123
 1337TIP3    H2 3976   4.347   2.870   3.501  1.1690 -0.9250  0.0553
 1338TIP3   OH2 3977   1.890   4.472   1.909 -0.8033 -0.2056  0.0395
 1338TIP3    H1 3978   1.916   4.381   1.922 -0.4255  0.1694  2.3348
 1338TIP3    H2 3979   1.801   4.467   1.873 -1.8970 -1.5422  2.6919
 1339TIP3   OH2 3980   5.960   3.717   5.640  0.0584 -0.0524  0.2577
 1339TIP3    H1 3981   5.888   3.655   5.649 -1.3131  1.6626  1.9064
 1339TIP3    H2 3982   5.960   3.740   5.547 -1.7450  0.1082  0.2552
 1340TIP3   OH2 3983   0.526   1.699   4.269 -0.3394  0.7989  0.0023
 1340TIP3    H1 3984   0.566   1.738   4.192 -1.1364  0.2321 -0.7191
 1340TIP3    H2 3985   0.451   1.756   4.289 -0.5044  0.5941 -0.0256
 1341TIP3   OH2 3986   3.043   0.150   1.724  0.9736 -0.1015 -0.1818
 1341TIP3    H1 3987   3.109   0.128   1.790  0.8072 -1.4029 -0.4255
 1341TIP3    H2 3988   3.043   0.075   1.665 -0.0247  0.3341 -0.7517
 1342TIP3   OH2 3989   0.820   0.255   1.673 -0.3297 -0.0442  0.2857
 1342TIP3    H1 3990   0.871   0.305   1.737  2.2319  0.5216 -2.0046
 1342TIP3    H2 3991   0.837   0.164   1.696 -0.5611  0.1271  1.1963
 1343TIP3   OH2 3992   1.752   0.504   4.389 -0.4157  0.2937  0.4619
 1343TIP3    H1 3993   1.728   0.559   4.314 -1.2546  1.3118  1.4367
 1343TIP3    H2 3994   1.677   0.445   4.399  0.9020 -1.7812 -1.1910
 1344TIP3   OH2 3995   2.863   1.671   5.365  0.3358 -0.4977 -0.3957
 1344TIP3    H1 3996   2.804   1.606   5.404 -1.5318  1.7095  0.7189
 1344TIP3    H2 3997   2.847   1.664   5.271  0.5727 -1.9892 -0.3435
 1345TIP3   OH2 3998   3.427   2.576   2.384 -0.4028  0.2777 -0.0828
 1345TIP3    H1 3999   3.404   2.614   2.470  0.4132  1.3224 -0.3104
 1345TIP3    H2 4000   3.368   2.501   2.375 -1.5307  1.0256  0.7449
 1346TIP3   OH2 4001   4.380   4.026   4.100  0.2125  0.6341  0.2921
 1346TIP3    H1 4002   4.340   3.960   4.044  0.5780 -0.3178  1.1137
 1346TIP3    H2 4003   4.313   4.093   4.110  0.4700  1.3509 -2.0561
 1347TIP3   OH2 4004   5.172   0.948   2.751 -0.0322  0.3335 -0.4329
 1347TIP3    H1 4005   5.094   0.919   2.798 -0.1836  1.6455  0.1607
 1347TIP3    H2 4006   5.195   0.873   2.696 -0.1485 -1.0879  1.3291
 1348TIP3   OH2 4007   0.676   0.177   4.761  0.0936 -0.0274 -0.5403
 1348TIP3    H1 4008   0.689   0.203   4.670 -0.3711  0.8597 -0.3600
 1348TIP3    H2 4009   0.669   0.259   4.809 -0.0577 -0.4874  0.2484
 1349TIP3   OH2 4010   0.175   0.835   5.750  0.8021  0.1727  0.2286
 1349TIP3    H1 4011   0.151   0.753   5.708 -0.5756  1.0164 -0.7339
 1349TIP3    H2 4012   0.240   0.811   5.816  0.8354 -1.5940 -0.4085
 1350TIP3   OH2 4013   2.857   4.754   4.357  0.2284 -0.3007 -0.1008
 1350TIP3    H1 4014   2.843   4.660   4.341  0.1253 -0.3014 -0.0077
 1350TIP3    H2 4015   2.861   4.762   4.452 -0.2584 -0.1388 -0.0945
 1351TIP3   OH2 4016   1.834   5.669   4.354  0.3293 -0.1249 -0.2064
 1351TIP3    H1 4017   1.865   5.649   4.443 -0.7409 -2.8212 -0.3513
 1351TIP3    H2 4018   1.904   5.637   4.297  0.3480  0.2177 -0.3775
 1352TIP3   OH2 4019   4.040   1.114   2.939 -0.0758  0.1937 -0.2358
 1352TIP3    H1 4020   4.024   1.037   2.993 -0.2121 -0.0518 -0.6240
 1352TIP3    H2 4021   4.067   1.079   2.854  2.5167  0.5741  0.3483
 1353TIP3   OH2 4022   5.076   3.264   1.737 -0.3151 -0.1987  0.0477
 1353TIP3    H1 4023   5.168   3.239   1.743 -0.2383  0.1990  0.6052
 1353TIP3    H2 4024   5.034   3.191   1.692  0.2157 -0.5238  0.0719
 1354TIP3   OH2 4025   4.015   1.567   0.601  0.1018 -0.0028 -0.2254
 1354TIP3    H1 4026   4.059   1.624   0.663  2.1860 -0.9221 -0.7803
 1354TIP3    H2 4027   3.923   1.568   0.628  0.8921 -0.3635  2.8606
 1355TIP3   OH2 4028   0.320   0.779   0.875  0.2489 -0.6217 -0.1848
 1355TIP3    H1 4029   0.225   0.789   0.867  0.3625 -0.6799 -1.8982
 1355TIP3    H2 4030   0.334   0.760   0.968 -1.4260 -0.7953  0.0652
 1356TIP3   OH2 4031   0.565   3.648   3.444 -0.4402  0.1796 -0.1624
 1356TIP3    H1 4032   0.548   3.714   3.512 -0.5159  1.3655 -1.2949
 1356TIP3    H2 4033   0.649   3.674   3.406  0.1788 -1.1510  0.2113
 1357TIP3   OH2 4034   6.358   1.606   0.885  0.1238  0.9408 -0.1762
 1357TIP3    H1 4035   6.406   1.528   0.857  0.7142  1.8900 -1.9214
 1357TIP3    H2 4036   6.283   1.571   0.933  1.9148 -0.6167  1.7329
 1358TIP3   OH2 4037   1.460   1.474   0.637 -0.2928  0.0343  0.2043
 1358TIP3    H1 4038   1.554   1.479   0.616 -0.1031 -2.1335  0.2943
 1358TIP3    H2 4039   1.416   1.483   0.553 -0.0148  0.9563  0.1472
 1359TIP3   OH2 4040   5.413   5.118   0.668  0.0488  0.2191  0.6776
 1359TIP3    H1 4041   5.354   5.193   0.660  1.6044  1.4558  0.2627
 1359TIP3    H2 4042   5.447   5.105   0.579  0.4478 -0.4254  0.9212
 1360TIP3   OH2 4043   1.440   1.639   4.936  0.6626 -0.0949  0.2139
 1360TIP3    H1 4044   1.380   1.649   4.863  2.0568 -1.6431 -1.2305
 1360TIP3    H2 4045   1.470   1.728   4.955 -1.2608  0.5716  0.3118
 1361TIP3   OH2 4046   4.847   0.596   3.416 -0.3214 -0.2813  0.5903
 1361TIP3    H1 4047   4.852   0.636   3.330  0.9935  0.0763  0.8116
 1361TIP3    H2 4048   4.762   0.624   3.451 -0.4174  0.4101 -0.1716
 1362TIP3   OH2 4049   2.400   6.107   0.652 -0.1985  0.7428  0.5337
 1362TIP3    H1 4050   2.337   6.083   0.583  0.4716 -0.6258  0.3693
 1362TIP3    H2 4051   2.373   6.056   0.728 -1.0148  2.3514  1.3702
 1363TIP3   OH2 4052   0.815   3.026   1.103 -0.5146  0.3305  0.6102
 1363TIP3    H1 4053   0.860   3.090   1.048 -0.9872  0.6858  0.6333
 1363TIP3    H2 4054   0.767   2.970   1.042  1.6387 -1.4460  0.3864
 1364TIP3   OH2 4055   3.915   4.570   2.836 -0.4892  0.3690  0.7892
 1364TIP3    H1 4056   3.939   4.558   2.928 -1.0533 -1.0889  0.7775
 1364TIP3    H2 4057   3.826   4.536   2.830  0.1122 -1.0867 -0.6057
 1365TIP3   OH2 4058   0.749   2.181   4.500  0.2024  0.1553  0.1172
 1365TIP3    H1 4059   0.801   2.116   4.453  0.2156  0.0508  0.2760
 1365TIP3    H2 4060   0.679   2.131   4.541 -0.1762  0.3277 -0.3035
 1366TIP3   OH2 4061   2.944   0.504   3.740  0.1694  0.3523 -0.1078
 1366TIP3    H1 4062   2.951   0.409   3.727  2.1336  0.6477 -1.8850
 1366TIP3    H2 4063   3.020   0.526   3.793  0.6339  1.0987 -1.0541
 1367TIP3   OH2 4064   0.166   5.696   0.872  0.3504  0.0592 -0.2892
 1367TIP3    H1 4065   0.137   5.724   0.960 -2.2229  1.5945 -1.4872
 1367TIP3    H2 4066   0.119   5.614   0.857  0.6163 -0.0886 -0.3060
 1368TIP3   OH2 4067   1.406   4.221   3.319 -0.5646 -0.0681  0.2776
 1368TIP3    H1 4068   1.396   4.131   3.288 -0.4335 -0.3606  1.0511
 1368TIP3    H2 4069   1.489   4.250   3.282 -1.1965  0.1882 -1.0126
 1369TIP3   OH2 4070   2.121   4.820   3.599  0.4564 -0.0204 -0.2973
 1369TIP3    H1 4071   2.110   4.854   3.510  1.2506  0.1623 -0.3331
 1369TIP3    H2 4072   2.214   4.800   3.605  0.2891 -0.6311  0.2867
 1370TIP3   OH2 4073   5.579   4.791   4.421  0.5365 -0.2452  0.1676
 1370TIP3    H1 4074   5.602   4.725   4.486  2.0006  0.6484  0.5962
 1370TIP3    H2 4075   5.517   4.849   4.466  0.3301 -0.5213  0.2417
 1371TIP3   OH2 4076   1.851   1.173   1.437  1.0922  0.2337  0.3613
 1371TIP3    H1 4077   1.791   1.185   1.510  1.8285  1.1073  0.8328
 1371TIP3    H2 4078   1.938   1.187   1.474  1.4853  0.5233 -0.6389
 1372TIP3   OH2 4079   5.636   0.870   4.794 -0.2882 -0.2293 -0.3573
 1372TIP3    H1 4080   5.720   0.828   4.775 -0.5160 -0.4457 -0.9185
 1372TIP3    H2 4081   5.572   0.817   4.746 -0.9338 -0.9357  1.1929
 1373TIP3   OH2 4082   0.916   5.950   5.283  0.4154  0.4218  0.0883
 1373TIP3    H1 4083   0.822   5.962   5.301  0.4281  2.2798 -0.8712
 1373TIP3    H2 4084   0.923   5.859   5.256 -1.4848  0.7539 -1.8126
 1374TIP3   OH2 4085   6.472   6.616   1.709  0.1258  0.0571 -0.6162
 1374TIP3    H1 4086   6.483   6.678   1.782  1.1434  1.0985 -1.6039
 1374TIP3    H2 4087   6.433   6.539   1.749  0.9287  0.4826  1.0915
 1375TIP3   OH2 4088   6.849   4.637   2.520 -0.3271 -0.4548  0.0019
 1375TIP3    H1 4089   6.939   4.631   2.553 -0.1248 -1.4003 -0.6825
 1375TIP3    H2 4090   6.818   4.546   2.519 -0.5143 -0.4030 -1.8780
 1376TIP3   OH2 4091   5.667   1.491   2.173 -0.5255  0.1582 -0.4739
 1376TIP3    H1 4092   5.623   1.406   2.178 -1.7087  0.7219 -0.8773
 1376TIP3    H2 4093   5.631   1.533   2.095  0.8708  0.6001 -0.9117
 1377TIP3   OH2 4094   1.113   1.255   2.779  0.4459 -0.0187  0.0422
 1377TIP3    H1 4095   1.068   1.217   2.854 -0.5233 -1.6099 -1.2937
 1377TIP3    H2 4096   1.197   1.210   2.775 -0.1112 -1.0378 -0.6732
 1378TIP3   OH2 4097   5.173   0.261   1.628 -0.2589  0.3262  0.7906
 1378TIP3    H1 4098   5.219   0.342   1.605 -0.4269  0.1708 -0.1455
 1378TIP3    H2 4099   5.082   0.278   1.606 -0.1313 -0.4753 -0.4898
 1379TIP3   OH2 4100   5.394   2.772   0.332 -0.4299 -0.3157  0.4464
 1379TIP3    H1 4101   5.319   2.829   0.314  0.4228  0.5316 -0.5552
 1379TIP3    H2 4102   5.392   2.761   0.427 -1.8504 -0.3781  0.4409
 1380TIP3   OH2 4103   2.586   1.147   1.007 -0.2090 -0.0945  0.5611
 1380TIP3    H1 4104   2.536   1.077   0.965 -1.0143  0.5229  0.4810
 1380TIP3    H2 4105   2.675   1.135   0.974 -0.0799 -1.7625  1.3949
 1381TIP3   OH2 4106   4.286   1.805   3.253  0.2310 -0.1677 -0.0584
 1381TIP3    H1 4107   4.280   1.747   3.329  1.1114  0.7568  0.7452
 1381TIP3    H2 4108   4.303   1.746   3.180 -0.9059 -1.1067  0.4006
 1382TIP3   OH2 4109   1.070   4.724   3.674  0.3969 -0.0475 -0.0171
 1382TIP3    H1 4110   1.107   4.751   3.590 -1.2210  0.9182 -0.4618
 1382TIP3    H2 4111   1.110   4.783   3.738 -0.5224  1.1864 -0.5306
 1383TIP3   OH2 4112   6.213   5.819   0.315 -0.5777  0.3518  0.1650
 1383TIP3    H1 4113   6.279   5.870   0.268 -1.0381  1.1476  0.3750
 1383TIP3    H2 4114   6.130   5.855   0.286 -0.9045 -0.2100  0.3996
 1384TIP3   OH2 4115   0.844   1.869   3.790 -0.0257 -0.1696 -0.0499
 1384TIP3    H1 4116   0.901   1.793   3.781  2.5485  1.7418 -1.0757
 1384TIP3    H2 4117   0.869   1.928   3.719 -1.2473  2.0419  1.2090
 1385TIP3   OH2 4118   0.373   2.827   2.765  0.0663 -0.0904  0.5253
 1385TIP3    H1 4119   0.322   2.841   2.685  0.1644  0.1565  0.5039
 1385TIP3    H2 4120   0.347   2.899   2.822  0.8528  0.4049  0.2782
 1386TIP3   OH2 4121   5.058   4.172   4.944 -0.0823 -0.2079  0.3767
 1386TIP3    H1 4122   5.061   4.267   4.954 -1.5143  0.1116 -1.5797
 1386TIP3    H2 4123   5.115   4.154   4.869  1.0601 -1.0656  1.4044
 1387TIP3   OH2 4124   0.055   2.983   3.614  0.0043 -0.6795 -0.0249
 1387TIP3    H1 4125   0.036   2.959   3.523  1.2466 -0.0593 -0.4726
 1387TIP3    H2 4126  -0.012   3.049   3.635 -1.5229 -2.2318  0.2058
 1388TIP3   OH2 4127   2.427   3.347   0.242 -0.4856 -0.2057  0.3551
 1388TIP3    H1 4128   2.482   3.426   0.245  1.6429 -1.6146  1.6194
 1388TIP3    H2 4129   2.394   3.338   0.332 -0.7093 -0.7441  0.2224
 1389TIP3   OH2 4130   2.760   5.270   5.424 -0.0548 -0.0585  0.0542
 1389TIP3    H1 4131   2.854   5.281   5.429  0.0483 -0.2573 -1.0985
 1389TIP3    H2 4132   2.747   5.199   5.361 -0.9088 -1.8028  2.0894
 1390TIP3   OH2 4133   0.748   1.185   4.137  0.0099  0.2583 -0.0764
 1390TIP3    H1 4134   0.764   1.097   4.104 -0.2514 -0.1492  0.8341
 1390TIP3    H2 4135   0.653   1.188   4.152  0.1454  0.3189  0.8605
 1391TIP3   OH2 4136   5.464   3.969   1.362 -1.0116 -0.7306 -0.1203
 1391TIP3    H1 4137   5.418   3.886   1.373 -0.4328 -1.1016 -0.4013
 1391TIP3    H2 4138   5.488   3.996   1.451 -1.2537 -0.8358 -0.0235
 1392TIP3   OH2 4139   3.828   2.252   4.779  0.3553 -0.0646  0.1236
 1392TIP3    H1 4140   3.738   2.284   4.792  0.5357  0.1039  1.0186
 1392TIP3    H2 4141   3.863   2.244   4.867  0.9726 -0.8602 -0.1866
 1393TIP3   OH2 4142   3.519   4.090   0.910 -0.3101  0.0114  0.6838
 1393TIP3    H1 4143   3.499   4.177   0.875 -0.5300 -0.4720 -0.4116
 1393TIP3    H2 4144   3.614   4.090   0.920 -0.0152 -0.4464 -1.6341
 1394TIP3   OH2 4145   2.382   1.433   3.392  0.0062 -0.4504 -0.2718
 1394TIP3    H1 4146   2.444   1.438   3.464  0.0034 -0.4331 -0.2707
 1394TIP3    H2 4147   2.326   1.358   3.414  0.1720 -0.6098 -0.3894
 1395TIP3   OH2 4148   2.347   3.264   0.498 -0.2846 -0.1055  0.2930
 1395TIP3    H1 4149   2.411   3.199   0.527  0.9917  0.4162 -1.2232
 1395TIP3    H2 4150   2.320   3.308   0.579  1.0425 -0.5571  1.0273
 1396TIP3   OH2 4151   6.726   0.836   5.885  0.4637 -0.1273 -0.3037
 1396TIP3    H1 4152   6.635   0.853   5.908  0.6729  1.0463 -0.2738
 1396TIP3    H2 4153   6.722   0.781   5.807 -0.2798  0.5288 -0.7379
 1397TIP3   OH2 4154   0.123   6.757   4.393  1.0756 -0.6490 -0.4875
 1397TIP3    H1 4155   0.175   6.720   4.463  1.7316 -0.8944 -1.0927
 1397TIP3    H2 4156   0.091   6.840   4.427  1.6770 -0.6043 -0.0260
 1398TIP3   OH2 4157   5.260   2.961   2.948 -0.0530  0.0795  0.1971
 1398TIP3    H1 4158   5.239   2.978   2.856 -0.2310  2.3581  0.5926
 1398TIP3    H2 4159   5.353   2.937   2.948  0.6593  2.5565 -0.4054
 1399TIP3   OH2 4160   7.146   4.800   4.406  0.3388  0.7557  0.6139
 1399TIP3    H1 4161   7.058   4.764   4.413  1.0102 -1.0187  0.2660
 1399TIP3    H2 4162   7.177   4.807   4.496  0.3114  0.1946  0.6659
 1400TIP3   OH2 4163   3.047   1.289   3.849  0.2859  0.2962 -0.2041
 1400TIP3    H1 4164   2.979   1.260   3.788 -0.5139 -0.1352  0.8555
 1400TIP3    H2 4165   3.116   1.323   3.793 -0.6934  0.5146 -1.3265
 1401TIP3   OH2 4166   2.225   2.941   1.573  0.6796  0.2558  0.5196
 1401TIP3    H1 4167   2.299   3.001   1.566 -0.4904  1.7729  0.5741
 1401TIP3    H2 4168   2.166   2.982   1.636 -0.4120 -0.6807  0.1528
 1402TIP3   OH2 4169   0.164   0.485   5.219 -0.0913 -0.1660 -0.4656
 1402TIP3    H1 4170   0.196   0.428   5.150 -0.7886 -0.2536 -0.7272
 1402TIP3    H2 4171   0.187   0.573   5.191  1.8289 -0.3403  0.3831
 1403TIP3   OH2 4172   1.984   2.179   5.292 -0.9741  0.1681 -0.5505
 1403TIP3    H1 4173   2.011   2.087   5.293 -0.0542  0.4301 -0.4351
 1403TIP3    H2 4174   1.902   2.181   5.341  0.0924 -0.2777  1.3196
 1404TIP3   OH2 4175   1.562   5.703   0.677 -0.0817 -0.2461 -0.1562
 1404TIP3    H1 4176   1.653   5.681   0.658  0.1625 -0.0578  0.7584
 1404TIP3    H2 4177   1.543   5.659   0.760 -1.5080 -2.0733 -1.3530
 1405TIP3   OH2 4178   0.892   5.956   4.629  0.4568 -0.4824 -1.0000
 1405TIP3    H1 4179   0.823   6.011   4.592  2.5230  0.8882 -3.1657
 1405TIP3    H2 4180   0.968   6.014   4.635  1.3200 -1.7321  1.9550
 1406TIP3   OH2 4181   4.903   6.692   1.890 -0.1597  0.2058 -0.1744
 1406TIP3    H1 4182   4.878   6.713   1.980  1.9043 -1.3402  0.8348
 1406TIP3    H2 4183   4.845   6.619   1.866 -0.4046  0.3155  0.0739
 1407TIP3   OH2 4184   1.146   0.737   2.108  0.4558  0.2548  0.0837
 1407TIP3    H1 4185   1.081   0.797   2.146  0.8545 -0.1014  1.3596
 1407TIP3    H2 4186   1.151   0.664   2.170 -1.0747 -1.8914 -2.1299
 1408TIP3   OH2 4187   2.542   5.071   0.002 -0.2417  0.1696  0.2737
 1408TIP3    H1 4188   2.512   4.988  -0.036 -0.2592  0.2490  0.1134
 1408TIP3    H2 4189   2.624   5.049   0.046  0.3380  0.2805 -0.7185
 1409TIP3   OH2 4190   0.547   6.445   0.644 -0.0949 -0.5497  0.2938
 1409TIP3    H1 4191   0.474   6.384   0.655 -1.8921  1.4031 -0.1272
 1409TIP3    H2 4192   0.513   6.529   0.675  1.2121  0.9038 -1.8874
 1410TIP3   OH2 4193   2.738   5.037   3.164 -0.2445 -0.2575  0.0529
 1410TIP3    H1 4194   2.647   5.059   3.144 -0.9099 -2.2072  0.7352
 1410TIP3    H2 4195   2.767   5.107   3.223 -1.7553 -0.3762  0.9652
 1411TIP3   OH2 4196   2.255   2.217   0.916 -0.0008 -0.1301  0.8390
 1411TIP3    H1 4197   2.319   2.195   0.984 -0.1512 -1.1162  0.6762
 1411TIP3    H2 4198   2.257   2.142   0.856  1.4188  1.4815 -1.2572
 1412TIP3   OH2 4199   6.594   4.742   3.419 -0.3031 -0.5194  0.0339
 1412TIP3    H1 4200   6.605   4.654   3.456 -1.4784 -0.4557  0.5614
 1412TIP3    H2 4201   6.666   4.793   3.458 -0.3196 -0.9533  0.6468
 1413TIP3   OH2 4202   4.761   2.631   0.046  0.1727  0.1577 -0.5406
 1413TIP3    H1 4203   4.704   2.639   0.122 -0.0813 -1.6572 -0.4883
 1413TIP3    H2 4204   4.776   2.537   0.037  0.1506  0.3138 -2.7675
 1414TIP3   OH2 4205   6.119   0.241   4.968 -0.0409  0.1943 -0.1171
 1414TIP3    H1 4206   6.127   0.203   5.056  1.4170 -2.5577 -1.3291
 1414TIP3    H2 4207   6.039   0.293   4.973 -1.3507 -1.7964  2.2063
 1415TIP3   OH2 4208   3.944   5.973   0.750 -0.4779  0.1224  0.0236
 1415TIP3    H1 4209   3.949   6.047   0.690 -0.6009 -0.5539 -0.8473
 1415TIP3    H2 4210   3.964   5.897   0.696 -1.0340 -0.5569  0.7508
 1416TIP3   OH2 4211   6.058   2.496   0.252 -0.0357 -0.0642  0.1523
 1416TIP3    H1 4212   6.148   2.475   0.276  0.6251  0.3672 -1.7703
 1416TIP3    H2 4213   6.006   2.422   0.284  1.0760 -0.6139  0.7390
 1417TIP3   OH2 4214   1.263   0.894   1.910 -0.1903  0.0508 -0.1902
 1417TIP3    H1 4215   1.252   0.875   2.004  1.8530  1.1269  0.3144
 1417TIP3    H2 4216   1.269   0.989   1.905 -0.8988  0.0524 -1.5210
 1418TIP3   OH2 4217   3.185   0.678   3.056  0.0717 -0.3019  0.1856
 1418TIP3    H1 4218   3.094   0.699   3.079  0.0623 -0.9614  0.7803
 1418TIP3    H2 4219   3.228   0.764   3.049 -0.1259 -0.0324  1.9097
 1419TIP3   OH2 4220   2.339   4.628   3.753  0.4181  0.0361  0.0350
 1419TIP3    H1 4221   2.399   4.570   3.800  2.0856  0.1177 -1.8597
 1419TIP3    H2 4222   2.276   4.657   3.820  1.1592 -1.7840  1.6097
 1420TIP3   OH2 4223   0.503   3.190   5.356 -0.4683  0.0076  0.5403
 1420TIP3    H1 4224   0.472   3.133   5.427 -2.1600  2.1288  1.6111
 1420TIP3    H2 4225   0.588   3.222   5.387  0.7275 -2.1308 -0.2693
 1421TIP3   OH2 4226   6.774   5.993   1.294  0.0075  0.2117  0.0342
 1421TIP3    H1 4227   6.683   5.969   1.309 -0.0625  0.2343 -0.3419
 1421TIP3    H2 4228   6.814   5.914   1.257  0.3008 -0.0057  0.8016
 1422TIP3   OH2 4229   4.407   0.028   1.396 -0.0052  0.0358  0.2480
 1422TIP3    H1 4230   4.475  -0.036   1.416  0.1518 -0.2228 -1.0328
 1422TIP3    H2 4231   4.439   0.110   1.434  0.4757 -0.3334  0.6490
 1423TIP3   OH2 4232   1.994   5.259   4.092  0.2849  0.3475  0.2113
 1423TIP3    H1 4233   1.991   5.341   4.141  0.6263 -0.5037  1.6959
 1423TIP3    H2 4234   2.083   5.254   4.059 -0.0480  1.1017 -0.8537
 1424TIP3   OH2 4235   3.907   6.377   2.580  0.0140 -0.2220 -0.5264
 1424TIP3    H1 4236   3.859   6.412   2.505  0.3011 -0.2214 -0.7113
 1424TIP3    H2 4237   3.874   6.427   2.655 -1.8689 -1.6905 -0.3000
 1425TIP3   OH2 4238   5.551   1.838   5.663  0.2359 -0.1320 -0.6417
 1425TIP3    H1 4239   5.594   1.786   5.595  1.6632 -1.3013  1.0871
 1425TIP3    H2 4240   5.623   1.877   5.713 -0.6998 -0.7547  1.2837
 1426TIP3   OH2 4241   3.916   5.506   3.854 -0.9711  0.1471  0.0469
 1426TIP3    H1 4242   3.956   5.570   3.795  0.8420 -1.8533 -1.0485
 1426TIP3    H2 4243   3.844   5.468   3.803 -0.0458 -0.8616 -0.5541
 1427TIP3   OH2 4244   4.809   0.501   3.825 -0.7207 -0.3461 -0.5715
 1427TIP3    H1 4245   4.818   0.416   3.869  1.6278  0.4024  0.5802
 1427TIP3    H2 4246   4.797   0.563   3.897 -0.5310  0.5053 -1.2661
 1428TIP3   OH2 4247   4.015   4.316   4.057 -0.1002  0.3704  0.5111
 1428TIP3    H1 4248   4.013   4.388   3.994  1.8163  0.5654  0.6002
 1428TIP3    H2 4249   3.925   4.282   4.058 -0.4047  0.9328 -1.6555
 1429TIP3   OH2 4250   0.612   6.415   0.925  0.2319 -0.0005 -0.6080
 1429TIP3    H1 4251   0.545   6.423   0.992 -0.3463 -0.4816 -1.1287
 1429TIP3    H2 4252   0.565   6.391   0.845  0.9647  0.0902 -1.0813
 1430TIP3   OH2 4253   2.398   6.645   2.067 -0.0174 -0.2768  0.2010
 1430TIP3    H1 4254   2.381   6.730   2.108  1.2972  0.3938 -0.5729
 1430TIP3    H2 4255   2.449   6.596   2.131 -1.0929 -0.6665  0.8014
 1431TIP3   OH2 4256   0.818   4.144   4.782  0.1393 -0.3028  0.2316
 1431TIP3    H1 4257   0.852   4.130   4.870  2.0211 -0.8002 -0.5261
 1431TIP3    H2 4258   0.893   4.176   4.732 -0.9651  0.2513 -1.1330
 1432TIP3   OH2 4259   6.876   3.066   1.024  0.1523  0.2163  0.3817
 1432TIP3    H1 4260   6.911   3.155   1.033 -2.2511  1.1194  1.7209
 1432TIP3    H2 4261   6.803   3.075   0.962  0.5159 -1.0546 -0.2672
 1433TIP3   OH2 4262   0.385   3.176   0.521 -0.1132 -0.0725 -0.2137
 1433TIP3    H1 4263   0.476   3.172   0.490 -0.6517 -0.3534 -1.8169
 1433TIP3    H2 4264   0.363   3.086   0.544 -0.1486 -0.0886 -0.3102
 1434TIP3   OH2 4265   1.016   0.165   3.803 -0.1723 -0.5286 -0.8738
 1434TIP3    H1 4266   1.011   0.115   3.884 -0.3402  1.6712  0.5759
 1434TIP3    H2 4267   1.110   0.169   3.783 -0.0741 -0.5531 -0.4262
 1435TIP3   OH2 4268   3.030   4.301   3.240  0.4579 -0.1964 -0.2190
 1435TIP3    H1 4269   2.984   4.233   3.288  1.1659  1.5281  3.2428
 1435TIP3    H2 4270   3.080   4.254   3.174 -2.8534 -2.4780 -1.3430
 1436TIP3   OH2 4271   4.650   4.140   5.566  0.4451 -0.0368 -0.5723
 1436TIP3    H1 4272   4.637   4.067   5.505  0.2075  0.8485 -1.6085
 1436TIP3    H2 4273   4.687   4.099   5.644 -1.3844 -1.5295 -0.4206
 1437TIP3   OH2 4274   5.954   1.299   1.354  1.0223 -0.5956  0.2192
 1437TIP3    H1 4275   6.021   1.360   1.323  0.9493 -1.0546 -0.8933
 1437TIP3    H2 4276   5.876   1.322   1.303  0.9313 -1.4559 -0.0335
 1438TIP3   OH2 4277   6.556   4.460   1.031 -0.1166  0.1794 -0.4641
 1438TIP3    H1 4278   6.491   4.531   1.029 -0.6030 -0.2585 -1.7506
 1438TIP3    H2 4279   6.632   4.496   0.986  0.5796  0.7019  1.0676
 1439TIP3   OH2 4280   3.573   6.477   1.208  0.5234  0.0317 -0.2452
 1439TIP3    H1 4281   3.551   6.506   1.120  2.4968 -0.6802 -1.0283
 1439TIP3    H2 4282   3.530   6.392   1.217 -0.4107  0.5033 -0.1655
 1440TIP3   OH2 4283   0.093   1.539   5.074 -0.2128  0.1250 -0.0884
 1440TIP3    H1 4284   0.045   1.528   5.156  0.1215 -0.1329  0.0724
 1440TIP3    H2 4285   0.061   1.622   5.039 -0.9731 -0.1759 -0.1173
 1441TIP3   OH2 4286   1.574   6.801   1.145  0.1096 -0.3333  0.0128
 1441TIP3    H1 4287   1.658   6.799   1.191  1.0719 -1.1488 -1.6647
 1441TIP3    H2 4288   1.598   6.798   1.052 -1.6886  2.3347 -0.6618
 1442TIP3   OH2 4289   0.276   0.174   2.248 -0.3495  0.1032  0.0839
 1442TIP3    H1 4290   0.247   0.258   2.212  0.0910 -0.2557 -1.1733
 1442TIP3    H2 4291   0.209   0.151   2.312 -0.5459  1.3464  0.3582
 1443TIP3   OH2 4292   5.438   3.366   3.372 -0.2182 -0.4514 -0.6368
 1443TIP3    H1 4293   5.458   3.288   3.320  1.2801 -0.5211  0.0031
 1443TIP3    H2 4294   5.497   3.433   3.338  0.0705 -0.2237  0.2749
 1444TIP3   OH2 4295   6.203   6.023   5.076 -0.0923 -0.1264 -0.9624
 1444TIP3    H1 4296   6.275   6.052   5.020  0.0999  0.1104 -0.5952
 1444TIP3    H2 4297   6.225   5.934   5.100  0.0281 -0.0879 -0.9312
 1445TIP3   OH2 4298   4.399   3.987   4.751 -0.0332 -0.4351 -0.1918
 1445TIP3    H1 4299   4.413   4.038   4.671 -0.2954  0.6800  0.4580
 1445TIP3    H2 4300   4.375   3.900   4.719 -1.6965  0.3998 -1.3679
 1446TIP3   OH2 4301   4.638   0.261   1.429  0.1338 -0.7626  0.3988
 1446TIP3    H1 4302   4.665   0.183   1.381  0.1073 -0.7952  0.4367
 1446TIP3    H2 4303   4.565   0.297   1.379  0.2016 -0.7146  0.3350
 1447TIP3   OH2 4304   4.686   2.807   3.123  0.7090 -0.3679  0.7426
 1447TIP3    H1 4305   4.677   2.764   3.038 -3.2845  0.3316  0.5981
 1447TIP3    H2 4306   4.670   2.900   3.104 -1.5747 -0.3642  2.3264
 1448TIP3   OH2 4307   3.382   5.180   0.219  0.2690  0.5281  0.4126
 1448TIP3    H1 4308   3.333   5.100   0.199 -0.2374  1.2151 -1.2939
 1448TIP3    H2 4309   3.459   5.175   0.162 -0.4954  1.8932 -0.8158
 1449TIP3   OH2 4310   5.677   2.106   3.743 -0.0653  0.0164 -0.0246
 1449TIP3    H1 4311   5.584   2.128   3.751 -0.0383 -0.3117  1.5292
 1449TIP3    H2 4312   5.721   2.191   3.738 -0.4058  0.1959 -0.0146
 1450TIP3   OH2 4313   6.009   2.830   1.192 -0.0909  0.0940  0.4335
 1450TIP3    H1 4314   5.946   2.898   1.214  0.7695  0.9599  0.3305
 1450TIP3    H2 4315   6.094   2.867   1.217  0.3445 -1.2124  0.9747
 1451TIP3   OH2 4316   1.965   0.527   2.255 -0.0393 -0.1201  0.1108
 1451TIP3    H1 4317   1.924   0.495   2.174  0.1363  1.1318 -0.5009
 1451TIP3    H2 4318   1.908   0.496   2.325 -0.8097 -0.2740 -0.5747
 1452TIP3   OH2 4319   4.514   3.153   2.639 -0.0517 -0.1665 -0.4945
 1452TIP3    H1 4320   4.527   3.067   2.597  0.3515  0.3889 -1.5411
 1452TIP3    H2 4321   4.538   3.139   2.730  1.3979 -0.8348 -0.9477
 1453TIP3   OH2 4322   6.040   4.066   4.387 -0.1688  0.1286 -0.1736
 1453TIP3    H1 4323   6.008   4.116   4.312 -1.0366 -1.6486 -1.0505
 1453TIP3    H2 4324   5.983   4.094   4.459 -1.1200 -0.1031 -0.8121
 1454TIP3   OH2 4325   1.832   2.855   2.984 -0.6760  0.1937  0.5513
 1454TIP3    H1 4326   1.794   2.927   2.933  0.1904  1.1165  1.1765
 1454TIP3    H2 4327   1.921   2.846   2.949 -0.8477 -0.7341  0.3333
 1455TIP3   OH2 4328   5.129   1.330   1.668 -0.3409 -0.3353  0.3041
 1455TIP3    H1 4329   5.144   1.376   1.751  3.1027 -0.9575  0.1806
 1455TIP3    H2 4330   5.037   1.304   1.671 -0.9226  1.6082  2.8908
 1456TIP3   OH2 4331   5.045   1.677   5.472 -0.1553 -0.0388 -0.4458
 1456TIP3    H1 4332   5.059   1.592   5.513 -2.9547 -0.6748 -0.5888
 1456TIP3    H2 4333   5.047   1.739   5.545 -0.7355 -0.5947  0.0636
 1457TIP3   OH2 4334   5.546   5.148   5.411 -0.3025 -0.1444 -0.6487
 1457TIP3    H1 4335   5.541   5.234   5.370  1.9393  0.2202 -0.2523
 1457TIP3    H2 4336   5.458   5.134   5.447 -0.3924  2.5638  0.4441
 1458TIP3   OH2 4337   3.682   5.126   1.928  0.0402 -0.4078 -0.8406
 1458TIP3    H1 4338   3.598   5.101   1.967  0.9066 -0.0489  1.3975
 1458TIP3    H2 4339   3.700   5.213   1.963  1.6742 -0.7796 -0.6719
 1459TIP3   OH2 4340   5.197   4.949   0.814  0.1111  0.1960  0.4574
 1459TIP3    H1 4341   5.257   4.994   0.754  0.6026 -0.0058  0.7915
 1459TIP3    H2 4342   5.134   5.016   0.839  1.6426  1.1372  2.0467
 1460TIP3   OH2 4343   4.574   6.667   2.216  0.0612 -0.0619  0.5385
 1460TIP3    H1 4344   4.523   6.622   2.284 -0.1433  0.0178  0.4384
 1460TIP3    H2 4345   4.565   6.611   2.139 -0.2318  0.1739  0.4007
 1461TIP3   OH2 4346   2.846   2.242   4.668  0.1994  0.9250 -0.1361
 1461TIP3    H1 4347   2.864   2.233   4.575  0.7513 -1.3567  0.1475
 1461TIP3    H2 4348   2.786   2.317   4.674 -1.1396  0.1160 -2.4689
 1462TIP3   OH2 4349   5.369   4.399   0.136 -0.1724  0.6615 -0.4854
 1462TIP3    H1 4350   5.328   4.334   0.193  1.3918 -1.0802 -1.2603
 1462TIP3    H2 4351   5.340   4.483   0.172  0.4062 -0.3328  2.6124
 1463TIP3   OH2 4352   6.698   3.015   0.186  0.2838 -0.4727 -0.3558
 1463TIP3    H1 4353   6.734   3.080   0.246  0.4802 -0.1699 -0.7967
 1463TIP3    H2 4354   6.606   3.037   0.179  0.5019  0.2600 -1.1212
 1464TIP3   OH2 4355   6.230   5.730   2.293  0.1257  0.7365  0.3694
 1464TIP3    H1 4356   6.319   5.753   2.320  0.3567  1.3437 -0.8610
 1464TIP3    H2 4357   6.240   5.650   2.243  0.3605  2.1054 -1.9144
 1465TIP3   OH2 4358   5.023   2.315   0.664  0.6008 -0.1894  0.0621
 1465TIP3    H1 4359   4.955   2.282   0.605 -0.4245 -0.7879  1.5154
 1465TIP3    H2 4360   5.029   2.409   0.644 -1.3996  0.0891  0.5877
 1466TIP3   OH2 4361   4.632   5.884   3.621 -0.2306 -0.6266  0.1894
 1466TIP3    H1 4362   4.565   5.953   3.621 -1.0446 -1.3712  1.2762
 1466TIP3    H2 4363   4.682   5.899   3.701  1.8366  0.7377 -1.2732
 1467TIP3   OH2 4364   2.449   5.774   4.191  0.2539 -0.4026  0.9036
 1467TIP3    H1 4365   2.499   5.842   4.146 -1.5440  0.9651  0.8262
 1467TIP3    H2 4366   2.388   5.823   4.247 -0.4657 -1.9840  1.5749
 1468TIP3   OH2 4367   1.637   6.288   1.434  0.2055 -0.2627  0.0610
 1468TIP3    H1 4368   1.660   6.296   1.527  1.9620  0.7785 -0.4260
 1468TIP3    H2 4369   1.609   6.376   1.409 -0.3671 -0.5679 -0.3864
 1469TIP3   OH2 4370   3.021   4.482   2.042  0.3896 -0.1153  0.8263
 1469TIP3    H1 4371   3.020   4.476   1.946 -0.6348  1.5726  0.6791
 1469TIP3    H2 4372   3.030   4.392   2.072 -1.7296 -0.9707 -0.8557
 1470TIP3   OH2 4373   6.584   0.524   0.329 -0.0970 -0.4399 -0.3740
 1470TIP3    H1 4374   6.539   0.453   0.375  1.0145 -1.0556 -0.1967
 1470TIP3    H2 4375   6.609   0.486   0.245  0.4756 -0.2491 -0.2928
 1471TIP3   OH2 4376   0.134   0.074   5.465 -0.3865 -0.0644 -0.0051
 1471TIP3    H1 4377   0.093  -0.012   5.468 -2.2545  0.7521  0.0128
 1471TIP3    H2 4378   0.119   0.105   5.376  2.4783 -0.6860 -0.7969
 1472TIP3   OH2 4379   3.875   3.387   5.203 -0.5731 -0.2518  0.2335
 1472TIP3    H1 4380   3.954   3.346   5.167 -1.8837 -2.4206 -0.4095
 1472TIP3    H2 4381   3.889   3.481   5.190  2.6414 -0.3598  1.7927
 1473TIP3   OH2 4382   5.455   0.911   3.372  0.3775 -0.0061 -0.2374
 1473TIP3    H1 4383   5.542   0.938   3.401  0.2738  0.3601 -0.2557
 1473TIP3    H2 4384   5.401   0.916   3.451  0.9052 -2.7338  0.3966
 1474TIP3   OH2 4385   1.055   6.636   2.714  0.0868  0.5887 -0.0193
 1474TIP3    H1 4386   1.035   6.701   2.782 -1.1334  1.9377 -1.5543
 1474TIP3    H2 4387   1.033   6.552   2.753  0.2404  1.2423  1.5333
 1475TIP3   OH2 4388   5.381   1.324   4.856 -0.2976  0.3390  0.1141
 1475TIP3    H1 4389   5.422   1.242   4.884 -0.8638  0.1844  0.5057
 1475TIP3    H2 4390   5.322   1.298   4.785 -0.7431  0.3500  0.4770
 1476TIP3   OH2 4391   2.634   2.268   1.682  0.2593 -0.4936  0.4858
 1476TIP3    H1 4392   2.728   2.258   1.701  0.5296  0.0726 -0.4934
 1476TIP3    H2 4393   2.613   2.355   1.715  0.6295  0.3168 -1.3083
 1477TIP3   OH2 4394   3.446   4.029   1.312 -0.1868  0.0698 -0.0917
 1477TIP3    H1 4395   3.486   3.966   1.251  0.4872 -0.9398  1.3451
 1477TIP3    H2 4396   3.404   3.976   1.378 -1.0491  1.1549  0.2658
 1478TIP3   OH2 4397   3.822   3.469   4.528  0.0159 -0.0062 -0.1855
 1478TIP3    H1 4398   3.807   3.388   4.577  0.3036  0.5094  0.7758
 1478TIP3    H2 4399   3.764   3.533   4.569  1.4362  0.8478  0.5915
 1479TIP3   OH2 4400   7.066   6.258   1.158  0.0077 -0.0795 -0.0930
 1479TIP3    H1 4401   6.976   6.281   1.137  0.3236  0.7071 -0.6408
 1479TIP3    H2 4402   7.116   6.338   1.140  0.9514 -0.7961 -0.7680
 1480TIP3   OH2 4403   1.420   2.595   2.276  0.1257  0.2581  0.0666
 1480TIP3    H1 4404   1.447   2.560   2.192  1.5801  1.8022 -0.1696
 1480TIP3    H2 4405   1.456   2.535   2.341  0.4374 -0.0391 -0.3796
 1481TIP3   OH2 4406   4.461   2.507   2.299 -0.6365 -0.2432  0.0412
 1481TIP3    H1 4407   4.371   2.538   2.288 -0.5731  0.3697  1.0949
 1481TIP3    H2 4408   4.476   2.512   2.394  0.3452 -0.8061 -0.0773
 1482TIP3   OH2 4409   1.660   2.333   3.896  0.1554 -0.3494 -0.2553
 1482TIP3    H1 4410   1.695   2.267   3.955 -1.2194 -0.0762  0.9117
 1482TIP3    H2 4411   1.566   2.336   3.916 -0.0006  1.1587 -1.0712
 1483TIP3   OH2 4412   3.981   4.175   3.096  0.8051 -0.0952 -0.1809
 1483TIP3    H1 4413   4.029   4.156   3.177  0.1020  0.8404  0.4675
 1483TIP3    H2 4414   3.901   4.219   3.124 -0.2893 -1.2951 -1.2718
 1484TIP3   OH2 4415   5.678   6.754   0.754 -0.5636 -0.0935 -0.1145
 1484TIP3    H1 4416   5.631   6.702   0.689 -1.6649  2.3600 -1.4167
 1484TIP3    H2 4417   5.752   6.791   0.706 -0.8894  1.0344  0.2074
 1485TIP3   OH2 4418   2.747   6.152   1.204 -0.1772  0.0375  0.0050
 1485TIP3    H1 4419   2.672   6.094   1.215 -0.4282  0.3233 -0.2072
 1485TIP3    H2 4420   2.804   6.132   1.279 -1.5019  1.3944  1.4478
 1486TIP3   OH2 4421   0.614   3.551   4.782  0.4689 -0.3738  0.2464
 1486TIP3    H1 4422   0.582   3.592   4.862  1.2668  1.7878 -0.4553
 1486TIP3    H2 4423   0.567   3.595   4.712  1.3929 -0.6319 -0.5608
 1487TIP3   OH2 4424   1.569   5.597   3.957  0.1428 -0.2046  0.0541
 1487TIP3    H1 4425   1.548   5.532   4.025  0.4315 -0.6332 -0.2643
 1487TIP3    H2 4426   1.601   5.673   4.005  0.7049 -0.6451  0.3767
 1488TIP3   OH2 4427   3.375   2.607   4.990  0.3444 -0.4698  0.5290
 1488TIP3    H1 4428   3.468   2.584   4.997  0.8118  1.3368  0.6469
 1488TIP3    H2 4429   3.329   2.527   5.018  1.8591 -1.1290  1.2626
 1489TIP3   OH2 4430   5.338   0.414   5.800  0.2916 -0.1251 -0.2036
 1489TIP3    H1 4431   5.418   0.391   5.751  0.6366 -2.7669  1.4341
 1489TIP3    H2 4432   5.270   0.360   5.760 -0.1159  0.1397  0.1361
 1490TIP3   OH2 4433   1.953   1.396   0.741 -0.2458  0.3263  0.0511
 1490TIP3    H1 4434   1.989   1.357   0.661  1.3580  2.8996 -0.6130
 1490TIP3    H2 4435   1.940   1.322   0.800  1.1401 -1.3606 -1.6190
 1491TIP3   OH2 4436   2.935   0.685   1.957  0.4254 -0.6170  0.3565
 1491TIP3    H1 4437   3.007   0.677   1.895  1.1960  0.3648  1.0939
 1491TIP3    H2 4438   2.970   0.738   2.028 -1.4790  1.1741  0.0515
 1492TIP3   OH2 4439   6.429   1.866   0.565 -0.1029 -0.1139  0.2237
 1492TIP3    H1 4440   6.523   1.847   0.572  0.2520  1.3741 -0.2330
 1492TIP3    H2 4441   6.391   1.785   0.533  1.0407 -0.7076  0.3011
 1493TIP3   OH2 4442   3.836   5.643   1.364 -0.0518  0.0272  0.1766
 1493TIP3    H1 4443   3.893   5.575   1.400 -1.5241 -1.4916 -0.2022
 1493TIP3    H2 4444   3.828   5.620   1.271 -1.7518 -0.2184  0.3418
 1494TIP3   OH2 4445   0.114   2.212   0.817  0.4316 -0.6118 -0.2267
 1494TIP3    H1 4446   0.024   2.187   0.836  0.1980 -0.9968 -1.6556
 1494TIP3    H2 4447   0.158   2.129   0.794  0.7243 -0.2469 -1.0459
 1495TIP3   OH2 4448   6.403   3.881   0.718 -0.3417  0.0525  0.6355
 1495TIP3    H1 4449   6.386   3.787   0.725  0.0157  0.0547  1.6420
 1495TIP3    H2 4450   6.340   3.921   0.778 -0.7894  0.5001 -0.1159
 1496TIP3   OH2 4451   3.096   4.473   2.635 -0.3711 -0.3053 -0.0139
 1496TIP3    H1 4452   3.026   4.492   2.572  0.7300 -0.8740 -1.4704
 1496TIP3    H2 4453   3.162   4.426   2.584  0.8166 -0.3146  1.4594
 1497TIP3   OH2 4454   2.497   5.004   5.772 -1.0416 -0.0566  0.2890
 1497TIP3    H1 4455   2.526   4.954   5.847 -0.0749 -0.9621 -0.6571
 1497TIP3    H2 4456   2.401   5.005   5.778 -1.1544 -2.8029 -0.1362
 1498TIP3   OH2 4457   3.183   2.187   4.585  0.2802 -0.0777 -0.1079
 1498TIP3    H1 4458   3.149   2.163   4.499  2.1962 -0.8349 -0.6943
 1498TIP3    H2 4459   3.274   2.158   4.585  0.6191  0.7806  1.8312
 1499TIP3   OH2 4460   5.086   1.455   3.405 -0.6542  0.7247  0.2065
 1499TIP3    H1 4461   5.125   1.371   3.431 -1.4326 -0.1740 -1.4104
 1499TIP3    H2 4462   5.059   1.495   3.488  0.9676  0.0366  1.1319
 1500TIP3   OH2 4463   5.927   1.770   4.328  0.7251 -0.2659 -0.0984
 1500TIP3    H1 4464   5.862   1.825   4.372 -0.0212 -1.0831 -0.1561
 1500TIP3    H2 4465   6.009   1.816   4.340 -0.0642  1.6039 -1.3602
 1501TIP3   OH2 4466   2.571   4.341   1.856 -0.2876 -0.7365  0.1038
 1501TIP3    H1 4467   2.629   4.311   1.786 -0.2466 -0.8263  0.1764
 1501TIP3    H2 4468   2.602   4.429   1.876 -3.0744  1.2577 -3.1215
 1502TIP3   OH2 4469   1.110   6.623   1.222  0.1582  0.5301 -0.4120
 1502TIP3    H1 4470   1.097   6.717   1.214 -0.4211  0.3236 -2.6001
 1502TIP3    H2 4471   1.205   6.612   1.218  0.2397  1.0165  0.0280
 1503TIP3   OH2 4472   7.245   2.768   2.566  0.4791 -0.3745  0.3417
 1503TIP3    H1 4473   7.179   2.704   2.591  1.3104 -1.2168  0.4533
 1503TIP3    H2 4474   7.197   2.850   2.555 -0.5627 -0.9554  0.4667
 1504TIP3   OH2 4475   1.413   2.849   2.036  0.4226 -0.4237  0.1399
 1504TIP3    H1 4476   1.354   2.790   2.083 -1.0809  0.0369 -1.0536
 1504TIP3    H2 4477   1.499   2.808   2.043 -0.0402 -1.2019  1.8325
 1505TIP3   OH2 4478   0.410   1.612   0.556 -0.1126  0.4342 -0.0336
 1505TIP3    H1 4479   0.460   1.678   0.603 -1.2229  0.1603  1.6409
 1505TIP3    H2 4480   0.407   1.643   0.466  1.5289  1.3428  0.1935
 1506TIP3   OH2 4481   2.856   4.884   0.244 -1.0919 -0.2000 -1.0496
 1506TIP3    H1 4482   2.798   4.952   0.211 -0.4891  0.0938 -1.5272
 1506TIP3    H2 4483   2.902   4.925   0.317 -0.8136 -0.1235 -1.2639
 1507TIP3   OH2 4484   2.983   0.072   3.262 -0.3055 -0.2021  0.3381
 1507TIP3    H1 4485   3.059   0.123   3.233 -0.2178  1.2366  2.8263
 1507TIP3    H2 4486   2.941   0.044   3.181  1.1010  1.6536 -1.1273
 1508TIP3   OH2 4487   3.603   4.976   0.170 -0.1415 -0.4909  0.3912
 1508TIP3    H1 4488   3.629   4.928   0.249  2.0300  1.2486  0.8412
 1508TIP3    H2 4489   3.685   4.994   0.125 -0.4656  4.3626  1.2410
 1509TIP3   OH2 4490   0.684   4.824   0.142 -0.0194  0.4152 -0.3991
 1509TIP3    H1 4491   0.589   4.833   0.136  0.1586  2.0089 -1.2473
 1509TIP3    H2 4492   0.715   4.913   0.157  1.2158 -0.3489  2.2329
 1510TIP3   OH2 4493   3.875   3.671   5.209  0.7195  0.1285  0.2799
 1510TIP3    H1 4494   3.952   3.728   5.204 -0.0085  1.2633  1.2602
 1510TIP3    H2 4495   3.815   3.717   5.269 -1.4035  0.1047 -1.6662
 1511TIP3   OH2 4496   5.925   6.025   5.611  0.5244 -0.2965  0.2400
 1511TIP3    H1 4497   5.933   6.022   5.706  1.5034  0.9050  0.2155
 1511TIP3    H2 4498   6.000   5.975   5.578  1.9169  1.7767  0.1063
 1512TIP3   OH2 4499   2.048   4.930   1.872 -0.1169  0.0103 -0.0263
 1512TIP3    H1 4500   1.998   5.002   1.834 -0.2461 -0.4641 -0.7848
 1512TIP3    H2 4501   1.995   4.852   1.853  0.5753 -0.4209 -0.2387
 1513TIP3   OH2 4502   0.204   3.840   3.732  0.3559 -0.1585 -0.1024
 1513TIP3    H1 4503   0.115   3.862   3.704  0.6631 -0.9421 -1.8222
 1513TIP3    H2 4504   0.193   3.763   3.788 -0.1488  0.6691  1.0003
 1514TIP3   OH2 4505   3.393   0.566   0.770 -0.1200 -0.3826  0.0792
 1514TIP3    H1 4506   3.328   0.612   0.717  0.4591 -0.4235 -0.6890
 1514TIP3    H2 4507   3.412   0.626   0.842  0.4368  0.4821 -0.7713
 1515TIP3   OH2 4508   0.710   2.609   0.685 -0.1795  0.0658 -0.3419
 1515TIP3    H1 4509   0.655   2.539   0.719 -1.0218  1.0696  0.4241
 1515TIP3    H2 4510   0.775   2.624   0.753 -0.1003  0.1335 -0.4318
 1516TIP3   OH2 4511   5.288   1.592   3.870  0.2438 -0.4041 -0.0203
 1516TIP3    H1 4512   5.310   1.603   3.777 -1.5472 -0.5251 -0.4988
 1516TIP3    H2 4513   5.266   1.499   3.878 -1.3009 -0.0415  0.1108
 1517TIP3   OH2 4514   1.089   1.145   1.654  0.0001 -0.1080 -0.0866
 1517TIP3    H1 4515   1.165   1.125   1.710 -0.2579  1.4215  0.8704
 1517TIP3    H2 4516   1.122   1.135   1.565  0.2042 -3.4560  0.2298
 1518TIP3   OH2 4517   2.000   1.896   5.252 -0.1348  0.3778  0.4677
 1518TIP3    H1 4518   2.030   1.881   5.341 -1.0077  0.1228  0.7281
 1518TIP3    H2 4519   2.074   1.870   5.197 -1.0150 -3.7563  0.9062
 1519TIP3   OH2 4520   5.648   3.153   1.341  0.6782  0.0545  0.8007
 1519TIP3    H1 4521   5.662   3.138   1.435  1.4538  0.6026  0.7851
 1519TIP3    H2 4522   5.558   3.124   1.325  0.9133 -1.1191  1.4840
 1520TIP3   OH2 4523   4.935   1.853   4.475  0.1080  0.2999  0.1725
 1520TIP3    H1 4524   4.965   1.944   4.473 -0.8784  0.7063  1.8174
 1520TIP3    H2 4525   4.841   1.858   4.461  0.0830 -0.5029  0.0016
 1521TIP3   OH2 4526   6.980   6.227   4.252 -0.1880 -0.1884  0.3857
 1521TIP3    H1 4527   7.013   6.280   4.179  0.3529 -2.8438 -1.4655
 1521TIP3    H2 4528   7.051   6.228   4.316  0.7790 -0.5320 -0.6528
 1522TIP3   OH2 4529   2.007   1.703   4.114  0.8683  0.0739 -0.0945
 1522TIP3    H1 4530   1.995   1.785   4.065  0.7891 -0.2953 -0.7051
 1522TIP3    H2 4531   2.075   1.723   4.178  0.0443  0.9578  0.5482
 1523TIP3   OH2 4532   4.571   6.276   0.358 -0.2121 -0.4270 -0.0158
 1523TIP3    H1 4533   4.478   6.253   0.363 -0.1584 -0.8345 -0.6860
 1523TIP3    H2 4534   4.617   6.192   0.369  0.0412 -0.3786 -0.6130
 1524TIP3   OH2 4535   6.663   5.138   0.997 -0.3806  0.1553  0.2306
 1524TIP3    H1 4536   6.715   5.163   1.073  0.0896 -2.5437  0.8829
 1524TIP3    H2 4537   6.708   5.178   0.922  0.3612  1.0684  1.1398
 1525TIP3   OH2 4538   6.450   3.913   3.413 -0.0050  0.1084  0.5304
 1525TIP3    H1 4539   6.442   3.849   3.341 -0.8481  0.3465  0.3979
 1525TIP3    H2 4540   6.544   3.932   3.418  0.4748 -2.1503  1.4708
 1526TIP3   OH2 4541   1.202   3.776   5.658 -0.0380 -0.5921 -0.4462
 1526TIP3    H1 4542   1.202   3.789   5.753 -0.9874 -0.8449 -0.4065
 1526TIP3    H2 4543   1.281   3.724   5.642  0.2769 -0.3201  0.1701
 1527TIP3   OH2 4544   3.523   4.490   3.307 -0.1509  0.2959 -0.5023
 1527TIP3    H1 4545   3.610   4.451   3.313  0.0465  0.2159 -2.8260
 1527TIP3    H2 4546   3.533   4.577   3.345  0.9005  0.1950 -0.5128
 1528TIP3   OH2 4547   0.418   2.854   1.046  0.4620  0.0585 -0.0627
 1528TIP3    H1 4548   0.458   2.840   1.132 -0.1179  0.2224  0.2437
 1528TIP3    H2 4549   0.351   2.921   1.062 -0.3680 -0.6553 -0.4143
 1529TIP3   OH2 4550   3.058   4.869   1.440 -0.5264 -0.3780  0.4112
 1529TIP3    H1 4551   3.127   4.810   1.471  2.8531  2.8039 -0.4043
 1529TIP3    H2 4552   3.022   4.908   1.520  2.2862  1.5820  0.8780
 1530TIP3   OH2 4553   1.256   2.940   2.305 -0.2077  0.6970 -0.3631
 1530TIP3    H1 4554   1.238   3.016   2.360 -0.4051 -0.0549  0.6495
 1530TIP3    H2 4555   1.321   2.970   2.242  1.0694  1.2373  1.1563
 1531TIP3   OH2 4556   1.210   0.667   3.803  0.4492  0.0081  0.1706
 1531TIP3    H1 4557   1.301   0.660   3.777  0.2691  0.9250 -0.7702
 1531TIP3    H2 4558   1.182   0.753   3.771 -0.9662 -0.5849 -0.2903
 1532TIP3   OH2 4559   4.884   3.475   1.495 -0.5309 -0.3655  0.7273
 1532TIP3    H1 4560   4.853   3.557   1.456 -1.6492 -1.5560 -1.0521
 1532TIP3    H2 4561   4.830   3.465   1.574 -1.1417  0.0818  0.3774
 1533TIP3   OH2 4562   2.121   4.896   0.725 -0.6225 -0.2757  0.1445
 1533TIP3    H1 4563   2.175   4.954   0.672  0.0755 -0.1408  0.9778
 1533TIP3    H2 4564   2.136   4.926   0.815 -2.1223 -0.1937  0.3960
 1534TIP3   OH2 4565   4.533   4.371   4.372 -0.0600 -0.1628  0.1199
 1534TIP3    H1 4566   4.442   4.356   4.399 -0.3942 -0.4713 -1.0939
 1534TIP3    H2 4567   4.574   4.413   4.447 -1.5601  1.2262  0.2098
 1535TIP3   OH2 4568   2.793   0.715   3.980 -0.6402  0.2892  0.0846
 1535TIP3    H1 4569   2.755   0.766   4.052  1.2562 -0.2057  1.5215
 1535TIP3    H2 4570   2.783   0.624   4.008  1.8561  0.1556  0.7237
 1536TIP3   OH2 4571   1.121   3.733   5.399 -0.0780 -0.3423  0.3407
 1536TIP3    H1 4572   1.205   3.739   5.354  0.0695 -0.4848  0.5906
 1536TIP3    H2 4573   1.143   3.750   5.491 -0.2172 -1.0457  0.5100
 1537TIP3   OH2 4574   1.012   2.321   1.110  0.2578  0.0489 -0.4278
 1537TIP3    H1 4575   0.965   2.369   1.042 -1.2347  0.0622  0.5802
 1537TIP3    H2 4576   0.973   2.351   1.192  2.1061  0.1314  0.4864
 1538TIP3   OH2 4577   6.515   4.547   5.770  0.4161  0.4836  0.2245
 1538TIP3    H1 4578   6.429   4.504   5.764  0.9371 -0.5221 -0.4379
 1538TIP3    H2 4579   6.503   4.617   5.834 -1.0402  0.6997 -0.2471
 1539TIP3   OH2 4580   3.370   0.863   0.750 -0.2224 -0.4502  0.7836
 1539TIP3    H1 4581   3.378   0.957   0.736  1.2126 -0.4419  1.4915
 1539TIP3    H2 4582   3.446   0.825   0.706 -1.8745 -1.5223 -1.3208
 1540TIP3   OH2 4583   4.630   6.703   5.251 -0.1870  0.2396 -0.0779
 1540TIP3    H1 4584   4.699   6.708   5.184  0.6010  0.9274  0.7671
 1540TIP3    H2 4585   4.674   6.666   5.328 -0.4981  1.5929  0.7728
 1541TIP3   OH2 4586   6.462   5.042   0.308  0.4595  0.5854 -0.1704
 1541TIP3    H1 4587   6.377   5.029   0.351 -0.1362 -0.8547 -1.7006
 1541TIP3    H2 4588   6.465   5.136   0.288 -1.2733  0.4831 -1.0516
 1542TIP3   OH2 4589   4.280   2.909   3.214  0.1788 -0.3767  0.8504
 1542TIP3    H1 4590   4.219   2.960   3.267 -0.0237  2.6206 -1.9711
 1542TIP3    H2 4591   4.361   2.909   3.265 -0.5062  0.7551  1.9984
 1543TIP3   OH2 4592   1.875   0.344   0.535  0.3275  0.0212  0.4462
 1543TIP3    H1 4593   1.797   0.349   0.479  0.8958  0.5735 -0.3158
 1543TIP3    H2 4594   1.936   0.290   0.485  0.5924 -0.0452  0.8465
 1544TIP3   OH2 4595   5.370   2.037   2.701  0.1538  0.0709 -0.0472
 1544TIP3    H1 4596   5.425   1.985   2.642  0.1253 -0.2265  0.1865
 1544TIP3    H2 4597   5.397   2.128   2.686 -1.4400  0.2749 -2.2486
 1545TIP3   OH2 4598   4.565   0.415   4.090 -0.0669 -0.7341  0.4490
 1545TIP3    H1 4599   4.558   0.503   4.128 -0.1743 -0.0999 -0.9609
 1545TIP3    H2 4600   4.507   0.418   4.013  1.0279 -1.5603 -0.4420
 1546TIP3   OH2 4601   5.292   1.870   5.697  0.0381  0.4438  0.3530
 1546TIP3    H1 4602   5.385   1.888   5.689 -0.2542  1.6211 -0.7326
 1546TIP3    H2 4603   5.286   1.774   5.702  1.2941  0.3542  0.3637
 1547TIP3   OH2 4604   3.511   6.354   4.349  0.1274 -0.3911 -0.1971
 1547TIP3    H1 4605   3.434   6.301   4.327 -1.5639  2.1827 -1.0106
 1547TIP3    H2 4606   3.557   6.365   4.265 -1.6766  2.4265 -0.9836
 1548TIP3   OH2 4607   5.069   5.305   1.621  0.3578 -0.1021 -0.3386
 1548TIP3    H1 4608   5.164   5.293   1.625  0.1281 -2.3365 -0.1599
 1548TIP3    H2 4609   5.044   5.327   1.711  0.4784 -2.1268  0.2519
 1549TIP3   OH2 4610   1.371   5.497   5.435 -0.2211  0.7862  0.2552
 1549TIP3    H1 4611   1.314   5.517   5.361  0.3206  1.9354  0.1261
 1549TIP3    H2 4612   1.315   5.509   5.512  0.0582  2.8242  0.1790
 1550TIP3   OH2 4613   0.537   4.878   1.833  0.3091 -0.2765  0.0262
 1550TIP3    H1 4614   0.536   4.808   1.899  0.1830 -1.0692 -0.7836
 1550TIP3    H2 4615   0.474   4.848   1.767  0.3006  0.5863 -0.3607
 1551TIP3   OH2 4616   2.193   1.959   4.778  0.2528  0.5720  0.0284
 1551TIP3    H1 4617   2.130   1.892   4.751  0.6017  0.0703  0.4269
 1551TIP3    H2 4618   2.170   2.037   4.727 -0.4737  0.2948 -0.0682
 1552TIP3   OH2 4619   4.037   4.911   2.072 -0.4823  0.2692 -0.3155
 1552TIP3    H1 4620   4.023   4.981   2.008  0.1141  0.9795  0.3145
 1552TIP3    H2 4621   4.072   4.955   2.149  2.2941 -0.9744 -0.7274
 1553TIP3   OH2 4622   0.189   2.860   5.166  0.2603 -0.5665 -0.5702
 1553TIP3    H1 4623   0.150   2.940   5.130  0.0873 -0.3652  0.0511
 1553TIP3    H2 4624   0.284   2.876   5.161  0.2185  0.3795  1.0510
 1554TIP3   OH2 4625   4.794   6.410   0.763  0.0125  0.3916 -0.5404
 1554TIP3    H1 4626   4.764   6.321   0.782  0.4900  0.3929  0.2894
 1554TIP3    H2 4627   4.739   6.439   0.690 -0.6678 -0.3043 -0.3215
 1555TIP3   OH2 4628   7.137   5.179   1.325 -0.2899  0.4858 -0.2270
 1555TIP3    H1 4629   7.202   5.116   1.294  0.4112  1.0062  0.1559
 1555TIP3    H2 4630   7.180   5.264   1.319 -0.3415  0.6712  1.5572
 1556TIP3   OH2 4631   1.265   2.028   0.166 -0.3616  0.1368 -0.5935
 1556TIP3    H1 4632   1.270   1.946   0.215 -0.3256  0.2452 -0.4190
 1556TIP3    H2 4633   1.316   2.011   0.086 -0.3985 -0.0279 -0.5823
 1557TIP3   OH2 4634   4.602   1.971   0.336 -0.4243  0.2052 -0.4633
 1557TIP3    H1 4635   4.624   1.915   0.411  0.9738  0.7466 -0.4435
 1557TIP3    H2 4636   4.511   1.948   0.314  0.1136 -2.0868 -0.4792
 1558TIP3   OH2 4637   4.464   5.974   1.676  0.3927 -0.6401 -0.4023
 1558TIP3    H1 4638   4.434   6.035   1.743  0.0300  1.6733 -2.5449
 1558TIP3    H2 4639   4.558   5.966   1.691  0.4084  0.2922  0.0682
 1559TIP3   OH2 4640   5.964   0.021   1.947  0.0556 -0.3597 -0.1655
 1559TIP3    H1 4641   5.953   0.060   1.860  0.9009  0.2461 -0.0215
 1559TIP3    H2 4642   5.941   0.092   2.008  1.6456 -0.0304  0.0977
 1560TIP3   OH2 4643   2.176   4.728   0.529 -0.6214 -0.3192 -0.2708
 1560TIP3    H1 4644   2.244   4.776   0.482 -1.1428  0.6904 -0.0368
 1560TIP3    H2 4645   2.128   4.796   0.576 -2.6066 -0.8143 -1.4664
 1561TIP3   OH2 4646   5.406   3.539   4.232 -0.1287 -0.7403  0.1956
 1561TIP3    H1 4647   5.384   3.617   4.180 -0.9591 -0.4447  0.9555
 1561TIP3    H2 4648   5.502   3.538   4.234  0.0574  2.4616  3.2612
 1562TIP3   OH2 4649   0.841   4.176   2.500 -0.2558  0.1213  0.4048
 1562TIP3    H1 4650   0.864   4.240   2.568  1.8105 -0.2256  0.1179
 1562TIP3    H2 4651   0.875   4.093   2.533 -1.1381 -0.4630 -0.1144
 1563TIP3   OH2 4652   1.219   5.359   3.005 -0.0872  0.1648 -0.2172
 1563TIP3    H1 4653   1.228   5.355   3.100 -3.6718 -0.1720  0.2156
 1563TIP3    H2 4654   1.200   5.269   2.978 -1.2305  0.6086 -0.9518
 1564TIP3   OH2 4655   2.775   0.596   2.905 -0.4561 -0.7178 -0.1412
 1564TIP3    H1 4656   2.703   0.533   2.894  0.6006 -1.7585 -1.3560
 1564TIP3    H2 4657   2.847   0.560   2.854  1.1655 -0.0277  1.5591
 1565TIP3   OH2 4658   2.175   1.041   3.093 -0.0290  0.5605 -0.1180
 1565TIP3    H1 4659   2.217   0.964   3.055 -1.2958 -0.0071 -0.4313
 1565TIP3    H2 4660   2.155   1.015   3.183 -2.2060 -0.2679 -0.7572
 1566TIP3   OH2 4661   2.239   0.511   0.928  0.0656  0.1175 -0.3088
 1566TIP3    H1 4662   2.259   0.566   1.004 -1.2921  0.2130  0.0048
 1566TIP3    H2 4663   2.286   0.429   0.945 -0.7753 -0.1204  1.0068
 1567TIP3   OH2 4664   3.730   4.010   4.697 -0.0772  0.3661 -0.0651
 1567TIP3    H1 4665   3.704   4.081   4.640 -1.3853  0.6177  0.8133
 1567TIP3    H2 4666   3.648   3.976   4.734  0.6745 -0.1610  1.2089
 1568TIP3   OH2 4667   6.258   4.247   0.136  0.0418  0.1244  0.1513
 1568TIP3    H1 4668   6.246   4.153   0.152  1.0634 -0.2963 -1.3247
 1568TIP3    H2 4669   6.248   4.256   0.041  0.8155  1.3773  0.1735
 1569TIP3   OH2 4670   3.321   3.170   3.215  0.1268  0.7778  0.2786
 1569TIP3    H1 4671   3.314   3.085   3.257 -0.0194  0.2430 -0.7953
 1569TIP3    H2 4672   3.374   3.223   3.275 -1.5290  0.6140  1.9788
 1570TIP3   OH2 4673   2.523   5.137   3.477 -0.4535 -0.1309  0.1647
 1570TIP3    H1 4674   2.516   5.042   3.482 -0.7620 -0.2568 -1.7412
 1570TIP3    H2 4675   2.453   5.169   3.534 -0.2608 -1.0311  0.9283
 1571TIP3   OH2 4676   4.782   1.433   1.030 -0.0882 -0.0553 -0.2654
 1571TIP3    H1 4677   4.852   1.487   1.067  1.4632 -2.6678  0.8826
 1571TIP3    H2 4678   4.813   1.344   1.039 -2.5300 -1.2118 -2.0810
 1572TIP3   OH2 4679   4.511   0.786   1.766  0.4842 -0.1683  0.5931
 1572TIP3    H1 4680   4.528   0.795   1.860  0.8183 -1.0851  0.6293
 1572TIP3    H2 4681   4.415   0.784   1.760  0.4631 -1.2305  1.0407
 1573TIP3   OH2 4682   0.424   5.032   1.394  0.0602  0.2288  0.1214
 1573TIP3    H1 4683   0.372   5.042   1.474  1.7438 -0.7130  1.3974
 1573TIP3    H2 4684   0.477   5.111   1.389 -1.0660  0.9617 -0.9126
 1574TIP3   OH2 4685   3.692   3.261   0.350 -0.4224  0.0134  0.3713
 1574TIP3    H1 4686   3.615   3.240   0.297  0.4699  0.1933 -1.0822
 1574TIP3    H2 4687   3.688   3.355   0.363 -1.1276 -0.1547  1.4465
 1575TIP3   OH2 4688   3.351   3.885   5.838 -0.2364  0.3332  0.2311
 1575TIP3    H1 4689   3.389   3.851   5.757 -0.5308  0.2308  0.1322
 1575TIP3    H2 4690   3.424   3.925   5.885  0.3122 -1.3163  0.8227
 1576TIP3   OH2 4691   3.480   1.494   0.615  0.7346 -0.0165 -0.0116
 1576TIP3    H1 4692   3.444   1.420   0.566  0.4589 -0.7605  1.2660
 1576TIP3    H2 4693   3.406   1.554   0.625  0.8157  0.1831 -0.5669
 1577TIP3   OH2 4694   5.459   4.115   2.786  0.5895 -0.4208  0.0186
 1577TIP3    H1 4695   5.499   4.084   2.704  0.8987 -1.3769  0.5189
 1577TIP3    H2 4696   5.389   4.174   2.757  0.8264 -0.5773 -0.9258
 1578TIP3   OH2 4697   3.597   5.933   4.256 -0.3818  0.1502 -0.0088
 1578TIP3    H1 4698   3.649   5.921   4.335  0.1180 -1.0371 -0.5066
 1578TIP3    H2 4699   3.530   5.864   4.260  0.1484 -0.4349 -1.0113
 1579TIP3   OH2 4700   5.852   3.358   1.579  0.2839  0.2866  0.2274
 1579TIP3    H1 4701   5.836   3.298   1.651 -1.4318 -0.9725 -1.1333
 1579TIP3    H2 4702   5.923   3.317   1.529 -0.4139 -0.2719 -0.3163
 1580TIP3   OH2 4703   2.245   1.128   1.242 -0.0626  0.1699 -0.1719
 1580TIP3    H1 4704   2.192   1.177   1.305  0.2603 -0.6067  0.7147
 1580TIP3    H2 4705   2.304   1.193   1.204  1.0424  0.3070  1.7078
 1581TIP3   OH2 4706   2.428   1.073   3.481  0.0335 -0.1856  0.4115
 1581TIP3    H1 4707   2.350   1.127   3.487 -0.0739 -0.1415 -1.0069
 1581TIP3    H2 4708   2.450   1.051   3.572 -1.2128  0.3731  0.8634
 1582TIP3   OH2 4709   2.360   2.250   2.365 -0.5347 -0.3699 -0.2395
 1582TIP3    H1 4710   2.348   2.234   2.459 -1.6059 -0.6301 -0.3993
 1582TIP3    H2 4711   2.343   2.344   2.355 -0.8089 -0.4144 -0.2169
 1583TIP3   OH2 4712   3.774   6.666   1.797  0.2285 -0.0504 -0.2391
 1583TIP3    H1 4713   3.824   6.741   1.765 -0.6060  1.5592  1.9747
 1583TIP3    H2 4714   3.696   6.704   1.837 -0.6185 -2.1642  0.2814
 1584TIP3   OH2 4715   5.793   2.831   0.606 -0.2345  0.7789 -0.1759
 1584TIP3    H1 4716   5.854   2.774   0.558 -0.8887  1.2218 -1.5730
 1584TIP3    H2 4717   5.763   2.777   0.679 -1.2221 -0.8864 -1.7422
 1585TIP3   OH2 4718   3.371   1.117   0.280 -0.9216 -0.1676 -0.1001
 1585TIP3    H1 4719   3.427   1.102   0.204 -0.1656 -0.3213  0.4727
 1585TIP3    H2 4720   3.378   1.037   0.332  0.6506  0.8644  1.4112
 1586TIP3   OH2 4721   6.988   6.050   2.114 -0.7663 -0.6398  0.0445
 1586TIP3    H1 4722   6.990   5.986   2.185  1.7687 -2.4118 -1.4887
 1586TIP3    H2 4723   6.948   6.004   2.040 -0.5920  0.1443 -0.5559
 1587TIP3   OH2 4724   5.763   4.976   3.548  0.0538 -0.7757 -0.1093
 1587TIP3    H1 4725   5.827   4.905   3.540  0.4257 -0.4218 -0.3334
 1587TIP3    H2 4726   5.816   5.056   3.547 -0.2299 -0.5203  1.4344
 1588TIP3   OH2 4727   4.995   5.146   0.734  0.5677  0.1262 -0.3195
 1588TIP3    H1 4728   4.981   5.061   0.692 -0.1974 -0.0125  0.1856
 1588TIP3    H2 4729   4.958   5.135   0.822 -0.1919  1.2008 -0.4893
 1589TIP3   OH2 4730   3.974   0.394   4.665  0.3602  0.7177 -0.2391
 1589TIP3    H1 4731   3.926   0.474   4.642  1.2723  1.8527  1.5756
 1589TIP3    H2 4732   3.920   0.323   4.629 -1.6916  2.0170  0.0814
 1590TIP3   OH2 4733   2.952   3.836   1.657  0.0906 -0.6930 -0.1871
 1590TIP3    H1 4734   2.858   3.826   1.641 -0.4022 -0.1137  2.0910
 1590TIP3    H2 4735   2.992   3.819   1.571 -2.0531 -1.1361 -1.1743
 1591TIP3   OH2 4736   5.650   4.064   4.486 -0.4939  0.1361 -0.4607
 1591TIP3    H1 4737   5.618   4.120   4.415 -0.2818 -0.9174 -1.4022
 1591TIP3    H2 4738   5.639   3.975   4.454  3.9786 -0.3897 -1.2527
 1592TIP3   OH2 4739   6.063   1.468   3.186  0.4704 -0.3058 -0.3178
 1592TIP3    H1 4740   6.040   1.396   3.127  0.8357 -0.9509  0.3124
 1592TIP3    H2 4741   5.998   1.464   3.256  0.3695  0.1088 -0.3881
 1593TIP3   OH2 4742   5.852   0.243   5.491 -0.1841 -0.3029  0.4449
 1593TIP3    H1 4743   5.808   0.322   5.523 -0.2605 -0.2037  0.0907
 1593TIP3    H2 4744   5.809   0.223   5.408  0.3594 -0.2716  0.1538
 1594TIP3   OH2 4745   5.337   6.392   4.941 -0.6163 -0.1240 -0.0612
 1594TIP3    H1 4746   5.309   6.342   4.864 -0.9136 -0.0515  0.0004
 1594TIP3    H2 4747   5.404   6.337   4.982  0.7160  0.5407 -1.2607
 1595TIP3   OH2 4748   4.198   3.355   2.316  0.5473 -0.6922  0.4759
 1595TIP3    H1 4749   4.177   3.285   2.376  0.4699  0.5903  2.0122
 1595TIP3    H2 4750   4.286   3.382   2.340  0.3114  0.1919  0.3943
 1596TIP3   OH2 4751   5.807   6.455   0.409 -0.0532  0.1753  0.0708
 1596TIP3    H1 4752   5.724   6.500   0.390  0.8141  0.9717 -2.2961
 1596TIP3    H2 4753   5.794   6.366   0.376  0.8810  1.0936 -3.1410
 1597TIP3   OH2 4754   5.109   6.143   5.493 -0.0717 -0.0838 -0.1496
 1597TIP3    H1 4755   5.035   6.192   5.457 -0.0291  0.1891  0.1347
 1597TIP3    H2 4756   5.130   6.079   5.425 -0.2350  0.1789 -0.4512
 1598TIP3   OH2 4757   4.667   3.868   0.780  0.3051 -0.7061  0.0992
 1598TIP3    H1 4758   4.593   3.877   0.721  0.1450  0.6574  0.4938
 1598TIP3    H2 4759   4.696   3.777   0.767 -0.8379 -0.9775 -0.7331
 1599TIP3   OH2 4760   4.245   0.567   4.484  0.6334  0.1133 -0.1088
 1599TIP3    H1 4761   4.155   0.541   4.504  0.2701  0.7814 -0.8260
 1599TIP3    H2 4762   4.236   0.634   4.416  1.6798  0.1030 -0.2716
 1600TIP3   OH2 4763   1.672   1.249   1.637  0.3867 -0.0413  0.5440
 1600TIP3    H1 4764   1.588   1.292   1.622  0.5224 -0.2658 -0.9395
 1600TIP3    H2 4765   1.712   1.299   1.708 -0.4952  0.7755  0.4778
 1601TIP3   OH2 4766   4.760   4.685   4.370 -0.2001 -0.5973 -0.2414
 1601TIP3    H1 4767   4.750   4.601   4.414 -3.0585  0.1170  0.6661
 1601TIP3    H2 4768   4.812   4.738   4.431 -0.8800 -0.8306  0.5639
 1602TIP3   OH2 4769   6.539   5.652   1.361 -0.5535  0.1716  0.2161
 1602TIP3    H1 4770   6.591   5.608   1.428  0.6473  0.4692 -0.4811
 1602TIP3    H2 4771   6.502   5.581   1.308  2.1849 -0.0996 -1.5134
 1603TIP3   OH2 4772   4.425   3.876   3.282  0.2186 -0.2573  0.5212
 1603TIP3    H1 4773   4.398   3.785   3.267  2.6383 -0.8199 -0.9146
 1603TIP3    H2 4774   4.485   3.895   3.210  0.1900  2.3380  1.0943
 1604TIP3   OH2 4775   3.537   1.857   5.847  0.0880 -0.2142  0.2837
 1604TIP3    H1 4776   3.469   1.830   5.909 -0.0360 -1.0865 -0.2199
 1604TIP3    H2 4777   3.563   1.777   5.803  0.2186  0.3775 -0.7558
 1605TIP3   OH2 4778   1.890   2.299   0.629 -0.2075  0.1108 -0.3046
 1605TIP3    H1 4779   1.956   2.245   0.586  0.3244 -0.1522  0.7905
 1605TIP3    H2 4780   1.938   2.345   0.698 -1.1247  0.0595  0.3867
 1606TIP3   OH2 4781   2.614   5.221   3.968 -0.1880  0.0666  0.1081
 1606TIP3    H1 4782   2.526   5.260   3.964 -0.4227 -0.3699  0.7691
 1606TIP3    H2 4783   2.658   5.271   4.037 -1.0099 -1.7990  2.0909
 1607TIP3   OH2 4784   3.454   4.382   5.164 -0.1425 -0.9254  0.7994
 1607TIP3    H1 4785   3.516   4.367   5.236  0.6360 -0.1025  0.3127
 1607TIP3    H2 4786   3.503   4.361   5.085 -0.3403  0.1688  0.3763
 1608TIP3   OH2 4787   1.103   3.090   0.716 -0.3738 -0.2823 -0.3804
 1608TIP3    H1 4788   1.114   3.104   0.622  0.5355  3.1696  0.0877
 1608TIP3    H2 4789   1.014   3.120   0.735  0.3346  1.6728  0.1432
 1609TIP3   OH2 4790   5.576   0.896   0.147 -0.6179  0.4458  0.3854
 1609TIP3    H1 4791   5.503   0.834   0.158  0.1958 -0.4170  1.1246
 1609TIP3    H2 4792   5.626   0.860   0.073 -0.4281  0.5205  0.4791
 1610TIP3   OH2 4793   0.861   2.722   2.101  0.2174 -0.6168  0.9561
 1610TIP3    H1 4794   0.822   2.765   2.024 -0.3765 -1.4327  0.7969
 1610TIP3    H2 4795   0.847   2.783   2.173  1.3135  0.4430  0.3204
 1611TIP3   OH2 4796   6.606   2.992   2.479  0.1256 -0.6002  0.0726
 1611TIP3    H1 4797   6.678   3.032   2.529  1.0916 -2.9050  0.6614
 1611TIP3    H2 4798   6.567   2.929   2.540 -0.0184 -1.9848 -1.3950
 1612TIP3   OH2 4799   4.223   2.054   4.612 -0.1950 -0.2173  0.4461
 1612TIP3    H1 4800   4.210   2.131   4.667 -1.8013 -0.3894  0.3648
 1612TIP3    H2 4801   4.278   1.996   4.664  1.6304  1.2463  0.2307
 1613TIP3   OH2 4802   4.526   6.453   5.491  0.3029 -0.0951 -0.2996
 1613TIP3    H1 4803   4.564   6.441   5.578 -1.9754  0.3577  0.8358
 1613TIP3    H2 4804   4.504   6.546   5.487  1.3741  0.1261 -1.8366
 1614TIP3   OH2 4805   2.611   0.931   5.577  0.3774  0.4099 -0.2520
 1614TIP3    H1 4806   2.689   0.987   5.575  1.3772 -0.8639  1.3296
 1614TIP3    H2 4807   2.645   0.843   5.595 -1.4380 -0.1333  0.6963
 1615TIP3   OH2 4808   5.983   0.169   2.244 -0.3112  0.2104  0.4317
 1615TIP3    H1 4809   5.956   0.258   2.219 -0.7082 -0.1235 -0.3587
 1615TIP3    H2 4810   6.072   0.160   2.212  0.1869  0.7339  1.5872
 1616TIP3   OH2 4811   5.103   5.991   5.267 -0.0204  0.5901 -0.4445
 1616TIP3    H1 4812   5.059   5.911   5.241 -0.5511  0.2048  1.4966
 1616TIP3    H2 4813   5.196   5.969   5.264 -0.2027 -0.6096  1.5227
 1617TIP3   OH2 4814   0.950   1.776   0.216  0.1107 -0.0335 -0.2062
 1617TIP3    H1 4815   0.973   1.868   0.202 -1.5085  0.5550  0.7548
 1617TIP3    H2 4816   0.889   1.756   0.145  0.3185 -0.3161 -0.3062
 1618TIP3   OH2 4817   0.446   0.842   5.173 -0.0493  0.3953  0.1986
 1618TIP3    H1 4818   0.369   0.897   5.187  0.6794  1.6444 -0.5303
 1618TIP3    H2 4819   0.481   0.827   5.261  0.5631  2.3404  0.3208
 1619TIP3   OH2 4820   6.185  -0.006   5.519  0.0982 -0.1912 -0.0719
 1619TIP3    H1 4821   6.239   0.010   5.441  1.3255 -1.0076  0.5714
 1619TIP3    H2 4822   6.212   0.063   5.580  0.1548 -0.3914  0.1287
 1620TIP3   OH2 4823   0.300   1.293   3.874 -0.4561  0.1487  0.1927
 1620TIP3    H1 4824   0.229   1.271   3.935 -0.6343  0.6617  0.1739
 1620TIP3    H2 4825   0.264   1.364   3.820 -0.0668  0.1434 -0.0762
 1621TIP3   OH2 4826   2.263   5.583   5.830 -0.0757 -0.2328 -0.0692
 1621TIP3    H1 4827   2.267   5.634   5.749 -2.0031 -0.0824 -0.1002
 1621TIP3    H2 4828   2.177   5.540   5.829  0.6077 -1.7534  1.0077
 1622TIP3   OH2 4829   1.060   0.024   4.766 -0.2050 -0.2929 -0.3767
 1622TIP3    H1 4830   1.141   0.023   4.816  0.2633 -0.9552 -1.1102
 1622TIP3    H2 4831   0.991   0.017   4.831  0.3699 -0.7335  0.1958
 1623TIP3   OH2 4832   3.357   2.294   0.373 -1.1839  0.6944 -0.1186
 1623TIP3    H1 4833   3.412   2.240   0.429 -1.2214  0.2014 -0.5470
 1623TIP3    H2 4834   3.296   2.232   0.333 -1.0205  1.0136 -0.8654
 1624TIP3   OH2 4835   5.782   3.651   3.829 -0.1278  0.1163  0.1991
 1624TIP3    H1 4836   5.712   3.641   3.765 -1.6204 -0.8404  1.9029
 1624TIP3    H2 4837   5.854   3.690   3.780 -0.7727 -1.6468 -2.3361
 1625TIP3   OH2 4838   3.972   1.754   1.900 -0.2561  0.0648  0.1287
 1625TIP3    H1 4839   3.962   1.692   1.828 -1.7736 -1.1355  1.3108
 1625TIP3    H2 4840   4.020   1.828   1.862  0.4300 -1.2426 -1.6627
 1626TIP3   OH2 4841   6.065   5.898   2.183  0.3414  0.1148  0.7456
 1626TIP3    H1 4842   6.090   5.982   2.223 -0.0094  0.7685 -0.3448
 1626TIP3    H2 4843   6.107   5.832   2.238  0.7663  1.0081  1.5405
 1627TIP3   OH2 4844   4.917   1.813   2.468 -0.4160 -0.5858 -0.3800
 1627TIP3    H1 4845   4.984   1.879   2.455 -0.0282 -1.3009 -2.2399
 1627TIP3    H2 4846   4.866   1.814   2.387 -0.3877 -2.5635 -0.4599
 1628TIP3   OH2 4847   0.980   6.510   3.739 -0.7105  0.5608  0.4872
 1628TIP3    H1 4848   1.067   6.508   3.780 -0.3771 -2.2757 -0.1429
 1628TIP3    H2 4849   0.965   6.603   3.720  1.0644  1.4535  2.8753
 1629TIP3   OH2 4850   4.811   4.943   2.828 -0.3120  0.1614 -0.3885
 1629TIP3    H1 4851   4.866   4.891   2.769 -0.4681  0.2783 -0.6382
 1629TIP3    H2 4852   4.723   4.936   2.790 -0.4037  0.2763 -0.1953
 1630TIP3   OH2 4853   2.723   6.241   5.569  0.1949 -0.2060  0.3923
 1630TIP3    H1 4854   2.650   6.183   5.592 -0.0648 -0.0407 -0.0102
 1630TIP3    H2 4855   2.732   6.233   5.474  1.1340 -0.7270  0.5062
 1631TIP3   OH2 4856   0.726   3.616   3.742 -0.5255  0.3657  0.8129
 1631TIP3    H1 4857   0.728   3.567   3.824 -1.8368 -0.6264  0.2810
 1631TIP3    H2 4858   0.635   3.616   3.715 -0.4828  2.6122  0.4541
 1632TIP3   OH2 4859   1.362   5.077   5.697  0.6330 -0.1455 -0.3289
 1632TIP3    H1 4860   1.291   5.030   5.653  0.9504  0.6163 -1.7311
 1632TIP3    H2 4861   1.354   5.052   5.789 -0.9455 -0.7089 -0.5806
 1633TIP3   OH2 4862   0.105   1.503   4.344 -0.3592  0.0777  0.0483
 1633TIP3    H1 4863   0.125   1.414   4.373  0.8008 -0.0490 -1.0329
 1633TIP3    H2 4864   0.189   1.537   4.314 -0.7055  1.6931  0.8008
 1634TIP3   OH2 4865   1.063   2.827   3.310 -0.4371 -0.4723 -0.0697
 1634TIP3    H1 4866   1.127   2.817   3.239  0.9886  1.1905  0.9012
 1634TIP3    H2 4867   1.112   2.804   3.390 -0.9800  0.9906  0.7170
 1635TIP3   OH2 4868   6.048   0.321   3.409 -0.0198  0.0035 -0.1740
 1635TIP3    H1 4869   6.115   0.302   3.344  0.6660 -0.6603  0.6917
 1635TIP3    H2 4870   5.965   0.311   3.363  0.4613 -0.0712 -1.0342
 1636TIP3   OH2 4871   6.306   2.753   3.050  0.1783  0.4282  0.8627
 1636TIP3    H1 4872   6.222   2.777   3.012  1.6255  1.1518 -2.2487
 1636TIP3    H2 4873   6.324   2.821   3.115 -0.5348  1.7175 -0.2348
 1637TIP3   OH2 4874   6.114   2.466   2.550  0.1090 -0.2083 -0.7737
 1637TIP3    H1 4875   6.116   2.559   2.526 -2.6479  0.1128 -0.1431
 1637TIP3    H2 4876   6.073   2.423   2.475  2.3639 -1.1699 -1.5363
 1638TIP3   OH2 4877   6.170   1.619   4.553 -0.2911  0.2611  0.0733
 1638TIP3    H1 4878   6.171   1.703   4.507 -0.7048  0.0989 -0.2360
 1638TIP3    H2 4879   6.255   1.580   4.533 -0.2164  0.4717 -0.0266
 1639TIP3   OH2 4880   4.496   5.112   3.891  0.0816  0.2272  0.3569
 1639TIP3    H1 4881   4.481   5.145   3.803  0.3355 -0.2866  0.1160
 1639TIP3    H2 4882   4.553   5.036   3.879  1.3548  1.0286  1.0953
 1640TIP3   OH2 4883   0.528   0.662   1.892 -0.6836 -0.0947 -0.3243
 1640TIP3    H1 4884   0.470   0.736   1.910 -0.0510  0.4604 -0.5156
 1640TIP3    H2 4885   0.615   0.694   1.915 -0.0422  0.0940 -2.6971
 1641TIP3   OH2 4886   5.309   5.702   4.847  0.3388  0.4144 -0.3275
 1641TIP3    H1 4887   5.215   5.685   4.854  0.0465  0.0489 -3.5071
 1641TIP3    H2 4888   5.332   5.744   4.929 -2.9026  1.7736  0.0415
 1642TIP3   OH2 4889   4.244   5.131   4.277 -0.1001 -0.3766  0.3459
 1642TIP3    H1 4890   4.175   5.167   4.221  2.1406  2.2308 -1.0160
 1642TIP3    H2 4891   4.266   5.047   4.237 -1.6837 -0.7645  0.1892
 1643TIP3   OH2 4892   4.694   5.769   1.013 -0.1941  0.0492  0.2378
 1643TIP3    H1 4893   4.624   5.815   1.058 -1.3745  0.0636 -1.5015
 1643TIP3    H2 4894   4.767   5.831   1.012 -0.5328  0.4745  1.0755
 1644TIP3   OH2 4895   4.552   0.206   1.688  0.0393 -0.6033 -0.6227
 1644TIP3    H1 4896   4.574   0.241   1.601 -0.6123 -1.6366 -1.2285
 1644TIP3    H2 4897   4.459   0.223   1.698  0.2829  0.2712  0.2570
 1645TIP3   OH2 4898   0.133   1.710   3.236 -0.5296 -0.5055 -0.0663
 1645TIP3    H1 4899   0.182   1.670   3.164  0.5239  0.5912  0.0084
 1645TIP3    H2 4900   0.153   1.804   3.229 -2.2069 -0.0901  0.3080
 1646TIP3   OH2 4901   3.184   2.253   5.483  0.3809  0.0738  0.3233
 1646TIP3    H1 4902   3.153   2.232   5.571  1.0545  1.2941  0.8832
 1646TIP3    H2 4903   3.238   2.177   5.458  0.9283  0.1075  1.3477
 1647TIP3   OH2 4904   5.564   6.050   1.645 -0.1749  0.0661  0.1545
 1647TIP3    H1 4905   5.594   5.965   1.678  2.2516  0.6281 -0.4133
 1647TIP3    H2 4906   5.552   6.037   1.551 -1.2786 -0.0026  0.2889
 1648TIP3   OH2 4907   4.081   5.403   0.948 -0.1129 -0.2490  0.2231
 1648TIP3    H1 4908   3.990   5.407   0.920 -0.2098  0.3476  0.5970
 1648TIP3    H2 4909   4.084   5.329   1.009 -0.2630 -0.5037 -0.0789
 1649TIP3   OH2 4910   1.361   4.456   0.706 -0.2358 -0.1981  0.0850
 1649TIP3    H1 4911   1.428   4.477   0.641 -0.6570  0.5061 -0.1357
 1649TIP3    H2 4912   1.337   4.541   0.744 -2.3521 -0.1557 -1.1820
 1650TIP3   OH2 4913   1.227   4.346   5.838 -0.4985  0.3911 -0.0393
 1650TIP3    H1 4914   1.190   4.287   5.904 -2.0029  0.0894 -1.0996
 1650TIP3    H2 4915   1.183   4.430   5.854 -0.8215  0.3326 -0.6153
 1651TIP3   OH2 4916   6.484   0.646   5.379 -0.5315  0.1362 -0.0367
 1651TIP3    H1 4917   6.432   0.703   5.323 -1.9302 -0.5173  0.5575
 1651TIP3    H2 4918   6.574   0.657   5.347 -1.1575  0.4516 -1.8098
 1652TIP3   OH2 4919   3.018   1.185   1.450  0.4369  0.0535  0.1838
 1652TIP3    H1 4920   3.051   1.266   1.489  4.1349  0.5070 -3.1910
 1652TIP3    H2 4921   3.089   1.122   1.462 -0.7045 -1.4774 -0.7440
 1653TIP3   OH2 4922   6.776   1.464   2.234 -0.4213  0.3502  0.4942
 1653TIP3    H1 4923   6.811   1.445   2.147  0.0726  0.7529  0.6039
 1653TIP3    H2 4924   6.788   1.382   2.282 -0.8246  0.0798  0.1485
 1654TIP3   OH2 4925   5.439   5.102   3.966  0.0887 -0.1790  0.2050
 1654TIP3    H1 4926   5.370   5.111   4.033 -0.6161 -1.0302 -0.3750
 1654TIP3    H2 4927   5.490   5.026   3.995 -0.3487 -0.6816 -0.3183
 1655TIP3   OH2 4928   5.113   5.173   3.449  0.7958 -0.3709  0.4072
 1655TIP3    H1 4929   5.047   5.108   3.474  1.6109 -0.8168  1.4904
 1655TIP3    H2 4930   5.164   5.130   3.380  1.0796 -0.7419  0.8395
 1656TIP3   OH2 4931   5.615   4.355   1.441  0.3653  0.0862 -0.5909
 1656TIP3    H1 4932   5.666   4.423   1.397 -2.0377  2.6593  0.2937
 1656TIP3    H2 4933   5.554   4.403   1.497 -1.0884 -2.8597  0.5769
 1657TIP3   OH2 4934   1.280   5.130   1.083 -0.0244  0.7158 -0.2032
 1657TIP3    H1 4935   1.196   5.161   1.117 -0.1749  0.1358 -0.0341
 1657TIP3    H2 4936   1.264   5.113   0.990 -0.3004 -0.0978 -0.0133
 1658TIP3   OH2 4937   3.373   6.045   4.174 -0.4284  0.4044  0.8299
 1658TIP3    H1 4938   3.462   6.030   4.205 -0.7193  1.1110  2.0736
 1658TIP3    H2 4939   3.382   6.062   4.080  0.5899 -0.8164  0.6827
 1659TIP3   OH2 4940   6.546   1.847   1.571 -0.2049  0.1997  0.1288
 1659TIP3    H1 4941   6.457   1.820   1.549  0.3691 -0.6124 -1.3665
 1659TIP3    H2 4942   6.563   1.923   1.515 -0.4137  1.2481  1.4310
 1660TIP3   OH2 4943   0.916   3.617   0.296  0.1279  0.1629  0.0833
 1660TIP3    H1 4944   0.905   3.698   0.345  1.7258  0.0147  0.7437
 1660TIP3    H2 4945   1.010   3.609   0.283  0.0166 -1.6169  0.0822
 1661TIP3   OH2 4946   5.254   3.785   1.450  0.2380 -0.9438 -0.1554
 1661TIP3    H1 4947   5.184   3.792   1.385 -2.0133  1.1750  2.2652
 1661TIP3    H2 4948   5.247   3.695   1.483 -2.6707 -0.3294  1.2439
 1662TIP3   OH2 4949   4.837   2.123   1.980  0.4990  0.4697  0.1466
 1662TIP3    H1 4950   4.853   2.164   1.895 -2.3527 -0.6119 -1.0405
 1662TIP3    H2 4951   4.811   2.195   2.037  0.5017  0.9511 -0.4521
 1663TIP3   OH2 4952   4.858   0.578   4.918  0.5436  0.0121  0.1299
 1663TIP3    H1 4953   4.876   0.485   4.936  1.6353  0.2059  0.0814
 1663TIP3    H2 4954   4.900   0.625   4.990 -0.8175  0.4363  0.6804
 1664TIP3   OH2 4955   3.809   3.231   3.730  0.7605  0.6289  0.4071
 1664TIP3    H1 4956   3.854   3.226   3.814  2.6584 -0.3678 -0.6157
 1664TIP3    H2 4957   3.803   3.325   3.712 -0.0965  0.8802  1.8308
 1665TIP3   OH2 4958   5.435   0.079   5.574 -0.1788 -0.1460 -0.4388
 1665TIP3    H1 4959   5.376   0.089   5.648  1.5250  0.5261  0.9089
 1665TIP3    H2 4960   5.460  -0.013   5.574  1.4300  0.2343  1.2042
 1666TIP3   OH2 4961   6.977   6.573   0.922 -0.2087  0.1442  0.0945
 1666TIP3    H1 4962   6.998   6.557   0.830 -1.2522  2.4841 -0.6434
 1666TIP3    H2 4963   6.938   6.661   0.922  0.5339  0.5617  2.8948
 1667TIP3   OH2 4964   4.587   6.068   5.832 -0.0231  0.3761 -0.7061
 1667TIP3    H1 4965   4.624   6.072   5.921 -0.7428 -0.2209 -0.3672
 1667TIP3    H2 4966   4.655   6.106   5.776  0.5562  0.5063  0.0658
 1668TIP3   OH2 4967   1.301   0.182   5.146  0.1411 -0.4219  0.3196
 1668TIP3    H1 4968   1.236   0.117   5.119 -0.0966  0.1980 -0.6790
 1668TIP3    H2 4969   1.382   0.155   5.101 -0.2508  0.6056 -1.0730
 1669TIP3   OH2 4970   4.786   2.358   1.451 -0.7136  0.9706  0.1821
 1669TIP3    H1 4971   4.845   2.327   1.383  0.1385 -0.0307  1.3464
 1669TIP3    H2 4972   4.724   2.286   1.464 -0.1320  0.6465  1.2877
 1670TIP3   OH2 4973   6.131   5.427   1.422 -0.1631 -0.3070 -0.2100
 1670TIP3    H1 4974   6.167   5.514   1.406 -1.0417  0.5548  2.0938
 1670TIP3    H2 4975   6.208   5.371   1.433  0.4801 -0.4412 -3.9310
 1671TIP3   OH2 4976   2.561   4.745   5.190 -0.2431 -0.1137  0.0079
 1671TIP3    H1 4977   2.494   4.798   5.234 -0.6363 -0.8845  0.3564
 1671TIP3    H2 4978   2.592   4.801   5.118  0.1164  0.9926  1.0011
 1672TIP3   OH2 4979   4.671   3.241   3.739 -0.0610  0.1759  0.6230
 1672TIP3    H1 4980   4.666   3.314   3.678  0.0664 -0.8113 -0.6061
 1672TIP3    H2 4981   4.593   3.251   3.795  0.5158  1.8227  1.1903
 1673TIP3   OH2 4982   5.307   5.785   5.584 -0.4751  0.0539  0.3409
 1673TIP3    H1 4983   5.268   5.772   5.497  0.7950 -0.2334 -0.2020
 1673TIP3    H2 4984   5.365   5.860   5.572  0.7212 -0.8214  0.5938
 1674TIP3   OH2 4985   5.031   6.053   2.849 -0.4246  0.2381 -0.3093
 1674TIP3    H1 4986   5.019   5.958   2.846  1.2445 -0.1064  1.6471
 1674TIP3    H2 4987   4.942   6.088   2.855 -1.0806 -1.1699 -1.3163
 1675TIP3   OH2 4988   0.026   4.683   3.421  0.2839  0.9880 -0.2372
 1675TIP3    H1 4989   0.074   4.620   3.473  0.2016  0.3832 -0.8828
 1675TIP3    H2 4990   0.058   4.768   3.450 -1.8601  0.8706  2.9552
 1676TIP3   OH2 4991   7.167   4.145   2.544 -0.0598  0.4467 -0.2448
 1676TIP3    H1 4992   7.094   4.175   2.489 -1.0343  0.1141  0.8271
 1676TIP3    H2 4993   7.144   4.175   2.632  0.1279 -1.3154  0.4496
 1677TIP3   OH2 4994   5.510   1.829   5.233 -0.5437 -0.4768 -0.5023
 1677TIP3    H1 4995   5.585   1.842   5.175  0.7945 -1.0758  1.0357
 1677TIP3    H2 4996   5.470   1.916   5.240  0.2115 -0.0709 -1.0662
 1678TIP3   OH2 4997   4.067   3.824   0.544  0.6087  0.1348 -1.0152
 1678TIP3    H1 4998   4.093   3.872   0.466  0.8350  1.4909 -0.1358
 1678TIP3    H2 4999   4.132   3.847   0.610  0.1274 -0.5618 -0.2660
 1679TIP3   OH2 5000   7.035   4.453   3.540  0.0109  0.0350 -0.2917
 1679TIP3    H1 5001   7.129   4.463   3.524  0.1650 -1.8914 -0.8250
 1679TIP3    H2 5002   7.018   4.506   3.617  1.3573  1.1120 -0.6872
 1680TIP3   OH2 5003   3.213   5.716   2.928  0.2608 -0.0321  0.2331
 1680TIP3    H1 5004   3.210   5.673   2.843  2.2788  0.3974 -0.1196
 1680TIP3    H2 5005   3.177   5.652   2.989  2.2342 -1.8770 -0.4082
 1681TIP3   OH2 5006   6.616   0.056   3.644  0.0217  0.6751  0.3233
 1681TIP3    H1 5007   6.651   0.025   3.727  1.9733 -0.5100 -0.8654
 1681TIP3    H2 5008   6.594   0.148   3.660  0.5300  0.5224  2.0903
 1682TIP3   OH2 5009   3.909   1.813   4.084  0.0489 -0.0973  0.1032
 1682TIP3    H1 5010   3.898   1.718   4.093  1.8768 -0.2591  0.9868
 1682TIP3    H2 5011   3.918   1.845   4.173  1.2302  0.6534 -0.2659
 1683TIP3   OH2 5012   1.829   5.119   3.597 -0.3642 -0.3778 -1.1414
 1683TIP3    H1 5013   1.918   5.152   3.599 -1.4610  2.9222 -0.8189
 1683TIP3    H2 5014   1.819   5.083   3.508  1.1848 -0.6872 -1.2253
 1684TIP3   OH2 5015   6.323   1.031   2.159  0.0536  0.4449 -0.0954
 1684TIP3    H1 5016   6.345   1.034   2.066  0.9961  1.6250  0.1484
 1684TIP3    H2 5017   6.232   1.001   2.161 -0.5494  2.0479 -1.4833
 1685TIP3   OH2 5018   1.651   3.208   5.496 -0.1940 -0.4524  0.4503
 1685TIP3    H1 5019   1.676   3.169   5.412 -3.5041 -0.7970 -0.5442
 1685TIP3    H2 5020   1.625   3.298   5.475  1.7356  0.4526  1.6905
 1686TIP3   OH2 5021   1.310   3.929   4.427  0.0153 -0.2754  0.1913
 1686TIP3    H1 5022   1.329   3.978   4.346  0.9648 -0.0908  0.5110
 1686TIP3    H2 5023   1.225   3.887   4.410 -1.1313  1.9053  0.0924
 1687TIP3   OH2 5024   6.209   3.973   2.544  0.7327 -0.4070  0.0405
 1687TIP3    H1 5025   6.200   3.900   2.483 -0.8362  0.0679 -0.3459
 1687TIP3    H2 5026   6.254   3.936   2.620  1.7722 -1.2608 -0.9594
 1688TIP3   OH2 5027   3.954   4.565   5.364  0.1467 -0.4746  0.0617
 1688TIP3    H1 5028   3.982   4.504   5.295  0.3759 -1.2461  0.8226
 1688TIP3    H2 5029   3.879   4.610   5.326  1.1673  0.2077 -1.2673
 1689TIP3   OH2 5030   6.104   3.548   1.880 -0.2675  0.5401 -0.3935
 1689TIP3    H1 5031   6.190   3.506   1.876 -0.9064 -1.1237  1.4852
 1689TIP3    H2 5032   6.050   3.486   1.927 -2.2650  1.9860 -0.6686
 1690TIP3   OH2 5033   4.157   5.739   0.229 -0.6331  0.6728 -0.5741
 1690TIP3    H1 5034   4.251   5.727   0.221 -0.5568 -0.0175  1.0625
 1690TIP3    H2 5035   4.124   5.655   0.262 -1.7121  1.1508 -0.3796
 1691TIP3   OH2 5036   3.519   4.785   4.539  0.0754  0.1970  0.4718
 1691TIP3    H1 5037   3.539   4.707   4.488 -1.9781  0.0123 -0.1296
 1691TIP3    H2 5038   3.491   4.751   4.624 -2.8901  0.0519 -0.4570
 1692TIP3   OH2 5039   2.229   1.424   1.963  0.0157  0.1489 -0.0906
 1692TIP3    H1 5040   2.263   1.363   1.897 -3.0761 -0.4305 -1.3404
 1692TIP3    H2 5041   2.299   1.431   2.028  2.4086 -0.8928 -2.3523
 1693TIP3   OH2 5042   5.943   1.704   2.798  0.0304  0.0590 -0.5657
 1693TIP3    H1 5043   5.949   1.679   2.706  0.6264  3.1838 -1.4760
 1693TIP3    H2 5044   5.860   1.750   2.805 -0.4038 -0.8489  0.7102
 1694TIP3   OH2 5045   1.802   2.407   1.842 -0.3955 -0.5830  0.0096
 1694TIP3    H1 5046   1.843   2.336   1.891 -1.7017  0.0009  2.1327
 1694TIP3    H2 5047   1.848   2.486   1.872 -2.0330 -0.0782  1.3939
 1695TIP3   OH2 5048   4.257   1.514   4.330  0.0349 -0.5228 -0.9411
 1695TIP3    H1 5049   4.295   1.458   4.398  0.8784  0.5353 -0.5276
 1695TIP3    H2 5050   4.302   1.597   4.339 -0.9011  0.1020 -1.8411
 1696TIP3   OH2 5051   2.425   6.381   2.007 -0.1525 -0.1676 -0.8531
 1696TIP3    H1 5052   2.434   6.402   1.914 -0.5459 -0.0418 -0.8642
 1696TIP3    H2 5053   2.401   6.464   2.048 -0.2275 -0.2762 -0.6782
 1697TIP3   OH2 5054   6.088   0.443   2.501  0.1774 -0.2198  0.0939
 1697TIP3    H1 5055   6.062   0.352   2.515 -2.3576  0.2861 -0.7818
 1697TIP3    H2 5056   6.052   0.490   2.576 -0.9643  0.4233 -0.8280
 1698TIP3   OH2 5057   2.620   4.022   3.872  0.1019  0.1372 -0.2699
 1698TIP3    H1 5058   2.567   4.096   3.901 -2.1289 -0.8296 -1.6254
 1698TIP3    H2 5059   2.692   4.018   3.936 -0.5725  2.4626  0.7484
 1699TIP3   OH2 5060   1.008   4.332   3.068 -0.4681 -0.0702 -0.2609
 1699TIP3    H1 5061   0.955   4.355   3.145  1.1086  0.3126  0.7625
 1699TIP3    H2 5062   1.012   4.412   3.017 -0.0996  0.1745  0.1467
 1700TIP3   OH2 5063   3.833   3.069   2.379  0.6409 -0.3767  0.3183
 1700TIP3    H1 5064   3.859   2.980   2.355 -0.0770 -0.2934 -0.8444
 1700TIP3    H2 5065   3.841   3.119   2.298 -1.4630  0.0272  0.3154
 1701TIP3   OH2 5066   2.005   1.506   1.465  0.3057 -0.1820  0.1212
 1701TIP3    H1 5067   1.922   1.506   1.417  0.3858 -1.6733 -0.0654
 1701TIP3    H2 5068   1.988   1.558   1.543 -0.3075  0.9239 -0.7071
 1702TIP3   OH2 5069   3.604   2.417   1.393  0.3541  0.0499 -0.5709
 1702TIP3    H1 5070   3.530   2.358   1.375 -1.8826  1.7580  2.1182
 1702TIP3    H2 5071   3.623   2.403   1.486  0.8310  2.3527 -0.2639
 1703TIP3   OH2 5072   5.509   2.678   2.957 -0.5825 -0.5564 -0.0893
 1703TIP3    H1 5073   5.424   2.642   2.931 -0.8114 -0.4643  0.5157
 1703TIP3    H2 5074   5.563   2.600   2.974 -0.6163 -0.6159 -0.2537
 1704TIP3   OH2 5075   6.843   4.771   4.372  0.4026 -0.3617  0.3534
 1704TIP3    H1 5076   6.756   4.792   4.406  0.6810  0.4098  0.5944
 1704TIP3    H2 5077   6.826   4.736   4.284 -0.0289  1.8657 -0.5075
 1705TIP3   OH2 5078   5.231   0.259   2.196  0.4855  0.0363 -0.6301
 1705TIP3    H1 5079   5.137   0.247   2.183  0.7014 -2.2693 -0.4671
 1705TIP3    H2 5080   5.237   0.336   2.252 -1.3537 -0.2822  0.0969
 1706TIP3   OH2 5081   6.116   3.258   5.704  0.5496 -0.0760  0.0544
 1706TIP3    H1 5082   6.120   3.170   5.667 -0.7157 -0.0245 -0.2594
 1706TIP3    H2 5083   6.065   3.249   5.784 -0.4145  0.5018 -0.4695
 1707TIP3   OH2 5084   5.137   6.579   1.459 -0.5054  0.5067 -0.4178
 1707TIP3    H1 5085   5.158   6.604   1.549  1.0471 -2.1574  0.0882
 1707TIP3    H2 5086   5.212   6.607   1.408 -0.6560  0.6071 -0.5842
 1708TIP3   OH2 5087   2.067   6.372   2.567  0.3765 -0.6998 -0.1151
 1708TIP3    H1 5088   2.113   6.450   2.596 -1.4604  0.3898  0.0310
 1708TIP3    H2 5089   1.976   6.400   2.555 -0.2612 -2.7089 -0.4797
 1709TIP3   OH2 5090   4.528   0.552   2.499  0.3120 -0.3972  0.4983
 1709TIP3    H1 5091   4.562   0.498   2.569 -2.7444 -2.3562  0.6608
 1709TIP3    H2 5092   4.526   0.495   2.422 -0.1494  0.4334 -0.1375
 1710TIP3   OH2 5093   1.554   5.298   3.451  0.3344  0.2782 -0.4968
 1710TIP3    H1 5094   1.533   5.319   3.360  0.8752  0.0017 -0.6886
 1710TIP3    H2 5095   1.629   5.239   3.446  0.0915 -0.0997  0.1126
 1711TIP3   OH2 5096   5.066   2.340   3.142 -0.1637 -0.7465 -0.0204
 1711TIP3    H1 5097   5.112   2.382   3.214  0.5964  0.9211 -1.4083
 1711TIP3    H2 5098   4.998   2.287   3.184 -0.8830  1.5382  1.8688
 1712TIP3   OH2 5099   3.487   0.095   1.704  0.4194 -0.1225  0.1127
 1712TIP3    H1 5100   3.474   0.038   1.628  2.3186 -1.8571  1.0005
 1712TIP3    H2 5101   3.581   0.089   1.722 -0.1182 -0.6515  3.2359
 1713TIP3   OH2 5102   6.672   1.285   4.915  0.3738  0.0147 -0.0517
 1713TIP3    H1 5103   6.643   1.355   4.974  1.4047  1.3501 -1.0537
 1713TIP3    H2 5104   6.740   1.326   4.861  0.7368 -1.6686 -0.9401
 1714TIP3   OH2 5105   6.175   5.765   4.004  0.2509 -0.0230  0.1833
 1714TIP3    H1 5106   6.232   5.790   4.076 -1.0916  0.6233  1.0553
 1714TIP3    H2 5107   6.200   5.674   3.984  3.4236  1.0137 -1.3078
 1715TIP3   OH2 5108   2.142   2.463   0.266 -0.3568 -0.2685 -0.1171
 1715TIP3    H1 5109   2.083   2.525   0.309 -1.2271 -1.0311 -0.1754
 1715TIP3    H2 5110   2.226   2.475   0.311 -0.2251  1.5970 -0.7469
 1716TIP3   OH2 5111   3.804   1.375   1.880 -0.1766  0.2115 -0.3779
 1716TIP3    H1 5112   3.812   1.466   1.850  1.5277 -0.4745 -2.1954
 1716TIP3    H2 5113   3.876   1.329   1.838 -0.4638 -1.8372  1.2174
 1717TIP3   OH2 5114   7.174   0.558   3.151  0.2660  0.1276 -0.2331
 1717TIP3    H1 5115   7.165   0.463   3.158 -0.8842  0.3197  1.2390
 1717TIP3    H2 5116   7.159   0.591   3.240 -0.5369  1.7755 -0.9381
 1718TIP3   OH2 5117   3.668   0.396   1.464 -0.0670 -0.3456 -0.1526
 1718TIP3    H1 5118   3.601   0.328   1.452 -0.3540  0.1582 -1.5153
 1718TIP3    H2 5119   3.750   0.354   1.435 -0.2081 -0.1764 -0.7948
 1719TIP3   OH2 5120   5.255   6.029   1.298 -0.0323 -0.1407  0.0495
 1719TIP3    H1 5121   5.230   5.964   1.364 -1.0807 -0.3234 -0.4987
 1719TIP3    H2 5122   5.247   6.113   1.343 -0.7123 -0.2649  0.1727
 1720TIP3   OH2 5123   4.322   5.176   3.386  0.0417  0.1554  0.5008
 1720TIP3    H1 5124   4.373   5.216   3.316  0.8418 -0.3846  0.7581
 1720TIP3    H2 5125   4.231   5.184   3.358  0.4466 -1.9214 -1.5850
 1721TIP3   OH2 5126   5.542   5.880   2.721  0.2412 -0.2114  0.1249
 1721TIP3    H1 5127   5.550   5.940   2.647  2.7398  1.8661  1.9136
 1721TIP3    H2 5128   5.609   5.814   2.705 -0.6563 -1.0153 -0.4574
 1722TIP3   OH2 5129   4.395   2.052   3.344 -0.2385 -0.1565  0.4500
 1722TIP3    H1 5130   4.351   1.978   3.303  0.8175 -0.5595 -0.0077
 1722TIP3    H2 5131   4.449   2.012   3.413  0.0688  0.2238  0.4336
 1723TIP3   OH2 5132   6.197   3.273   1.117  0.1803 -0.2798 -0.6014
 1723TIP3    H1 5133   6.274   3.218   1.101 -0.8812 -2.1415  0.4204
 1723TIP3    H2 5134   6.156   3.282   1.031  1.3474  0.5035 -1.1076
 1724TIP3   OH2 5135   1.889   0.571   5.869  0.2782 -0.0249 -0.6796
 1724TIP3    H1 5136   1.895   0.516   5.946 -0.0469  0.4175 -0.3309
 1724TIP3    H2 5137   1.975   0.565   5.828  0.6546  0.2328  0.0618
 1725TIP3   OH2 5138   7.190   6.477   1.051  0.2524  0.4389  1.0522
 1725TIP3    H1 5139   7.184   6.489   0.956  0.3214 -1.9002  0.6976
 1725TIP3    H2 5140   7.145   6.553   1.088  0.5020  1.5528 -0.8324
 1726TIP3   OH2 5141   2.025   4.131   2.377  0.6131 -0.3800 -0.2150
 1726TIP3    H1 5142   2.017   4.038   2.397  3.0466 -1.0297 -1.8304
 1726TIP3    H2 5143   2.079   4.166   2.448 -0.2302 -0.1910  0.3464
 1727TIP3   OH2 5144   2.115   5.388   1.768 -0.5537  0.0374  0.0994
 1727TIP3    H1 5145   2.076   5.437   1.841 -1.9279 -0.2333 -0.4257
 1727TIP3    H2 5146   2.092   5.439   1.690  3.1606  1.8021 -0.0554
 1728TIP3   OH2 5147   6.425   2.844   4.130  0.6030  0.2613 -0.5929
 1728TIP3    H1 5148   6.358   2.803   4.186  0.8331 -2.0443 -1.8779
 1728TIP3    H2 5149   6.379   2.866   4.049  0.6416  2.0618 -0.1669
 1729TIP3   OH2 5150   6.992   4.596   3.780 -0.1787 -0.3268 -0.4284
 1729TIP3    H1 5151   6.943   4.676   3.763  1.0893  0.6353  0.2530
 1729TIP3    H2 5152   6.935   4.544   3.835  0.1100  1.4475  1.6658
 1730TIP3   OH2 5153   4.187   3.148   3.059 -0.7502  0.4339 -0.6155
 1730TIP3    H1 5154   4.095   3.151   3.087 -0.2209 -0.3788  1.3385
 1730TIP3    H2 5155   4.218   3.062   3.087  0.7857  0.9325 -0.6974
 1731TIP3   OH2 5156   5.807   5.990   2.092  0.0591  0.1299 -0.4133
 1731TIP3    H1 5157   5.873   5.934   2.132  0.7740  0.9290 -0.4530
 1731TIP3    H2 5158   5.845   6.078   2.093 -0.5467  0.4267 -1.4504
 1732TIP3   OH2 5159   3.086   3.280   4.610 -0.3181  0.1534  0.0692
 1732TIP3    H1 5160   3.090   3.315   4.699  1.4052  0.4176 -0.0804
 1732TIP3    H2 5161   3.023   3.209   4.615 -1.5344  1.2519  1.1027
 1733TIP3   OH2 5162   6.391   1.379   4.289  0.6087 -0.5491  0.2657
 1733TIP3    H1 5163   6.380   1.474   4.277 -1.7698 -0.4531  2.5236
 1733TIP3    H2 5164   6.311   1.341   4.252  0.4917 -1.4773  1.4420
 1734TIP3   OH2 5165   5.247   5.557   0.729 -0.4709 -0.5855 -0.4037
 1734TIP3    H1 5166   5.237   5.463   0.745 -0.3601 -0.6095 -0.4738
 1734TIP3    H2 5167   5.205   5.571   0.645  2.0242 -1.0898 -1.8341
 1735TIP3   OH2 5168   6.101   2.768   1.609 -0.2422  0.2031 -0.3631
 1735TIP3    H1 5169   6.190   2.750   1.579 -0.7470 -0.8352 -1.3548
 1735TIP3    H2 5170   6.068   2.833   1.547  0.2082  1.5277  0.7446
 1736TIP3   OH2 5171   4.293   0.434   1.474  0.2974 -0.3264 -0.3086
 1736TIP3    H1 5172   4.320   0.395   1.391  0.2111  0.5820 -0.7851
 1736TIP3    H2 5173   4.239   0.509   1.448  0.8216  0.3748  0.5476
 1737TIP3   OH2 5174   5.737   5.195   2.181 -0.3266 -0.2517 -0.4587
 1737TIP3    H1 5175   5.738   5.291   2.181 -2.7219 -0.1811 -0.1346
 1737TIP3    H2 5176   5.696   5.172   2.264  0.2378 -1.5857 -0.5344
 1738TIP3   OH2 5177   2.205   6.415   1.596  0.0199  0.3875 -0.0075
 1738TIP3    H1 5178   2.239   6.456   1.676  0.8901  0.7630 -0.5567
 1738TIP3    H2 5179   2.271   6.351   1.572  0.0931  0.7550 -0.8029
 1739TIP3   OH2 5180   1.510   6.402   4.929 -0.6317  1.1150  0.1231
 1739TIP3    H1 5181   1.551   6.439   5.008 -1.7758  0.1204  1.2349
 1739TIP3    H2 5182   1.581   6.398   4.865  0.8590  0.1050  1.7333
 1740TIP3   OH2 5183   1.524   2.545   2.881 -0.1490 -0.3613  0.2449
 1740TIP3    H1 5184   1.474   2.468   2.908 -2.6579  1.4598  1.1688
 1740TIP3    H2 5185   1.458   2.613   2.869  1.9262  1.5696 -0.9090
 1741TIP3   OH2 5186   3.260   4.266   3.838 -0.0469 -0.0643  0.0155
 1741TIP3    H1 5187   3.180   4.261   3.785  0.5541  0.6298 -0.9940
 1741TIP3    H2 5188   3.327   4.223   3.784  0.5673  0.6128  0.2253
 1742TIP3   OH2 5189   3.605   2.881   4.808 -0.8682 -0.1123  0.1368
 1742TIP3    H1 5190   3.567   2.833   4.735 -0.6446 -0.9630  0.5772
 1742TIP3    H2 5191   3.574   2.971   4.795  0.3066  0.0718 -1.8060
 1743TIP3   OH2 5192   0.662   4.177   0.393  0.1634 -0.2724 -0.2783
 1743TIP3    H1 5193   0.679   4.123   0.470  0.2842  0.3819  0.1584
 1743TIP3    H2 5194   0.745   4.221   0.376  0.1866 -0.5377 -0.8923
 1744TIP3   OH2 5195   6.120   3.990   4.819 -0.8884  0.5080  0.2981
 1744TIP3    H1 5196   6.205   3.971   4.861 -0.6134 -1.6009 -1.0493
 1744TIP3    H2 5197   6.137   3.980   4.726 -2.6154  0.1470 -0.0024
 1745TIP3   OH2 5198   5.941   6.526   5.145  0.3169 -0.2167 -0.5877
 1745TIP3    H1 5199   6.030   6.505   5.116 -0.2131 -0.7384 -1.9036
 1745TIP3    H2 5200   5.942   6.621   5.157  1.1492 -0.2607 -0.2200
 1746TIP3   OH2 5201   2.826   4.838   2.648  0.5833  0.2253  0.5174
 1746TIP3    H1 5202   2.820   4.933   2.658  2.5332  0.4238  0.3735
 1746TIP3    H2 5203   2.906   4.826   2.596 -1.1748 -1.3817 -2.0197
 1747TIP3   OH2 5204   4.083   6.132   2.059  0.0809  0.0104  0.1232
 1747TIP3    H1 5205   3.990   6.151   2.042 -0.0328 -0.6005  0.0492
 1747TIP3    H2 5206   4.095   6.154   2.151 -0.5462 -1.4515  0.5754
 1748TIP3   OH2 5207   6.549   0.825   0.783 -0.5517 -0.1091 -0.5172
 1748TIP3    H1 5208   6.530   0.807   0.875  0.8889 -0.4720 -0.2788
 1748TIP3    H2 5209   6.462   0.838   0.743 -1.1713  0.6542  0.9940
 1749TIP3   OH2 5210   0.142   4.240   2.264 -0.1420  0.2590 -0.1968
 1749TIP3    H1 5211   0.148   4.225   2.358 -1.1400 -1.2773 -0.3342
 1749TIP3    H2 5212   0.206   4.180   2.226  0.2894  0.9060 -0.5090
 1750TIP3   OH2 5213   5.916   6.397   1.331  0.1915  0.2018  0.0214
 1750TIP3    H1 5214   5.964   6.376   1.411 -1.7734 -0.1693  1.1431
 1750TIP3    H2 5215   5.850   6.460   1.358 -0.0917  0.5796 -1.4622
 1751TIP3   OH2 5216   6.412   3.043   3.003  0.3523  0.0360  0.6082
 1751TIP3    H1 5217   6.375   3.015   3.086  0.2192  0.0097  0.5398
 1751TIP3    H2 5218   6.337   3.054   2.945  0.5439 -1.9998 -0.1351
 1752TIP3   OH2 5219   2.678   2.468   4.742  0.0289 -0.4072 -0.3144
 1752TIP3    H1 5220   2.649   2.549   4.784 -0.2125 -1.2090  1.1457
 1752TIP3    H2 5221   2.684   2.490   4.649 -1.6109  0.8177 -0.1701
 1753TIP3   OH2 5222   0.068   0.285   2.971  0.3249 -0.2428  0.3204
 1753TIP3    H1 5223   0.108   0.357   2.921 -0.0827  0.1710  0.5826
 1753TIP3    H2 5224  -0.026   0.302   2.967 -0.0492 -2.2499 -1.9107
 1754TIP3   OH2 5225   0.417   4.207   0.300  0.3976 -0.2667 -0.3973
 1754TIP3    H1 5226   0.393   4.116   0.284  1.4440 -0.4066 -1.2784
 1754TIP3    H2 5227   0.497   4.203   0.351  0.0947  0.1719  0.1264
 1755TIP3   OH2 5228   6.609   0.503   0.691  0.0649  0.6591 -0.3419
 1755TIP3    H1 5229   6.670   0.577   0.689 -0.5941  1.3494  2.0879
 1755TIP3    H2 5230   6.539   0.528   0.630  1.4264  0.4872 -2.0658
 1756TIP3   OH2 5231   0.437   1.960   0.728  0.3343  0.7453  0.1913
 1756TIP3    H1 5232   0.379   2.014   0.674  0.7967  0.0320 -1.0824
 1756TIP3    H2 5233   0.420   1.988   0.818 -0.8749  1.5928 -0.2730
 1757TIP3   OH2 5234   4.367   1.004   0.783  0.3692  0.4628 -0.2365
 1757TIP3    H1 5235   4.417   0.925   0.763  1.6238  1.2241 -0.2280
 1757TIP3    H2 5236   4.343   1.040   0.697  1.8358  1.3104 -0.3136
 1758TIP3   OH2 5237   1.914   3.529   1.170  0.1184  0.0114  0.4284
 1758TIP3    H1 5238   1.850   3.491   1.110  0.7619  0.3896 -0.5156
 1758TIP3    H2 5239   1.934   3.458   1.232 -1.8368  0.1474  1.2797
 1759TIP3   OH2 5240   6.890   3.619   1.788  0.1244  0.3670  0.6255
 1759TIP3    H1 5241   6.962   3.644   1.730  0.0203 -0.5836  0.0682
 1759TIP3    H2 5242   6.852   3.541   1.747 -3.4819  2.7330 -1.0475
 1760TIP3   OH2 5243   5.299   6.726   3.404 -0.2398  0.2419  0.1359
 1760TIP3    H1 5244   5.282   6.773   3.486  0.3407 -1.1412  1.0868
 1760TIP3    H2 5245   5.390   6.746   3.384  0.1113 -0.7137  0.7258
 1761TIP3   OH2 5246   0.996   3.776   2.565 -0.1999  0.5977 -0.4891
 1761TIP3    H1 5247   1.036   3.857   2.599 -0.1185  0.1313  0.5759
 1761TIP3    H2 5248   1.036   3.706   2.618 -0.0602 -0.1669 -1.5848
 1762TIP3   OH2 5249   4.014   5.422   2.207  0.0293  0.0964 -0.2251
 1762TIP3    H1 5250   3.941   5.479   2.183 -1.0302 -1.4478 -0.8403
 1762TIP3    H2 5251   4.001   5.404   2.300  0.7524  1.3566  0.1397
 1763TIP3   OH2 5252   0.745   6.669   4.982 -0.1065 -0.0577  0.0035
 1763TIP3    H1 5253   0.753   6.574   4.989 -0.4931 -0.1449 -0.6838
 1763TIP3    H2 5254   0.691   6.694   5.057 -0.6521 -0.4674 -0.2520
 1764TIP3   OH2 5255   4.853   4.687   2.272 -0.0375  0.0307 -0.5358
 1764TIP3    H1 5256   4.884   4.777   2.266 -1.6755  0.6473 -0.4104
 1764TIP3    H2 5257   4.904   4.649   2.343  0.3548  1.0085 -0.2753
 1765TIP3   OH2 5258   1.272   2.293   0.313  0.0019 -0.2041 -0.3753
 1765TIP3    H1 5259   1.318   2.235   0.252 -1.4061 -1.3761 -0.3666
 1765TIP3    H2 5260   1.299   2.261   0.400 -0.8937 -0.9743 -0.3687
 1766TIP3   OH2 5261   2.556   1.909   1.486  0.6490 -0.1874 -0.3358
 1766TIP3    H1 5262   2.515   1.935   1.569  0.4821  1.7755 -0.9679
 1766TIP3    H2 5263   2.576   1.992   1.443  2.6367 -1.1282 -1.3542
 1767TIP3   OH2 5264   0.798   6.379   1.606 -0.2096  0.4155  0.2619
 1767TIP3    H1 5265   0.709   6.390   1.571 -0.1976 -1.2007 -0.3614
 1767TIP3    H2 5266   0.808   6.450   1.668 -1.3811  1.5451 -0.7769
 1768TIP3   OH2 5267   4.284   4.117   0.754 -0.2796  0.0106 -0.2343
 1768TIP3    H1 5268   4.245   4.041   0.796  1.7493 -1.0139 -0.0800
 1768TIP3    H2 5269   4.286   4.184   0.822 -0.2116 -0.4920  0.2647
 1769TIP3   OH2 5270   1.562   1.366   5.736 -0.1389 -0.0176  0.1822
 1769TIP3    H1 5271   1.570   1.387   5.643  1.6673 -0.7449  0.1206
 1769TIP3    H2 5272   1.652   1.343   5.763  0.2692  3.8424  3.0299
 1770TIP3   OH2 5273   5.701   2.179   2.265 -0.2375 -0.2610  0.2578
 1770TIP3    H1 5274   5.615   2.194   2.304  0.7456  0.9100  2.1236
 1770TIP3    H2 5275   5.756   2.153   2.339  1.2793  0.1353 -0.7014
 1771TIP3   OH2 5276   3.571   1.979   2.553  0.7190  0.1622 -0.4214
 1771TIP3    H1 5277   3.548   1.988   2.461 -0.3290 -0.4279 -0.2402
 1771TIP3    H2 5278   3.666   1.992   2.556  0.5482  1.9270 -1.3266
 1772TIP3   OH2 5279   5.952   6.129   3.675  0.2664  0.4718  0.3037
 1772TIP3    H1 5280   5.910   6.209   3.645 -1.6319 -0.5691  0.0128
 1772TIP3    H2 5281   5.977   6.147   3.766  1.7482  2.0372 -0.3628
 1773TIP3   OH2 5282   3.472   6.561   1.692 -0.2214 -0.0477 -0.0138
 1773TIP3    H1 5283   3.545   6.621   1.679  0.4041 -1.1052 -1.5909
 1773TIP3    H2 5284   3.511   6.474   1.686 -1.2168 -0.6579  1.6024
 1774TIP3   OH2 5285   4.705   0.254   5.504 -0.4154  0.4155  0.0144
 1774TIP3    H1 5286   4.763   0.207   5.445 -0.0449  0.5140  0.2986
 1774TIP3    H2 5287   4.680   0.189   5.570 -3.0850 -0.5349 -1.7613
 1775TIP3   OH2 5288   1.059   1.681   0.777  0.6642 -0.0639 -0.2261
 1775TIP3    H1 5289   1.089   1.714   0.692 -1.2726  0.5750 -0.7215
 1775TIP3    H2 5290   0.978   1.729   0.793 -0.8345 -2.6283  0.3536
 1776TIP3   OH2 5291   1.396   4.948   1.319  0.0878 -0.0506 -0.0453
 1776TIP3    H1 5292   1.365   5.023   1.270  0.2635  0.3734  0.4760
 1776TIP3    H2 5293   1.324   4.885   1.316  0.2291 -0.1772 -1.1285
 1777TIP3   OH2 5294   4.521   1.691   5.849 -0.2148 -0.3833 -0.9577
 1777TIP3    H1 5295   4.591   1.709   5.912  0.5652  0.0415 -1.9232
 1777TIP3    H2 5296   4.566   1.686   5.764 -1.2002 -1.2845 -1.4382
 1778TIP3   OH2 5297   5.269   4.566   2.250  0.6847 -0.4486 -0.3640
 1778TIP3    H1 5298   5.356   4.538   2.221 -0.0264 -1.1027 -2.0410
 1778TIP3    H2 5299   5.227   4.600   2.171 -0.3898  0.4014  0.5343
 1779TIP3   OH2 5300   0.579   3.647   5.878  0.1519 -0.1296  0.4204
 1779TIP3    H1 5301   0.530   3.603   5.947 -0.1284 -0.5328 -0.0300
 1779TIP3    H2 5302   0.513   3.673   5.814  0.5185 -0.7229 -0.2173
 1780TIP3   OH2 5303   4.207   2.284   3.320 -0.0115 -0.0975 -0.0913
 1780TIP3    H1 5304   4.291   2.249   3.349  0.1181  1.9458  2.2901
 1780TIP3    H2 5305   4.143   2.218   3.346  0.6791 -0.9174 -0.4227
 1781TIP3   OH2 5306   6.533   2.203   2.048 -0.4137  0.8925  0.9378
 1781TIP3    H1 5307   6.474   2.149   1.995  1.8353 -0.0486 -0.7524
 1781TIP3    H2 5308   6.499   2.292   2.038 -1.5533  0.3827  0.0572
 1782TIP3   OH2 5309   2.036   4.523   0.375 -0.0054 -0.2036  0.2656
 1782TIP3    H1 5310   1.957   4.576   0.376 -0.5419 -0.9919  0.1567
 1782TIP3    H2 5311   2.090   4.559   0.446 -0.2452  0.6482  0.0244
 1783TIP3   OH2 5312   5.429   5.536   0.255 -0.0423  0.2789  0.0520
 1783TIP3    H1 5313   5.402   5.627   0.249  0.0497  0.3039  0.0153
 1783TIP3    H2 5314   5.506   5.538   0.312 -0.8154  0.0633  1.1444
 1784TIP3   OH2 5315   6.215   2.268   3.139  0.6656 -0.1269 -0.6049
 1784TIP3    H1 5316   6.245   2.179   3.160 -1.4883 -1.4543 -2.6631
 1784TIP3    H2 5317   6.120   2.263   3.145  0.4376  1.7746 -1.8534
 1785TIP3   OH2 5318   3.990   0.287   3.442 -0.3899  0.4665  0.4768
 1785TIP3    H1 5319   3.907   0.328   3.467 -0.8376 -0.6720  0.8852
 1785TIP3    H2 5320   3.965   0.218   3.380  0.2360 -0.0245  0.7673
 1786TIP3   OH2 5321   1.068   4.043   2.639  0.2777 -0.1617  0.4339
 1786TIP3    H1 5322   1.060   4.016   2.731 -0.5937 -0.0790  0.3898
 1786TIP3    H2 5323   1.072   4.138   2.643 -0.3835 -0.1287  0.3483
 1787TIP3   OH2 5324   4.098   1.007   5.411  0.4408 -0.2194 -0.4399
 1787TIP3    H1 5325   4.162   0.945   5.376  2.3251  1.1940  0.3272
 1787TIP3    H2 5326   4.094   0.988   5.505  0.9296  0.6878 -0.2218
 1788TIP3   OH2 5327   4.050   3.933   1.878  0.0185 -0.4197 -0.1664
 1788TIP3    H1 5328   3.961   3.907   1.855 -0.3938  1.5521 -0.9798
 1788TIP3    H2 5329   4.073   3.878   1.953 -1.6638 -1.3234 -0.2685
 1789TIP3   OH2 5330   6.255   0.385   4.761  0.0321 -0.5638  0.2978
 1789TIP3    H1 5331   6.208   0.346   4.835 -0.4049  0.2529  0.4679
 1789TIP3    H2 5332   6.336   0.420   4.799  0.6900 -1.7661  0.0459
 1790TIP3   OH2 5333   7.116   3.268   3.908 -0.1363 -0.1771  0.5079
 1790TIP3    H1 5334   7.021   3.259   3.921  0.0418 -0.0598  2.0372
 1790TIP3    H2 5335   7.152   3.183   3.932  0.1042 -0.4274 -0.6971
 1791TIP3   OH2 5336   6.991   5.735   5.721  0.9743  0.3157 -0.4650
 1791TIP3    H1 5337   7.071   5.691   5.753 -1.4335 -2.2507  2.8048
 1791TIP3    H2 5338   6.944   5.666   5.674 -1.1266  0.4314  1.3268
 1792TIP3   OH2 5339   1.403   1.143   5.414  0.1946 -0.1253  0.2018
 1792TIP3    H1 5340   1.416   1.171   5.323  0.9878 -2.2420 -0.4077
 1792TIP3    H2 5341   1.489   1.112   5.442 -0.5155 -1.5454  0.9064
 1793TIP3   OH2 5342   5.331   2.298   3.013 -0.1278 -0.1861  0.1327
 1793TIP3    H1 5343   5.383   2.220   3.031 -0.1887  0.1960  2.3278
 1793TIP3    H2 5344   5.242   2.275   3.040 -0.1643  0.5860  0.7221
 1794TIP3   OH2 5345   7.159   4.561   5.322  0.0127  0.1890 -0.4576
 1794TIP3    H1 5346   7.096   4.586   5.254 -0.2126  0.6121 -0.0987
 1794TIP3    H2 5347   7.223   4.506   5.276  0.2078  0.9743 -1.1548
 1795TIP3   OH2 5348   1.232   0.893   5.476 -0.0992 -0.5925  0.1578
 1795TIP3    H1 5349   1.160   0.955   5.469  1.3495  1.1471 -0.2498
 1795TIP3    H2 5350   1.308   0.947   5.496  1.0228 -2.4082  1.0654
 1796TIP3   OH2 5351   2.530   6.157   3.887 -0.0735  0.0579 -0.6077
 1796TIP3    H1 5352   2.524   6.240   3.935  0.5809  0.1779 -0.7261
 1796TIP3    H2 5353   2.556   6.182   3.798 -0.1396 -0.2501 -0.7150
 1797TIP3   OH2 5354   1.251   5.763   3.822  0.2857  0.5684  0.8549
 1797TIP3    H1 5355   1.248   5.682   3.873 -0.0495  1.0277  1.5882
 1797TIP3    H2 5356   1.203   5.827   3.875  0.7170  1.3054  0.3856
 1798TIP3   OH2 5357   3.925   5.956   3.075  0.4544  0.2096 -0.1101
 1798TIP3    H1 5358   3.995   5.936   3.013  1.9627  0.3897  1.4590
 1798TIP3    H2 5359   3.863   5.883   3.065  2.3826 -1.6299  0.5622
 1799TIP3   OH2 5360   3.623   2.482   5.327 -0.1598  0.0144  0.1831
 1799TIP3    H1 5361   3.652   2.402   5.371  1.1401  0.2016 -0.2707
 1799TIP3    H2 5362   3.531   2.490   5.349  0.2275 -0.3910  2.0984
 1800TIP3   OH2 5363   4.790   6.299   5.043  0.3832 -0.7765 -0.0793
 1800TIP3    H1 5364   4.856   6.369   5.043  0.8654 -1.1976  1.4472
 1800TIP3    H2 5365   4.714   6.338   5.085 -0.6018 -0.1208 -2.3192
 1801TIP3   OH2 5366   5.088   1.571   2.464  0.6332 -0.2720 -0.1297
 1801TIP3    H1 5367   5.003   1.612   2.473  0.9126 -0.0978  2.3731
 1801TIP3    H2 5368   5.147   1.625   2.518  1.7396 -1.9281  0.3955
 1802TIP3   OH2 5369   0.067   0.804   0.775  0.2655 -0.5148 -0.3842
 1802TIP3    H1 5370   0.105   0.834   0.692  0.0229 -0.6121 -0.5317
 1802TIP3    H2 5371  -0.027   0.819   0.765  0.3541  0.6400  0.3572
 1803TIP3   OH2 5372   2.680   1.222   0.464 -0.0925  0.1883  0.1786
 1803TIP3    H1 5373   2.654   1.197   0.553  1.0763  0.9899  0.7539
 1803TIP3    H2 5374   2.597   1.245   0.421 -0.7593 -0.9479  0.8015
 1804TIP3   OH2 5375   2.480   1.424   2.473 -0.5070 -0.0465 -0.2473
 1804TIP3    H1 5376   2.453   1.360   2.407  0.6145 -0.8259  0.0182
 1804TIP3    H2 5377   2.468   1.509   2.430 -2.6129 -0.3654 -0.3939
 1805TIP3   OH2 5378   0.868   4.569   3.985  0.3523  0.0468 -0.4078
 1805TIP3    H1 5379   0.844   4.548   4.076  0.1724 -0.6745 -0.6177
 1805TIP3    H2 5380   0.854   4.663   3.978 -1.1362 -0.1298 -0.1335
 1806TIP3   OH2 5381   4.404   2.807   4.636 -0.1381  0.1577  0.1275
 1806TIP3    H1 5382   4.321   2.853   4.640 -0.4964 -0.5128  0.5209
 1806TIP3    H2 5383   4.470   2.876   4.639 -0.6672  0.6463  0.7038
 1807TIP3   OH2 5384   0.873   4.004   5.657  0.1753  0.0087 -0.1506
 1807TIP3    H1 5385   0.826   4.037   5.581  1.9929  1.0156 -0.8990
 1807TIP3    H2 5386   0.933   3.938   5.622 -1.2396 -1.9095  0.9049
 1808TIP3   OH2 5387   2.015   1.517   5.702 -0.2475  0.4530  0.1492
 1808TIP3    H1 5388   2.100   1.544   5.667 -0.2911  1.2367  0.6181
 1808TIP3    H2 5389   1.952   1.572   5.655 -0.5510 -0.4331 -0.5195
 1809TIP3   OH2 5390   0.249   6.419   3.405  0.7550  0.3516 -0.0503
 1809TIP3    H1 5391   0.250   6.506   3.365  1.8740 -0.3720 -1.7204
 1809TIP3    H2 5392   0.288   6.362   3.338 -0.2281 -1.4865  0.8848
 1810TIP3   OH2 5393   0.845   0.332   0.151 -0.5412  0.2324 -0.2748
 1810TIP3    H1 5394   0.871   0.395   0.085  0.9315 -0.3799 -0.3205
 1810TIP3    H2 5395   0.903   0.257   0.138 -0.0707  0.1590  1.8102
 1811TIP3   OH2 5396   0.499   6.124   5.166  0.0666  0.3991  0.2106
 1811TIP3    H1 5397   0.574   6.152   5.220  0.1264 -2.8718  2.1422
 1811TIP3    H2 5398   0.537   6.062   5.104 -0.9000 -0.6927  0.6838
 1812TIP3   OH2 5399   4.137   0.525   3.024  0.1217 -0.4533 -0.3619
 1812TIP3    H1 5400   4.218   0.568   3.050  0.5505 -1.5071  0.1081
 1812TIP3    H2 5401   4.114   0.566   2.941  1.0886 -0.0818 -0.4621
 1813TIP3   OH2 5402   4.617   6.111   1.255  0.4701 -0.1725 -0.1849
 1813TIP3    H1 5403   4.667   6.180   1.299  1.3357 -0.8153 -0.1314
 1813TIP3    H2 5404   4.559   6.158   1.195  1.8878  0.5628 -1.0225
 1814TIP3   OH2 5405   1.769   3.539   3.486  0.0729 -0.3786  0.0510
 1814TIP3    H1 5406   1.829   3.494   3.426  0.8312  1.2485 -0.4766
 1814TIP3    H2 5407   1.827   3.586   3.547 -0.6917 -0.6803  1.0468
 1815TIP3   OH2 5408   2.318   2.561   2.115 -0.0151  0.8235  0.0072
 1815TIP3    H1 5409   2.315   2.654   2.093 -0.3017  0.5080 -1.3440
 1815TIP3    H2 5410   2.235   2.527   2.083  0.1013  0.0914  0.4746
 1816TIP3   OH2 5411   5.935   0.740   5.877 -0.3726 -0.1237  0.3282
 1816TIP3    H1 5412   5.988   0.666   5.846 -0.6742  0.1720 -0.9555
 1816TIP3    H2 5413   5.847   0.721   5.846 -0.6503  0.3039  0.8479
 1817TIP3   OH2 5414   1.795   5.287   0.680 -0.2336 -0.3532  0.5412
 1817TIP3    H1 5415   1.847   5.258   0.605  0.5183 -2.6583  1.8676
 1817TIP3    H2 5416   1.704   5.276   0.651  0.0397 -2.1319  0.2519
 1818TIP3   OH2 5417   7.094   1.445   1.071 -0.3709 -0.1061  0.9182
 1818TIP3    H1 5418   7.000   1.457   1.083 -0.4001  3.7655 -1.1947
 1818TIP3    H2 5419   7.134   1.492   1.144 -0.1329  0.0174  0.7131
 1819TIP3   OH2 5420   2.464   6.679   4.069  0.3997 -0.0054  0.2897
 1819TIP3    H1 5421   2.441   6.719   4.153 -0.1876  0.6756 -0.1854
 1819TIP3    H2 5422   2.417   6.731   4.004 -2.1061 -2.7056 -0.2667
 1820TIP3   OH2 5423   1.393   2.246   5.190  0.2085 -0.5566 -0.7552
 1820TIP3    H1 5424   1.377   2.332   5.228  2.0372 -1.4322  2.3297
 1820TIP3    H2 5425   1.488   2.238   5.187  0.0843 -2.5078 -0.8867
 1821TIP3   OH2 5426   4.792   6.219   5.700 -0.2789  0.4870  0.0482
 1821TIP3    H1 5427   4.812   6.248   5.611  2.1743  0.9748  0.6728
 1821TIP3    H2 5428   4.865   6.162   5.724 -1.8306 -1.1646  1.1309
 1822TIP3   OH2 5429   2.647   3.907   5.828 -0.2848  0.1005 -0.2921
 1822TIP3    H1 5430   2.690   3.822   5.825  1.7296  1.0475 -0.3317
 1822TIP3    H2 5431   2.609   3.913   5.915  0.0156 -0.6330 -0.1089
 1823TIP3   OH2 5432   7.157   2.002   4.971 -0.3896  0.1753 -0.1558
 1823TIP3    H1 5433   7.156   1.915   4.931  2.2523  0.0882 -0.1924
 1823TIP3    H2 5434   7.226   2.049   4.924  0.1954  1.3231  1.7653
 1824TIP3   OH2 5435   6.341   6.553   3.943  0.4450 -0.7141 -0.3499
 1824TIP3    H1 5436   6.288   6.530   4.020 -0.2136  2.1031  0.1470
 1824TIP3    H2 5437   6.298   6.507   3.871 -0.0807 -1.8726  0.6541
 1825TIP3   OH2 5438   4.093   3.648   0.221  0.4932  0.0191 -0.0234
 1825TIP3    H1 5439   4.152   3.720   0.201  0.3557  0.2173  0.2736
 1825TIP3    H2 5440   4.150   3.571   0.229  0.8716  0.4222  1.4451
 1826TIP3   OH2 5441   0.795   6.227   1.011  0.0053  0.2773  1.6155
 1826TIP3    H1 5442   0.744   6.300   0.976 -0.6592 -1.4086 -1.2183
 1826TIP3    H2 5443   0.743   6.195   1.085 -1.8970  0.1312  0.2986
 1827TIP3   OH2 5444   3.444   0.781   2.203  0.1664 -0.4415  0.0517
 1827TIP3    H1 5445   3.499   0.805   2.277  0.3054 -0.3180 -0.0895
 1827TIP3    H2 5446   3.449   0.685   2.200  2.3261 -0.3600 -1.3970
 1828TIP3   OH2 5447   7.145   4.837   1.159  0.1078 -0.4029  0.1311
 1828TIP3    H1 5448   7.224   4.874   1.199 -1.8028  4.4939  0.1185
 1828TIP3    H2 5449   7.101   4.793   1.231  1.6879 -1.1477  0.6960
 1829TIP3   OH2 5450   0.153   4.647   5.906  0.0138  0.1562 -1.0138
 1829TIP3    H1 5451   0.071   4.605   5.930 -0.1830  0.4988 -1.0858
 1829TIP3    H2 5452   0.166   4.624   5.814 -0.2904  0.5791 -1.1601
 1830TIP3   OH2 5453   6.112   5.526   2.898  0.3049  0.2922  0.2293
 1830TIP3    H1 5454   6.164   5.604   2.876 -1.1357  1.2429 -0.0017
 1830TIP3    H2 5455   6.170   5.452   2.880  1.0617  1.2439 -1.4985
 1831TIP3   OH2 5456   6.358   5.595   0.710 -0.1567 -0.8177 -0.1538
 1831TIP3    H1 5457   6.281   5.638   0.674  0.1354 -1.3730 -1.5252
 1831TIP3    H2 5458   6.431   5.631   0.660  0.4062 -0.8119  0.6456
 1832TIP3   OH2 5459   7.071   1.679   3.676 -0.0280 -0.4811  0.5514
 1832TIP3    H1 5460   7.160   1.697   3.646  0.0665  2.8260  2.3392
 1832TIP3    H2 5461   7.079   1.675   3.772 -1.9540  1.5192  0.8736
 1833TIP3   OH2 5462   5.041   0.727   1.566  0.1660 -0.7785 -0.8745
 1833TIP3    H1 5463   4.974   0.678   1.613 -1.3641  0.3803 -1.7652
 1833TIP3    H2 5464   5.120   0.673   1.574 -0.4256 -1.3714  1.5956
 1834TIP3   OH2 5465   5.049   1.806   2.959 -0.1046 -0.0657  0.3141
 1834TIP3    H1 5466   4.998   1.799   2.878 -0.1120  1.5285  0.1374
 1834TIP3    H2 5467   5.060   1.716   2.989 -1.0096 -0.6078 -0.8984
 1835TIP3   OH2 5468   4.961   2.712   2.665  0.3092 -0.1114  0.1040
 1835TIP3    H1 5469   4.970   2.644   2.598  0.5907 -0.5805  0.6175
 1835TIP3    H2 5470   5.003   2.676   2.742 -1.1037 -0.0973  0.9143
 1836TIP3   OH2 5471   2.176   5.861   3.855 -0.3704  0.3861  0.0346
 1836TIP3    H1 5472   2.185   5.853   3.950 -0.6814 -0.1338  0.0233
 1836TIP3    H2 5473   2.234   5.934   3.832 -1.1269  1.2457  0.7602
 1837TIP3   OH2 5474   2.808   5.533   2.232  0.3647  0.1103 -0.0717
 1837TIP3    H1 5475   2.728   5.581   2.252 -1.2189 -1.3775 -2.4030
 1837TIP3    H2 5476   2.843   5.576   2.154  0.2542 -0.9652 -0.7368
 1838TIP3   OH2 5477   6.100   0.596   3.081  0.0969 -0.2643  0.3485
 1838TIP3    H1 5478   6.062   0.599   3.169 -0.1599  2.9295  0.2726
 1838TIP3    H2 5479   6.194   0.583   3.096  0.0667  0.3286  1.1321
 1839TIP3   OH2 5480   0.291   3.065   2.868  0.0057  0.2738 -0.4793
 1839TIP3    H1 5481   0.285   3.137   2.931 -0.3261 -0.5498  0.4462
 1839TIP3    H2 5482   0.200   3.035   2.859  0.2598 -0.5830 -0.2044
 1840TIP3   OH2 5483   3.603   2.239   3.631  0.6227 -0.3881  0.2689
 1840TIP3    H1 5484   3.560   2.227   3.547 -0.5548 -0.4989  0.8658
 1840TIP3    H2 5485   3.667   2.308   3.616 -1.7345  1.9126 -0.0130
 1841TIP3   OH2 5486   1.623   3.396   2.925 -0.0915 -0.2547 -0.0012
 1841TIP3    H1 5487   1.606   3.389   3.019 -2.2676 -0.0779 -0.3442
 1841TIP3    H2 5488   1.702   3.450   2.919 -0.9059  1.2146  1.6689
 1842TIP3   OH2 5489   5.261   1.081   1.577 -0.3001  0.1047  0.1141
 1842TIP3    H1 5490   5.259   1.172   1.608  1.4286 -0.0069  0.6345
 1842TIP3    H2 5491   5.243   1.029   1.655 -1.3682 -0.0247 -0.1996
 1843TIP3   OH2 5492   3.415   3.353   0.800 -0.2675  0.0799 -0.4885
 1843TIP3    H1 5493   3.335   3.347   0.748 -0.2825  1.3654 -0.6455
 1843TIP3    H2 5494   3.479   3.393   0.741 -0.0372  0.7450  0.1984
 1844TIP3   OH2 5495   0.871   0.315   1.125 -0.6570 -0.6892  0.6037
 1844TIP3    H1 5496   0.778   0.327   1.144 -2.2507 -4.6002 -2.9803
 1844TIP3    H2 5497   0.887   0.369   1.048 -0.6263 -1.5787 -0.0340
 1845TIP3   OH2 5498   0.792   4.243   2.181  0.0862 -0.6741  0.4356
 1845TIP3    H1 5499   0.884   4.260   2.160  0.3029 -0.7238  1.3058
 1845TIP3    H2 5500   0.795   4.188   2.259 -0.7084  1.5185  2.0837
 1846TIP3   OH2 5501   2.142   6.203   4.295  0.3044 -0.2011 -0.8777
 1846TIP3    H1 5502   2.153   6.186   4.201  0.0335 -0.2141 -0.9065
 1846TIP3    H2 5503   2.214   6.263   4.317 -0.6073  1.1562 -1.4481
 1847TIP3   OH2 5504   2.682   6.807   5.329  0.0774 -0.4990 -0.3157
 1847TIP3    H1 5505   2.706   6.761   5.410 -1.6914  1.2220  1.2692
 1847TIP3    H2 5506   2.620   6.749   5.286 -0.3801 -0.6268  0.5013
 1848TIP3   OH2 5507   6.252   5.459   5.735  0.4455 -0.0491 -0.3137
 1848TIP3    H1 5508   6.290   5.506   5.661  2.8876  0.2508  1.0222
 1848TIP3    H2 5509   6.255   5.367   5.709  1.7617  0.0082 -0.4305
 1849TIP3   OH2 5510   6.684   5.075   4.219 -0.2051  0.7207  0.5502
 1849TIP3    H1 5511   6.745   5.054   4.148 -0.9519 -1.4462  0.5049
 1849TIP3    H2 5512   6.617   5.129   4.177 -1.2386 -1.4422 -0.7298
 1850TIP3   OH2 5513   2.889   2.215   2.311  0.0078 -0.1432 -0.7936
 1850TIP3    H1 5514   2.973   2.233   2.354  0.5790 -1.6353 -1.2370
 1850TIP3    H2 5515   2.882   2.282   2.243 -0.5061  1.7255  0.9793
 1851TIP3   OH2 5516   4.164   4.984   4.483 -0.2826  0.0293  0.4291
 1851TIP3    H1 5517   4.219   4.985   4.562  0.2606 -0.1234  0.0629
 1851TIP3    H2 5518   4.198   5.056   4.430 -0.7146  0.1966  0.3770
 1852TIP3   OH2 5519   4.261   4.385   3.762  0.1432 -0.1855  0.0138
 1852TIP3    H1 5520   4.256   4.442   3.685  0.1394 -0.2424 -0.0280
 1852TIP3    H2 5521   4.211   4.432   3.829  1.5570  0.6838  0.4998
 1853TIP3   OH2 5522   4.053   5.979   2.821 -0.6573  0.5136  0.5038
 1853TIP3    H1 5523   3.974   6.028   2.798 -0.5919  1.0959  1.4941
 1853TIP3    H2 5524   4.125   6.032   2.788 -0.6344  0.5035  0.5379
 1854TIP3   OH2 5525   5.232   2.174   0.553 -0.5933 -0.4704 -0.0660
 1854TIP3    H1 5526   5.174   2.225   0.610  1.4276  0.5997  1.1464
 1854TIP3    H2 5527   5.236   2.225   0.472 -0.9492 -0.3197  0.0062
 1855TIP3   OH2 5528   0.735   4.839   1.112 -0.0978 -0.0666 -0.8664
 1855TIP3    H1 5529   0.735   4.768   1.048 -0.5802 -0.9690  0.1192
 1855TIP3    H2 5530   0.643   4.852   1.135  0.1359 -0.4467  0.3774
 1856TIP3   OH2 5531   6.533   0.744   3.426  0.4963 -0.0023 -0.1570
 1856TIP3    H1 5532   6.599   0.812   3.412  2.0005 -0.8091  2.2587
 1856TIP3    H2 5533   6.497   0.763   3.513 -1.1826 -0.6205 -0.6897
 1857TIP3   OH2 5534   1.711   3.890   0.866 -0.2578  0.4463  0.4221
 1857TIP3    H1 5535   1.796   3.856   0.891 -0.1510  0.0723 -0.4539
 1857TIP3    H2 5536   1.724   3.931   0.781 -1.2126 -0.7566 -0.3437
 1858TIP3   OH2 5537   0.835   3.554   3.356 -0.3641  0.2557 -0.3417
 1858TIP3    H1 5538   0.766   3.491   3.376 -0.0451 -0.6683 -1.9915
 1858TIP3    H2 5539   0.878   3.570   3.440 -0.7851 -1.3256  0.2132
 1859TIP3   OH2 5540   4.126   3.239   0.026 -0.0658  0.3775  0.2502
 1859TIP3    H1 5541   4.053   3.288  -0.010 -0.6574 -1.4831 -1.2796
 1859TIP3    H2 5542   4.183   3.305   0.066 -0.4753  2.3642 -2.2115
 1860TIP3   OH2 5543   5.291   6.397   4.133 -0.1715  0.5637 -0.2664
 1860TIP3    H1 5544   5.203   6.413   4.167 -0.0881  0.9078 -0.2131
 1860TIP3    H2 5545   5.301   6.302   4.137 -1.0783  0.3824 -1.6081
 1861TIP3   OH2 5546   3.769   1.924   1.341  0.5057  0.5213 -0.2801
 1861TIP3    H1 5547   3.758   1.829   1.338  2.9894  0.1327  0.4644
 1861TIP3    H2 5548   3.830   1.943   1.270  2.8376  0.9855  1.7000
 1862TIP3   OH2 5549   4.771   1.094   2.017  0.1935  0.4371  0.0146
 1862TIP3    H1 5550   4.735   1.120   1.932 -1.1680 -1.3890 -0.0189
 1862TIP3    H2 5551   4.863   1.123   2.013 -0.1925  1.6253 -1.4973
 1863TIP3   OH2 5552   6.104   0.905   2.051  0.4605  0.7472 -0.1617
 1863TIP3    H1 5553   6.019   0.878   2.086  0.4874 -0.8280 -1.2614
 1863TIP3    H2 5554   6.083   0.951   1.970  0.6158  1.1528  0.0252
 1864TIP3   OH2 5555   3.024   2.772   3.255  0.0774 -0.6967  0.1842
 1864TIP3    H1 5556   2.965   2.847   3.249  2.5582  1.2480 -1.7243
 1864TIP3    H2 5557   2.972   2.698   3.223 -1.7403  0.6065 -0.0125
 1865TIP3   OH2 5558   6.546   4.281   2.016 -0.1459 -0.4648 -0.3434
 1865TIP3    H1 5559   6.496   4.355   1.980 -2.4299 -1.3592  0.8051
 1865TIP3    H2 5560   6.509   4.204   1.973  0.2199 -1.1758  0.5822
 1866TIP3   OH2 5561   3.197   5.597   2.674  0.2281 -0.1737 -0.0552
 1866TIP3    H1 5562   3.272   5.542   2.649 -0.2595 -0.4263 -0.9957
 1866TIP3    H2 5563   3.208   5.677   2.623  1.9233  1.4664  2.6119
 1867TIP3   OH2 5564   1.652   3.472   5.420 -0.4044  0.3806  0.0850
 1867TIP3    H1 5565   1.704   3.525   5.482 -1.7514  2.0621 -0.1607
 1867TIP3    H2 5566   1.615   3.536   5.360 -2.0705 -0.8681 -0.2618
 1868TIP3   OH2 5567   2.965   5.286   3.179  0.1726  0.0791  0.1379
 1868TIP3    H1 5568   3.005   5.373   3.182  0.6144 -0.1071 -0.3733
 1868TIP3    H2 5569   2.973   5.253   3.268 -1.2162  1.1024  0.6844
 1869TIP3   OH2 5570   0.608   5.304   4.265 -0.0671  0.2856  0.2016
 1869TIP3    H1 5571   0.541   5.240   4.285  0.7251 -0.3243  0.9590
 1869TIP3    H2 5572   0.659   5.313   4.346  0.7755  0.7173 -0.3541
 1870TIP3   OH2 5573   6.759   0.731   1.953 -0.1373 -0.2191  0.0376
 1870TIP3    H1 5574   6.750   0.637   1.968  0.3171 -0.4096 -0.8100
 1870TIP3    H2 5575   6.831   0.738   1.890  0.6322  0.7695  1.0017
 1871TIP3   OH2 5576   2.755   0.698   3.600 -0.8399  0.3610  0.6477
 1871TIP3    H1 5577   2.836   0.661   3.634 -0.9028 -1.4038 -0.9667
 1871TIP3    H2 5578   2.693   0.625   3.600 -1.7135  1.0609 -0.3670
 1872TIP3   OH2 5579   5.414   4.381   3.592  0.0666 -0.8026 -0.0048
 1872TIP3    H1 5580   5.322   4.369   3.615  0.9231 -1.0416  3.9245
 1872TIP3    H2 5581   5.412   4.443   3.519 -3.1396  1.7805  1.9889
 1873TIP3   OH2 5582   2.729   0.251   5.610 -0.6004  0.0795  0.0673
 1873TIP3    H1 5583   2.821   0.257   5.635 -0.5807 -0.5484  0.1779
 1873TIP3    H2 5584   2.718   0.160   5.580 -1.1980  0.1271  0.1163
 1874TIP3   OH2 5585   5.024   1.901   5.288  0.3717 -0.0027 -0.1550
 1874TIP3    H1 5586   5.085   1.964   5.326  0.3262 -0.1435  0.1596
 1874TIP3    H2 5587   5.012   1.836   5.357  1.9405 -1.4420 -1.1881
 1875TIP3   OH2 5588   4.779   6.258   4.128  0.1584  0.2502 -0.3662
 1875TIP3    H1 5589   4.731   6.340   4.137 -0.7058 -0.2922  0.1233
 1875TIP3    H2 5590   4.852   6.279   4.069 -0.2864  1.2610 -0.5766
 1876TIP3   OH2 5591   2.609   0.272   0.480  0.4727 -0.3887 -0.0678
 1876TIP3    H1 5592   2.597   0.177   0.483  0.9272 -0.4484  0.0110
 1876TIP3    H2 5593   2.522   0.308   0.494  0.4861 -0.7877  1.2120
 1877TIP3   OH2 5594   1.465   3.571   2.784  0.1061  0.2500  0.0999
 1877TIP3    H1 5595   1.504   3.647   2.825  2.7118 -0.1353 -1.4642
 1877TIP3    H2 5596   1.491   3.497   2.840  0.9914  0.0777 -0.5299
 1878TIP3   OH2 5597   7.031   4.173   4.485 -0.3273  0.2751 -0.1925
 1878TIP3    H1 5598   7.007   4.084   4.512  0.2732  0.3010  0.4559
 1878TIP3    H2 5599   6.990   4.229   4.551 -1.2500  0.5384 -0.9618
 1879TIP3   OH2 5600   2.986   5.065   1.255 -0.0502  0.2420  0.2556
 1879TIP3    H1 5601   3.016   4.989   1.303  0.6325  0.5758  0.3648
 1879TIP3    H2 5602   2.983   5.135   1.320  0.1988  0.5259 -0.0329
 1880TIP3   OH2 5603   5.243   4.008   2.039 -0.1880 -0.1737  0.0822
 1880TIP3    H1 5604   5.308   3.938   2.039 -0.7613 -0.7123  0.2166
 1880TIP3    H2 5605   5.270   4.066   2.110  0.3786 -0.1680 -0.1325
 1881TIP3   OH2 5606   2.607   5.635   2.474 -0.1303  0.2801 -0.2378
 1881TIP3    H1 5607   2.684   5.636   2.532  0.1407 -0.1693 -0.5832
 1881TIP3    H2 5608   2.542   5.583   2.521  0.4011 -0.8495 -0.7168
 1882TIP3   OH2 5609   3.817   5.791   1.858  0.2618 -0.3424  0.2543
 1882TIP3    H1 5610   3.734   5.784   1.812  0.9637 -1.5228 -0.8747
 1882TIP3    H2 5611   3.793   5.826   1.944 -1.3824 -0.5940 -0.0649
 1883TIP3   OH2 5612   1.216   6.523   5.651  0.3999  0.1432  0.4354
 1883TIP3    H1 5613   1.299   6.497   5.611 -0.3232 -0.1052 -0.9611
 1883TIP3    H2 5614   1.239   6.546   5.741  1.7424 -1.3014  0.4983
 1884TIP3   OH2 5615   2.113   3.168   0.668  0.2677 -0.6667  0.1655
 1884TIP3    H1 5616   2.144   3.246   0.621  1.4630 -1.5109 -0.4936
 1884TIP3    H2 5617   2.041   3.134   0.614  1.2421 -1.2899 -0.7764
 1885TIP3   OH2 5618   1.659   0.899   4.444  0.4469  0.1078 -0.6426
 1885TIP3    H1 5619   1.627   0.827   4.499  0.4265 -0.7107 -1.6926
 1885TIP3    H2 5620   1.752   0.905   4.463  0.6493 -0.8747 -1.2743
 1886TIP3   OH2 5621   6.745   3.099   4.854 -0.1702 -0.8258  0.8540
 1886TIP3    H1 5622   6.710   3.149   4.928 -0.1380  1.4076 -0.5349
 1886TIP3    H2 5623   6.822   3.148   4.827  0.4663 -2.2352  0.0176
 1887TIP3   OH2 5624   2.139   0.904   3.610  0.1959 -0.1948  0.0298
 1887TIP3    H1 5625   2.086   0.977   3.579 -0.2692 -0.5423 -0.0030
 1887TIP3    H2 5626   2.115   0.894   3.702  0.7858  0.1473  0.2263
 1888TIP3   OH2 5627   2.809   5.186   5.687 -0.4092  0.4297  0.0741
 1888TIP3    H1 5628   2.845   5.255   5.743  4.0447 -0.2353 -1.5379
 1888TIP3    H2 5629   2.794   5.228   5.603 -2.4397  0.4095  0.3949
 1889TIP3   OH2 5630   3.770   5.111   2.891 -0.4230  0.0479 -0.7628
 1889TIP3    H1 5631   3.697   5.112   2.952  1.4648 -2.1840  1.8138
 1889TIP3    H2 5632   3.748   5.042   2.828 -0.7331 -0.3548 -0.2256
 1890TIP3   OH2 5633   2.952   2.006   4.833 -0.1721  0.4712 -0.3461
 1890TIP3    H1 5634   2.945   1.930   4.774 -1.1640  0.7358 -0.5970
 1890TIP3    H2 5635   2.930   2.081   4.778  0.8308  0.9497 -0.1015
 1891TIP3   OH2 5636   1.854   1.210   3.294 -0.1991 -0.2039  0.2908
 1891TIP3    H1 5637   1.759   1.227   3.292 -0.4169 -1.1086 -2.8335
 1891TIP3    H2 5638   1.861   1.115   3.289  0.8971 -0.1316  0.2600
 1892TIP3   OH2 5639   2.325   5.154   4.201 -0.3406 -0.3685  0.0171
 1892TIP3    H1 5640   2.288   5.212   4.135  0.9548  1.4548  0.8359
 1892TIP3    H2 5641   2.287   5.068   4.181 -3.4034  0.9568 -0.3993
 1893TIP3   OH2 5642   3.037   6.672   1.138  0.5963  0.4655  0.6517
 1893TIP3    H1 5643   3.057   6.613   1.210  2.0506  1.2237  0.8965
 1893TIP3    H2 5644   2.954   6.714   1.164 -0.0805 -0.9051  0.7945
 1894TIP3   OH2 5645   5.235   1.616   5.773  0.3098  0.1223 -0.7593
 1894TIP3    H1 5646   5.256   1.559   5.699 -1.5543 -0.6954 -0.7048
 1894TIP3    H2 5647   5.232   1.557   5.848 -0.5049  0.4886 -0.4986
 1895TIP3   OH2 5648   6.388   4.872   2.443 -0.8551  0.2346  0.0979
 1895TIP3    H1 5649   6.483   4.871   2.458 -1.1436  1.1065  2.2834
 1895TIP3    H2 5650   6.374   4.809   2.373  1.3796  0.3526 -0.5212
 1896TIP3   OH2 5651   0.115   0.881   0.128  0.5749  0.7916  0.0733
 1896TIP3    H1 5652   0.172   0.825   0.180  0.0687  0.9196  0.7890
 1896TIP3    H2 5653   0.059   0.821   0.079 -1.0082  0.6118  1.9879
 1897TIP3   OH2 5654   6.188   6.522   2.613 -0.1174 -0.6072  0.2557
 1897TIP3    H1 5655   6.151   6.436   2.632  0.6627 -0.8396  0.7712
 1897TIP3    H2 5656   6.146   6.581   2.676 -0.5639 -0.6350 -0.0180
 1898TIP3   OH2 5657   3.493   5.903   0.152  0.3263  0.3863  0.2684
 1898TIP3    H1 5658   3.501   5.981   0.208 -0.0343  0.5594  0.0797
 1898TIP3    H2 5659   3.572   5.905   0.098 -0.1225  1.1292 -0.3727
 1899TIP3   OH2 5660   6.032   2.277   2.360  0.4013 -0.2260 -0.1101
 1899TIP3    H1 5661   6.029   2.266   2.265  1.1296 -0.8432 -0.0673
 1899TIP3    H2 5662   6.010   2.191   2.395 -0.6239  0.1882  0.2956
 1900TIP3   OH2 5663   1.459   6.814   2.043  0.1892 -0.2016 -0.6720
 1900TIP3    H1 5664   1.394   6.770   2.098  2.2068  0.4839  2.5686
 1900TIP3    H2 5665   1.529   6.749   2.033  0.8527  0.4668 -0.4189
 1901TIP3   OH2 5666   5.189   2.793   3.199  0.6667  0.2494  0.0004
 1901TIP3    H1 5667   5.215   2.859   3.135  0.0608  2.2705  1.6950
 1901TIP3    H2 5668   5.112   2.751   3.161 -0.2549  2.0632 -0.2484
 1902TIP3   OH2 5669   6.551   4.693   0.708 -0.4589  0.0287 -0.3974
 1902TIP3    H1 5670   6.582   4.782   0.722 -1.2193  0.3864 -0.9034
 1902TIP3    H2 5671   6.459   4.704   0.681 -0.4913 -0.8923 -0.6899
 1903TIP3   OH2 5672   5.258   5.874   1.896  0.6255 -0.0194 -0.1151
 1903TIP3    H1 5673   5.264   5.831   1.811  0.7787 -1.0741  0.4143
 1903TIP3    H2 5674   5.203   5.816   1.949 -4.1081  3.1407 -0.9902
 1904TIP3   OH2 5675   3.044   3.891   5.840  0.2271  0.0272  0.4634
 1904TIP3    H1 5676   2.996   3.944   5.904  2.0934  0.3206  1.6791
 1904TIP3    H2 5677   3.118   3.945   5.813  0.5107 -0.8223 -0.5503
 1905TIP3   OH2 5678   0.045   6.060   1.529 -0.3138 -0.8421  0.4751
 1905TIP3    H1 5679   0.034   6.148   1.564  1.0079 -0.5127  0.1275
 1905TIP3    H2 5680   0.131   6.032   1.560 -0.6293 -1.9348  0.4130
 1906TIP3   OH2 5681   3.043   1.340   2.622 -0.1322  0.1170 -0.4018
 1906TIP3    H1 5682   2.948   1.335   2.634  0.1131 -1.5989  1.4184
 1906TIP3    H2 5683   3.074   1.252   2.642  1.7394  0.1963 -2.5030
 1907TIP3   OH2 5684   4.863   6.071   4.318 -0.7510  0.7301 -0.4320
 1907TIP3    H1 5685   4.870   6.132   4.391 -1.5495 -1.1938  1.3834
 1907TIP3    H2 5686   4.824   6.121   4.247  0.0269  2.6713  0.4576
 1908TIP3   OH2 5687   4.382   4.334   2.758  0.1618 -0.2742  0.1635
 1908TIP3    H1 5688   4.293   4.360   2.779  0.6939  1.3289  0.5397
 1908TIP3    H2 5689   4.401   4.262   2.818 -0.5807 -0.0446  0.6741
 1909TIP3   OH2 5690   3.679   5.015   0.798  0.3220  0.3882 -0.6680
 1909TIP3    H1 5691   3.680   5.048   0.708  1.3119  0.5993 -0.5843
 1909TIP3    H2 5692   3.767   5.032   0.832 -0.5074  1.8747  0.9165
 1910TIP3   OH2 5693   0.850   6.273   3.520  0.6496  0.5843  0.0886
 1910TIP3    H1 5694   0.935   6.250   3.558 -0.1559 -0.4821  1.3344
 1910TIP3    H2 5695   0.871   6.309   3.434  2.3599  0.4368  0.4126
 1911TIP3   OH2 5696   6.626   5.522   4.154  0.3956  0.0476  0.0019
 1911TIP3    H1 5697   6.615   5.549   4.063 -0.7901  0.3724  0.2276
 1911TIP3    H2 5698   6.614   5.427   4.153  0.2175  0.0730 -0.1537
 1912TIP3   OH2 5699   6.830   6.041   2.567  0.3675 -0.0380 -0.4858
 1912TIP3    H1 5700   6.840   6.106   2.498 -1.2497  1.2258  0.4156
 1912TIP3    H2 5701   6.857   6.086   2.647 -0.8856 -0.4171  0.1687
 1913TIP3   OH2 5702   3.322   0.515   5.507  0.2447  0.0544  0.6605
 1913TIP3    H1 5703   3.384   0.454   5.548  0.1934  0.0353  0.7112
 1913TIP3    H2 5704   3.258   0.533   5.576  0.0135 -0.1771  0.5093
 1914TIP3   OH2 5705   1.865   6.057   1.985  0.1765  0.0941 -0.0562
 1914TIP3    H1 5706   1.944   6.021   2.026  0.0897  0.8546  0.8121
 1914TIP3    H2 5707   1.884   6.150   1.975 -0.0498  0.0405 -1.2185
 1915TIP3   OH2 5708   1.858   5.043   0.054  0.5101 -0.0100 -0.6806
 1915TIP3    H1 5709   1.892   5.130   0.031  0.0321 -0.1899 -2.1792
 1915TIP3    H2 5710   1.929   4.983   0.034  0.6263 -0.0373 -0.2101
 1916TIP3   OH2 5711   6.247   3.634   0.686  0.1842 -0.4955 -0.0629
 1916TIP3    H1 5712   6.195   3.631   0.766  1.3866 -2.5254  0.7113
 1916TIP3    H2 5713   6.256   3.543   0.659  0.6753  0.0662 -1.9404
 1917TIP3   OH2 5714   7.019   3.074   0.487 -0.4470 -0.6930 -0.4430
 1917TIP3    H1 5715   7.075   3.059   0.564  1.5831  0.2907 -1.6344
 1917TIP3    H2 5716   7.017   2.990   0.441 -0.0141 -0.7582 -0.3452
 1918TIP3   OH2 5717   3.080   2.218   5.219  0.1842 -0.4033  0.1402
 1918TIP3    H1 5718   3.112   2.235   5.308 -0.0752  1.0654 -0.0171
 1918TIP3    H2 5719   3.095   2.301   5.172 -0.8326 -0.7498 -0.8392
 1919TIP3   OH2 5720   1.746   5.926   4.319  0.0563 -0.2553  0.4935
 1919TIP3    H1 5721   1.785   5.841   4.339 -0.3859 -0.8613 -1.0793
 1919TIP3    H2 5722   1.816   5.989   4.335  1.6658 -1.2780 -2.0246
 1920TIP3   OH2 5723   6.494   0.850   1.958 -0.1687  0.2244 -0.5015
 1920TIP3    H1 5724   6.581   0.814   1.969 -0.5032 -0.8947 -1.3962
 1920TIP3    H2 5725   6.442   0.807   2.027 -0.4177 -0.5211 -1.1447
 1921TIP3   OH2 5726   6.192   3.783   0.448  0.3947 -0.2418 -0.4619
 1921TIP3    H1 5727   6.280   3.763   0.417  0.2433  0.4617 -1.4150
 1921TIP3    H2 5728   6.186   3.741   0.533  1.3203 -1.1045 -0.8012
 1922TIP3   OH2 5729   7.037   2.075   5.452 -0.1608  0.1415  0.3957
 1922TIP3    H1 5730   6.979   2.005   5.480 -0.0987 -0.3875 -0.7702
 1922TIP3    H2 5731   6.985   2.155   5.462 -0.8240 -0.2470  0.0869
 1923TIP3   OH2 5732   3.171   4.785   0.844 -0.0111  0.2958 -0.3279
 1923TIP3    H1 5733   3.151   4.816   0.756  1.4336  0.3382 -0.6639
 1923TIP3    H2 5734   3.266   4.777   0.846 -0.0614 -0.2872  1.0408
 1924TIP3   OH2 5735   5.701   1.956   0.486 -0.3179 -0.0583  0.0345
 1924TIP3    H1 5736   5.751   1.969   0.566 -0.1049 -1.6904  0.1941
 1924TIP3    H2 5737   5.615   1.927   0.516  0.0985 -1.7421 -0.3192
 1925TIP3   OH2 5738   5.871   0.617   1.729  0.2972 -0.2036  0.3929
 1925TIP3    H1 5739   5.901   0.615   1.638 -0.1062 -4.6582  0.1750
 1925TIP3    H2 5740   5.776   0.630   1.723  0.2769 -0.4496  0.1897
 1926TIP3   OH2 5741   1.793   6.117   0.436  0.2411  0.2386  0.2531
 1926TIP3    H1 5742   1.777   6.171   0.358  0.2003  0.5139  0.4517
 1926TIP3    H2 5743   1.713   6.124   0.487  0.7817  1.2053  0.9986
 1927TIP3   OH2 5744   1.799   5.487   0.998  0.1881 -0.2507  0.6096
 1927TIP3    H1 5745   1.712   5.495   1.037 -0.4657  0.2632 -0.8760
 1927TIP3    H2 5746   1.835   5.407   1.035 -0.6355 -0.1229  1.7507
 1928TIP3   OH2 5747   5.086   0.779   0.979  0.5111  0.5285  0.0570
 1928TIP3    H1 5748   5.034   0.722   0.921 -0.6633  1.3970  0.2272
 1928TIP3    H2 5749   5.092   0.730   1.061  0.5981  0.1005 -0.2000
 1929TIP3   OH2 5750   0.472   4.262   4.419 -0.2995 -0.4926  0.3718
 1929TIP3    H1 5751   0.541   4.206   4.455  0.0859 -0.2563  0.0140
 1929TIP3    H2 5752   0.395   4.245   4.474 -0.1140 -1.1794  0.4187
 1930TIP3   OH2 5753   2.828   0.376   3.200 -0.3832 -0.3082 -0.0885
 1930TIP3    H1 5754   2.885   0.419   3.264 -0.4389  1.5025 -1.1853
 1930TIP3    H2 5755   2.874   0.386   3.117 -2.5180  1.8767 -1.1393
 1931TIP3   OH2 5756   1.215   3.583   1.047  0.3181 -0.1387 -0.1733
 1931TIP3    H1 5757   1.200   3.651   0.982  1.2278 -0.5289 -0.8172
 1931TIP3    H2 5758   1.264   3.515   0.999  2.2257  0.1674  1.2309
 1932TIP3   OH2 5759   6.208   2.787   3.576  0.7614 -0.3618 -0.0187
 1932TIP3    H1 5760   6.275   2.855   3.575  2.1718 -1.6938 -0.3507
 1932TIP3    H2 5761   6.197   2.765   3.669 -0.3760  0.9265  0.1706
 1933TIP3   OH2 5762   0.462   1.401   4.673  0.0814 -0.3383 -0.1025
 1933TIP3    H1 5763   0.456   1.360   4.759 -0.4398 -1.4677 -0.6567
 1933TIP3    H2 5764   0.456   1.495   4.691 -1.2662 -0.5958  1.0082
 1934TIP3   OH2 5765   5.919   2.251   2.694 -0.2533  0.1869  0.0196
 1934TIP3    H1 5766   5.962   2.181   2.644  0.2987  0.0148  0.7189
 1934TIP3    H2 5767   5.948   2.332   2.652  0.2075  0.0440  0.0580
 1935TIP3   OH2 5768   4.011   4.975   5.480  0.1146  0.6968 -0.5024
 1935TIP3    H1 5769   3.923   5.009   5.501 -0.0990  0.8967 -1.6666
 1935TIP3    H2 5770   4.007   4.953   5.387  0.1208 -2.9311  0.2156
 1936TIP3   OH2 5771   3.994   0.646   2.288  0.4098  0.2004  0.0819
 1936TIP3    H1 5772   3.907   0.672   2.258  0.7964 -0.0152 -1.2619
 1936TIP3    H2 5773   4.002   0.688   2.374 -0.4332  1.4473 -0.4178
 1937TIP3   OH2 5774   6.547   2.688   2.420  0.2048 -0.3491  0.3250
 1937TIP3    H1 5775   6.633   2.723   2.394 -0.2799 -0.1588 -1.1193
 1937TIP3    H2 5776   6.486   2.757   2.396 -0.3826 -0.5846  1.1289
 1938TIP3   OH2 5777   3.741   6.727   1.095 -0.0028 -0.8421  0.1794
 1938TIP3    H1 5778   3.661   6.683   1.066  1.1419 -2.7480 -0.2755
 1938TIP3    H2 5779   3.812   6.672   1.062  1.5352  1.0909  0.0798
 1939TIP3   OH2 5780   0.042   4.035   1.879  0.7337  0.4485 -0.3812
 1939TIP3    H1 5781  -0.046   4.015   1.846  0.0317  1.1075  1.0205
 1939TIP3    H2 5782   0.046   3.990   1.963  1.1721  1.6762  0.2618
 1940TIP3   OH2 5783   3.315   0.497   5.816 -0.4238  0.2034  0.2028
 1940TIP3    H1 5784   3.290   0.590   5.817 -1.3618 -0.0233  1.5896
 1940TIP3    H2 5785   3.390   0.492   5.875 -0.6477  0.0279  0.4773
 1941TIP3   OH2 5786   4.678   2.972   5.239 -0.4016 -0.4591 -0.7045
 1941TIP3    H1 5787   4.630   3.024   5.174 -1.1891 -0.9297 -0.5182
 1941TIP3    H2 5788   4.643   3.002   5.323 -1.6041 -1.9615 -0.6252
 1942TIP3   OH2 5789   2.767   3.111   5.345  0.1951  0.3566 -0.0714
 1942TIP3    H1 5790   2.844   3.068   5.384 -0.3768 -0.8632 -0.2187
 1942TIP3    H2 5791   2.693   3.075   5.393 -0.3927  0.2510 -1.0305
 1943TIP3   OH2 5792   6.515   2.426   1.152  0.0402  0.0028 -0.6520
 1943TIP3    H1 5793   6.425   2.422   1.119  0.4673 -1.3488 -1.7554
 1943TIP3    H2 5794   6.549   2.338   1.139  1.8629  0.7456 -1.2427
 1944TIP3   OH2 5795   3.902   3.890   1.054  0.1932 -0.2087  0.1740
 1944TIP3    H1 5796   3.859   3.809   1.028  1.4589 -0.7102 -0.4392
 1944TIP3    H2 5797   3.983   3.862   1.095  1.2184  0.7448 -1.1141
 1945TIP3   OH2 5798   2.465   0.244   2.418 -0.3521 -0.3974  0.1630
 1945TIP3    H1 5799   2.413   0.211   2.345  0.1681 -1.9036  0.4217
 1945TIP3    H2 5800   2.554   0.251   2.384 -0.6520  2.2510 -0.3035
 1946TIP3   OH2 5801   4.992   3.718   3.643 -0.3891 -0.1165 -0.1223
 1946TIP3    H1 5802   4.970   3.751   3.730  1.5775 -0.2734  0.4975
 1946TIP3    H2 5803   5.026   3.630   3.659 -0.3105 -0.2695 -1.0861
 1947TIP3   OH2 5804   1.693   0.927   5.268  0.2518 -0.3121 -0.4304
 1947TIP3    H1 5805   1.761   0.922   5.201  0.7890  0.0583  0.0708
 1947TIP3    H2 5806   1.612   0.942   5.219  0.8751  1.8211 -0.9424
 1948TIP3   OH2 5807   1.234   5.903   5.857 -0.0430  0.0375 -0.5213
 1948TIP3    H1 5808   1.163   5.960   5.828  0.2548  0.4252 -0.4943
 1948TIP3    H2 5809   1.229   5.906   5.953  1.8144  2.4131 -0.4081
 1949TIP3   OH2 5810   0.917   5.654   1.022 -0.5364 -0.0339  0.7364
 1949TIP3    H1 5811   0.950   5.739   1.050 -0.0881  0.3343 -0.7943
 1949TIP3    H2 5812   0.825   5.670   1.000 -0.1771  0.3492 -0.5943
 1950TIP3   OH2 5813   2.618   1.309   5.678 -0.2237  0.1666  0.0336
 1950TIP3    H1 5814   2.694   1.279   5.728 -0.5598  1.6925  1.5615
 1950TIP3    H2 5815   2.624   1.262   5.595  1.8040 -0.5331  0.5126
 1951TIP3   OH2 5816   6.904   5.643   1.641  0.0406  0.6402  0.1653
 1951TIP3    H1 5817   6.884   5.653   1.734  1.4393  0.8980  0.4583
 1951TIP3    H2 5818   6.983   5.695   1.628  0.1434  0.1937 -1.0602
 1952TIP3   OH2 5819   4.326   3.094   5.331  0.7047  0.4431  0.1646
 1952TIP3    H1 5820   4.384   3.019   5.348  0.4926  0.0234 -0.8919
 1952TIP3    H2 5821   4.249   3.056   5.290 -0.2529  1.0306  1.3399
 1953TIP3   OH2 5822   2.642   0.422   4.522 -0.3584  0.0274 -0.7164
 1953TIP3    H1 5823   2.602   0.340   4.492  0.8321 -0.4088 -1.2059
 1953TIP3    H2 5824   2.693   0.452   4.447  0.7925  0.1738  0.0983
 1954TIP3   OH2 5825   6.849   3.574   4.153  0.3426  0.6722 -0.4398
 1954TIP3    H1 5826   6.918   3.615   4.100  0.1659  0.6258 -0.7107
 1954TIP3    H2 5827   6.845   3.484   4.120  0.8610  0.3763  0.2828
 1955TIP3   OH2 5828   4.405   3.249   3.815 -0.3479  0.1620  0.1319
 1955TIP3    H1 5829   4.331   3.191   3.797 -0.3624  0.8167 -2.3927
 1955TIP3    H2 5830   4.373   3.336   3.793  0.6213  0.6932  0.7536
 1956TIP3   OH2 5831   4.719   4.823   4.788  0.3762 -0.2920  0.4221
 1956TIP3    H1 5832   4.681   4.753   4.735  0.4511 -1.5407  1.9573
 1956TIP3    H2 5833   4.803   4.787   4.817  0.2134  0.2407  1.6038
 1957TIP3   OH2 5834   2.916   0.711   0.209  0.0622  0.0219 -0.4465
 1957TIP3    H1 5835   2.865   0.786   0.238 -0.3339 -0.0399 -0.9559
 1957TIP3    H2 5836   2.902   0.708   0.114 -1.8335 -2.0586 -0.1843
 1958TIP3   OH2 5837   2.507   5.896   5.241  0.0404  0.7763  0.0509
 1958TIP3    H1 5838   2.580   5.899   5.304 -1.2381 -0.2980  1.6887
 1958TIP3    H2 5839   2.449   5.828   5.276 -0.1126 -0.8251 -3.0608
 1959TIP3   OH2 5840   6.607   1.871   0.986  0.4968  0.2216 -0.1294
 1959TIP3    H1 5841   6.644   1.875   1.074 -0.8076  0.1835  0.4518
 1959TIP3    H2 5842   6.678   1.897   0.928  1.2292  0.7693  0.9855
 1960TIP3   OH2 5843   3.226   5.970   0.065  0.3012 -0.3275 -0.0927
 1960TIP3    H1 5844   3.207   5.876   0.071  2.5578 -0.9903 -2.0191
 1960TIP3    H2 5845   3.321   5.976   0.076  0.2236  1.7133 -0.2239
 1961TIP3   OH2 5846   5.906   3.125   0.214 -0.0459  0.3229  0.0667
 1961TIP3    H1 5847   5.845   3.087   0.150  1.0609 -3.4993  1.0239
 1961TIP3    H2 5848   5.984   3.145   0.164  0.5916 -2.0775 -0.0173
 1962TIP3   OH2 5849   4.226   5.613   1.871 -0.2085 -0.3179  0.3175
 1962TIP3    H1 5850   4.184   5.688   1.913 -0.6459 -1.0082  1.1552
 1962TIP3    H2 5851   4.158   5.574   1.817  0.5436  0.9769 -1.6679
 1963TIP3   OH2 5852   6.842   5.171   5.275  0.2122  0.2579 -0.6896
 1963TIP3    H1 5853   6.796   5.237   5.328  0.8768  2.3408 -2.5438
 1963TIP3    H2 5854   6.897   5.124   5.338  0.6505  2.3292  0.5892
 1964TIP3   OH2 5855   0.213   2.302   2.583  0.0981 -0.1823  0.2368
 1964TIP3    H1 5856   0.294   2.351   2.569  1.0345 -1.2000  1.7173
 1964TIP3    H2 5857   0.180   2.333   2.668 -2.0478  1.4340 -1.0752
 1965TIP3   OH2 5858   5.823   0.442   4.237  0.0450 -0.3396  0.0231
 1965TIP3    H1 5859   5.836   0.444   4.331  0.4926  1.0555 -0.0436
 1965TIP3    H2 5860   5.737   0.482   4.224  0.6610  0.9759 -0.2291
 1966TIP3   OH2 5861   1.441   0.376   3.851  0.3689  0.2325  0.1070
 1966TIP3    H1 5862   1.407   0.452   3.898  0.8097  0.7955 -0.4632
 1966TIP3    H2 5863   1.504   0.337   3.912 -1.2885 -0.8598  1.2002
 1967TIP3   OH2 5864   2.368   0.913   5.730  0.3107 -0.2515  0.3641
 1967TIP3    H1 5865   2.444   0.926   5.672  0.0953 -0.4834  0.0247
 1967TIP3    H2 5866   2.361   0.996   5.778 -0.2722  0.4540 -0.8676
 1968TIP3   OH2 5867   2.255   4.407   3.990 -0.1936 -0.1024 -0.6253
 1968TIP3    H1 5868   2.195   4.481   3.986 -1.9567 -1.4316 -0.1056
 1968TIP3    H2 5869   2.237   4.366   4.074  1.0670 -0.8699 -0.7068
 1969TIP3   OH2 5870   3.735   4.795   1.747 -0.3042 -0.0763 -0.0934
 1969TIP3    H1 5871   3.824   4.769   1.769 -0.1282  1.1885  0.7914
 1969TIP3    H2 5872   3.736   4.891   1.751 -1.7242 -0.0442  0.0734
 1970TIP3   OH2 5873   0.405   5.427   2.752  0.3866 -0.0648  0.2653
 1970TIP3    H1 5874   0.364   5.483   2.818 -0.1573 -1.7807  1.4517
 1970TIP3    H2 5875   0.332   5.387   2.706  0.7136 -1.4300  0.8869
 1971TIP3   OH2 5876   5.267   1.220   3.443  0.1249 -0.3976 -0.1186
 1971TIP3    H1 5877   5.218   1.145   3.408 -1.3732  0.6806 -0.4323
 1971TIP3    H2 5878   5.350   1.183   3.470  0.0744 -1.8916 -1.7828
 1972TIP3   OH2 5879   3.347   0.161   5.497  0.3345 -0.4035  0.3791
 1972TIP3    H1 5880   3.433   0.129   5.526 -0.3394 -0.2067  2.7856
 1972TIP3    H2 5881   3.297   0.081   5.479 -0.0441 -0.7036  2.4432
 1973TIP3   OH2 5882   3.332   4.005   3.384 -0.3452  0.4734  0.3617
 1973TIP3    H1 5883   3.299   3.960   3.461 -2.9169  0.3074 -0.7515
 1973TIP3    H2 5884   3.255   4.018   3.329  1.2875  1.1605 -1.8942
 1974TIP3   OH2 5885   4.243   5.940   5.086 -0.0505  0.2868  0.4789
 1974TIP3    H1 5886   4.182   5.867   5.072 -2.1167  0.8900  4.7270
 1974TIP3    H2 5887   4.186   6.018   5.089  1.6065  1.5755 -0.0571
 1975TIP3   OH2 5888   5.128   6.702   0.898 -0.2596 -0.1475  0.3261
 1975TIP3    H1 5889   5.218   6.671   0.889 -0.6489 -1.4740  0.8090
 1975TIP3    H2 5890   5.091   6.695   0.810  0.3181  1.1765 -0.0533
 1976TIP3   OH2 5891   0.867   3.077   3.487 -0.7737 -0.3982  0.4486
 1976TIP3    H1 5892   0.847   2.985   3.470 -0.9627 -0.4078  0.7029
 1976TIP3    H2 5893   0.938   3.074   3.551  1.7683 -0.3846 -2.1673
 1977TIP3   OH2 5894   4.592   2.518   5.359 -0.7635 -0.1228 -0.3379
 1977TIP3    H1 5895   4.670   2.567   5.380 -0.4018 -0.9824  0.3711
 1977TIP3    H2 5896   4.556   2.562   5.281  1.1597 -0.5248 -1.5236
 1978TIP3   OH2 5897   5.272   3.926   3.811  0.0203  0.1896  0.4061
 1978TIP3    H1 5898   5.209   3.995   3.832  0.4959  1.5018 -2.0999
 1978TIP3    H2 5899   5.256   3.907   3.719  3.3869  0.7739 -0.4285
 1979TIP3   OH2 5900   7.118   5.115   0.573 -1.3607 -0.0263  0.0311
 1979TIP3    H1 5901   7.097   5.145   0.661  2.6360  0.5774  0.9838
 1979TIP3    H2 5902   7.121   5.196   0.521  0.5317  0.2188  0.4535
 1980TIP3   OH2 5903   0.625   1.901   4.088  0.0158 -0.0041 -0.2973
 1980TIP3    H1 5904   0.706   1.952   4.090 -0.4638  0.8057 -0.7665
 1980TIP3    H2 5905   0.586   1.922   4.003 -0.9805  0.0836  0.1684
 1981TIP3   OH2 5906   0.033   2.899   1.813 -0.1764  0.0385 -0.0574
 1981TIP3    H1 5907   0.093   2.849   1.757  0.3421 -1.0224  1.3984
 1981TIP3    H2 5908   0.088   2.967   1.851 -0.6064  0.9803 -1.0555
 1982TIP3   OH2 5909   5.883   3.665   4.711 -0.1625  0.0944 -0.4096
 1982TIP3    H1 5910   5.866   3.757   4.731 -0.3734 -0.1007  0.3378
 1982TIP3    H2 5911   5.800   3.621   4.732  0.4398 -0.5017  0.8451
 1983TIP3   OH2 5912   6.121   5.857   1.912 -0.2470  0.0395 -0.0262
 1983TIP3    H1 5913   6.103   5.880   2.003  0.5788  0.1474  0.1242
 1983TIP3    H2 5914   6.163   5.771   1.917 -1.6809 -0.7012 -0.4445
 1984TIP3   OH2 5915   7.077   2.687   1.026  0.0205 -0.1397  0.0643
 1984TIP3    H1 5916   6.992   2.642   1.034  0.9548 -2.0269  0.0184
 1984TIP3    H2 5917   7.097   2.683   0.933 -0.5977  1.8610 -0.1904
 1985TIP3   OH2 5918   2.815   0.984   4.809 -0.7805  0.1048  0.0554
 1985TIP3    H1 5919   2.877   1.015   4.743  0.3605  0.0972  1.0773
 1985TIP3    H2 5920   2.759   1.059   4.827 -1.4930 -0.0715 -1.3342
 1986TIP3   OH2 5921   4.850   0.550   1.660 -0.1417 -0.4514  0.1131
 1986TIP3    H1 5922   4.837   0.535   1.753  0.5832 -0.6780  0.1868
 1986TIP3    H2 5923   4.762   0.550   1.623 -0.3443 -3.0873  0.3899
 1987TIP3   OH2 5924   2.538   6.568   5.298  0.2812  0.0652  0.3155
 1987TIP3    H1 5925   2.584   6.485   5.294  0.2621  0.0691 -0.1496
 1987TIP3    H2 5926   2.462   6.556   5.240 -0.0480  0.2061  0.7163
 1988TIP3   OH2 5927   1.551   4.181   1.668  0.2486 -0.0428  0.4649
 1988TIP3    H1 5928   1.555   4.090   1.698 -2.6652 -1.2631 -2.2824
 1988TIP3    H2 5929   1.491   4.224   1.730  1.3749 -0.0346  1.5786
 1989TIP3   OH2 5930   2.380   3.474   2.364 -0.1301  1.4843 -0.1102
 1989TIP3    H1 5931   2.417   3.440   2.445 -0.6846  2.7699  0.7104
 1989TIP3    H2 5932   2.454   3.481   2.304  0.0825 -0.6612 -0.1643
 1990TIP3   OH2 5933   2.379   1.261   5.833 -0.4767  0.4628 -0.1910
 1990TIP3    H1 5934   2.457   1.276   5.779 -0.5756  0.7016 -0.2667
 1990TIP3    H2 5935   2.414   1.230   5.917 -0.0647  3.6633  0.9583
 1991TIP3   OH2 5936   1.973   6.373   4.119 -0.2794 -0.0859 -0.5378
 1991TIP3    H1 5937   1.974   6.342   4.029 -1.4765  2.1760 -1.4330
 1991TIP3    H2 5938   2.045   6.437   4.123  0.4460 -0.9281  0.4548
 1992TIP3   OH2 5939   4.880   6.246   1.080  0.2012 -0.2685  0.1012
 1992TIP3    H1 5940   4.855   6.339   1.077 -0.4686 -0.4251  0.5321
 1992TIP3    H2 5941   4.859   6.218   1.169  0.5116 -0.8067  0.0099
 1993TIP3   OH2 5942   4.955   5.802   2.759  0.2891  0.4351  0.0519
 1993TIP3    H1 5943   4.894   5.756   2.817 -0.5352  1.2165 -0.1758
 1993TIP3    H2 5944   4.989   5.733   2.701 -1.2729  0.1463 -0.5932
 1994TIP3   OH2 5945   1.299   2.497   5.276  0.0630 -0.2455  0.4953
 1994TIP3    H1 5946   1.247   2.472   5.352 -0.2335  0.0117  0.3812
 1994TIP3    H2 5947   1.282   2.591   5.265 -0.3676 -0.4027 -0.2448
 1995TIP3   OH2 5948   6.565   0.007   4.421  0.0088  0.0590  0.0748
 1995TIP3    H1 5949   6.511   0.085   4.430 -1.4035 -0.9115  0.2255
 1995TIP3    H2 5950   6.563  -0.035   4.507  2.0604  0.6321  0.4659
 1996TIP3   OH2 5951   3.399   1.599   5.744  0.5227 -0.0128  0.3762
 1996TIP3    H1 5952   3.334   1.670   5.738  0.4535 -0.0139  1.0765
 1996TIP3    H2 5953   3.377   1.541   5.671 -0.4050 -0.1341  0.7425
 1997TIP3   OH2 5954   6.576   4.083   4.935  0.1218  0.3804 -0.0288
 1997TIP3    H1 5955   6.651   4.139   4.955 -0.7082  1.6029 -0.2261
 1997TIP3    H2 5956   6.565   4.092   4.840 -0.3563  0.3341  0.0220
 1998TIP3   OH2 5957   3.418   6.354   4.011 -0.2529  0.1479  0.2217
 1998TIP3    H1 5958   3.382   6.439   4.036  1.5449  1.0371 -0.0640
 1998TIP3    H2 5959   3.375   6.335   3.928 -1.2777  0.3811  0.6848
 1999TIP3   OH2 5960   3.345   3.440   0.298  0.0866 -0.0836  0.1855
 1999TIP3    H1 5961   3.323   3.531   0.276  0.6909  0.5891  2.1444
 1999TIP3    H2 5962   3.305   3.388   0.228 -2.5316  1.4992  0.3561
 2000TIP3   OH2 5963   3.264   6.252   0.160  0.4622  0.3018  0.0864
 2000TIP3    H1 5964   3.196   6.288   0.217 -0.7362  0.2719 -1.2863
 2000TIP3    H2 5965   3.223   6.177   0.118  2.5552 -2.1398  2.0331
 2001TIP3   OH2 5966   5.833   5.962   4.668  0.2454  0.5147 -0.1901
 2001TIP3    H1 5967   5.751   5.916   4.688  0.7687 -0.5009 -0.3158
 2001TIP3    H2 5968   5.815   6.054   4.691 -0.8446  0.2731  0.0057
 2002TIP3   OH2 5969   5.777   3.913   4.798  0.4855 -0.0241  0.1467
 2002TIP3    H1 5970   5.719   3.838   4.812 -0.8796  0.9665 -0.0213
 2002TIP3    H2 5971   5.721   3.990   4.810  1.7452  0.9760 -0.1224
 2003TIP3   OH2 5972   0.428   1.077   5.895 -0.2968  0.1562 -0.1254
 2003TIP3    H1 5973   0.472   1.114   5.818  1.5885  0.0857  0.8649
 2003TIP3    H2 5974   0.376   1.150   5.930 -1.7037  0.0171 -1.7690
 2004TIP3   OH2 5975   3.485   0.250   4.920  0.2563 -0.2447 -0.2769
 2004TIP3    H1 5976   3.407   0.195   4.912  1.0259 -1.5324  0.6634
 2004TIP3    H2 5977   3.471   0.298   5.001 -1.4791  2.8300 -2.1889
 2005TIP3   OH2 5978   6.562   2.820   1.644  0.1768 -0.7746 -0.0468
 2005TIP3    H1 5979   6.647   2.778   1.627  0.3654 -0.2880 -0.3277
 2005TIP3    H2 5980   6.534   2.784   1.728  0.6548 -0.9558  0.0403
 2006TIP3   OH2 5981   6.631   5.823   0.847  0.0984 -0.1343  0.8160
 2006TIP3    H1 5982   6.716   5.867   0.847  0.5312 -0.9406  0.2838
 2006TIP3    H2 5983   6.614   5.803   0.939  0.2235  0.5190  0.9805
 2007TIP3   OH2 5984   1.621   1.963   2.234  0.3087  0.0321 -0.5488
 2007TIP3    H1 5985   1.575   1.958   2.317  0.0315  0.3509 -0.6785
 2007TIP3    H2 5986   1.709   1.990   2.257  0.1077  0.5738 -0.3934
 2008TIP3   OH2 5987   2.200   0.667   1.384  0.0068 -1.0425  0.0015
 2008TIP3    H1 5988   2.269   0.656   1.449 -0.4030 -0.6011  0.5321
 2008TIP3    H2 5989   2.126   0.703   1.434 -0.2099 -0.3852 -0.7672
 2009TIP3   OH2 5990   1.545   0.400   2.137 -0.1027 -0.0359  0.2208
 2009TIP3    H1 5991   1.479   0.433   2.076 -0.2171 -1.4018 -0.4120
 2009TIP3    H2 5992   1.507   0.417   2.224 -1.9536 -2.0033 -0.1295
 2010TIP3   OH2 5993   0.932   1.127   2.633 -0.4599 -0.2453 -0.1814
 2010TIP3    H1 5994   1.013   1.151   2.677 -0.6991  0.1958  0.0197
 2010TIP3    H2 5995   0.864   1.174   2.681 -0.5365  1.9943 -2.3502
 2011TIP3   OH2 5996   4.203   6.509   1.254 -0.2110 -0.0032 -0.1767
 2011TIP3    H1 5997   4.232   6.496   1.344 -0.5711 -0.0937 -0.0733
 2011TIP3    H2 5998   4.247   6.590   1.226  0.2884 -0.2418 -0.0875
 2012TIP3   OH2 5999   3.333   5.343   4.341 -0.0735 -0.4654 -0.3905
 2012TIP3    H1 6000   3.394   5.410   4.312 -0.8241  0.1736 -0.5162
 2012TIP3    H2 6001   3.383   5.261   4.337  1.5016  0.3170  1.7394
 2013TIP3   OH2 6002   0.065   6.262   3.165 -0.4247 -0.0357 -0.4918
 2013TIP3    H1 6003   0.055   6.356   3.178  0.5472  0.0471 -0.3022
 2013TIP3    H2 6004   0.108   6.253   3.080  0.5180 -0.2487 -0.0080
 2014TIP3   OH2 6005   6.517   6.582   4.949  0.0663 -0.0521 -0.4301
 2014TIP3    H1 6006   6.474   6.512   4.900 -1.0019 -0.0325  0.4378
 2014TIP3    H2 6007   6.451   6.652   4.952  1.2615  1.2073 -1.6687
 2015TIP3   OH2 6008   6.788   2.152   3.992 -0.1724 -0.5903 -0.4714
 2015TIP3    H1 6009   6.854   2.139   3.924  0.5558 -0.8597  0.2543
 2015TIP3    H2 6010   6.706   2.165   3.945  0.3718 -0.4203 -1.3984
 2016TIP3   OH2 6011   4.996   5.343   5.670 -0.1410  0.4897  0.1722
 2016TIP3    H1 6012   4.992   5.425   5.720 -0.5294  0.6672 -0.1468
 2016TIP3    H2 6013   5.074   5.352   5.616 -0.5830  0.9532 -0.3874
 2017TIP3   OH2 6014   1.985   1.092   5.533 -0.0330  0.2328 -0.3917
 2017TIP3    H1 6015   2.007   1.136   5.615  1.6318 -0.2894 -0.5303
 2017TIP3    H2 6016   2.017   1.002   5.544 -0.9250 -0.2019 -1.1529
 2018TIP3   OH2 6017   4.346   1.312   3.315  0.0358  0.4311 -0.2094
 2018TIP3    H1 6018   4.325   1.231   3.269  0.4580  0.4584 -0.4580
 2018TIP3    H2 6019   4.402   1.285   3.388 -2.5535  0.0792  1.7864
 2019TIP3   OH2 6020   0.566   5.636   0.738  0.1280  0.4563 -0.3307
 2019TIP3    H1 6021   0.615   5.608   0.815 -1.4012 -2.0951 -0.1801
 2019TIP3    H2 6022   0.588   5.572   0.671 -0.4387  1.2335 -1.2821
 2020TIP3   OH2 6023   5.462   6.150   4.708 -0.2839  0.4503  0.5155
 2020TIP3    H1 6024   5.501   6.228   4.669 -0.6104  0.4994  0.2828
 2020TIP3    H2 6025   5.369   6.170   4.715 -0.4844 -0.1750 -0.1853
 2021TIP3   OH2 6026   0.467   0.407   2.027  0.0383  0.4369  0.4380
 2021TIP3    H1 6027   0.454   0.356   1.947 -3.5132 -0.2808  1.3057
 2021TIP3    H2 6028   0.493   0.494   1.996  2.0770 -0.6761 -1.2461
 2022TIP3   OH2 6029   2.049   3.535   5.716 -0.1543  0.7801  0.0881
 2022TIP3    H1 6030   2.079   3.504   5.802  0.4757  1.0819 -0.0180
 2022TIP3    H2 6031   2.120   3.591   5.685 -1.4878  2.7701  0.5075
 2023TIP3   OH2 6032   2.536   3.963   3.217 -0.0472 -0.1493 -0.2681
 2023TIP3    H1 6033   2.469   3.959   3.149  0.0780  0.1043 -0.4112
 2023TIP3    H2 6034   2.500   4.023   3.283 -0.1235 -0.3111 -0.1640
 2024TIP3   OH2 6035   6.885   5.145   3.354 -0.3408  0.2571  0.7945
 2024TIP3    H1 6036   6.963   5.188   3.390 -0.5790  1.7887 -0.4162
 2024TIP3    H2 6037   6.839   5.112   3.431  0.7277  0.6635  1.6472
 2025TIP3   OH2 6038   0.651   5.331   0.124 -0.5818 -0.2433  0.2434
 2025TIP3    H1 6039   0.737   5.373   0.126  0.0460 -1.4848  1.9529
 2025TIP3    H2 6040   0.588   5.404   0.125  0.3935  0.6870 -1.2336
 2026TIP3   OH2 6041   1.804   3.944   3.612 -0.4343  0.1253  0.1436
 2026TIP3    H1 6042   1.783   3.966   3.521  0.9411 -0.0009 -0.2388
 2026TIP3    H2 6043   1.777   4.020   3.663 -0.4931  0.5300 -0.4828
 2027TIP3   OH2 6044   4.586   2.252   0.943 -0.1402  0.8758 -0.3312
 2027TIP3    H1 6045   4.533   2.319   0.987  0.1352  1.3789 -0.7573
 2027TIP3    H2 6046   4.529   2.221   0.872 -0.8744 -0.4588  0.7845
 2028TIP3   OH2 6047   1.133   5.096   0.161 -1.2314 -0.0647 -0.3983
 2028TIP3    H1 6048   1.101   5.050   0.083  1.8643 -1.1406 -1.1783
 2028TIP3    H2 6049   1.139   5.028   0.228  1.1143 -0.4340 -0.8718
 2029TIP3   OH2 6050   3.574   2.157   1.590  0.2221  0.4174 -0.1208
 2029TIP3    H1 6051   3.560   2.068   1.623  1.4779  0.9733  2.1242
 2029TIP3    H2 6052   3.522   2.213   1.647  1.1033  1.2964 -0.1436
 2030TIP3   OH2 6053   6.686   6.419   5.821  0.9362 -0.6264 -0.1313
 2030TIP3    H1 6054   6.639   6.376   5.749 -0.5864  1.5292 -0.5263
 2030TIP3    H2 6055   6.629   6.492   5.846  2.7034  0.2825  1.4699
 2031TIP3   OH2 6056   3.877   3.468   2.525 -0.0576 -0.4439 -0.0241
 2031TIP3    H1 6057   3.789   3.456   2.489  0.4382 -0.5650 -1.2379
 2031TIP3    H2 6058   3.925   3.517   2.458  1.9590 -3.7541 -1.2939
 2032TIP3   OH2 6059   4.373   5.898   2.195  0.2874 -0.4172  0.3705
 2032TIP3    H1 6060   4.463   5.922   2.215  0.4468 -1.0862  0.4853
 2032TIP3    H2 6061   4.374   5.874   2.102  0.2714 -0.6378  0.4277
 2033TIP3   OH2 6062   1.776   1.364   0.385  0.4460  1.1833 -0.3271
 2033TIP3    H1 6063   1.742   1.450   0.411  0.2307  0.9149  0.2975
 2033TIP3    H2 6064   1.742   1.351   0.296  0.7502  1.8832 -0.5542
 2034TIP3   OH2 6065   3.865   2.608   2.012  0.3387 -0.2857 -0.4921
 2034TIP3    H1 6066   3.877   2.513   2.013  0.7657 -0.2411  0.7790
 2034TIP3    H2 6067   3.953   2.644   1.997  0.5225 -0.0801  0.9404
 2035TIP3   OH2 6068   3.710   5.660   4.085 -0.0071  0.2093 -0.1008
 2035TIP3    H1 6069   3.689   5.726   4.019  0.3625 -0.5399 -0.9917
 2035TIP3    H2 6070   3.798   5.684   4.115  0.4512 -0.3029 -0.9878
 2036TIP3   OH2 6071   3.999   4.792   1.819  0.0327  0.0260  0.2223
 2036TIP3    H1 6072   4.092   4.773   1.834  0.8801  2.3850 -1.5673
 2036TIP3    H2 6073   3.985   4.877   1.861 -1.4591 -0.4537  0.7615
 2037TIP3   OH2 6074   2.798   1.234   3.711  0.1669 -0.0944  0.1463
 2037TIP3    H1 6075   2.805   1.249   3.616  4.1972 -1.6111 -0.0371
 2037TIP3    H2 6076   2.786   1.139   3.719  2.6759 -0.4159  1.0277
 2038TIP3   OH2 6077   2.045   2.923   3.908  0.3988 -0.1083  0.1183
 2038TIP3    H1 6078   1.992   2.845   3.922  0.3659  0.1917  1.8424
 2038TIP3    H2 6079   2.011   2.987   3.971  1.6695  0.6592  0.0613
 2039TIP3   OH2 6080   2.958   0.452   0.802 -0.1597 -0.2583 -0.0425
 2039TIP3    H1 6081   2.877   0.433   0.755  0.1889 -0.1432 -0.7038
 2039TIP3    H2 6082   3.010   0.372   0.795 -0.2789 -0.3860  0.5141
 2040TIP3   OH2 6083   7.137   3.186   1.058 -0.3343 -0.2066 -0.2229
 2040TIP3    H1 6084   7.197   3.188   1.133 -0.8138  0.0624  0.1600
 2040TIP3    H2 6085   7.170   3.255   1.000  0.5954 -1.0284 -0.7132
 2041TIP3   OH2 6086   2.876   2.783   1.635 -0.2357  0.3042  0.2563
 2041TIP3    H1 6087   2.814   2.854   1.654  0.8331  1.4088 -0.2160
 2041TIP3    H2 6088   2.822   2.705   1.626 -1.8540  1.6021 -2.3123
 2042TIP3   OH2 6089   4.470   2.515   4.940 -0.1762 -0.1345 -0.3718
 2042TIP3    H1 6090   4.504   2.505   5.029 -0.8980 -2.1770 -0.2607
 2042TIP3    H2 6091   4.532   2.468   4.885 -1.5916 -2.0905 -0.4219
 2043TIP3   OH2 6092   1.707   2.822   1.106 -0.2364  0.1411 -0.0417
 2043TIP3    H1 6093   1.646   2.859   1.170  0.2698 -0.2538  0.6883
 2043TIP3    H2 6094   1.708   2.729   1.125 -0.8212 -0.1412 -1.2833
 2044TIP3   OH2 6095   0.617   5.293   5.148 -0.3090  0.0293 -0.7991
 2044TIP3    H1 6096   0.577   5.378   5.168 -0.1657  0.1572 -1.0434
 2044TIP3    H2 6097   0.589   5.274   5.058 -0.4418 -0.2415 -0.7006
 2045TIP3   OH2 6098   4.141   6.056   2.490 -0.1225  0.0188  0.5166
 2045TIP3    H1 6099   4.126   5.964   2.513 -0.7822  0.3666  1.5703
 2045TIP3    H2 6100   4.065   6.080   2.437  0.1254 -0.0810  0.1136
 2046TIP3   OH2 6101   7.115   5.533   2.182  0.1770 -0.3949  0.7071
 2046TIP3    H1 6102   7.147   5.516   2.093  0.9499  0.9721  0.7075
 2046TIP3    H2 6103   7.179   5.492   2.239  0.6167  0.2064  0.6555
 2047TIP3   OH2 6104   4.661   4.791   2.579  0.0246  0.0220  0.4530
 2047TIP3    H1 6105   4.598   4.732   2.621 -0.2547 -0.7577 -0.9836
 2047TIP3    H2 6106   4.607   4.849   2.525  0.4754 -0.0779 -0.1076
 2048TIP3   OH2 6107   4.060   2.308   1.834  0.1358 -0.2022  0.0788
 2048TIP3    H1 6108   4.151   2.285   1.855  0.6349  1.1969 -0.4151
 2048TIP3    H2 6109   4.020   2.325   1.919  0.6921  0.3544  0.2426
 2049TIP3   OH2 6110   0.620   2.533   1.965 -0.0782  0.2184  0.0747
 2049TIP3    H1 6111   0.626   2.520   1.871 -3.3347  0.1900 -0.2540
 2049TIP3    H2 6112   0.690   2.595   1.985  0.3050  0.7118 -2.4660
 2050TIP3   OH2 6113   3.399   1.164   5.716 -0.1837 -0.2065 -0.7377
 2050TIP3    H1 6114   3.412   1.184   5.623 -0.9160 -0.1926 -0.8397
 2050TIP3    H2 6115   3.465   1.097   5.735 -0.1877 -0.3858 -1.3304
 2051TIP3   OH2 6116   5.852   0.770   4.657  0.4672 -0.0172  0.2925
 2051TIP3    H1 6117   5.890   0.811   4.578 -0.9297 -0.2553 -0.5300
 2051TIP3    H2 6118   5.890   0.682   4.658  0.2900 -0.1034 -0.2635
 2052TIP3   OH2 6119   6.818   2.810   1.181  0.0993 -0.1468  0.0487
 2052TIP3    H1 6120   6.723   2.806   1.174  0.1506  0.7822 -1.6973
 2052TIP3    H2 6121   6.843   2.889   1.135  1.8784 -1.4879 -1.4722
 2053TIP3   OH2 6122   4.982   6.826   3.604  0.1419  0.1971 -0.0212
 2053TIP3    H1 6123   5.056   6.834   3.664  0.4556  1.8338 -0.5842
 2053TIP3    H2 6124   4.985   6.735   3.575  2.4207  0.3947 -0.5916
 2054TIP3   OH2 6125   2.929   5.003   1.654 -0.1201 -0.1579 -0.4110
 2054TIP3    H1 6126   2.854   4.961   1.697 -1.3798  2.9950  0.8669
 2054TIP3    H2 6127   2.991   5.019   1.725  0.0545  0.6187 -0.7265
 2055TIP3   OH2 6128   2.302   4.042   0.255  0.4250 -0.4994  0.0595
 2055TIP3    H1 6129   2.370   4.013   0.194  0.2109 -2.3643  0.6347
 2055TIP3    H2 6130   2.251   4.106   0.206  1.8756  0.0851 -0.7763
 2056TIP3   OH2 6131   0.753   2.010   2.994  0.0773 -0.4005 -0.5928
 2056TIP3    H1 6132   0.722   1.935   3.044 -0.7550 -0.4612 -1.1816
 2056TIP3    H2 6133   0.690   2.019   2.923 -0.0771  1.0965 -0.3093
 2057TIP3   OH2 6134   1.187   3.272   2.814  0.1209 -0.1476 -0.4251
 2057TIP3    H1 6135   1.230   3.313   2.739 -0.3347  0.6744 -0.2480
 2057TIP3    H2 6136   1.172   3.182   2.787  0.7859 -0.1025 -0.9701
 2058TIP3   OH2 6137   6.452   0.543   4.808 -0.4639 -0.0735  0.0083
 2058TIP3    H1 6138   6.502   0.588   4.875  0.1107 -1.0009  0.2206
 2058TIP3    H2 6139   6.511   0.537   4.733 -0.3700 -0.8675  0.1397
 2059TIP3   OH2 6140   0.379   0.138   0.624  0.5905 -0.2148 -0.2404
 2059TIP3    H1 6141   0.406   0.081   0.552  0.7365  1.7436 -1.8473
 2059TIP3    H2 6142   0.283   0.133   0.624  0.4595  1.2135 -1.9287
 2060TIP3   OH2 6143   1.955   1.175   2.711 -0.8597  0.2284 -0.1270
 2060TIP3    H1 6144   1.981   1.086   2.735  0.3092  0.3903 -0.7088
 2060TIP3    H2 6145   1.898   1.203   2.782  1.8653  0.4119  2.1553
 2061TIP3   OH2 6146   3.398   1.769   3.663  0.3954  0.0242  0.5999
 2061TIP3    H1 6147   3.421   1.845   3.717  0.3335  1.0971 -0.8087
 2061TIP3    H2 6148   3.464   1.768   3.594 -0.9758  0.2989 -0.7819
 2062TIP3   OH2 6149   3.255   0.870   5.270 -0.2007  0.0232  0.0509
 2062TIP3    H1 6150   3.191   0.870   5.341 -0.1350 -0.1848  0.1107
 2062TIP3    H2 6151   3.313   0.798   5.291  0.6290  0.8041  0.5134
 2063TIP3   OH2 6152   4.902   4.518   4.833 -0.0359 -0.5720 -0.4362
 2063TIP3    H1 6153   4.988   4.516   4.875  0.2928  1.8281 -0.8602
 2063TIP3    H2 6154   4.842   4.547   4.902 -0.4028 -1.5475 -0.3307
 2064TIP3   OH2 6155   3.744   0.631   3.455  0.1105  0.4021 -0.3008
 2064TIP3    H1 6156   3.809   0.644   3.387  0.3862  1.9174  0.2249
 2064TIP3    H2 6157   3.773   0.686   3.528 -0.8068 -0.2678  0.6119
 2065TIP3   OH2 6158   1.210   0.375   0.540 -0.1364  0.6941 -0.2376
 2065TIP3    H1 6159   1.270   0.432   0.492  0.4982  0.8533  0.7106
 2065TIP3    H2 6160   1.252   0.289   0.537 -0.6572  0.4528 -0.9130
 2066TIP3   OH2 6161   4.316   2.439   0.797 -0.5985 -0.2680  0.4655
 2066TIP3    H1 6162   4.376   2.427   0.723 -2.0819  1.4748 -1.1071
 2066TIP3    H2 6163   4.346   2.519   0.840  1.0998 -1.9728  2.7193
 2067TIP3   OH2 6164   5.605   0.813   4.414 -0.5623  0.2825  0.3219
 2067TIP3    H1 6165   5.556   0.875   4.467 -1.3447 -0.1166  0.0868
 2067TIP3    H2 6166   5.641   0.750   4.477 -0.6300  0.3917  0.4697
 2068TIP3   OH2 6167   5.306   5.622   4.203 -0.4296 -0.2957  0.6504
 2068TIP3    H1 6168   5.385   5.671   4.224  0.5367 -1.2401 -0.6494
 2068TIP3    H2 6169   5.336   5.533   4.184 -1.7717 -0.6509  0.0063
 2069TIP3   OH2 6170   3.369   2.326   2.910  0.1560 -0.2638 -0.3155
 2069TIP3    H1 6171   3.299   2.380   2.947 -1.1069 -0.8501 -1.7273
 2069TIP3    H2 6172   3.366   2.245   2.961 -0.4948 -0.4411 -0.6218
 2070TIP3   OH2 6173   5.632   3.495   1.917  0.3486 -0.1074 -0.1141
 2070TIP3    H1 6174   5.627   3.424   1.853 -0.1761 -0.9457  0.8263
 2070TIP3    H2 6175   5.619   3.575   1.866  3.0456 -0.4691 -1.5211
 2071TIP3   OH2 6176   0.129   4.974   2.255 -0.7530  0.7433  0.1568
 2071TIP3    H1 6177   0.086   4.889   2.269  1.1233 -0.1528  0.8193
 2071TIP3    H2 6178   0.143   4.977   2.160 -1.6167  0.7439  0.0156
 2072TIP3   OH2 6179   2.844   4.052   4.108 -0.1109  0.0291  0.1608
 2072TIP3    H1 6180   2.935   4.058   4.080 -0.2648 -0.9359 -0.6359
 2072TIP3    H2 6181   2.836   3.965   4.146 -0.5890  0.2852  0.6629
 2073TIP3   OH2 6182   4.196   4.051   1.057 -0.2401 -0.1012 -0.1542
 2073TIP3    H1 6183   4.154   4.043   1.142  0.4829 -2.5375  0.0551
 2073TIP3    H2 6184   4.240   4.136   1.059 -2.1874  0.9519  0.9335
 2074TIP3   OH2 6185   1.241   1.730   5.313 -0.0721 -0.2922 -0.0013
 2074TIP3    H1 6186   1.284   1.675   5.379  1.8247  0.7908 -0.2533
 2074TIP3    H2 6187   1.188   1.669   5.262  0.6159 -1.6032  0.7915
 2075TIP3   OH2 6188   6.002  -0.015   2.909 -0.4451 -0.7310  0.0669
 2075TIP3    H1 6189   5.976  -0.005   2.817  1.9484  2.2222 -0.4344
 2075TIP3    H2 6190   5.969   0.063   2.953  0.2582 -1.0577  1.2334
 2076TIP3   OH2 6191   6.654   1.873   4.018 -0.0645  0.4086 -0.0875
 2076TIP3    H1 6192   6.668   1.838   3.930  0.0590 -1.8951  0.7997
 2076TIP3    H2 6193   6.663   1.968   4.007 -2.1068  0.4043 -2.9313
 2077TIP3   OH2 6194   4.032   2.002   1.782  0.0979 -0.1005  0.1952
 2077TIP3    H1 6195   3.972   2.012   1.708 -0.3137  1.0648  0.6643
 2077TIP3    H2 6196   4.024   2.084   1.831 -0.3637 -1.1921  2.0714
 2078TIP3   OH2 6197   1.665   4.102   0.344  0.1266 -0.3042  0.2729
 2078TIP3    H1 6198   1.641   4.019   0.304 -2.0307  0.5856 -0.3772
 2078TIP3    H2 6199   1.756   4.115   0.318  0.6189 -2.5592  0.6185
 2079TIP3   OH2 6200   2.226   3.204   5.182 -0.1379 -0.4916 -0.0381
 2079TIP3    H1 6201   2.285   3.223   5.109  0.6739  1.1858  0.9851
 2079TIP3    H2 6202   2.139   3.220   5.147  0.0520 -1.9198 -1.2653
 2080TIP3   OH2 6203   0.559   2.059   5.685 -0.1487 -0.5563  0.1733
 2080TIP3    H1 6204   0.616   1.982   5.689  1.0605  0.3255  3.3329
 2080TIP3    H2 6205   0.473   2.027   5.714 -0.2189 -1.1133 -0.6382
 2081TIP3   OH2 6206   4.193   2.616   2.254 -0.5870  0.0295  0.1647
 2081TIP3    H1 6207   4.118   2.561   2.278  0.2136 -1.4453 -0.5828
 2081TIP3    H2 6208   4.171   2.649   2.167 -0.3236 -0.5208 -0.1163
 2082TIP3   OH2 6209   1.142   0.681   0.935  0.6879  0.0835  0.5190
 2082TIP3    H1 6210   1.184   0.664   0.850 -0.5566 -1.6464  0.1769
 2082TIP3    H2 6211   1.149   0.775   0.947  0.1540  0.5219 -1.9543
 2083TIP3   OH2 6212   1.484   6.011   2.304  0.2688  0.0372 -0.1342
 2083TIP3    H1 6213   1.389   6.017   2.294  0.2482  1.6882  0.6942
 2083TIP3    H2 6214   1.497   5.973   2.391  0.3138  1.7319  0.6414
 2084TIP3   OH2 6215   2.243   6.020   2.656  0.0483 -0.5046  0.3647
 2084TIP3    H1 6216   2.294   5.987   2.582 -0.4243 -0.6452  0.1025
 2084TIP3    H2 6217   2.171   5.957   2.666 -1.6524  1.1221 -0.9823
 2085TIP3   OH2 6218   3.799   5.209   4.731 -0.2289  0.1224 -0.1672
 2085TIP3    H1 6219   3.763   5.290   4.695 -2.7825 -0.0702  1.6191
 2085TIP3    H2 6220   3.759   5.140   4.679 -0.1414 -0.0255 -0.0387
 2086TIP3   OH2 6221   6.036   5.528   5.161  0.4807 -0.4199 -0.0292
 2086TIP3    H1 6222   5.962   5.503   5.106 -0.1770 -1.4461  1.2693
 2086TIP3    H2 6223   6.098   5.455   5.152  1.5275  0.5789 -1.3665
 2087TIP3   OH2 6224   4.054   4.201   3.601 -0.2960  0.5115 -0.4892
 2087TIP3    H1 6225   3.999   4.278   3.611 -0.4512  0.4085 -0.5419
 2087TIP3    H2 6226   4.120   4.209   3.671  1.3648  2.0821 -2.1201
 2088TIP3   OH2 6227   6.079   0.869   4.836 -0.3047  0.1653 -0.1148
 2088TIP3    H1 6228   6.151   0.895   4.779 -1.3432  1.2312 -0.9879
 2088TIP3    H2 6229   6.012   0.835   4.776 -0.5043 -0.9021  0.6878
 2089TIP3   OH2 6230   1.604   3.425   3.658  0.2252 -0.0594 -0.7545
 2089TIP3    H1 6231   1.673   3.462   3.603 -1.4305  2.6969 -1.1903
 2089TIP3    H2 6232   1.556   3.502   3.691 -0.2982 -1.6615  2.6995
 2090TIP3   OH2 6233   2.186   4.995   3.827  0.4993 -0.2187 -0.1553
 2090TIP3    H1 6234   2.128   4.935   3.782  0.5801 -0.5956  0.2367
 2090TIP3    H2 6235   2.268   4.990   3.780  0.4303 -0.2289 -0.2735
 2091TIP3   OH2 6236   1.050   1.928   1.480  0.0141  0.8484 -0.8307
 2091TIP3    H1 6237   1.026   1.851   1.427 -2.7195  0.4007  0.8326
 2091TIP3    H2 6238   1.141   1.945   1.458  1.2566 -3.7532 -0.3150
 2092TIP3   OH2 6239   5.312   6.054   2.812  0.4669  0.4006 -0.4553
 2092TIP3    H1 6240   5.223   6.028   2.788  0.7892 -0.0590 -1.2110
 2092TIP3    H2 6241   5.367   5.984   2.777  1.2071  1.2036 -0.9408
 2093TIP3   OH2 6242   2.338   2.132   2.627  0.2868  0.1879  0.3771
 2093TIP3    H1 6243   2.415   2.169   2.670 -0.0689  0.0214  1.1739
 2093TIP3    H2 6244   2.316   2.055   2.679 -1.6582  1.3826  1.4492
 2094TIP3   OH2 6245   2.360   5.974   1.403  0.3809 -0.3559 -0.3243
 2094TIP3    H1 6246   2.268   5.965   1.381  0.4433 -1.7797 -0.1162
 2094TIP3    H2 6247   2.378   5.900   1.461  1.7585 -0.4036 -0.7650
 2095TIP3   OH2 6248   3.605   2.648   0.252  0.0081 -0.1424  0.0347
 2095TIP3    H1 6249   3.692   2.667   0.288  0.0821 -1.8418  0.8650
 2095TIP3    H2 6250   3.546   2.652   0.328 -0.8009  1.7517 -0.6480
 2096TIP3   OH2 6251   6.149   1.619   0.143  0.3570 -0.2436 -0.3702
 2096TIP3    H1 6252   6.089   1.573   0.201  0.0621  1.0989  0.4224
 2096TIP3    H2 6253   6.208   1.550   0.110  0.9460 -0.9560  2.0117
 2097TIP3   OH2 6254   4.779   3.472   0.346 -0.4629  0.0119  0.3288
 2097TIP3    H1 6255   4.844   3.463   0.277 -0.7235  0.1434  0.0644
 2097TIP3    H2 6256   4.730   3.550   0.323  0.1006  0.6444  1.2139
 2098TIP3   OH2 6257   3.565   2.841   3.033 -0.0731  0.3524 -0.0296
 2098TIP3    H1 6258   3.642   2.862   3.086 -0.8403 -0.0320  1.3069
 2098TIP3    H2 6259   3.578   2.750   3.007 -0.2147  0.1838  0.4737
 2099TIP3   OH2 6260   2.395   5.373   1.785 -0.5156  0.1181  0.2366
 2099TIP3    H1 6261   2.301   5.388   1.802 -0.4033 -0.2274  1.2183
 2099TIP3    H2 6262   2.405   5.389   1.691 -1.5540  0.1955  0.1256
 2100TIP3   OH2 6263   5.985   6.137   3.048 -0.1604 -0.2755 -0.1215
 2100TIP3    H1 6264   6.003   6.157   3.139  2.1443 -0.7108 -0.4364
 2100TIP3    H2 6265   5.890   6.148   3.039 -0.1517  1.8942  1.7765
 2101TIP3   OH2 6266   3.679   3.762   2.987  0.0841 -0.0715 -0.1146
 2101TIP3    H1 6267   3.716   3.735   3.071 -0.3785  0.8311  0.3987
 2101TIP3    H2 6268   3.727   3.711   2.922 -1.1254 -2.5392  0.7962
 2102TIP3   OH2 6269   2.643   4.681   4.846 -0.3323 -0.1540 -0.2793
 2102TIP3    H1 6270   2.570   4.721   4.800 -0.8336 -0.0981  0.5455
 2102TIP3    H2 6271   2.717   4.739   4.828 -1.0927  1.3441  1.0933
 2103TIP3   OH2 6272   6.708   0.778   0.369  0.2261  0.1766  0.2803
 2103TIP3    H1 6273   6.757   0.778   0.452 -0.3293  3.2191  0.7454
 2103TIP3    H2 6274   6.654   0.700   0.372 -0.5551  0.7145  3.3397
 2104TIP3   OH2 6275   4.298   5.600   3.599  0.6168  0.3718 -0.4082
 2104TIP3    H1 6276   4.349   5.576   3.522 -0.1877 -2.1405 -0.2534
 2104TIP3    H2 6277   4.331   5.543   3.668 -0.1889  0.9911  0.5148
 2105TIP3   OH2 6278   6.654   0.015   4.885  0.5840  0.3204  0.1625
 2105TIP3    H1 6279   6.673   0.075   4.814 -1.1339  0.2810 -0.3621
 2105TIP3    H2 6280   6.666  -0.072   4.847 -2.1147  0.2420 -0.7018
 2106TIP3   OH2 6281   0.939   6.622   3.398  0.4090 -0.3287 -0.2524
 2106TIP3    H1 6282   0.963   6.531   3.380  0.1997 -0.7058  1.2832
 2106TIP3    H2 6283   1.011   6.656   3.451  1.0103  0.7619 -1.6809
 2107TIP3   OH2 6284   0.412   3.838   2.204 -0.1141 -0.2130  0.3791
 2107TIP3    H1 6285   0.488   3.878   2.247 -0.0493 -0.2242  0.2752
 2107TIP3    H2 6286   0.374   3.780   2.270 -1.3259  1.4345  1.2092
 2108TIP3   OH2 6287   0.951   0.392   0.429  0.0764 -0.3962  0.7244
 2108TIP3    H1 6288   0.966   0.425   0.341 -1.2762 -1.6025  0.0090
 2108TIP3    H2 6289   1.029   0.419   0.478  1.1660 -0.2890 -0.9984
 2109TIP3   OH2 6290   3.274   2.347   2.255  0.6505  0.0569  0.0514
 2109TIP3    H1 6291   3.225   2.313   2.329 -0.0362  0.7688 -0.0671
 2109TIP3    H2 6292   3.269   2.278   2.189 -0.6334  0.3199 -0.1520
 2110TIP3   OH2 6293   1.534   5.903   0.453  0.9736  0.7574  0.2956
 2110TIP3    H1 6294   1.559   5.857   0.533  1.0674  2.1097  1.0627
 2110TIP3    H2 6295   1.547   5.995   0.473 -1.5459  1.3261 -0.3771
 2111TIP3   OH2 6296   3.427   3.175   0.281 -0.6450  0.1976 -0.3009
 2111TIP3    H1 6297   3.420   3.262   0.319  1.4055  0.8147 -1.2025
 2111TIP3    H2 6298   3.362   3.123   0.328 -1.5158  2.0530  0.6570
 2112TIP3   OH2 6299   0.602   1.045   2.276 -0.3058 -0.1605  0.4192
 2112TIP3    H1 6300   0.515   1.082   2.265 -0.4571 -0.8205 -0.7362
 2112TIP3    H2 6301   0.589   0.971   2.335 -0.5567 -0.3625  0.1117
 2113TIP3   OH2 6302   7.120   1.943   2.048 -0.4280  0.4739  0.1069
 2113TIP3    H1 6303   7.206   1.964   2.085  1.1087 -1.4882 -2.0532
 2113TIP3    H2 6304   7.079   1.886   2.113  0.6763 -0.0392  0.3782
 2114TIP3   OH2 6305   6.897   4.209   3.589  0.1251 -0.1565  0.2367
 2114TIP3    H1 6306   6.932   4.157   3.516 -1.2104  2.2383 -2.3293
 2114TIP3    H2 6307   6.907   4.300   3.561 -2.5401  0.8263  1.9955
 2115TIP3   OH2 6308   4.592   5.189   4.903  0.1811 -0.1423  0.1432
 2115TIP3    H1 6309   4.625   5.162   4.989 -0.4238 -1.6238 -0.0659
 2115TIP3    H2 6310   4.546   5.112   4.870  1.2990  0.0414 -1.9794
 2116TIP3   OH2 6311   6.045   5.246   2.329  0.2912 -0.1441  0.1078
 2116TIP3    H1 6312   6.127   5.202   2.351  0.4753 -0.2672 -0.7793
 2116TIP3    H2 6313   6.024   5.215   2.241 -1.3956 -1.1281  0.8064
 2117TIP3   OH2 6314   5.650   1.977   3.976  0.0561  0.5088 -0.1557
 2117TIP3    H1 6315   5.634   2.012   3.888 -1.6996  0.3477  0.0615
 2117TIP3    H2 6316   5.632   1.884   3.968  1.7919  0.1258 -0.0363
 2118TIP3   OH2 6317   6.438   6.468   2.500 -0.4871  0.0376  0.0236
 2118TIP3    H1 6318   6.359   6.481   2.552 -0.4350  0.0447  0.1004
 2118TIP3    H2 6319   6.424   6.520   2.421 -0.1226  0.8426  0.4887
 2119TIP3   OH2 6320   5.984   0.421   0.402  0.0372  0.0633  0.2193
 2119TIP3    H1 6321   6.025   0.491   0.351 -0.8064  0.9812  0.7683
 2119TIP3    H2 6322   5.908   0.394   0.350 -2.6146  3.0564  2.1882
 2120TIP3   OH2 6323   4.248   2.424   3.059  0.5357  0.4798 -0.2021
 2120TIP3    H1 6324   4.250   2.399   3.151  0.7527 -1.5595 -0.7205
 2120TIP3    H2 6325   4.244   2.520   3.060 -0.4321  0.4622  1.9207
 2121TIP3   OH2 6326   6.059   3.907   3.954  0.0003 -0.1994  0.0424
 2121TIP3    H1 6327   6.006   3.929   3.877 -0.7130 -1.0625  0.2626
 2121TIP3    H2 6328   6.109   3.986   3.972  0.4937 -0.1079 -1.5524
 2122TIP3   OH2 6329   4.993   1.683   5.868 -0.2802  0.3300 -0.3518
 2122TIP3    H1 6330   5.082   1.682   5.831 -0.6995  0.7374 -1.4302
 2122TIP3    H2 6331   5.005   1.663   5.960  1.0796  1.5803 -0.2147
 2123TIP3   OH2 6332   4.730   0.007   5.125  0.6380 -0.2577  0.0395
 2123TIP3    H1 6333   4.662   0.068   5.096  1.0367  1.0548  1.7464
 2123TIP3    H2 6334   4.730  -0.062   5.058 -2.1343 -0.1452 -0.1832
 2124TIP3   OH2 6335   5.200   0.234   0.461 -0.3080 -0.1813 -0.2769
 2124TIP3    H1 6336   5.179   0.327   0.456 -1.1588 -0.4116 -1.4921
 2124TIP3    H2 6337   5.202   0.204   0.370  0.2151 -1.2998  0.0759
 2125TIP3   OH2 6338   0.284   0.772   0.323  0.4055  0.0592 -0.0093
 2125TIP3    H1 6339   0.325   0.729   0.398  1.8824 -1.0418 -1.3657
 2125TIP3    H2 6340   0.341   0.847   0.304  0.8060 -0.4305 -0.8048
 2126TIP3   OH2 6341   2.120   1.271   1.501 -0.2700  0.9092 -0.5341
 2126TIP3    H1 6342   2.099   1.251   1.593 -1.4180 -0.6197 -1.0849
 2126TIP3    H2 6343   2.102   1.364   1.492  1.3670  1.4639  1.1563
 2127TIP3   OH2 6344   5.029   1.474   3.672 -0.1931  0.0840 -0.0592
 2127TIP3    H1 6345   4.999   1.557   3.710  1.6528  0.9675 -0.4216
 2127TIP3    H2 6346   5.077   1.431   3.743  0.9381  0.4814 -0.5613
 2128TIP3   OH2 6347   4.795   5.646   4.300  0.3831  0.4654  0.2338
 2128TIP3    H1 6348   4.850   5.577   4.339  0.1664  0.1440 -0.0284
 2128TIP3    H2 6349   4.760   5.607   4.221 -0.3173  0.6339  0.4563
 2129TIP3   OH2 6350   0.203   1.498   4.827 -0.0555  0.5370 -0.6089
 2129TIP3    H1 6351   0.186   1.528   4.917  0.7077 -0.1094 -0.2429
 2129TIP3    H2 6352   0.247   1.572   4.785 -0.0705  0.7035 -0.3341
 2130TIP3   OH2 6353   2.313   2.481   5.616  0.1906 -0.2957 -0.6033
 2130TIP3    H1 6354   2.399   2.453   5.584  0.7281  0.8718 -0.2200
 2130TIP3    H2 6355   2.324   2.573   5.638 -0.4187 -0.7287  1.8943
 2131TIP3   OH2 6356   4.042   4.855   2.976  0.3784 -0.0419  0.5397
 2131TIP3    H1 6357   4.069   4.769   3.008  1.8547  0.3715  0.4847
 2131TIP3    H2 6358   4.020   4.840   2.884  1.8719 -0.1563  0.1741
 2132TIP3   OH2 6359   3.870   6.351   5.881 -0.0350  0.1023 -0.4626
 2132TIP3    H1 6360   3.916   6.269   5.863  0.0508 -0.1259  0.7208
 2132TIP3    H2 6361   3.814   6.364   5.804 -0.6902 -1.5121 -0.2904
 2133TIP3   OH2 6362   2.148   3.977   2.884  0.3021  0.4539  0.3546
 2133TIP3    H1 6363   2.100   3.973   2.802 -0.7212  0.4700  0.9387
 2133TIP3    H2 6364   2.125   3.896   2.929 -0.4596  1.1849  1.3248
 2134TIP3   OH2 6365   3.642   3.139   1.830 -0.1589  0.1263 -0.1583
 2134TIP3    H1 6366   3.599   3.224   1.836  0.0058  0.2228 -0.3264
 2134TIP3    H2 6367   3.589   3.080   1.884 -1.9257 -0.3669 -2.3086
 2135TIP3   OH2 6368   2.212   1.348   3.783  0.1267  0.6444 -0.2381
 2135TIP3    H1 6369   2.229   1.442   3.771  1.0899  0.3859 -1.0003
 2135TIP3    H2 6370   2.254   1.327   3.867  0.5976  0.7352 -0.4461
 2136TIP3   OH2 6371   6.244   4.067   2.197 -0.0879  0.0273 -0.7264
 2136TIP3    H1 6372   6.155   4.086   2.168  0.7192  0.4768 -3.0615
 2136TIP3    H2 6373   6.286   4.153   2.204  0.3148 -0.2110 -0.0744
 2137TIP3   OH2 6374   0.448   5.505   4.385 -0.6038  0.1352  0.1174
 2137TIP3    H1 6375   0.495   5.450   4.323 -2.3062  1.4399 -2.5024
 2137TIP3    H2 6376   0.356   5.492   4.364 -1.1487  2.2313  0.9477
 2138TIP3   OH2 6377   5.311   0.868   4.619  0.0637  0.4621 -0.0413
 2138TIP3    H1 6378   5.367   0.794   4.599  1.7719  1.7922 -0.3643
 2138TIP3    H2 6379   5.320   0.881   4.714  2.0543  1.9627 -0.3763
 2139TIP3   OH2 6380   4.099   6.165   1.431  0.7070  0.2897 -0.0648
 2139TIP3    H1 6381   4.179   6.124   1.400  0.6347 -1.5007  1.8503
 2139TIP3    H2 6382   4.029   6.126   1.377  0.8372 -0.6867  0.4459
 2140TIP3   OH2 6383   5.934   1.588   5.775  0.0961 -0.3171  0.3371
 2140TIP3    H1 6384   5.998   1.540   5.829  0.6785 -2.4707 -2.0412
 2140TIP3    H2 6385   5.954   1.560   5.685 -2.9305  0.4894 -0.6972
 2141TIP3   OH2 6386   1.107   3.065   3.647 -0.1977 -0.0378 -0.3280
 2141TIP3    H1 6387   1.149   3.004   3.708  0.8789 -1.1943 -2.1546
 2141TIP3    H2 6388   1.140   3.151   3.673 -1.1298 -0.2455  1.7987
 2142TIP3   OH2 6389   0.363   2.808   0.315 -0.7220 -0.3351  0.2540
 2142TIP3    H1 6390   0.441   2.771   0.274 -0.8875 -0.3603 -0.0346
 2142TIP3    H2 6391   0.389   2.821   0.407 -0.2435  0.0498  0.0682
 2143TIP3   OH2 6392   4.181   4.984   0.568 -0.1861 -0.3649 -0.2541
 2143TIP3    H1 6393   4.099   4.958   0.609  1.1715 -0.5272  2.5528
 2143TIP3    H2 6394   4.215   4.902   0.531 -0.4476 -0.6553  0.1339
 2144TIP3   OH2 6395   0.425   0.815   3.627  0.0595 -0.2785  0.0378
 2144TIP3    H1 6396   0.396   0.803   3.536  0.7262  0.0928 -0.2321
 2144TIP3    H2 6397   0.516   0.844   3.619 -0.2064  0.7909  0.7923
 2145TIP3   OH2 6398   4.108   2.671   0.528 -0.7040  0.1392 -0.0002
 2145TIP3    H1 6399   4.101   2.742   0.465 -0.9605 -0.6034 -0.8261
 2145TIP3    H2 6400   4.196   2.682   0.567 -0.5401  0.5909 -0.4852
 2146TIP3   OH2 6401   4.432   0.905   4.783 -0.0456  0.2406 -0.3458
 2146TIP3    H1 6402   4.336   0.909   4.783 -0.0797 -0.4227 -0.6946
 2146TIP3    H2 6403   4.459   0.992   4.753 -0.6508 -1.0167 -5.3509
 2147TIP3   OH2 6404   2.365   2.977   2.619 -0.6319 -0.4977  0.5884
 2147TIP3    H1 6405   2.360   2.969   2.715  0.6931  1.0405  0.8264
 2147TIP3    H2 6406   2.435   2.916   2.594 -1.5921 -1.5803  0.4650
 2148TIP3   OH2 6407   4.737   5.361   3.727 -0.0762  0.0855 -0.3520
 2148TIP3    H1 6408   4.754   5.452   3.752 -0.0956  0.5162 -1.8056
 2148TIP3    H2 6409   4.676   5.367   3.654 -0.1707 -1.1081 -0.3906
 2149TIP3   OH2 6410   4.293   5.243   0.541  0.0400 -0.1260 -0.2230
 2149TIP3    H1 6411   4.249   5.161   0.561  0.3259 -0.3216 -0.3906
 2149TIP3    H2 6412   4.289   5.292   0.623 -0.6692 -0.0552 -0.3004
 2150TIP3   OH2 6413   5.180   6.016   4.398 -0.0564 -0.0622 -0.1515
 2150TIP3    H1 6414   5.196   6.023   4.492  2.0367  0.5065 -0.4990
 2150TIP3    H2 6415   5.109   5.952   4.391 -0.3813  0.0027  1.8065
 2151TIP3   OH2 6416   0.983   5.574   0.581 -0.0228 -0.5101 -0.6775
 2151TIP3    H1 6417   1.049   5.529   0.529  0.5464  0.6715 -1.0058
 2151TIP3    H2 6418   0.911   5.590   0.519 -0.3989 -1.2973 -0.4596
 2152TIP3   OH2 6419   4.693   2.213   5.699 -0.1586  0.2715  0.0162
 2152TIP3    H1 6420   4.731   2.252   5.620 -1.0113 -0.0665 -0.5803
 2152TIP3    H2 6421   4.628   2.277   5.729  1.4454  1.2622  1.5489
 2153TIP3   OH2 6422   1.947   6.535   1.008  0.2395 -0.1991 -0.5691
 2153TIP3    H1 6423   1.993   6.541   1.092 -0.5856  3.2718 -0.2262
 2153TIP3    H2 6424   2.017   6.525   0.943  1.3132  1.6057  0.2177
 2154TIP3   OH2 6425   6.251   5.689   1.305 -0.2325  0.2900  0.0196
 2154TIP3    H1 6426   6.259   5.737   1.387 -1.8729  0.5302  0.0849
 2154TIP3    H2 6427   6.190   5.742   1.253  0.5868  0.0141 -1.2527
 2155TIP3   OH2 6428   2.925   2.523   3.191  0.1931  0.0812 -0.3584
 2155TIP3    H1 6429   2.840   2.566   3.201  0.5697  0.5320  1.1866
 2155TIP3    H2 6430   2.924   2.454   3.258  0.8853 -0.1679 -0.6001
 2156TIP3   OH2 6431   3.821   2.451   5.643  0.4043  0.1759  0.2324
 2156TIP3    H1 6432   3.761   2.376   5.641  0.4838  0.1120  0.2052
 2156TIP3    H2 6433   3.854   2.453   5.733 -0.6754  1.0457  0.6232
 2157TIP3   OH2 6434   4.883   4.120   2.411 -0.3569 -0.2658 -0.5282
 2157TIP3    H1 6435   4.863   4.191   2.351  3.6805  1.0107 -0.6584
 2157TIP3    H2 6436   4.967   4.086   2.382 -0.3195 -2.5677  1.8375
 2158TIP3   OH2 6437   4.111   3.693   3.234 -0.0714  0.1200 -0.0961
 2158TIP3    H1 6438   4.200   3.663   3.251  0.2128  0.7529 -0.4239
 2158TIP3    H2 6439   4.106   3.699   3.138 -0.0300  1.3476 -0.0348
 2159TIP3   OH2 6440   0.462   2.964   1.539  0.0485 -0.6669  0.2067
 2159TIP3    H1 6441   0.465   3.055   1.569  0.4957 -0.5646 -0.1392
 2159TIP3    H2 6442   0.375   2.934   1.563 -0.0154 -0.2233  0.5477
 2160TIP3   OH2 6443   2.545   0.949   1.669  0.4468 -0.2785  0.1126
 2160TIP3    H1 6444   2.592   0.908   1.596  0.7981 -1.2684  0.8889
 2160TIP3    H2 6445   2.598   1.025   1.692  0.6036 -0.2502 -0.3331
 2161TIP3   OH2 6446   6.965   3.572   5.801 -0.2117  0.2169 -0.3327
 2161TIP3    H1 6447   7.041   3.516   5.818 -1.6982 -1.8044 -0.0563
 2161TIP3    H2 6448   6.999   3.642   5.745  1.8985 -0.4750  0.0043
 2162TIP3   OH2 6449   5.908   6.344   1.616 -0.0006  0.0611  0.4827
 2162TIP3    H1 6450   5.912   6.334   1.712 -0.1191 -1.6251  0.3538
 2162TIP3    H2 6451   5.882   6.257   1.585  2.0112  0.0040 -1.2242
 2163TIP3   OH2 6452   6.025   4.014   0.395 -0.3692 -0.4692 -0.2245
 2163TIP3    H1 6453   6.000   4.079   0.461  1.1597 -0.6067  0.5141
 2163TIP3    H2 6454   6.043   3.935   0.445 -0.4768 -0.9546 -0.9471
 2164TIP3   OH2 6455   6.880   0.120   5.300  0.4379 -1.1530  0.2599
 2164TIP3    H1 6456   6.938   0.044   5.302  0.6875 -0.9627  0.4914
 2164TIP3    H2 6457   6.813   0.098   5.237  0.5120 -1.5636  0.3220
 2165TIP3   OH2 6458   6.493   5.016   1.805 -0.1112 -0.1726  0.9694
 2165TIP3    H1 6459   6.464   4.967   1.728  1.3227  1.1071 -0.4584
 2165TIP3    H2 6460   6.549   4.955   1.853 -0.4220 -0.7394  0.6230
 2166TIP3   OH2 6461   3.011   6.215   1.708  0.1409 -0.1470 -0.1914
 2166TIP3    H1 6462   2.950   6.283   1.679  0.7525  1.1595  1.4691
 2166TIP3    H2 6463   3.097   6.254   1.697  0.4647 -0.2680  1.6414
 2167TIP3   OH2 6464   3.339   3.524   4.366  0.3515 -0.2233  0.3915
 2167TIP3    H1 6465   3.406   3.586   4.336  0.1197  0.5903  1.4836
 2167TIP3    H2 6466   3.341   3.531   4.462 -1.1189 -0.3735  0.4504
 2168TIP3   OH2 6467   0.739   1.357   1.059  0.4011  0.2856 -0.2542
 2168TIP3    H1 6468   0.678   1.422   1.026 -0.2515 -0.8635 -1.3769
 2168TIP3    H2 6469   0.697   1.272   1.042  1.4087 -0.4682  0.7842
 2169TIP3   OH2 6470   1.782   5.245   1.188  0.1009  0.0089  0.1733
 2169TIP3    H1 6471   1.770   5.299   1.266 -2.5561 -0.0577 -0.1267
 2169TIP3    H2 6472   1.743   5.160   1.210  1.2996 -0.7535 -0.4956
 2170TIP3   OH2 6473   3.793   2.065   0.799  0.4689 -0.4555 -0.2402
 2170TIP3    H1 6474   3.805   2.102   0.711 -2.6218  0.8033 -0.2398
 2170TIP3    H2 6475   3.808   2.137   0.859 -0.5778 -0.4590  0.0511
 2171TIP3   OH2 6476   5.404   4.469   1.556 -0.0790 -0.4499  0.1294
 2171TIP3    H1 6477   5.343   4.399   1.532 -2.2554  0.9225  1.3113
 2171TIP3    H2 6478   5.414   4.461   1.650 -2.1224  1.9976  0.6787
 2172TIP3   OH2 6479   3.071   1.259   5.188  0.1132  0.7433 -0.4828
 2172TIP3    H1 6480   2.994   1.314   5.176 -0.5491 -0.1246 -0.2927
 2172TIP3    H2 6481   3.041   1.170   5.167  1.4486  0.5802 -1.9726
 2173TIP3   OH2 6482   4.626   4.105   4.110  0.5051  0.4223 -0.1698
 2173TIP3    H1 6483   4.671   4.037   4.060  0.5543  1.1143 -1.0953
 2173TIP3    H2 6484   4.533   4.093   4.089  0.6650  1.7585 -1.8010
 2174TIP3   OH2 6485   5.890   5.492   4.740  0.6293 -0.0153  0.4150
 2174TIP3    H1 6486   5.906   5.528   4.827  0.0346 -1.2067  1.0437
 2174TIP3    H2 6487   5.857   5.404   4.756 -1.2723  0.3675 -0.9605
 2175TIP3   OH2 6488   0.404   3.222   2.455  0.2818 -0.3352 -0.1372
 2175TIP3    H1 6489   0.376   3.312   2.472  0.6348 -0.1769 -0.3953
 2175TIP3    H2 6490   0.464   3.202   2.527  1.6377  0.2749 -1.0557
 2176TIP3   OH2 6491   5.108   5.863   1.630 -0.7195  0.2476  0.4179
 2176TIP3    H1 6492   5.104   5.770   1.652 -3.7407 -0.2495 -1.5298
 2176TIP3    H2 6493   5.158   5.866   1.548 -1.9496  0.0515 -0.3723
 2177TIP3   OH2 6494   3.270   1.522   3.070  0.6060 -0.2799 -0.4747
 2177TIP3    H1 6495   3.210   1.525   2.995 -2.3477  0.7609  1.7009
 2177TIP3    H2 6496   3.284   1.429   3.086 -0.1983 -0.5546 -1.2504
 2178TIP3   OH2 6497   6.969   0.863   3.456 -0.1636  0.0223  0.2126
 2178TIP3    H1 6498   6.968   0.777   3.498 -1.1814 -0.6062 -1.0392
 2178TIP3    H2 6499   6.985   0.924   3.527  0.0320 -1.1545  1.2131
 2179TIP3   OH2 6500   4.390   6.697   3.527 -0.2250  0.1059 -0.1216
 2179TIP3    H1 6501   4.324   6.761   3.555  1.5040  1.2336  1.6370
 2179TIP3    H2 6502   4.467   6.717   3.582  0.3358 -3.6240  0.6774
 2180TIP3   OH2 6503   5.704   5.830   1.859 -0.4468  0.0233 -0.0950
 2180TIP3    H1 6504   5.744   5.743   1.850  0.7514  0.7301 -2.3586
 2180TIP3    H2 6505   5.744   5.867   1.938  0.4861 -0.7486 -0.1916
 2181TIP3   OH2 6506   2.482   5.635   3.892 -0.1175  0.4208 -0.3571
 2181TIP3    H1 6507   2.394   5.627   3.929  0.4792  1.0470  1.2649
 2181TIP3    H2 6508   2.500   5.729   3.891  0.4713  0.3108 -0.8724
 2182TIP3   OH2 6509   0.341   3.866   4.518 -0.0821  0.0362  0.4488
 2182TIP3    H1 6510   0.308   3.956   4.523  0.1548  0.0974  1.0037
 2182TIP3    H2 6511   0.420   3.867   4.572 -0.6551 -0.7635  1.3301
 2183TIP3   OH2 6512   4.551   5.957   4.712  0.1969  0.1240 -0.7467
 2183TIP3    H1 6513   4.601   5.965   4.631  2.0330 -0.3278  0.2717
 2183TIP3    H2 6514   4.604   5.898   4.766 -1.3840 -0.2299  0.4816
 2184TIP3   OH2 6515   6.155   3.083   2.900 -0.1561 -0.7899 -0.0973
 2184TIP3    H1 6516   6.150   2.996   2.860 -0.1048 -1.3292  1.0255
 2184TIP3    H2 6517   6.065   3.106   2.920 -0.3329  0.0962 -1.7430
 2185TIP3   OH2 6518   5.499   3.050   3.682  0.0869 -0.0131  0.5827
 2185TIP3    H1 6519   5.430   3.025   3.744  0.2720  0.5421  1.0264
 2185TIP3    H2 6520   5.535   2.967   3.652 -0.2267 -0.3001  0.9758
 2186TIP3   OH2 6521   0.828   5.210   2.960  0.0386 -0.6464 -0.2470
 2186TIP3    H1 6522   0.865   5.163   3.035 -0.7712 -0.4025  0.3225
 2186TIP3    H2 6523   0.805   5.141   2.898  2.9152 -0.7345 -1.3676
 2187TIP3   OH2 6524   1.806   4.026   2.031  0.0270  0.5177  0.1832
 2187TIP3    H1 6525   1.788   3.954   1.971  1.4983  0.4066 -0.1471
 2187TIP3    H2 6526   1.830   3.984   2.114 -0.5282  0.6578  0.4227
 2188TIP3   OH2 6527   2.677   1.957   5.579 -0.0031  0.4496  0.8289
 2188TIP3    H1 6528   2.700   1.994   5.494 -0.6960  1.3584  1.0294
 2188TIP3    H2 6529   2.723   2.011   5.642  0.6493 -0.3322  1.0360
 2189TIP3   OH2 6530   0.680   4.752   5.632 -0.3946  0.1821  0.1718
 2189TIP3    H1 6531   0.623   4.812   5.679  1.0240  1.6716  0.0643
 2189TIP3    H2 6532   0.693   4.679   5.693 -2.1456 -0.0585  0.2982
 2190TIP3   OH2 6533   1.368   3.156   0.969  0.5830 -0.0074  0.0973
 2190TIP3    H1 6534   1.353   3.226   1.033 -0.9187  1.5063 -1.7567
 2190TIP3    H2 6535   1.300   3.091   0.987  0.7328 -0.0265  0.5925
 2191TIP3   OH2 6536   6.508   0.274   1.974  0.6558 -0.2270  0.4837
 2191TIP3    H1 6537   6.435   0.305   1.920  1.6383  1.5577  0.0970
 2191TIP3    H2 6538   6.480   0.187   2.004 -1.1752 -0.0298 -0.4732
 2192TIP3   OH2 6539   1.538   3.805   2.900  0.0255 -0.2085  0.2346
 2192TIP3    H1 6540   1.529   3.899   2.884  1.7411  0.0466  0.5116
 2192TIP3    H2 6541   1.633   3.792   2.910 -0.2394 -1.8520  0.9106
 2193TIP3   OH2 6542   5.641   0.097   3.391 -0.2113  0.1191  0.7877
 2193TIP3    H1 6543   5.613   0.036   3.459 -1.2486  0.5231  0.7279
 2193TIP3    H2 6544   5.594   0.069   3.312  3.6049 -2.6595 -0.8444
 2194TIP3   OH2 6545   1.393   2.232   3.927 -0.0211 -0.2473 -0.2045
 2194TIP3    H1 6546   1.336   2.154   3.923  0.7019 -1.0346  2.6977
 2194TIP3    H2 6547   1.415   2.241   4.019  2.4878  1.5892 -0.8794
 2195TIP3   OH2 6548   4.215   1.420   0.345 -0.6452 -0.1689 -0.2717
 2195TIP3    H1 6549   4.290   1.373   0.382  0.1227  0.1906 -1.3039
 2195TIP3    H2 6550   4.176   1.466   0.420  0.1261 -0.4281  0.3000
 2196TIP3   OH2 6551   0.896   4.391   0.425 -0.1957  0.4074 -0.1717
 2196TIP3    H1 6552   0.886   4.368   0.517 -0.6584 -0.1695 -0.3602
 2196TIP3    H2 6553   0.982   4.358   0.401 -1.8726 -3.8247 -1.1739
 2197TIP3   OH2 6554   1.197   5.501   0.367 -0.0842  0.0364 -0.1355
 2197TIP3    H1 6555   1.140   5.444   0.315  0.8558 -0.4778 -0.6236
 2197TIP3    H2 6556   1.230   5.566   0.304  0.1768  0.0880  0.0527
 2198TIP3   OH2 6557   2.059   0.531   0.582  0.2487  0.4629 -0.2919
 2198TIP3    H1 6558   2.004   0.455   0.562 -0.0948  0.9749 -1.3492
 2198TIP3    H2 6559   2.022   0.567   0.662  0.8234 -0.8603  0.6102
 2199TIP3   OH2 6560   5.034   3.923   2.811  0.8085 -0.4090  0.1804
 2199TIP3    H1 6561   5.099   3.887   2.872  0.4864 -0.5499  0.4431
 2199TIP3    H2 6562   5.084   3.942   2.732  1.7703  2.1240  1.3045
 2200TIP3   OH2 6563   4.692   1.676   3.052  0.2202  0.0857 -0.9726
 2200TIP3    H1 6564   4.690   1.619   2.975 -2.3036 -1.6229  0.2015
 2200TIP3    H2 6565   4.720   1.619   3.123 -1.1573  0.5702  0.0121
 2201TIP3   OH2 6566   2.916   1.869   0.516  0.0284  0.4654  0.1955
 2201TIP3    H1 6567   2.981   1.912   0.571  0.8111  0.8977 -1.0215
 2201TIP3    H2 6568   2.922   1.777   0.539 -0.6055  0.7881  1.7624
 2202TIP3   OH2 6569   5.954   0.323   2.951 -0.2911  0.4316 -0.3361
 2202TIP3    H1 6570   6.037   0.281   2.971 -0.6658  0.0881  0.5428
 2202TIP3    H2 6571   5.936   0.379   3.027 -0.9167  0.4208 -0.4662
 2203TIP3   OH2 6572   3.450   4.821   4.225 -0.1879 -0.1441 -0.0119
 2203TIP3    H1 6573   3.523   4.761   4.212  0.7799  0.0621  3.5080
 2203TIP3    H2 6574   3.471   4.868   4.305 -3.4765  1.0403  0.3203
 2204TIP3   OH2 6575   0.563   1.612   3.848  0.3231  0.3761  0.0789
 2204TIP3    H1 6576   0.624   1.582   3.780 -0.6434 -0.6809 -0.3671
 2204TIP3    H2 6577   0.553   1.706   3.832  0.4706  0.2262 -0.9583
 2205TIP3   OH2 6578   3.245  -0.001   4.061  0.1212 -0.3723 -0.0505
 2205TIP3    H1 6579   3.201   0.033   4.139 -0.6224  1.1866 -1.1047
 2205TIP3    H2 6580   3.174  -0.023   4.001  0.4087 -5.0406  0.8868
 2206TIP3   OH2 6581   1.908   2.435   4.049 -0.5264  0.7541 -0.3945
 2206TIP3    H1 6582   1.925   2.378   4.124  0.2746  2.2181  0.6030
 2206TIP3    H2 6583   1.832   2.397   4.006 -1.1376 -0.0253  1.2925
 2207TIP3   OH2 6584   6.039   2.841   3.206  0.1022 -0.0828 -0.4233
 2207TIP3    H1 6585   6.033   2.887   3.290  2.0745 -1.2699  0.4352
 2207TIP3    H2 6586   5.972   2.773   3.211 -0.6511  0.6417 -0.3728
 2208TIP3   OH2 6587   5.152   4.473   1.258 -0.3374 -0.5327 -0.4286
 2208TIP3    H1 6588   5.075   4.528   1.245 -1.0355 -1.0103  1.3589
 2208TIP3    H2 6589   5.146   4.405   1.190 -1.4023 -0.4626 -0.4068
 2209TIP3   OH2 6590   2.731   4.366   1.368  0.4930 -0.4874 -0.1527
 2209TIP3    H1 6591   2.706   4.415   1.289  1.4989 -0.3954 -0.4357
 2209TIP3    H2 6592   2.667   4.392   1.434  0.5014  0.5699 -0.5409
 2210TIP3   OH2 6593   1.871   5.521   2.855  0.3642 -0.3094 -0.2677
 2210TIP3    H1 6594   1.798   5.460   2.867  0.1622  0.0407  0.3579
 2210TIP3    H2 6595   1.832   5.607   2.869  0.6730 -0.0411 -1.0190
 2211TIP3   OH2 6596   2.957   2.782   2.014  0.7358 -0.0959  0.3988
 2211TIP3    H1 6597   3.027   2.791   1.949  0.1040  0.3482 -0.2322
 2211TIP3    H2 6598   2.985   2.836   2.087  1.1012 -0.0039  0.1926
 2212TIP3   OH2 6599   4.208   4.252   1.498 -0.6964  0.2653 -0.3466
 2212TIP3    H1 6600   4.210   4.336   1.544 -2.4887 -0.2871  0.8497
 2212TIP3    H2 6601   4.191   4.188   1.566  1.8652 -1.2901 -1.0500
 2213TIP3   OH2 6602   1.610   6.544   1.339 -0.3149  0.4668  0.0488
 2213TIP3    H1 6603   1.624   6.637   1.351  0.9551  0.3201 -0.1272
 2213TIP3    H2 6604   1.652   6.524   1.255  0.0107 -0.3709  0.3941
 2214TIP3   OH2 6605   5.612   5.795   4.463 -0.0688 -0.8747 -0.2667
 2214TIP3    H1 6606   5.559   5.869   4.493 -0.1704 -0.3827 -1.6130
 2214TIP3    H2 6607   5.596   5.727   4.528  1.2429  0.7487  1.9201
 2215TIP3   OH2 6608   2.895   2.955   5.583  0.3024  0.1809  0.2411
 2215TIP3    H1 6609   2.859   3.027   5.635  0.9742  1.2834 -0.7566
 2215TIP3    H2 6610   2.941   2.900   5.646 -0.6193  0.3604  1.0887
 2216TIP3   OH2 6611   4.721   3.311   1.662  0.0522  0.2916  0.2939
 2216TIP3    H1 6612   4.738   3.368   1.737  1.9931  0.4421 -0.2085
 2216TIP3    H2 6613   4.786   3.242   1.668 -1.6027 -1.3421  0.2988
 2217TIP3   OH2 6614   1.793   6.000   3.854 -0.5169 -0.0664 -0.6412
 2217TIP3    H1 6615   1.744   5.920   3.870  0.8263 -1.1762 -1.7259
 2217TIP3    H2 6616   1.811   6.036   3.941 -0.6789 -1.2497 -0.0991
 2218TIP3   OH2 6617   6.506   3.730   4.190  0.2817 -0.0200  0.1539
 2218TIP3    H1 6618   6.424   3.738   4.142  0.4366  2.5444  0.2039
 2218TIP3    H2 6619   6.480   3.711   4.280 -0.0302 -3.7904 -0.5366
 2219TIP3   OH2 6620   2.938   4.286   5.496  0.3035 -0.2400 -0.3735
 2219TIP3    H1 6621   2.870   4.342   5.534  0.2747 -0.2494 -0.4108
 2219TIP3    H2 6622   2.906   4.197   5.512 -0.7685 -0.2574 -2.2788
 2220TIP3   OH2 6623   5.816   1.760   4.635  0.4844 -0.5701  0.4690
 2220TIP3    H1 6624   5.762   1.746   4.713 -0.9180  1.0660 -0.1528
 2220TIP3    H2 6625   5.779   1.701   4.570 -0.2066  0.1282  0.2174
 2221TIP3   OH2 6626   7.006   0.052   0.356 -0.3778  0.0083  0.1531
 2221TIP3    H1 6627   6.988   0.145   0.365 -1.0216 -0.1446  0.5561
 2221TIP3    H2 6628   6.961   0.012   0.431  0.1103 -0.5959  0.1340
 2222TIP3   OH2 6629   1.426   4.753   1.993  0.4466  0.4250 -0.6740
 2222TIP3    H1 6630   1.511   4.770   1.952 -0.2815  2.1758 -1.5719
 2222TIP3    H2 6631   1.433   4.791   2.080  0.3356  1.3290 -1.0455
 2223TIP3   OH2 6632   0.904   1.256   4.981 -0.0824 -0.5978 -0.4411
 2223TIP3    H1 6633   0.988   1.213   4.967  0.5976  0.6278 -0.2678
 2223TIP3    H2 6634   0.853   1.193   5.032  0.9951 -1.0605  0.0978
 2224TIP3   OH2 6635   6.054   6.219   4.962  0.0685  0.4632  0.2032
 2224TIP3    H1 6636   5.963   6.192   4.975  0.6631 -1.5435  0.5214
 2224TIP3    H2 6637   6.106   6.145   4.995  1.7829  0.3436 -2.4507
 2225TIP3   OH2 6638   4.346   2.248   3.575 -0.6440  0.4953  0.1699
 2225TIP3    H1 6639   4.298   2.293   3.645 -0.2735  1.3103 -0.0928
 2225TIP3    H2 6640   4.294   2.169   3.558 -0.8465  0.3811  1.2248
 2226TIP3   OH2 6641   6.649   3.923   4.038 -0.1647  0.1833 -0.2574
 2226TIP3    H1 6642   6.593   3.916   3.961 -1.1203  0.5180  0.3941
 2226TIP3    H2 6643   6.634   3.842   4.086 -0.8067  0.6614  0.3758
 2227TIP3   OH2 6644   0.684   0.340   1.468  0.3747  0.2887 -0.3155
 2227TIP3    H1 6645   0.612   0.279   1.451 -1.0189  1.4378  1.2057
 2227TIP3    H2 6646   0.719   0.313   1.553  1.8875 -0.3335 -1.0931
 2228TIP3   OH2 6647   6.963   1.871   2.266 -0.0351  0.3712  0.2279
 2228TIP3    H1 6648   7.021   1.836   2.334  0.2229  1.5363  0.6219
 2228TIP3    H2 6649   6.875   1.844   2.292  0.2202 -0.6838  0.0726
 2229TIP3   OH2 6650   2.838   1.544   1.696 -0.1949 -0.2036  0.1352
 2229TIP3    H1 6651   2.916   1.596   1.679 -1.6435  2.3524  0.6975
 2229TIP3    H2 6652   2.839   1.530   1.791  0.4464 -1.7296 -0.0723
 2230TIP3   OH2 6653   1.340   6.579   0.382 -0.0363  0.2743  0.4006
 2230TIP3    H1 6654   1.319   6.619   0.467 -0.8066  0.4774  0.1176
 2230TIP3    H2 6655   1.299   6.493   0.385 -1.8775  1.0713 -0.5597
 2231TIP3   OH2 6656   2.526   0.438   5.047  0.1182 -0.4143  0.0223
 2231TIP3    H1 6657   2.467   0.490   5.102 -0.9598 -0.6121 -0.9164
 2231TIP3    H2 6658   2.588   0.501   5.012 -1.2341  0.3060 -1.1756
 2232TIP3   OH2 6659   4.188   1.998   3.644  0.2462  0.2967 -0.3044
 2232TIP3    H1 6660   4.153   1.961   3.725  0.1763 -2.7391 -1.5986
 2232TIP3    H2 6661   4.145   1.949   3.575  1.3910  1.8003 -2.1719
 2233TIP3   OH2 6662   0.173   6.608   1.662  0.4917 -0.5712 -0.5241
 2233TIP3    H1 6663   0.085   6.592   1.698  1.0124  0.0571  1.1253
 2233TIP3    H2 6664   0.206   6.520   1.642  0.3494 -1.0095  1.0435
 2234TIP3   OH2 6665   3.261   2.423   3.669  0.0268 -0.2984  0.5216
 2234TIP3    H1 6666   3.251   2.467   3.753 -0.6815  0.3066  0.1307
 2234TIP3    H2 6667   3.327   2.475   3.623  0.0609 -0.3415  0.5230
 2235TIP3   OH2 6668   1.195   4.952   4.181 -0.1973  0.2000 -0.0470
 2235TIP3    H1 6669   1.220   4.860   4.192  2.5642  1.0337  1.7775
 2235TIP3    H2 6670   1.112   4.960   4.229  1.2055 -0.7317  2.7586
 2236TIP3   OH2 6671   4.688   4.950  -0.014 -0.2136 -0.2648 -0.2035
 2236TIP3    H1 6672   4.727   4.864  -0.030 -2.5142 -1.3107 -0.6248
 2236TIP3    H2 6673   4.632   4.938   0.063  0.1654  1.1267  0.3180
 2237TIP3   OH2 6674   3.066   0.240   3.910  0.6122 -0.6020 -0.2585
 2237TIP3    H1 6675   3.159   0.249   3.893  0.2551  1.3654 -1.5543
 2237TIP3    H2 6676   3.025   0.240   3.823 -0.6415 -0.5017  0.3025
 2238TIP3   OH2 6677   3.860   2.145   4.512  0.0354  0.0462 -0.2485
 2238TIP3    H1 6678   3.859   2.184   4.599  0.3280  1.3662 -0.8078
 2238TIP3    H2 6679   3.792   2.192   4.464 -1.6733 -2.1914 -0.1321
 2239TIP3   OH2 6680   0.936   0.674   0.303 -0.9099 -0.0856  0.0638
 2239TIP3    H1 6681   0.931   0.696   0.210 -0.0640 -0.1564 -0.0066
 2239TIP3    H2 6682   1.007   0.611   0.309 -0.9855 -0.1116  0.7563
 2240TIP3   OH2 6683   1.817   4.580   5.522 -0.4841  0.0143 -0.3198
 2240TIP3    H1 6684   1.858   4.499   5.494 -0.1761 -0.0731  0.3751
 2240TIP3    H2 6685   1.757   4.555   5.592 -4.4301 -0.4292 -3.4450
 2241TIP3   OH2 6686   5.065   1.148   3.096 -0.2759 -0.5640  0.0514
 2241TIP3    H1 6687   5.003   1.206   3.140  0.8860  0.6093  0.1812
 2241TIP3    H2 6688   5.086   1.082   3.161 -1.9925 -1.4841 -0.2595
 2242TIP3   OH2 6689   1.305   4.260   3.570  0.4472 -0.5650 -0.0119
 2242TIP3    H1 6690   1.349   4.195   3.624  0.2250  0.1344  1.0321
 2242TIP3    H2 6691   1.342   4.247   3.482  0.0091 -2.4451  0.0443
 2243TIP3   OH2 6692   2.431   1.235   1.915 -0.2596 -0.0796 -0.3767
 2243TIP3    H1 6693   2.391   1.149   1.926 -0.2319 -0.0598 -0.1065
 2243TIP3    H2 6694   2.425   1.275   2.002 -0.2744  0.1912 -0.5002
 2244TIP3   OH2 6695   3.240   5.996   1.435 -0.1957  0.3555  0.5468
 2244TIP3    H1 6696   3.169   6.046   1.394  0.3097 -0.3168 -1.2596
 2244TIP3    H2 6697   3.271   6.052   1.506  0.3818  2.7067 -1.4230
 2245TIP3   OH2 6698   1.408   6.170   0.187  0.2702  0.4895  0.4774
 2245TIP3    H1 6699   1.396   6.233   0.115  2.3116  1.1740  0.6701
 2245TIP3    H2 6700   1.491   6.126   0.166 -0.1197 -0.7264  1.3983
 2246TIP3   OH2 6701   6.132   4.434   1.683  0.0528 -0.1853  0.4899
 2246TIP3    H1 6702   6.037   4.435   1.674  0.0821  0.5649  0.1710
 2246TIP3    H2 6703   6.163   4.480   1.605  0.6979 -0.8318  0.3582
 2247TIP3   OH2 6704   4.648   5.913   2.339  0.2774  0.3870 -0.0905
 2247TIP3    H1 6705   4.707   5.884   2.409 -1.8445  1.6687  2.3948
 2247TIP3    H2 6706   4.621   5.831   2.297  0.6541 -0.5626  1.4118
 2248TIP3   OH2 6707   6.082   5.271   3.395  0.4785 -0.8943  0.5447
 2248TIP3    H1 6708   6.046   5.288   3.308 -1.4832 -2.5769  0.9498
 2248TIP3    H2 6709   6.176   5.258   3.380  0.0260 -2.2591 -1.5344
 2249TIP3   OH2 6710   5.184   2.280   5.138 -0.2842  0.4160  0.6798
 2249TIP3    H1 6711   5.222   2.357   5.096  2.6943 -1.0501  0.4122
 2249TIP3    H2 6712   5.151   2.312   5.222  1.5653  1.8983  0.9160
 2250TIP3   OH2 6713   0.714   1.734   4.469 -0.4361 -0.4809 -0.2090
 2250TIP3    H1 6714   0.676   1.803   4.522  1.8002  0.7926 -0.1137
 2250TIP3    H2 6715   0.653   1.723   4.396 -1.2496  1.0386  0.2078
 2251TIP3   OH2 6716   6.347   3.412   0.536 -0.1079  0.4026 -0.4974
 2251TIP3    H1 6717   6.419   3.467   0.568 -1.2519  0.4091  2.3778
 2251TIP3    H2 6718   6.387   3.355   0.470  2.0370  1.7929 -0.4885
 2252TIP3   OH2 6719   0.258   5.165   1.899 -0.7118  0.1838  0.1354
 2252TIP3    H1 6720   0.168   5.172   1.929 -0.1845 -1.3725  2.3318
 2252TIP3    H2 6721   0.278   5.071   1.904  0.8783  0.4404 -0.7410
 2253TIP3   OH2 6722   3.982   5.735   4.112 -0.1650  0.2676 -0.3579
 2253TIP3    H1 6723   4.065   5.715   4.068 -0.8492 -0.9483 -1.1246
 2253TIP3    H2 6724   4.009   5.781   4.192  1.2171  0.4222 -0.8803
 2254TIP3   OH2 6725   5.890   2.549   4.452  0.4548  0.2045 -0.0655
 2254TIP3    H1 6726   5.979   2.541   4.486  1.1838  1.3282 -1.6028
 2254TIP3    H2 6727   5.892   2.507   4.366 -0.3477  0.7282 -0.3574
 2255TIP3   OH2 6728   4.572   2.450   1.797 -0.1407  0.1357  0.0601
 2255TIP3    H1 6729   4.667   2.453   1.782  0.0040  0.1280  0.9432
 2255TIP3    H2 6730   4.534   2.457   1.709  0.6885 -1.0871 -0.4207
 2256TIP3   OH2 6731   1.861   6.787   2.484  0.4043 -0.4271 -0.1571
 2256TIP3    H1 6732   1.789   6.795   2.422  0.8189  0.5281 -0.5353
 2256TIP3    H2 6733   1.823   6.741   2.559 -0.8121  0.7757 -0.0071
 2257TIP3   OH2 6734   0.034   3.915   1.231  0.0014  0.8684 -0.2552
 2257TIP3    H1 6735   0.128   3.930   1.242 -0.1319  0.5910  1.6095
 2257TIP3    H2 6736  -0.002   4.003   1.220  0.2934  1.1655  0.9667
 2258TIP3   OH2 6737   3.577   3.290   3.060 -0.0425 -0.1624 -0.1866
 2258TIP3    H1 6738   3.606   3.293   2.969  0.9079 -2.0038  0.0175
 2258TIP3    H2 6739   3.569   3.197   3.080 -0.8859  0.2174  1.4253
 2259TIP3   OH2 6740   0.666   4.197   0.083 -0.0978  0.0865  0.2174
 2259TIP3    H1 6741   0.629   4.279   0.116 -1.2915 -0.5105  0.4005
 2259TIP3    H2 6742   0.696   4.151   0.162  0.0465  0.0993  0.1695
 2260TIP3   OH2 6743   1.210   0.948   1.479  0.3126  0.1998  0.0485
 2260TIP3    H1 6744   1.263   1.020   1.444  1.4235 -0.8088 -0.4063
 2260TIP3    H2 6745   1.274   0.887   1.517 -0.6261 -0.4150  0.6815
 2261TIP3   OH2 6746   5.485   4.777   2.916 -0.5733 -0.6015  0.2209
 2261TIP3    H1 6747   5.549   4.745   2.980  0.9614  0.7029 -0.6097
 2261TIP3    H2 6748   5.458   4.862   2.950  1.0126  0.5679 -1.2972
 2262TIP3   OH2 6749   2.392   3.935   1.672  0.4532  0.4940  0.2447
 2262TIP3    H1 6750   2.466   3.959   1.729  0.9246  0.9316 -0.5260
 2262TIP3    H2 6751   2.315   3.964   1.720  0.8073  0.4893  0.8421
 2263TIP3   OH2 6752   5.905   4.181   4.152 -0.4619 -0.0220 -0.0889
 2263TIP3    H1 6753   5.850   4.119   4.103 -1.3928  1.7755 -1.4412
 2263TIP3    H2 6754   5.843   4.235   4.201  0.3419 -0.2183  1.1961
 2264TIP3   OH2 6755   5.919   4.691   4.859 -0.1302  0.5269  0.6610
 2264TIP3    H1 6756   5.854   4.761   4.871 -2.0791 -1.1272  0.4109
 2264TIP3    H2 6757   5.915   4.640   4.939  0.7699  0.3163  0.5774
 2265TIP3   OH2 6758   5.611   4.700   5.006 -0.1209  0.0899  0.1667
 2265TIP3    H1 6759   5.649   4.786   4.989  1.3493 -0.4508  0.5223
 2265TIP3    H2 6760   5.556   4.713   5.084 -1.1820  1.0228 -0.7145
 2266TIP3   OH2 6761   0.325   0.249   3.718 -0.0916  0.8254 -0.8747
 2266TIP3    H1 6762   0.340   0.191   3.644  0.0658  1.8098 -1.6427
 2266TIP3    H2 6763   0.412   0.270   3.751 -0.0174  2.0232 -1.7433
 2267TIP3   OH2 6764   0.010   4.587   1.019  0.3396  0.0278 -0.4258
 2267TIP3    H1 6765   0.084   4.593   1.079  0.6725 -2.4334 -0.4586
 2267TIP3    H2 6766  -0.067   4.597   1.075  0.6625 -1.5947  0.3825
 2268TIP3   OH2 6767   1.684   5.565   2.036 -0.1167  1.2201 -0.0050
 2268TIP3    H1 6768   1.678   5.549   2.131  1.3242 -0.1213 -0.0879
 2268TIP3    H2 6769   1.624   5.637   2.020 -0.3337  1.5417  1.9550
 2269TIP3   OH2 6770   1.821   3.011   0.157 -0.0308 -0.0975  0.5999
 2269TIP3    H1 6771   1.886   2.947   0.185 -1.2999 -0.5800  2.7131
 2269TIP3    H2 6772   1.796   2.983   0.069  2.9192  0.4174 -0.4868
 2270TIP3   OH2 6773   7.165   3.338   0.034 -0.0099  0.0042 -0.2325
 2270TIP3    H1 6774   7.133   3.317   0.122  0.0787  2.0854  0.3520
 2270TIP3    H2 6775   7.235   3.402   0.048  0.0773  0.2974 -1.8011
 2271TIP3   OH2 6776   5.816   5.656   4.325 -0.7253 -0.2662 -0.7693
 2271TIP3    H1 6777   5.759   5.712   4.377  0.2281  1.1085 -1.1545
 2271TIP3    H2 6778   5.822   5.574   4.375  0.8605  1.2935  1.7788
 2272TIP3   OH2 6779   3.168   6.535   4.895 -0.3066  0.4420 -0.7322
 2272TIP3    H1 6780   3.148   6.620   4.934 -1.2467  0.2861 -0.8487
 2272TIP3    H2 6781   3.083   6.493   4.885  0.0530 -0.0851 -1.6631
 2273TIP3   OH2 6782   4.442   5.179   0.053 -0.6371 -0.3122 -0.0053
 2273TIP3    H1 6783   4.494   5.177  -0.027 -0.1612  2.3164  0.1664
 2273TIP3    H2 6784   4.352   5.164   0.024 -0.1610 -2.1903 -0.6346
 2274TIP3   OH2 6785   3.018   4.931   4.239 -0.2890 -0.0808 -0.2051
 2274TIP3    H1 6786   3.051   4.862   4.182 -0.9545 -0.4755 -0.1176
 2274TIP3    H2 6787   2.969   4.885   4.307  2.4941  0.1851  2.1354
 2275TIP3   OH2 6788   6.503   4.181   1.072 -0.1624  0.2760 -0.1415
 2275TIP3    H1 6789   6.505   4.266   1.027  1.5881 -0.4023 -1.4945
 2275TIP3    H2 6790   6.549   4.197   1.154  2.4220  0.1823 -1.4638
 2276TIP3   OH2 6791   0.103   0.047   2.839  0.0962 -0.6762 -0.3148
 2276TIP3    H1 6792   0.093   0.130   2.886 -0.3145 -0.8243 -0.1304
 2276TIP3    H2 6793   0.079  -0.020   2.904  0.2595 -0.9277 -0.5128
 2277TIP3   OH2 6794   6.605   2.202   5.247  0.2980  0.5005 -0.0216
 2277TIP3    H1 6795   6.643   2.290   5.248  0.1965  0.5827 -1.7377
 2277TIP3    H2 6796   6.514   2.216   5.221 -0.3037  0.0517  1.6677
 2278TIP3   OH2 6797   0.834   1.619   2.808 -0.4549  0.4399  0.4967
 2278TIP3    H1 6798   0.817   1.688   2.744 -1.1609 -1.1008 -1.0452
 2278TIP3    H2 6799   0.914   1.577   2.777 -2.1302 -1.9247 -0.9218
 2279TIP3   OH2 6800   5.940   1.805   1.020 -0.1469 -0.5368 -0.1476
 2279TIP3    H1 6801   5.932   1.898   1.001 -1.1121 -0.6085 -0.1037
 2279TIP3    H2 6802   5.917   1.797   1.113 -1.0294 -0.9465 -0.3986
 2280TIP3   OH2 6803   5.759   4.530   2.075 -0.1352  0.4818  0.3637
 2280TIP3    H1 6804   5.732   4.544   1.984  1.8248 -1.7216 -0.6686
 2280TIP3    H2 6805   5.729   4.441   2.095  2.0682 -0.2437  0.7461
 2281TIP3   OH2 6806   1.330   6.058   1.162 -0.4548  0.3466  0.3468
 2281TIP3    H1 6807   1.313   6.017   1.246 -0.1307 -0.5523 -0.0191
 2281TIP3    H2 6808   1.306   5.992   1.097  0.4588  0.5756 -0.2459
 2282TIP3   OH2 6809   1.907   3.879   3.302  0.2919  0.0832 -0.5635
 2282TIP3    H1 6810   1.915   3.849   3.392 -0.7529 -1.4932 -0.9645
 2282TIP3    H2 6811   1.979   3.836   3.256  0.4311  0.3698 -0.6154
 2283TIP3   OH2 6812   2.114   5.896   1.542  0.0006 -0.4502  0.2358
 2283TIP3    H1 6813   2.086   5.935   1.460 -0.0354 -0.5933  0.1800
 2283TIP3    H2 6814   2.109   5.968   1.606  1.3071  0.0112 -0.1514
 2284TIP3   OH2 6815   2.781   1.269   3.440 -0.2329 -0.0882 -0.4383
 2284TIP3    H1 6816   2.709   1.234   3.388 -0.4078 -0.2113 -0.1204
 2284TIP3    H2 6817   2.786   1.362   3.416 -0.9257  0.0760  0.0091
 2285TIP3   OH2 6818   6.795   4.149   3.041  0.3276  0.2616  0.1363
 2285TIP3    H1 6819   6.792   4.071   2.985 -1.4680 -0.0144  0.5694
 2285TIP3    H2 6820   6.888   4.159   3.062  0.6013 -1.8350  0.1631
 2286TIP3   OH2 6821   2.395   0.616   4.515 -0.6641 -0.4709 -0.1505
 2286TIP3    H1 6822   2.338   0.572   4.578 -0.3014 -2.4611 -1.1184
 2286TIP3    H2 6823   2.475   0.562   4.513  0.1699  0.7338 -0.7767
 2287TIP3   OH2 6824   2.261   2.244   5.171  0.0661  0.1977 -0.3040
 2287TIP3    H1 6825   2.302   2.195   5.100  1.2498  0.8600 -0.1091
 2287TIP3    H2 6826   2.329   2.249   5.239 -0.2411  1.5272 -0.0593
 2288TIP3   OH2 6827   0.033   6.164   5.147 -0.0763 -0.3541  0.5362
 2288TIP3    H1 6828   0.108   6.179   5.204 -1.0610  0.2699  1.7024
 2288TIP3    H2 6829   0.006   6.074   5.166  1.3505 -1.2142 -1.1245
 2289TIP3   OH2 6830   1.481   3.636   3.423  0.6088  0.3910 -0.0113
 2289TIP3    H1 6831   1.471   3.634   3.328  1.4482  0.2250 -0.1014
 2289TIP3    H2 6832   1.569   3.602   3.439  0.3955  0.2070  0.8405
 2290TIP3   OH2 6833   0.848   2.435   0.922 -0.1786  0.2027 -0.3949
 2290TIP3    H1 6834   0.889   2.493   0.858  0.8946  0.0727  0.1618
 2290TIP3    H2 6835   0.786   2.382   0.870  0.9880 -0.2032 -1.4144
 2291TIP3   OH2 6836   2.927   1.940   5.389  0.5146 -0.6421 -0.2331
 2291TIP3    H1 6837   2.897   1.859   5.346 -2.6972 -0.4545  1.4042
 2291TIP3    H2 6838   2.868   2.007   5.356 -0.1639  0.0360  2.2122
 2292TIP3   OH2 6839   3.262   5.289   1.588 -0.0612  0.4386  0.1545
 2292TIP3    H1 6840   3.304   5.222   1.535  0.4575 -0.4056  1.5743
 2292TIP3    H2 6841   3.197   5.328   1.530  2.1237  1.2893 -1.8775
 2293TIP3   OH2 6842   4.380   5.420   3.834  0.0195 -0.8616  0.3660
 2293TIP3    H1 6843   4.411   5.343   3.787 -0.4582 -0.7780 -0.0993
 2293TIP3    H2 6844   4.301   5.390   3.880 -0.3792 -0.5627 -0.1164
 2294TIP3   OH2 6845   3.641   6.428   3.834 -0.5514 -0.0314  0.6839
 2294TIP3    H1 6846   3.649   6.489   3.760 -0.5822 -1.3529 -0.4394
 2294TIP3    H2 6847   3.549   6.431   3.857 -0.6713 -0.0850  0.2325
 2295TIP3   OH2 6848   6.026   3.066   4.060  0.1642 -0.4823  0.5303
 2295TIP3    H1 6849   6.029   3.122   4.137  0.0085 -2.3901  2.0102
 2295TIP3    H2 6850   5.964   2.996   4.083 -0.2924 -0.8408 -1.5338
 2296TIP3   OH2 6851   5.655   4.575   1.265 -0.1874 -0.1479  0.4730
 2296TIP3    H1 6852   5.608   4.519   1.204  0.9850 -1.1071  0.4186
 2296TIP3    H2 6853   5.617   4.662   1.252 -0.5202 -0.4934 -1.0362
 2297TIP3   OH2 6854   2.237   0.116   1.860  0.0950 -0.5042  0.3868
 2297TIP3    H1 6855   2.313   0.153   1.905  0.9839 -0.5181 -1.0423
 2297TIP3    H2 6856   2.166   0.176   1.880  0.7315  0.1085  0.8801
 2298TIP3   OH2 6857   1.921   4.126   0.262 -0.3372 -0.1024  0.3999
 2298TIP3    H1 6858   1.962   4.042   0.246  0.0891 -0.0822  1.3090
 2298TIP3    H2 6859   1.941   4.178   0.185 -0.2738 -0.7038  0.0056
 2299TIP3   OH2 6860   2.987   1.447   4.102  0.4572 -0.5117 -0.5180
 2299TIP3    H1 6861   2.972   1.397   4.022  1.4974 -1.4514 -0.1740
 2299TIP3    H2 6862   3.072   1.414   4.134 -0.2072 -0.6131  1.2707
 2300TIP3   OH2 6863   5.958   5.959   2.677 -0.5105  0.4719  0.0269
 2300TIP3    H1 6864   5.904   6.037   2.665  0.4853  1.2914  0.6950
 2300TIP3    H2 6865   5.967   5.949   2.772  1.7378  1.2650 -0.0486
 2301TIP3   OH2 6866   2.543   2.595   0.229  0.1899  0.0655  0.6076
 2301TIP3    H1 6867   2.556   2.581   0.135 -3.0229 -0.1999  0.0948
 2301TIP3    H2 6868   2.613   2.655   0.254  1.0074  0.3370 -1.9960
 2302TIP3   OH2 6869   3.211   6.120   4.858 -0.1444 -0.1494  0.0663
 2302TIP3    H1 6870   3.280   6.057   4.839  1.6594  1.2727  1.5348
 2302TIP3    H2 6871   3.257   6.198   4.891 -2.3638  1.3725 -0.1717
 2303TIP3   OH2 6872   1.743   3.098   4.405 -0.2279 -0.1223 -0.1088
 2303TIP3    H1 6873   1.805   3.170   4.414 -2.1916  1.4805  1.6668
 2303TIP3    H2 6874   1.767   3.055   4.323  1.1849  2.3920 -1.1218
 2304TIP3   OH2 6875   1.814   2.179   2.594  0.3175 -0.1065  0.1713
 2304TIP3    H1 6876   1.757   2.205   2.666 -1.0340 -0.8457 -0.5955
 2304TIP3    H2 6877   1.769   2.105   2.552 -0.2874  1.8537 -3.0038
 2305TIP3   OH2 6878   4.733   1.346   1.373 -0.0111 -0.1488 -0.4308
 2305TIP3    H1 6879   4.703   1.257   1.355 -0.6107 -0.0334 -0.0390
 2305TIP3    H2 6880   4.663   1.402   1.339  0.8063  0.2137 -1.5648
 2306TIP3   OH2 6881   2.479   5.137   4.690 -0.5603 -0.2046  0.2019
 2306TIP3    H1 6882   2.480   5.154   4.596 -0.6755  0.1110  0.2575
 2306TIP3    H2 6883   2.542   5.200   4.726 -1.2008  0.3062  0.4393
 2307TIP3   OH2 6884   3.679   4.837   4.787  0.0226  0.2291 -0.4559
 2307TIP3    H1 6885   3.713   4.896   4.720  1.3627 -2.4992 -2.3727
 2307TIP3    H2 6886   3.592   4.873   4.808  0.2616  2.1617 -2.3745
 2308TIP3   OH2 6887   4.417   6.594   0.178  0.3847  0.0316 -0.1068
 2308TIP3    H1 6888   4.467   6.625   0.103  0.5060 -0.5478 -0.2711
 2308TIP3    H2 6889   4.330   6.573   0.143  0.5985 -0.7331 -0.1963
 2309TIP3   OH2 6890   0.457   4.231   2.921 -0.4503 -0.4375 -0.4177
 2309TIP3    H1 6891   0.425   4.141   2.925  1.0935 -1.0526 -1.1181
 2309TIP3    H2 6892   0.455   4.260   3.012 -0.5267 -1.3379 -0.1172
 2310TIP3   OH2 6893   6.416   1.628   1.210 -0.0792 -0.0414  0.0160
 2310TIP3    H1 6894   6.428   1.590   1.123  1.5917 -1.1148  0.6555
 2310TIP3    H2 6895   6.502   1.617   1.252 -0.9790  0.0338  1.9588
 2311TIP3   OH2 6896   4.383   4.450   1.906  0.8026  0.2965  0.3174
 2311TIP3    H1 6897   4.376   4.374   1.964 -0.1415 -0.7737 -1.1370
 2311TIP3    H2 6898   4.473   4.447   1.873  1.3297  0.8789  1.6160
 2312TIP3   OH2 6899   5.793   3.515   5.518 -0.2375 -0.2727 -0.2247
 2312TIP3    H1 6900   5.852   3.461   5.466  1.9109  1.8563 -0.1948
 2312TIP3    H2 6901   5.706   3.479   5.503  0.9872 -3.2493 -0.6901
 2313TIP3   OH2 6902   3.565   5.645   1.348 -0.0106  0.7300 -0.7427
 2313TIP3    H1 6903   3.648   5.631   1.392 -0.8488  1.0660  1.0370
 2313TIP3    H2 6904   3.546   5.562   1.304  0.7954  0.3387 -0.3555
 2314TIP3   OH2 6905   4.619   5.208   2.284  0.2259 -0.0617  0.4356
 2314TIP3    H1 6906   4.705   5.209   2.327  0.3424  0.7241  0.1885
 2314TIP3    H2 6907   4.562   5.253   2.346  0.1585  0.0998  0.2555
 2315TIP3   OH2 6908   2.148   5.840   0.456 -0.1186 -0.2201  0.3282
 2315TIP3    H1 6909   2.084   5.800   0.515  0.8588 -0.0609  1.5148
 2315TIP3    H2 6910   2.126   5.933   0.457  1.4911  0.2330  2.5938
 2316TIP3   OH2 6911   5.595   0.302   2.836 -0.1091  0.3035 -0.6779
 2316TIP3    H1 6912   5.598   0.220   2.787 -1.0091 -0.0338 -0.1956
 2316TIP3    H2 6913   5.505   0.333   2.827 -0.2197  0.3903  0.4652
 2317TIP3   OH2 6914   0.044   3.686   4.767  0.0694  0.7916  0.0164
 2317TIP3    H1 6915  -0.032   3.629   4.753 -1.0275  2.6589 -2.3612
 2317TIP3    H2 6916   0.057   3.687   4.862 -2.5497 -0.0146  0.4544
 2318TIP3   OH2 6917   1.710   0.131   2.561  0.3663 -0.0171  0.0195
 2318TIP3    H1 6918   1.633   0.082   2.591 -0.4128  2.0489  1.6775
 2318TIP3    H2 6919   1.782   0.069   2.567 -0.9698 -1.7381 -0.6435
 2319TIP3   OH2 6920   3.562   2.738   0.736  0.1249 -0.0286  0.3080
 2319TIP3    H1 6921   3.625   2.673   0.706  1.2019  1.3359 -0.5206
 2319TIP3    H2 6922   3.613   2.797   0.791  0.5230  3.0284 -2.9847
 2320TIP3   OH2 6923   6.790   2.139   0.852  0.2353  0.0537 -0.5638
 2320TIP3    H1 6924   6.795   2.148   0.947 -0.4156  4.8024 -0.7647
 2320TIP3    H2 6925   6.844   2.210   0.818 -1.9155  0.3994 -3.6900
 2321TIP3   OH2 6926   1.679   4.873   1.893 -0.2645  0.0872 -0.4258
 2321TIP3    H1 6927   1.684   4.885   1.988 -0.0254 -0.9304 -0.3026
 2321TIP3    H2 6928   1.762   4.831   1.870  0.2934  1.5932 -1.2936
 2322TIP3   OH2 6929   3.300   4.884   0.268 -0.0427 -0.4410  0.8234
 2322TIP3    H1 6930   3.231   4.819   0.256  1.0689 -1.5912  0.5808
 2322TIP3    H2 6931   3.369   4.860   0.207  0.8033  0.4029  1.3966
 2323TIP3   OH2 6932   4.035   6.568   2.834 -0.1670 -0.2718  0.0881
 2323TIP3    H1 6933   4.100   6.618   2.884  0.5786  1.3405 -2.2989
 2323TIP3    H2 6934   3.956   6.572   2.888  1.0419 -0.2230  1.9614
 2324TIP3   OH2 6935   4.646   1.441   0.793  0.3480  0.3316 -0.2833
 2324TIP3    H1 6936   4.633   1.346   0.790  1.0259  0.2544 -1.3472
 2324TIP3    H2 6937   4.696   1.456   0.873 -2.8780  0.2434  1.9444
 2325TIP3   OH2 6938   2.654   1.374   3.895  0.3460 -0.5400  0.2250
 2325TIP3    H1 6939   2.726   1.331   3.849 -0.5711  0.2962 -2.1450
 2325TIP3    H2 6940   2.633   1.316   3.967  2.7284 -1.2842  0.3811
 2326TIP3   OH2 6941   1.269   5.896   0.963  0.0336 -0.2381 -0.0894
 2326TIP3    H1 6942   1.277   5.827   0.897 -1.1934 -1.2568  0.7960
 2326TIP3    H2 6943   1.205   5.863   1.026  0.0297  1.3633  0.8078
 2327TIP3   OH2 6944   0.549   4.288   2.563 -0.4082  0.3936  0.3149
 2327TIP3    H1 6945   0.474   4.231   2.548 -0.3520  0.2737  0.4794
 2327TIP3    H2 6946   0.604   4.239   2.625 -0.1801  0.4667  0.1708
 2328TIP3   OH2 6947   0.901   5.272   3.471 -0.7332 -0.0390  0.0533
 2328TIP3    H1 6948   0.933   5.359   3.494  0.3367 -0.2410 -0.5904
 2328TIP3    H2 6949   0.824   5.259   3.526 -0.8569  1.2747  0.2145
 2329TIP3   OH2 6950   5.916   4.478   0.122 -0.0335  0.2440  0.6788
 2329TIP3    H1 6951   5.846   4.543   0.112 -0.2751 -0.1069 -0.0300
 2329TIP3    H2 6952   5.936   4.478   0.215  2.4414  3.9207  0.3766
 2330TIP3   OH2 6953   2.618   6.236   4.975 -0.0195  0.0879  0.2786
 2330TIP3    H1 6954   2.531   6.199   4.988 -0.2769  0.9774  1.1916
 2330TIP3    H2 6955   2.606   6.303   4.908 -0.2270  0.8350  1.0526
 2331TIP3   OH2 6956   0.143   1.096   1.657  0.0368  0.3587  0.8380
 2331TIP3    H1 6957   0.167   1.178   1.613  0.1732 -0.4748 -0.7052
 2331TIP3    H2 6958   0.079   1.055   1.599 -1.8705  0.4481  2.7373
 2332TIP3   OH2 6959   1.095   4.708   3.198  0.2087  1.0024 -0.0703
 2332TIP3    H1 6960   1.145   4.627   3.205 -0.9654  0.3662  1.3504
 2332TIP3    H2 6961   1.110   4.753   3.281 -2.1224  0.4373  0.7199
 2333TIP3   OH2 6962   5.901   0.201   3.802 -0.3850 -0.0744 -0.2589
 2333TIP3    H1 6963   5.856   0.186   3.719 -0.7188 -0.7306  0.0374
 2333TIP3    H2 6964   5.834   0.188   3.869 -0.0154  0.0285  0.1371
 2334TIP3   OH2 6965   3.918   5.123   2.262 -0.1074  0.0474 -0.0433
 2334TIP3    H1 6966   3.966   5.185   2.208  2.4810 -1.5408  0.2956
 2334TIP3    H2 6967   3.961   5.127   2.347 -0.9725 -1.0075  0.4659
 2335TIP3   OH2 6968   0.222   5.432   2.239  0.1790  0.0636  0.2280
 2335TIP3    H1 6969   0.306   5.427   2.285  0.0925  0.5562  0.4437
 2335TIP3    H2 6970   0.232   5.506   2.179 -0.0151 -0.0297  0.0791
 2336TIP3   OH2 6971   0.465   5.875   2.091  0.6492 -0.0480 -0.4284
 2336TIP3    H1 6972   0.469   5.965   2.124 -0.3139  0.1480 -0.8401
 2336TIP3    H2 6973   0.528   5.828   2.146  1.3599  0.9185 -0.3756
 2337TIP3   OH2 6974   4.950   4.808   0.952  0.0237  0.4374  0.2507
 2337TIP3    H1 6975   4.957   4.904   0.953 -1.5578  0.6653 -2.4964
 2337TIP3    H2 6976   4.992   4.782   0.870  1.5435 -1.3996  1.5326
 2338TIP3   OH2 6977   6.996   4.811   3.480  0.3766 -0.0550  0.2204
 2338TIP3    H1 6978   7.043   4.729   3.468 -0.0589 -0.1556 -0.9094
 2338TIP3    H2 6979   7.035   4.871   3.417  1.3271  0.9151  1.6713
 2339TIP3   OH2 6980   0.203   1.002   4.181  0.4165  0.2219 -0.3850
 2339TIP3    H1 6981   0.285   0.953   4.189  0.1709 -0.3399 -1.1794
 2339TIP3    H2 6982   0.144   0.942   4.136 -0.3759  0.6948  0.0113
 2340TIP3   OH2 6983   6.438   4.090   5.619  0.6204  0.4685  0.5638
 2340TIP3    H1 6984   6.438   4.085   5.715  0.7331 -0.1862  0.5350
 2340TIP3    H2 6985   6.443   4.183   5.600  1.8488  0.5572  1.2029
 2341TIP3   OH2 6986   4.102   2.259   0.682 -0.3292 -0.7174  0.2273
 2341TIP3    H1 6987   4.188   2.282   0.719 -0.4077 -2.0627  1.3168
 2341TIP3    H2 6988   4.040   2.313   0.729 -0.1527 -0.1938 -0.1269
 2342TIP3   OH2 6989   1.485   1.880   4.520 -0.3283  0.0685 -0.0809
 2342TIP3    H1 6990   1.428   1.812   4.483 -0.8326  0.1583  0.5021
 2342TIP3    H2 6991   1.432   1.960   4.515 -1.0582 -0.1970  2.2572
 2343TIP3   OH2 6992   3.745   0.945   0.455  0.0975  0.0651 -0.4987
 2343TIP3    H1 6993   3.769   0.982   0.370  0.9057  4.3921  1.3515
 2343TIP3    H2 6994   3.823   0.898   0.484  1.1014  1.5463 -0.7270
 2344TIP3   OH2 6995   1.995   1.929   1.652  0.3802 -0.2710 -0.2040
 2344TIP3    H1 6996   2.052   1.997   1.616 -0.1668  1.7297  2.4267
 2344TIP3    H2 6997   2.012   1.930   1.746 -2.4465 -1.0696  0.4194
 2345TIP3   OH2 6998   1.935   0.016   4.563  0.2367 -0.1926  0.9540
 2345TIP3    H1 6999   1.884  -0.044   4.617 -2.4197  2.1998  1.3598
 2345TIP3    H2 7000   1.869   0.067   4.515  2.4003 -0.3244 -2.5333
 2346TIP3   OH2 7001   6.171   3.475   3.437  0.1809 -0.3270 -0.5674
 2346TIP3    H1 7002   6.078   3.462   3.456 -0.1286  1.9192 -0.3058
 2346TIP3    H2 7003   6.200   3.392   3.400 -1.4704 -1.7175  1.0742
 2347TIP3   OH2 7004   4.550   4.011   3.688 -0.3897  0.4063 -0.3650
 2347TIP3    H1 7005   4.622   4.043   3.634 -0.9165 -0.5307 -1.6702
 2347TIP3    H2 7006   4.590   3.949   3.748  0.0396  0.6114 -0.4383
 2348TIP3   OH2 7007   0.730   3.003   0.010  0.1524 -0.1426 -0.5578
 2348TIP3    H1 7008   0.688   2.943  -0.051  1.2707 -0.2262 -1.2760
 2348TIP3    H2 7009   0.658   3.045   0.056 -0.6871 -0.7970 -1.2512
 2349TIP3   OH2 7010   0.999   2.540   2.772 -0.5103 -0.3348  0.2098
 2349TIP3    H1 7011   0.989   2.594   2.693 -1.3799 -1.9079 -0.8053
 2349TIP3    H2 7012   1.022   2.453   2.739  0.5251 -0.6919  1.7841
 2350TIP3   OH2 7013   2.355   2.030   5.424 -0.0020  0.0404 -0.1415
 2350TIP3    H1 7014   2.277   1.976   5.439  0.0567  0.3766  1.7066
 2350TIP3    H2 7015   2.409   2.014   5.502  0.8232  1.3993 -0.4166
 2351TIP3   OH2 7016   5.007   1.802   5.033 -0.5243  0.1766  0.1973
 2351TIP3    H1 7017   4.953   1.725   5.051 -1.1202  0.5427  0.0172
 2351TIP3    H2 7018   5.009   1.850   5.117 -0.6588  0.2674  0.1499
 2352TIP3   OH2 7019   0.723   2.543   5.634  0.6534  0.4082 -0.6186
 2352TIP3    H1 7020   0.816   2.560   5.649  0.1817  1.1995  1.8475
 2352TIP3    H2 7021   0.683   2.544   5.721 -1.3767 -2.0399 -1.3777
 2353TIP3   OH2 7022   3.924   1.441   0.922 -0.6317 -0.5632 -0.4028
 2353TIP3    H1 7023   3.847   1.458   0.976 -1.0750  1.3552 -1.5291
 2353TIP3    H2 7024   3.889   1.431   0.834  0.2145 -2.2159 -0.5852
 2354TIP3   OH2 7025   6.927   5.467   2.594 -0.2966 -0.2335  0.0711
 2354TIP3    H1 7026   6.968   5.494   2.675  0.0192  0.1785 -0.2203
 2354TIP3    H2 7027   6.836   5.447   2.618 -0.4671  0.8226  0.3494
 2355TIP3   OH2 7028   2.421   2.157   2.956  0.0876 -0.2801 -0.1779
 2355TIP3    H1 7029   2.402   2.216   2.883  0.1681  1.7315  1.3400
 2355TIP3    H2 7030   2.516   2.156   2.962  0.0657  0.6825  0.7042
 2356TIP3   OH2 7031   4.796   1.458   0.023 -0.4436 -0.4439  0.3313
 2356TIP3    H1 7032   4.887   1.427   0.020 -0.5270 -0.6063 -1.8779
 2356TIP3    H2 7033   4.746   1.390  -0.021 -1.0449  1.3801 -2.0024
 2357TIP3   OH2 7034   3.580   6.789   2.645  0.1531  0.0524  0.5039
 2357TIP3    H1 7035   3.673   6.797   2.626 -0.0009  2.0763  0.4150
 2357TIP3    H2 7036   3.539   6.775   2.559  0.0851  2.8241 -0.0227
 2358TIP3   OH2 7037   5.597   2.772   4.274 -0.6951  0.1099 -0.7429
 2358TIP3    H1 7038   5.521   2.830   4.284 -0.5895  0.5100 -2.0740
 2358TIP3    H2 7039   5.567   2.687   4.307 -1.4607  0.4470 -0.5414
 2359TIP3   OH2 7040   6.932   1.494   1.435  0.1245  0.0745  0.2822
 2359TIP3    H1 7041   6.925   1.402   1.461 -1.3440 -0.2930 -1.2401
 2359TIP3    H2 7042   6.905   1.543   1.512  1.7506 -0.6948  1.4075
 2360TIP3   OH2 7043   6.263   4.994   4.687 -0.6422 -0.1536  0.8442
 2360TIP3    H1 7044   6.302   5.036   4.764  0.5499  0.5909 -0.1441
 2360TIP3    H2 7045   6.255   5.064   4.623 -3.4624 -0.3213  0.9038
 2361TIP3   OH2 7046   0.180   1.982   3.240 -0.7822  0.3522  0.7971
 2361TIP3    H1 7047   0.185   2.077   3.237  1.7269  0.3613  2.3385
 2361TIP3    H2 7048   0.264   1.954   3.276 -1.8319 -2.4149  1.4129
 2362TIP3   OH2 7049   3.296   4.421   2.468  0.0238 -0.1054  0.2527
 2362TIP3    H1 7050   3.289   4.439   2.375 -1.0240  0.3963  0.4194
 2362TIP3    H2 7051   3.386   4.446   2.490 -0.0074  0.6606 -0.4359
 2363TIP3   OH2 7052   2.765   2.165   1.446  0.2500 -0.1659  0.5079
 2363TIP3    H1 7053   2.842   2.219   1.460  0.0285  0.2746  0.0505
 2363TIP3    H2 7054   2.700   2.200   1.507  0.5624 -0.8638  1.2589
 2364TIP3   OH2 7055   4.632   2.705   5.123  0.2975 -0.2228 -0.0334
 2364TIP3    H1 7056   4.562   2.753   5.078 -0.7037 -0.7305  0.9382
 2364TIP3    H2 7057   4.662   2.766   5.191  0.4142 -0.2113 -0.0962
 2365TIP3   OH2 7058   3.597   0.384   3.449  0.0405  0.0180  0.4678
 2365TIP3    H1 7059   3.628   0.468   3.484 -0.0490  0.4288 -0.4118
 2365TIP3    H2 7060   3.583   0.401   3.356  0.1174 -1.0043  0.2597
 2366TIP3   OH2 7061   4.392   6.743   1.585 -0.5162 -0.2147 -0.4230
 2366TIP3    H1 7062   4.350   6.760   1.500  1.4055  0.1016 -1.3748
 2366TIP3    H2 7063   4.423   6.653   1.578 -0.0661 -0.0771 -0.1850
 2367TIP3   OH2 7064   7.030   2.757   1.397  0.4259 -0.0973 -0.4638
 2367TIP3    H1 7065   6.966   2.789   1.334  1.3991 -0.3273 -1.6003
 2367TIP3    H2 7066   7.037   2.664   1.380  0.4742 -0.2271  0.2089
 2368TIP3   OH2 7067   5.335   6.138   1.043  0.2897 -0.0795 -0.4426
 2368TIP3    H1 7068   5.411   6.194   1.026  0.9930 -1.3635 -1.7916
 2368TIP3    H2 7069   5.353   6.101   1.129  1.3062 -0.4969 -0.8134
 2369TIP3   OH2 7070   5.687   0.412   5.823 -0.1669  0.1926 -0.2531
 2369TIP3    H1 7071   5.625   0.392   5.753  1.2239  1.7210 -2.0233
 2369TIP3    H2 7072   5.679   0.507   5.835  1.2429  0.2931  0.0321
 2370TIP3   OH2 7073   6.508   3.279   5.751  0.0831  0.5805  0.2244
 2370TIP3    H1 7074   6.482   3.315   5.836  0.1970  0.9181  0.1174
 2370TIP3    H2 7075   6.583   3.332   5.725  0.1156  0.4059 -0.0378
 2371TIP3   OH2 7076   3.669   1.569   2.858  0.0742 -0.0256  0.2533
 2371TIP3    H1 7077   3.733   1.593   2.791  0.0764 -0.0581  0.2435
 2371TIP3    H2 7078   3.585   1.568   2.811 -0.0016  0.4675  0.3656
 2372TIP3   OH2 7079   4.512   2.476   0.597  0.1173  0.3229  0.7015
 2372TIP3    H1 7080   4.602   2.508   0.610  0.7621 -1.1507  0.1625
 2372TIP3    H2 7081   4.521   2.408   0.530 -1.4123  0.1378  0.6550
 2373TIP3   OH2 7082   2.443   1.668   5.351  0.4619  0.0639  0.1282
 2373TIP3    H1 7083   2.460   1.626   5.267 -4.4715 -2.7675  0.1527
 2373TIP3    H2 7084   2.393   1.746   5.330  1.0826  0.5293  0.3736
 2374TIP3   OH2 7085   1.935   1.080   3.580 -0.0053 -0.1548  0.0262
 2374TIP3    H1 7086   1.857   1.114   3.536 -1.3084 -2.3652  0.5171
 2374TIP3    H2 7087   1.919   1.094   3.673  1.0823  1.1035  0.0603
 2375TIP3   OH2 7088   6.910   3.245   4.206  0.0655  0.1120 -0.0780
 2375TIP3    H1 7089   6.848   3.295   4.153 -0.4371 -1.2194 -0.7950
 2375TIP3    H2 7090   6.900   3.155   4.176  1.7170 -0.2799  0.4171
 2376TIP3   OH2 7091   6.304   6.493   3.264 -0.6038 -0.2274 -0.1447
 2376TIP3    H1 7092   6.371   6.424   3.257  1.0619  0.9833  2.2949
 2376TIP3    H2 7093   6.225   6.447   3.293  0.3196 -1.2100  0.9257
 2377TIP3   OH2 7094   2.140   4.461   3.305  0.6260  0.0676 -0.2961
 2377TIP3    H1 7095   2.178   4.522   3.368 -0.8478  0.0947  0.5935
 2377TIP3    H2 7096   2.047   4.461   3.324  0.2303 -0.4053 -2.0800
 2378TIP3   OH2 7097   6.991   0.919   2.111  0.3186 -0.0007  0.2443
 2378TIP3    H1 7098   6.954   0.858   2.175  0.9105 -0.4780  0.1385
 2378TIP3    H2 7099   6.924   0.925   2.042  0.4120 -0.8399  0.0663
 2379TIP3   OH2 7100   0.231   3.543   3.513  0.8726  0.2882  0.3397
 2379TIP3    H1 7101   0.272   3.555   3.598  0.8815 -2.8491  0.9268
 2379TIP3    H2 7102   0.287   3.479   3.469  0.5531  1.4254 -1.8286
 2380TIP3   OH2 7103   0.760   2.827   5.425  0.4189 -0.5769 -0.4241
 2380TIP3    H1 7104   0.835   2.769   5.418  0.5295 -0.7118  1.3831
 2380TIP3    H2 7105   0.719   2.803   5.508 -1.2449 -0.0553 -1.0600
 2381TIP3   OH2 7106   2.752   4.193   3.266  0.0723 -0.7914  0.1024
 2381TIP3    H1 7107   2.745   4.270   3.209 -1.1394 -1.2209 -0.3662
 2381TIP3    H2 7108   2.714   4.122   3.215  2.4662 -2.0767 -0.0654
 2382TIP3   OH2 7109   2.978   2.840   4.450  0.1878  0.0600  0.0170
 2382TIP3    H1 7110   3.046   2.904   4.427  0.3613 -0.0858  0.1170
 2382TIP3    H2 7111   2.959   2.794   4.368  0.8198 -0.4733  0.1558
 2383TIP3   OH2 7112   7.184   5.155   3.754  0.0058 -0.2126  0.0309
 2383TIP3    H1 7113   7.218   5.128   3.669  0.0956 -0.9766  0.3018
 2383TIP3    H2 7114   7.154   5.074   3.795 -0.5378  0.2170  0.5068
 2384TIP3   OH2 7115   3.161   3.342   3.505  0.2231  0.4617 -0.0508
 2384TIP3    H1 7116   3.217   3.274   3.467  1.3636  1.7368 -0.7621
 2384TIP3    H2 7117   3.128   3.304   3.587  0.4707 -1.0822 -0.6408
 2385TIP3   OH2 7118   0.334   4.004   5.464  0.2464 -0.2685 -0.3396
 2385TIP3    H1 7119   0.314   3.915   5.493  1.0442  0.0907  1.4888
 2385TIP3    H2 7120   0.297   4.060   5.533 -2.3280  1.0355 -2.5664
 2386TIP3   OH2 7121   3.517   0.976   1.233 -0.1920 -0.4000  0.4748
 2386TIP3    H1 7122   3.587   0.914   1.256 -0.5966 -0.6695  0.9992
 2386TIP3    H2 7123   3.549   1.020   1.154  0.5381 -0.5729  0.6650
 2387TIP3   OH2 7124   4.765   5.865   3.018 -0.0450  0.6795 -0.3625
 2387TIP3    H1 7125   4.710   5.943   3.023  2.2279  2.3389  0.3664
 2387TIP3    H2 7126   4.815   5.865   3.100  2.6833  0.5995 -1.8909
 2388TIP3   OH2 7127   4.589   3.629   2.983  0.0405  0.1052  0.9682
 2388TIP3    H1 7128   4.672   3.644   3.027 -0.3807 -1.4280  2.3894
 2388TIP3    H2 7129   4.597   3.540   2.948 -0.0840  0.8522 -1.1121
 2389TIP3   OH2 7130   0.966   0.541   1.482 -0.4667 -0.5106  0.3415
 2389TIP3    H1 7131   0.902   0.486   1.527 -0.3459 -0.6976  0.2895
 2389TIP3    H2 7132   0.986   0.493   1.401 -1.4052  0.2867 -0.3859
 2390TIP3   OH2 7133   7.006   0.267   2.996 -0.4445  0.2558  0.2961
 2390TIP3    H1 7134   6.942   0.233   2.933  0.6270 -1.3809  0.0300
 2390TIP3    H2 7135   6.954   0.291   3.072 -1.3396 -1.6141  0.3271
 2391TIP3   OH2 7136   6.079   4.333   2.907  0.6088 -0.1287 -0.2070
 2391TIP3    H1 7137   5.986   4.353   2.896  0.4751  1.2227  2.6340
 2391TIP3    H2 7138   6.087   4.306   2.998  2.9464 -0.8253 -0.5632
 2392TIP3   OH2 7139   0.754   1.401   2.244 -0.3845 -0.3939 -0.8729
 2392TIP3    H1 7140   0.792   1.314   2.258  1.2293  0.5705  1.3186
 2392TIP3    H2 7141   0.674   1.401   2.298 -0.3402 -0.4900 -0.8066
 2393TIP3   OH2 7142   1.253   0.066   4.582 -0.3267  0.1254  0.2873
 2393TIP3    H1 7143   1.288   0.154   4.594 -4.0038  1.6707  0.8868
 2393TIP3    H2 7144   1.176   0.063   4.638 -0.0104 -3.7760  0.8018
 2394TIP3   OH2 7145   3.617   4.381   5.766 -0.9969 -0.6775  0.1809
 2394TIP3    H1 7146   3.545   4.383   5.829 -1.4546  0.0319 -0.3431
 2394TIP3    H2 7147   3.623   4.471   5.734 -0.3954 -0.9033 -0.3660
 2395TIP3   OH2 7148   7.131   1.425   3.424 -0.3861 -0.9173  0.1299
 2395TIP3    H1 7149   7.194   1.482   3.467  0.6584 -1.0871 -1.0953
 2395TIP3    H2 7150   7.147   1.339   3.461  1.2468 -1.2737 -1.2689
 2396TIP3   OH2 7151   4.809   4.916   0.309  0.0578 -0.4584  0.3443
 2396TIP3    H1 7152   4.851   4.988   0.357  1.4216 -1.1234  0.1965
 2396TIP3    H2 7153   4.749   4.960   0.249 -1.1635  0.4269  2.1212
 2397TIP3   OH2 7154   3.291   6.808   1.228  0.0736 -0.3502 -0.2297
 2397TIP3    H1 7155   3.328   6.844   1.309 -2.0476 -0.3537  0.8155
 2397TIP3    H2 7156   3.231   6.740   1.258 -2.1409  0.8923 -1.6609
 2398TIP3   OH2 7157   2.172   2.205   5.560  0.0331  0.0086 -0.1241
 2398TIP3    H1 7158   2.210   2.273   5.617  1.6910 -0.8947 -0.0767
 2398TIP3    H2 7159   2.247   2.170   5.512 -0.6507 -2.3048  0.3877
 2399TIP3   OH2 7160   1.909   5.511   5.274 -0.2049 -0.2545 -0.4080
 2399TIP3    H1 7161   1.872   5.428   5.304  2.0510 -0.9681  0.6574
 2399TIP3    H2 7162   1.878   5.576   5.337  0.9145 -0.9680  0.9165
 2400TIP3   OH2 7163   7.139   1.905   1.167  0.1871 -0.2135  0.0315
 2400TIP3    H1 7164   7.155   1.973   1.232 -0.3575  0.5162 -0.5757
 2400TIP3    H2 7165   7.226   1.874   1.142  0.3876 -0.7531  1.3512
 2401TIP3   OH2 7166   3.464   0.717   0.974 -0.2968  0.8102  0.2666
 2401TIP3    H1 7167   3.534   0.738   1.036  0.1689 -0.7319  0.3145
 2401TIP3    H2 7168   3.468   0.786   0.908  0.4712  1.4086  0.9208
 2402TIP3   OH2 7169   6.632   4.578   5.097  0.1690  0.1386  0.2247
 2402TIP3    H1 7170   6.591   4.605   5.015  0.8488 -0.3965 -0.2984
 2402TIP3    H2 7171   6.561   4.583   5.162 -0.6398 -0.4136 -0.5863
 2403TIP3   OH2 7172   2.939   1.996   0.962  0.5059  0.6867  0.4974
 2403TIP3    H1 7173   2.883   1.936   1.011 -1.6607  2.0829 -0.0886
 2403TIP3    H2 7174   2.967   2.061   1.027  0.4750  0.6220  0.5755
 2404TIP3   OH2 7175   2.263   1.566   5.567  0.1926 -0.2165 -0.0705
 2404TIP3    H1 7176   2.270   1.621   5.490  1.7108  0.3348  0.4291
 2404TIP3    H2 7177   2.306   1.616   5.637 -0.4142 -1.0515  0.9431
 2405TIP3   OH2 7178   3.218   4.240   1.845  0.3210  0.9337 -0.3275
 2405TIP3    H1 7179   3.222   4.336   1.842  0.8231  0.9108 -0.4993
 2405TIP3    H2 7180   3.127   4.219   1.828  0.1664  1.3933 -0.0723
 2406TIP3   OH2 7181   0.533   1.195   1.850  0.7843  0.1783  0.1359
 2406TIP3    H1 7182   0.559   1.283   1.821  0.4122  0.5916  1.0086
 2406TIP3    H2 7183   0.451   1.209   1.897  0.7562 -0.6305  0.3379
 2407TIP3   OH2 7184   6.434   3.667   1.739  0.1047 -0.1233  0.8203
 2407TIP3    H1 7185   6.470   3.646   1.825  2.1249 -2.4176 -0.4828
 2407TIP3    H2 7186   6.346   3.628   1.739 -0.6082  1.3336  2.3291
 2408TIP3   OH2 7187   5.742   2.749   1.344 -1.0787  0.6083 -0.2751
 2408TIP3    H1 7188   5.791   2.795   1.412 -1.2980 -1.8999  1.7380
 2408TIP3    H2 7189   5.653   2.743   1.379 -1.6684  0.9198 -1.6847
 2409TIP3   OH2 7190   3.836   6.083   0.288 -0.6229  0.3689 -0.1345
 2409TIP3    H1 7191   3.756   6.051   0.328 -0.7016  1.5248  0.7013
 2409TIP3    H2 7192   3.870   6.009   0.237 -1.8449 -0.3422  0.0556
 2410TIP3   OH2 7193   5.960   5.786   3.835  0.4315 -0.0268  0.5603
 2410TIP3    H1 7194   5.917   5.871   3.845  0.4218 -0.0045  0.3348
 2410TIP3    H2 7195   6.013   5.777   3.914  0.7557  0.3755  0.3977
 2411TIP3   OH2 7196   2.386   6.720   0.608 -0.3594  0.1165  0.2392
 2411TIP3    H1 7197   2.376   6.808   0.570  0.0158  0.5773  1.1670
 2411TIP3    H2 7198   2.330   6.665   0.555 -0.9937  1.0179 -0.0597
 2412TIP3   OH2 7199   4.605   1.384   4.824 -0.8646 -0.1218 -0.7478
 2412TIP3    H1 7200   4.588   1.448   4.755 -2.4244  0.7815  0.4392
 2412TIP3    H2 7201   4.525   1.380   4.875  1.3292  2.1882  3.4384
 2413TIP3   OH2 7202   6.978   2.882   2.269 -0.2173 -0.2991  0.0106
 2413TIP3    H1 7203   6.950   2.796   2.302  0.9803 -0.4355  0.7257
 2413TIP3    H2 7204   7.037   2.916   2.337  0.8922  0.2007 -1.1506
 2414TIP3   OH2 7205   3.667   0.913   3.797  0.2473  0.0202 -0.1608
 2414TIP3    H1 7206   3.739   0.935   3.855 -1.4599  1.6501  1.4351
 2414TIP3    H2 7207   3.661   0.987   3.736  0.9837 -0.9201 -1.4237
 2415TIP3   OH2 7208   3.668   2.766   2.503  0.0581  0.3678 -0.0737
 2415TIP3    H1 7209   3.708   2.789   2.587  0.2857 -1.1257  0.2511
 2415TIP3    H2 7210   3.638   2.676   2.514 -1.8404  0.8518 -0.8943
 2416TIP3   OH2 7211   2.313   0.703   1.122  0.0239 -0.1219 -0.3758
 2416TIP3    H1 7212   2.295   0.698   1.216  1.3672 -3.2629 -0.1815
 2416TIP3    H2 7213   2.408   0.700   1.115 -0.0857 -1.1937 -1.8640
 2417TIP3   OH2 7214   5.712   0.197   1.458 -0.1387 -0.2630 -0.4967
 2417TIP3    H1 7215   5.733   0.110   1.491  1.2157  0.5079  0.8174
 2417TIP3    H2 7216   5.618   0.207   1.474 -0.4560 -1.7213 -1.3192
 2418TIP3   OH2 7217   4.490   5.651   5.651 -0.8071  0.6110 -0.1794
 2418TIP3    H1 7218   4.420   5.586   5.648 -1.1107  0.9732 -1.0812
 2418TIP3    H2 7219   4.526   5.642   5.740 -0.9002 -0.7123 -0.2467
 2419TIP3   OH2 7220   1.503   4.105   1.386 -0.6918  0.2717 -0.6284
 2419TIP3    H1 7221   1.524   4.114   1.479 -2.2208 -0.5979 -0.1664
 2419TIP3    H2 7222   1.487   4.011   1.374  0.4790  0.2212 -2.0086
 2420TIP3   OH2 7223   3.460   5.383   3.020 -0.1556 -0.3223 -0.4930
 2420TIP3    H1 7224   3.466   5.478   3.006 -0.5733  0.0403  1.5124
 2420TIP3    H2 7225   3.381   5.357   2.973 -0.7514  0.5646 -0.0253
 2421TIP3   OH2 7226   2.842   3.728   1.015  0.0403  0.4177  0.5420
 2421TIP3    H1 7227   2.851   3.649   0.963  1.0540  0.5124  0.5408
 2421TIP3    H2 7228   2.929   3.769   1.012 -0.5145  1.6310  0.3823
 2422TIP3   OH2 7229   0.796   2.724   4.924  0.4035  0.2370 -0.9583
 2422TIP3    H1 7230   0.708   2.758   4.941  0.4259 -0.8992  1.8868
 2422TIP3    H2 7231   0.782   2.633   4.897  0.7191 -0.2508  0.4752
 2423TIP3   OH2 7232   1.743   3.803   4.486 -0.4926  0.2154 -0.2004
 2423TIP3    H1 7233   1.661   3.789   4.439  1.2363 -1.1672 -3.0923
 2423TIP3    H2 7234   1.741   3.896   4.510 -2.8074  0.2489 -0.2941
 2424TIP3   OH2 7235   5.539   0.393   1.630  0.1966  0.0597  0.2501
 2424TIP3    H1 7236   5.576   0.472   1.589 -0.6598  1.1815  1.5269
 2424TIP3    H2 7237   5.460   0.376   1.580 -1.4811  2.1212  2.0098
 2425TIP3   OH2 7238   6.970   6.090   3.651  0.5266 -0.5860  0.2815
 2425TIP3    H1 7239   6.937   6.142   3.577 -3.0436  0.0241  2.0995
 2425TIP3    H2 7240   7.016   6.154   3.706 -0.1638 -0.2099  0.4347
 2426TIP3   OH2 7241   1.918   3.639   0.501 -0.2657  0.4723  0.3356
 2426TIP3    H1 7242   1.899   3.732   0.502  0.7076  0.6795  1.2418
 2426TIP3    H2 7243   1.838   3.598   0.468 -2.3922  1.2476  3.9726
 2427TIP3   OH2 7244   6.000   2.394   4.217  0.2354 -0.1680 -0.2316
 2427TIP3    H1 7245   6.025   2.485   4.196  0.0562 -0.0984 -0.1454
 2427TIP3    H2 7246   5.907   2.389   4.193 -0.2396  0.1776  1.3954
 2428TIP3   OH2 7247   6.114   6.399   2.089  0.2152 -0.1407 -0.2862
 2428TIP3    H1 7248   6.076   6.337   2.151 -1.1047  0.2722 -0.6497
 2428TIP3    H2 7249   6.062   6.478   2.099  1.9702  0.9788  0.2697
 2429TIP3   OH2 7250   2.114   6.604   4.183 -0.3432 -0.2557 -0.0226
 2429TIP3    H1 7251   2.134   6.667   4.253  2.1938 -0.2206 -0.6923
 2429TIP3    H2 7252   2.073   6.656   4.114 -0.0403  0.3007  0.2129
 2430TIP3   OH2 7253   0.664   2.413   2.689  0.0890  0.1071  0.1051
 2430TIP3    H1 7254   0.694   2.486   2.636  0.2490 -1.0631 -1.4718
 2430TIP3    H2 7255   0.703   2.335   2.649  1.2765 -0.7562  2.6741
 2431TIP3   OH2 7256   6.860   4.710   1.429 -0.1074 -0.4315  0.1496
 2431TIP3    H1 7257   6.855   4.682   1.521  0.7711 -0.2231  0.2740
 2431TIP3    H2 7258   6.770   4.732   1.406 -0.3363 -0.4515  0.9779
 2432TIP3   OH2 7259   6.127   4.018   5.658  0.1388  0.3742 -0.6388
 2432TIP3    H1 7260   6.095   3.932   5.630 -0.1196  0.4860 -0.6964
 2432TIP3    H2 7261   6.213   4.002   5.695  0.0730  0.0847 -0.6151
 2433TIP3   OH2 7262   4.096   3.976   4.853  0.7617  0.3049  0.7503
 2433TIP3    H1 7263   4.150   3.901   4.828  1.3063  0.6285  0.9392
 2433TIP3    H2 7264   4.063   4.011   4.770 -0.5507 -0.8967  0.7222
 2434TIP3   OH2 7265   6.195   4.968   2.074  0.1149  0.0732 -0.3021
 2434TIP3    H1 7266   6.119   5.025   2.061 -0.0090  0.1194  0.5672
 2434TIP3    H2 7267   6.162   4.880   2.057 -0.4966 -0.0521  1.3854
 2435TIP3   OH2 7268   0.317   0.891   1.762 -0.6439 -0.4886 -0.0075
 2435TIP3    H1 7269   0.320   0.826   1.692  1.4473  0.2195 -0.6338
 2435TIP3    H2 7270   0.241   0.945   1.741  1.1463  1.1106 -3.1384
 2436TIP3   OH2 7271   0.156   6.106   4.253 -0.4256 -0.2185  0.0671
 2436TIP3    H1 7272   0.239   6.150   4.234  1.4095 -3.1213  0.8218
 2436TIP3    H2 7273   0.105   6.116   4.172  1.9855 -1.1209 -1.6763
 2437TIP3   OH2 7274   4.019   1.221   1.325  0.3598  0.1827 -0.2347
 2437TIP3    H1 7275   4.069   1.267   1.257  0.8652  0.1548  0.1136
 2437TIP3    H2 7276   4.080   1.156   1.360  0.0046 -0.0042  0.0431
 2438TIP3   OH2 7277   0.213   6.400   2.963 -0.1204 -0.7112 -0.3632
 2438TIP3    H1 7278   0.221   6.355   2.879 -1.6189  0.9085 -1.4254
 2438TIP3    H2 7279   0.283   6.465   2.961  1.4160 -2.2252  0.7587
 2439TIP3   OH2 7280   4.102   3.601   0.872 -0.0821  0.0290 -0.2313
 2439TIP3    H1 7281   4.084   3.577   0.781 -1.7401 -0.6851  0.2389
 2439TIP3    H2 7282   4.037   3.553   0.922  0.1666  1.1773  1.2593
 2440TIP3   OH2 7283   5.718   1.467   5.061  0.1422 -0.3503 -0.0291
 2440TIP3    H1 7284   5.676   1.381   5.069  0.3136 -0.3313  1.3352
 2440TIP3    H2 7285   5.650   1.524   5.025  0.3485 -1.2709 -2.0000
 2441TIP3   OH2 7286   1.334   6.814   1.762 -0.0894  0.0978 -0.1998
 2441TIP3    H1 7287   1.318   6.720   1.774 -0.9950  0.4330  1.6311
 2441TIP3    H2 7288   1.326   6.850   1.850  1.5049  1.7321 -0.6708
 2442TIP3   OH2 7289   3.490   3.012   2.823 -0.0115 -0.5730 -0.2688
 2442TIP3    H1 7290   3.467   2.966   2.742 -3.9319 -1.2395  1.0169
 2442TIP3    H2 7291   3.516   2.943   2.884 -2.2778 -0.7892  0.5409
 2443TIP3   OH2 7292   0.618   2.553   1.056  0.4146 -0.4367  0.2873
 2443TIP3    H1 7293   0.643   2.598   1.136  1.4566  1.0969 -0.8322
 2443TIP3    H2 7294   0.700   2.543   1.007 -0.1556 -1.5302 -0.4985
 2444TIP3   OH2 7295   1.850   3.759   1.581  0.3822 -0.1181  0.3150
 2444TIP3    H1 7296   1.926   3.704   1.561 -1.2132 -1.6527 -2.0147
 2444TIP3    H2 7297   1.888   3.844   1.604  2.8268 -0.8836 -0.5187
 2445TIP3   OH2 7298   1.047   6.437   2.470  1.1670  0.3105 -0.4323
 2445TIP3    H1 7299   1.120   6.496   2.485  1.0361  0.4218 -0.2267
 2445TIP3    H2 7300   1.018   6.412   2.558 -0.2710  1.7900 -0.4394
 2446TIP3   OH2 7301   1.477   0.101   1.853 -0.0960  0.3391  0.1229
 2446TIP3    H1 7302   1.457   0.144   1.770  0.3174  1.6411  0.6621
 2446TIP3    H2 7303   1.423   0.022   1.853 -1.7289  1.3973 -0.4644
 2447TIP3   OH2 7304   3.395   2.677   2.801  0.1721  0.2049 -0.0778
 2447TIP3    H1 7305   3.325   2.692   2.738  1.3497  1.0683 -1.2302
 2447TIP3    H2 7306   3.352   2.633   2.874 -1.4837  0.3421 -0.9183
 2448TIP3   OH2 7307   4.573   5.129   5.438 -0.1828 -0.1678 -0.1563
 2448TIP3    H1 7308   4.634   5.183   5.488 -0.2021 -0.2685 -0.0234
 2448TIP3    H2 7309   4.488   5.143   5.479  0.0758 -1.5839  0.9597
 2449TIP3   OH2 7310   1.027   1.573   3.055 -0.1776  0.0275  0.3793
 2449TIP3    H1 7311   0.941   1.615   3.053 -0.8424 -1.2585 -2.0574
 2449TIP3    H2 7312   1.062   1.585   2.967 -0.2684 -4.0385 -0.4229
 2450TIP3   OH2 7313   4.109   1.447   1.554  0.5765  0.1066  0.5436
 2450TIP3    H1 7314   4.042   1.447   1.487  0.8912 -0.8420  0.2116
 2450TIP3    H2 7315   4.189   1.475   1.509  0.5165  0.7439  0.8221
 2451TIP3   OH2 7316   1.861   5.722   0.056 -0.0400 -0.1914  0.1709
 2451TIP3    H1 7317   1.927   5.791   0.058  0.3440 -0.5412 -0.3024
 2451TIP3    H2 7318   1.803   5.743   0.129 -0.0291  0.7324 -0.0728
 2452TIP3   OH2 7319   3.780   6.542   0.375 -0.0089  0.2282  0.1352
 2452TIP3    H1 7320   3.711   6.488   0.414  0.4622  1.0378  2.2202
 2452TIP3    H2 7321   3.847   6.479   0.347 -1.8744 -0.6605 -2.8102
 2453TIP3   OH2 7322   5.383   3.272   4.735 -0.6886 -0.2320  0.2423
 2453TIP3    H1 7323   5.313   3.285   4.799  1.5159 -1.9836  3.2838
 2453TIP3    H2 7324   5.404   3.360   4.703 -2.9197  0.5273  0.7116
 2454TIP3   OH2 7325   1.804   2.354   1.210  0.0658  0.3134  0.6540
 2454TIP3    H1 7326   1.890   2.320   1.187  0.3132  1.4798 -0.2621
 2454TIP3    H2 7327   1.742   2.297   1.165  0.4382  0.5299 -0.1583
 2455TIP3   OH2 7328   1.399   3.110   0.684 -0.2478 -0.4026 -0.1209
 2455TIP3    H1 7329   1.307   3.085   0.695 -0.3059 -0.1867 -0.1219
 2455TIP3    H2 7330   1.433   3.112   0.773 -0.3566 -0.0491 -0.0872
 2456TIP3   OH2 7331   3.069   3.739   4.058  0.2460  0.1398  0.3665
 2456TIP3    H1 7332   3.120   3.659   4.047  2.4431  1.3860  0.7614
 2456TIP3    H2 7333   2.995   3.729   3.998  0.8946 -1.8299 -0.1819
 2457TIP3   OH2 7334   4.941   6.669   4.012  0.5040  0.1586  0.3530
 2457TIP3    H1 7335   4.961   6.577   4.025 -1.8824 -0.5166 -0.2223
 2457TIP3    H2 7336   4.847   6.676   4.030  0.1405  2.0170 -1.8179
 2458TIP3   OH2 7337   2.993   5.024   0.434 -0.2398  0.4371 -0.5904
 2458TIP3    H1 7338   2.998   5.115   0.406 -0.0315  0.9562  1.0438
 2458TIP3    H2 7339   3.072   5.011   0.487 -0.5793 -0.5046 -0.2961
 2459TIP3   OH2 7340   4.431   2.820   5.362  0.3494  0.3112 -0.1357
 2459TIP3    H1 7341   4.371   2.771   5.419  1.2371 -0.3306  0.2658
 2459TIP3    H2 7342   4.391   2.814   5.276  0.1125 -0.5907  0.0249
 2460TIP3   OH2 7343   3.554   6.007   3.154  0.2855 -0.2352 -0.6020
 2460TIP3    H1 7344   3.560   5.912   3.140 -0.2306 -0.3933  0.1342
 2460TIP3    H2 7345   3.573   6.018   3.247 -2.2765  0.0761 -0.0367
 2461TIP3   OH2 7346   3.451   3.922   2.994 -0.0013  0.1821 -0.0751
 2461TIP3    H1 7347   3.495   3.836   2.999 -0.1134  0.1535  0.6756
 2461TIP3    H2 7348   3.490   3.972   3.066 -1.3141  0.0986  0.7242
 2462TIP3   OH2 7349   4.312   0.302   0.639  0.3802 -0.1505 -0.3615
 2462TIP3    H1 7350   4.294   0.271   0.727  0.6511  0.0347 -0.2385
 2462TIP3    H2 7351   4.230   0.342   0.610  0.0420 -0.9391 -0.5083
 2463TIP3   OH2 7352   2.709   2.227   4.905 -0.2740  0.0574 -0.1581
 2463TIP3    H1 7353   2.691   2.319   4.885  0.5030 -0.1450 -1.9679
 2463TIP3    H2 7354   2.746   2.191   4.824  0.1980 -1.6522  0.7622
 2464TIP3   OH2 7355   4.909   5.619   3.434  0.3708  0.3004 -0.3721
 2464TIP3    H1 7356   4.864   5.682   3.489  0.2732  1.5877 -1.8536
 2464TIP3    H2 7357   4.840   5.560   3.403  0.5726 -1.1021  1.6330
 2465TIP3   OH2 7358   1.428   3.970   3.192 -0.0858 -0.1433  0.2546
 2465TIP3    H1 7359   1.453   4.024   3.116 -1.7557 -0.3409 -0.4849
 2465TIP3    H2 7360   1.392   3.890   3.154 -1.1349 -0.1688  1.2293
 2466TIP3   OH2 7361   1.337   3.591   2.392 -0.6322  0.0172 -0.1620
 2466TIP3    H1 7362   1.361   3.602   2.300 -1.1109 -0.3437 -0.3364
 2466TIP3    H2 7363   1.337   3.680   2.428  0.5675  0.0643 -0.2400
 2467TIP3   OH2 7364   0.347   6.130   1.511 -0.6493 -0.2283  0.3094
 2467TIP3    H1 7365   0.348   6.034   1.518 -0.8268 -0.1204  2.4941
 2467TIP3    H2 7366   0.431   6.158   1.545  0.6812  0.3597 -3.0823
 2468TIP3   OH2 7367   0.289   6.359   1.652 -0.1759  0.6817  0.4359
 2468TIP3    H1 7368   0.280   6.289   1.717  0.2599  0.2856  0.0727
 2468TIP3    H2 7369   0.306   6.313   1.569  1.7608  1.2574  0.4675
 2469TIP3   OH2 7370   5.456   1.233   3.174  0.3611 -0.3253  0.0434
 2469TIP3    H1 7371   5.546   1.264   3.185 -0.1768  0.7995  1.8388
 2469TIP3    H2 7372   5.403   1.300   3.217 -1.2044 -1.8256  0.5599
 2470TIP3   OH2 7373   3.316   2.190   2.656  0.5714 -0.5900 -0.1168
 2470TIP3    H1 7374   3.320   2.260   2.721 -0.3896 -1.4570  0.9276
 2470TIP3    H2 7375   3.401   2.146   2.662  0.3996 -0.8298  0.7865
 2471TIP3   OH2 7376   6.801   3.343   0.867 -0.4048  0.7282 -0.4915
 2471TIP3    H1 7377   6.836   3.386   0.945 -0.1392  1.2420 -0.8865
 2471TIP3    H2 7378   6.876   3.335   0.808 -0.4764 -0.1785 -0.4754
 2472TIP3   OH2 7379   4.881   1.404   2.875  0.5183 -0.3748 -0.3049
 2472TIP3    H1 7380   4.892   1.323   2.826  2.1044 -0.7261  0.5527
 2472TIP3    H2 7381   4.803   1.444   2.839 -0.4393 -2.3999 -0.6064
 2473TIP3   OH2 7382   3.343   2.258   1.355  0.4173  0.1545 -0.4871
 2473TIP3    H1 7383   3.294   2.230   1.433  1.9330  2.2044  1.3450
 2473TIP3    H2 7384   3.392   2.181   1.328  0.2373 -0.4887  0.9235
 2474TIP3   OH2 7385   0.981   3.770   4.683  0.2217 -0.4817 -0.2177
 2474TIP3    H1 7386   1.007   3.790   4.593 -0.1853 -0.6525 -0.3761
 2474TIP3    H2 7387   0.889   3.794   4.687 -0.0643 -1.5459 -0.1781
 2475TIP3   OH2 7388   6.201   1.307   4.101  0.2363 -0.1168  0.2472
 2475TIP3    H1 7389   6.134   1.260   4.151 -0.6448 -1.3595 -1.9617
 2475TIP3    H2 7390   6.156   1.382   4.064  1.0037  1.0724  1.6133
 2476TIP3   OH2 7391   3.232   5.900   2.249 -0.2321 -0.0777 -0.1285
 2476TIP3    H1 7392   3.320   5.869   2.226 -0.3739 -0.5435 -0.0423
 2476TIP3    H2 7393   3.174   5.827   2.227 -0.7521  0.6767 -1.3843
 2477TIP3   OH2 7394   4.708   5.897   4.499 -0.0060  0.0253  0.6284
 2477TIP3    H1 7395   4.766   5.824   4.518 -0.3825 -0.5922 -0.4944
 2477TIP3    H2 7396   4.764   5.962   4.456  0.0193 -0.2814  0.1809
 2478TIP3   OH2 7397   5.676   2.230   1.736  0.0374  0.0287 -0.2848
 2478TIP3    H1 7398   5.608   2.168   1.711 -1.2614  1.3587 -0.2081
 2478TIP3    H2 7399   5.676   2.230   1.831 -0.1465  0.3258 -0.2829
 2479TIP3   OH2 7400   7.139   1.822   2.822  0.2118 -0.6132  0.0125
 2479TIP3    H1 7401   7.049   1.829   2.791  0.9368  3.4475 -1.9330
 2479TIP3    H2 7402   7.139   1.869   2.905  0.6935  0.4832 -0.5888
 2480TIP3   OH2 7403   3.292   4.423   4.061  0.2248  0.0544  0.1348
 2480TIP3    H1 7404   3.211   4.459   4.098 -1.0642  0.5872 -2.9003
 2480TIP3    H2 7405   3.263   4.352   4.004  2.0657 -0.7618  0.1543
 2481TIP3   OH2 7406   1.136   0.983   4.890  0.6500 -0.3308  0.1153
 2481TIP3    H1 7407   1.187   1.064   4.887  1.4436 -0.7888  0.7546
 2481TIP3    H2 7408   1.110   0.975   4.982  0.3212 -0.6494 -0.0026
 2482TIP3   OH2 7409   4.474   2.007   1.973  0.1472 -0.5003 -0.5578
 2482TIP3    H1 7410   4.540   2.070   2.005 -1.0992  0.3065  0.5129
 2482TIP3    H2 7411   4.525   1.942   1.924  1.6039  0.7457 -0.7780
 2483TIP3   OH2 7412   1.726   4.561   0.026  0.4542 -0.4773 -0.1610
 2483TIP3    H1 7413   1.708   4.468   0.035 -0.6258 -0.4383 -1.5438
 2483TIP3    H2 7414   1.696   4.599   0.108  0.9419 -1.3439  0.4322
 2484TIP3   OH2 7415   4.535   5.655   4.411  0.5126 -0.0616  0.7725
 2484TIP3    H1 7416   4.536   5.743   4.449  0.8680 -0.1783  1.0366
 2484TIP3    H2 7417   4.623   5.642   4.377  0.0009  0.3387 -0.8015
 2485TIP3   OH2 7418   4.978   5.984   2.522 -0.1369  0.1901  0.0274
 2485TIP3    H1 7419   4.937   6.069   2.538 -1.2084  0.0193 -1.5981
 2485TIP3    H2 7420   4.987   5.946   2.609  0.8794  2.1740  0.8502
 2486TIP3   OH2 7421   4.294   4.110   3.156 -0.0587 -0.0915  0.1428
 2486TIP3    H1 7422   4.219   4.099   3.214  0.3674  0.1177  0.7397
 2486TIP3    H2 7423   4.366   4.063   3.198 -0.1449 -1.3394 -1.0367
 2487TIP3   OH2 7424   3.541   4.758   2.155  0.4354  0.2826  0.4356
 2487TIP3    H1 7425   3.558   4.664   2.164  1.1862  0.2370 -1.1445
 2487TIP3    H2 7426   3.627   4.798   2.148  0.0883  0.8778 -0.6708
 2488TIP3   OH2 7427   2.074   0.581   1.700 -0.2603 -0.5351 -0.7106
 2488TIP3    H1 7428   2.032   0.637   1.765  1.4489  1.4706 -1.1944
 2488TIP3    H2 7429   2.019   0.589   1.622 -0.3443  0.0266 -0.5974
 2489TIP3   OH2 7430   4.456   0.463   4.945  0.1159 -0.3048 -0.1979
 2489TIP3    H1 7431   4.512   0.540   4.958  1.0820 -1.1980  1.0371
 2489TIP3    H2 7432   4.467   0.442   4.852  2.0864 -0.6440  0.0772
 2490TIP3   OH2 7433   1.094   1.526   0.431  0.3195 -0.1729  0.1429
 2490TIP3    H1 7434   1.083   1.613   0.469  1.1617 -0.2483  0.6022
 2490TIP3    H2 7435   1.012   1.508   0.386 -0.6686 -0.0098  1.8109
 2491TIP3   OH2 7436   5.993   3.036   3.424 -0.1337  0.3570 -0.3114
 2491TIP3    H1 7437   6.003   3.127   3.453 -0.0284 -0.2290  1.6473
 2491TIP3    H2 7438   5.933   2.996   3.487  3.2633 -2.0633  1.7520
 2492TIP3   OH2 7439   5.508   2.461   5.476  0.0145  0.0645  0.6648
 2492TIP3    H1 7440   5.527   2.537   5.530  1.7656  0.2769 -0.1963
 2492TIP3    H2 7441   5.531   2.488   5.387 -2.1593 -0.4985 -0.1502
 2493TIP3   OH2 7442   6.938   3.110   5.811  0.7583  0.1800  0.0740
 2493TIP3    H1 7443   6.954   3.120   5.717  0.2422  0.3087 -0.0025
 2493TIP3    H2 7444   6.900   3.194   5.838 -0.3064 -0.3025  0.1364
 2494TIP3   OH2 7445   1.799   6.733   2.734  0.4032 -0.6783  0.3843
 2494TIP3    H1 7446   1.857   6.755   2.808  2.3724 -1.6809 -0.7677
 2494TIP3    H2 7447   1.770   6.644   2.753 -1.0321 -0.0892  1.0822
 2495TIP3   OH2 7448   3.894   2.409   1.634 -0.4582  0.3500 -0.0282
 2495TIP3    H1 7449   3.821   2.440   1.687 -1.9423  3.4949 -3.4966
 2495TIP3    H2 7450   3.958   2.377   1.697 -4.2784 -1.6371  3.2760
 2496TIP3   OH2 7451   0.004   6.740   1.490  0.0347  0.1835  0.2609
 2496TIP3    H1 7452   0.074   6.714   1.550 -0.6940 -0.8823  0.6657
 2496TIP3    H2 7453  -0.045   6.807   1.538 -1.0027 -1.1989  1.2141
 2497TIP3   OH2 7454   6.518   4.139   3.276  0.1504 -0.4299  0.1038
 2497TIP3    H1 7455   6.464   4.061   3.285  1.1143 -0.9947  1.3296
 2497TIP3    H2 7456   6.575   4.120   3.202 -1.1366  0.0873 -1.0662
 2498TIP3   OH2 7457   3.113   0.120   3.493 -0.0620  0.0050 -0.1003
 2498TIP3    H1 7458   3.085   0.120   3.401  1.6342  1.7161 -0.6692
 2498TIP3    H2 7459   3.164   0.201   3.503  1.2121 -0.9684  1.9127
 2499TIP3   OH2 7460   5.277   5.999   0.785 -0.0682  0.1198 -0.1678
 2499TIP3    H1 7461   5.221   5.937   0.738  1.4513  0.0306 -1.9893
 2499TIP3    H2 7462   5.217   6.051   0.838 -1.7990 -0.3469 -1.5778
 2500TIP3   OH2 7463   0.504   0.098   4.312  0.0693 -0.1408 -0.3133
 2500TIP3    H1 7464   0.424   0.125   4.357 -0.2624 -0.9063 -0.4240
 2500TIP3    H2 7465   0.475   0.030   4.251  0.8656 -0.6852 -0.0962
 2501TIP3   OH2 7466   6.674   0.907   2.895 -0.6063  0.1980  0.1652
 2501TIP3    H1 7467   6.638   0.943   2.975  0.5487 -0.4254  1.0007
 2501TIP3    H2 7468   6.698   0.817   2.918  0.7706  0.3545 -0.5271
 2502TIP3   OH2 7469   2.139   0.689   0.104  0.7697 -0.3180  0.0353
 2502TIP3    H1 7470   2.144   0.669   0.198 -1.1091 -0.2886  0.1871
 2502TIP3    H2 7471   2.181   0.615   0.061 -0.8610 -1.7895  0.8206
 2503TIP3   OH2 7472   3.167   2.401   5.043 -0.6362 -0.4770  0.4097
 2503TIP3    H1 7473   3.110   2.474   5.066  0.8350  0.8557 -0.0004
 2503TIP3    H2 7474   3.148   2.383   4.951  1.1275  1.4877 -0.4077
 2504TIP3   OH2 7475   2.591   2.491   1.852 -0.6028 -0.2724  0.2774
 2504TIP3    H1 7476   2.542   2.548   1.792  0.8422 -1.1957 -1.9066
 2504TIP3    H2 7477   2.672   2.538   1.869  0.0516 -1.0987 -0.5095
 2505TIP3   OH2 7478   3.257   1.073   2.474  0.0130  0.0201  0.0820
 2505TIP3    H1 7479   3.333   1.017   2.492 -0.4617 -0.7508 -0.2681
 2505TIP3    H2 7480   3.236   1.056   2.382 -1.9611 -1.5200  0.7416
 2506TIP3   OH2 7481   1.054   2.827   1.465  0.5855  0.1708  0.4205
 2506TIP3    H1 7482   0.997   2.886   1.417  1.9403  0.7227 -0.5836
 2506TIP3    H2 7483   1.045   2.853   1.557  0.7023  1.5238  0.0588
 2507TIP3   OH2 7484   6.924   6.390   5.061  0.5079  0.2381 -0.3440
 2507TIP3    H1 7485   6.984   6.375   4.988  1.3820  1.1298  0.1520
 2507TIP3    H2 7486   6.971   6.356   5.137  0.0222  0.1931 -0.0627
 2508TIP3   OH2 7487   5.304   0.733   4.352 -0.2698 -0.3228 -0.0274
 2508TIP3    H1 7488   5.299   0.802   4.418  0.8905  1.3420 -1.6080
 2508TIP3    H2 7489   5.352   0.662   4.396 -0.3586  0.3552  1.2165
 2509TIP3   OH2 7490   4.468   4.301   3.922  0.1676  0.6062  0.3000
 2509TIP3    H1 7491   4.412   4.271   3.994 -0.9930  0.4981 -0.6130
 2509TIP3    H2 7492   4.408   4.346   3.863  1.2614  1.5014 -0.1654
 2510TIP3   OH2 7493   2.092   4.648   2.215  0.0082  0.4808  0.3750
 2510TIP3    H1 7494   2.078   4.554   2.224 -0.5521  0.6592  1.5721
 2510TIP3    H2 7495   2.021   4.677   2.159  1.5080 -0.1208 -1.9972
 2511TIP3   OH2 7496   6.855   5.924   1.899 -0.2950  0.4318 -0.5863
 2511TIP3    H1 7497   6.864   5.912   1.805  0.6460 -4.1326 -0.1433
 2511TIP3    H2 7498   6.765   5.896   1.918 -0.2873  0.7554 -0.0583
 2512TIP3   OH2 7499   2.194   2.021   4.158 -0.4992 -0.1470 -0.5144
 2512TIP3    H1 7500   2.259   1.970   4.109 -2.6681 -2.6616 -0.9720
 2512TIP3    H2 7501   2.149   2.073   4.092  0.9779  1.7217 -0.1769
 2513TIP3   OH2 7502   2.191   0.688   0.361 -0.2467  0.4884  0.4896
 2513TIP3    H1 7503   2.280   0.672   0.394 -0.1500  0.5045  0.2386
 2513TIP3    H2 7504   2.134   0.644   0.424 -0.0290 -0.0192  0.3398
 2514TIP3   OH2 7505   4.185   5.756   2.616 -0.2516  0.2688 -0.7308
 2514TIP3    H1 7506   4.173   5.744   2.522 -0.9123 -2.3692 -0.3786
 2514TIP3    H2 7507   4.119   5.700   2.656 -0.6000  2.0427  1.3341
 2515TIP3   OH2 7508   2.734   5.318   2.468 -0.0686  0.1616  0.0955
 2515TIP3    H1 7509   2.727   5.224   2.485  1.2942  0.3288  1.8466
 2515TIP3    H2 7510   2.682   5.359   2.536 -2.1452  0.7057 -1.7087
 2516TIP3   OH2 7511   6.851   4.339   5.388  0.6696  0.1700  0.5531
 2516TIP3    H1 7512   6.772   4.378   5.425  1.7306 -0.0787  3.3070
 2516TIP3    H2 7513   6.863   4.385   5.305 -2.4711  0.0029 -0.1312
 2517TIP3   OH2 7514   2.103   3.469   4.581  0.0181  0.2775  0.2806
 2517TIP3    H1 7515   2.122   3.497   4.491  0.5659 -1.6414 -0.2563
 2517TIP3    H2 7516   2.026   3.520   4.606 -0.4666  0.4990 -1.4923
 2518TIP3   OH2 7517   1.290   6.732   0.941  0.3061  0.7363 -0.5777
 2518TIP3    H1 7518   1.345   6.703   1.014  0.4876  1.6602 -0.3352
 2518TIP3    H2 7519   1.241   6.654   0.915  1.2374  0.0609 -0.3617
 2519TIP3   OH2 7520   1.217   5.994   0.292 -0.2716  0.1361  0.0738
 2519TIP3    H1 7521   1.285   6.060   0.275 -0.3602 -0.0925 -1.2146
 2519TIP3    H2 7522   1.209   5.945   0.211 -1.9457  0.1154  0.2148
 2520TIP3   OH2 7523   0.923   2.567   3.063  0.0865 -0.5289  0.6446
 2520TIP3    H1 7524   0.970   2.553   2.981  0.2962 -0.1848  0.7050
 2520TIP3    H2 7525   0.990   2.596   3.124 -0.4478  1.5384  0.3210
 2521TIP3   OH2 7526   5.339   2.067   2.253  0.4645  0.2934 -0.2162
 2521TIP3    H1 7527   5.390   2.148   2.252  0.2578  0.4279 -1.4031
 2521TIP3    H2 7528   5.299   2.063   2.166 -0.7404 -0.3227  0.3457
 2522TIP3   OH2 7529   3.127   0.836   5.505  0.1710 -0.0792  0.0389
 2522TIP3    H1 7530   3.071   0.795   5.570 -0.7398  1.3595  0.1958
 2522TIP3    H2 7531   3.147   0.923   5.541 -0.4449  0.7929 -1.6129
 2523TIP3   OH2 7532   4.669   3.180   4.365 -0.2864  0.3809 -0.2980
 2523TIP3    H1 7533   4.733   3.128   4.413 -1.4107 -0.4602  0.3143
 2523TIP3    H2 7534   4.587   3.131   4.371 -1.0148  1.4504 -1.0352
 2524TIP3   OH2 7535   4.064   3.681   5.778  0.0293 -1.1186 -0.4825
 2524TIP3    H1 7536   3.990   3.629   5.747 -0.4536 -1.7601  1.5866
 2524TIP3    H2 7537   4.138   3.621   5.775  0.2074 -0.8752 -1.2838
 2525TIP3   OH2 7538   6.216   0.587   4.435 -0.6681 -0.0183 -0.2667
 2525TIP3    H1 7539   6.172   0.504   4.451  0.1848 -0.4793 -0.3101
 2525TIP3    H2 7540   6.218   0.630   4.521  2.8852 -1.9929  0.8369
 2526TIP3   OH2 7541   6.649   6.344   4.168 -0.0282 -0.5778  0.8200
 2526TIP3    H1 7542   6.740   6.319   4.151  0.3772 -0.0686  2.1341
 2526TIP3    H2 7543   6.603   6.324   4.086  1.2979 -0.6503  0.0655
 2527TIP3   OH2 7544   6.332   2.792   2.276  0.5439 -0.0265 -0.2031
 2527TIP3    H1 7545   6.306   2.702   2.258 -0.4416  0.0911  0.5147
 2527TIP3    H2 7546   6.255   2.844   2.250  1.4316  0.6999 -1.4717
 2528TIP3   OH2 7547   1.045   5.880   1.143 -0.2539  0.0776 -0.0264
 2528TIP3    H1 7548   1.079   5.833   1.220  0.9222 -1.4169 -1.3796
 2528TIP3    H2 7549   0.954   5.898   1.164 -0.2931 -1.3800  1.2256
 2529TIP3   OH2 7550   3.281   4.581   1.523  0.3481 -0.0610 -0.7562
 2529TIP3    H1 7551   3.371   4.590   1.492  0.6023 -2.4253 -0.9201
 2529TIP3    H2 7552   3.276   4.638   1.599  1.2689  1.8709 -2.0643
 2530TIP3   OH2 7553   2.696   0.287   1.546 -0.4418  0.2522  1.0693
 2530TIP3    H1 7554   2.602   0.299   1.531 -0.5789 -1.4773  0.3460
 2530TIP3    H2 7555   2.701   0.227   1.620  0.1534  1.4784  2.0679
 2531TIP3   OH2 7556   4.069   5.994   3.898  0.0501  0.2538  0.1076
 2531TIP3    H1 7557   4.060   6.082   3.861  0.5715  1.0234  1.6947
 2531TIP3    H2 7558   4.086   6.009   3.991 -0.2064 -1.5512  0.4853
 2532TIP3   OH2 7559   2.914   1.526   1.977  0.4362  0.7741 -0.0785
 2532TIP3    H1 7560   2.967   1.604   1.990  0.1611  0.8664  0.5409
 2532TIP3    H2 7561   2.977   1.454   1.980  0.3821  0.7115  2.6105
 2533TIP3   OH2 7562   3.133   2.527   2.706  0.2151  0.4933  0.9440
 2533TIP3    H1 7563   3.101   2.446   2.668  0.1303 -0.0696  2.1722
 2533TIP3    H2 7564   3.056   2.565   2.750  0.1047  1.5515 -0.1246
 2534TIP3   OH2 7565   3.373   2.626   4.169 -0.0886  0.1478  0.5047
 2534TIP3    H1 7566   3.457   2.582   4.155  0.9101  2.1451 -0.2452
 2534TIP3    H2 7567   3.396   2.709   4.210 -1.8227  0.2953  1.2692
 2535TIP3   OH2 7568   3.403   6.702   4.167  0.4050  0.1633 -0.1879
 2535TIP3    H1 7569   3.426   6.794   4.179 -0.3970  0.4636 -0.8742
 2535TIP3    H2 7570   3.418   6.684   4.074  0.1227 -0.2678 -0.1576
 2536TIP3   OH2 7571   1.604   3.398   4.653  0.2808  0.4360  0.0854
 2536TIP3    H1 7572   1.628   3.429   4.566 -1.8812  2.9771  0.2545
 2536TIP3    H2 7573   1.672   3.434   4.711  0.7791  0.1964 -0.3449
 2537TIP3   OH2 7574   3.705   1.375   4.623 -0.0532  0.0706 -0.0716
 2537TIP3    H1 7575   3.732   1.465   4.646  0.0522 -0.6477  3.1908
 2537TIP3    H2 7576   3.610   1.375   4.633 -0.1320 -0.0065 -0.8071
 2538TIP3   OH2 7577   7.051   0.163   2.441  0.0865  0.2960  0.1312
 2538TIP3    H1 7578   6.974   0.111   2.464  0.1327  0.5528  0.9116
 2538TIP3    H2 7579   7.124   0.100   2.442 -0.3491 -0.3865 -2.6106
 2539TIP3   OH2 7580   3.751   3.132   1.318 -0.4999  0.3627  0.3882
 2539TIP3    H1 7581   3.825   3.117   1.377  0.2015  0.5286 -0.4439
 2539TIP3    H2 7582   3.776   3.209   1.267 -1.9292  1.4059  1.1826
 2540TIP3   OH2 7583   4.444   6.463   3.841 -0.3144 -0.4896  0.2397
 2540TIP3    H1 7584   4.379   6.480   3.774  0.1539  1.7329  0.2605
 2540TIP3    H2 7585   4.393   6.450   3.921 -0.8025 -1.2499 -0.1872
 2541TIP3   OH2 7586   2.593   2.452   3.394 -0.0091 -0.2812  0.1576
 2541TIP3    H1 7587   2.668   2.417   3.444 -0.0647  0.5002  0.8060
 2541TIP3    H2 7588   2.571   2.533   3.439 -0.9224 -0.2436 -0.3534
 2542TIP3   OH2 7589   1.576   3.832   0.489  0.3811 -0.1410  0.3253
 2542TIP3    H1 7590   1.535   3.788   0.564 -0.0314 -0.9821 -0.3662
 2542TIP3    H2 7591   1.666   3.846   0.515  0.7699 -2.2307  0.2663
 2543TIP3   OH2 7592   6.460   2.087   5.697  0.0721  0.2957  0.0281
 2543TIP3    H1 7593   6.500   2.020   5.752  1.1272 -0.0379 -1.0891
 2543TIP3    H2 7594   6.494   2.070   5.609  0.9979  2.7225 -0.1805
 2544TIP3   OH2 7595   1.668   6.673   4.204  0.3711 -0.9029  0.4997
 2544TIP3    H1 7596   1.573   6.665   4.213  0.0086 -0.2835 -2.0921
 2544TIP3    H2 7597   1.687   6.642   4.115  2.1371  2.0295 -0.2743
 2545TIP3   OH2 7598   4.525   4.762   5.197  0.4401 -0.5535  0.2109
 2545TIP3    H1 7599   4.473   4.691   5.234 -3.4898  1.9028  0.0026
 2545TIP3    H2 7600   4.548   4.817   5.272  2.8446 -1.5598  0.2849
 2546TIP3   OH2 7601   6.770   1.216   3.919 -0.3988 -0.2076 -0.0457
 2546TIP3    H1 7602   6.678   1.203   3.942 -0.6867  0.6531 -0.6523
 2546TIP3    H2 7603   6.768   1.283   3.851  0.5734 -1.2810 -1.1746
 2547TIP3   OH2 7604   4.328   5.511   4.635  0.2486  0.0269  0.3338
 2547TIP3    H1 7605   4.369   5.433   4.596 -0.6128  0.7993 -2.3402
 2547TIP3    H2 7606   4.397   5.577   4.633 -0.2615  0.5450 -1.5786
 2548TIP3   OH2 7607   3.234   3.375   0.614  0.0009 -0.3757 -0.3971
 2548TIP3    H1 7608   3.231   3.310   0.544 -2.2440 -0.1437 -0.6014
 2548TIP3    H2 7609   3.258   3.457   0.571  1.0724 -0.7078 -0.4448
 2549TIP3   OH2 7610   5.716   3.332   0.665  0.4738  0.7218 -0.1806
 2549TIP3    H1 7611   5.715   3.362   0.575  0.6605 -1.1455 -0.8466
 2549TIP3    H2 7612   5.772   3.254   0.664 -0.9159 -0.3486  1.1929
 2550TIP3   OH2 7613   4.626   1.438   3.217  0.4815 -0.3953 -0.2658
 2550TIP3    H1 7614   4.639   1.458   3.310 -1.0054  2.6537 -0.5982
 2550TIP3    H2 7615   4.532   1.423   3.208  0.7964 -2.1628 -1.0929
 2551TIP3   OH2 7616   6.162   3.997   0.882  0.5619 -0.0367 -0.4261
 2551TIP3    H1 7617   6.090   3.968   0.938  1.4827 -1.8872 -0.1050
 2551TIP3    H2 7618   6.204   4.068   0.931 -0.1738  0.0900  0.0345
 2552TIP3   OH2 7619   0.261   6.772   5.574  0.4063 -0.2477  0.5677
 2552TIP3    H1 7620   0.231   6.681   5.578  0.2553 -0.2854 -0.8545
 2552TIP3    H2 7621   0.250   6.797   5.482  2.3429  0.5597  0.4907
 2553TIP3   OH2 7622   6.445   6.750   3.324 -0.1945 -0.0271 -0.1799
 2553TIP3    H1 7623   6.420   6.657   3.321  0.1775 -0.1173 -0.4912
 2553TIP3    H2 7624   6.408   6.781   3.407 -0.7276 -0.3348 -0.2916
 2554TIP3   OH2 7625   4.748   0.493   5.854  0.5309 -0.1652  0.4567
 2554TIP3    H1 7626   4.790   0.518   5.937  0.1741 -0.6205  0.7826
 2554TIP3    H2 7627   4.737   0.398   5.861  0.4183 -0.1934 -0.0803
 2555TIP3   OH2 7628   5.861   4.699   4.541 -0.3852  0.1919 -0.2277
 2555TIP3    H1 7629   5.838   4.765   4.475 -0.3810 -0.1725 -0.5921
 2555TIP3    H2 7630   5.939   4.735   4.584 -0.3490  0.4021 -0.4651
 2556TIP3   OH2 7631   0.993   6.050   3.179 -0.2234  0.0975  0.0648
 2556TIP3    H1 7632   1.075   6.041   3.227 -0.2079 -0.9265 -0.1254
 2556TIP3    H2 7633   0.927   6.012   3.238 -0.3299 -0.4066 -0.3757
 2557TIP3   OH2 7634   4.357   2.695   0.615  0.3443  0.3337  0.0361
 2557TIP3    H1 7635   4.386   2.699   0.706  0.9626 -0.0044 -0.1377
 2557TIP3    H2 7636   4.410   2.625   0.576 -0.5937 -0.1873 -0.3419
 2558TIP3   OH2 7637   5.297   0.873   0.347 -0.1020  0.8270 -0.6873
 2558TIP3    H1 7638   5.332   0.953   0.385  0.9373  0.1258 -0.1320
 2558TIP3    H2 7639   5.351   0.857   0.270 -0.6975  0.9785 -1.1425
 2559TIP3   OH2 7640   0.871   4.113   5.040 -0.4680  0.2891  0.3376
 2559TIP3    H1 7641   0.853   4.203   5.067 -1.3408 -0.2789  1.7490
 2559TIP3    H2 7642   0.943   4.085   5.097  0.1415  0.2325 -0.4375
 2560TIP3   OH2 7643   3.656   4.368   1.564  0.1626 -0.1240  0.5861
 2560TIP3    H1 7644   3.706   4.380   1.484 -2.2469 -1.4154 -1.2200
 2560TIP3    H2 7645   3.670   4.276   1.588  0.5013  0.1331  1.4449
 2561TIP3   OH2 7646   3.524   0.125   3.548 -0.2418 -0.2859 -0.1809
 2561TIP3    H1 7647   3.586   0.067   3.592 -0.7277  0.1598  1.1450
 2561TIP3    H2 7648   3.572   0.207   3.536 -0.3947 -0.1111  0.3699
 2562TIP3   OH2 7649   3.092   4.159   4.089 -0.2736  0.2222 -0.2171
 2562TIP3    H1 7650   3.040   4.228   4.048 -1.5812 -1.8026 -2.2309
 2562TIP3    H2 7651   3.166   4.147   4.030 -0.2238 -0.2973 -0.0518
 2563TIP3   OH2 7652   7.190   2.981   1.486 -0.4409 -0.2973  0.2138
 2563TIP3    H1 7653   7.144   3.041   1.428  1.3244  0.5067 -0.4161
 2563TIP3    H2 7654   7.159   2.894   1.460  0.0874  0.0647 -1.7721
 2564TIP3   OH2 7655   6.945   4.273   2.472  0.2991  0.2363  0.4022
 2564TIP3    H1 7656   6.905   4.352   2.434 -0.4144 -0.9039 -1.3776
 2564TIP3    H2 7657   6.880   4.242   2.535  0.0269  0.4289  0.2232
 2565TIP3   OH2 7658   1.103   4.707   0.806 -0.0427 -0.1445 -0.3912
 2565TIP3    H1 7659   1.114   4.624   0.853  0.6532  0.3838  0.3947
 2565TIP3    H2 7660   1.079   4.681   0.717  3.0836 -1.3073 -1.0149
 2566TIP3   OH2 7661   6.552   2.343   0.498 -0.9164  0.4606 -0.1646
 2566TIP3    H1 7662   6.577   2.260   0.539 -1.8203 -0.1254 -0.7623
 2566TIP3    H2 7663   6.509   2.392   0.568 -0.3797  0.4342  0.1925
 2567TIP3   OH2 7664   1.055   0.262   1.317 -0.1241  0.1742 -0.6220
 2567TIP3    H1 7665   1.013   0.187   1.361 -2.0871  2.2264  1.2958
 2567TIP3    H2 7666   0.990   0.291   1.253  0.9569 -0.1495 -1.9283
 2568TIP3   OH2 7667   4.913   1.728   3.773  0.6825  0.1497 -0.0741
 2568TIP3    H1 7668   4.829   1.740   3.816 -0.0261  0.5636 -1.5207
 2568TIP3    H2 7669   4.897   1.750   3.682  2.3855  0.3157 -0.3706
 2569TIP3   OH2 7670   3.017   5.289   1.713  0.4183  0.2162  0.7502
 2569TIP3    H1 7671   2.984   5.323   1.630  0.6230  0.3095  0.7050
 2569TIP3    H2 7672   3.007   5.194   1.705 -0.2686  0.2671  0.9272
 2570TIP3   OH2 7673   0.150   1.279   4.613  0.7838 -0.6435  0.1356
 2570TIP3    H1 7674   0.154   1.363   4.659 -0.2568 -0.5300  0.0270
 2570TIP3    H2 7675   0.129   1.215   4.682 -1.1103 -0.4281 -0.1893
 2571TIP3   OH2 7676   5.018   1.741   0.475 -0.2697 -0.3290  0.1491
 2571TIP3    H1 7677   4.929   1.753   0.507 -0.5725 -0.6115 -0.5621
 2571TIP3    H2 7678   5.071   1.800   0.528 -0.8730 -0.1965  0.6125
 2572TIP3   OH2 7679   7.062   0.461   2.481  0.0474 -0.2239 -0.7271
 2572TIP3    H1 7680   7.107   0.378   2.467  0.5116 -0.0469 -0.2978
 2572TIP3    H2 7681   7.122   0.527   2.448  0.5489  0.0902  0.7350
 2573TIP3   OH2 7682   4.686   4.915   3.791  0.0283 -0.2642 -0.4871
 2573TIP3    H1 7683   4.701   4.863   3.712 -0.5697 -1.7068  0.3011
 2573TIP3    H2 7684   4.767   4.904   3.842  0.7112  1.2623 -1.1759
 2574TIP3   OH2 7685   2.985   3.214   4.268  0.0750  0.1556  0.4898
 2574TIP3    H1 7686   3.038   3.232   4.345  1.3294  2.3537 -0.7978
 2574TIP3    H2 7687   3.047   3.214   4.195 -1.3613  0.4837 -0.7854
 2575TIP3   OH2 7688   1.619   2.162   4.405  0.1236 -0.5249  0.3327
 2575TIP3    H1 7689   1.545   2.170   4.464  0.9930 -0.1910  1.4144
 2575TIP3    H2 7690   1.665   2.246   4.412 -0.5758  0.1214 -1.9945
 2576TIP3   OH2 7691   2.068   0.970   2.841  0.1261  0.2904  0.2635
 2576TIP3    H1 7692   2.151   0.940   2.804  0.6493  1.6115  0.3090
 2576TIP3    H2 7693   2.088   0.988   2.932 -0.8013 -1.5423  0.8815
 2577TIP3   OH2 7694   3.166   5.405   2.908  0.3467  0.0976  0.2830
 2577TIP3    H1 7695   3.147   5.452   2.827  2.4804  2.0861  0.8428
 2577TIP3    H2 7696   3.113   5.449   2.974 -1.2934 -1.4408  0.0740
 2578TIP3   OH2 7697   5.635   1.697   5.452  0.7298  0.1337 -0.0804
 2578TIP3    H1 7698   5.689   1.621   5.432  0.3368 -0.0712 -0.3764
 2578TIP3    H2 7699   5.618   1.738   5.367 -0.3752 -0.3508 -0.1031
 2579TIP3   OH2 7700   2.298   6.756   2.660  0.0072 -0.1753 -0.0112
 2579TIP3    H1 7701   2.260   6.759   2.572  0.5361 -0.2719 -0.2465
 2579TIP3    H2 7702   2.250   6.686   2.704 -1.4155  0.9620  0.3346
 2580TIP3   OH2 7703   3.506   6.187   0.060 -0.3346 -0.0842 -1.1734
 2580TIP3    H1 7704   3.504   6.212  -0.032 -0.4913 -1.5155 -1.5772
 2580TIP3    H2 7705   3.417   6.202   0.091 -0.8770 -1.6608 -1.8573
 2581TIP3   OH2 7706   3.287   5.026   4.413 -0.4128  0.0852 -0.6538
 2581TIP3    H1 7707   3.344   5.055   4.484  0.7104  0.2741 -1.5933
 2581TIP3    H2 7708   3.257   4.939   4.439 -0.8467  0.5629  0.5062
 2582TIP3   OH2 7709   2.799   4.470   4.385  0.2808 -0.2802  0.0752
 2582TIP3    H1 7710   2.796   4.422   4.302 -1.5736  1.8950 -1.2343
 2582TIP3    H2 7711   2.767   4.408   4.450  2.4920 -2.2987 -0.5904
 2583TIP3   OH2 7712   1.932   4.336   3.007 -0.1391 -0.6781 -0.8092
 2583TIP3    H1 7713   1.980   4.262   3.045 -0.1793 -0.4481 -0.3011
 2583TIP3    H2 7714   1.840   4.311   3.011 -0.1989 -0.3535 -0.0815
 2584TIP3   OH2 7715   4.455   1.887   2.890  0.2401 -0.4543 -0.7768
 2584TIP3    H1 7716   4.502   1.933   2.959  0.2670  0.1242 -1.1727
 2584TIP3    H2 7717   4.525   1.845   2.838  0.2862 -0.0912 -1.0131
 2585TIP3   OH2 7718   2.713   0.715   0.559 -0.1370  0.3396 -0.1787
 2585TIP3    H1 7719   2.657   0.791   0.574 -0.8296 -0.2818  0.5068
 2585TIP3    H2 7720   2.798   0.752   0.536 -0.6939  1.3084 -0.7334
 2586TIP3   OH2 7721   5.156   3.597   3.952  0.2904 -0.0531 -0.4462
 2586TIP3    H1 7722   5.190   3.686   3.959  1.0888 -0.4728  2.0257
 2586TIP3    H2 7723   5.234   3.541   3.961 -0.3384 -1.0168 -0.8434
 2587TIP3   OH2 7724   2.677   2.964   3.418 -0.4851  0.2846  0.0185
 2587TIP3    H1 7725   2.660   2.871   3.437 -0.2966  0.4007  0.7749
 2587TIP3    H2 7726   2.742   2.962   3.348  1.0148 -0.1626  1.3876
 2588TIP3   OH2 7727   4.803   6.786   0.993 -0.0595  0.0726  0.1610
 2588TIP3    H1 7728   4.813   6.780   1.088  0.7483  0.1460  0.0859
 2588TIP3    H2 7729   4.846   6.708   0.959  1.6341  1.1350 -0.2521
 2589TIP3   OH2 7730   3.652   4.055   5.870  0.0604  0.0667  0.2712
 2589TIP3    H1 7731   3.725   4.094   5.821  0.6727 -1.1705  0.1620
 2589TIP3    H2 7732   3.590   4.127   5.882 -0.4598  0.3221 -2.9288
 2590TIP3   OH2 7733   1.935   0.676   1.480  0.0168  0.3472  0.4262
 2590TIP3    H1 7734   1.880   0.750   1.454  0.0959 -0.0443 -0.9800
 2590TIP3    H2 7735   1.900   0.601   1.431  0.6407 -0.3024  0.9399
 2591TIP3   OH2 7736   2.037   3.007   1.780  0.4290 -0.0333 -0.1203
 2591TIP3    H1 7737   2.069   3.061   1.852  0.4154 -1.3294  0.9172
 2591TIP3    H2 7738   2.037   2.918   1.816  1.4533 -0.8772 -2.0952
 2592TIP3   OH2 7739   6.552   1.892   3.185 -0.4802  0.5098 -0.2795
 2592TIP3    H1 7740   6.580   1.832   3.116 -0.2607 -0.7456  0.8597
 2592TIP3    H2 7741   6.526   1.835   3.257 -0.8820  1.7818  0.6173
 2593TIP3   OH2 7742   7.152   0.570   0.913  0.1071 -0.1539 -0.7966
 2593TIP3    H1 7743   7.238   0.531   0.930  0.8040  1.0198 -1.5140
 2593TIP3    H2 7744   7.171   0.661   0.892 -1.2112 -0.1383 -2.0756
 2594TIP3   OH2 7745   0.691   4.330   0.934 -0.5192 -0.0998  0.5656
 2594TIP3    H1 7746   0.613   4.297   0.890  0.8101 -2.8932  0.0789
 2594TIP3    H2 7747   0.761   4.320   0.870  0.7619 -0.4890  1.9685
 2595TIP3   OH2 7748   4.074   1.684   1.183 -0.4915  0.2750  0.5482
 2595TIP3    H1 7749   4.098   1.752   1.245  1.5035 -1.1559  1.4817
 2595TIP3    H2 7750   4.155   1.664   1.137 -0.9996 -1.4701  0.3358
 2596TIP3   OH2 7751   6.711   2.323   3.093  0.0881  0.9696  0.1891
 2596TIP3    H1 7752   6.621   2.291   3.083 -0.3315  1.6251  1.5580
 2596TIP3    H2 7753   6.739   2.343   3.004 -1.1526  0.8108 -0.2653
 2597TIP3   OH2 7754   2.047   2.908   4.361 -0.5729 -0.3915 -0.2775
 2597TIP3    H1 7755   2.113   2.915   4.292  0.1010  3.2248  0.5310
 2597TIP3    H2 7756   1.967   2.943   4.322 -0.7823 -0.4364  0.1076
 2598TIP3   OH2 7757   5.129   0.848   2.051 -0.4240  0.4141 -0.6143
 2598TIP3    H1 7758   5.035   0.848   2.072 -0.9192  0.3659 -2.6058
 2598TIP3    H2 7759   5.171   0.881   2.130 -2.0715 -0.0484  0.5184
 2599TIP3   OH2 7760   2.430   5.864   2.473 -0.5438 -0.2297  0.4355
 2599TIP3    H1 7761   2.479   5.782   2.470  1.3410  0.8618 -2.4114
 2599TIP3    H2 7762   2.488   5.925   2.517  0.0768  0.6624 -1.5204
 2600TIP3   OH2 7763   0.108   4.306   1.850 -0.4546  0.0854  0.7480
 2600TIP3    H1 7764   0.203   4.300   1.860 -0.4916 -1.4895  0.4387
 2600TIP3    H2 7765   0.078   4.215   1.850 -1.9670  0.5497  0.7935
 2601TIP3   OH2 7766   4.443   3.786   5.689 -0.6868  0.1633  0.4325
 2601TIP3    H1 7767   4.432   3.759   5.598  1.2040  1.8057 -0.3601
 2601TIP3    H2 7768   4.371   3.846   5.706 -1.0076 -0.0985 -0.0006
 2602TIP3   OH2 7769   2.745   4.261   5.226  0.3921  0.3059  0.3123
 2602TIP3    H1 7770   2.805   4.272   5.300  0.6965  0.4922  0.0406
 2602TIP3    H2 7771   2.795   4.290   5.150 -0.4778  1.7074  0.2429
 2603TIP3   OH2 7772   3.420   6.243   0.935  0.0293  0.0806 -0.0631
 2603TIP3    H1 7773   3.413   6.228   0.840  0.7080  1.3052 -0.3404
 2603TIP3    H2 7774   3.380   6.329   0.948  2.3396  1.2077  0.2880
 2604TIP3   OH2 7775   4.537  -0.014   0.854 -0.0885 -0.2129  0.2137
 2604TIP3    H1 7776   4.589   0.066   0.860 -1.5378  0.8771 -0.9743
 2604TIP3    H2 7777   4.526  -0.042   0.945  0.4905  0.8962  0.6452
 2605TIP3   OH2 7778   5.734   3.367   0.389  0.7410 -0.0489 -0.0466
 2605TIP3    H1 7779   5.740   3.371   0.294  0.0438  0.7013 -0.0674
 2605TIP3    H2 7780   5.741   3.273   0.410 -2.6771 -0.6595 -1.1130
 2606TIP3   OH2 7781   2.823   5.611   0.203 -0.2921  0.3782  0.3053
 2606TIP3    H1 7782   2.910   5.612   0.163 -0.2059  1.0791  0.4965
 2606TIP3    H2 7783   2.838   5.640   0.293 -0.6979  0.3039  0.3969
 2607TIP3   OH2 7784   4.388   3.759   3.534 -0.6062  0.0752 -0.3072
 2607TIP3    H1 7785   4.368   3.715   3.452  0.3997  0.7784 -0.9646
 2607TIP3    H2 7786   4.423   3.844   3.507  0.3682  0.0617  0.8205
 2608TIP3   OH2 7787   6.916   5.364   4.133 -1.3107 -0.1744  0.4308
 2608TIP3    H1 7788   6.903   5.418   4.211  1.8794 -1.3485  1.9798
 2608TIP3    H2 7789   7.008   5.375   4.111 -0.9276 -3.5199 -0.2470
 2609TIP3   OH2 7790   0.728   3.434   5.791 -0.3958  0.2251  0.0722
 2609TIP3    H1 7791   0.671   3.487   5.846 -0.8704 -0.2222  0.0145
 2609TIP3    H2 7792   0.803   3.491   5.773  0.3006  0.0230  2.0730
 2610TIP3   OH2 7793   3.067   3.017   1.709 -0.1555 -0.2981  0.2516
 2610TIP3    H1 7794   3.031   3.046   1.793  1.3013  0.0054  0.8054
 2610TIP3    H2 7795   3.002   3.043   1.644 -0.5588  0.9640  1.1276
 2611TIP3   OH2 7796   5.862   3.065   1.163  0.9146 -0.0369 -0.2484
 2611TIP3    H1 7797   5.785   3.094   1.212 -0.6605  1.1200 -3.1412
 2611TIP3    H2 7798   5.930   3.130   1.185  0.4781  0.0894  0.8037
 2612TIP3   OH2 7799   1.705   4.635   2.955  0.7698 -0.2929  0.2501
 2612TIP3    H1 7800   1.759   4.619   2.878 -1.2797  2.2816 -1.9166
 2612TIP3    H2 7801   1.702   4.731   2.963 -2.8752 -0.2932  0.5619
 2613TIP3   OH2 7802   3.822   3.216   1.605 -0.4665 -0.0674  0.1572
 2613TIP3    H1 7803   3.904   3.184   1.644  0.6112  0.5502 -1.4737
 2613TIP3    H2 7804   3.755   3.195   1.669  0.7786 -1.8314  0.9646
 2614TIP3   OH2 7805   6.304   4.765   1.396  0.0265 -0.3614 -0.3701
 2614TIP3    H1 7806   6.235   4.800   1.340 -0.0880 -0.9506 -0.6030
 2614TIP3    H2 7807   6.298   4.670   1.385  1.3734 -0.3968 -0.9827
 2615TIP3   OH2 7808   6.671   0.451   4.572  0.4134 -0.1719  0.1763
 2615TIP3    H1 7809   6.747   0.504   4.594  0.2908 -0.5556  1.6369
 2615TIP3    H2 7810   6.612   0.511   4.525  0.1601  1.0950  2.0143
 2616TIP3   OH2 7811   2.357   1.787   5.751  0.1256  0.0169  0.1808
 2616TIP3    H1 7812   2.446   1.810   5.779  0.1293  0.9789 -0.5647
 2616TIP3    H2 7813   2.335   1.709   5.803  1.2126  0.0505  0.7272
 2617TIP3   OH2 7814   3.791   1.873   3.221 -0.7411  0.0208 -0.3017
 2617TIP3    H1 7815   3.798   1.925   3.141 -0.9393  2.1489  0.9921
 2617TIP3    H2 7816   3.852   1.801   3.208 -0.4362  0.5707 -2.1804
 2618TIP3   OH2 7817   4.490   4.235   0.009  0.3205  0.1050 -0.2395
 2618TIP3    H1 7818   4.462   4.203   0.094 -1.1278  1.6766 -0.0958
 2618TIP3    H2 7819   4.414   4.223  -0.048  0.9325  0.0403 -1.0723
 2619TIP3   OH2 7820   3.393   5.667   0.329  1.0244  0.7571  0.3872
 2619TIP3    H1 7821   3.375   5.752   0.368  0.2330  0.9863 -0.4510
 2619TIP3    H2 7822   3.414   5.686   0.237  0.2221  0.0076  0.0331
 2620TIP3   OH2 7823   1.866   0.943   3.268  0.0901  0.4088  0.4031
 2620TIP3    H1 7824   1.960   0.959   3.271  0.2071 -0.2541  0.5528
 2620TIP3    H2 7825   1.853   0.865   3.322 -0.7920  1.5584  1.9138
 2621TIP3   OH2 7826   1.067   1.557   1.737 -0.0158 -0.0658 -0.1152
 2621TIP3    H1 7827   1.144   1.515   1.775 -0.1872  1.1739  1.7500
 2621TIP3    H2 7828   1.075   1.540   1.643  2.6906  0.2640 -0.0383
 2622TIP3   OH2 7829   2.544   0.519   3.592  0.0186  0.0825  0.3510
 2622TIP3    H1 7830   2.565   0.476   3.510  0.5671  0.2201  0.4162
 2622TIP3    H2 7831   2.490   0.456   3.640 -0.9068  0.2789 -0.4039
 2623TIP3   OH2 7832   3.431   6.744   0.749  0.3336 -0.1603  0.2693
 2623TIP3    H1 7833   3.360   6.765   0.809  0.9388  0.5830  0.7379
 2623TIP3    H2 7834   3.438   6.820   0.692  0.3654 -0.4830 -0.1664
 2624TIP3   OH2 7835   2.815   1.371   5.199 -0.4850 -0.1261  0.2527
 2624TIP3    H1 7836   2.770   1.452   5.170  0.3969  0.2820  0.0018
 2624TIP3    H2 7837   2.836   1.387   5.291  0.3376  0.2412  0.0120
 2625TIP3   OH2 7838   5.308   1.981   4.008 -0.0164 -0.4489 -0.1448
 2625TIP3    H1 7839   5.258   1.901   3.996 -0.8173  0.0601 -0.2676
 2625TIP3    H2 7840   5.280   2.014   4.094  2.7686 -2.0123  1.5206
 2626TIP3   OH2 7841   6.693   1.498   0.339  0.1864  0.3187 -0.1678
 2626TIP3    H1 7842   6.712   1.495   0.433 -0.7295  1.1243  0.0574
 2626TIP3    H2 7843   6.653   1.414   0.320  0.6092  0.0522  0.1130
 2627TIP3   OH2 7844   3.705   6.583   0.719  0.0978  0.6250 -0.3063
 2627TIP3    H1 7845   3.798   6.580   0.698  0.5493 -0.3988  1.5396
 2627TIP3    H2 7846   3.681   6.675   0.714  1.4494  1.0095  0.0398
 2628TIP3   OH2 7847   6.084   5.837   4.709  0.0865 -0.1535 -0.0725
 2628TIP3    H1 7848   6.089   5.845   4.804 -1.6525 -2.0020  0.2247
 2628TIP3    H2 7849   6.006   5.888   4.685  1.0596  1.1313 -0.6864
 2629TIP3   OH2 7850   3.049   6.762   2.416 -0.4465  0.1689 -0.0971
 2629TIP3    H1 7851   3.074   6.789   2.327 -0.3608 -1.9261 -0.7696
 2629TIP3    H2 7852   2.965   6.804   2.431 -0.5747  0.3746 -1.2878
 2630TIP3   OH2 7853   6.160   4.773   1.679  0.0826  0.2544 -0.4660
 2630TIP3    H1 7854   6.154   4.748   1.771  1.0557 -2.2806 -0.9944
 2630TIP3    H2 7855   6.246   4.814   1.671 -0.1000  0.6858 -0.1937
 2631TIP3   OH2 7856   0.832   5.657   2.548 -0.7062  0.1193 -0.7863
 2631TIP3    H1 7857   0.923   5.661   2.577 -0.2232 -1.0690 -2.0673
 2631TIP3    H2 7858   0.782   5.682   2.626  0.7708  5.4312 -1.1222
 2632TIP3   OH2 7859   3.796   4.119   0.292 -0.1335  0.1121 -0.5205
 2632TIP3    H1 7860   3.749   4.087   0.215 -0.9379 -1.5695  0.6196
 2632TIP3    H2 7861   3.729   4.125   0.360  0.6355  1.2444  0.1743
 2633TIP3   OH2 7862   2.827   4.413   4.983 -0.5338  0.0069 -0.3735
 2633TIP3    H1 7863   2.752   4.403   4.926 -0.0091 -1.2263 -0.8764
 2633TIP3    H2 7864   2.903   4.406   4.925 -0.0043 -0.2635  0.3331
 2634TIP3   OH2 7865   3.886   3.179   4.982  0.0024  0.7295 -0.1393
 2634TIP3    H1 7866   3.844   3.116   5.041  0.3755  1.0689  0.4997
 2634TIP3    H2 7867   3.979   3.160   4.988  0.2872  2.3235  1.2760
 2635TIP3   OH2 7868   0.984   0.376   1.873 -0.7171 -0.4389 -0.6682
 2635TIP3    H1 7869   1.068   0.344   1.841 -0.3444  0.1910 -0.3615
 2635TIP3    H2 7870   0.993   0.472   1.871 -0.7611 -0.3689  1.0283
 2636TIP3   OH2 7871   6.496   0.151   0.025  0.2809  0.3682 -0.1678
 2636TIP3    H1 7872   6.468   0.080  -0.033 -1.2464  0.6755  0.1516
 2636TIP3    H2 7873   6.456   0.129   0.110  1.1364  0.7746  0.3566
 2637TIP3   OH2 7874   6.021   5.049   0.942 -0.1348  0.2605  0.7729
 2637TIP3    H1 7875   6.033   4.958   0.916  1.2445  0.7129 -0.2510
 2637TIP3    H2 7876   5.974   5.089   0.868 -0.1206  0.5480  0.9196
 2638TIP3   OH2 7877   2.224   3.860   2.444 -0.3146  0.2844  0.1238
 2638TIP3    H1 7878   2.189   3.772   2.430 -0.2046  0.1888  0.4469
 2638TIP3    H2 7879   2.247   3.891   2.357  1.7892 -0.8771  0.2021
 2639TIP3   OH2 7880   6.188   6.541   4.219 -0.4190  0.2645  0.5830
 2639TIP3    H1 7881   6.220   6.630   4.235  0.4653 -0.0140  0.4462
 2639TIP3    H2 7882   6.252   6.485   4.263 -0.2383 -0.3543 -0.4450
 2640TIP3   OH2 7883   5.657   6.768   2.527  0.1320  0.3521  0.0081
 2640TIP3    H1 7884   5.572   6.777   2.485  0.7861  0.8247 -1.2830
 2640TIP3    H2 7885   5.649   6.690   2.582 -0.9007 -0.0402 -0.6859
 2641TIP3   OH2 7886   6.240   0.500   5.720  0.0404 -0.3826  0.1423
 2641TIP3    H1 7887   6.266   0.528   5.807 -0.2521  0.1741  0.0537
 2641TIP3    H2 7888   6.249   0.578   5.666 -4.1199  0.6156  0.5658
 2642TIP3   OH2 7889   0.802   3.024   4.316 -0.1301 -0.1284 -0.1570
 2642TIP3    H1 7890   0.892   2.995   4.297  0.1855  0.7823 -0.1152
 2642TIP3    H2 7891   0.812   3.114   4.346 -1.2383  0.7825 -2.3146
 2643TIP3   OH2 7892   1.104   0.675   1.223 -0.2085 -0.0769  0.3177
 2643TIP3    H1 7893   1.089   0.687   1.129 -0.2640 -0.2913  0.2989
 2643TIP3    H2 7894   1.163   0.747   1.248  0.8395 -0.7624 -0.1340
 2644TIP3   OH2 7895   0.456   1.115   4.103  0.0009  0.0889  0.2801
 2644TIP3    H1 7896   0.451   1.040   4.044 -0.4739  0.9538 -0.7967
 2644TIP3    H2 7897   0.376   1.165   4.085  0.9205  1.5169  0.0898
 2645TIP3   OH2 7898   2.205   2.728   5.144 -0.6927  0.0908 -0.1442
 2645TIP3    H1 7899   2.188   2.774   5.062  1.1691  1.1668  0.0314
 2645TIP3    H2 7900   2.121   2.729   5.190 -1.0004  2.2713 -0.6703
 2646TIP3   OH2 7901   4.511   6.765   4.070  0.3086  0.8092 -0.2655
 2646TIP3    H1 7902   4.587   6.824   4.068  0.3264  0.8213  0.6349
 2646TIP3    H2 7903   4.461   6.792   4.147 -0.1813  0.2599 -0.3850
 2647TIP3   OH2 7904   7.166   5.379   0.366 -0.1890  0.4336 -0.3018
 2647TIP3    H1 7905   7.248   5.366   0.318  0.1934  0.6972  0.2757
 2647TIP3    H2 7906   7.192   5.423   0.447 -0.6683 -1.0059  0.6851
 2648TIP3   OH2 7907   1.177   4.592   0.098  0.2044 -0.2323 -0.2329
 2648TIP3    H1 7908   1.107   4.526   0.107  0.3541 -0.1886  1.6380
 2648TIP3    H2 7909   1.133   4.669   0.064 -0.3611 -0.6931 -0.5637
 2649TIP3   OH2 7910   2.779   0.259   4.225 -0.0651 -0.4418 -0.1931
 2649TIP3    H1 7911   2.820   0.240   4.309  0.4992  0.3605 -0.2712
 2649TIP3    H2 7912   2.850   0.296   4.171 -0.8447  0.8929 -0.3564
 2650TIP3   OH2 7913   5.871   2.603   5.265 -0.0504  0.4446 -0.2048
 2650TIP3    H1 7914   5.870   2.684   5.315  3.1354  0.3544  0.1934
 2650TIP3    H2 7915   5.785   2.563   5.282  0.1320  1.3157  3.6870
 2651TIP3   OH2 7916   4.283   6.073   4.509  0.9746  0.0618 -0.2018
 2651TIP3    H1 7917   4.278   5.988   4.553 -1.4163  0.1541 -0.1836
 2651TIP3    H2 7918   4.253   6.136   4.575 -1.7086  0.3200 -1.5604
 2652TIP3   OH2 7919   4.899   2.506   1.116 -0.1974  0.7715 -0.0060
 2652TIP3    H1 7920   4.877   2.425   1.163  0.8055  0.3752 -0.1817
 2652TIP3    H2 7921   4.862   2.495   1.029  0.8772 -0.0075 -0.3892
 2653TIP3   OH2 7922   0.415   0.480   5.033  0.2923  0.4550 -0.0119
 2653TIP3    H1 7923   0.478   0.550   5.014  0.9716  0.3974  1.8749
 2653TIP3    H2 7924   0.433   0.414   4.966  0.8098  1.3313 -0.7760
 2654TIP3   OH2 7925   2.749   6.256   2.500  0.1283  0.2169 -0.1520
 2654TIP3    H1 7926   2.728   6.286   2.412  2.1064  0.8149 -0.4648
 2654TIP3    H2 7927   2.710   6.169   2.506  1.0195 -0.3627 -2.0895
 2655TIP3   OH2 7928   3.503   2.076   0.755  0.3470  0.2850 -0.2254
 2655TIP3    H1 7929   3.525   2.097   0.664  0.5066 -1.7396 -0.7044
 2655TIP3    H2 7930   3.588   2.062   0.797  0.3362  2.3495  0.5877
 2656TIP3   OH2 7931   1.111   0.086   3.464 -0.2510 -0.1342  0.1752
 2656TIP3    H1 7932   1.084   0.160   3.518 -3.8513 -1.2599  0.1843
 2656TIP3    H2 7933   1.063   0.011   3.499  2.2422 -2.3176 -0.6254
 2657TIP3   OH2 7934   6.089   1.909   4.713  0.2471 -0.4380  0.2761
 2657TIP3    H1 7935   6.024   1.839   4.727 -1.3367  1.0095  0.4488
 2657TIP3    H2 7936   6.089   1.959   4.795  0.5561  0.3995 -0.2254
 2658TIP3   OH2 7937   6.718   0.061   0.217  0.1244 -0.4088  0.1132
 2658TIP3    H1 7938   6.701   0.030   0.128  1.0771  0.2253 -0.3152
 2658TIP3    H2 7939   6.745  -0.016   0.265 -1.3885 -0.9540  0.1471
 2659TIP3   OH2 7940   6.458   0.145   3.951 -0.0159  0.2406  0.0385
 2659TIP3    H1 7941   6.445   0.240   3.947 -1.4121  0.1238  1.1078
 2659TIP3    H2 7942   6.376   0.108   3.918  0.4282 -0.5967 -0.1489
 2660TIP3   OH2 7943   4.763   1.593   0.313  0.8294  0.1491  0.4770
 2660TIP3    H1 7944   4.731   1.640   0.390  0.8310  1.6901 -0.4242
 2660TIP3    H2 7945   4.855   1.577   0.331  0.8130  0.4382  0.8307
 2661TIP3   OH2 7946   3.669   4.734   3.014 -0.2758  0.1646 -0.2558
 2661TIP3    H1 7947   3.726   4.766   3.084 -0.9530  1.3556 -0.2355
 2661TIP3    H2 7948   3.585   4.715   3.058 -0.6995  0.9008 -0.7336
 2662TIP3   OH2 7949   4.257   4.976   1.657  0.4018  0.1052 -0.3041
 2662TIP3    H1 7950   4.254   4.907   1.590  1.6853  0.4747 -0.7792
 2662TIP3    H2 7951   4.241   4.930   1.739 -1.4784 -0.3176 -0.8703
 2663TIP3   OH2 7952   1.941   3.383   0.852  0.2946  0.5628  0.9510
 2663TIP3    H1 7953   1.952   3.478   0.859 -0.6542  0.8406 -0.7486
 2663TIP3    H2 7954   2.007   3.356   0.789  0.6918  0.0504  1.5799
 2664TIP3   OH2 7955   4.247   3.436   0.238  0.2582 -0.2081  0.6748
 2664TIP3    H1 7956   4.342   3.430   0.250  0.5474 -2.4151 -1.6507
 2664TIP3    H2 7957   4.211   3.372   0.298  0.4823 -1.0145 -0.0240
 2665TIP3   OH2 7958   3.479   3.548   1.255 -0.2138 -0.1240 -0.4078
 2665TIP3    H1 7959   3.484   3.459   1.290 -0.7416  0.0240  0.0597
 2665TIP3    H2 7960   3.467   3.537   1.161  2.5776 -0.5343 -0.7929
 2666TIP3   OH2 7961   4.619   4.510   1.534  0.0161 -0.2515  0.9631
 2666TIP3    H1 7962   4.654   4.550   1.455  0.2857 -1.0075  0.6895
 2666TIP3    H2 7963   4.602   4.584   1.593 -0.7044  0.3683  0.0053
 2667TIP3   OH2 7964   1.803   3.569   5.661 -0.2766 -0.1854  0.3927
 2667TIP3    H1 7965   1.899   3.567   5.659 -0.2462  1.0288  0.0432
 2667TIP3    H2 7966   1.782   3.589   5.752 -0.0983  2.2749 -0.0547
 2668TIP3   OH2 7967   5.553   3.741   0.078  0.2413 -0.1469 -0.2003
 2668TIP3    H1 7968   5.612   3.736   0.154  0.3299  3.8276  0.1958
 2668TIP3    H2 7969   5.604   3.785   0.011 -1.3768  0.7896 -0.8669
 2669TIP3   OH2 7970   5.254   0.986   2.252 -0.0819 -0.0720  0.4323
 2669TIP3    H1 7971   5.297   1.068   2.229 -2.2028  1.7889  2.5097
 2669TIP3    H2 7972   5.304   0.952   2.325 -0.6370  0.7857  1.2384
 2670TIP3   OH2 7973   2.907   2.337   0.298  0.4225  0.4127 -0.7634
 2670TIP3    H1 7974   2.879   2.427   0.314  0.7190  0.3673  0.1191
 2670TIP3    H2 7975   2.865   2.286   0.368  1.4523  0.1183 -0.3294
 2671TIP3   OH2 7976   2.499   4.940   0.784 -0.2399 -0.0860  0.0632
 2671TIP3    H1 7977   2.482   4.945   0.878 -2.0509 -0.1194 -0.2273
 2671TIP3    H2 7978   2.593   4.924   0.777 -0.0173  0.2927  1.8502
 2672TIP3   OH2 7979   6.727   1.165   4.320 -0.0304  0.0660 -0.5463
 2672TIP3    H1 7980   6.719   1.172   4.225  0.6160  1.1189 -0.5400
 2672TIP3    H2 7981   6.661   1.099   4.345 -1.1055  0.7088 -1.5767
 2673TIP3   OH2 7982   5.275   4.561   0.814 -0.3531 -0.1859 -0.0765
 2673TIP3    H1 7983   5.370   4.574   0.813 -0.5304  1.6037  1.5159
 2673TIP3    H2 7984   5.264   4.466   0.814  1.4410 -0.4340  0.0921
 2674TIP3   OH2 7985   5.230   3.031   0.704  0.0947 -0.2306 -0.2786
 2674TIP3    H1 7986   5.290   3.094   0.744  1.2427 -0.4871 -1.5147
 2674TIP3    H2 7987   5.287   2.960   0.673 -1.1472 -1.8392  0.9456
 2675TIP3   OH2 7988   4.124   1.448   4.629 -0.4975 -0.2699 -0.1890
 2675TIP3    H1 7989   4.129   1.540   4.600 -1.0946  0.9039  3.0313
 2675TIP3    H2 7990   4.201   1.437   4.685 -0.5103 -1.7642 -0.4301
 2676TIP3   OH2 7991   3.763   4.494   5.130  0.0871  0.4759 -0.0710
 2676TIP3    H1 7992   3.710   4.435   5.076  1.2014 -0.4391 -0.2007
 2676TIP3    H2 7993   3.847   4.450   5.139  0.5755  1.5247  0.8008
 2677TIP3   OH2 7994   2.644   3.779   1.666  0.0208  0.2661 -0.1284
 2677TIP3    H1 7995   2.573   3.843   1.667 -2.3112 -2.1437 -0.4274
 2677TIP3    H2 7996   2.655   3.758   1.573  2.3807  1.7989 -0.2723
 2678TIP3   OH2 7997   3.016   4.543   3.787 -0.0162 -0.2999 -0.4071
 2678TIP3    H1 7998   2.978   4.595   3.717  0.6347 -0.3251 -0.7798
 2678TIP3    H2 7999   3.066   4.474   3.743  1.9905  0.7952  0.0150
 2679TIP3   OH2 8000   1.784   0.914   1.355 -0.7398  0.0977 -0.0083
 2679TIP3    H1 8001   1.804   0.988   1.413  0.8699 -2.8507  3.6886
 2679TIP3    H2 8002   1.720   0.861   1.405  0.1202 -2.2571 -1.2294
 2680TIP3   OH2 8003   1.647   3.139   1.146  0.4916  0.0329  0.1366
 2680TIP3    H1 8004   1.598   3.095   1.215  0.7338  1.0646  1.0002
 2680TIP3    H2 8005   1.715   3.077   1.122 -0.7652 -1.1259 -0.5724
 2681TIP3   OH2 8006   0.534   1.311   2.412 -0.5616  0.1400  0.4026
 2681TIP3    H1 8007   0.568   1.229   2.450 -0.9612  0.7962  2.2847
 2681TIP3    H2 8008   0.461   1.282   2.356  2.3735 -1.2184 -3.1266
 2682TIP3   OH2 8009   3.702   5.773   0.604 -0.3847  0.3731  0.6030
 2682TIP3    H1 8010   3.717   5.771   0.510  1.0323  1.3244  0.7691
 2682TIP3    H2 8011   3.687   5.866   0.624 -0.6376  0.1880  1.3121
 2683TIP3   OH2 8012   6.719   6.505   0.601 -0.0260  0.1741  0.3834
 2683TIP3    H1 8013   6.699   6.454   0.679 -1.7663  0.2345  0.0053
 2683TIP3    H2 8014   6.815   6.514   0.603  0.1893 -1.7715  1.2634
 2684TIP3   OH2 8015   5.025   2.577   3.873 -0.2310 -0.0637  0.3204
 2684TIP3    H1 8016   5.114   2.565   3.840  0.3316 -2.5895  2.4440
 2684TIP3    H2 8017   5.015   2.672   3.881  1.3440  0.4015 -2.2164
 2685TIP3   OH2 8018   5.142   4.611   5.361  0.1108 -0.2958 -0.0981
 2685TIP3    H1 8019   5.074   4.544   5.357 -1.6869  1.4780 -2.3364
 2685TIP3    H2 8020   5.106   4.678   5.420 -0.3582  0.8424 -1.6127
 2686TIP3   OH2 8021   0.551   3.532   2.363  0.0953  0.4010  0.5209
 2686TIP3    H1 8022   0.606   3.596   2.407 -0.0908  0.4630  0.6682
 2686TIP3    H2 8023   0.462   3.568   2.371  0.2480  1.4323 -1.6285
 2687TIP3   OH2 8024   2.791   5.126   0.164 -0.1861 -0.2558 -0.1609
 2687TIP3    H1 8025   2.856   5.147   0.231 -0.0971 -0.0560 -0.3081
 2687TIP3    H2 8026   2.709   5.160   0.199 -0.1843 -0.3761 -0.0410
 2688TIP3   OH2 8027   5.394   3.955   0.924 -0.4005  0.1267  0.1459
 2688TIP3    H1 8028   5.447   3.905   0.862 -0.5688 -0.4713  0.4799
 2688TIP3    H2 8029   5.327   3.996   0.869  1.2982  2.1838 -0.5163
 2689TIP3   OH2 8030   5.668   3.131   1.614 -0.3964  0.0742 -0.0928
 2689TIP3    H1 8031   5.575   3.113   1.603 -0.6778  1.4806 -0.1398
 2689TIP3    H2 8032   5.701   3.056   1.665 -1.4790 -0.5794 -0.3270
 2690TIP3   OH2 8033   0.457   2.834   1.317 -0.4376  0.0561  0.1868
 2690TIP3    H1 8034   0.403   2.758   1.335 -2.0433  1.3397  0.9739
 2690TIP3    H2 8035   0.491   2.861   1.402  1.1077 -0.4281 -0.2296
 2691TIP3   OH2 8036   1.543   2.059   3.757  0.5704 -0.4869 -0.1695
 2691TIP3    H1 8037   1.558   2.026   3.845  1.0690  1.0206  0.3319
 2691TIP3    H2 8038   1.462   2.111   3.764  0.5012 -0.5206 -0.6448
 2692TIP3   OH2 8039   0.371   2.276   2.177  0.3191 -0.0898 -0.2751
 2692TIP3    H1 8040   0.335   2.360   2.204 -1.2479 -0.6699 -0.4386
 2692TIP3    H2 8041   0.351   2.216   2.249  0.8616 -0.4581 -0.4240
 2693TIP3   OH2 8042   4.019   5.767   5.338 -0.3810  0.1919  0.9220
 2693TIP3    H1 8043   4.047   5.768   5.247 -0.9645 -0.8300  0.7140
 2693TIP3    H2 8044   4.063   5.691   5.376 -0.6391  0.2418  1.3287
 2694TIP3   OH2 8045   4.663   1.076   1.730  0.2940  0.3361  0.0231
 2694TIP3    H1 8046   4.595   1.009   1.721  0.5606  0.0962 -0.2565
 2694TIP3    H2 8047   4.744   1.026   1.743  0.2839  0.6414  1.3115
 2695TIP3   OH2 8048   3.627   4.481   5.379 -0.9397  0.0549 -0.3066
 2695TIP3    H1 8049   3.653   4.557   5.432 -0.5605 -0.4006  0.1641
 2695TIP3    H2 8050   3.674   4.494   5.296 -0.5830  0.1457 -0.0947
 2696TIP3   OH2 8051   0.217   5.712   0.035 -0.2895  0.2232  0.3060
 2696TIP3    H1 8052   0.235   5.802   0.061  1.6715  0.9463 -2.9572
 2696TIP3    H2 8053   0.270   5.658   0.094  0.0271  1.3146  1.0482
 2697TIP3   OH2 8054   3.638   2.292   2.829  0.1572  0.3262  0.4037
 2697TIP3    H1 8055   3.695   2.335   2.893 -2.3290  0.9259  2.3999
 2697TIP3    H2 8056   3.549   2.308   2.862 -1.1738 -0.9779 -2.2419
 2698TIP3   OH2 8057   6.688   0.675   4.251  0.0244 -0.0038  0.3006
 2698TIP3    H1 8058   6.680   0.770   4.246 -2.5301 -0.2268 -2.5470
 2698TIP3    H2 8059   6.604   0.645   4.288 -0.0175 -1.2166 -0.7001
 2699TIP3   OH2 8060   0.783   3.265   4.477  0.4461  0.1966  0.0433
 2699TIP3    H1 8061   0.755   3.253   4.568 -2.0546 -0.4428 -0.7370
 2699TIP3    H2 8062   0.852   3.331   4.482  1.0866 -0.5500  2.4846
 2700TIP3   OH2 8063   6.791   4.679   4.843 -0.1511  0.6313  0.2389
 2700TIP3    H1 8064   6.847   4.602   4.852 -1.3051 -0.2094  0.4381
 2700TIP3    H2 8065   6.753   4.672   4.755  0.6293  1.6186 -0.2075
 2701TIP3   OH2 8066   3.828   2.914   2.695 -0.3597  0.0667 -0.2677
 2701TIP3    H1 8067   3.923   2.904   2.688 -0.0284  0.2965  2.5358
 2701TIP3    H2 8068   3.814   3.008   2.681 -0.7548 -0.4479 -4.4788
 2702TIP3   OH2 8069   6.347   1.303   3.889  0.4718 -0.3628 -0.3527
 2702TIP3    H1 8070   6.310   1.322   3.975  0.3740 -1.2340 -0.2012
 2702TIP3    H2 8071   6.362   1.390   3.850  1.4689  0.0714  0.9324
 2703TIP3   OH2 8072   4.450   3.474   4.717 -0.0395  0.0117 -0.2114
 2703TIP3    H1 8073   4.499   3.515   4.789 -3.0637 -0.3876  2.2706
 2703TIP3    H2 8074   4.471   3.528   4.640  3.2155  0.5629  0.8929
 2704TIP3   OH2 8075   4.223   6.465   3.664  0.6182 -0.0590  0.0127
 2704TIP3    H1 8076   4.248   6.414   3.586  0.1716  1.1300 -0.9446
 2704TIP3    H2 8077   4.212   6.554   3.631  0.2853  0.4447  1.4338
 2705TIP3   OH2 8078   1.101   0.846   0.145 -0.6783 -0.3044  0.1433
 2705TIP3    H1 8079   1.138   0.915   0.200 -0.3641 -0.8270  0.6033
 2705TIP3    H2 8080   1.006   0.852   0.158 -0.5419 -1.4789  2.0813
 2706TIP3   OH2 8081   7.185   1.514   3.958 -0.2198 -0.5211 -0.1082
 2706TIP3    H1 8082   7.208   1.443   4.019 -2.7408 -1.3228  0.0440
 2706TIP3    H2 8083   7.089   1.511   3.953 -0.2923  1.7091 -1.5555
 2707TIP3   OH2 8084   0.913   3.516   2.869 -0.3403 -0.3891 -0.4281
 2707TIP3    H1 8085   0.950   3.485   2.951  1.4093  1.6231 -0.3763
 2707TIP3    H2 8086   0.892   3.437   2.820  3.2078 -1.7033 -0.0674
 2708TIP3   OH2 8087   1.587   4.071   4.954  0.6255  0.0322  0.1343
 2708TIP3    H1 8088   1.549   4.127   4.885 -1.0956  1.2695  1.9726
 2708TIP3    H2 8089   1.569   3.982   4.924 -2.5557  0.5523  0.1716
 2709TIP3   OH2 8090   1.205   1.295   5.492  0.3776  0.3927  0.1976
 2709TIP3    H1 8091   1.275   1.240   5.457  1.7679  0.9173  2.0049
 2709TIP3    H2 8092   1.225   1.382   5.459 -0.2874  0.3000 -0.4733
 2710TIP3   OH2 8093   4.339   3.001   0.594  0.2980  0.3859  0.8414
 2710TIP3    H1 8094   4.303   3.045   0.672 -2.2543 -0.6634  0.3620
 2710TIP3    H2 8095   4.311   2.910   0.603 -0.5249  0.3361 -1.5284
 2711TIP3   OH2 8096   0.434   1.881   2.117 -0.0183 -0.6582 -0.5219
 2711TIP3    H1 8097   0.393   1.959   2.154 -0.5676 -1.0890 -0.1862
 2711TIP3    H2 8098   0.500   1.914   2.057 -0.0485  0.0624 -0.1711
 2712TIP3   OH2 8099   6.500   3.884   2.627 -0.1247  0.2369 -0.4661
 2712TIP3    H1 8100   6.487   3.965   2.578  0.1777  0.7751  0.3121
 2712TIP3    H2 8101   6.447   3.819   2.581 -1.5573  1.2097 -0.2589
 2713TIP3   OH2 8102   6.484   1.795   4.269 -0.0049 -0.2574 -0.3805
 2713TIP3    H1 8103   6.546   1.787   4.341  1.6545  2.5065 -1.3769
 2713TIP3    H2 8104   6.503   1.879   4.229 -2.8346 -0.3686 -2.2758
 2714TIP3   OH2 8105   0.302   4.847   0.457  0.1558 -0.1335  0.3290
 2714TIP3    H1 8106   0.213   4.860   0.491 -1.8399 -1.1573 -3.8454
 2714TIP3    H2 8107   0.318   4.753   0.468  0.1231 -0.1928 -0.1004
 2715TIP3   OH2 8108   2.978   2.762   4.168 -0.5760 -0.3556  0.0249
 2715TIP3    H1 8109   2.989   2.668   4.154 -0.5430 -0.1851 -1.2045
 2715TIP3    H2 8110   2.889   2.780   4.141 -1.6228 -0.4807  3.0090
 2716TIP3   OH2 8111   6.704   5.273   4.971  0.3894 -0.2869  0.2700
 2716TIP3    H1 8112   6.667   5.210   5.033 -1.9964 -0.1546 -0.8813
 2716TIP3    H2 8113   6.744   5.341   5.025 -1.4201 -0.2776  1.6748
 2717TIP3   OH2 8114   1.264   0.827   4.483 -0.0478  0.0892  0.3165
 2717TIP3    H1 8115   1.268   0.829   4.578 -2.6568  2.6436  0.5112
 2717TIP3    H2 8116   1.256   0.919   4.457  2.8099 -0.3106 -2.5903
 2718TIP3   OH2 8117   6.741   4.958   4.917  0.0421  0.1677  0.2752
 2718TIP3    H1 8118   6.761   4.865   4.929  0.8389  0.2957  0.0315
 2718TIP3    H2 8119   6.805   4.987   4.851 -0.2264  0.8782  0.3239
 2719TIP3   OH2 8120   5.524   4.887   1.845  0.1976  0.3516 -0.8139
 2719TIP3    H1 8121   5.453   4.920   1.899 -0.3080  0.5095 -1.5582
 2719TIP3    H2 8122   5.501   4.915   1.756  1.1867  0.4013 -1.0631
 2720TIP3   OH2 8123   3.471   0.213   1.371  0.6675  0.4526 -0.2611
 2720TIP3    H1 8124   3.387   0.196   1.414  1.5676  2.2287  2.3992
 2720TIP3    H2 8125   3.448   0.227   1.279 -2.2101  2.5184  0.6451
 2721TIP3   OH2 8126   1.116   1.909   5.472 -0.4814  0.2986 -0.1274
 2721TIP3    H1 8127   1.158   1.830   5.440 -0.9345 -0.4256  0.9692
 2721TIP3    H2 8128   1.187   1.972   5.485 -0.1265  0.0930 -1.0616
 2722TIP3   OH2 8129   4.923   2.561   4.115  0.0867 -0.2393 -0.1354
 2722TIP3    H1 8130   4.861   2.489   4.125  1.4031 -1.1894  1.7633
 2722TIP3    H2 8131   4.949   2.558   4.023 -1.5181 -0.7603 -0.6059
 2723TIP3   OH2 8132   6.906   4.868   3.850 -0.5535 -0.0424  0.4371
 2723TIP3    H1 8133   6.872   4.925   3.920  0.0423 -0.7609  1.3336
 2723TIP3    H2 8134   6.996   4.849   3.877 -0.1597  0.0276 -0.7724
 2724TIP3   OH2 8135   6.560   1.266   0.278 -0.0163 -0.1635  0.1523
 2724TIP3    H1 8136   6.553   1.224   0.364  0.5457 -1.7123 -0.5084
 2724TIP3    H2 8137   6.640   1.229   0.240 -1.0783 -0.7434 -1.6501
 2725TIP3   OH2 8138   3.208   2.571   3.915 -0.6479  0.2374  0.0315
 2725TIP3    H1 8139   3.204   2.553   4.009  1.2875 -0.1799  0.0800
 2725TIP3    H2 8140   3.248   2.658   3.910  0.2915 -0.2103 -0.4085
 2726TIP3   OH2 8141   3.043   1.565   2.418 -0.1893 -0.4729  0.2633
 2726TIP3    H1 8142   3.026   1.486   2.367 -0.7815 -0.2044  0.0453
 2726TIP3    H2 8143   3.036   1.536   2.509 -1.3810 -0.4781  0.1886
 2727TIP3   OH2 8144   0.832   5.145   1.879  0.2093  0.1445  0.2658
 2727TIP3    H1 8145   0.917   5.178   1.908 -0.0189 -0.3275  1.4881
 2727TIP3    H2 8146   0.804   5.085   1.948  0.4521 -2.4176 -1.6922
 2728TIP3   OH2 8147   7.026   3.329   0.718 -0.4261  0.1461  0.4245
 2728TIP3    H1 8148   7.103   3.273   0.720 -0.6694 -0.2133 -0.0840
 2728TIP3    H2 8149   7.060   3.418   0.712 -0.0527 -0.1216 -2.3379
 2729TIP3   OH2 8150   0.546   2.462   5.388  0.5873  0.2020  0.0964
 2729TIP3    H1 8151   0.605   2.530   5.422  1.5206  0.4427 -1.8477
 2729TIP3    H2 8152   0.600   2.383   5.387  0.4162  0.0911 -0.3373
 2730TIP3   OH2 8153   0.152   0.746   1.433  0.0829 -0.1528  0.4041
 2730TIP3    H1 8154   0.065   0.785   1.423  0.2322  0.4562  1.3575
 2730TIP3    H2 8155   0.157   0.682   1.362 -0.4776  1.0083 -0.7400
 2731TIP3   OH2 8156   5.919   4.771   2.919 -0.4628  0.0461 -0.1907
 2731TIP3    H1 8157   5.846   4.772   2.858 -0.9820 -1.4361  0.3552
 2731TIP3    H2 8158   5.894   4.706   2.985  0.6989  0.5873  0.8212
 2732TIP3   OH2 8159   1.422   3.911   3.480  0.2023  0.2156  0.0991
 2732TIP3    H1 8160   1.415   3.818   3.460  0.9690  0.2150 -0.2226
 2732TIP3    H2 8161   1.492   3.942   3.422  0.3024  0.8788  0.5654
 2733TIP3   OH2 8162   4.932   1.191   2.721  0.7745 -0.1599  0.3822
 2733TIP3    H1 8163   4.991   1.133   2.768 -2.5211 -1.3543  3.4391
 2733TIP3    H2 8164   4.873   1.132   2.674 -0.5277  0.8393  0.7318
 2734TIP3   OH2 8165   4.065   3.355   2.075  0.1129  0.0505 -0.4819
 2734TIP3    H1 8166   4.103   3.385   2.158 -0.7636  1.3697 -0.5231
 2734TIP3    H2 8167   4.078   3.429   2.015  2.3098 -1.5014 -2.0998
 2735TIP3   OH2 8168   6.103   4.882   4.266 -0.2356 -0.0489 -0.3683
 2735TIP3    H1 8169   6.121   4.818   4.197  2.1773 -0.4720  0.5733
 2735TIP3    H2 8170   6.176   4.872   4.327 -0.2133  3.0291  0.2334
 2736TIP3   OH2 8171   6.426   0.054   3.133  0.8160  0.1543  0.3511
 2736TIP3    H1 8172   6.484   0.031   3.206  0.8340 -2.0303 -0.3118
 2736TIP3    H2 8173   6.341   0.018   3.158  1.0001 -1.2812 -1.0270
 2737TIP3   OH2 8174   4.432   4.027   2.480  0.1274  0.1315  0.4372
 2737TIP3    H1 8175   4.504   4.081   2.511  0.7458  0.2954 -1.2236
 2737TIP3    H2 8176   4.398   3.986   2.560  2.3294 -0.3128  1.2275
 2738TIP3   OH2 8177   7.074   2.624   4.973 -0.1640 -0.9954  0.0025
 2738TIP3    H1 8178   7.075   2.611   4.878 -1.5377  1.0125 -0.3396
 2738TIP3    H2 8179   7.032   2.708   4.986  1.4517 -0.4307  2.3524
 2739TIP3   OH2 8180   2.011   4.819   1.142 -0.9574  0.1717  0.3362
 2739TIP3    H1 8181   1.939   4.806   1.204 -0.8270  1.1131  0.6916
 2739TIP3    H2 8182   2.026   4.913   1.141 -1.8214  0.3442 -2.1301
 2740TIP3   OH2 8183   3.007   6.220   5.762 -0.0901  0.3131 -0.5172
 2740TIP3    H1 8184   3.043   6.148   5.711  0.1826  0.1408 -0.0871
 2740TIP3    H2 8185   2.919   6.232   5.727 -0.7723 -1.3357  0.4787
 2741TIP3   OH2 8186   2.107   6.229   5.655  0.6252  0.6352 -0.1495
 2741TIP3    H1 8187   2.106   6.179   5.574  1.5095 -2.1358  1.4340
 2741TIP3    H2 8188   2.195   6.268   5.659  1.0678 -0.3523  0.0717
 2742TIP3   OH2 8189   2.246   6.582   2.356  0.4267 -1.1518  0.5752
 2742TIP3    H1 8190   2.195   6.507   2.325 -0.6812 -0.5315  0.8530
 2742TIP3    H2 8191   2.327   6.579   2.305  0.8049 -3.0525  1.2231
 2743TIP3   OH2 8192   4.001   2.948   5.877 -0.3133  0.2022 -0.1583
 2743TIP3    H1 8193   4.015   2.949   5.782 -0.5184 -2.6392 -0.3139
 2743TIP3    H2 8194   4.087   2.928   5.913 -0.3518  0.7159  0.2182
 2744TIP3   OH2 8195   0.948   3.188   4.070  0.0538 -0.1917  0.2119
 2744TIP3    H1 8196   0.959   3.277   4.101  0.0017 -0.5793  1.3781
 2744TIP3    H2 8197   1.013   3.137   4.118 -0.4438 -0.9147  0.1321
 2745TIP3   OH2 8198   2.943   2.472   0.979 -0.3055 -0.1459  0.2005
 2745TIP3    H1 8199   3.029   2.441   0.948 -1.3076 -3.3892  0.2378
 2745TIP3    H2 8200   2.927   2.552   0.930  1.6630 -0.8348 -1.7340
 2746TIP3   OH2 8201   0.437   1.354   2.708 -0.2239 -0.4136  0.0789
 2746TIP3    H1 8202   0.394   1.439   2.694  0.2987 -0.2946 -0.8984
 2746TIP3    H2 8203   0.450   1.319   2.619  0.8791 -0.8482  0.3948
 2747TIP3   OH2 8204   4.156   0.194   5.277 -0.3218 -0.2309  0.0081
 2747TIP3    H1 8205   4.196   0.165   5.359  1.9709 -1.1334 -1.3297
 2747TIP3    H2 8206   4.202   0.274   5.254  0.4877 -1.0355 -1.3382
 2748TIP3   OH2 8207   1.916   3.001   5.477 -0.1584 -0.2699 -0.0750
 2748TIP3    H1 8208   1.942   2.929   5.535 -1.3620 -2.7599 -2.3938
 2748TIP3    H2 8209   1.988   3.009   5.415 -0.1241  0.4078  0.0459
 2749TIP3   OH2 8210   5.487   6.539   5.813 -0.6592  0.2165  0.0782
 2749TIP3    H1 8211   5.473   6.450   5.846  1.2214 -0.0255  0.3160
 2749TIP3    H2 8212   5.498   6.529   5.719  0.6319  0.0366  0.2354
 2750TIP3   OH2 8213   0.329   6.142   3.002  0.2553  0.8407 -0.2150
 2750TIP3    H1 8214   0.318   6.214   3.064 -0.7995 -0.2508  0.9282
 2750TIP3    H2 8215   0.415   6.105   3.022  0.4397  1.2495 -0.2427
 2751TIP3   OH2 8216   7.049   2.869   0.087 -0.1235  0.1121 -0.5768
 2751TIP3    H1 8217   7.061   2.929   0.013 -0.0547  1.1390  0.2334
 2751TIP3    H2 8218   7.134   2.868   0.131 -0.1641 -0.4910 -0.5104
 2752TIP3   OH2 8219   0.262   5.389   3.135 -0.0802 -0.2511 -0.3728
 2752TIP3    H1 8220   0.306   5.423   3.213  0.0726  0.1225 -0.6175
 2752TIP3    H2 8221   0.320   5.320   3.103  1.0394  1.1099 -1.4444
 2753TIP3   OH2 8222   0.338   0.935   5.562 -0.4670  0.2887  0.0768
 2753TIP3    H1 8223   0.250   0.916   5.596 -1.2008  2.0835 -0.7087
 2753TIP3    H2 8224   0.325   1.008   5.502  1.5169  0.2797 -0.4169
 2754TIP3   OH2 8225   4.227   3.488   0.571  0.5409  0.0584 -0.0148
 2754TIP3    H1 8226   4.158   3.475   0.506  1.7855 -0.2753 -1.3201
 2754TIP3    H2 8227   4.259   3.577   0.554  0.5852  0.1319  0.4434
 2755TIP3   OH2 8228   5.557   0.832   2.831 -0.1708  0.2959 -0.2026
 2755TIP3    H1 8229   5.652   0.848   2.832 -0.1375  0.1558 -1.0057
 2755TIP3    H2 8230   5.521   0.904   2.884  0.3572  0.5162 -0.1316
 2756TIP3   OH2 8231   4.498   6.245   4.520 -0.1048 -0.6540  0.1609
 2756TIP3    H1 8232   4.523   6.258   4.429  0.3627 -2.2867  0.0275
 2756TIP3    H2 8233   4.437   6.172   4.518 -1.2171  0.2122  1.0238
 2757TIP3   OH2 8234   1.662   1.637   2.859 -0.2449 -0.5308  0.2189
 2757TIP3    H1 8235   1.605   1.714   2.865  1.8072  1.1240 -0.1197
 2757TIP3    H2 8236   1.605   1.567   2.826 -1.8975  1.1912 -0.7856
 2758TIP3   OH2 8237   6.463   6.646   0.880  0.4743 -0.4934  0.8414
 2758TIP3    H1 8238   6.372   6.617   0.882  0.4067 -0.2638  2.8155
 2758TIP3    H2 8239   6.460   6.740   0.895  1.0826 -0.6997  2.4293
 2759TIP3   OH2 8240   3.803   1.936   5.509 -0.1703  0.1104 -0.3529
 2759TIP3    H1 8241   3.829   2.024   5.534  1.6440  0.1925 -2.2508
 2759TIP3    H2 8242   3.713   1.944   5.478  0.0789  1.3596 -0.7867
 2760TIP3   OH2 8243   3.978   2.700   4.119  0.3649  0.0089 -0.0115
 2760TIP3    H1 8244   3.895   2.747   4.116 -0.7011 -1.8637 -1.3909
 2760TIP3    H2 8245   4.020   2.730   4.200 -2.0002  0.4070  1.1280
 2761TIP3   OH2 8246   5.321   5.227   1.664 -0.1965 -0.2517  0.3633
 2761TIP3    H1 8247   5.396   5.265   1.709 -0.1692 -1.2885  1.2370
 2761TIP3    H2 8248   5.357   5.153   1.614 -0.5360 -0.3835  0.3063
 2762TIP3   OH2 8249   3.126   4.153   0.548 -0.3082 -0.0500  0.4808
 2762TIP3    H1 8250   3.081   4.180   0.468  1.2631 -1.1398 -0.8315
 2762TIP3    H2 8251   3.119   4.058   0.548 -0.6990 -0.0428  1.9333
 2763TIP3   OH2 8252   4.164   5.749   2.972  0.5759  0.1358 -0.3169
 2763TIP3    H1 8253   4.260   5.746   2.976  0.5751 -0.0776 -0.4227
 2763TIP3    H2 8254   4.144   5.828   2.921  0.6628  0.8799  0.7558
 2764TIP3   OH2 8255   5.611   3.625   3.625  0.1877 -0.2627  0.4960
 2764TIP3    H1 8256   5.661   3.563   3.573 -2.4469 -2.1219 -0.0540
 2764TIP3    H2 8257   5.580   3.690   3.561 -0.6977 -0.9424  0.2088
 2765TIP3   OH2 8258   4.509   2.464   3.526 -0.0003  0.0892 -0.7906
 2765TIP3    H1 8259   4.522   2.518   3.604 -2.1521  0.2667 -0.5180
 2765TIP3    H2 8260   4.466   2.385   3.559 -0.4020 -0.0915 -1.7346
 2766TIP3   OH2 8261   6.948   6.056   5.744 -0.5368  0.7595 -0.0723
 2766TIP3    H1 8262   7.008   6.119   5.704 -1.6500  1.4105 -0.7756
 2766TIP3    H2 8263   6.997   6.020   5.817  0.7703  1.1456 -0.7189
 2767TIP3   OH2 8264   1.090   3.621   0.725  0.6728 -0.0672 -0.0169
 2767TIP3    H1 8265   1.136   3.703   0.738 -0.2785  0.7430 -1.4393
 2767TIP3    H2 8266   1.149   3.569   0.669  0.8236  0.0665  0.0191
 2768TIP3   OH2 8267   2.268   6.240   4.037 -0.0948 -0.3349  0.1227
 2768TIP3    H1 8268   2.242   6.285   3.956  0.3024 -0.5239 -0.1190
 2768TIP3    H2 8269   2.288   6.310   4.098 -0.6360 -0.1910  0.1355
 2769TIP3   OH2 8270   2.481   2.224   0.241 -0.2850 -0.1532 -0.4358
 2769TIP3    H1 8271   2.520   2.149   0.196  2.6436  1.5570 -1.0255
 2769TIP3    H2 8272   2.449   2.281   0.171  3.2397  1.9697 -0.5593
 2770TIP3   OH2 8273   0.310   2.062   5.345  0.2984 -0.0629 -0.1421
 2770TIP3    H1 8274   0.326   2.096   5.432  0.1809 -1.8362  0.6182
 2770TIP3    H2 8275   0.237   2.115   5.312 -1.0315 -0.6605  1.6595
 2771TIP3   OH2 8276   0.386   3.888   3.363  0.0556  0.0312 -0.1476
 2771TIP3    H1 8277   0.432   3.804   3.354  0.0760 -0.0214  0.4295
 2771TIP3    H2 8278   0.441   3.950   3.316  0.6035 -0.0762  0.3421
 2772TIP3   OH2 8279   3.608   4.254   5.523 -0.0568  0.4370  0.0928
 2772TIP3    H1 8280   3.612   4.343   5.487 -0.3431  0.5102  0.2414
 2772TIP3    H2 8281   3.628   4.265   5.616 -2.9588  0.7439  0.7642
 2773TIP3   OH2 8282   3.083   6.498   2.797 -0.0217 -0.3213 -0.3790
 2773TIP3    H1 8283   3.063   6.423   2.853 -0.9840 -0.0504 -0.3353
 2773TIP3    H2 8284   3.013   6.499   2.732  0.5843 -0.0957 -1.0460
 2774TIP3   OH2 8285   3.032   4.367   2.880  0.0291 -0.6113  0.0639
 2774TIP3    H1 8286   3.037   4.272   2.891  4.7083 -0.6328 -0.1926
 2774TIP3    H2 8287   3.039   4.381   2.786 -0.3070  0.0086  0.1256
 2775TIP3   OH2 8288   6.819   4.055   1.271  0.2801  0.3037 -0.0640
 2775TIP3    H1 8289   6.872   4.001   1.330  1.3625  0.7718 -0.5628
 2775TIP3    H2 8290   6.870   4.059   1.190  0.4204  2.3172  0.0605
 2776TIP3   OH2 8291   2.048   0.195   0.355  0.0829 -0.2154  0.3324
 2776TIP3    H1 8292   2.101   0.160   0.284 -0.1924 -0.4704  0.2479
 2776TIP3    H2 8293   1.976   0.241   0.310 -1.1214 -1.9058  0.3940
 2777TIP3   OH2 8294   2.025   5.809   5.604 -0.1324  0.6561  0.5157
 2777TIP3    H1 8295   1.993   5.758   5.678  0.1856 -0.2887  0.0315
 2777TIP3    H2 8296   1.959   5.876   5.590 -1.6178 -0.8346 -0.0397
 2778TIP3   OH2 8297   1.852   1.173   2.253  0.0066  0.5678 -0.0179
 2778TIP3    H1 8298   1.800   1.169   2.332 -0.6291 -1.1918 -0.4831
 2778TIP3    H2 8299   1.793   1.208   2.186 -0.3635 -0.6724 -0.3602
 2779TIP3   OH2 8300   0.457   4.064   5.051 -1.2350  0.5532  0.0970
 2779TIP3    H1 8301   0.507   3.983   5.047 -0.3024  1.1480 -0.4441
 2779TIP3    H2 8302   0.384   4.043   5.109 -1.7851 -1.0889 -1.0939
 2780TIP3   OH2 8303   3.539   2.079   1.336 -0.3265  0.0088 -0.0091
 2780TIP3    H1 8304   3.612   2.020   1.321  0.2728  0.2466  1.8118
 2780TIP3    H2 8305   3.554   2.116   1.423  1.1251  5.3182 -2.1101
 2781TIP3   OH2 8306   0.833   4.714   2.110 -0.2003 -0.5346  0.1344
 2781TIP3    H1 8307   0.811   4.802   2.081  1.0752 -0.2831 -0.1156
 2781TIP3    H2 8308   0.791   4.705   2.196  0.6239  0.7314  0.6807
 2782TIP3   OH2 8309   1.150   2.946   0.161 -0.5587  0.4715  0.0572
 2782TIP3    H1 8310   1.095   2.940   0.240 -0.6100 -1.4668 -0.0692
 2782TIP3    H2 8311   1.239   2.940   0.194 -0.4540  2.0740  0.1335
 2783TIP3   OH2 8312   1.466   0.297   4.171 -0.5504  0.0485  0.6780
 2783TIP3    H1 8313   1.416   0.372   4.138  0.3246 -0.1219 -1.1411
 2783TIP3    H2 8314   1.555   0.310   4.136 -0.9231 -3.1082 -1.9662
 2784TIP3   OH2 8315   6.932   0.888   4.551  0.2841  0.4028  0.0608
 2784TIP3    H1 8316   6.867   0.930   4.495  0.2887  1.0061  0.5063
 2784TIP3    H2 8317   6.981   0.831   4.491  0.1212  0.8397 -0.5001
 2785TIP3   OH2 8318   3.229   3.321   1.358  0.4745 -0.7845 -0.3222
 2785TIP3    H1 8319   3.154   3.369   1.322 -0.4592 -1.3260  0.8266
 2785TIP3    H2 8320   3.288   3.310   1.283 -0.1991  0.3853 -1.0655
 2786TIP3   OH2 8321   2.682   2.351   0.975  0.2635 -0.3853  0.3601
 2786TIP3    H1 8322   2.711   2.279   0.918 -0.6742  0.4542 -1.2506
 2786TIP3    H2 8323   2.757   2.410   0.980 -0.5569  1.1303 -2.7272
 2787TIP3   OH2 8324   1.289   5.637   2.941  0.1992  0.2195  0.5592
 2787TIP3    H1 8325   1.363   5.594   2.899 -1.3078 -0.6138 -1.4098
 2787TIP3    H2 8326   1.268   5.581   3.016  0.3733 -0.6257 -0.0083
 2788TIP3   OH2 8327   0.872   6.055   3.732 -0.3788 -0.4004 -0.0037
 2788TIP3    H1 8328   0.894   5.984   3.792  0.5956 -0.0275  0.1104
 2788TIP3    H2 8329   0.821   6.014   3.663  3.1420 -2.0538 -1.9326
 2789TIP3   OH2 8330   5.394   2.131   4.497  0.2436  0.1086  0.2811
 2789TIP3    H1 8331   5.380   2.055   4.441  0.0224 -0.0445  0.5382
 2789TIP3    H2 8332   5.437   2.096   4.575  0.2636  0.2674  0.3417
 2790TIP3   OH2 8333   6.825   6.277   5.471  0.2767 -0.1546  0.2713
 2790TIP3    H1 8334   6.776   6.207   5.428  2.6921  0.7119 -4.4880
 2790TIP3    H2 8335   6.906   6.284   5.422  1.9858  3.3512  3.1169
 2791TIP3   OH2 8336   3.097   5.901   3.249  0.4228  0.6655  0.3102
 2791TIP3    H1 8337   3.099   5.810   3.220 -0.1612  0.7412  0.0350
 2791TIP3    H2 8338   3.064   5.896   3.339  0.3927  0.6102  0.2963
 2792TIP3   OH2 8339   6.112   0.765   5.589  0.2643 -0.0123  0.3143
 2792TIP3    H1 8340   6.037   0.706   5.599 -0.7332  1.0047 -0.7958
 2792TIP3    H2 8341   6.118   0.780   5.494  1.6721  0.2007  0.4071
 2793TIP3   OH2 8342   4.230   1.063   0.308  0.6330 -0.3808 -0.6097
 2793TIP3    H1 8343   4.144   1.072   0.267  1.0993  0.4416 -1.4567
 2793TIP3    H2 8344   4.291   1.058   0.234  1.1548 -3.5115 -0.1094
 2794TIP3   OH2 8345   1.192   4.176   1.231  0.0784  0.3260 -0.2130
 2794TIP3    H1 8346   1.268   4.226   1.202 -0.3409  1.0833 -0.0406
 2794TIP3    H2 8347   1.165   4.218   1.313 -0.9662  0.5452 -0.6450
 2795TIP3   OH2 8348   1.400   5.457   1.177 -0.3628 -0.5076  0.4880
 2795TIP3    H1 8349   1.318   5.418   1.146 -0.9009 -0.4582  1.7850
 2795TIP3    H2 8350   1.448   5.384   1.216  1.2685 -1.0150 -2.2254
 2796TIP3   OH2 8351   4.809   3.084   2.230  0.2221  0.1627 -0.1983
 2796TIP3    H1 8352   4.840   3.163   2.274  0.6027 -0.6968  1.1222
 2796TIP3    H2 8353   4.730   3.112   2.184  1.4681  1.7704 -1.4663
 2797TIP3   OH2 8354   2.126   2.767   1.921 -0.3608 -0.6119  0.0703
 2797TIP3    H1 8355   2.196   2.746   1.858 -0.6611 -1.1689 -0.0820
 2797TIP3    H2 8356   2.173   2.787   2.002  0.1477  1.7833 -0.7311
 2798TIP3   OH2 8357   5.161   1.385   5.205  0.6529  0.6921  0.1940
 2798TIP3    H1 8358   5.212   1.465   5.218  0.3689  1.0537 -0.8247
 2798TIP3    H2 8359   5.070   1.412   5.217  0.6322  0.2484  1.0749
 2799TIP3   OH2 8360   2.412   2.494   2.990  0.0941  0.3345 -0.2690
 2799TIP3    H1 8361   2.336   2.499   3.047  0.8068 -1.5289  0.9521
 2799TIP3    H2 8362   2.453   2.581   2.997 -1.1311  0.9001  0.1516
 2800TIP3   OH2 8363   0.513   1.998   2.489  0.3076  0.3087  0.6243
 2800TIP3    H1 8364   0.445   1.963   2.546  0.0124  0.9150  0.6554
 2800TIP3    H2 8365   0.477   2.080   2.456 -0.6867 -1.2813 -2.6030
 2801TIP3   OH2 8366   3.711   0.275   0.329  0.4331  0.4370  0.4197
 2801TIP3    H1 8367   3.794   0.319   0.314  0.6234  1.1954  3.1120
 2801TIP3    H2 8368   3.718   0.240   0.418 -1.7009 -0.4694  0.3055
 2802TIP3   OH2 8369   3.611   1.046   5.422  0.1949 -0.5053 -0.4183
 2802TIP3    H1 8370   3.681   1.051   5.356  1.5679 -0.8357  0.9574
 2802TIP3    H2 8371   3.594   0.953   5.431 -1.5764 -0.3645 -1.8655
 2803TIP3   OH2 8372   3.001   6.364   3.025  0.1420 -0.5551  0.1539
 2803TIP3    H1 8373   2.963   6.295   3.081  0.3550 -0.0467  0.9473
 2803TIP3    H2 8374   3.094   6.366   3.049 -0.2470  1.5249  1.8494
 2804TIP3   OH2 8375   3.137   6.531   0.143 -0.5634 -0.2573 -0.0749
 2804TIP3    H1 8376   3.120   6.568   0.229 -0.8619 -0.8575  0.1304
 2804TIP3    H2 8377   3.051   6.503   0.111 -0.3330 -0.8608 -0.1784
 2805TIP3   OH2 8378   4.272   0.832   5.619 -0.2045  0.3865  0.1380
 2805TIP3    H1 8379   4.271   0.826   5.714  1.1714  2.5107  0.3414
 2805TIP3    H2 8380   4.190   0.790   5.592 -0.6365 -0.2412  2.2353
 2806TIP3   OH2 8381   1.504   4.957   5.268  0.5339  0.4052  0.6490
 2806TIP3    H1 8382   1.436   4.932   5.206  0.3603 -1.3789  1.4929
 2806TIP3    H2 8383   1.568   5.004   5.216  0.3309 -0.9241 -0.8749
 2807TIP3   OH2 8384   5.239   6.306   2.375 -0.3435  0.4250 -0.0448
 2807TIP3    H1 8385   5.262   6.314   2.283 -2.4731  1.6460 -0.5320
 2807TIP3    H2 8386   5.144   6.319   2.378 -0.3620  0.2502  2.3086
 2808TIP3   OH2 8387   3.741   4.466   0.079  0.0394 -0.5470  0.8053
 2808TIP3    H1 8388   3.685   4.398   0.040 -0.6488  0.9723 -1.0452
 2808TIP3    H2 8389   3.749   4.533   0.010  3.5843 -0.3330  1.2160
 2809TIP3   OH2 8390   0.687   3.337   3.470 -0.1975  0.1059 -0.1333
 2809TIP3    H1 8391   0.773   3.311   3.502 -0.1879  0.8352  0.4834
 2809TIP3    H2 8392   0.640   3.366   3.549 -0.5320  0.9891 -0.6422
 2810TIP3   OH2 8393   6.153   4.751   3.786 -0.4137 -0.4104  0.5325
 2810TIP3    H1 8394   6.246   4.731   3.778 -0.8221 -2.5226  0.3097
 2810TIP3    H2 8395   6.130   4.721   3.874 -1.1334 -1.2072  0.0888
 2811TIP3   OH2 8396   2.742   3.312   3.482 -0.2576 -0.1947  0.6943
 2811TIP3    H1 8397   2.792   3.282   3.405 -0.4423  0.0815  0.4668
 2811TIP3    H2 8398   2.651   3.295   3.459 -0.6641  3.2384 -0.6869
 2812TIP3   OH2 8399   2.336   6.387   0.046 -0.1994  0.6428 -0.4510
 2812TIP3    H1 8400   2.260   6.440   0.024 -1.6995 -1.2753 -0.2031
 2812TIP3    H2 8401   2.363   6.350  -0.038  0.0164  0.7674 -0.4359
 2813TIP3   OH2 8402   5.161   2.629   0.208 -0.5801 -0.0256 -0.1275
 2813TIP3    H1 8403   5.119   2.708   0.174 -0.6941  0.1378  0.3711
 2813TIP3    H2 8404   5.119   2.557   0.161  0.6432  0.2727 -1.7353
 2814TIP3   OH2 8405   3.808   6.525   2.990  0.0545  0.1904 -0.4030
 2814TIP3    H1 8406   3.818   6.442   3.035  0.5324 -0.0867 -1.0121
 2814TIP3    H2 8407   3.758   6.580   3.051  4.0492  1.2646  2.3456
 2815TIP3   OH2 8408   2.117   4.662   3.931  0.4808 -0.1813 -0.2209
 2815TIP3    H1 8409   2.144   4.733   3.989 -0.3309 -0.7167  0.8503
 2815TIP3    H2 8410   2.046   4.700   3.879  0.5267  0.0100 -0.1466
 2816TIP3   OH2 8411   2.909   0.381   1.195  0.3200  0.1812 -0.7506
 2816TIP3    H1 8412   2.890   0.450   1.259 -0.0309  0.5715 -1.2650
 2816TIP3    H2 8413   2.874   0.301   1.235  2.1924 -0.0213  0.5992
 2817TIP3   OH2 8414   3.377   4.787   1.701 -0.0052 -0.2928 -0.2376
 2817TIP3    H1 8415   3.457   4.748   1.736  0.9817  1.3962 -0.5005
 2817TIP3    H2 8416   3.347   4.846   1.770 -1.5262 -1.5211  0.1948
 2818TIP3   OH2 8417   5.582   3.337   1.054  0.2342 -0.4838  0.4253
 2818TIP3    H1 8418   5.628   3.287   0.986 -0.8349  2.3837 -2.6801
 2818TIP3    H2 8419   5.496   3.295   1.059  0.7141 -1.4352  0.9032
 2819TIP3   OH2 8420   3.831   3.585   5.625 -0.6766  0.4071  0.5938
 2819TIP3    H1 8421   3.864   3.500   5.597  0.6047  1.3699 -1.0348
 2819TIP3    H2 8422   3.752   3.599   5.574 -0.7509  0.3106  0.6814
 2820TIP3   OH2 8423   6.294   6.292   4.495  0.2733  0.0901 -0.8890
 2820TIP3    H1 8424   6.339   6.371   4.466  0.3258  0.6246  0.5834
 2820TIP3    H2 8425   6.307   6.230   4.423  0.9637  1.1322 -1.6990
 2821TIP3   OH2 8426   4.746   4.342   2.947 -0.2943 -0.1946  0.0260
 2821TIP3    H1 8427   4.803   4.276   2.985 -4.3903 -3.8742  0.5730
 2821TIP3    H2 8428   4.709   4.388   3.023 -0.1454  0.2214 -0.1516
 2822TIP3   OH2 8429   2.219   6.337   4.894 -0.1780  0.6417 -0.0115
 2822TIP3    H1 8430   2.305   6.377   4.897 -0.8642  2.4004 -1.7093
 2822TIP3    H2 8431   2.231   6.256   4.844  1.0168 -0.8441  2.5113
 2823TIP3   OH2 8432   5.167   2.075   5.449 -0.0853  0.4119  0.4796
 2823TIP3    H1 8433   5.161   2.038   5.537 -0.9585  0.9277  0.6520
 2823TIP3    H2 8434   5.260   2.079   5.430  0.0723 -2.1389  0.3383
 2824TIP3   OH2 8435   3.234   0.987   1.156  0.3481  0.5465  0.3305
 2824TIP3    H1 8436   3.328   0.993   1.173  0.0310  1.4835  1.8719
 2824TIP3    H2 8437   3.212   1.069   1.113 -0.1715  1.4361  2.1983
 2825TIP3   OH2 8438   3.776   2.040   3.990  0.5343  0.1096  0.4815
 2825TIP3    H1 8439   3.829   1.974   4.035  0.6903  0.2530  0.5069
 2825TIP3    H2 8440   3.835   2.114   3.975  0.8449 -0.4346 -1.1440
 2826TIP3   OH2 8441   1.968   3.788   0.883 -0.3981 -0.3727  0.1438
 2826TIP3    H1 8442   2.010   3.709   0.916  1.5665  0.5386 -0.0225
 2826TIP3    H2 8443   2.041   3.847   0.864 -1.5999  0.2809 -2.9318
 2827TIP3   OH2 8444   2.678   5.499   0.840  0.0740 -0.0109  0.1151
 2827TIP3    H1 8445   2.705   5.591   0.831 -0.0390 -0.1368 -2.0452
 2827TIP3    H2 8446   2.604   5.490   0.779 -0.4226 -1.3504  0.8779
 2828TIP3   OH2 8447   0.407   1.678   4.741  0.2086  0.8968 -0.9362
 2828TIP3    H1 8448   0.352   1.751   4.710  0.3525  1.5262  0.2573
 2828TIP3    H2 8449   0.477   1.720   4.791 -0.4575 -0.0993  0.9362
 2829TIP3   OH2 8450   0.868   5.434   5.013  0.0514  0.1848 -0.3530
 2829TIP3    H1 8451   0.816   5.389   5.080  0.2861  2.0323  1.1658
 2829TIP3    H2 8452   0.820   5.516   4.997  1.1674  0.7698 -0.8204
 2830TIP3   OH2 8453   0.063   2.351   2.963 -0.5632  0.0514  0.2300
 2830TIP3    H1 8454   0.147   2.313   2.937 -1.2037 -0.0870 -1.8741
 2830TIP3    H2 8455   0.053   2.427   2.906 -1.3731  0.7232  1.2285
 2831TIP3   OH2 8456   3.288   4.001   0.346 -0.0214  0.9388 -0.0503
 2831TIP3    H1 8457   3.320   4.077   0.298 -0.5350  1.0458 -0.2375
 2831TIP3    H2 8458   3.193   4.003   0.333 -0.2904  1.4729  1.7092
 2832TIP3   OH2 8459   1.540   0.701   2.556  0.3066 -0.1958  0.1901
 2832TIP3    H1 8460   1.607   0.741   2.500  1.7971 -3.0959 -0.3183
 2832TIP3    H2 8461   1.460   0.750   2.537  1.9140  2.4044 -0.3689
 2833TIP3   OH2 8462   1.476   4.015   0.703 -0.0230 -0.6341  0.1156
 2833TIP3    H1 8463   1.407   4.039   0.766  0.0016 -0.5155  0.0987
 2833TIP3    H2 8464   1.471   3.920   0.697 -0.3641 -0.6027 -0.0933
 2834TIP3   OH2 8465   4.816   5.969   3.350 -0.4600  0.4281 -0.0072
 2834TIP3    H1 8466   4.812   5.894   3.409  1.2944  1.3240  1.3285
 2834TIP3    H2 8467   4.727   6.003   3.348 -0.9869 -0.8656  0.4387
 2835TIP3   OH2 8468   4.100   2.278   4.473  0.7086 -0.2685  0.1884
 2835TIP3    H1 8469   4.145   2.259   4.555 -0.0251 -1.1439  0.4097
 2835TIP3    H2 8470   4.030   2.213   4.469  0.3054  0.2080 -0.7970
 2836TIP3   OH2 8471   5.108   3.718   1.086 -0.4957  0.1742  0.0755
 2836TIP3    H1 8472   5.189   3.677   1.054 -0.9364 -0.5854 -0.0866
 2836TIP3    H2 8473   5.057   3.646   1.121 -0.6718  0.7911  1.1310
 2837TIP3   OH2 8474   6.907   6.537   4.181  0.0406  0.3604  0.1117
 2837TIP3    H1 8475   6.816   6.552   4.206 -1.3386 -1.3554 -3.2699
 2837TIP3    H2 8476   6.935   6.620   4.142 -1.1142  0.0765 -1.4096
 2838TIP3   OH2 8477   2.255   0.080   5.823  0.0706  0.7411 -0.5933
 2838TIP3    H1 8478   2.227   0.171   5.840  0.4566  0.6545  0.5801
 2838TIP3    H2 8479   2.350   0.081   5.836 -0.0709 -0.0826  0.6521
 2839TIP3   OH2 8480   1.543   4.559   0.538  0.1575  0.1770 -0.2519
 2839TIP3    H1 8481   1.592   4.638   0.560 -1.2031  0.8412  0.5611
 2839TIP3    H2 8482   1.562   4.543   0.446  1.7681  0.4695 -0.0002
 2840TIP3   OH2 8483   3.863   3.486   3.715  0.6139 -0.3957 -0.4115
 2840TIP3    H1 8484   3.898   3.531   3.638  2.1553 -0.3390  0.2768
 2840TIP3    H2 8485   3.891   3.540   3.789 -0.1484 -0.8729  0.2427
 2841TIP3   OH2 8486   3.005   2.406   2.130  0.0406 -0.3304  0.8296
 2841TIP3    H1 8487   3.070   2.337   2.116  1.5927  1.4696 -1.6223
 2841TIP3    H2 8488   3.044   2.462   2.197 -0.8660 -1.3324  2.2484
 2842TIP3   OH2 8489   0.889   2.716   0.857  0.2957  0.3905 -0.7750
 2842TIP3    H1 8490   0.941   2.684   0.931 -0.6262 -0.7762 -0.6071
 2842TIP3    H2 8491   0.845   2.793   0.891 -0.8561 -0.6729  0.2227
 2843TIP3   OH2 8492   3.320   1.616   3.855  0.3893  0.6560 -0.3277
 2843TIP3    H1 8493   3.330   1.666   3.774  0.2602 -0.1088 -0.8213
 2843TIP3    H2 8494   3.286   1.531   3.827  0.0161  0.5005  0.5604
 2844TIP3   OH2 8495   1.017   4.987   4.802  0.5455 -0.0222 -0.6775
 2844TIP3    H1 8496   1.017   4.980   4.897  0.5818  0.4713 -0.6403
 2844TIP3    H2 8497   1.056   4.905   4.772  1.1401  0.0958 -0.2488
 2845TIP3   OH2 8498   2.259   0.217   4.101 -0.3010 -0.0509  0.1933
 2845TIP3    H1 8499   2.329   0.179   4.155  0.4833 -0.3102 -0.9536
 2845TIP3    H2 8500   2.297   0.298   4.067 -0.0534 -0.8195 -1.4550
 2846TIP3   OH2 8501   3.930   3.541   1.629 -0.6168 -0.2664 -0.7755
 2846TIP3    H1 8502   3.872   3.471   1.600 -1.0178 -0.3622  0.2071
 2846TIP3    H2 8503   3.929   3.605   1.558  1.4654 -2.1916 -2.6823
 2847TIP3   OH2 8504   2.313   5.109   1.904 -0.5886  0.1653  0.4171
 2847TIP3    H1 8505   2.270   5.121   1.819  0.3647  0.9101  0.0313
 2847TIP3    H2 8506   2.272   5.174   1.961  0.5258  1.4148 -0.1567
 2848TIP3   OH2 8507   7.188   0.507   3.427 -0.1643 -0.0178  0.3660
 2848TIP3    H1 8508   7.254   0.541   3.487  0.2848 -2.8632  1.6279
 2848TIP3    H2 8509   7.124   0.464   3.484 -1.2820 -0.2763 -1.0356
 2849TIP3   OH2 8510   2.201   3.910   3.519  0.2031 -0.3980 -0.1735
 2849TIP3    H1 8511   2.286   3.901   3.562 -0.1512  1.1337  0.9319
 2849TIP3    H2 8512   2.204   3.996   3.477 -0.8542 -0.2366  0.0511
 2850TIP3   OH2 8513   2.796   2.350   3.622  0.2044  0.0498 -0.4422
 2850TIP3    H1 8514   2.876   2.398   3.642  0.3577  0.0194 -0.9719
 2850TIP3    H2 8515   2.726   2.412   3.642  0.3235 -0.1224  0.5887
 2851TIP3   OH2 8516   3.849   4.219   5.740 -0.2403 -0.0150  0.2184
 2851TIP3    H1 8517   3.872   4.260   5.657 -1.0415 -2.0802 -1.1053
 2851TIP3    H2 8518   3.794   4.283   5.785 -0.8116  0.6672 -1.4070
 2852TIP3   OH2 8519   2.564   3.627   0.164 -0.4739  0.2765  0.7899
 2852TIP3    H1 8520   2.513   3.707   0.152 -0.7187 -0.1102 -1.0094
 2852TIP3    H2 8521   2.623   3.624   0.089  0.4035 -0.6058  1.4885
 2853TIP3   OH2 8522   5.011   0.771   2.358 -0.6176  0.5608 -1.0131
 2853TIP3    H1 8523   4.938   0.746   2.414  0.1944  3.0519  1.4046
 2853TIP3    H2 8524   4.977   0.840   2.302 -0.4898  0.8292 -0.7700
 2854TIP3   OH2 8525   6.069   6.395   3.364 -0.2595 -0.1493 -0.0246
 2854TIP3    H1 8526   6.028   6.403   3.450  0.1624  0.3323  0.1406
 2854TIP3    H2 8527   5.996   6.382   3.303 -0.5814 -0.2303  0.3757
 2855TIP3   OH2 8528   1.734   5.030   2.619  0.2143  0.0011 -0.6816
 2855TIP3    H1 8529   1.654   5.079   2.602  0.6983  0.8366 -0.5846
 2855TIP3    H2 8530   1.771   5.069   2.698 -0.5615 -2.0262  0.7619
 2856TIP3   OH2 8531   2.020   4.836   4.219  0.4763  0.3404 -0.0650
 2856TIP3    H1 8532   2.005   4.906   4.282 -0.1396  2.0406 -1.9729
 2856TIP3    H2 8533   2.091   4.869   4.163  0.0611 -0.4898 -1.1117
 2857TIP3   OH2 8534   4.045   3.032   4.049  0.1216  0.4426  0.5009
 2857TIP3    H1 8535   4.012   3.115   4.015 -2.5921 -1.1836 -1.2519
 2857TIP3    H2 8536   3.978   3.003   4.111  1.1689 -0.3603  1.2978
 2858TIP3   OH2 8537   6.106   1.616   1.678  0.1916  0.4438 -0.5069
 2858TIP3    H1 8538   6.147   1.619   1.764  1.5019  1.0011 -1.1365
 2858TIP3    H2 8539   6.057   1.533   1.678  0.5390  0.2217  0.5991
 2859TIP3   OH2 8540   1.826   5.063   3.322  0.4562 -0.0774  0.7099
 2859TIP3    H1 8541   1.843   5.044   3.230 -1.1630  1.5139  0.0321
 2859TIP3    H2 8542   1.747   5.014   3.343 -0.2857  1.0898  0.6815
 2860TIP3   OH2 8543   5.163   3.853   5.707  0.2305 -0.3515 -0.3797
 2860TIP3    H1 8544   5.231   3.842   5.773 -1.3947  3.0153  2.1404
 2860TIP3    H2 8545   5.111   3.773   5.711  1.8241 -1.3914  0.2969
 2861TIP3   OH2 8546   5.230   0.580   5.157  0.1207 -0.5491  0.3227
 2861TIP3    H1 8547   5.209   0.538   5.240  1.5196  0.1121  1.0525
 2861TIP3    H2 8548   5.279   0.514   5.108  1.0605 -0.2941  0.8822
 2862TIP3   OH2 8549   4.489   2.970   4.346 -0.1384 -0.6511  0.2020
 2862TIP3    H1 8550   4.511   2.881   4.371 -0.9617 -0.5919  1.2438
 2862TIP3    H2 8551   4.447   2.962   4.260 -1.4760 -1.4599  0.9005
 2863TIP3   OH2 8552   2.599   6.005   4.136  0.0491  0.0335  0.0352
 2863TIP3    H1 8553   2.656   6.063   4.187 -1.5824  0.6407  1.2486
 2863TIP3    H2 8554   2.585   6.053   4.054 -0.1246  0.6974  0.4445
 2864TIP3   OH2 8555   4.715   1.598   2.565 -0.0498 -0.7302 -0.2372
 2864TIP3    H1 8556   4.670   1.514   2.568 -2.0733  0.2950  0.0344
 2864TIP3    H2 8557   4.715   1.622   2.472 -1.4202 -0.0982 -0.1063
 2865TIP3   OH2 8558   6.243   4.451   5.746  0.1019  0.5322 -0.3945
 2865TIP3    H1 8559   6.194   4.461   5.664  0.5432 -0.4455 -0.7966
 2865TIP3    H2 8560   6.235   4.358   5.767  0.3000  0.7090  0.4838
 2866TIP3   OH2 8561   2.438   2.086   1.680  0.2444 -0.2861  0.4297
 2866TIP3    H1 8562   2.506   2.152   1.668  0.5166 -0.6045  0.1729
 2866TIP3    H2 8563   2.446   2.059   1.771  1.3299 -1.2388  0.0774
 2867TIP3   OH2 8564   4.338   4.195   2.035 -0.4460 -0.8346  0.4166
 2867TIP3    H1 8565   4.283   4.155   2.103  0.9772 -3.0589  0.3902
 2867TIP3    H2 8566   4.428   4.178   2.065  0.2794  1.7099 -0.0673
 2868TIP3   OH2 8567   6.912   4.039   5.174  0.3304  0.7302  0.3237
 2868TIP3    H1 8568   6.941   3.949   5.159  2.3274  1.5790 -1.4440
 2868TIP3    H2 8569   6.819   4.031   5.197  1.0186 -1.9145  2.7757
 2869TIP3   OH2 8570   1.389   5.103   3.585 -0.4976 -0.3227 -0.3122
 2869TIP3    H1 8571   1.444   5.078   3.659 -1.5403 -2.0011 -0.0536
 2869TIP3    H2 8572   1.436   5.176   3.544  1.0224 -0.5625  0.8978
 2870TIP3   OH2 8573   2.606   6.334   3.611 -0.1070  0.0136  0.3655
 2870TIP3    H1 8574   2.520   6.318   3.573 -1.1389 -0.1254  2.5862
 2870TIP3    H2 8575   2.624   6.426   3.594  0.0421 -0.3138 -1.4330
 2871TIP3   OH2 8576   5.219   3.738   0.335  0.1096  0.4306 -0.6708
 2871TIP3    H1 8577   5.205   3.708   0.425 -0.3606 -0.8906 -1.1737
 2871TIP3    H2 8578   5.178   3.825   0.333  2.2014  1.5648  1.0106
 2872TIP3   OH2 8579   5.874   0.923   4.433 -0.3624  0.2523 -0.1336
 2872TIP3    H1 8580   5.795   0.967   4.403 -1.3342 -1.3667 -0.1061
 2872TIP3    H2 8581   5.918   0.986   4.489 -1.2832  1.4250 -0.6925
 2873TIP3   OH2 8582   5.669   0.518   5.455  0.1267  0.1730 -0.2229
 2873TIP3    H1 8583   5.598   0.574   5.425 -0.9064 -0.8166  0.2846
 2873TIP3    H2 8584   5.744   0.544   5.402 -0.7219  0.9360 -1.1005
 2874TIP3   OH2 8585   3.049   0.735   4.776  0.2121  0.1355 -0.2723
 2874TIP3    H1 8586   2.998   0.791   4.718  0.4441  0.4340 -0.1888
 2874TIP3    H2 8587   3.070   0.791   4.851  2.4732  0.7024 -1.2439
 2875TIP3   OH2 8588   2.069   0.463   4.486  0.4088  0.4715  0.4629
 2875TIP3    H1 8589   2.020   0.497   4.561  3.1237  1.7891  1.8103
 2875TIP3    H2 8590   2.099   0.377   4.514 -0.4544 -0.0016 -0.0448
 2876TIP3   OH2 8591   3.619   6.259   2.364 -0.0089 -0.6305 -0.4062
 2876TIP3    H1 8592   3.566   6.278   2.442 -0.3571 -1.0780 -0.5378
 2876TIP3    H2 8593   3.556   6.235   2.297  0.1837  0.9557 -1.2029
 2877TIP3   OH2 8594   1.622   2.262   0.199 -0.2026  0.2707  0.2216
 2877TIP3    H1 8595   1.697   2.274   0.140 -0.1842  0.6587  0.3213
 2877TIP3    H2 8596   1.646   2.187   0.253  1.2834  1.9399  2.0274
 2878TIP3   OH2 8597   0.735   1.849   1.562 -0.7196 -1.0075  0.3915
 2878TIP3    H1 8598   0.818   1.809   1.533  0.5756  1.0908  0.9616
 2878TIP3    H2 8599   0.709   1.906   1.489 -1.7337 -1.7140  0.1826
 2879TIP3   OH2 8600   0.992   2.067   0.201  0.7671 -0.5576  0.0767
 2879TIP3    H1 8601   1.085   2.049   0.188  0.8332  0.4653 -1.0398
 2879TIP3    H2 8602   0.984   2.162   0.197 -0.6072 -0.6937 -2.2110
 2880TIP3   OH2 8603   4.074   3.708   2.977 -0.6187 -0.5779 -0.6627
 2880TIP3    H1 8604   4.166   3.716   2.949  0.2580  1.1404  2.3073
 2880TIP3    H2 8605   4.033   3.790   2.949 -1.0196 -0.9021 -1.0513
 2881TIP3   OH2 8606   3.374   1.824   3.122 -0.2657  0.4415 -0.7376
 2881TIP3    H1 8607   3.445   1.768   3.092 -0.0931  0.7903 -0.9895
 2881TIP3    H2 8608   3.307   1.816   3.054  0.4596  1.8826 -1.6986
 2882TIP3   OH2 8609   6.353   4.999   3.718 -0.2500  0.0193 -1.0077
 2882TIP3    H1 8610   6.434   4.966   3.757 -0.7213  0.8155  0.7348
 2882TIP3    H2 8611   6.368   4.995   3.624  0.5521 -2.9732 -0.8390
 2883TIP3   OH2 8612   6.327   6.230   4.224 -0.1054 -1.0112 -0.1992
 2883TIP3    H1 8613   6.239   6.234   4.186 -0.0665 -0.7264 -0.2654
 2883TIP3    H2 8614   6.385   6.227   4.147  0.0017  0.1415 -0.1819
 2884TIP3   OH2 8615   6.364   4.703   5.125 -0.7225 -0.7203 -0.3158
 2884TIP3    H1 8616   6.284   4.728   5.080  0.5107  3.6476 -0.6050
 2884TIP3    H2 8617   6.426   4.681   5.054 -0.6156 -0.3292 -0.3458
 2885TIP3   OH2 8618   7.205   6.578   5.253  0.0546 -0.2628 -0.1548
 2885TIP3    H1 8619   7.143   6.519   5.295  0.2755 -0.8573 -0.6528
 2885TIP3    H2 8620   7.162   6.603   5.171  1.0731 -1.8667 -1.2358
 2886TIP3   OH2 8621   0.099   3.070   5.007  0.2487  0.2381  0.0155
 2886TIP3    H1 8622   0.136   3.009   4.943  1.2956 -0.2496  1.0614
 2886TIP3    H2 8623   0.118   3.157   4.971 -2.0712  0.0335 -1.9592
 2887TIP3   OH2 8624   2.212   3.192   0.937  0.4506  0.8265  0.2158
 2887TIP3    H1 8625   2.283   3.127   0.935  0.6754  0.8520  3.2924
 2887TIP3    H2 8626   2.157   3.169   0.862  1.7522 -1.4843 -0.1293
 2888TIP3   OH2 8627   0.303   5.415   3.788  0.3159  0.0678 -0.2483
 2888TIP3    H1 8628   0.217   5.439   3.755  0.3663  1.7049  0.7274
 2888TIP3    H2 8629   0.362   5.483   3.756  0.7059  0.6241  1.5432
 2889TIP3   OH2 8630   2.291   1.586   3.694 -0.0380  0.0764  0.2969
 2889TIP3    H1 8631   2.352   1.652   3.661  0.8306  0.3729  2.3413
 2889TIP3    H2 8632   2.209   1.633   3.705  0.2033  0.4770  0.4336
 2890TIP3   OH2 8633   2.546   5.042   2.682 -0.3187 -0.0267  0.3782
 2890TIP3    H1 8634   2.503   4.972   2.731 -1.6187  0.4814  0.0211
 2890TIP3    H2 8635   2.606   5.082   2.744 -1.7616  0.4525  1.5308
 2891TIP3   OH2 8636   0.534   0.124   2.299  0.0240 -0.8532  0.0177
 2891TIP3    H1 8637   0.444   0.157   2.299  0.1949 -0.3883  0.4159
 2891TIP3    H2 8638   0.589   0.202   2.305  0.4382 -1.1996  0.8037
 2892TIP3   OH2 8639   2.511   5.748   0.318  0.9983 -0.5570 -0.2519
 2892TIP3    H1 8640   2.433   5.776   0.270  0.4853 -2.2498 -0.4950
 2892TIP3    H2 8641   2.583   5.793   0.275  0.2945 -0.1119 -1.0018
 2893TIP3   OH2 8642   3.583   0.969   1.561  0.0586  0.3365 -0.2780
 2893TIP3    H1 8643   3.507   0.916   1.536 -0.5826  1.5768 -1.0621
 2893TIP3    H2 8644   3.579   0.973   1.657 -0.0410 -0.7655 -0.2224
 2894TIP3   OH2 8645   6.833   0.757   1.046  0.8215  0.0387  0.2963
 2894TIP3    H1 8646   6.747   0.737   1.082  1.3697 -1.5384  0.8402
 2894TIP3    H2 8647   6.894   0.717   1.108  1.9735  1.5311  0.1711
 2895TIP3   OH2 8648   5.507   6.065   4.392 -0.2991 -0.2817  0.2308
 2895TIP3    H1 8649   5.425   6.083   4.437  0.1255 -1.9090  1.7798
 2895TIP3    H2 8650   5.536   6.150   4.359 -0.9929  0.8830  2.4647
 2896TIP3   OH2 8651   2.713   6.456   5.734  0.2410  0.4041 -0.3055
 2896TIP3    H1 8652   2.651   6.401   5.782  0.5329  0.2211 -0.1379
 2896TIP3    H2 8653   2.740   6.402   5.659  0.4771  0.3414 -0.1766
 2897TIP3   OH2 8654   3.985   1.575   3.330 -0.1085  0.7804  0.0348
 2897TIP3    H1 8655   3.945   1.497   3.369  0.1220  0.8499  0.4193
 2897TIP3    H2 8656   3.950   1.578   3.241 -0.1737  0.2730  0.0360
 2898TIP3   OH2 8657   3.853   2.111   1.566  0.6821 -0.0334 -0.5507
 2898TIP3    H1 8658   3.857   2.198   1.528  0.7431  0.2986  0.1988
 2898TIP3    H2 8659   3.760   2.094   1.577  0.6121 -0.5522 -1.7682
 2899TIP3   OH2 8660   4.600   6.328   3.659  0.3256  0.6181  0.2317
 2899TIP3    H1 8661   4.535   6.327   3.730 -1.2810  2.4931 -1.1204
 2899TIP3    H2 8662   4.557   6.374   3.587  2.3728 -0.0720 -1.5416
 2900TIP3   OH2 8663   6.845   2.799   1.987 -0.0713  0.3853 -0.3966
 2900TIP3    H1 8664   6.881   2.814   2.075  1.3455 -1.7124 -0.5420
 2900TIP3    H2 8665   6.880   2.872   1.935 -1.6982  2.1994  0.9045
 2901TIP3   OH2 8666   3.311   6.361   5.092 -0.1606 -0.0550  0.4344
 2901TIP3    H1 8667   3.260   6.405   5.024 -0.1731 -0.1284  0.3964
 2901TIP3    H2 8668   3.297   6.414   5.171  0.2714  0.3265  0.2598
 2902TIP3   OH2 8669   6.396   0.675   0.149 -0.1167 -0.2353 -0.1274
 2902TIP3    H1 8670   6.466   0.637   0.202  0.7559  0.4989 -0.7361
 2902TIP3    H2 8671   6.397   0.768   0.170 -2.2499 -0.4796  1.3584
 2903TIP3   OH2 8672   1.284   3.399   0.821 -0.2004  0.2188 -0.1080
 2903TIP3    H1 8673   1.306   3.306   0.826  4.2321  1.0161 -0.8609
 2903TIP3    H2 8674   1.237   3.407   0.737  0.4252 -1.1691 -0.6276
 2904TIP3   OH2 8675   0.441   0.147   1.459 -0.0994 -0.4614 -0.1010
 2904TIP3    H1 8676   0.436   0.121   1.551 -0.3842 -0.6510 -0.1673
 2904TIP3    H2 8677   0.458   0.065   1.412  2.5956 -0.0470 -0.0208
 2905TIP3   OH2 8678   4.811   0.147   4.399  0.0720  0.3848  0.0446
 2905TIP3    H1 8679   4.879   0.202   4.438 -1.0514  1.5448  0.4233
 2905TIP3    H2 8680   4.845   0.058   4.408  1.6646  0.9471 -0.0333
 2906TIP3   OH2 8681   1.532   0.508   2.746  0.0079 -0.4131  0.0584
 2906TIP3    H1 8682   1.626   0.508   2.762 -0.1555 -0.2120  1.0429
 2906TIP3    H2 8683   1.519   0.575   2.679  0.5700 -0.4910 -0.1321
 2907TIP3   OH2 8684   2.653   3.990   3.607  0.1044  0.2458  0.1802
 2907TIP3    H1 8685   2.669   4.020   3.696  1.0745 -0.5523  0.2879
 2907TIP3    H2 8686   2.633   4.070   3.558  1.5108  0.9392  0.6912
 2908TIP3   OH2 8687   6.323   2.334   2.362  0.2401 -0.4292  0.3604
 2908TIP3    H1 8688   6.234   2.321   2.396  0.6158 -1.6223  0.9399
 2908TIP3    H2 8689   6.311   2.388   2.283 -1.3440 -2.9292 -1.2567
 2909TIP3   OH2 8690   4.690   4.308   2.294  0.4677  0.6313 -0.1313
 2909TIP3    H1 8691   4.658   4.381   2.241 -1.0613  1.7178  2.1241
 2909TIP3    H2 8692   4.634   4.309   2.371  1.1403 -2.2806  0.4841
 2910TIP3   OH2 8693   6.697   4.866   1.913 -0.6179  0.1797 -0.7668
 2910TIP3    H1 8694   6.704   4.875   2.008 -1.2972 -0.1378 -0.6815
 2910TIP3    H2 8695   6.761   4.928   1.878 -0.3634  0.2938 -0.1013
 2911TIP3   OH2 8696   3.420   1.452   2.763  0.2513 -0.3707 -0.3830
 2911TIP3    H1 8697   3.385   1.418   2.681 -1.2405 -1.7147  0.7434
 2911TIP3    H2 8698   3.365   1.529   2.782 -0.2467 -0.8104 -0.0237
 2912TIP3   OH2 8699   4.237   0.234   4.583 -0.7138 -1.1263 -0.1591
 2912TIP3    H1 8700   4.159   0.284   4.605  0.1722  0.4348 -0.4031
 2912TIP3    H2 8701   4.262   0.264   4.496  0.1006 -1.6788 -0.1343
 2913TIP3   OH2 8702   6.383   5.384   3.078 -0.1041  1.2135 -0.5128
 2913TIP3    H1 8703   6.477   5.370   3.093 -0.3808 -1.0041 -0.5815
 2913TIP3    H2 8704   6.369   5.355   2.987 -1.0810  0.1346 -0.0436
 2914TIP3   OH2 8705   0.792   5.104   0.103  0.0422 -0.4843 -0.3813
 2914TIP3    H1 8706   0.729   5.174   0.115  0.3374 -0.3906  0.6928
 2914TIP3    H2 8707   0.852   5.136   0.035  0.2216  0.3441  0.1560
 2915TIP3   OH2 8708   6.902   3.367   2.420 -0.2712 -0.5676  0.1806
 2915TIP3    H1 8709   6.855   3.289   2.390 -0.4662 -0.1805 -0.5384
 2915TIP3    H2 8710   6.884   3.371   2.514 -1.4709 -0.5753 -0.0306
 2916TIP3   OH2 8711   5.348   4.097   2.291  0.9573  0.5866  0.0249
 2916TIP3    H1 8712   5.429   4.073   2.337  0.2301  1.4884  1.8896
 2916TIP3    H2 8713   5.317   4.175   2.337 -1.6659 -0.4705  0.2306
 2917TIP3   OH2 8714   5.422   3.028   1.195  0.2585 -0.0889 -0.0183
 2917TIP3    H1 8715   5.334   3.004   1.222  0.2799  0.3603  0.4835
 2917TIP3    H2 8716   5.411   3.072   1.111  0.0303 -0.2526 -0.0724
 2918TIP3   OH2 8717   0.455   1.266   4.894  0.0953 -0.6549 -0.1971
 2918TIP3    H1 8718   0.392   1.312   4.950 -0.9652 -1.2209 -0.8866
 2918TIP3    H2 8719   0.438   1.173   4.911  0.8998 -0.8110 -0.2373
 2919TIP3   OH2 8720   2.618   2.838   0.940  0.0385  0.3617 -0.2920
 2919TIP3    H1 8721   2.671   2.802   1.011 -0.1545  0.2768 -0.1889
 2919TIP3    H2 8722   2.655   2.924   0.923  1.3618 -0.3884 -1.4426
 2920TIP3   OH2 8723   0.588   1.249   3.746  0.0464 -0.8993  0.0311
 2920TIP3    H1 8724   0.609   1.294   3.828  3.7664  1.1012 -1.7542
 2920TIP3    H2 8725   0.531   1.310   3.699  1.7355  0.2227 -0.6784
 2921TIP3   OH2 8726   5.054   0.573   4.308 -0.2147  0.2249  0.5434
 2921TIP3    H1 8727   5.134   0.622   4.327  0.3720 -0.5688  0.1687
 2921TIP3    H2 8728   4.988   0.612   4.366  0.5481  0.5776  1.1929
 2922TIP3   OH2 8729   4.727   5.265   5.587  0.5441  0.0413  0.4025
 2922TIP3    H1 8730   4.802   5.321   5.606 -0.8844  1.5444  1.9257
 2922TIP3    H2 8731   4.696   5.237   5.673 -0.1723 -1.2474 -0.2412
 2923TIP3   OH2 8732   4.125   4.267   2.878  0.2653  0.2878  0.0588
 2923TIP3    H1 8733   4.090   4.224   2.956 -0.2538  0.1238 -0.2542
 2923TIP3    H2 8734   4.068   4.237   2.807  1.1628 -0.1443 -0.5028
 2924TIP3   OH2 8735   2.657   0.769   4.404 -0.4877  0.6943 -0.1573
 2924TIP3    H1 8736   2.576   0.794   4.449 -0.7517 -0.6773  0.1849
 2924TIP3    H2 8737   2.633   0.692   4.353 -0.5287  2.8473 -3.7479
 2925TIP3   OH2 8738   4.647   5.439   4.782 -0.1076  0.6179  0.5230
 2925TIP3    H1 8739   4.615   5.502   4.847 -1.4589 -0.0066  0.5041
 2925TIP3    H2 8740   4.634   5.354   4.824  0.4305  0.2859  0.0199
 2926TIP3   OH2 8741   6.417   1.139   5.675  0.2176 -0.2173 -0.0005
 2926TIP3    H1 8742   6.441   1.141   5.768 -2.5243  1.1969  0.7699
 2926TIP3    H2 8743   6.357   1.065   5.666  0.0296 -0.0117 -0.5130
 2927TIP3   OH2 8744   5.604   5.939   2.287 -0.2433 -0.1179 -0.1135
 2927TIP3    H1 8745   5.519   5.928   2.246 -0.7614  2.0868  0.2319
 2927TIP3    H2 8746   5.664   5.954   2.214  0.0596 -2.4801 -0.4148
 2928TIP3   OH2 8747   6.638   3.871   0.140  0.4773 -0.2694 -0.4861
 2928TIP3    H1 8748   6.713   3.824   0.177  1.0369  1.8785  1.3130
 2928TIP3    H2 8749   6.587   3.898   0.216 -2.4627 -2.0161 -1.6588
 2929TIP3   OH2 8750   4.917   3.779   5.043  0.3788  0.1700 -0.7860
 2929TIP3    H1 8751   4.999   3.802   5.085 -0.4838  1.7148  0.1371
 2929TIP3    H2 8752   4.875   3.719   5.104  1.1086 -1.2153 -1.5998
 2930TIP3   OH2 8753   1.297   0.491   5.049 -0.3998  0.3673 -0.2090
 2930TIP3    H1 8754   1.336   0.422   5.103  0.4685  0.1854 -1.0512
 2930TIP3    H2 8755   1.302   0.569   5.105 -1.7186 -0.2845  0.8852
 2931TIP3   OH2 8756   1.487   3.814   1.371 -0.1211 -0.0971 -0.2301
 2931TIP3    H1 8757   1.504   3.769   1.288  0.3896  0.1481 -0.2629
 2931TIP3    H2 8758   1.453   3.746   1.429  2.4855 -1.0284  0.3379
 2932TIP3   OH2 8759   3.512   0.778   4.277 -0.1972 -0.6550 -0.8308
 2932TIP3    H1 8760   3.542   0.758   4.189  0.7979  1.1250 -0.9378
 2932TIP3    H2 8761   3.517   0.694   4.324  0.2663 -1.3939 -2.1704
 2933TIP3   OH2 8762   2.283   1.890   3.461 -0.0615 -0.1937  0.5526
 2933TIP3    H1 8763   2.347   1.835   3.415  0.3647 -0.1549  1.0923
 2933TIP3    H2 8764   2.261   1.959   3.398 -0.0180 -0.5403  0.1501
 2934TIP3   OH2 8765   1.854   5.961   1.167 -0.0023 -0.1662 -0.1859
 2934TIP3    H1 8766   1.818   5.897   1.104  1.3546 -1.1147 -0.0308
 2934TIP3    H2 8767   1.779   6.016   1.190 -1.7161 -2.8157  1.0678
 2935TIP3   OH2 8768   0.950   1.388   3.824  0.9467 -0.1427 -0.4111
 2935TIP3    H1 8769   0.918   1.364   3.737  0.9813  0.2351 -0.5332
 2935TIP3    H2 8770   1.018   1.324   3.843  0.9930 -0.1831 -0.6973
 2936TIP3   OH2 8771   0.296   4.310   3.497 -0.1818  0.3866  0.0936
 2936TIP3    H1 8772   0.220   4.282   3.446 -1.7134  0.7608  2.0534
 2936TIP3    H2 8773   0.302   4.246   3.568  0.8513  0.8291  0.4270
 2937TIP3   OH2 8774   7.120   0.097   4.431  0.2741 -0.0645 -0.3441
 2937TIP3    H1 8775   7.024   0.093   4.435  0.3500 -1.0089  1.3301
 2937TIP3    H2 8776   7.148   0.080   4.521  2.0211  0.4098 -0.7683
 2938TIP3   OH2 8777   0.872   1.875   3.281 -0.3640 -0.4642  0.4323
 2938TIP3    H1 8778   0.866   1.848   3.189 -0.8369  0.0970  0.2906
 2938TIP3    H2 8779   0.843   1.966   3.281  0.8023 -0.0751  0.9649
 2939TIP3   OH2 8780   4.031   2.081   3.360  0.0404  0.3472 -0.4581
 2939TIP3    H1 8781   4.035   2.008   3.298  1.3436 -0.9090  0.9985
 2939TIP3    H2 8782   3.952   2.064   3.411  0.9881 -0.8279  0.6991
 2940TIP3   OH2 8783   3.867   1.338   2.975 -0.4040  0.3807  0.1768
 2940TIP3    H1 8784   3.932   1.271   2.996  1.1422  1.9454  0.7003
 2940TIP3    H2 8785   3.867   1.342   2.879 -0.7344 -0.5607  0.1313
 2941TIP3   OH2 8786   2.936   1.618   2.717 -0.1643  0.5000  0.1599
 2941TIP3    H1 8787   2.853   1.607   2.670 -0.8446 -2.6036  1.8016
 2941TIP3    H2 8788   2.911   1.621   2.809  1.5062 -0.4311  0.6898
 2942TIP3   OH2 8789   5.861   5.465   2.793 -0.2487  0.0618  0.0167
 2942TIP3    H1 8790   5.952   5.484   2.817 -0.7796  0.9622  1.4452
 2942TIP3    H2 8791   5.860   5.370   2.778  0.8736 -0.0043  0.2358
 2943TIP3   OH2 8792   6.134   0.952   2.466  0.3644 -0.8289 -0.0238
 2943TIP3    H1 8793   6.076   0.971   2.540 -0.2199 -2.4135 -0.0204
 2943TIP3    H2 8794   6.199   0.892   2.503  0.0914 -1.6003 -0.7712
 2944TIP3   OH2 8795   1.552   0.592   0.929 -0.4966  0.3138 -0.0293
 2944TIP3    H1 8796   1.556   0.531   0.856 -1.0767 -0.6109  0.6897
 2944TIP3    H2 8797   1.618   0.658   0.909 -2.5727  1.7419 -2.8633
 2945TIP3   OH2 8798   5.573   6.570   0.348 -0.5440 -0.2211  0.9455
 2945TIP3    H1 8799   5.502   6.524   0.304 -0.2976  0.2388  0.0390
 2945TIP3    H2 8800   5.570   6.659   0.312  0.4608 -0.1835  0.9202
 2946TIP3   OH2 8801   2.584   0.114   0.774 -0.1294  0.1547 -0.2088
 2946TIP3    H1 8802   2.549   0.084   0.690  0.9343 -1.9677  0.0510
 2946TIP3    H2 8803   2.508   0.119   0.832 -0.5561 -0.6069 -0.6895
 2947TIP3   OH2 8804   7.085   5.154   0.179  0.2159 -0.1112  0.2575
 2947TIP3    H1 8805   7.133   5.225   0.221  0.5879  0.6284 -1.3205
 2947TIP3    H2 8806   7.096   5.079   0.237  1.0016  0.7535  1.2618
 2948TIP3   OH2 8807   3.638   2.738   3.676  0.1933  0.0945  0.0787
 2948TIP3    H1 8808   3.694   2.812   3.700 -0.6489  0.4486  0.9975
 2948TIP3    H2 8809   3.652   2.674   3.745 -1.8977  0.9350  1.3871
 2949TIP3   OH2 8810   5.332   2.346   1.718 -0.0028  0.7755  0.5933
 2949TIP3    H1 8811   5.247   2.319   1.684  0.9165 -1.5709 -0.1073
 2949TIP3    H2 8812   5.363   2.414   1.658 -0.8454  0.7414  0.1164
 2950TIP3   OH2 8813   2.780   4.411   5.697 -0.7396  0.7006 -0.0456
 2950TIP3    H1 8814   2.716   4.479   5.679 -1.2332  0.4582  0.7295
 2950TIP3    H2 8815   2.729   4.341   5.738 -0.2873 -0.2364 -1.0275
 2951TIP3   OH2 8816   0.238   1.202   1.904  0.3010  0.0963 -0.0081
 2951TIP3    H1 8817   0.182   1.178   1.978  1.4994 -0.0584  0.8733
 2951TIP3    H2 8818   0.209   1.146   1.832 -1.1405  0.5174  0.2183
 2952TIP3   OH2 8819   3.103   2.989   0.918 -0.5508  0.6800  0.1474
 2952TIP3    H1 8820   3.198   2.998   0.929 -0.2742  0.2629 -1.5593
 2952TIP3    H2 8821   3.089   2.996   0.823 -2.4505  2.4779  0.4891
 2953TIP3   OH2 8822   2.534   3.177   0.736 -0.4052 -0.0979  0.1570
 2953TIP3    H1 8823   2.607   3.125   0.702  0.1270  1.1473 -0.6910
 2953TIP3    H2 8824   2.467   3.113   0.759  0.8236 -1.2566  0.6562
 2954TIP3   OH2 8825   5.608   2.005   1.530 -0.3294  0.0757 -0.1896
 2954TIP3    H1 8826   5.688   1.963   1.561  0.5836  1.9174  0.0962
 2954TIP3    H2 8827   5.622   2.019   1.436  0.1003  1.2364  0.0365
 2955TIP3   OH2 8828   1.388   4.897   1.606  0.7185 -0.2306 -0.9984
 2955TIP3    H1 8829   1.398   4.922   1.514  2.2274  1.6617 -0.3934
 2955TIP3    H2 8830   1.428   4.969   1.655 -1.5596 -0.3424  1.2461
 2956TIP3   OH2 8831   1.390   5.010   4.754 -0.6767 -0.2987  0.1124
 2956TIP3    H1 8832   1.412   4.970   4.838 -0.9481  0.8053  0.7262
 2956TIP3    H2 8833   1.391   4.937   4.692  1.6978 -0.8032  0.6477
 2957TIP3   OH2 8834   1.214   3.711   1.293 -0.3310 -0.3108  0.0552
 2957TIP3    H1 8835   1.218   3.662   1.210  2.5592 -0.3739  0.1260
 2957TIP3    H2 8836   1.209   3.643   1.360 -0.9050 -0.3265 -0.0019
 2958TIP3   OH2 8837   4.075   1.587   4.911  0.3362  0.2637  0.7829
 2958TIP3    H1 8838   4.106   1.496   4.916  2.5514  0.8277 -1.0368
 2958TIP3    H2 8839   3.989   1.581   4.870 -0.2851 -1.0963  2.1798
 2959TIP3   OH2 8840   6.267   2.297   1.143 -0.3835  0.5296 -0.0410
 2959TIP3    H1 8841   6.194   2.354   1.168 -1.6859 -1.0868  0.0409
 2959TIP3    H2 8842   6.300   2.263   1.226  0.5313  1.3006 -0.0744
 2960TIP3   OH2 8843   2.529   0.481   5.478  0.3112  0.3513  0.5277
 2960TIP3    H1 8844   2.586   0.430   5.420 -0.1355 -0.1782  0.5443
 2960TIP3    H2 8845   2.478   0.415   5.525 -1.1741  0.8207 -0.3499
 2961TIP3   OH2 8846   6.603   2.570   0.050  0.0434  0.3704 -0.5141
 2961TIP3    H1 8847   6.639   2.581   0.138 -1.1013 -1.4995  0.2740
 2961TIP3    H2 8848   6.515   2.533   0.065 -0.2167  0.1051 -2.4330
 2962TIP3   OH2 8849   2.789   1.945   5.048  0.0768 -0.1756 -0.0780
 2962TIP3    H1 8850   2.844   1.975   4.976 -1.5241 -0.2362 -1.4127
 2962TIP3    H2 8851   2.721   2.013   5.055  0.8300  0.4427  2.2158
 2963TIP3   OH2 8852   7.049   2.535   2.256  0.0625 -0.2726 -0.3939
 2963TIP3    H1 8853   7.088   2.498   2.177  0.7045 -0.5376  0.0446
 2963TIP3    H2 8854   7.089   2.486   2.328 -0.0835  0.3598  0.1232
 2964TIP3   OH2 8855   0.021   6.629   4.975 -0.5225 -0.6332 -0.3512
 2964TIP3    H1 8856   0.066   6.581   4.905  0.1088  0.8981 -1.0499
 2964TIP3    H2 8857   0.079   6.702   4.995 -1.7393  0.2209  0.2050
 2965TIP3   OH2 8858   4.555   3.554   0.603  0.0599 -0.0827  0.1438
 2965TIP3    H1 8859   4.572   3.557   0.697  1.7428 -2.1628 -0.0282
 2965TIP3    H2 8860   4.530   3.463   0.586  1.1101 -0.0937 -1.6062
 2966TIP3   OH2 8861   0.328   0.314   4.358 -0.4623 -0.2692 -0.2741
 2966TIP3    H1 8862   0.237   0.312   4.327 -0.2836 -2.2045 -0.7799
 2966TIP3    H2 8863   0.365   0.392   4.317 -0.6643 -1.8804 -3.8489
 2967TIP3   OH2 8864   4.435   2.170   4.904 -0.1363 -0.1467  0.2613
 2967TIP3    H1 8865   4.437   2.075   4.913  0.0194 -0.1802 -0.1185
 2967TIP3    H2 8866   4.523   2.193   4.874  0.6509  0.3572  2.6958
 2968TIP3   OH2 8867   1.456   3.977   5.222 -0.0263 -0.7794 -0.6155
 2968TIP3    H1 8868   1.511   4.048   5.188  0.0412 -0.5075  0.0467
 2968TIP3    H2 8869   1.455   3.991   5.316 -1.0796 -0.9006 -0.6065
 2969TIP3   OH2 8870   3.437   4.838   1.295  0.2807  0.6910  0.1596
 2969TIP3    H1 8871   3.442   4.750   1.333  1.9111  0.7481  0.1622
 2969TIP3    H2 8872   3.401   4.825   1.208 -0.9773  0.2293  0.7262
 2970TIP3   OH2 8873   6.280   1.123   5.210 -0.2646  0.1620  0.1180
 2970TIP3    H1 8874   6.192   1.139   5.245 -0.4156 -0.2581 -0.0581
 2970TIP3    H2 8875   6.288   1.185   5.137 -1.3791 -1.4250 -1.4576
 2971TIP3   OH2 8876   6.166   1.277   4.750  0.4137  0.0019  0.2586
 2971TIP3    H1 8877   6.130   1.285   4.838  0.3157 -1.1387  0.3479
 2971TIP3    H2 8878   6.247   1.327   4.752  0.2988  0.1681  0.9333
 2972TIP3   OH2 8879   4.077   5.221   3.693 -0.2070  0.2451 -0.1509
 2972TIP3    H1 8880   4.019   5.181   3.757  0.2658 -0.6930 -0.2921
 2972TIP3    H2 8881   4.163   5.224   3.735 -0.0740  0.4096 -0.4248
 2973TIP3   OH2 8882   6.427   3.068   0.123  0.0873 -0.7240 -0.0499
 2973TIP3    H1 8883   6.403   2.984   0.162 -0.1141 -1.5625 -1.8576
 2973TIP3    H2 8884   6.345   3.117   0.117  0.3439  0.0275  1.8423
 2974TIP3   OH2 8885   6.488   5.538   5.452 -0.1890  0.3885 -0.3983
 2974TIP3    H1 8886   6.424   5.593   5.497  0.6235  1.6233 -0.7200
 2974TIP3    H2 8887   6.478   5.561   5.360 -1.3221 -1.5845 -0.8320
 2975TIP3   OH2 8888   2.050   1.901   1.906 -0.5170  0.1885 -0.2267
 2975TIP3    H1 8889   2.138   1.863   1.906 -1.2962 -1.7645  0.9914
 2975TIP3    H2 8890   1.999   1.843   1.963 -1.9538  2.8371  1.3579
 2976TIP3   OH2 8891   1.279   2.908   4.783 -0.4536  0.2533 -0.0505
 2976TIP3    H1 8892   1.260   3.000   4.765 -2.2664 -0.0449  0.0986
 2976TIP3    H2 8893   1.193   2.866   4.787  0.3143 -1.4021  0.1757
 2977TIP3   OH2 8894   0.314   4.097   3.776  0.0020 -0.0527  0.4773
 2977TIP3    H1 8895   0.265   4.024   3.740 -0.1829 -0.5499  1.6833
 2977TIP3    H2 8896   0.337   4.069   3.865  2.9703 -0.0905 -0.2000
 2978TIP3   OH2 8897   0.427   4.736   5.817  0.2704  0.5542 -0.6780
 2978TIP3    H1 8898   0.350   4.782   5.784 -1.2159 -0.6329  0.9453
 2978TIP3    H2 8899   0.455   4.788   5.892  0.7788  0.6985 -0.9590
 2979TIP3   OH2 8900   6.822   3.083   2.619  0.1492 -0.0941 -0.0600
 2979TIP3    H1 8901   6.825   3.028   2.697 -2.7280  1.2667  1.1429
 2979TIP3    H2 8902   6.816   3.173   2.653 -0.0901  0.6281 -1.8890
 2980TIP3   OH2 8903   6.990   2.979   1.815 -0.0752 -0.2665 -0.8264
 2980TIP3    H1 8904   7.075   2.944   1.790 -0.1095  0.4676 -2.0627
 2980TIP3    H2 8905   6.949   3.004   1.732 -0.9832  0.5529 -0.1558
 2981TIP3   OH2 8906   2.302   2.705   0.190  0.0591 -0.1269 -0.1731
 2981TIP3    H1 8907   2.307   2.800   0.198 -1.1591 -0.1170  0.5845
 2981TIP3    H2 8908   2.392   2.676   0.205  0.6273  0.9408 -1.2791
 2982TIP3   OH2 8909   1.371   0.785   1.652 -0.1641 -0.1233 -0.1528
 2982TIP3    H1 8910   1.315   0.710   1.635 -0.2678  0.1437 -1.0379
 2982TIP3    H2 8911   1.348   0.813   1.741 -0.5566 -0.7571 -0.0488
 2983TIP3   OH2 8912   5.489   5.203   5.773  0.3067  0.2294  0.1921
 2983TIP3    H1 8913   5.427   5.240   5.711 -0.8951 -0.3957  0.9795
 2983TIP3    H2 8914   5.488   5.263   5.847  1.0694  0.5085 -0.0165
 2984TIP3   OH2 8915   1.094   0.656   1.807 -0.3296  0.1498 -0.5011
 2984TIP3    H1 8916   1.031   0.694   1.747 -1.1342  0.8061  0.7067
 2984TIP3    H2 8917   1.104   0.721   1.877 -0.1872 -0.9727  0.5804
 2985TIP3   OH2 8918   4.757   2.175   2.336  0.0269  0.5115 -0.0885
 2985TIP3    H1 8919   4.723   2.219   2.258 -0.0712 -1.3875 -1.1676
 2985TIP3    H2 8920   4.680   2.150   2.386 -0.0419 -0.4587 -0.6524
 2986TIP3   OH2 8921   6.972   0.306   1.901 -0.3612  0.6973  0.1946
 2986TIP3    H1 8922   6.918   0.236   1.938  0.7295 -0.5721 -0.4997
 2986TIP3    H2 8923   7.010   0.267   1.822  1.8232  1.3608  0.8312
 2987TIP3   OH2 8924   6.760   6.107   4.346 -0.2544  0.6985  0.3311
 2987TIP3    H1 8925   6.845   6.146   4.325  0.0238 -0.1890 -0.2564
 2987TIP3    H2 8926   6.696   6.170   4.313  0.1699  1.3687  0.7637
 2988TIP3   OH2 8927   4.107   1.853   0.443 -0.2295 -0.1498  0.3058
 2988TIP3    H1 8928   4.040   1.874   0.509 -2.1493  0.6554 -1.7946
 2988TIP3    H2 8929   4.060   1.804   0.376  0.8455  1.7835 -2.0190
 2989TIP3   OH2 8930   1.785   5.996   2.684 -0.4148  0.1653 -0.1497
 2989TIP3    H1 8931   1.853   6.042   2.636 -0.8942  2.1599  0.9933
 2989TIP3    H2 8932   1.726   5.963   2.617  0.2011  0.7945 -1.0176
 2990TIP3   OH2 8933   7.061   1.719   1.856  0.4502  0.0896  0.1807
 2990TIP3    H1 8934   7.120   1.704   1.783  1.1301  0.8262  0.5605
 2990TIP3    H2 8935   7.085   1.806   1.889 -0.4818  0.1706  0.6789
 2991TIP3   OH2 8936   2.181   0.883   0.735 -0.0503 -0.0600  0.0037
 2991TIP3    H1 8937   2.253   0.820   0.730  1.6159  1.7825 -0.5085
 2991TIP3    H2 8938   2.189   0.921   0.823 -1.5690 -1.1039  0.6245
 2992TIP3   OH2 8939   2.578   0.115   3.064  0.1445 -0.8360 -0.4092
 2992TIP3    H1 8940   2.665   0.140   3.035  0.4299 -0.5275  0.6688
 2992TIP3    H2 8941   2.564   0.028   3.028  1.2372 -1.2380  0.1111
 2993TIP3   OH2 8942   1.765   4.965   4.361 -0.1322 -0.3261  0.7137
 2993TIP3    H1 8943   1.713   5.045   4.366 -1.1176 -0.7952 -1.0893
 2993TIP3    H2 8944   1.856   4.994   4.365 -0.4329  1.0562 -1.3115
 2994TIP3   OH2 8945   3.065   2.910   0.650 -0.6194 -0.7053 -0.2576
 2994TIP3    H1 8946   3.138   2.936   0.594 -0.2931  1.8659  1.2203
 2994TIP3    H2 8947   2.990   2.961   0.619  0.0907  2.6648  2.8500
 2995TIP3   OH2 8948   2.969   3.982   3.815  0.7378 -0.0534  0.4098
 2995TIP3    H1 8949   2.946   3.890   3.799  0.8538  0.0949 -0.7072
 2995TIP3    H2 8950   3.063   3.980   3.835  0.3635 -0.3664  2.3117
 2996TIP3   OH2 8951   4.020   6.607   1.564  0.1389  0.0894  0.1885
 2996TIP3    H1 8952   4.071   6.668   1.511 -0.2566  1.0433  0.8861
 2996TIP3    H2 8953   3.930   6.616   1.532  0.3375 -1.4683 -0.9279
 2997TIP3   OH2 8954   1.905   0.257   0.812  0.0505 -0.9161  0.2052
 2997TIP3    H1 8955   1.928   0.327   0.874 -0.3192  0.2054 -0.8883
 2997TIP3    H2 8956   1.922   0.295   0.726  0.1301 -2.2964 -0.4090
 2998TIP3   OH2 8957   0.932   2.598   3.490 -0.1856 -0.5742  0.0406
 2998TIP3    H1 8958   0.905   2.570   3.577 -0.0241 -1.4318 -0.1734
 2998TIP3    H2 8959   0.886   2.680   3.476 -0.3369 -0.5065  0.8687
 2999TIP3   OH2 8960   3.215   4.078   1.160  0.3142 -0.0259 -0.2891
 2999TIP3    H1 8961   3.303   4.087   1.195  0.9235 -1.2016 -1.4350
 2999TIP3    H2 8962   3.207   4.149   1.095  0.1011  0.5819  0.3872
 3000TIP3   OH2 8963   3.006   4.003   3.286  0.4864  0.4536 -0.5337
 3000TIP3    H1 8964   2.922   3.998   3.240  0.5097 -0.2223 -0.5152
 3000TIP3    H2 8965   3.068   3.958   3.228  0.3940 -0.9529  0.4131
 3001TIP3   OH2 8966   4.070   0.818   1.055 -0.2312 -0.0288  0.2717
 3001TIP3    H1 8967   4.076   0.723   1.062 -0.8177  0.0418  2.8689
 3001TIP3    H2 8968   4.147   0.851   1.100  0.7756  0.7913 -1.9102
 3002TIP3   OH2 8969   7.146   2.688   0.766  0.0751  0.1195 -0.3725
 3002TIP3    H1 8970   7.195   2.609   0.789 -0.9683 -0.4599 -0.0895
 3002TIP3    H2 8971   7.092   2.661   0.691  1.1685  1.1346 -1.5867
 3003TIP3   OH2 8972   0.480   6.427   5.344 -0.2271  0.0515  0.5741
 3003TIP3    H1 8973   0.481   6.417   5.249  0.6431  1.5146  0.3853
 3003TIP3    H2 8974   0.407   6.487   5.361  0.4776  0.9045  0.6652
 3004TIP3   OH2 8975   4.615   4.164   0.468 -0.5041 -0.2765  0.1722
 3004TIP3    H1 8976   4.640   4.256   0.466 -1.7232  0.0466 -1.5729
 3004TIP3    H2 8977   4.698   4.118   0.483  0.3938  1.0094 -0.6184
 3005TIP3   OH2 8978   6.383   6.277   0.959 -0.2054 -0.2175 -0.4450
 3005TIP3    H1 8979   6.435   6.283   1.039  1.0715  0.8997 -1.3094
 3005TIP3    H2 8980   6.370   6.183   0.945 -1.3229 -0.4175  1.5763
 3006TIP3   OH2 8981   3.075  -0.024   2.779 -0.4524 -0.0695 -0.5755
 3006TIP3    H1 8982   3.026  -0.005   2.700  0.4562 -1.2171 -1.4381
 3006TIP3    H2 8983   3.135   0.051   2.788 -0.1572 -0.2220 -1.2905
 3007TIP3   OH2 8984   5.969   4.417   4.498 -0.2119 -0.1971  0.2657
 3007TIP3    H1 8985   5.880   4.403   4.465 -0.6874 -1.2229  1.8953
 3007TIP3    H2 8986   5.986   4.343   4.556  2.2201 -0.7263 -0.9695
 3008TIP3   OH2 8987   5.603   0.688   1.684 -0.0835  0.1084  0.0991
 3008TIP3    H1 8988   5.610   0.779   1.658 -1.3070  0.1833 -0.0151
 3008TIP3    H2 8989   5.567   0.691   1.773 -1.8379 -0.2672 -0.5493
 3009TIP3   OH2 8990   2.347   3.089   4.232 -0.3033  0.0154  0.8073
 3009TIP3    H1 8991   2.421   3.148   4.216  0.3527 -1.0225 -0.2605
 3009TIP3    H2 8992   2.388   3.004   4.250 -1.2248 -0.5637  0.2636
 3010TIP3   OH2 8993   0.174   0.994   2.149 -0.3405 -0.2374  0.6822
 3010TIP3    H1 8994   0.187   0.926   2.083  0.8957  0.2530  0.4082
 3010TIP3    H2 8995   0.104   0.959   2.204 -0.4205 -1.2866 -0.0355
 3011TIP3   OH2 8996   6.653   1.822   5.015 -0.1183  0.4802 -0.0283
 3011TIP3    H1 8997   6.570   1.871   5.015 -0.5173 -0.1866  0.2075
 3011TIP3    H2 8998   6.713   1.878   5.065 -0.5432  0.7796  0.1601
 3012TIP3   OH2 8999   7.183   1.966   3.072 -0.6500  0.1622 -0.0089
 3012TIP3    H1 9000   7.253   1.972   3.137  0.2001 -0.0729 -0.8791
 3012TIP3    H2 9001   7.137   2.050   3.079  0.8696  1.0865 -0.6775
 3013TIP3   OH2 9002   6.689   1.748   3.773  0.2150  0.2987 -0.0502
 3013TIP3    H1 9003   6.647   1.810   3.713 -0.8427 -0.3011  0.0489
 3013TIP3    H2 9004   6.747   1.696   3.718 -1.2612 -0.7144 -0.7290
 3014TIP3   OH2 9005   6.820   4.457   2.274 -0.1939  0.2793 -0.2500
 3014TIP3    H1 9006   6.894   4.462   2.214 -0.3212 -1.1602 -0.5475
 3014TIP3    H2 9007   6.745   4.487   2.223  0.2670  2.6837  0.3255
 3015TIP3   OH2 9008   6.411   0.673   2.197  0.3317 -0.0963  0.1965
 3015TIP3    H1 9009   6.479   0.621   2.239  0.0399 -0.6595 -0.0159
 3015TIP3    H2 9010   6.339   0.675   2.260 -0.2348 -1.2224 -0.3842
 3016TIP3   OH2 9011   6.685   0.322   5.403 -0.1660  0.1091 -0.0146
 3016TIP3    H1 9012   6.643   0.266   5.468 -0.2703 -0.5325 -0.6244
 3016TIP3    H2 9013   6.765   0.275   5.379 -1.2534 -0.8463 -2.0426
 3017TIP3   OH2 9014   0.840   6.537   1.069  0.0026 -0.9583 -0.2563
 3017TIP3    H1 9015   0.849   6.625   1.032  0.6605 -1.1114 -0.4744
 3017TIP3    H2 9016   0.746   6.527   1.086 -0.2879 -0.7899 -1.6570
 3018TIP3   OH2 9017   3.377   2.826   2.252 -0.3494 -0.1516  0.0375
 3018TIP3    H1 9018   3.384   2.738   2.289  0.4358 -0.4757 -0.8524
 3018TIP3    H2 9019   3.462   2.842   2.213 -0.8257  0.6013 -0.7151
 3019TIP3   OH2 9020   5.103   1.547   2.983  0.3756  0.5553  0.3131
 3019TIP3    H1 9021   5.145   1.466   3.012 -0.7962  0.1067  0.8453
 3019TIP3    H2 9022   5.026   1.518   2.933 -1.5458  1.2546  2.6785
 3020TIP3   OH2 9023   1.764   3.477   3.190 -0.1328 -0.1141  0.7113
 3020TIP3    H1 9024   1.828   3.499   3.123 -1.2886 -0.8848 -0.7044
 3020TIP3    H2 9025   1.715   3.558   3.203 -1.6813 -0.5873 -1.4648
 3021TIP3   OH2 9026   3.543   3.501   2.745 -0.6513 -0.2190 -0.4137
 3021TIP3    H1 9027   3.454   3.489   2.779 -1.0121  1.3191 -0.7402
 3021TIP3    H2 9028   3.582   3.414   2.750 -1.9787 -0.8103  0.2833
 3022TIP3   OH2 9029   2.824   1.218   0.220 -0.1731 -0.2902 -0.9841
 3022TIP3    H1 9030   2.786   1.236   0.307  0.8527  0.8985 -0.7458
 3022TIP3    H2 9031   2.803   1.296   0.169  0.1492 -0.5258 -1.4812
 3023TIP3   OH2 9032   2.887   1.984   4.427 -0.5189 -0.0142  0.0432
 3023TIP3    H1 9033   2.824   1.921   4.394  0.0535 -0.3959 -0.3385
 3023TIP3    H2 9034   2.876   2.061   4.372 -0.6971 -0.0542  0.0226
 3024TIP3   OH2 9035   2.127   1.853   5.486  0.0402  0.6251 -0.2779
 3024TIP3    H1 9036   2.148   1.886   5.573  1.9770  0.3219 -0.5835
 3024TIP3    H2 9037   2.058   1.788   5.500  1.4495 -0.6061  1.2549
 3025TIP3   OH2 9038   0.571   0.874   1.047 -0.2978  0.4843  0.1656
 3025TIP3    H1 9039   0.538   0.785   1.058 -2.0977  1.1058  0.2566
 3025TIP3    H2 9040   0.665   0.867   1.060 -0.4290 -1.3604  0.4002
 3026TIP3   OH2 9041   6.254   4.370   3.989 -0.4571  0.1423 -0.5273
 3026TIP3    H1 9042   6.343   4.400   3.967  0.0087 -1.1504 -0.5062
 3026TIP3    H2 9043   6.209   4.449   4.021  0.8577  0.7023  0.0188
 3027TIP3   OH2 9044   5.005   2.258   2.429 -1.1362  0.0513 -0.2045
 3027TIP3    H1 9045   4.916   2.227   2.408 -0.5510 -1.7134 -0.2698
 3027TIP3    H2 9046   5.027   2.213   2.510 -0.5629  1.0686  0.2223
 3028TIP3   OH2 9047   6.995   0.839   0.809 -0.0616  0.6054  0.0452
 3028TIP3    H1 9048   6.979   0.816   0.901  1.1404  1.2940  0.4470
 3028TIP3    H2 9049   6.966   0.930   0.802  0.3289  0.7170 -0.1219
 3029TIP3   OH2 9050   3.617   6.772   5.874  0.2107  0.4215 -0.0780
 3029TIP3    H1 9051   3.613   6.777   5.778  0.6772  0.3170 -0.1047
 3029TIP3    H2 9052   3.692   6.826   5.898 -0.3904  1.1099  0.2949
 3030TIP3   OH2 9053   4.376   0.668   3.095 -0.3899 -0.0720  0.6677
 3030TIP3    H1 9054   4.452   0.641   3.042 -0.8502 -1.2223  0.5884
 3030TIP3    H2 9055   4.387   0.763   3.103  0.3462 -0.0298 -0.4717
 3031TIP3   OH2 9056   6.847   5.112   4.013 -0.0214  0.4562 -0.3188
 3031TIP3    H1 9057   6.876   5.179   4.076 -0.4843 -0.0512  0.4495
 3031TIP3    H2 9058   6.788   5.158   3.954 -0.0561  0.8111 -0.0128
 3032TIP3   OH2 9059   5.108   2.920   1.758 -0.0248 -0.2980 -0.2838
 3032TIP3    H1 9060   5.188   2.964   1.729  1.2131 -1.4260  1.2523
 3032TIP3    H2 9061   5.123   2.828   1.739  0.2577 -0.8992  2.4627
 3033TIP3   OH2 9062   6.068   3.689   4.921 -0.0006  0.2011 -0.0016
 3033TIP3    H1 9063   6.092   3.774   4.883  1.1239 -0.5884 -1.1933
 3033TIP3    H2 9064   5.988   3.663   4.875 -2.1133  1.8828  2.4674
 3034TIP3   OH2 9065   1.740   4.523   2.455 -0.5436  0.4042  0.2740
 3034TIP3    H1 9066   1.754   4.516   2.361  0.3247 -1.7543  0.5041
 3034TIP3    H2 9067   1.731   4.617   2.472  0.7959  0.9380 -1.7329
 3035TIP3   OH2 9068   4.668   5.586   1.712  0.9872  0.0548 -0.0990
 3035TIP3    H1 9069   4.575   5.606   1.707  0.4199 -2.5384 -1.5529
 3035TIP3    H2 9070   4.706   5.659   1.761 -1.5970  1.7530 -0.4714
 3036TIP3   OH2 9071   1.135   6.352   1.954  0.0544  0.0087 -0.7372
 3036TIP3    H1 9072   1.068   6.345   1.886  1.0879  0.6420 -1.8666
 3036TIP3    H2 9073   1.202   6.289   1.929 -0.0396 -0.5275  0.3120
 3037TIP3   OH2 9074   3.638   6.277   0.689 -0.8721  0.6523 -0.2433
 3037TIP3    H1 9075   3.668   6.288   0.599 -0.8297  0.1515 -0.2916
 3037TIP3    H2 9076   3.622   6.366   0.720 -0.0132  0.8882 -0.4534
 3038TIP3   OH2 9077   5.701   6.822   5.351  0.0125  0.2950 -0.5705
 3038TIP3    H1 9078   5.673   6.732   5.332  1.8694 -0.9116  1.8260
 3038TIP3    H2 9079   5.701   6.827   5.447  0.0191  2.8658 -0.6355
 3039TIP3   OH2 9080   5.928   3.537   2.210  0.3720  0.0241 -0.0163
 3039TIP3    H1 9081   5.983   3.543   2.131 -0.8632  0.2554 -0.8801
 3039TIP3    H2 9082   5.857   3.479   2.185 -2.2542  3.1721 -0.4725
 3040TIP3   OH2 9083   0.854   1.919   5.515  0.0220 -0.4675 -0.3564
 3040TIP3    H1 9084   0.804   1.916   5.434 -1.0221  0.4893  0.2184
 3040TIP3    H2 9085   0.946   1.916   5.488 -0.3041  0.2614 -1.5962
 3041TIP3   OH2 9086   6.908   5.632   5.218 -0.0658 -0.0439  0.3230
 3041TIP3    H1 9087   6.950   5.708   5.258 -0.2778 -0.1109  0.6733
 3041TIP3    H2 9088   6.866   5.667   5.139 -1.0307  0.4097  1.0186
 3042TIP3   OH2 9089   1.858   1.655   0.107 -0.2863  0.3297 -0.2674
 3042TIP3    H1 9090   1.782   1.672   0.052 -1.0435  0.7978  0.8949
 3042TIP3    H2 9091   1.932   1.657   0.047 -1.1378  0.3834 -1.3357
 3043TIP3   OH2 9092   5.451   1.944   3.585 -0.2621 -0.1517  0.0709
 3043TIP3    H1 9093   5.506   1.978   3.515  0.8510 -1.2783  0.3805
 3043TIP3    H2 9094   5.440   2.018   3.644 -1.0253  0.7507 -1.1387
 3044TIP3   OH2 9095   4.562   4.463   5.262  0.0096  0.1358  0.2751
 3044TIP3    H1 9096   4.559   4.379   5.308 -1.0090  0.7492  1.3510
 3044TIP3    H2 9097   4.479   4.505   5.281  1.9579  3.1363  3.1129
 3045TIP3   OH2 9098   1.414   6.325   5.280 -0.1513 -0.5066  0.0551
 3045TIP3    H1 9099   1.493   6.361   5.240 -0.7389  0.7020 -0.0662
 3045TIP3    H2 9100   1.446   6.256   5.338  0.9984  0.0039  0.0593
 3046TIP3   OH2 9101   5.464   3.205   0.706 -0.3248 -0.1558  0.0865
 3046TIP3    H1 9102   5.493   3.118   0.678 -0.8618 -0.5442  0.7039
 3046TIP3    H2 9103   5.521   3.266   0.659  0.2806 -0.8492 -0.0936
 3047TIP3   OH2 9104   1.551   0.462   5.498  0.0304  0.2983 -0.2291
 3047TIP3    H1 9105   1.603   0.440   5.575  0.7301 -1.1109 -1.0625
 3047TIP3    H2 9106   1.542   0.558   5.501  1.2127  0.3900  0.8549
 3048TIP3   OH2 9107   5.723   1.796   3.584  0.6065  0.1170 -0.3917
 3048TIP3    H1 9108   5.639   1.814   3.542 -0.2454  1.4793  1.7600
 3048TIP3    H2 9109   5.708   1.715   3.633  0.9795 -0.3796 -1.0920
 3049TIP3   OH2 9110   6.995   3.188   5.066  0.0913  0.4651  0.1891
 3049TIP3    H1 9111   7.026   3.162   4.979 -0.3262  1.5005 -0.2767
 3049TIP3    H2 9112   7.004   3.283   5.068  0.3161  0.4369  1.3775
 3050TIP3   OH2 9113   5.406   4.401   4.823  0.4445  0.6766 -0.5870
 3050TIP3    H1 9114   5.404   4.322   4.769  1.0034  0.8194 -0.8229
 3050TIP3    H2 9115   5.495   4.433   4.815  0.6283  0.5373  0.6640
 3051TIP3   OH2 9116   6.277   2.018   2.376 -0.0071 -0.4531  0.5641
 3051TIP3    H1 9117   6.266   2.024   2.281  1.3649  0.9869  0.4644
 3051TIP3    H2 9118   6.270   1.924   2.394  2.5933 -1.1387 -1.3632
 3052TIP3   OH2 9119   6.878   6.713   1.790 -0.3963 -0.1737  0.3476
 3052TIP3    H1 9120   6.791   6.744   1.816 -0.7016  0.5081 -1.3086
 3052TIP3    H2 9121   6.937   6.786   1.809 -0.6741  0.4586 -1.0485
 3053TIP3   OH2 9122   1.535   5.755   5.411  0.1264  0.0601  0.3997
 3053TIP3    H1 9123   1.473   5.711   5.469 -1.4441  0.9601 -0.5058
 3053TIP3    H2 9124   1.481   5.786   5.338  1.3379  2.4480  0.4297
 3054TIP3   OH2 9125   2.770   1.655   5.106 -0.0914  0.8252  0.4023
 3054TIP3    H1 9126   2.683   1.620   5.087  0.5387 -0.9005  0.5514
 3054TIP3    H2 9127   2.756   1.750   5.114 -1.6087  0.8132 -1.4587
 3055TIP3   OH2 9128   0.902   1.440   0.204  0.0140 -0.4921  0.0467
 3055TIP3    H1 9129   0.905   1.401   0.116 -1.8544 -1.2797  0.2959
 3055TIP3    H2 9130   0.874   1.530   0.190 -0.0409 -0.5463 -0.1931
 3056TIP3   OH2 9131   6.915   1.472   3.949  0.1225  0.3509  0.1244
 3056TIP3    H1 9132   6.876   1.385   3.957 -0.6146  0.5987 -0.6275
 3056TIP3    H2 9133   6.842   1.533   3.955  0.3364  0.8103 -1.4563
 3057TIP3   OH2 9134   2.265   4.021   5.460  0.0814 -0.1788  0.3414
 3057TIP3    H1 9135   2.309   4.085   5.404  1.0563  0.6515  1.9863
 3057TIP3    H2 9136   2.336   3.965   5.493 -0.6399 -1.4905 -0.2823
 3058TIP3   OH2 9137   0.155   4.465   2.112 -0.8441  0.3171 -0.1187
 3058TIP3    H1 9138   0.162   4.430   2.023  0.5165  0.8890 -0.2672
 3058TIP3    H2 9139   0.145   4.388   2.168  2.5420 -0.4694 -0.3731
 3059TIP3   OH2 9140   4.218   0.875   2.222 -0.1970 -0.5562 -0.0896
 3059TIP3    H1 9141   4.166   0.807   2.180 -2.8866 -0.4026  2.6736
 3059TIP3    H2 9142   4.298   0.830   2.251  0.0157 -1.4597 -1.9249
 3060TIP3   OH2 9143   3.781   3.168   4.249  0.0146  0.1981 -0.6014
 3060TIP3    H1 9144   3.819   3.081   4.243  1.7785  0.9944 -1.5312
 3060TIP3    H2 9145   3.855   3.228   4.247 -0.9082  1.7277  2.7164
 3061TIP3   OH2 9146   3.003   5.368   4.782 -0.1554 -0.3533  0.0152
 3061TIP3    H1 9147   3.044   5.403   4.704 -0.4520  0.5503  0.2532
 3061TIP3    H2 9148   3.004   5.273   4.769  3.4449 -0.5633  0.6955
 3062TIP3   OH2 9149   3.142   5.524   0.293  0.1262 -0.5487  0.5195
 3062TIP3    H1 9150   3.226   5.570   0.298 -0.0653 -0.2409  0.9474
 3062TIP3    H2 9151   3.122   5.521   0.200 -0.8651  2.0887  0.5660
 3063TIP3   OH2 9152   2.476   5.108   5.322  0.3002  0.4354 -0.3100
 3063TIP3    H1 9153   2.478   5.203   5.311  1.7209  0.2614 -2.1083
 3063TIP3    H2 9154   2.564   5.085   5.351  1.0157 -0.5300 -2.8931
 3064TIP3   OH2 9155   5.899   2.792   0.077 -0.2610 -0.1506  0.6231
 3064TIP3    H1 9156   5.828   2.848   0.110 -0.3211 -0.7404  1.5040
 3064TIP3    H2 9157   5.878   2.705   0.110 -0.4990 -0.8455 -1.2446
 3065TIP3   OH2 9158   1.979   0.078   5.377  0.2312 -0.2767 -0.1161
 3065TIP3    H1 9159   1.955   0.052   5.288 -1.1661  0.9594 -0.1402
 3065TIP3    H2 9160   2.019   0.165   5.367 -0.9273  0.3660  0.5192
 3066TIP3   OH2 9161   4.560   3.036   5.013 -0.5014 -0.2788  0.1126
 3066TIP3    H1 9162   4.522   2.951   4.990 -0.9227 -0.1675  0.3983
 3066TIP3    H2 9163   4.492   3.099   4.991  0.6615  0.2461 -2.4370
 3067TIP3   OH2 9164   4.897   0.949   5.747  0.3749  0.2006  0.2523
 3067TIP3    H1 9165   4.912   0.991   5.662 -1.0341  2.0496  0.8620
 3067TIP3    H2 9166   4.837   0.877   5.727 -1.3776  1.6921 -0.1369
 3068TIP3   OH2 9167   1.199   1.058   0.281  0.3029 -0.3855 -0.2031
 3068TIP3    H1 9168   1.262   1.101   0.224  1.4777 -0.9068  0.6677
 3068TIP3    H2 9169   1.239   1.061   0.368 -1.5801  0.7129  0.7068
 3069TIP3   OH2 9170   6.713   3.771   1.230  0.2117 -0.2725  0.4287
 3069TIP3    H1 9171   6.772   3.838   1.193  0.1439 -0.9841 -1.0388
 3069TIP3    H2 9172   6.762   3.734   1.303  0.7174  0.5907  0.5435
 3070TIP3   OH2 9173   0.476   4.346   1.149  0.0518 -0.6555 -0.4462
 3070TIP3    H1 9174   0.495   4.430   1.191 -1.5865 -0.2676 -0.4242
 3070TIP3    H2 9175   0.562   4.309   1.130  0.8412 -0.0793  1.7204
 3071TIP3   OH2 9176   3.650   2.581   3.917  0.0865 -0.2246  0.9385
 3071TIP3    H1 9177   3.649   2.659   3.973 -1.9568 -0.3596  1.1628
 3071TIP3    H2 9178   3.620   2.510   3.974 -0.5114 -0.6773  0.0852
 3072TIP3   OH2 9179   1.839   1.267   2.931 -0.6771  0.0565 -0.4509
 3072TIP3    H1 9180   1.770   1.316   2.886 -1.1162  0.1145  0.2727
 3072TIP3    H2 9181   1.794   1.219   3.000 -0.2483 -1.3227 -1.0892
 3073TIP3   OH2 9182   2.033   6.816   5.803  0.3997 -0.4937 -1.1350
 3073TIP3    H1 9183   1.948   6.772   5.798 -0.7944  1.7001 -1.5266
 3073TIP3    H2 9184   2.066   6.814   5.713 -0.2395  0.4317 -1.4070
 3074TIP3   OH2 9185   5.450   0.846   2.417  0.6542 -0.3780 -0.1063
 3074TIP3    H1 9186   5.487   0.840   2.329 -0.5547 -3.6558 -0.5367
 3074TIP3    H2 9187   5.451   0.756   2.449 -2.0289  0.1902  1.8892
 3075TIP3   OH2 9188   0.414   3.377   5.900 -0.3634 -0.0055 -0.1080
 3075TIP3    H1 9189   0.427   3.285   5.879 -0.7899  0.2411 -1.5773
 3075TIP3    H2 9190   0.410   3.421   5.815  1.0147  1.5478  0.5687
 3076TIP3   OH2 9191   2.503   0.163   2.740 -0.1979 -0.0761 -0.1369
 3076TIP3    H1 9192   2.494   0.240   2.795 -0.4151 -1.1832  1.4432
 3076TIP3    H2 9193   2.462   0.188   2.657  0.9345  1.9212 -0.1477
 3077TIP3   OH2 9194   7.175   0.135   4.168  0.2625  0.0658 -0.4712
 3077TIP3    H1 9195   7.155   0.119   4.261  0.3363  0.5408 -0.3708
 3077TIP3    H2 9196   7.258   0.090   4.153 -0.6055 -1.5419 -0.7721
 3078TIP3   OH2 9197   1.343   5.290   4.698 -0.1067 -0.1595 -0.4604
 3078TIP3    H1 9198   1.395   5.314   4.775 -0.0296  0.4657 -0.6957
 3078TIP3    H2 9199   1.372   5.202   4.676  1.1656  0.3166 -0.8247
 3079TIP3   OH2 9200   0.367   2.723   4.522  0.3017 -0.1458  0.2108
 3079TIP3    H1 9201   0.446   2.732   4.468 -0.1471  0.8986 -0.3033
 3079TIP3    H2 9202   0.400   2.717   4.612  0.9682  0.2007 -0.0014
 3080TIP3   OH2 9203   2.332   4.548   4.254  0.5217 -0.0908  0.1415
 3080TIP3    H1 9204   2.237   4.551   4.242  0.6451 -0.0460 -0.8803
 3080TIP3    H2 9205   2.353   4.633   4.294  0.3156  0.6070 -1.1506
 3081TIP3   OH2 9206   2.633   1.373   3.164  0.1447  0.3091  0.3700
 3081TIP3    H1 9207   2.652   1.357   3.072 -1.6133  1.7693 -0.3107
 3081TIP3    H2 9208   2.626   1.286   3.203  1.7224 -0.3191 -0.6658
 3082TIP3   OH2 9209   3.358   6.292   1.324  0.1837  0.0176  0.0035
 3082TIP3    H1 9210   3.421   6.227   1.353 -0.8241 -0.5079  1.1065
 3082TIP3    H2 9211   3.280   6.241   1.300  0.6242  0.5002 -2.8025
 3083TIP3   OH2 9212   6.902   0.602   4.711  1.4283 -0.3317  0.4857
 3083TIP3    H1 9213   6.975   0.660   4.688  2.6350 -1.8059  0.4541
 3083TIP3    H2 9214   6.942   0.516   4.719 -0.3501 -1.2004  0.3680
 3084TIP3   OH2 9215   0.620   3.486   3.107 -0.2155  0.6331  0.0432
 3084TIP3    H1 9216   0.556   3.453   3.170  0.4755 -0.5520  0.1569
 3084TIP3    H2 9217   0.677   3.412   3.090 -0.2944  0.9621 -1.8900
 3085TIP3   OH2 9218   2.557   1.212   4.572  0.5227 -0.6310  0.4914
 3085TIP3    H1 9219   2.518   1.269   4.638 -1.5391  0.5035 -1.5377
 3085TIP3    H2 9220   2.507   1.131   4.577 -2.0776  0.6494 -1.7747
 3086TIP3   OH2 9221   1.200   5.952   1.808  0.1597  0.0785  0.2376
 3086TIP3    H1 9222   1.237   6.033   1.844 -1.6262  1.8011 -1.6127
 3086TIP3    H2 9223   1.276   5.906   1.770  1.3535  0.3210  2.1514
 3087TIP3   OH2 9224   3.675   3.336   1.119 -0.5323 -0.3829 -0.1720
 3087TIP3    H1 9225   3.673   3.275   1.046  0.4722 -0.8319  0.1561
 3087TIP3    H2 9226   3.588   3.376   1.119 -0.8877 -1.1146 -0.9800
 3088TIP3   OH2 9227   5.668   4.345   0.906 -0.8021  0.2858 -0.5676
 3088TIP3    H1 9228   5.602   4.375   0.969 -0.2270 -1.4967  0.9807
 3088TIP3    H2 9229   5.730   4.417   0.900 -0.0144 -0.0402  2.2338
 3089TIP3   OH2 9230   5.387   2.313   5.719 -0.5128  0.0389  0.2225
 3089TIP3    H1 9231   5.433   2.233   5.695  0.7153  0.5743  0.7030
 3089TIP3    H2 9232   5.422   2.380   5.659  2.0163  1.2231  2.8019
 3090TIP3   OH2 9233   6.942   0.636   4.350 -0.3958  0.5030 -0.5538
 3090TIP3    H1 9234   6.945   0.569   4.419  0.7558  0.2064 -0.8696
 3090TIP3    H2 9235   6.863   0.616   4.300  0.2676 -1.0298 -1.0388
 3091TIP3   OH2 9236   6.859   2.127   0.537  0.1324 -0.4285  0.0965
 3091TIP3    H1 9237   6.766   2.104   0.535 -0.1753  0.5218  1.4840
 3091TIP3    H2 9238   6.871   2.184   0.461 -0.6348  0.0787  0.3326
 3092TIP3   OH2 9239   0.576   0.811   2.904 -0.1268  0.0432 -0.6698
 3092TIP3    H1 9240   0.611   0.765   2.828  0.8895 -0.1822 -0.0852
 3092TIP3    H2 9241   0.579   0.747   2.975 -1.3608  0.1542 -0.4956
 3093TIP3   OH2 9242   0.236   1.219   1.164  0.2887 -0.7967  0.0584
 3093TIP3    H1 9243   0.286   1.272   1.227  2.1420 -1.5514 -0.6894
 3093TIP3    H2 9244   0.201   1.147   1.216 -0.4848  0.0232  0.6981
 3094TIP3   OH2 9245   3.356   1.136   0.594  0.2554 -0.4435 -0.3656
 3094TIP3    H1 9246   3.340   1.056   0.543 -1.2673  0.1044 -0.8167
 3094TIP3    H2 9247   3.312   1.205   0.544  0.1917  0.4100  0.8236
 3095TIP3   OH2 9248   3.237   6.072   1.079  0.6851  0.2294 -1.2400
 3095TIP3    H1 9249   3.199   6.151   1.119 -0.3459  0.2218 -2.1664
 3095TIP3    H2 9250   3.307   6.105   1.024  2.8186  0.1716  1.2417
 3096TIP3   OH2 9251   5.750   0.630   3.599  0.1256 -0.5582  0.2196
 3096TIP3    H1 9252   5.679   0.569   3.578  0.9226 -1.5901  0.4177
 3096TIP3    H2 9253   5.812   0.577   3.650  1.0214  0.3279  0.0713
 3097TIP3   OH2 9254   5.450   1.694   4.281 -0.4699  0.6412  0.3710
 3097TIP3    H1 9255   5.359   1.675   4.260 -1.1054  1.2324  2.3242
 3097TIP3    H2 9256   5.452   1.788   4.296  0.4353  0.6200  0.4434
 3098TIP3   OH2 9257   1.070   6.646   2.035 -0.1183 -0.6508  0.0775
 3098TIP3    H1 9258   1.067   6.595   1.955 -1.6517 -0.4067 -0.0566
 3098TIP3    H2 9259   1.020   6.595   2.099 -1.1822  0.3782  0.1022
 3099TIP3   OH2 9260   6.647   0.639   4.973 -0.1703 -0.1399  0.2015
 3099TIP3    H1 9261   6.721   0.681   5.016 -0.3815  0.0049  0.4285
 3099TIP3    H2 9262   6.610   0.582   5.039 -0.5790  0.1850  0.2585
 3100TIP3   OH2 9263   0.176   0.455   0.905 -0.0382  0.9090  0.5491
 3100TIP3    H1 9264   0.238   0.449   0.978  1.8031  2.0610 -0.8641
 3100TIP3    H2 9265   0.145   0.365   0.894  2.4117  0.0026  0.4438
 3101TIP3   OH2 9266   5.814   5.948   0.202 -0.1270 -0.1164 -0.4484
 3101TIP3    H1 9267   5.887   5.907   0.155 -0.1994  0.1443 -0.7900
 3101TIP3    H2 9268   5.744   5.955   0.137 -1.4937 -2.9582  0.5772
 3102TIP3   OH2 9269   0.650   0.014   1.955 -0.2199 -0.0189  0.6181
 3102TIP3    H1 9270   0.565   0.037   1.993 -0.5489 -0.5649  0.2242
 3102TIP3    H2 9271   0.709   0.085   1.983 -0.1835 -0.9175  3.0697
 3103TIP3   OH2 9272   5.131   4.982   3.701 -0.1263  0.6050 -0.1522
 3103TIP3    H1 9273   5.064   4.975   3.634 -0.0061 -0.3337 -0.1850
 3103TIP3    H2 9274   5.207   4.937   3.664 -0.3251 -0.7052  0.9258
 3104TIP3   OH2 9275   5.932   0.563   5.599 -0.0774  0.4440  0.2788
 3104TIP3    H1 9276   5.837   0.575   5.603 -0.1981 -0.1680 -0.4645
 3104TIP3    H2 9277   5.951   0.558   5.505  0.3343 -1.9996  0.4241
 3105TIP3   OH2 9278   6.911   1.348   0.858  0.3439  0.0892 -0.2365
 3105TIP3    H1 9279   6.883   1.417   0.917  1.0976  0.0855  0.1352
 3105TIP3    H2 9280   6.946   1.393   0.781  0.3843  0.1110 -0.2049
 3106TIP3   OH2 9281   6.278   3.223   3.444  0.1181  0.1296 -0.5002
 3106TIP3    H1 9282   6.348   3.161   3.423 -0.8678 -1.0874 -0.2664
 3106TIP3    H2 9283   6.254   3.204   3.534  0.3943  1.4711 -0.1150
 3107TIP3   OH2 9284   1.434   4.015   0.094 -0.2046 -0.9250  0.0108
 3107TIP3    H1 9285   1.417   4.107   0.114  0.6181 -0.5497 -0.9270
 3107TIP3    H2 9286   1.387   3.966   0.162 -0.7162  0.1794  0.4729
 3108TIP3   OH2 9287   4.412   0.354   1.924  0.0646 -0.4647  0.6241
 3108TIP3    H1 9288   4.379   0.272   1.959 -0.2918 -0.5659  0.0580
 3108TIP3    H2 9289   4.502   0.335   1.897  0.8209 -0.0645  2.6172
 3109TIP3   OH2 9290   4.429   4.620   3.509 -0.7182  0.2265  0.3949
 3109TIP3    H1 9291   4.344   4.579   3.526 -1.4600  2.0539  1.3481
 3109TIP3    H2 9292   4.411   4.714   3.513  1.2008  0.6577 -0.2305
 3110TIP3   OH2 9293   5.684   3.096   3.495  0.4778  0.3156 -0.0569
 3110TIP3    H1 9294   5.631   3.106   3.574  0.3366 -1.4365  0.1276
 3110TIP3    H2 9295   5.670   3.005   3.469  1.3622  0.5622 -1.4985
 3111TIP3   OH2 9296   4.593   6.590   4.927 -0.0241 -0.1297 -0.0186
 3111TIP3    H1 9297   4.577   6.611   5.019 -2.6006  0.0716 -0.4442
 3111TIP3    H2 9298   4.575   6.496   4.921 -1.4331  0.1477 -0.5686
 3112TIP3   OH2 9299   5.898   0.040   3.264  0.2946 -0.4426  0.0965
 3112TIP3    H1 9300   5.889   0.127   3.224 -0.9586 -2.0459 -3.5524
 3112TIP3    H2 9301   5.810   0.019   3.297  0.1516 -0.9890 -0.6144
 3113TIP3   OH2 9302   4.236   4.595   4.206 -0.1311  0.2277  0.3868
 3113TIP3    H1 9303   4.200   4.662   4.148  0.0840 -1.1600 -1.4618
 3113TIP3    H2 9304   4.178   4.594   4.282 -1.8182  0.5472 -0.8567
 3114TIP3   OH2 9305   5.363   2.739   5.212 -0.2435 -0.4602  0.3225
 3114TIP3    H1 9306   5.423   2.797   5.166 -0.4988  0.0423  0.6115
 3114TIP3    H2 9307   5.341   2.786   5.292 -0.9944 -0.6509  0.2385
 3115TIP3   OH2 9308   3.975   2.261   3.983 -0.0526 -0.1124  0.0185
 3115TIP3    H1 9309   3.955   2.312   3.904 -1.4349  0.3934  0.6608
 3115TIP3    H2 9310   3.945   2.316   4.055 -0.6419 -1.3927  0.7864
 3116TIP3   OH2 9311   5.866   4.534   3.126 -0.3765 -0.2205 -0.2647
 3116TIP3    H1 9312   5.828   4.571   3.207  0.0381  1.7644 -0.9230
 3116TIP3    H2 9313   5.960   4.535   3.141 -0.0316  2.9994 -1.7744
 3117TIP3   OH2 9314   0.674   2.890   4.141  0.4433  0.3039 -0.1677
 3117TIP3    H1 9315   0.710   2.919   4.057 -0.8338  0.5282 -0.6561
 3117TIP3    H2 9316   0.732   2.929   4.207  0.2014  1.9417 -0.8807
 3118TIP3   OH2 9317   1.788   5.965   5.596  0.0217 -0.6115  0.2963
 3118TIP3    H1 9318   1.707   5.915   5.582 -0.6684  0.8836 -1.4047
 3118TIP3    H2 9319   1.761   6.040   5.649  0.3603 -0.2569 -0.0327
 3119TIP3   OH2 9320   6.963   6.225   2.740 -0.2097  0.1341  0.5993
 3119TIP3    H1 9321   7.001   6.262   2.660 -0.0315  0.2281  0.7267
 3119TIP3    H2 9322   6.926   6.300   2.786  1.4384  0.3956  1.5735
 3120TIP3   OH2 9323   3.482   0.537   3.836  0.1551 -0.3160  0.4252
 3120TIP3    H1 9324   3.403   0.485   3.819 -1.1701  1.1446  1.8207
 3120TIP3    H2 9325   3.554   0.483   3.801 -1.5889 -0.7622 -2.8279
 3121TIP3   OH2 9326   3.025   2.300   0.681 -0.2347 -0.5056 -0.1305
 3121TIP3    H1 9327   3.120   2.285   0.682 -0.2509 -0.7779  1.8994
 3121TIP3    H2 9328   3.016   2.396   0.677  0.0988 -0.4886 -0.6430
 3122TIP3   OH2 9329   3.812   6.195   1.303 -0.7045  0.1395 -0.1672
 3122TIP3    H1 9330   3.755   6.158   1.236 -1.6359  0.7383  0.2699
 3122TIP3    H2 9331   3.884   6.235   1.254  0.9501 -3.0477 -0.6412
 3123TIP3   OH2 9332   0.423   6.277   3.227 -0.3787 -0.0638 -0.2877
 3123TIP3    H1 9333   0.481   6.353   3.225 -0.6286  0.2645  1.9129
 3123TIP3    H2 9334   0.480   6.203   3.246 -0.2201 -0.3517 -1.8053
 3124TIP3   OH2 9335   6.235   2.180   4.750 -0.3031 -0.1816  0.8123
 3124TIP3    H1 9336   6.216   2.175   4.656  0.9974 -2.8003  0.5948
 3124TIP3    H2 9337   6.275   2.266   4.762  0.5519 -0.2435 -1.2563
 3125TIP3   OH2 9338   0.337   4.998   4.587  0.8136  0.5998  1.1061
 3125TIP3    H1 9339   0.402   4.993   4.657  0.4264  1.1709  1.5140
 3125TIP3    H2 9340   0.339   4.911   4.547  2.1422  0.7506  0.8174
 3126TIP3   OH2 9341   1.351   6.369   3.690  0.4971 -0.4026  0.4392
 3126TIP3    H1 9342   1.444   6.365   3.667  0.4079 -1.0150  0.1794
 3126TIP3    H2 9343   1.348   6.345   3.782  0.5853 -0.4727  0.4236
 3127TIP3   OH2 9344   2.337   6.035   5.793  0.1580  0.5378 -0.6020
 3127TIP3    H1 9345   2.243   6.019   5.801  0.2520 -0.0061 -0.5746
 3127TIP3    H2 9346   2.355   6.106   5.854 -0.0569 -0.0420  0.1442
 3128TIP3   OH2 9347   2.277   2.477   1.678 -0.0920 -0.2034 -0.3961
 3128TIP3    H1 9348   2.219   2.470   1.754  1.5630 -1.9582  0.7991
 3128TIP3    H2 9349   2.318   2.563   1.687 -0.9426  0.1830 -0.1013
 3129TIP3   OH2 9350   2.983   6.151   4.697  0.2029 -0.5633  0.5547
 3129TIP3    H1 9351   2.915   6.124   4.759 -0.0717 -0.6588  0.2101
 3129TIP3    H2 9352   3.066   6.133   4.743 -0.0061  0.5756  1.4127
 3130TIP3   OH2 9353   1.936   3.181   2.391 -0.0841 -0.2793 -0.2144
 3130TIP3    H1 9354   1.905   3.096   2.359 -0.1317  0.0728 -1.1579
 3130TIP3    H2 9355   1.904   3.243   2.326  1.2531  0.2864 -0.3722
 3131TIP3   OH2 9356   1.869   2.277   3.178 -0.0181 -0.8549 -0.0743
 3131TIP3    H1 9357   1.920   2.267   3.258  0.2056 -1.7264 -0.3152
 3131TIP3    H2 9358   1.796   2.215   3.189 -0.8604  0.1470  0.1315
 3132TIP3   OH2 9359   5.401   1.559   2.935  0.4263  0.2577  0.0927
 3132TIP3    H1 9360   5.315   1.518   2.943 -0.5484  1.5482 -2.4031
 3132TIP3    H2 9361   5.396   1.638   2.989  0.3992 -0.1462  0.6879
 3133TIP3   OH2 9362   4.236   1.933   2.018 -0.4313 -0.1183  0.0938
 3133TIP3    H1 9363   4.316   1.979   1.995 -0.3936 -0.0377  0.3940
 3133TIP3    H2 9364   4.167   2.000   2.015 -0.6407 -0.3518 -1.0220
 3134TIP3   OH2 9365   1.168   2.256   3.252  0.1728  0.3221  0.0851
 3134TIP3    H1 9366   1.123   2.286   3.174  3.8770 -0.3169 -2.5701
 3134TIP3    H2 9367   1.150   2.162   3.256 -0.7821  0.5078  0.6631
 3135TIP3   OH2 9368   4.560   0.035   4.343  0.0697 -0.3099 -0.2172
 3135TIP3    H1 9369   4.652   0.062   4.339 -0.3031  0.9222 -1.5998
 3135TIP3    H2 9370   4.532   0.055   4.432  0.8716  0.2745 -0.0858
 3136TIP3   OH2 9371   2.734   3.120   4.141 -0.0511  0.2666 -0.7565
 3136TIP3    H1 9372   2.813   3.172   4.154  0.5813 -1.0343  0.9301
 3136TIP3    H2 9373   2.676   3.177   4.090  1.6728  1.5183 -1.4110
 3137TIP3   OH2 9374   4.392   5.919   2.711 -0.0750  0.1522 -0.5072
 3137TIP3    H1 9375   4.358   6.008   2.707 -1.2757 -0.2427  0.4015
 3137TIP3    H2 9376   4.318   5.864   2.686 -0.7241 -0.8310  3.0155
 3138TIP3   OH2 9377   0.251   3.575   1.334 -0.0255  0.4310  0.1848
 3138TIP3    H1 9378   0.289   3.508   1.391 -0.6907  1.2150  1.5938
 3138TIP3    H2 9379   0.324   3.602   1.278  0.6729 -0.3044  0.7084
 3139TIP3   OH2 9380   1.306   0.197   0.982  0.4221 -0.2074  0.2789
 3139TIP3    H1 9381   1.315   0.292   0.985 -0.0161 -0.1277 -0.5060
 3139TIP3    H2 9382   1.362   0.170   0.909 -0.7027 -0.3639 -0.5558
 3140TIP3   OH2 9383   0.982   3.422   3.121 -0.0167 -0.6126 -0.3333
 3140TIP3    H1 9384   0.951   3.336   3.147 -4.7076  0.5140 -1.3468
 3140TIP3    H2 9385   0.954   3.480   3.192  1.0062  0.4177 -0.7370
 3141TIP3   OH2 9386   3.165   2.026   5.025  0.3980  0.1448  0.2653
 3141TIP3    H1 9387   3.136   2.102   5.076  1.8670  0.5682  0.5054
 3141TIP3    H2 9388   3.103   2.022   4.952  0.4538  1.7605  0.0936
 3142TIP3   OH2 9389   1.787   1.922   2.690  0.2164 -0.5423  0.4815
 3142TIP3    H1 9390   1.854   1.860   2.720  0.6131 -0.4550 -0.1991
 3142TIP3    H2 9391   1.821   2.008   2.714  1.1091 -0.3815 -1.2305
 3143TIP3   OH2 9392   1.903   3.408   1.420 -0.0216  0.2114 -0.1338
 3143TIP3    H1 9393   1.981   3.364   1.452  0.7823  2.5241  1.3458
 3143TIP3    H2 9394   1.836   3.340   1.418  1.6480 -1.4977 -0.0234
 3144TIP3   OH2 9395   3.917   1.313   4.102  0.2087  0.0480 -0.5006
 3144TIP3    H1 9396   3.918   1.244   4.168 -1.6432  1.2603  0.9040
 3144TIP3    H2 9397   3.989   1.371   4.126  0.8755 -0.6256 -0.8427
 3145TIP3   OH2 9398   6.020   0.623   3.370  0.5203  0.2051 -0.3501
 3145TIP3    H1 9399   5.928   0.606   3.350  0.5724  0.0045 -0.4243
 3145TIP3    H2 9400   6.042   0.556   3.435  0.2855  0.9904  0.5571
 3146TIP3   OH2 9401   1.335   1.526   1.835 -0.0327 -0.1533  0.3973
 3146TIP3    H1 9402   1.373   1.595   1.781 -0.1700  0.0156  0.5160
 3146TIP3    H2 9403   1.388   1.524   1.914 -0.6253  0.4795  0.8167
 3147TIP3   OH2 9404   2.767   5.369   4.167 -0.5153  0.9376  0.4521
 3147TIP3    H1 9405   2.859   5.356   4.193 -0.3917 -0.1781 -0.4719
 3147TIP3    H2 9406   2.746   5.456   4.199  0.3963  0.6286  2.0273
 3148TIP3   OH2 9407   6.318   0.356   1.280 -0.3945 -0.0664  0.2359
 3148TIP3    H1 9408   6.306   0.433   1.225 -1.4817  0.0107  0.5718
 3148TIP3    H2 9409   6.339   0.391   1.367 -0.8090 -0.1510  0.3701
 3149TIP3   OH2 9410   4.848   2.110   4.381 -0.4530 -0.0770  0.2923
 3149TIP3    H1 9411   4.759   2.146   4.373 -1.6155 -2.1207  2.4302
 3149TIP3    H2 9412   4.867   2.116   4.475  1.1403 -0.8358  0.0417
 3150TIP3   OH2 9413   0.558   4.543   1.553  0.3617 -0.4083 -0.3791
 3150TIP3    H1 9414   0.567   4.449   1.566 -0.6881 -0.4174  0.4066
 3150TIP3    H2 9415   0.486   4.569   1.611  1.6628  1.1454  0.6375
 3151TIP3   OH2 9416   3.243   0.547   4.707  0.1374 -0.4327 -0.7737
 3151TIP3    H1 9417   3.309   0.557   4.777  1.1049 -0.6961 -1.6210
 3151TIP3    H2 9418   3.179   0.615   4.725  0.4343 -0.4061  0.3004
 3152TIP3   OH2 9419   5.780   4.650   3.365  0.2713  0.1628 -0.3930
 3152TIP3    H1 9420   5.842   4.706   3.411  1.3868  0.2675 -1.9245
 3152TIP3    H2 9421   5.755   4.583   3.428 -0.8119  2.1125  1.3971
 3153TIP3   OH2 9422   6.938   5.489   1.079  0.1637 -0.3311 -0.0015
 3153TIP3    H1 9423   7.019   5.452   1.114  0.6679  0.5684 -0.1822
 3153TIP3    H2 9424   6.938   5.580   1.110 -0.2369 -0.0151 -0.8853
 3154TIP3   OH2 9425   6.270   1.648   5.484 -0.8168 -0.1712 -0.0449
 3154TIP3    H1 9426   6.312   1.656   5.570  0.6092  1.4533 -0.8302
 3154TIP3    H2 9427   6.233   1.559   5.484  0.5247 -0.7977  1.6454
 3155TIP3   OH2 9428   5.131   2.374   4.651  0.3794 -0.3326  0.5529
 3155TIP3    H1 9429   5.169   2.287   4.663  0.8253 -0.1114  0.7914
 3155TIP3    H2 9430   5.090   2.371   4.565  0.2977 -0.8130  0.6075
 3156TIP3   OH2 9431   2.661   2.784   2.126 -0.1280  0.6677 -0.4806
 3156TIP3    H1 9432   2.683   2.872   2.095 -0.2210  0.9559  0.2493
 3156TIP3    H2 9433   2.745   2.744   2.148 -0.1256  0.7445 -0.3545
 3157TIP3   OH2 9434   0.818   1.581   1.768 -0.0407  0.1990 -0.1217
 3157TIP3    H1 9435   0.909   1.586   1.738  0.2717 -0.4271  0.6682
 3157TIP3    H2 9436   0.819   1.512   1.835 -0.4293  2.2701  2.1807
 3158TIP3   OH2 9437   4.200   4.472   1.675 -0.0101  0.0769 -0.2523
 3158TIP3    H1 9438   4.280   4.484   1.727  1.6598  1.9141 -2.9363
 3158TIP3    H2 9439   4.208   4.537   1.605 -3.1109 -0.8130 -1.5917
 3159TIP3   OH2 9440   1.375   3.282   0.385 -0.1561  0.5362 -0.2454
 3159TIP3    H1 9441   1.344   3.192   0.383  0.7905  0.2136 -0.5143
 3159TIP3    H2 9442   1.460   3.278   0.428 -0.5284  1.4398  0.6295
 3160TIP3   OH2 9443   2.460   1.688   4.638 -0.1563  0.0288  0.2817
 3160TIP3    H1 9444   2.538   1.676   4.692  0.7346 -0.5086 -1.0751
 3160TIP3    H2 9445   2.389   1.650   4.690  0.7338 -0.8057  0.9191
 3161TIP3   OH2 9446   6.016   0.510   1.111  0.4501 -0.1050 -0.2348
 3161TIP3    H1 9447   5.960   0.522   1.034  0.3505  1.2156  0.0144
 3161TIP3    H2 9448   5.966   0.550   1.183 -0.1431 -2.6464  0.8545
 3162TIP3   OH2 9449   4.057   5.477   1.705 -0.5440 -0.1589 -0.2812
 3162TIP3    H1 9450   4.129   5.416   1.693  0.1228  0.0590  2.0983
 3162TIP3    H2 9451   4.028   5.498   1.617  1.0353 -1.7410 -1.2304
 3163TIP3   OH2 9452   3.460   0.684   5.277 -0.0322  0.9148 -0.1890
 3163TIP3    H1 9453   3.398   0.616   5.302  0.3968  0.5089 -0.2242
 3163TIP3    H2 9454   3.515   0.644   5.210  2.1739  0.2479  1.8913
 3164TIP3   OH2 9455   1.683   5.807   1.003 -0.0429 -0.0171  0.4861
 3164TIP3    H1 9456   1.736   5.831   0.927 -0.4792  0.6231  0.3810
 3164TIP3    H2 9457   1.620   5.743   0.969  2.1532 -2.6760  1.0954
 3165TIP3   OH2 9458   4.435   5.027   1.312 -0.3777  0.1964  0.2002
 3165TIP3    H1 9459   4.371   5.011   1.243 -2.4863  1.2925  1.7750
 3165TIP3    H2 9460   4.453   5.121   1.307  0.3853  0.0661  0.3752
 3166TIP3   OH2 9461   6.359   0.241   5.135  0.6431 -0.1395  0.2937
 3166TIP3    H1 9462   6.318   0.292   5.064 -0.3663  0.0869  1.0121
 3166TIP3    H2 9463   6.358   0.300   5.210  0.1176 -0.9567  0.9501
 3167TIP3   OH2 9464   4.722   5.606   2.941 -0.4846 -0.4471 -0.1865
 3167TIP3    H1 9465   4.750   5.690   2.978  0.9526 -0.5453 -0.9769
 3167TIP3    H2 9466   4.756   5.540   3.002 -0.8131 -0.4965 -0.0536
 3168TIP3   OH2 9467   0.699   3.242   1.289 -0.1315  0.2018  0.1314
 3168TIP3    H1 9468   0.679   3.318   1.343 -0.4507  0.7865 -0.7829
 3168TIP3    H2 9469   0.768   3.272   1.229 -1.0191  0.1217 -0.9641
 3169TIP3   OH2 9470   4.909   2.788   3.533  0.1026 -0.3603  0.0429
 3169TIP3    H1 9471   4.819   2.754   3.536  0.3699 -1.0303  0.9130
 3169TIP3    H2 9472   4.905   2.872   3.577  0.0658 -0.8169  0.9383
 3170TIP3   OH2 9473   1.304   5.748   0.500 -0.4428 -0.2033  0.0635
 3170TIP3    H1 9474   1.366   5.819   0.481 -0.7726  0.4303  1.2850
 3170TIP3    H2 9475   1.301   5.743   0.595 -2.0752 -0.3815  0.0322
 3171TIP3   OH2 9476   0.116   0.290   4.962 -0.5671 -0.1106  0.2970
 3171TIP3    H1 9477   0.076   0.290   4.875 -0.9891 -0.8140  0.4865
 3171TIP3    H2 9478   0.194   0.234   4.953 -1.3974 -1.3731  0.7113
 3172TIP3   OH2 9479   3.354   6.779   0.401  0.3742 -0.4378  0.1432
 3172TIP3    H1 9480   3.261   6.759   0.399  0.0574  0.8496 -2.0825
 3172TIP3    H2 9481   3.396   6.696   0.423 -1.1926 -1.6970 -1.2920
 3173TIP3   OH2 9482   5.766   0.077   2.366  0.2444  0.1362 -0.1847
 3173TIP3    H1 9483   5.759  -0.017   2.353  1.7113  0.2520 -2.3772
 3173TIP3    H2 9484   5.833   0.105   2.303  1.4237  2.3406  1.8622
 3174TIP3   OH2 9485   0.931   2.644   0.374 -0.5635  0.2600 -0.5742
 3174TIP3    H1 9486   0.920   2.679   0.286  0.3970  1.8396 -0.1026
 3174TIP3    H2 9487   0.996   2.701   0.415 -0.0774 -1.1834  0.7643
 3175TIP3   OH2 9488   0.923   4.874   5.538 -0.3015 -0.0322  0.2723
 3175TIP3    H1 9489   0.900   4.903   5.449 -0.3507  2.0250  0.9129
 3175TIP3    H2 9490   0.839   4.849   5.577 -0.2200 -1.4530 -0.3920
 3176TIP3   OH2 9491   6.325   1.035   4.715 -0.4421  0.4134  0.0425
 3176TIP3    H1 9492   6.261   1.106   4.716 -0.8490  0.0547 -0.4248
 3176TIP3    H2 9493   6.371   1.044   4.799  0.4251  2.0346 -0.5455
 3177TIP3   OH2 9494   5.095   3.978   2.303 -0.5854  0.0950  0.7926
 3177TIP3    H1 9495   5.172   4.015   2.262 -1.2508  1.1864  0.4798
 3177TIP3    H2 9496   5.088   3.889   2.268  0.1112  0.2427  0.2823
 3178TIP3   OH2 9497   3.988   1.148   0.244  0.3699 -0.0118  0.0969
 3178TIP3    H1 9498   3.952   1.170   0.330  0.2023 -0.3110  0.1045
 3178TIP3    H2 9499   3.912   1.119   0.193  0.7906 -2.2279  0.6089
 3179TIP3   OH2 9500   4.514   4.610   2.728 -0.3648  0.1653 -0.3127
 3179TIP3    H1 9501   4.469   4.530   2.754 -0.2460  0.1734 -0.0758
 3179TIP3    H2 9502   4.492   4.673   2.796  0.5363 -0.0236  0.1696
 3180TIP3   OH2 9503   0.353   2.568   5.224 -0.3119  0.5818  0.0861
 3180TIP3    H1 9504   0.364   2.522   5.307 -1.5952 -0.5618 -0.3582
 3180TIP3    H2 9505   0.397   2.652   5.238  0.2827  0.0545  1.6050
 3181TIP3   OH2 9506   2.084   0.192   4.832  0.4554  0.4960  0.0328
 3181TIP3    H1 9507   2.157   0.244   4.798  0.3609  0.6329  0.0339
 3181TIP3    H2 9508   2.109   0.101   4.817  0.4665  0.5508 -0.2974
 3182TIP3   OH2 9509   6.250   4.576   2.428 -0.2326  0.5516  0.1660
 3182TIP3    H1 9510   6.275   4.602   2.517 -1.6817 -1.0030  1.1008
 3182TIP3    H2 9511   6.334   4.560   2.383  0.5207  0.6253  1.4883
 3183TIP3   OH2 9512   6.383   4.669   0.995  0.2935 -0.1332  0.3793
 3183TIP3    H1 9513   6.302   4.618   0.993  0.2723 -0.0983 -2.5088
 3183TIP3    H2 9514   6.367   4.743   0.936  1.5087  1.4411  1.9056
 3184TIP3   OH2 9515   1.271   4.403   3.811  0.1094  0.1219 -0.2281
 3184TIP3    H1 9516   1.176   4.407   3.821  0.0440 -1.0600 -0.2311
 3184TIP3    H2 9517   1.285   4.363   3.726  0.5941 -0.9460  0.3361
 3185TIP3   OH2 9518   2.502   0.044   1.194 -0.0959  0.2729  0.2047
 3185TIP3    H1 9519   2.485   0.051   1.288  0.2142 -0.3663  0.3189
 3185TIP3    H2 9520   2.587   0.000   1.189 -0.6435 -0.7628 -0.3732
 3186TIP3   OH2 9521   4.508   2.847   3.370 -0.3979 -0.0477  0.0320
 3186TIP3    H1 9522   4.573   2.831   3.302  0.3604 -1.3672  1.0062
 3186TIP3    H2 9523   4.553   2.824   3.451 -1.6996  0.2031  0.8541
 3187TIP3   OH2 9524   7.012   0.370   4.119  0.2896  0.3930  0.6100
 3187TIP3    H1 9525   6.987   0.426   4.045  0.3862  1.3200  1.2608
 3187TIP3    H2 9526   7.054   0.294   4.078 -0.4213  0.4832 -0.3252
 3188TIP3   OH2 9527   2.396   6.087   1.792 -0.4766 -0.8133  0.1092
 3188TIP3    H1 9528   2.400   6.110   1.700  0.3595 -0.3960  0.2410
 3188TIP3    H2 9529   2.480   6.116   1.828 -1.2140  0.0212  1.2311
 3189TIP3   OH2 9530   1.500   1.453   2.063  0.0954  0.3606 -0.1265
 3189TIP3    H1 9531   1.570   1.389   2.066 -0.9751 -0.8221  1.8356
 3189TIP3    H2 9532   1.531   1.525   2.118  0.4242  0.5828 -0.5967
 3190TIP3   OH2 9533   3.175   0.726   4.453 -0.1412 -0.1268 -0.0592
 3190TIP3    H1 9534   3.226   0.687   4.524  1.9584 -0.1285 -1.4712
 3190TIP3    H2 9535   3.090   0.746   4.492  0.4756 -1.3735  2.0605
 3191TIP3   OH2 9536   2.452   0.611   0.439 -0.1235 -0.1529  0.0804
 3191TIP3    H1 9537   2.452   0.542   0.373 -1.2316  1.6718 -1.9242
 3191TIP3    H2 9538   2.544   0.624   0.460  0.0803 -3.7774  2.3497
 3192TIP3   OH2 9539   5.863   1.987   3.467  0.2105 -0.0092 -0.4023
 3192TIP3    H1 9540   5.793   2.050   3.449 -0.8484 -1.2495 -0.7434
 3192TIP3    H2 9541   5.823   1.922   3.525  1.1940 -0.5471 -0.2989
 3193TIP3   OH2 9542   6.381   3.948   5.860 -0.1117 -0.1627  0.4608
 3193TIP3    H1 9543   6.368   3.890   5.935  1.7965 -1.4642 -0.1461
 3193TIP3    H2 9544   6.470   3.930   5.831 -0.3374  1.2937 -1.3068
 3194TIP3   OH2 9545   4.269   4.091   3.757  0.0682 -0.3908  0.1545
 3194TIP3    H1 9546   4.351   4.042   3.747  0.1207  0.0720 -2.6168
 3194TIP3    H2 9547   4.296   4.182   3.764 -0.1648 -0.4237  1.8917
 3195TIP3   OH2 9548   4.007   6.399   0.895 -0.3734  0.3396  0.1713
 3195TIP3    H1 9549   3.962   6.315   0.880 -1.8104  1.1196 -0.0308
 3195TIP3    H2 9550   4.088   6.392   0.844 -0.9697 -0.5264 -0.7042
 3196TIP3   OH2 9551   6.007   0.050   5.192 -0.8436 -0.3009  0.0148
 3196TIP3    H1 9552   6.024  -0.021   5.130  1.7827 -1.4296  1.8337
 3196TIP3    H2 9553   5.914   0.043   5.212 -0.9140 -2.4742 -0.7985
 3197TIP3   OH2 9554   3.143   3.384   5.148 -0.1158  0.2204  0.8988
 3197TIP3    H1 9555   3.202   3.323   5.192  1.1780  0.0971 -0.8847
 3197TIP3    H2 9556   3.144   3.463   5.203 -0.0391 -0.5453  2.0372
 3198TIP3   OH2 9557   3.959   0.482   3.909  0.2103 -0.0429  0.0282
 3198TIP3    H1 9558   3.995   0.395   3.925  0.2672  0.2871  1.9640
 3198TIP3    H2 9559   3.916   0.506   3.991  0.0444  1.6815 -0.5155
 3199TIP3   OH2 9560   6.164   2.544   4.541  0.1809  0.0114 -0.3650
 3199TIP3    H1 9561   6.227   2.509   4.604 -0.7589 -0.3223  0.4141
 3199TIP3    H2 9562   6.154   2.636   4.566  0.1550 -0.0055 -0.3121
 3200TIP3   OH2 9563   2.048   2.726   1.586  0.1937 -0.0071 -0.2573
 3200TIP3    H1 9564   2.111   2.783   1.541  1.7304 -1.7922 -0.4718
 3200TIP3    H2 9565   2.013   2.669   1.518 -2.8527  1.8409 -0.4369
 3201TIP3   OH2 9566   1.940   0.072   2.917 -0.5832 -0.0802  0.9118
 3201TIP3    H1 9567   1.873   0.129   2.879 -1.1117 -0.6865  0.9237
 3201TIP3    H2 9568   1.895  -0.010   2.935  0.2507 -0.6362  0.5587
 3202TIP3   OH2 9569   0.393   0.147   3.072 -0.4355  0.0127 -0.3992
 3202TIP3    H1 9570   0.484   0.160   3.099 -0.9604  0.6061  1.1928
 3202TIP3    H2 9571   0.355   0.235   3.073 -0.5144  0.0706 -3.1745
 3203TIP3   OH2 9572   1.370   4.078   4.195 -0.0523  0.0921 -0.1441
 3203TIP3    H1 9573   1.442   4.081   4.131 -0.0949  1.9060 -0.1685
 3203TIP3    H2 9574   1.300   4.129   4.154 -0.5462  0.2071  0.8115
 3204TIP3   OH2 9575   6.731   4.069   2.508  0.0342 -0.0942  0.8670
 3204TIP3    H1 9576   6.638   4.077   2.526 -0.3969  0.2942 -1.3104
 3204TIP3    H2 9577   6.747   4.127   2.434  1.8642 -0.7031  0.7288
 3205TIP3   OH2 9578   4.042   1.770   5.878 -0.5119 -0.4238 -0.1066
 3205TIP3    H1 9579   4.133   1.765   5.909  0.3476  1.0263 -2.1406
 3205TIP3    H2 9580   4.018   1.680   5.860 -0.2653 -1.0717  2.4042
 3206TIP3   OH2 9581   4.967   6.370   3.128 -0.2075 -0.3916  0.0937
 3206TIP3    H1 9582   5.038   6.307   3.137 -0.4156 -0.6583 -0.1059
 3206TIP3    H2 9583   4.891   6.326   3.167 -0.6361 -0.7460 -1.1079
 3207TIP3   OH2 9584   5.894   2.080   4.572 -0.3699 -0.3540  0.4980
 3207TIP3    H1 9585   5.927   2.151   4.628  0.7872  0.3814 -1.0474
 3207TIP3    H2 9586   5.961   2.013   4.575  1.1138  0.8491 -2.0928
 3208TIP3   OH2 9587   1.477   4.509   5.838  0.2987  0.6136  0.2533
 3208TIP3    H1 9588   1.433   4.593   5.823  0.3336  0.7737  1.0140
 3208TIP3    H2 9589   1.437   4.476   5.919 -0.3938 -0.5546 -0.5404
 3209TIP3   OH2 9590   3.939   5.290   3.304 -0.0888 -0.2910 -0.0961
 3209TIP3    H1 9591   3.969   5.217   3.249 -2.5989 -1.5198  0.0114
 3209TIP3    H2 9592   3.948   5.367   3.249  3.7675 -0.3851  0.1828
 3210TIP3   OH2 9593   0.129   2.854  -0.018 -0.0073 -0.2102 -0.5186
 3210TIP3    H1 9594   0.190   2.780  -0.029 -1.2962 -1.5782  0.9355
 3210TIP3    H2 9595   0.171   2.909   0.048 -0.2885 -1.1312  0.4610
 3211TIP3   OH2 9596   0.350   1.755   5.513 -0.3200 -0.9019  0.3144
 3211TIP3    H1 9597   0.427   1.735   5.567  0.4333  0.0307 -0.3818
 3211TIP3    H2 9598   0.327   1.844   5.538 -1.2192 -1.1951  0.5544
 3212TIP3   OH2 9599   4.031   5.286   4.174  0.0616  0.3457 -0.5670
 3212TIP3    H1 9600   3.937   5.300   4.167  0.1817  1.0216 -0.9279
 3212TIP3    H2 9601   4.063   5.361   4.223  0.2939 -0.3745  0.4242
 3213TIP3   OH2 9602   0.718   6.512   3.546 -0.3545  0.1970 -0.1903
 3213TIP3    H1 9603   0.792   6.571   3.534  1.4971 -2.1488 -0.8982
 3213TIP3    H2 9604   0.757   6.428   3.568 -2.9166 -0.7285  1.2413
 3214TIP3   OH2 9605   1.746   4.558   0.910  0.7091 -0.6700 -0.1101
 3214TIP3    H1 9606   1.684   4.582   0.979  0.6188 -1.2284  0.0069
 3214TIP3    H2 9607   1.822   4.615   0.924  0.0265  0.3882 -0.5697
 3215TIP3   OH2 9608   3.601   0.314   0.051  0.1089  0.4237 -0.0502
 3215TIP3    H1 9609   3.592   0.377  -0.021  2.4007  1.6743  0.6453
 3215TIP3    H2 9610   3.669   0.254   0.021 -1.3971 -1.2298 -0.3095
 3216TIP3   OH2 9611   5.048   2.281   5.653 -0.3306  0.5152  0.9079
 3216TIP3    H1 9612   5.084   2.195   5.635 -1.4491  0.1669  0.2193
 3216TIP3    H2 9613   5.026   2.280   5.746 -1.6830 -0.4920  0.6088
 3217TIP3   OH2 9614   4.498   0.625   1.270 -0.4314 -0.7640 -0.0831
 3217TIP3    H1 9615   4.546   0.634   1.187  0.3779  0.8351  0.5200
 3217TIP3    H2 9616   4.567   0.617   1.336 -1.0148  0.4597  0.6952
 3218TIP3   OH2 9617   1.058   4.361   4.210 -0.2541  0.3333  0.0796
 3218TIP3    H1 9618   1.109   4.432   4.249 -1.2730  1.3608 -0.3994
 3218TIP3    H2 9619   1.043   4.300   4.282  0.1962  0.8657  0.6325
 3219TIP3   OH2 9620   6.150   3.637   4.270 -0.1684  0.1190  0.4717
 3219TIP3    H1 9621   6.098   3.586   4.208  0.1652  1.5188 -1.0109
 3219TIP3    H2 9622   6.222   3.579   4.294  0.8760  0.2376 -2.0964
 3220TIP3   OH2 9623   6.872   4.916   0.481 -0.6882  0.3793  0.1515
 3220TIP3    H1 9624   6.887   4.945   0.571  1.3424  0.0163 -0.0091
 3220TIP3    H2 9625   6.927   4.838   0.471 -2.8984 -1.1636 -0.6457
 3221TIP3   OH2 9626   2.029   3.085   5.754  0.2159 -0.0206  0.1109
 3221TIP3    H1 9627   1.978   3.163   5.731  1.8631  1.0802  0.0109
 3221TIP3    H2 9628   2.094   3.078   5.683  1.5954 -0.0518  1.3369
 3222TIP3   OH2 9629   3.132   6.768   5.107  0.1420 -0.1956  0.4436
 3222TIP3    H1 9630   3.091   6.682   5.121 -2.9343  1.2039  0.7806
 3222TIP3    H2 9631   3.190   6.780   5.182  0.3529 -1.7853  0.5750
 3223TIP3   OH2 9632   0.816   0.567   4.064 -0.2418  0.4174  0.1579
 3223TIP3    H1 9633   0.901   0.608   4.050  0.2169 -1.2737 -2.6491
 3223TIP3    H2 9634   0.755   0.620   4.013 -0.2338 -0.3324 -0.6565
 3224TIP3   OH2 9635   4.713   4.729   5.663  0.1038 -1.0400 -0.4599
 3224TIP3    H1 9636   4.789   4.778   5.695 -0.2935 -1.0922  0.6090
 3224TIP3    H2 9637   4.740   4.637   5.669  0.0772 -1.0440 -0.3992
 3225TIP3   OH2 9638   5.122   1.290   4.677  0.1526 -0.0728 -0.1324
 3225TIP3    H1 9639   5.106   1.357   4.611  1.5450  0.7283  0.2801
 3225TIP3    H2 9640   5.080   1.324   4.756 -0.8253 -0.6431 -0.4023
 3226TIP3   OH2 9641   1.365   1.605   3.460  0.0245 -0.4506  0.4138
 3226TIP3    H1 9642   1.404   1.523   3.492  0.5692 -0.2919  0.1715
 3226TIP3    H2 9643   1.369   1.597   3.364 -1.4727 -0.8693  0.3666
 3227TIP3   OH2 9644   6.608   3.577   4.568 -0.4328  0.2004  0.4735
 3227TIP3    H1 9645   6.536   3.560   4.629 -1.2164 -0.9081 -0.7074
 3227TIP3    H2 9646   6.589   3.663   4.531 -0.1098  0.7490  1.5512
 3228TIP3   OH2 9647   2.900   2.715   0.876 -0.0209 -0.1644  0.6157
 3228TIP3    H1 9648   2.950   2.795   0.887 -0.9461  0.3174  1.4368
 3228TIP3    H2 9649   2.829   2.739   0.816 -0.5676 -0.2270  1.2218
 3229TIP3   OH2 9650   4.997   2.538   1.518 -0.7098  0.0694 -0.0233
 3229TIP3    H1 9651   4.952   2.470   1.468  0.1793  0.2689 -1.1033
 3229TIP3    H2 9652   4.953   2.536   1.604 -0.4963 -2.0769  0.0983
 3230TIP3   OH2 9653   3.670   4.499   2.188 -0.7927 -0.0346 -0.3339
 3230TIP3    H1 9654   3.751   4.551   2.183 -1.4560  0.9506 -1.3732
 3230TIP3    H2 9655   3.697   4.411   2.164  0.0618  0.1903 -0.2326
 3231TIP3   OH2 9656   4.649   5.708   3.419 -0.0395  0.5499 -0.4358
 3231TIP3    H1 9657   4.635   5.765   3.494  0.8021  1.5029 -0.9736
 3231TIP3    H2 9658   4.577   5.729   3.359 -0.4429  0.1275 -0.1095
 3232TIP3   OH2 9659   4.904   4.781   5.856 -0.3599 -0.3719 -0.2409
 3232TIP3    H1 9660   4.925   4.692   5.885 -0.7451  0.5797  3.3807
 3232TIP3    H2 9661   4.984   4.831   5.873 -0.8858  0.4271 -0.0685
 3233TIP3   OH2 9662   1.790   4.229   3.478 -1.0524 -0.4253  0.4565
 3233TIP3    H1 9663   1.837   4.312   3.473 -2.0704  0.0930 -1.7801
 3233TIP3    H2 9664   1.750   4.230   3.566  1.0305  0.2117  1.4636
 3234TIP3   OH2 9665   6.407   2.771   4.679 -0.0108  0.2385  0.1753
 3234TIP3    H1 9666   6.417   2.864   4.660  1.1816  0.0496 -0.2123
 3234TIP3    H2 9667   6.382   2.767   4.771  1.3497  0.8991  0.6036
 3235TIP3   OH2 9668   0.045   6.534   3.162 -0.3678  0.1878 -0.8463
 3235TIP3    H1 9669   0.100   6.516   3.087 -1.4287  0.9784 -1.8554
 3235TIP3    H2 9670   0.092   6.603   3.210  0.1653 -0.1026 -0.9432
 3236TIP3   OH2 9671   4.566   4.967   0.803 -0.7026  0.2581 -0.2338
 3236TIP3    H1 9672   4.605   4.911   0.870  0.1273  0.1953 -0.7586
 3236TIP3    H2 9673   4.558   5.053   0.845 -1.8897 -0.2072  0.5389
 3237TIP3   OH2 9674   5.476   3.444   1.342  0.1878 -0.4050  0.0848
 3237TIP3    H1 9675   5.388   3.407   1.351 -0.0866  0.0538 -0.5951
 3237TIP3    H2 9676   5.518   3.429   1.427 -1.5130  1.9042  1.4730
 3238TIP3   OH2 9677   0.239   3.449   2.555  0.1865 -0.1519  0.2947
 3238TIP3    H1 9678   0.209   3.451   2.646  0.2615  0.7396  0.3063
 3238TIP3    H2 9679   0.196   3.523   2.514 -0.3502 -0.9231 -0.5712
 3239TIP3   OH2 9680   1.149   4.020   5.103 -0.1288  0.3720 -0.2960
 3239TIP3    H1 9681   1.218   4.072   5.060  1.3459 -0.2955  1.1574
 3239TIP3    H2 9682   1.157   4.042   5.196  0.1485 -1.9431  0.2866
 3240TIP3   OH2 9683   3.631   6.173   3.562 -0.2704 -0.5661 -0.2495
 3240TIP3    H1 9684   3.618   6.265   3.540  2.5122 -0.6608 -3.0178
 3240TIP3    H2 9685   3.680   6.175   3.645 -2.1396  0.2750  0.8984
 3241TIP3   OH2 9686   1.666   3.741   3.146 -0.4530  0.0534  0.0746
 3241TIP3    H1 9687   1.721   3.819   3.146 -0.5472  0.1654  1.8847
 3241TIP3    H2 9688   1.583   3.771   3.109 -1.5640  1.7087  3.5445
 3242TIP3   OH2 9689   1.190   3.598   0.251  0.2264  0.0778 -0.1205
 3242TIP3    H1 9690   1.258   3.531   0.238 -0.1704 -0.1210 -1.3408
 3242TIP3    H2 9691   1.235   3.670   0.293  0.8282 -0.6778  0.5693
 3243TIP3   OH2 9692   1.257   2.267   2.040  0.1360 -0.4814  0.3690
 3243TIP3    H1 9693   1.251   2.318   2.120 -0.5841 -0.1287  0.0951
 3243TIP3    H2 9694   1.350   2.242   2.035  0.3589  0.2095  0.8595
 3244TIP3   OH2 9695   1.580   0.048   1.461 -0.3491  0.4186  0.1956
 3244TIP3    H1 9696   1.546   0.021   1.375 -0.6528 -0.3205  0.5390
 3244TIP3    H2 9697   1.658  -0.006   1.474 -0.7010  0.0199  0.6864
 3245TIP3   OH2 9698   2.927   5.922   1.368 -0.3241  0.5366 -0.2477
 3245TIP3    H1 9699   2.944   6.016   1.374  1.3605  0.2714 -0.5302
 3245TIP3    H2 9700   2.962   5.886   1.449 -0.3189  0.0602 -0.4569
 3246TIP3   OH2 9701   4.093   2.365   3.655 -0.1201  0.2170 -0.2068
 3246TIP3    H1 9702   4.006   2.397   3.680 -0.0533  0.3302 -0.1199
 3246TIP3    H2 9703   4.079   2.325   3.569 -0.4547 -0.6554  0.2452
 3247TIP3   OH2 9704   1.454   1.202   0.355  0.0460  0.2213 -0.2179
 3247TIP3    H1 9705   1.545   1.202   0.384  0.5868  0.2626 -1.8384
 3247TIP3    H2 9706   1.405   1.164   0.429  1.4813 -0.6221  0.3312
 3248TIP3   OH2 9707   2.519   5.384   3.772 -0.5432 -0.3227 -0.0590
 3248TIP3    H1 9708   2.600   5.362   3.817  0.9541  0.5242 -2.1752
 3248TIP3    H2 9709   2.502   5.475   3.795 -1.2938 -0.6814  0.8868
 3249TIP3   OH2 9710   0.107   6.040   2.877 -0.7348  0.3554  0.2017
 3249TIP3    H1 9711   0.194   6.049   2.917 -0.0997 -0.6053 -0.9281
 3249TIP3    H2 9712   0.090   6.125   2.838  1.1179 -0.3270 -2.2962
 3250TIP3   OH2 9713   5.270   4.729   1.265  0.2464 -0.1617 -0.1456
 3250TIP3    H1 9714   5.217   4.649   1.265 -0.2656  0.1727 -0.3628
 3250TIP3    H2 9715   5.279   4.751   1.172  0.2431  0.1236 -0.0785
 3251TIP3   OH2 9716   1.123   2.664   2.189  0.6625  0.5459  0.7617
 3251TIP3    H1 9717   1.033   2.671   2.158  0.0067  1.3669  2.7453
 3251TIP3    H2 9718   1.135   2.738   2.248  0.6677 -2.5959  5.1824
 3252TIP3   OH2 9719   6.862   0.296   1.139 -0.4950 -0.5875 -0.1719
 3252TIP3    H1 9720   6.775   0.335   1.145  0.1662  0.7655  1.3222
 3252TIP3    H2 9721   6.861   0.248   1.057 -2.2853  0.3092 -0.7235
 3253TIP3   OH2 9722   1.749   4.809   4.593 -0.0011 -0.4640 -0.2726
 3253TIP3    H1 9723   1.756   4.855   4.510 -0.0327 -0.9028 -0.5220
 3253TIP3    H2 9724   1.820   4.845   4.647  1.9338 -2.2196 -1.4854
 3254TIP3   OH2 9725   1.313   1.263   5.755  0.1650 -0.6572 -0.1109
 3254TIP3    H1 9726   1.269   1.257   5.671  1.1564  0.4586 -0.7453
 3254TIP3    H2 9727   1.395   1.309   5.736  0.8842 -1.2931  1.2876
 3255TIP3   OH2 9728   4.545   3.726   4.167 -0.1916 -0.1181  0.2293
 3255TIP3    H1 9729   4.597   3.677   4.230 -2.6286 -2.1411  0.8700
 3255TIP3    H2 9730   4.471   3.760   4.218  0.3376  2.5526 -0.6340
 3256TIP3   OH2 9731   3.582   3.104   0.778  0.0525  0.0121  0.1757
 3256TIP3    H1 9732   3.528   3.182   0.788  1.8194  1.2993  0.0544
 3256TIP3    H2 9733   3.638   3.123   0.703  1.5024 -0.7533  1.0206
 3257TIP3   OH2 9734   5.592   5.643   3.409  0.2443  0.0605  0.1890
 3257TIP3    H1 9735   5.644   5.563   3.410  0.2557  0.0568 -0.3379
 3257TIP3    H2 9736   5.651   5.709   3.371 -0.1923  0.0069 -0.6127
 3258TIP3   OH2 9737   4.339   1.317   2.182  0.5093  0.0614  0.1641
 3258TIP3    H1 9738   4.273   1.265   2.229  1.9549 -0.5645  1.6326
 3258TIP3    H2 9739   4.319   1.303   2.090  0.4212 -2.6689  0.4948
 3259TIP3   OH2 9740   3.115   2.517   4.178 -0.3709  0.0464  0.3883
 3259TIP3    H1 9741   3.201   2.556   4.188 -0.2524 -0.0361 -0.2905
 3259TIP3    H2 9742   3.099   2.473   4.261 -0.0356  0.6000  0.7521
 3260TIP3   OH2 9743   2.019   0.778   5.305 -0.0946 -0.0567 -0.3007
 3260TIP3    H1 9744   2.044   0.823   5.386 -1.0101 -0.3598  0.1632
 3260TIP3    H2 9745   2.058   0.831   5.235  2.0518 -0.6536  0.3623
 3261TIP3   OH2 9746   4.578   0.258   3.409  0.1056  0.3141 -0.1835
 3261TIP3    H1 9747   4.580   0.321   3.481 -0.9050 -0.6521  0.7333
 3261TIP3    H2 9748   4.638   0.188   3.437 -1.7687 -1.0122  0.6801
 3262TIP3   OH2 9749   1.619   2.610   1.701  0.1125  0.1071 -0.5755
 3262TIP3    H1 9750   1.666   2.527   1.707  1.2823  0.8175  1.0036
 3262TIP3    H2 9751   1.688   2.677   1.706 -0.7677  1.1917 -2.1547
 3263TIP3   OH2 9752   4.398   4.667   3.146  1.2506 -0.2460  0.2675
 3263TIP3    H1 9753   4.322   4.688   3.199  2.2640  0.7396  1.3790
 3263TIP3    H2 9754   4.383   4.578   3.116 -0.6812  0.1835 -0.1719
 3264TIP3   OH2 9755   2.149   4.559   3.036  0.0533  0.5259 -0.0405
 3264TIP3    H1 9756   2.078   4.507   2.998 -0.4539  0.5350  0.8530
 3264TIP3    H2 9757   2.160   4.523   3.124  1.8677 -0.1497 -0.5056
 3265TIP3   OH2 9758   6.118   1.333   5.058  0.2822 -0.1320  0.3691
 3265TIP3    H1 9759   6.052   1.288   5.111  0.9835  1.6785  3.0396
 3265TIP3    H2 9760   6.142   1.410   5.111  2.8804  0.4988 -1.5214
 3266TIP3   OH2 9761   2.395   2.971   5.798 -0.5471  0.7110  0.0121
 3266TIP3    H1 9762   2.357   3.057   5.818  0.9238  1.4423 -0.1499
 3266TIP3    H2 9763   2.396   2.925   5.882 -0.8674  1.0618  0.2084
 3267TIP3   OH2 9764   5.576   6.746   1.196  0.4976  0.1555 -0.4072
 3267TIP3    H1 9765   5.612   6.690   1.127 -0.3264 -1.8363  0.6761
 3267TIP3    H2 9766   5.644   6.746   1.264 -0.1855 -1.0129  0.3155
 3268TIP3   OH2 9767   3.525   3.892   5.287 -0.4072  0.3227  0.4474
 3268TIP3    H1 9768   3.486   3.902   5.374  1.0448 -1.3636  1.3587
 3268TIP3    H2 9769   3.617   3.873   5.304 -0.4714 -2.0581 -1.3417
 3269TIP3   OH2 9770   0.232   6.572   3.815 -0.0686  0.0631 -0.5824
 3269TIP3    H1 9771   0.299   6.512   3.784 -0.1248 -0.2672 -0.0722
 3269TIP3    H2 9772   0.245   6.577   3.910 -0.0961  0.8152 -0.6090
 3270TIP3   OH2 9773   3.411   5.351   5.478 -0.1708  0.0164 -0.1810
 3270TIP3    H1 9774   3.447   5.417   5.420 -1.2865  0.0899 -0.8232
 3270TIP3    H2 9775   3.392   5.276   5.420 -0.9877 -0.0298  0.1292
 3271TIP3   OH2 9776   4.240   0.115   1.991 -0.1192 -0.0586  0.2734
 3271TIP3    H1 9777   4.167   0.058   2.014  0.2614 -0.5448  0.2981
 3271TIP3    H2 9778   4.254   0.101   1.898 -1.5021  1.7294 -0.2674
 3272TIP3   OH2 9779   3.927   5.541   0.404  0.1527  0.7729  0.2599
 3272TIP3    H1 9780   3.865   5.471   0.425  0.7577 -0.3970 -1.5702
 3272TIP3    H2 9781   4.013   5.503   0.419  0.4849  1.8539  1.2341
 3273TIP3   OH2 9782   3.980   3.468   0.408  0.0626 -0.1288 -0.2754
 3273TIP3    H1 9783   3.928   3.502   0.481  0.6272 -0.3554  0.2428
 3273TIP3    H2 9784   3.982   3.540   0.345 -1.1730 -0.2461 -0.4674
 3274TIP3   OH2 9785   5.701   4.891   0.324  0.3939 -0.0206  0.1694
 3274TIP3    H1 9786   5.781   4.854   0.288  0.8563 -0.0807  1.2250
 3274TIP3    H2 9787   5.648   4.913   0.248  1.2544 -0.3350 -0.5295
 3275TIP3   OH2 9788   4.278   3.042   1.823 -0.3215 -0.3940  0.2296
 3275TIP3    H1 9789   4.319   3.093   1.754 -2.7881  1.6028  0.0668
 3275TIP3    H2 9790   4.319   3.073   1.904 -0.7976  0.8843  0.0067
 3276TIP3   OH2 9791   0.169   4.063   3.374 -0.3443  0.2168 -0.7855
 3276TIP3    H1 9792   0.240   3.998   3.376  0.1982  0.7513 -2.0949
 3276TIP3    H2 9793   0.144   4.069   3.282  0.2721  2.5768 -0.8513
 3277TIP3   OH2 9794   6.811   1.185   3.522  0.4157 -0.0942  0.6326
 3277TIP3    H1 9795   6.826   1.259   3.464 -0.8294  0.2145  0.6639
 3277TIP3    H2 9796   6.726   1.204   3.563  0.5978 -1.0017  1.4681
 3278TIP3   OH2 9797   5.037   3.704   4.278 -0.2586 -0.1064  0.1134
 3278TIP3    H1 9798   4.962   3.730   4.331 -1.0778 -0.3393 -0.9164
 3278TIP3    H2 9799   5.074   3.628   4.323 -1.0440 -0.4032  0.2614
 3279TIP3   OH2 9800   2.328   4.128   3.380  0.0191 -0.2929 -0.3173
 3279TIP3    H1 9801   2.354   4.198   3.439 -3.2753  0.1590  0.8194
 3279TIP3    H2 9802   2.303   4.172   3.299  1.2880 -0.5758 -0.8895
 3280TIP3   OH2 9803   2.596   1.110   3.255 -0.1330  0.8286  0.4847
 3280TIP3    H1 9804   2.546   1.079   3.180 -0.4673  0.9573  0.6468
 3280TIP3    H2 9805   2.546   1.080   3.331  0.7453 -0.1854  0.6814
 3281TIP3   OH2 9806   6.878   5.134   3.068  0.0264 -0.3203 -0.4575
 3281TIP3    H1 9807   6.902   5.149   3.159 -0.4631  1.6433 -0.5968
 3281TIP3    H2 9808   6.789   5.099   3.072  0.2244 -0.7881 -0.1600
 3282TIP3   OH2 9809   1.949   2.891   3.247  0.5605  0.0940  0.2226
 3282TIP3    H1 9810   1.877   2.829   3.241 -0.8197  1.5936  0.4673
 3282TIP3    H2 9811   1.957   2.911   3.340 -0.6360  1.9942 -0.0121
 3283TIP3   OH2 9812   3.501   4.929   3.205 -0.6054 -0.9832  0.1230
 3283TIP3    H1 9813   3.408   4.920   3.185 -0.5484 -0.0366 -0.6692
 3283TIP3    H2 9814   3.530   5.003   3.151 -0.3651  1.6283  3.4910
 3284TIP3   OH2 9815   1.935   5.267   0.430 -0.0601 -0.2769 -0.8152
 3284TIP3    H1 9816   1.925   5.354   0.391  2.0699 -0.0851 -1.0621
 3284TIP3    H2 9817   2.026   5.265   0.459 -0.7976 -1.4744  1.6163
 3285TIP3   OH2 9818   2.086   0.015   0.861  0.0795  0.2319 -0.2516
 3285TIP3    H1 9819   2.128   0.025   0.776 -0.9663 -3.2286 -1.3365
 3285TIP3    H2 9820   2.032   0.094   0.870  0.3527  0.7962 -2.7191
 3286TIP3   OH2 9821   6.649   5.188   3.831  0.1724 -0.5917  0.0518
 3286TIP3    H1 9822   6.590   5.125   3.872  0.4254 -0.6990  0.2465
 3286TIP3    H2 9823   6.616   5.197   3.742 -0.2116 -0.5631  0.1951
 3287TIP3   OH2 9824   2.570   4.322   2.296  0.3195  0.0361 -0.1380
 3287TIP3    H1 9825   2.658   4.354   2.276  0.9710  1.0411  3.5328
 3287TIP3    H2 9826   2.523   4.399   2.326 -2.5895 -0.0965 -3.6422
 3288TIP3   OH2 9827   5.018   3.221   4.731 -0.2799 -0.2257 -0.2591
 3288TIP3    H1 9828   4.927   3.244   4.712  0.7265  4.0021 -0.8696
 3288TIP3    H2 9829   5.032   3.250   4.821  1.0695  1.7481 -1.0365
 3289TIP3   OH2 9830   6.457   6.479   4.360 -0.0730 -0.5488 -0.2632
 3289TIP3    H1 9831   6.539   6.516   4.391  0.2165 -0.8560 -0.6493
 3289TIP3    H2 9832   6.483   6.407   4.303 -0.6140 -0.8661 -0.1235
 3290TIP3   OH2 9833   6.123   0.606   2.074 -0.5802  0.8409  0.0403
 3290TIP3    H1 9834   6.144   0.640   2.161  2.5405  0.5529 -0.4860
 3290TIP3    H2 9835   6.140   0.679   2.015  0.5266  0.1142 -0.5740
 3291TIP3   OH2 9836   6.511   1.705   0.279  0.2294 -0.5881 -0.0544
 3291TIP3    H1 9837   6.546   1.763   0.347  3.2724  0.3934 -2.2112
 3291TIP3    H2 9838   6.564   1.625   0.286  0.0122 -0.7989 -0.7008
 3292TIP3   OH2 9839   6.951   1.250   1.574  0.2660  0.0356 -0.2164
 3292TIP3    H1 9840   6.910   1.188   1.635  1.1247 -0.2929  0.0412
 3292TIP3    H2 9841   7.012   1.196   1.523  1.4939  0.7575  0.4342
 3293TIP3   OH2 9842   3.330   0.185   3.852 -0.1473 -0.4645 -0.1323
 3293TIP3    H1 9843   3.381   0.158   3.928 -3.5126 -1.6904  1.8962
 3293TIP3    H2 9844   3.308   0.103   3.808 -0.7627 -0.0183 -0.6819
 3294TIP3   OH2 9845   0.197   5.617   5.791  0.6374 -0.2378  0.4016
 3294TIP3    H1 9846   0.135   5.545   5.807 -0.4231  1.0182  2.5964
 3294TIP3    H2 9847   0.233   5.599   5.705 -0.3154 -2.8426  0.4310
 3295TIP3   OH2 9848   6.094   4.263   0.603 -0.4509 -0.0235  0.3508
 3295TIP3    H1 9849   6.056   4.211   0.673 -0.4647  0.0321  0.3851
 3295TIP3    H2 9850   6.187   4.242   0.604 -0.7951 -1.9845 -1.2575
 3296TIP3   OH2 9851   1.051   6.287   4.560 -0.1710  0.5732  0.1003
 3296TIP3    H1 9852   1.083   6.315   4.646  0.1583 -0.2338  0.2500
 3296TIP3    H2 9853   1.063   6.364   4.504 -0.1567  1.0275  0.7137
 3297TIP3   OH2 9854   4.479   3.561   1.505  0.2070  0.0900 -0.6203
 3297TIP3    H1 9855   4.409   3.496   1.513  0.8142 -0.5169 -0.1246
 3297TIP3    H2 9856   4.472   3.615   1.583  1.3046 -1.0118  0.2890
 3298TIP3   OH2 9857   3.935   4.887   5.207 -0.1497 -0.0533 -0.9465
 3298TIP3    H1 9858   3.911   4.944   5.134  2.5613  1.4883 -0.7591
 3298TIP3    H2 9859   4.014   4.842   5.178 -0.2205 -1.0276  0.2596
 3299TIP3   OH2 9860   4.777   1.759   5.275  0.3263  0.2544  0.1345
 3299TIP3    H1 9861   4.784   1.772   5.370  0.6069  0.0418  0.1467
 3299TIP3    H2 9862   4.783   1.847   5.238  0.1603  0.3424  0.3188
 3300TIP3   OH2 9863   4.128   2.595   1.407  0.6166 -0.1873 -0.0324
 3300TIP3    H1 9864   4.134   2.566   1.498 -1.8333 -1.8489 -0.3217
 3300TIP3    H2 9865   4.068   2.669   1.410  1.2750  0.3643 -0.2141
 3301TIP3   OH2 9866   0.011   5.887   5.219  0.0269  0.0668 -0.3478
 3301TIP3    H1 9867  -0.072   5.869   5.264  0.9081  0.5876  1.6233
 3301TIP3    H2 9868   0.073   5.904   5.290  1.6711  0.3856 -1.7891
 3302TIP3   OH2 9869   2.451   0.868   4.633 -0.0228 -0.1918  0.3877
 3302TIP3    H1 9870   2.398   0.803   4.588  0.2994  0.0088 -0.3026
 3302TIP3    H2 9871   2.497   0.819   4.701 -1.6912 -0.2288  1.5624
 3303TIP3   OH2 9872   1.806   3.609   2.182 -0.1277 -0.1297 -0.5503
 3303TIP3    H1 9873   1.792   3.551   2.257 -0.2402 -0.1042 -0.5520
 3303TIP3    H2 9874   1.873   3.564   2.130  0.4828  0.2052 -0.0634
 3304TIP3   OH2 9875   3.393   5.667   4.247  0.1743 -0.0863  0.3163
 3304TIP3    H1 9876   3.300   5.663   4.266  0.1531 -0.4380  0.1291
 3304TIP3    H2 9877   3.398   5.685   4.153  0.2976 -0.7028  0.2029
 3305TIP3   OH2 9878   4.484   4.949   5.760  0.7834 -0.2906 -0.1201
 3305TIP3    H1 9879   4.445   4.982   5.679 -2.3211 -2.0579  0.5090
 3305TIP3    H2 9880   4.469   4.854   5.757 -0.0531 -0.3415  2.7600
 3306TIP3   OH2 9881   6.366   1.337   1.798  0.5280  0.4773 -0.2098
 3306TIP3    H1 9882   6.335   1.406   1.856 -0.9769  0.1911 -0.6397
 3306TIP3    H2 9883   6.307   1.263   1.814  1.3021 -0.2721 -0.6936
 3307TIP3   OH2 9884   4.656   5.026   2.067 -0.3888 -0.2031  0.3009
 3307TIP3    H1 9885   4.676   5.065   2.153  0.7348  0.4396 -0.2265
 3307TIP3    H2 9886   4.606   5.094   2.022 -1.5044 -0.7746  0.6443
 3308TIP3   OH2 9887   6.657   3.094   0.853 -0.0586 -0.1588 -0.3783
 3308TIP3    H1 9888   6.665   3.188   0.835 -0.8216  0.2790  1.2733
 3308TIP3    H2 9889   6.623   3.057   0.772  1.0576  0.8381 -1.3423
 3309TIP3   OH2 9890   1.187   3.399   0.537  0.6235  0.0719  0.0983
 3309TIP3    H1 9891   1.103   3.402   0.490  1.3309  1.9586 -1.1205
 3309TIP3    H2 9892   1.249   3.364   0.473  0.8457 -1.1243  0.9336
 3310TIP3   OH2 9893   1.346   1.879   3.448 -0.0594 -0.5814  0.5480
 3310TIP3    H1 9894   1.364   1.785   3.443 -1.0331 -0.7795 -3.8935
 3310TIP3    H2 9895   1.429   1.921   3.427 -0.3644 -0.7092 -1.0899
 3311TIP3   OH2 9896   0.396   5.692   0.501  0.1470  0.7347 -0.1169
 3311TIP3    H1 9897   0.463   5.761   0.500 -0.4099  1.2830 -0.4277
 3311TIP3    H2 9898   0.446   5.611   0.510  0.9691  1.0226 -1.6665
 3312TIP3   OH2 9899   5.184   2.245   0.107 -0.3656  0.2134  0.8167
 3312TIP3    H1 9900   5.113   2.288   0.061  0.0211  0.9675  0.9068
 3312TIP3    H2 9901   5.184   2.155   0.074 -0.4811  0.5787 -0.1950
 3313TIP3   OH2 9902   4.522   5.530   2.763 -0.4181  0.0654  0.5303
 3313TIP3    H1 9903   4.584   5.553   2.832 -1.0555 -2.4162  2.0384
 3313TIP3    H2 9904   4.556   5.574   2.685  1.3021  1.5488  2.0253
 3314TIP3   OH2 9905   5.604   1.605   4.784 -0.1893 -0.0245 -0.3808
 3314TIP3    H1 9906   5.550   1.560   4.848 -0.2631 -1.0165 -1.1184
 3314TIP3    H2 9907   5.597   1.552   4.704  2.6753 -0.8310 -0.2245
 3315TIP3   OH2 9908   0.211   6.515   5.463 -0.0981 -0.1635 -0.1341
 3315TIP3    H1 9909   0.155   6.535   5.389 -0.5141  1.3676  0.5564
 3315TIP3    H2 9910   0.151   6.482   5.530  0.1965 -0.9683 -0.2500
 3316TIP3   OH2 9911   1.679   5.474   3.132  0.3813  0.3851  0.3826
 3316TIP3    H1 9912   1.657   5.383   3.151 -1.0479  0.5916 -0.1984
 3316TIP3    H2 9913   1.752   5.493   3.191 -0.5609 -0.5527  1.9189
 3317TIP3   OH2 9914   3.323   1.235   1.775  0.4422 -0.3179 -0.2183
 3317TIP3    H1 9915   3.400   1.200   1.818  0.0645  0.2844  1.0080
 3317TIP3    H2 9916   3.286   1.161   1.726  0.8940 -1.0287  0.5002
 3318TIP3   OH2 9917   1.349   3.134   3.365  0.2267 -0.5405 -0.2367
 3318TIP3    H1 9918   1.272   3.098   3.320  0.5069 -2.7368  0.8646
 3318TIP3    H2 9919   1.325   3.131   3.458  0.5834  1.5617 -0.0403
 3319TIP3   OH2 9920   2.542   1.612   4.252  0.6288 -0.7807 -0.2256
 3319TIP3    H1 9921   2.563   1.531   4.299 -2.6154 -1.4250  0.3256
 3319TIP3    H2 9922   2.473   1.586   4.191 -2.6807  2.0249  1.9871
 3320TIP3   OH2 9923   4.548   6.552   1.967 -0.0099 -0.0970  0.0276
 3320TIP3    H1 9924   4.616   6.514   1.911  0.1346  0.1941  0.0008
 3320TIP3    H2 9925   4.467   6.510   1.939  0.0293  0.1939 -0.5470
 3321TIP3   OH2 9926   3.337   5.475   5.705 -0.0182  0.0198  0.3026
 3321TIP3    H1 9927   3.332   5.443   5.615 -2.8651 -0.2456  0.4833
 3321TIP3    H2 9928   3.426   5.511   5.712  0.7937 -1.2673 -2.1234
 3322TIP3   OH2 9929   4.032   4.866   0.778 -0.3166 -0.1788 -0.2682
 3322TIP3    H1 9930   4.122   4.847   0.805 -0.3903  1.0292  0.9582
 3322TIP3    H2 9931   4.005   4.938   0.835 -0.6930  2.2750 -3.2820
 3323TIP3   OH2 9932   3.176   5.123   3.329  0.4294  0.5933  0.2552
 3323TIP3    H1 9933   3.228   5.203   3.326 -0.8981  1.4639 -1.5366
 3323TIP3    H2 9934   3.172   5.093   3.238 -1.7214  0.2875  0.4006
 3324TIP3   OH2 9935   5.614   3.346   5.369 -0.3881  0.1364  0.3092
 3324TIP3    H1 9936   5.680   3.284   5.337  0.3064  1.4791 -1.0086
 3324TIP3    H2 9937   5.532   3.314   5.331  0.1763  0.7567 -1.5429
 3325TIP3   OH2 9938   1.249   1.239   4.883 -0.3135  0.0293  0.1048
 3325TIP3    H1 9939   1.260   1.315   4.940  1.6012  0.0816 -0.2698
 3325TIP3    H2 9940   1.325   1.241   4.825 -1.3812 -0.9268 -1.4084
 3326TIP3   OH2 9941   2.675   0.496   0.143 -0.0488 -0.2553 -0.0613
 3326TIP3    H1 9942   2.601   0.468   0.197  0.0847 -0.2232  0.1396
 3326TIP3    H2 9943   2.674   0.436   0.068 -0.5038 -0.0162 -0.2496
 3327TIP3   OH2 9944   2.261   0.559   3.186 -0.0151 -0.2458  0.3792
 3327TIP3    H1 9945   2.320   0.494   3.147  0.6861 -0.7762  2.2328
 3327TIP3    H2 9946   2.311   0.595   3.259 -1.1588  0.9501  0.5924
 3328TIP3   OH2 9947   5.623   6.698   2.182 -0.1817  0.3858  0.2502
 3328TIP3    H1 9948   5.554   6.657   2.234  0.0522  0.9706  1.0353
 3328TIP3    H2 9949   5.598   6.680   2.091 -1.2870  0.4494  0.5222
 3329TIP3   OH2 9950   5.028   4.994   4.717 -0.0347 -0.4238 -0.0660
 3329TIP3    H1 9951   5.073   5.052   4.654 -0.9815  0.6656  0.2133
 3329TIP3    H2 9952   5.004   5.052   4.789 -1.2767 -1.1037  0.0938
 3330TIP3   OH2 9953   0.631   1.959   4.586 -0.1104 -0.4077 -0.3834
 3330TIP3    H1 9954   0.648   1.961   4.680  1.0578  3.8160 -0.4818
 3330TIP3    H2 9955   0.536   1.953   4.579 -0.2330 -0.5326  1.0406
 3331TIP3   OH2 9956   1.079   0.329   2.739  0.1761 -0.8342  0.0584
 3331TIP3    H1 9957   1.102   0.314   2.830 -1.0567 -1.5861  0.2759
 3331TIP3    H2 9958   1.016   0.260   2.718  0.8223 -0.9945 -1.5305
 3332TIP3   OH2 9959   2.908   4.532   2.463 -0.2835  0.6592 -0.4655
 3332TIP3    H1 9960   2.828   4.524   2.516  0.0857  1.0145  0.1495
 3332TIP3    H2 9961   2.876   4.529   2.373 -1.0992  1.7318 -0.2377
 3333TIP3   OH2 9962   6.351   3.920   4.963 -0.2486  0.2150 -0.2972
 3333TIP3    H1 9963   6.397   4.004   4.966 -1.2443  0.7680 -0.1138
 3333TIP3    H2 9964   6.411   3.859   5.007  0.2061  0.9610  0.1487
 3334TIP3   OH2 9965   6.225   4.304   3.352 -0.5752  0.7181 -0.7042
 3334TIP3    H1 9966   6.289   4.294   3.281  1.7644  0.3911  1.3313
 3334TIP3    H2 9967   6.229   4.223   3.401 -1.6192  1.2072  0.2470
 3335TIP3   OH2 9968   6.857   1.078   0.774 -0.3706 -0.7097 -0.5069
 3335TIP3    H1 9969   6.899   1.151   0.820 -1.0351 -0.9858  0.5713
 3335TIP3    H2 9970   6.764   1.101   0.772 -0.5653 -1.4465 -0.3026
 3336TIP3   OH2 9971   4.701   3.487   1.904  0.4707 -0.6031  0.4241
 3336TIP3    H1 9972   4.797   3.490   1.904  0.4912  0.3037  2.2509
 3336TIP3    H2 9973   4.676   3.534   1.983 -1.5507  0.8498 -0.9753
 3337TIP3   OH2 9974   6.142   1.442   0.702 -0.8088  0.3123  0.1568
 3337TIP3    H1 9975   6.141   1.492   0.783 -1.8276  2.4213 -1.0809
 3337TIP3    H2 9976   6.057   1.460   0.661 -0.5697 -1.1768 -1.1133
 3338TIP3   OH2 9977   1.019   5.380   0.206  0.2980  0.2494  0.2242
 3338TIP3    H1 9978   1.043   5.288   0.193  0.5658  0.4824 -1.0797
 3338TIP3    H2 9979   0.943   5.393   0.150  1.0757  1.1492 -0.6722
 3339TIP3   OH2 9980   0.358   1.183   0.172 -0.0636  0.0391  0.4851
 3339TIP3    H1 9981   0.397   1.270   0.165 -1.3975  0.5733 -1.0459
 3339TIP3    H2 9982   0.428   1.128   0.208  1.6250  1.2182 -0.8348
 3340TIP3   OH2 9983   3.831   6.309   1.530 -0.0912 -0.1865 -0.5376
 3340TIP3    H1 9984   3.816   6.393   1.486  2.0713  0.1342 -0.7491
 3340TIP3    H2 9985   3.863   6.251   1.461  0.3394 -0.5931 -0.0003
 3341TIP3   OH2 9986   0.732   4.814   2.718  0.1998  0.0711 -0.1948
 3341TIP3    H1 9987   0.725   4.904   2.684 -1.0723 -0.5614 -1.6901
 3341TIP3    H2 9988   0.783   4.767   2.652  1.1180 -0.2767  0.7245
 3342TIP3   OH2 9989   5.243   0.059   5.762 -0.1993 -0.0807 -0.8709
 3342TIP3    H1 9990   5.182   0.131   5.748 -1.6902 -1.1503 -0.1425
 3342TIP3    H2 9991   5.208  -0.013   5.710 -0.8031 -1.3467  1.1725
 3343TIP3   OH2 9992   4.329   0.246   0.912  0.1835  0.3041  0.4798
 3343TIP3    H1 9993   4.423   0.258   0.927  0.2092 -0.5261  1.0547
 3343TIP3    H2 9994   4.309   0.162   0.953 -0.6573  0.0949 -0.3133
 3344TIP3   OH2 9995   1.225   3.005   5.380 -0.4010  0.2313 -0.8640
 3344TIP3    H1 9996   1.139   2.995   5.419 -1.1309  0.6816 -2.2789
 3344TIP3    H2 9997   1.273   3.060   5.442 -1.3144  0.4505 -0.3289
 3345TIP3   OH2 9998   1.292   2.906   5.661 -0.1561  0.1095  0.3493
 3345TIP3    H1 9999   1.366   2.856   5.695 -1.8805  0.1548  4.9480
 3345TIP3    H210000   1.330   2.989   5.633  1.6735 -0.2376  1.6160
 3346TIP3   OH210001   2.126   2.725   3.079  0.1495 -0.2137  0.4185
 3346TIP3    H110002   2.110   2.777   3.000 -1.9368 -0.5859  0.5514
 3346TIP3    H210003   2.055   2.748   3.139  0.5606 -1.4160  1.4278
 3347TIP3   OH210004   3.467   6.247   3.059 -0.8877  0.4385 -0.1256
 3347TIP3    H110005   3.552   6.273   3.024 -0.6443  0.0016  0.1300
 3347TIP3    H210006   3.484   6.165   3.106 -1.3808  0.5266  0.2216
 3348TIP3   OH210007   3.490   2.221   3.375 -0.0255 -0.4206  0.0398
 3348TIP3    H110008   3.406   2.265   3.358  0.7971  0.7403 -1.1909
 3348TIP3    H210009   3.473   2.129   3.356 -0.8465 -0.0919 -0.9071
 3349TIP3   OH210010   3.078   2.033   2.740  0.3324 -0.1717 -0.2378
 3349TIP3    H110011   3.038   2.101   2.793  0.5879 -0.8241  0.8315
 3349TIP3    H210012   3.169   2.061   2.728 -0.3236  1.2472 -2.5601
 3350TIP3   OH210013   4.583   5.448   3.490 -0.2795  0.4040  0.4298
 3350TIP3    H110014   4.615   5.538   3.488 -2.5442  1.2842  0.2932
 3350TIP3    H210015   4.518   5.445   3.420  1.4584 -2.1003 -1.2393
 3351TIP3   OH210016   4.751   2.884   5.542 -0.0245  0.0194 -0.0080
 3351TIP3    H110017   4.766   2.800   5.497  1.0970  0.2642 -0.1217
 3351TIP3    H210018   4.725   2.860   5.631  0.7351 -0.4554  0.0933
 3352TIP3   OH210019   4.369   2.158   1.332 -0.4887  0.1048  0.3077
 3352TIP3    H110020   4.377   2.100   1.256  0.3095  0.9379 -0.2576
 3352TIP3    H210021   4.277   2.153   1.356 -0.4015 -1.5566  0.4033
 3353TIP3   OH210022   5.392   5.464   1.512  0.2378 -0.0452  0.5357
 3353TIP3    H110023   5.358   5.382   1.548 -0.5542 -0.5235 -1.1640
 3353TIP3    H210024   5.314   5.513   1.485  0.6856  1.4634  1.8653
 3354TIP3   OH210025   4.701   4.594   5.019 -0.4313  0.0009 -0.4422
 3354TIP3    H110026   4.636   4.631   5.078 -0.7864 -1.8041  0.3632
 3354TIP3    H210027   4.656   4.583   4.935 -1.6570 -2.3941  0.4287
 3355TIP3   OH210028   6.532   1.436   0.755 -0.2074  0.2520 -0.0158
 3355TIP3    H110029   6.503   1.412   0.667 -1.6306 -0.3478  0.5966
 3355TIP3    H210030   6.622   1.468   0.742 -0.2560 -0.1670 -1.6248
 3356TIP3   OH210031   4.916   1.733   2.732  0.1367  0.0190  0.3302
 3356TIP3    H110032   4.894   1.818   2.694 -1.2355 -0.3359  0.2840
 3356TIP3    H210033   4.869   1.669   2.678 -1.7042 -0.5168  2.4396
 3357TIP3   OH210034   6.552   2.643   2.999  0.3344 -0.2183  0.4429
 3357TIP3    H110035   6.548   2.639   2.904  0.2357 -0.0381  0.4394
 3357TIP3    H210036   6.462   2.657   3.027  0.1399 -1.7427  0.6431
 3358TIP3   OH210037   0.056   0.221   0.880 -0.3464  1.1078  0.2129
 3358TIP3    H110038   0.053   0.168   0.800  1.7535  0.6668  0.3710
 3358TIP3    H210039   0.036   0.158   0.950  1.0036  0.7457  0.2960
 3359TIP3   OH210040   5.105   5.138   2.017 -0.0496  0.0935 -0.3342
 3359TIP3    H110041   5.056   5.209   1.976  0.3779  1.8174  1.9024
 3359TIP3    H210042   5.172   5.182   2.070  2.4132 -2.1002 -1.3839
 3360TIP3   OH210043   1.072   4.614   5.627  0.3070 -0.2890 -0.1588
 3360TIP3    H110044   1.025   4.531   5.633  0.8225 -0.8900 -2.8996
 3360TIP3    H210045   1.160   4.596   5.659  0.1298 -0.5178  0.1995
 3361TIP3   OH210046   3.801   0.536   4.154  0.8250 -0.1033  0.0585
 3361TIP3    H110047   3.774   0.623   4.124  0.1504  0.0951  1.1882
 3361TIP3    H210048   3.738   0.476   4.114 -0.9679  0.2897  2.1156
 3362TIP3   OH210049   4.826   4.870   5.414 -0.3899 -0.1581 -0.0061
 3362TIP3    H110050   4.894   4.810   5.445  0.1230 -0.5934 -1.8574
 3362TIP3    H210051   4.745   4.819   5.420  0.0707 -1.1986 -1.7640
 3363TIP3   OH210052   4.720   2.178   1.216  0.1682 -0.6130 -0.1433
 3363TIP3    H110053   4.648   2.216   1.267  0.1292 -0.1984 -0.5010
 3363TIP3    H210054   4.693   2.188   1.125  0.8106 -0.1716 -0.2951
 3364TIP3   OH210055   2.158   1.175   2.332  0.2106  0.1736 -0.8705
 3364TIP3    H110056   2.251   1.172   2.353  0.2127  0.7456 -0.7898
 3364TIP3    H210057   2.130   1.262   2.358  0.0060  0.5837 -2.3867
 3365TIP3   OH210058   1.942   5.243   2.380 -0.3034  0.1699  0.3334
 3365TIP3    H110059   1.988   5.248   2.463  1.8874 -0.2374 -0.7997
 3365TIP3    H210060   1.977   5.315   2.328  0.4363 -1.2038 -1.1786
 3366TIP3   OH210061   0.542   1.067   1.329 -0.1112  0.1551  0.3685
 3366TIP3    H110062   0.607   1.128   1.361 -0.5262 -0.0463  1.6324
 3366TIP3    H210063   0.590   1.009   1.269  0.7771  0.2465  0.9855
 3367TIP3   OH210064   0.882   0.997   0.985  0.3393  0.0623  0.4445
 3367TIP3    H110065   0.857   1.020   1.074 -0.0685 -0.8764  0.5900
 3367TIP3    H210066   0.970   0.959   0.994  0.2077 -0.2369  0.4831
 3368TIP3   OH210067   5.633   3.029   2.192  0.5245 -0.0221 -0.5055
 3368TIP3    H110068   5.575   3.071   2.256  1.6133  0.1733  0.3822
 3368TIP3    H210069   5.579   3.020   2.114 -0.8450 -0.2779  0.4314
 3369TIP3   OH210070   6.220   3.004   4.482 -0.0951 -0.4206  0.0018
 3369TIP3    H110071   6.299   3.034   4.527 -1.4135 -0.3370  2.4019
 3369TIP3    H210072   6.208   3.067   4.411  1.4653  0.1044  0.1625
 3370TIP3   OH210073   6.807   0.579   5.406 -0.1436  0.1796 -0.0726
 3370TIP3    H110074   6.760   0.497   5.388  2.0375 -0.9978 -0.8005
 3370TIP3    H210075   6.795   0.631   5.327  0.4595 -0.4833 -0.6174
 3371TIP3   OH210076   6.331   3.412   1.883  0.5416  0.5235  0.6204
 3371TIP3    H110077   6.304   3.325   1.912 -1.1880  0.9669  0.4246
 3371TIP3    H210078   6.413   3.396   1.836 -0.5605 -1.2594 -0.8457
 3372TIP3   OH210079   0.708   4.152   1.774  0.2865 -0.7118  0.0113
 3372TIP3    H110080   0.756   4.100   1.709  0.7539  0.4210 -0.5887
 3372TIP3    H210081   0.627   4.176   1.730  1.1258  1.0807 -0.6720
 3373TIP3   OH210082   6.377   0.810   2.534 -0.1463 -0.0758  0.2521
 3373TIP3    H110083   6.436   0.854   2.473 -0.9282 -0.1368 -0.5584
 3373TIP3    H210084   6.433   0.746   2.579  0.7784  1.0441  0.7438
 3374TIP3   OH210085   3.582   3.123   2.512 -0.1318 -0.5829 -0.4942
 3374TIP3    H110086   3.671   3.091   2.495  0.1708 -0.3633  0.6136
 3374TIP3    H210087   3.535   3.046   2.545  0.2974 -0.1910  1.1222
 3375TIP3   OH210088   0.365   2.400   4.561 -0.0962  0.2483  0.4256
 3375TIP3    H110089   0.421   2.369   4.490 -1.3643 -0.9539 -0.0995
 3375TIP3    H210090   0.380   2.495   4.563 -0.2209  0.3759 -1.6521
 3376TIP3   OH210091  -0.020   5.419   4.078 -0.2640  0.3915  0.2428
 3376TIP3    H110092   0.052   5.481   4.092  0.0927 -0.0681  0.4876
 3376TIP3    H210093   0.014   5.357   4.012 -0.8015  0.7448 -0.3795
 3377TIP3   OH210094   5.522   0.642   0.491  0.4739  0.4695 -0.3593
 3377TIP3    H110095   5.438   0.661   0.449  1.6087 -0.1025 -3.1113
 3377TIP3    H210096   5.540   0.551   0.467  1.9186  0.6168  0.0708
 3378TIP3   OH210097   4.953   3.541   5.536 -0.1998 -0.1097  0.3995
 3378TIP3    H110098   4.914   3.494   5.609  0.1597 -1.3099 -0.1595
 3378TIP3    H210099   5.033   3.493   5.516 -1.2020 -0.9697 -1.9538
 3379TIP3   OH210100   0.252   3.077   3.303  0.0687 -0.7807 -0.3586
 3379TIP3    H110101   0.342   3.046   3.308  0.6781  0.9792  0.3380
 3379TIP3    H210102   0.199   3.001   3.328  1.5665 -0.8197  3.2301
 3380TIP3   OH210103   1.087   0.070   2.529 -0.0107 -0.4675 -0.0557
 3380TIP3    H110104   1.082   0.088   2.435  0.4937  2.0927  0.3410
 3380TIP3    H210105   1.004   0.026   2.549 -0.8931  0.4659 -1.4256
 3381TIP3   OH210106   0.116   1.071   2.642  0.3210 -0.0280 -0.1169
 3381TIP3    H110107   0.192   1.119   2.674 -0.5718  1.1604  0.2666
 3381TIP3    H210108   0.152   0.987   2.614  1.9826  0.9767 -1.1661
 3382TIP3   OH210109   4.805   6.778   2.134 -0.2416  0.1152  0.3369
 3382TIP3    H110110   4.726   6.744   2.177  0.6075 -0.8589  1.1732
 3382TIP3    H210111   4.819   6.864   2.173 -1.3985  0.7201 -0.4988
 3383TIP3   OH210112   4.399   1.779   4.321 -0.4705  0.3936 -0.2572
 3383TIP3    H110113   4.485   1.790   4.360  0.2916 -0.6991 -1.5452
 3383TIP3    H210114   4.415   1.733   4.239 -2.3819 -0.7647 -0.0505
 3384TIP3   OH210115   5.935   4.015   1.719 -0.1801 -0.2362 -0.1372
 3384TIP3    H110116   5.864   4.005   1.781 -0.5243  0.2755 -0.4382
 3384TIP3    H210117   5.985   3.934   1.725 -0.3829 -0.3080  0.5836
 3385TIP3   OH210118   3.904   5.726   2.760 -0.5124  0.7214 -0.0500
 3385TIP3    H110119   3.957   5.776   2.823  0.2851 -0.1908  0.0256
 3385TIP3    H210120   3.941   5.638   2.762 -2.7079 -0.2517  0.7953
 3386TIP3   OH210121   1.458   2.682   4.552 -0.1674  0.4887  0.1431
 3386TIP3    H110122   1.458   2.627   4.630 -1.0032  2.0476  1.2915
 3386TIP3    H210123   1.449   2.620   4.479 -1.0310 -0.9038  1.3701
 3387TIP3   OH210124   0.187   2.333   0.102 -0.2281 -0.4086 -0.1502
 3387TIP3    H110125   0.253   2.267   0.123 -1.2223 -0.9333  1.5381
 3387TIP3    H210126   0.109   2.305   0.150 -1.5135  0.5329 -1.5718
 3388TIP3   OH210127   5.321   2.051   5.170  0.0025 -0.1412 -0.0297
 3388TIP3    H110128   5.267   2.130   5.177 -0.9926 -0.7885 -0.2899
 3388TIP3    H210129   5.284   2.003   5.096  1.4313 -0.2377 -0.7281
 3389TIP3   OH210130   5.284   6.779   3.675  0.1078  0.1388 -0.2149
 3389TIP3    H110131   5.370   6.798   3.711 -0.3205  0.9509  0.4262
 3389TIP3    H210132   5.245   6.716   3.735  0.2811 -0.2859 -0.5456
 3390TIP3   OH210133   1.461   2.174   4.185  0.2245 -0.0040  0.1500
 3390TIP3    H110134   1.388   2.208   4.236  0.6184  0.5855  0.3403
 3390TIP3    H210135   1.531   2.161   4.249 -0.5034 -3.1523  0.4582
 3391TIP3   OH210136   4.850   5.219   4.094  0.3770 -0.1233  0.0623
 3391TIP3    H110137   4.919   5.262   4.044  1.2970  0.3192  1.6110
 3391TIP3    H210138   4.769   5.246   4.052  1.0571  1.0911 -0.5352
 3392TIP3   OH210139   4.888   2.763   0.379  0.3867 -0.3167  0.0052
 3392TIP3    H110140   4.828   2.836   0.389  1.8449  0.7368  1.5345
 3392TIP3    H210141   4.846   2.706   0.314 -1.1626  1.4555 -0.6256
 3393TIP3   OH210142   3.399   5.234   1.959  0.0687 -0.0147 -0.6646
 3393TIP3    H110143   3.359   5.306   1.908 -0.8466 -1.6463 -2.3796
 3393TIP3    H210144   3.349   5.231   2.040  0.3778  1.5105 -0.3849
 3394TIP3   OH210145   3.536   3.537   5.182  0.3012 -0.3207 -0.1273
 3394TIP3    H110146   3.481   3.607   5.217  0.8908 -0.1458  0.4803
 3394TIP3    H210147   3.607   3.529   5.246  0.0916 -1.6766 -0.0365
 3395TIP3   OH210148   5.330   5.314   3.523 -0.0754 -0.2441  0.3141
 3395TIP3    H110149   5.256   5.263   3.488 -0.4062  1.2871 -1.3819
 3395TIP3    H210150   5.333   5.291   3.616 -3.3518  0.3782  0.6997
 3396TIP3   OH210151   7.077   2.551   2.681  0.0342 -0.3295  0.5137
 3396TIP3    H110152   6.991   2.568   2.644  0.1984  0.1817  0.3652
 3396TIP3    H210153   7.069   2.574   2.773  0.3436  0.9023  0.2513
 3397TIP3   OH210154   1.715   3.037   5.289  0.0372 -0.3162  0.2808
 3397TIP3    H110155   1.777   3.049   5.361  0.8707 -0.5971 -0.3689
 3397TIP3    H210156   1.757   2.973   5.232 -0.5321  0.0154 -0.5294
 3398TIP3   OH210157   3.594   0.297   5.320  0.5574  0.0025 -0.2729
 3398TIP3    H110158   3.599   0.202   5.330  1.5541  0.1998  1.4796
 3398TIP3    H210159   3.684   0.327   5.330  0.3598  1.0813 -1.5977
 3399TIP3   OH210160   6.810   2.490   2.544  0.4280  0.0170  0.0329
 3399TIP3    H110161   6.837   2.399   2.528  0.3290 -0.0005 -0.0368
 3399TIP3    H210162   6.790   2.525   2.458  0.2083  0.0227  0.0860
 3400TIP3   OH210163   0.709   6.157   4.811 -0.2500 -0.1255  0.6127
 3400TIP3    H110164   0.640   6.220   4.793 -1.1561 -1.2124  0.1054
 3400TIP3    H210165   0.667   6.072   4.798  1.1614 -0.8202  0.4099
 3401TIP3   OH210166   3.765   4.254   2.144 -0.0375 -0.5275 -0.2146
 3401TIP3    H110167   3.800   4.197   2.213  0.8374  1.3292  0.9629
 3401TIP3    H210168   3.837   4.262   2.082 -0.0291 -0.4299 -0.1927
 3402TIP3   OH210169   4.803   2.455   2.023 -0.5771  0.0209  0.0961
 3402TIP3    H110170   4.877   2.416   1.975 -0.5158  0.1669  0.0726
 3402TIP3    H210171   4.837   2.538   2.056 -1.5785  1.5145 -2.3649
 3403TIP3   OH210172   5.020   5.854   5.881 -0.5743 -0.0108  0.0440
 3403TIP3    H110173   5.108   5.819   5.896  0.1474  1.1903 -1.1816
 3403TIP3    H210174   5.034   5.930   5.825 -2.6256 -1.4022 -2.5707
 3404TIP3   OH210175   1.919   2.295   5.615 -0.2310  0.2808  0.1973
 3404TIP3    H110176   1.881   2.252   5.692  2.8732 -1.3977  0.9499
 3404TIP3    H210177   1.994   2.241   5.592  0.9048  2.6022 -1.9846
 3405TIP3   OH210178   6.650   6.759   5.173 -0.9334  0.3151  0.3379
 3405TIP3    H110179   6.577   6.789   5.227 -0.5321 -0.7092  1.5003
 3405TIP3    H210180   6.610   6.725   5.093 -1.8570 -1.3614  1.4667
 3406TIP3   OH210181   5.446   0.595   3.120  0.2826  0.4334 -0.7372
 3406TIP3    H110182   5.379   0.569   3.058 -0.7943 -2.0382  1.3043
 3406TIP3    H210183   5.529   0.576   3.075 -0.3723  0.9952 -2.2593
 3407TIP3   OH210184   2.575   0.413   2.898  0.3925  0.3665  0.3021
 3407TIP3    H110185   2.506   0.452   2.844 -0.0431 -0.3050  0.3502
 3407TIP3    H210186   2.533   0.397   2.983  0.0262 -1.7218 -0.2170
 3408TIP3   OH210187   1.941   1.923   3.254 -0.0560 -0.2042 -0.1245
 3408TIP3    H110188   2.030   1.926   3.220 -0.1087 -0.2433 -0.2682
 3408TIP3    H210189   1.895   1.862   3.196 -0.3322  0.2768 -0.4220
 3409TIP3   OH210190   7.039   3.277   0.280 -0.1229 -0.5650 -0.4585
 3409TIP3    H110191   7.002   3.194   0.312 -0.8496 -0.1989 -0.3344
 3409TIP3    H210192   7.010   3.342   0.344 -0.7446  0.0157 -1.3119
 3410TIP3   OH210193   2.409   0.062   3.839 -0.1431 -0.3889  0.6833
 3410TIP3    H110194   2.354   0.099   3.908  0.4179 -0.4143  1.1485
 3410TIP3    H210195   2.487   0.119   3.837 -0.4148 -0.0157 -0.3429
 3411TIP3   OH210196   3.508   1.691   0.340  0.7703 -0.3789  0.3289
 3411TIP3    H110197   3.585   1.642   0.368  0.2426 -0.1988  2.1981
 3411TIP3    H210198   3.495   1.757   0.408 -0.8945 -0.2480 -0.0727
 3412TIP3   OH210199   1.966   2.179   1.988  0.2081  0.6799 -0.1765
 3412TIP3    H110200   2.034   2.197   2.053 -1.6136 -0.1253  2.1360
 3412TIP3    H210201   1.987   2.092   1.954 -1.6044 -1.5246  3.5793
 3413TIP3   OH210202   5.270   3.618   5.286  0.2782  0.2463 -0.0235
 3413TIP3    H110203   5.309   3.573   5.212  0.4724 -0.8834  0.7452
 3413TIP3    H210204   5.226   3.694   5.247  1.0284  0.1090 -1.1901
 3414TIP3   OH210205   6.696   1.657   5.445 -0.3366 -0.3023  0.0924
 3414TIP3    H110206   6.622   1.714   5.426 -0.3617  0.0174  1.1001
 3414TIP3    H210207   6.771   1.699   5.402 -0.7097 -0.6034 -0.8928
 3415TIP3   OH210208   0.461   3.848   4.778  0.3505 -0.2674  0.1809
 3415TIP3    H110209   0.367   3.857   4.788  0.2716 -1.4015  0.6304
 3415TIP3    H210210   0.488   3.792   4.851  1.2931 -0.4015 -0.2463
 3416TIP3   OH210211   4.480   0.431   2.252  0.1867  0.6859  0.2569
 3416TIP3    H110212   4.409   0.368   2.265 -0.3274  0.7513 -1.8163
 3416TIP3    H210213   4.443   0.497   2.193  1.8506  0.8829 -0.6399
 3417TIP3   OH210214   1.587   2.670   3.803 -0.0003  0.6281  0.2687
 3417TIP3    H110215   1.551   2.584   3.781  0.1535  0.0510  2.0477
 3417TIP3    H210216   1.549   2.690   3.889  0.9362  1.7666  0.4492
 3418TIP3   OH210217   4.179   1.545   1.786 -0.4389 -0.0842 -0.1091
 3418TIP3    H110218   4.185   1.636   1.758 -0.4276  0.1988  0.7580
 3418TIP3    H210219   4.149   1.497   1.709 -0.6593  0.6883 -0.5123
 3419TIP3   OH210220   1.305   5.599   4.267 -0.5093 -0.0146  0.2553
 3419TIP3    H110221   1.354   5.517   4.279 -0.1142  0.1333 -0.2813
 3419TIP3    H210222   1.373   5.666   4.257 -0.8272  0.4426  1.0470
 3420TIP3   OH210223   4.410   4.116   2.914 -0.2473  0.2146  0.6325
 3420TIP3    H110224   4.370   4.102   3.000 -0.0480 -3.6281  0.2893
 3420TIP3    H210225   4.500   4.085   2.924  0.6100  2.2036 -0.3762
 3421TIP3   OH210226   0.676   1.584   0.316  0.5948 -0.3338 -0.1620
 3421TIP3    H110227   0.581   1.597   0.320  0.7051  0.3567  0.5913
 3421TIP3    H210228   0.687   1.489   0.314 -0.1244 -0.4116 -0.9031
 3422TIP3   OH210229   0.586   6.181   1.669 -0.4192 -0.3253  0.3541
 3422TIP3    H110230   0.558   6.242   1.737  0.6961 -0.3477  0.8623
 3422TIP3    H210231   0.671   6.215   1.639 -0.0265 -1.3209  0.2728
 3423TIP3   OH210232   1.428   0.097   2.615  0.3218 -0.1929  0.4785
 3423TIP3    H110233   1.393   0.127   2.699  1.3973 -0.0569  0.8857
 3423TIP3    H210234   1.422   0.002   2.618 -1.8178 -0.1373 -0.2588
 3424TIP3   OH210235   0.384   2.110   4.145 -0.2327  0.8749 -0.4034
 3424TIP3    H110236   0.397   2.016   4.134  1.7765  0.6100  2.7918
 3424TIP3    H210237   0.318   2.117   4.214  0.8846  1.6889  0.6373
 3425TIP3   OH210238   1.917   3.847   0.234 -0.1754 -0.0638  0.0801
 3425TIP3    H110239   1.833   3.860   0.190  0.9438  0.8861 -1.9126
 3425TIP3    H210240   1.952   3.766   0.196 -0.4086 -0.7885  1.3443
 3426TIP3   OH210241   4.454   0.745   0.248 -0.5814  0.8671  0.0709
 3426TIP3    H110242   4.508   0.811   0.293 -0.1251  0.6544 -0.1514
 3426TIP3    H210243   4.422   0.689   0.319  1.4651 -0.4500  0.0466
 3427TIP3   OH210244   1.984   0.546   2.588  0.1156  0.4284 -0.1598
 3427TIP3    H110245   1.999   0.461   2.547 -0.8581  0.7004 -1.1251
 3427TIP3    H210246   2.031   0.608   2.532  1.9283  0.4273  1.2681
 3428TIP3   OH210247   5.634   2.892   4.529  0.0085 -0.1736 -0.0861
 3428TIP3    H110248   5.628   2.799   4.547 -0.2786 -0.1047  0.1878
 3428TIP3    H210249   5.563   2.910   4.466  1.4302 -0.5412 -1.8894
 3429TIP3   OH210250   5.515   2.928   2.841 -0.4367 -0.7035 -1.0770
 3429TIP3    H110251   5.599   2.966   2.867 -0.9414 -1.0865  1.3345
 3429TIP3    H210252   5.519   2.838   2.873 -2.4952 -0.1681  0.9602
 3430TIP3   OH210253   0.704   2.642   2.550 -0.1345 -0.0835 -0.3434
 3430TIP3    H110254   0.682   2.697   2.625 -1.7650 -2.0410  0.7095
 3430TIP3    H210255   0.646   2.673   2.479 -0.4629  0.0663 -0.0115
 3431TIP3   OH210256   1.525   0.539   1.301 -0.3939  0.4529  0.4806
 3431TIP3    H110257   1.457   0.474   1.280 -0.0523  0.5942 -1.2214
 3431TIP3    H210258   1.603   0.487   1.321 -0.5922  0.3246  0.9475
 3432TIP3   OH210259   1.000   5.404   4.315 -0.4382  0.1277  0.5925
 3432TIP3    H110260   0.937   5.368   4.252 -1.5196 -0.1931  1.8187
 3432TIP3    H210261   1.085   5.371   4.286 -1.1910 -2.0403  0.6991
 3433TIP3   OH210262   5.009   4.638   0.403 -0.0912 -0.8079  0.4092
 3433TIP3    H110263   5.047   4.552   0.420  2.4271  0.3922  1.3643
 3433TIP3    H210264   4.937   4.645   0.465 -0.4938 -2.2956  0.1450
 3434TIP3   OH210265   4.699   0.954   1.057 -0.7689 -0.5662 -0.1268
 3434TIP3    H110266   4.735   0.878   1.104  1.4545  0.0269 -0.7608
 3434TIP3    H210267   4.683   0.922   0.968 -0.1616 -0.3905 -0.3014
 3435TIP3   OH210268   7.208   5.346   4.663 -0.1979 -0.0427  0.2008
 3435TIP3    H110269   7.152   5.393   4.602  2.0810  0.7669 -1.3854
 3435TIP3    H210270   7.219   5.259   4.623  0.0539 -0.0480  0.2825
 3436TIP3   OH210271   6.545   2.597   2.685  0.3767 -0.1165 -0.6807
 3436TIP3    H110272   6.475   2.536   2.708  1.0035 -0.3152  0.8732
 3436TIP3    H210273   6.543   2.602   2.589 -0.9491 -1.0605 -0.7243
 3437TIP3   OH210274   0.466   0.369   0.821  0.1246  0.5371  0.2433
 3437TIP3    H110275   0.494   0.460   0.808  0.6510  0.4956  1.0491
 3437TIP3    H210276   0.419   0.370   0.904 -0.1723  0.1380  0.0807
 3438TIP3   OH210277   5.236   6.315   4.671  0.3320  0.2168 -0.4732
 3438TIP3    H110278   5.240   6.379   4.600  0.7511  1.1312  0.3626
 3438TIP3    H210279   5.144   6.291   4.676  0.3149  0.0423 -1.4066
 3439TIP3   OH210280   4.335   3.228   4.267 -0.0332  0.5597  0.4211
 3439TIP3    H110281   4.243   3.233   4.243  0.3473  2.0940 -0.8686
 3439TIP3    H210282   4.335   3.201   4.359 -1.6524 -2.4215 -0.3142
 3440TIP3   OH210283   5.680   1.518   3.036 -0.9644  0.3433 -0.1831
 3440TIP3    H110284   5.687   1.482   3.124  0.5544 -0.1497 -0.4739
 3440TIP3    H210285   5.586   1.525   3.019 -1.2872  1.0537  1.7084
 3441TIP3   OH210286   6.114   3.546   4.589  0.9410 -0.3255 -0.0171
 3441TIP3    H110287   6.030   3.588   4.607  0.7884 -0.3191 -0.7058
 3441TIP3    H210288   6.092   3.470   4.534  1.3108 -0.7504  0.4104
 3442TIP3   OH210289   0.279   2.420   1.438 -0.3435  0.0281 -0.1048
 3442TIP3    H110290   0.354   2.394   1.492 -0.3618  1.1566  0.4897
 3442TIP3    H210291   0.245   2.337   1.403 -1.1363 -0.9526  2.6896
 3443TIP3   OH210292   0.986   3.527   1.450 -0.2535  0.1742 -0.3262
 3443TIP3    H110293   1.016   3.476   1.526 -1.9422 -1.2599 -0.5576
 3443TIP3    H210294   1.021   3.480   1.375  1.1005  1.3836 -0.5003
 3444TIP3   OH210295   3.718   0.425   2.908 -0.0985  0.1050 -0.0328
 3444TIP3    H110296   3.700   0.498   2.967  1.7085  0.1964  0.4608
 3444TIP3    H210297   3.772   0.365   2.959 -1.2946 -1.4645 -0.5252
 3445TIP3   OH210298   4.576   0.723   4.903 -0.3013  0.2065  0.0781
 3445TIP3    H110299   4.530   0.789   4.850 -0.1015 -0.7554 -1.3716
 3445TIP3    H210300   4.667   0.730   4.876  0.0708  0.6549  1.3799
 3446TIP3   OH210301   0.919   6.095   4.972 -0.2178 -0.0724  0.2535
 3446TIP3    H110302   0.905   6.138   5.057  0.3344  1.8582 -0.5655
 3446TIP3    H210303   0.837   6.111   4.924 -0.3101 -0.6548  0.2168
 3447TIP3   OH210304   3.662   0.834   5.035 -0.1451  0.3884  0.5184
 3447TIP3    H110305   3.721   0.845   5.110 -0.1070  3.1103  0.1896
 3447TIP3    H210306   3.708   0.773   4.977  1.7864  1.4190  0.8740
 3448TIP3   OH210307   3.421   6.449   5.506  0.1809 -0.3347  0.0718
 3448TIP3    H110308   3.400   6.481   5.594 -1.3517  0.2074 -0.4601
 3448TIP3    H210309   3.404   6.355   5.510 -1.3399 -0.0861 -0.0218
 3449TIP3   OH210310   4.502   1.590   0.619 -0.0559 -0.2491 -0.2817
 3449TIP3    H110311   4.428   1.558   0.671  0.7493 -0.2822  0.8654
 3449TIP3    H210312   4.579   1.571   0.671  0.6794  0.9313 -0.8851
 3450TIP3   OH210313   2.311   6.270   1.013 -0.4911  0.2598 -0.6034
 3450TIP3    H110314   2.394   6.258   0.968  1.8571  1.0694  3.0706
 3450TIP3    H210315   2.292   6.185   1.052  0.3909  0.8106  1.1364
 3451TIP3   OH210316   3.630   4.443   1.117 -0.4176 -0.7918  0.1992
 3451TIP3    H110317   3.583   4.398   1.188  0.1380 -2.3667 -0.4026
 3451TIP3    H210318   3.575   4.432   1.040 -1.0990  1.0577  0.3630
 3452TIP3   OH210319   5.356   1.225   2.109  0.1886  0.0289  0.1415
 3452TIP3    H110320   5.450   1.206   2.107  0.2829  0.4757  0.3091
 3452TIP3    H210321   5.344   1.281   2.185 -0.3214 -0.5584  0.5025
 3453TIP3   OH210322   3.003   5.031   5.910 -0.3826  0.0557 -0.4359
 3453TIP3    H110323   2.996   5.125   5.924  0.0040  0.2502 -1.4747
 3453TIP3    H210324   3.060   5.022   5.834 -1.2895 -0.9826 -1.0309
 3454TIP3   OH210325   0.116   1.627   2.785 -0.1629  0.1711 -0.2787
 3454TIP3    H110326   0.083   1.606   2.698 -1.4819 -1.7240  0.5998
 3454TIP3    H210327   0.039   1.658   2.833  0.0258 -0.9810  0.8234
 3455TIP3   OH210328   1.429   5.459   3.717 -0.2470 -0.5396  0.3007
 3455TIP3    H110329   1.423   5.524   3.787  2.8765 -0.6052  0.7955
 3455TIP3    H210330   1.385   5.500   3.643  1.2644  2.0728  0.6970
 3456TIP3   OH210331   3.557   5.043   5.541  0.3006 -0.2326 -0.0873
 3456TIP3    H110332   3.500   5.028   5.616 -0.0781 -0.7606 -0.4694
 3456TIP3    H210333   3.530   4.978   5.477  2.7618 -1.9719  0.4892
 3457TIP3   OH210334   1.855   4.302   0.867  0.3566 -0.2575 -0.1579
 3457TIP3    H110335   1.781   4.250   0.835  0.6869 -0.6683 -0.2635
 3457TIP3    H210336   1.820   4.391   0.876  0.3587 -0.0455 -1.9936
 3458TIP3   OH210337   4.509   6.477   3.452  0.1292 -0.0642  0.0111
 3458TIP3    H110338   4.452   6.552   3.470  0.1549 -0.1686  0.5343
 3458TIP3    H210339   4.592   6.517   3.425  0.2223  0.1081  0.5318
 3459TIP3   OH210340   2.479   6.526   0.241  0.2476 -0.0554  0.4848
 3459TIP3    H110341   2.493   6.466   0.314  0.9857 -2.5516 -1.5359
 3459TIP3    H210342   2.419   6.479   0.183  2.0785  0.3895 -1.9343
 3460TIP3   OH210343   5.236   0.497   0.858 -0.0227 -0.4413  0.6728
 3460TIP3    H110344   5.269   0.582   0.830 -1.4692  0.6384  2.0363
 3460TIP3    H210345   5.142   0.501   0.841  0.0012 -2.1111 -0.0148
 3461TIP3   OH210346   6.296   4.444   1.890 -0.0884 -0.3188 -0.0812
 3461TIP3    H110347   6.228   4.455   1.957  0.9826  0.7553  0.8763
 3461TIP3    H210348   6.248   4.442   1.808 -1.3358 -0.2711  0.6196
 3462TIP3   OH210349   1.612   0.142   2.084  0.1334 -0.5265 -0.3266
 3462TIP3    H110350   1.586   0.234   2.087  0.9705 -0.2454 -1.1225
 3462TIP3    H210351   1.564   0.105   2.009 -0.7826 -0.9371  0.4502
 3463TIP3   OH210352   1.486   0.050   5.354 -0.1494  0.1688  0.1092
 3463TIP3    H110353   1.534   0.074   5.433 -1.0127 -0.5516  0.8763
 3463TIP3    H210354   1.406   0.008   5.386 -1.9043  2.3828 -1.0897
 3464TIP3   OH210355   6.981   5.968   0.228 -0.4634 -0.5826 -0.1547
 3464TIP3    H110356   6.898   5.981   0.273 -0.4935 -1.2717  0.0012
 3464TIP3    H210357   6.982   5.874   0.207  0.1265 -0.5140 -0.4454
 3465TIP3   OH210358   4.667   3.369   2.846  0.0280 -0.4149 -0.0625
 3465TIP3    H110359   4.594   3.392   2.789  0.2021 -0.0479 -0.1431
 3465TIP3    H210360   4.729   3.441   2.835  0.8610 -1.2166 -0.7797
 3466TIP3   OH210361   3.789   2.488   2.524 -0.1358  0.0580 -0.1288
 3466TIP3    H110362   3.856   2.550   2.553 -0.0628 -0.6934  1.4191
 3466TIP3    H210363   3.713   2.509   2.578 -1.4665  1.4061 -2.3901
 3467TIP3   OH210364   1.811   4.814   1.330  0.2216 -0.0696  0.0355
 3467TIP3    H110365   1.778   4.726   1.351 -1.1669  0.4410  0.1133
 3467TIP3    H210366   1.834   4.852   1.414 -0.3265  0.0619  0.1333
 3468TIP3   OH210367   5.497   2.865   1.711  0.0004  0.2977 -0.7641
 3468TIP3    H110368   5.461   2.953   1.696  0.3831  0.4099 -1.0575
 3468TIP3    H210369   5.435   2.823   1.769 -1.2635  0.0485 -2.2388
 3469TIP3   OH210370   4.777   0.143   0.363 -0.1967 -0.5676  1.0113
 3469TIP3    H110371   4.786   0.222   0.310 -1.0607  0.4494  2.2910
 3469TIP3    H210372   4.698   0.101   0.331  0.4602 -1.1331  0.0875
 3470TIP3   OH210373   6.616   1.670   3.051  0.4967 -0.2776  0.2233
 3470TIP3    H110374   6.675   1.651   2.979  0.2703  2.0672 -0.6806
 3470TIP3    H210375   6.537   1.619   3.032  0.5186  0.1387 -1.1023
 3471TIP3   OH210376   7.229   6.107   1.805  0.0367 -0.4678 -0.5233
 3471TIP3    H110377   7.163   6.167   1.771 -0.3672 -1.6516 -1.9017
 3471TIP3    H210378   7.187   6.021   1.804  1.2650 -1.0989 -0.4901
 3472TIP3   OH210379   5.125   0.328   1.225 -0.4803  0.3890 -0.3833
 3472TIP3    H110380   5.205   0.353   1.180  0.3332  0.9956  1.3060
 3472TIP3    H210381   5.076   0.277   1.161  1.4205 -0.3187 -1.3363
 3473TIP3   OH210382   5.262   1.195   2.688 -0.4293 -0.0160 -0.2086
 3473TIP3    H110383   5.228   1.107   2.703  1.3122 -0.5766  0.6968
 3473TIP3    H210384   5.237   1.245   2.766 -0.5954  0.0322 -0.2922
 3474TIP3   OH210385   2.761   1.166   4.145  0.0845  0.4096  0.1325
 3474TIP3    H110386   2.671   1.180   4.114 -0.5428  1.7208  2.2979
 3474TIP3    H210387   2.763   1.208   4.231  3.3995  2.3661 -0.7168
 3475TIP3   OH210388   2.349   6.334   5.688  0.4294  0.0256 -1.0833
 3475TIP3    H110389   2.345   6.426   5.715 -2.6216  0.0361 -1.2113
 3475TIP3    H210390   2.411   6.294   5.748  0.1728  1.7660  0.4274
 3476TIP3   OH210391   6.072   1.032   3.219  0.5328 -0.0997 -0.6912
 3476TIP3    H110392   6.110   0.967   3.278  1.6395  1.9955  1.0701
 3476TIP3    H210393   6.147   1.066   3.170  0.9312  2.9676  1.6914
 3477TIP3   OH210394   3.649   4.579   4.769  0.8864  0.4897 -0.0263
 3477TIP3    H110395   3.704   4.525   4.826  0.7215 -0.2762 -0.5770
 3477TIP3    H210396   3.688   4.666   4.774  2.6505 -0.1910 -1.0082
 3478TIP3   OH210397   0.607   5.492   1.849  0.0017 -0.2556  0.4679
 3478TIP3    H110398   0.685   5.455   1.890 -0.5498 -0.8086  1.0272
 3478TIP3    H210399   0.534   5.457   1.899 -0.6423 -0.1580 -0.3771
 3479TIP3   OH210400   2.846   1.062   0.831 -0.0510  0.0870  0.2474
 3479TIP3    H110401   2.850   0.988   0.892 -1.7469 -0.3461 -0.1093
 3479TIP3    H210402   2.914   1.122   0.861  1.0789 -1.4154  0.8090
 3480TIP3   OH210403   0.692   6.706   0.264 -0.1366 -0.1054 -0.3538
 3480TIP3    H110404   0.663   6.618   0.240 -1.1487  0.1217 -0.0324
 3480TIP3    H210405   0.693   6.705   0.360 -1.0653  0.4974 -0.3245
 3481TIP3   OH210406   3.152   0.271   1.126  0.5128 -0.2510  0.5662
 3481TIP3    H110407   3.102   0.350   1.147  1.6957  0.3130  1.3898
 3481TIP3    H210408   3.180   0.284   1.036 -0.2780 -0.2830  0.3077
 3482TIP3   OH210409   3.894   5.630   0.122  0.9955  0.2524 -0.1456
 3482TIP3    H110410   3.911   5.575   0.197  0.9604  0.3098 -0.0954
 3482TIP3    H210411   3.857   5.571   0.056  0.0637  0.3983  0.2433
 3483TIP3   OH210412   3.731   5.706   2.556 -0.0019 -0.6455 -0.4332
 3483TIP3    H110413   3.691   5.649   2.622 -2.8579  1.5505 -0.0809
 3483TIP3    H210414   3.792   5.760   2.606  0.9476 -1.7405 -0.3688
 3484TIP3   OH210415   2.725   3.040   1.931  0.3162  0.0229 -0.7595
 3484TIP3    H110416   2.680   3.118   1.898 -0.5781  0.0185  0.3948
 3484TIP3    H210417   2.813   3.070   1.954 -0.0635  0.7326 -0.1990
 3485TIP3   OH210418   0.991   2.834   2.891 -0.3132  0.2649  0.7936
 3485TIP3    H110419   0.935   2.839   2.969 -0.7790 -1.0323  0.5737
 3485TIP3    H210420   0.959   2.756   2.845  1.6494 -0.4836  0.6369
 3486TIP3   OH210421   3.003   4.399   4.023 -0.3661 -0.0542 -0.0918
 3486TIP3    H110422   3.017   4.473   3.964 -0.6442 -1.0271 -1.4153
 3486TIP3    H210423   2.908   4.389   4.028 -0.3503 -2.0728 -2.2596
 3487TIP3   OH210424   0.009   5.772   5.881  0.2404  0.0196 -0.5211
 3487TIP3    H110425  -0.021   5.705   5.943 -0.3623  0.2220 -0.5798
 3487TIP3    H210426   0.083   5.732   5.836  1.5653  0.3505  1.2492
 3488TIP3   OH210427   2.238   4.372   5.694  0.5334  0.4230 -0.0941
 3488TIP3    H110428   2.243   4.324   5.612  0.5836 -0.7216  0.5551
 3488TIP3    H210429   2.300   4.444   5.685  1.7623 -0.6578 -0.4428
 3489TIP3   OH210430   3.672   1.431   1.053 -0.4740  0.7973 -0.2658
 3489TIP3    H110431   3.709   1.351   1.092  1.1984  1.2061 -0.9162
 3489TIP3    H210432   3.590   1.402   1.012 -0.8408 -0.1900  1.1140
 3490TIP3   OH210433   3.406   2.811   1.251  0.3149 -0.1367  0.8643
 3490TIP3    H110434   3.347   2.746   1.213  1.7349 -2.3167  2.2066
 3490TIP3    H210435   3.350   2.886   1.270 -1.0220 -0.0825 -2.5553
 3491TIP3   OH210436   3.412   4.612   5.012 -0.4340  0.3431 -0.6649
 3491TIP3    H110437   3.425   4.523   5.046 -1.8965 -0.1773 -1.3874
 3491TIP3    H210438   3.435   4.606   4.919 -0.2754  0.8009 -0.6609
 3492TIP3   OH210439   1.100   2.064   2.209  0.1782  0.1216  0.0934
 3492TIP3    H110440   1.030   2.125   2.233  1.2964  0.7959  1.7799
 3492TIP3    H210441   1.151   2.110   2.142 -0.6910 -0.2027 -0.8240
 3493TIP3   OH210442   1.867   2.849   5.115 -0.0461  0.6452 -0.2556
 3493TIP3    H110443   1.833   2.789   5.049 -0.9198 -0.1234  0.8408
 3493TIP3    H210444   1.921   2.911   5.067  0.2916 -0.5947 -1.5211
 3494TIP3   OH210445   0.562   2.051   5.193 -0.2677  0.9420  0.7030
 3494TIP3    H110446   0.512   2.058   5.112 -1.1714  1.5769  1.2950
 3494TIP3    H210447   0.496   2.052   5.263  0.3086 -1.9883  1.4103
 3495TIP3   OH210448   0.760   0.181   4.208  0.3526  0.2607 -0.0582
 3495TIP3    H110449   0.678   0.140   4.236  0.8215  0.1712  1.2618
 3495TIP3    H210450   0.733   0.247   4.144 -0.5833 -0.8235 -0.8279
 3496TIP3   OH210451   0.156   6.345   4.474  0.1746  0.2835 -0.1989
 3496TIP3    H110452   0.140   6.262   4.520 -1.2727 -0.0142 -1.1720
 3496TIP3    H210453   0.076   6.360   4.425  0.7025  1.9148 -0.5996
 3497TIP3   OH210454   1.804   2.989   2.071 -0.4453  0.3581 -0.7287
 3497TIP3    H110455   1.801   3.084   2.083  0.2840  0.2363  0.6847
 3497TIP3    H210456   1.895   2.966   2.093 -0.7563 -0.7216 -0.5363
 3498TIP3   OH210457   3.887   5.040   4.992  0.0643  0.4210  0.4956
 3498TIP3    H110458   3.800   5.015   4.962 -0.3221  1.9515  0.2743
 3498TIP3    H210459   3.884   5.135   4.999  1.9787  0.5868 -0.3339
 3499TIP3   OH210460   5.427   3.370   2.854  0.1775 -0.2725 -0.1156
 3499TIP3    H110461   5.361   3.430   2.818 -1.2186 -1.4343  0.3730
 3499TIP3    H210462   5.507   3.422   2.859 -0.3547  0.8504 -1.9292
 3500TIP3   OH210463   1.156   0.033   4.335 -0.3513  0.7161  0.2956
 3500TIP3    H110464   1.153   0.059   4.427  0.5318  1.1226  0.2201
 3500TIP3    H210465   1.249   0.020   4.316 -0.6069 -0.5530 -0.2215
 3501TIP3   OH210466   2.317   6.725   4.613  0.0523  0.3988 -0.5805
 3501TIP3    H110467   2.237   6.675   4.600 -1.6635  2.2187  2.0207
 3501TIP3    H210468   2.288   6.815   4.629  2.5789  1.1098  0.6237
 3502TIP3   OH210469   4.015   5.455   1.428  0.7661 -0.4067 -0.3589
 3502TIP3    H110470   4.092   5.455   1.371  2.0437 -0.7548  1.3048
 3502TIP3    H210471   3.986   5.363   1.429  0.8693 -0.4371 -0.2629
 3503TIP3   OH210472   6.910   4.259   4.717 -0.5201 -0.1568  0.3711
 3503TIP3    H110473   6.815   4.262   4.709 -0.4162  0.9148 -0.7336
 3503TIP3    H210474   6.935   4.347   4.745  0.2026 -0.1974 -0.1047
 3504TIP3   OH210475   5.056   6.646   0.233  0.5327 -0.2864 -0.2277
 3504TIP3    H110476   5.005   6.568   0.254  0.8761 -0.8201 -1.3576
 3504TIP3    H210477   4.997   6.700   0.180  0.7347 -0.3568 -0.5239
 3505TIP3   OH210478   3.609   1.839   2.914  0.1713  0.2736 -0.0409
 3505TIP3    H110479   3.567   1.766   2.869 -1.0801  1.3561 -0.7211
 3505TIP3    H210480   3.696   1.845   2.874  0.0578 -0.4662 -0.4106
 3506TIP3   OH210481   1.625   4.306   1.245  0.4211 -0.0337  0.0691
 3506TIP3    H110482   1.583   4.391   1.263 -1.0297 -0.7269  0.0801
 3506TIP3    H210483   1.568   4.242   1.286  1.1848 -1.0776 -0.4612
 3507TIP3   OH210484   2.466   1.876   3.207 -0.3325  0.1399  0.3544
 3507TIP3    H110485   2.471   1.785   3.237  0.6948  0.3272  0.8181
 3507TIP3    H210486   2.531   1.881   3.137 -0.7808  0.3804 -0.0438
 3508TIP3   OH210487   4.832   4.152   4.523 -0.6540  0.0742  0.0266
 3508TIP3    H110488   4.839   4.108   4.607  0.8949  0.3862  0.0883
 3508TIP3    H210489   4.896   4.224   4.528 -1.1567  0.6212 -1.0877
 3509TIP3   OH210490   0.722   4.461   0.190  0.2951 -0.0927 -0.0495
 3509TIP3    H110491   0.792   4.447   0.126 -0.5375 -1.3433 -0.7271
 3509TIP3    H210492   0.765   4.452   0.275  1.3065  1.0302 -0.4271
 3510TIP3   OH210493   6.732   4.003   2.789 -0.2522 -0.4641  0.5067
 3510TIP3    H110494   6.774   4.058   2.723 -0.1287 -1.2530 -0.0900
 3510TIP3    H210495   6.654   3.968   2.745 -1.6740  1.1021  1.6411
 3511TIP3   OH210496   1.561   1.661   0.347 -0.4377 -0.6184 -0.7650
 3511TIP3    H110497   1.577   1.684   0.256 -0.6956 -0.3542 -0.7439
 3511TIP3    H210498   1.517   1.576   0.343  1.4883 -1.6691 -0.8020
 3512TIP3   OH210499   2.865   6.365   3.419  0.2528 -0.2247 -0.0016
 3512TIP3    H110500   2.884   6.274   3.397 -1.2769 -0.8827  1.2328
 3512TIP3    H210501   2.772   6.367   3.438  0.3736  1.4760  0.6608
 3513TIP3   OH210502   0.621   6.441   5.588  0.1799 -0.2816 -0.0179
 3513TIP3    H110503   0.568   6.462   5.511  0.8754  1.0302 -0.1532
 3513TIP3    H210504   0.599   6.509   5.652 -1.2307 -1.9591  1.4148
 3514TIP3   OH210505   1.012   1.664   3.757  0.1891 -0.1598  0.3554
 3514TIP3    H110506   0.988   1.574   3.780 -2.6601 -0.3064 -2.4432
 3514TIP3    H210507   1.011   1.665   3.661  2.6237  2.3295  0.2383
 3515TIP3   OH210508   4.633   4.917   1.066 -0.0271  0.2367  0.4610
 3515TIP3    H110509   4.579   4.943   1.141  0.5495  0.0635  0.9457
 3515TIP3    H210510   4.685   4.843   1.098  0.8109  0.6737  0.1451
 3516TIP3   OH210511   3.204   3.455   2.149  0.1241 -0.4807 -0.5888
 3516TIP3    H110512   3.245   3.514   2.211 -1.0095  0.8888 -1.0922
 3516TIP3    H210513   3.143   3.403   2.201  1.0879 -1.2049 -0.1546
 3517TIP3   OH210514   0.520   4.560   3.096 -0.4606  0.2310 -0.0178
 3517TIP3    H110515   0.520   4.614   3.016 -2.0510 -0.2421 -0.3809
 3517TIP3    H210516   0.484   4.618   3.163 -0.9276  0.0523 -0.1058
 3518TIP3   OH210517   5.911   3.323   5.300  0.2481 -0.3689  0.1056
 3518TIP3    H110518   5.939   3.289   5.215 -1.5912  0.1494 -0.7572
 3518TIP3    H210519   5.987   3.372   5.333  0.2248  1.5184 -2.3770
 3519TIP3   OH210520   2.988   0.165   5.466 -0.3311  0.1994  0.2228
 3519TIP3    H110521   3.037   0.223   5.524  0.4196  1.0240 -1.1676
 3519TIP3    H210522   2.987   0.211   5.382 -0.6757 -1.3048 -0.6350
 3520TIP3   OH210523   0.147   0.991   3.186 -0.2398  0.6912  0.0002
 3520TIP3    H110524   0.206   0.955   3.120  0.1898  1.2447  0.0830
 3520TIP3    H210525   0.061   0.990   3.143  0.0508  1.1244 -0.5973
 3521TIP3   OH210526   5.500   2.752   3.824  0.6953  0.0471  0.0401
 3521TIP3    H110527   5.431   2.692   3.795  0.1747 -0.3292  1.8609
 3521TIP3    H210528   5.574   2.734   3.767 -1.1191  1.5466 -3.0473
 3522TIP3   OH210529   2.386   0.324   3.105  0.3749  0.0256  0.4901
 3522TIP3    H110530   2.299   0.286   3.100  0.6810 -1.2194  2.8036
 3522TIP3    H210531   2.444   0.249   3.121  1.6773  0.9689  0.3580
 3523TIP3   OH210532   1.884   2.237   2.287 -0.6453  0.0003 -0.4534
 3523TIP3    H110533   1.928   2.159   2.253 -0.2620 -0.9741  2.0329
 3523TIP3    H210534   1.897   2.232   2.382 -1.6660  2.4713 -0.1077
 3524TIP3   OH210535   2.459   1.415   4.739 -0.1852 -0.0710  0.3534
 3524TIP3    H110536   2.471   1.442   4.830 -0.2241  1.6364 -0.1212
 3524TIP3    H210537   2.391   1.474   4.706 -1.3299 -1.7159 -0.3556
 3525TIP3   OH210538   0.754   5.960   3.349 -0.2495  0.2614 -0.5012
 3525TIP3    H110539   0.665   5.986   3.328 -0.1309  0.9159 -0.2052
 3525TIP3    H210540   0.748   5.919   3.435 -0.4240 -0.6573 -0.9357
 3526TIP3   OH210541   3.055   3.679   2.328 -0.0857  0.1139  0.2545
 3526TIP3    H110542   3.027   3.662   2.238 -0.0753  0.8181  0.1128
 3526TIP3    H210543   3.147   3.703   2.321 -0.2989  1.0022  0.3472
 3527TIP3   OH210544   4.841   3.218   5.853 -0.4174 -0.3260 -0.0748
 3527TIP3    H110545   4.881   3.142   5.895  4.0485  1.1728 -1.1268
 3527TIP3    H210546   4.839   3.196   5.760 -4.6305 -1.2293  0.0052
 3528TIP3   OH210547   5.539   1.171   0.082 -0.1104 -0.8003 -0.4582
 3528TIP3    H110548   5.516   1.124   0.002  0.8131 -2.1759  0.0383
 3528TIP3    H210549   5.588   1.107   0.134  1.4166  0.8001  0.1698
 3529TIP3   OH210550   0.444   4.654   4.139  0.6169 -0.2113  0.0377
 3529TIP3    H110551   0.351   4.646   4.157  0.4750 -0.1644 -0.6336
 3529TIP3    H210552   0.486   4.592   4.198  0.0439 -1.3580 -0.7207
 3530TIP3   OH210553   3.000   2.682   2.878 -0.2451 -0.3436 -0.3461
 3530TIP3    H110554   2.906   2.688   2.865 -0.1332 -0.5704 -1.3416
 3530TIP3    H210555   3.021   2.756   2.935 -1.0319 -0.3468 -0.0423
 3531TIP3   OH210556   1.382   6.503   2.803 -0.0696  0.1790 -0.0014
 3531TIP3    H110557   1.329   6.431   2.840 -0.4558  1.3197  1.7972
 3531TIP3    H210558   1.357   6.580   2.854 -0.4228  1.8668 -2.5327
 3532TIP3   OH210559   5.991   6.388   0.604  0.2954  0.0155  0.1821
 3532TIP3    H110560   5.918   6.418   0.549  0.9554  1.4551  0.0443
 3532TIP3    H210561   5.962   6.406   0.693  1.0198  2.0010  0.0720
 3533TIP3   OH210562   3.099   4.517   5.434 -0.3987  0.4526  0.0971
 3533TIP3    H110563   3.045   4.449   5.472 -1.4786  1.8532  1.1447
 3533TIP3    H210564   3.078   4.515   5.340  0.9408 -1.7972 -0.2458
 3534TIP3   OH210565   0.540   2.611   0.178  0.1677 -0.0534 -0.6291
 3534TIP3    H110566   0.491   2.529   0.185  1.0489 -0.5788 -0.4394
 3534TIP3    H210567   0.593   2.614   0.258  0.5065  0.4559 -0.8679
 3535TIP3   OH210568   0.665   2.911   0.908  0.3639  0.3877  0.1897
 3535TIP3    H110569   0.578   2.893   0.944 -0.6884  0.4280 -2.1951
 3535TIP3    H210570   0.669   3.006   0.898  0.2522  0.2993 -0.7208
 3536TIP3   OH210571   1.311   3.423   2.612  0.8717  0.1860  0.2455
 3536TIP3    H110572   1.381   3.463   2.664  2.3199 -0.2453 -1.2627
 3536TIP3    H210573   1.310   3.475   2.531  0.2303 -0.5371 -0.2171
 3537TIP3   OH210574   0.629   0.989   1.685  0.0299  0.2401  0.3590
 3537TIP3    H110575   0.660   1.072   1.722  1.2241  0.3909 -0.9194
 3537TIP3    H210576   0.539   0.982   1.715 -0.1287  2.0548  0.4211
 3538TIP3   OH210577   4.262   2.571   0.144 -0.4635  0.1874  0.1824
 3538TIP3    H110578   4.327   2.524   0.092 -0.8551 -1.6046  1.2130
 3538TIP3    H210579   4.270   2.662   0.116  1.7644 -0.1412 -0.4511
 3539TIP3   OH210580   3.494   0.126   4.081 -0.4691  0.0402  0.1106
 3539TIP3    H110581   3.522   0.156   4.167  1.0742 -2.4598  0.5666
 3539TIP3    H210582   3.417   0.071   4.099 -0.0081 -0.6704 -0.0472
 3540TIP3   OH210583   0.112   3.149   1.258  0.0477 -0.1073  0.3873
 3540TIP3    H110584   0.116   3.059   1.290 -3.5570 -0.2067  1.0063
 3540TIP3    H210585   0.084   3.200   1.334 -0.9281  1.0050 -0.6779
 3541TIP3   OH210586   6.565   1.683   2.168 -0.3857 -0.0983  0.5496
 3541TIP3    H110587   6.608   1.675   2.253 -1.4918 -0.0280  1.1345
 3541TIP3    H210588   6.611   1.755   2.125  1.0722 -1.0072  0.5142
 3542TIP3   OH210589   1.464   0.461   2.391  0.2309 -0.8617 -0.2836
 3542TIP3    H110590   1.482   0.514   2.469  0.9577  2.4891 -2.5079
 3542TIP3    H210591   1.394   0.401   2.418  0.7868 -0.1820  3.0273
 3543TIP3   OH210592   5.504   1.523   2.521  0.4913 -0.2066  0.2025
 3543TIP3    H110593   5.499   1.458   2.591  0.2754  1.0404  1.3820
 3543TIP3    H210594   5.476   1.605   2.562  2.6602  1.0645 -0.6914
 3544TIP3   OH210595   6.505   5.544   2.364  1.1377  0.5516 -0.0146
 3544TIP3    H110596   6.453   5.594   2.427  0.2730 -0.6570  0.2596
 3544TIP3    H210597   6.589   5.590   2.362  0.7299  1.3945  1.0136
 3545TIP3   OH210598   4.403   6.179   3.863  0.7425 -0.5992  0.1766
 3545TIP3    H110599   4.342   6.236   3.910 -2.4308 -3.2025 -0.4020
 3545TIP3    H210600   4.454   6.137   3.932 -0.3499 -0.6787  0.9665
 3546TIP3   OH210601   4.146   1.971   0.084 -0.4110 -0.0799  0.0449
 3546TIP3    H110602   4.099   1.895   0.050  2.5802 -2.8930  1.7151
 3546TIP3    H210603   4.076   2.035   0.101 -2.9536 -1.8683 -2.5887
 3547TIP3   OH210604   6.065   6.749   3.060  0.4156 -0.5462 -0.3515
 3547TIP3    H110605   6.131   6.682   3.043 -0.8029 -1.3362 -2.4369
 3547TIP3    H210606   5.983   6.700   3.069 -0.0933  0.4884  1.0487
 3548TIP3   OH210607   6.635   4.238   3.514  0.4711 -0.5826 -0.0291
 3548TIP3    H110608   6.613   4.169   3.450  2.4775  0.2616 -1.7801
 3548TIP3    H210609   6.719   4.209   3.551  0.0687 -0.2994  1.1358
 3549TIP3   OH210610   6.653   2.335   5.549 -0.0554 -0.7070  0.0140
 3549TIP3    H110611   6.559   2.319   5.540 -0.4255  1.0936  0.2588
 3549TIP3    H210612   6.676   2.386   5.471  0.8418 -1.6004 -0.3127
 3550TIP3   OH210613   6.071   2.052   1.341  0.4261  0.5163 -0.3950
 3550TIP3    H110614   6.148   2.109   1.342 -0.4063  1.7059 -1.2424
 3550TIP3    H210615   6.103   1.968   1.308  1.6607  0.4871  0.7953
 3551TIP3   OH210616   1.659   2.413   2.382 -0.3018  0.0250 -0.3955
 3551TIP3    H110617   1.717   2.379   2.450  1.7755  1.0481 -1.5651
 3551TIP3    H210618   1.684   2.366   2.303  0.1497  1.6583 -1.2759
 3552TIP3   OH210619   2.421   0.740   5.468 -0.1242 -0.5561 -0.0452
 3552TIP3    H110620   2.486   0.800   5.506  0.6749  1.2605 -3.7123
 3552TIP3    H210621   2.465   0.655   5.465  0.4518 -0.3222  1.2483
 3553TIP3   OH210622   6.422   1.976   0.159  0.0354  0.3583  0.0471
 3553TIP3    H110623   6.364   1.938   0.225 -1.2786  0.6787 -0.8894
 3553TIP3    H210624   6.397   1.933   0.078  2.1233 -0.5805 -0.1850
 3554TIP3   OH210625   0.844   2.160   1.593 -0.0570 -0.0432 -0.3999
 3554TIP3    H110626   0.938   2.156   1.574  0.4807 -0.9399  2.1402
 3554TIP3    H210627   0.808   2.082   1.552  0.2942  0.2153 -1.2425
 3555TIP3   OH210628   4.842   5.178   0.324 -0.0774  0.0372 -0.1733
 3555TIP3    H110629   4.915   5.201   0.266  0.0447 -0.2747 -0.1479
 3555TIP3    H210630   4.788   5.257   0.328  0.5700  0.4643  0.2709
 3556TIP3   OH210631   4.086   6.291   2.925  0.1026 -0.2465 -0.1664
 3556TIP3    H110632   4.025   6.268   2.995 -2.1043 -0.3497 -2.0186
 3556TIP3    H210633   4.056   6.376   2.894  0.9286 -0.2758 -1.0946
 3557TIP3   OH210634   3.110   1.340   1.954  0.8533  0.4885 -0.1778
 3557TIP3    H110635   3.037   1.280   1.941  0.6982 -0.1628  2.9075
 3557TIP3    H210636   3.185   1.294   1.916  0.1236 -0.0202 -1.0397
 3558TIP3   OH210637   5.635   4.116   1.543  0.1674 -0.4155  0.5674
 3558TIP3    H110638   5.638   4.199   1.495 -0.8996  0.0788  1.3188
 3558TIP3    H210639   5.708   4.065   1.508  3.1464  2.1409  2.5036
 3559TIP3   OH210640   2.252   3.104   3.763  0.1128  0.2272  0.2734
 3559TIP3    H110641   2.216   3.138   3.845 -0.4833  0.0917  0.0710
 3559TIP3    H210642   2.337   3.147   3.755 -0.1167  0.7569  0.6157
 3560TIP3   OH210643   0.223   2.286   4.995 -0.2048  0.0992  0.0641
 3560TIP3    H110644   0.296   2.338   5.029 -0.1604 -0.2548  0.5103
 3560TIP3    H210645   0.158   2.351   4.968 -0.5255  0.3814  1.4478
 3561TIP3   OH210646   1.227   4.268   1.634  0.1911 -0.0355 -0.2064
 3561TIP3    H110647   1.237   4.319   1.714  0.9280  0.1162 -0.3861
 3561TIP3    H210648   1.248   4.178   1.659  0.9757  0.0990 -0.3335
 3562TIP3   OH210649   5.147   5.598   5.696 -0.1878  0.1445 -0.7511
 3562TIP3    H110650   5.160   5.631   5.785 -1.0759  0.0393 -0.5716
 3562TIP3    H210651   5.208   5.648   5.642 -0.8768  1.4519 -0.3561
 3563TIP3   OH210652   1.205   1.909   2.502  0.0537  0.1257 -0.0426
 3563TIP3    H110653   1.228   1.995   2.465 -0.5836  0.6838  0.8310
 3563TIP3    H210654   1.133   1.927   2.563  0.4873 -0.8976  0.8050
 3564TIP3   OH210655   2.461   2.458   4.969  0.2411 -0.4319 -0.1296
 3564TIP3    H110656   2.420   2.394   4.911  0.8220 -0.3606 -0.6262
 3564TIP3    H210657   2.441   2.543   4.930  0.9157 -0.4004 -0.4129
 3565TIP3   OH210658   6.183   5.921   3.048 -0.1671 -0.0160 -0.0599
 3565TIP3    H110659   6.236   5.896   2.972 -0.7438 -0.2346 -0.3913
 3565TIP3    H210660   6.144   6.005   3.024  0.4358  0.4033  0.3919
 3566TIP3   OH210661   3.205   1.219   4.480 -0.1436  0.2730  0.3016
 3566TIP3    H110662   3.231   1.308   4.502 -0.1680  0.5875 -0.8823
 3566TIP3    H210663   3.159   1.227   4.396 -1.3173 -0.6836  0.8125
 3567TIP3   OH210664   6.999   0.571   0.471  0.0894  0.2646  0.0192
 3567TIP3    H110665   7.014   0.666   0.480 -0.8043  0.3397  0.8604
 3567TIP3    H210666   6.948   0.563   0.391  0.9537  0.4039 -0.5536
 3568TIP3   OH210667   3.432   6.073   2.823  0.3761  0.7428 -1.0246
 3568TIP3    H110668   3.496   6.134   2.861  1.3828 -0.7252 -0.2345
 3568TIP3    H210669   3.392   6.030   2.899  1.6613 -1.4888 -1.5108
 3569TIP3   OH210670   5.570   6.195   0.659 -0.3478  0.1047  0.1902
 3569TIP3    H110671   5.629   6.258   0.700 -2.4169  0.2591  3.3153
 3569TIP3    H210672   5.580   6.116   0.712 -1.6271 -0.4062 -0.3085
 3570TIP3   OH210673   7.106   4.728   2.661 -0.4178  0.2762 -0.6047
 3570TIP3    H110674   7.161   4.674   2.717 -0.8024 -0.3877 -0.8564
 3570TIP3    H210675   7.090   4.808   2.712 -1.9503 -0.8952  0.8387
 3571TIP3   OH210676   6.698   1.416   3.729  0.5311 -0.1923 -0.1130
 3571TIP3    H110677   6.621   1.393   3.677  0.0682 -0.6929  0.7582
 3571TIP3    H210678   6.742   1.485   3.679 -0.0413 -0.4706 -1.0164
 3572TIP3   OH210679   0.773   0.911   0.351  0.0501 -0.3166 -1.3814
 3572TIP3    H110680   0.793   0.818   0.354 -0.5495 -0.4425  1.1257
 3572TIP3    H210681   0.828   0.950   0.419 -0.2751  1.0553 -1.8617
 3573TIP3   OH210682   4.356   3.817   3.912  0.2415  0.1105 -0.3984
 3573TIP3    H110683   4.388   3.782   3.829 -0.8488  0.2683 -0.8940
 3573TIP3    H210684   4.435   3.828   3.965  1.0830  0.9682 -1.7711
 3574TIP3   OH210685   0.618   5.695   1.662 -0.2685 -0.4305 -0.5044
 3574TIP3    H110686   0.604   5.628   1.730  0.1523 -0.7817 -0.7597
 3574TIP3    H210687   0.576   5.773   1.697  1.9725  0.0877  1.2407
 3575TIP3   OH210688  -0.003   4.876   3.871 -0.3871 -0.0714 -0.2154
 3575TIP3    H110689   0.030   4.797   3.829  0.6482 -0.2391  0.8863
 3575TIP3    H210690   0.037   4.877   3.957 -1.4854  0.9351  0.3153
 3576TIP3   OH210691   3.482   5.785   2.782  0.1578 -0.8497 -0.1258
 3576TIP3    H110692   3.431   5.805   2.703  0.3685 -0.0901 -0.0729
 3576TIP3    H210693   3.498   5.870   2.823  0.5202 -1.1878  0.4488
 3577TIP3   OH210694   6.748   2.435   3.782  0.0913  0.2230  0.6957
 3577TIP3    H110695   6.732   2.466   3.870  0.4027 -1.0560  1.2263
 3577TIP3    H210696   6.664   2.398   3.754  0.5922 -1.5272  1.3913
 3578TIP3   OH210697   5.548   6.237   5.024  0.0070  0.1414 -0.2159
 3578TIP3    H110698   5.537   6.202   4.936 -0.1573  1.6477 -0.8182
 3578TIP3    H210699   5.623   6.296   5.018 -0.6755  1.0999  0.3671
 3579TIP3   OH210700   3.633   4.496   2.819 -0.2104 -0.1941  0.1271
 3579TIP3    H110701   3.627   4.577   2.870  0.5451 -0.1635  0.1722
 3579TIP3    H210702   3.547   4.456   2.828 -0.2015 -0.0090  1.1249
 3580TIP3   OH210703   5.914   5.911   1.702 -0.0487 -0.1101  0.4777
 3580TIP3    H110704   5.837   5.884   1.752  0.1292 -3.0199 -0.6574
 3580TIP3    H210705   5.989   5.885   1.756  0.1289 -1.3283 -0.3284
 3581TIP3   OH210706   5.816   5.858   0.996 -0.1398  1.1089  0.0893
 3581TIP3    H110707   5.758   5.912   1.050 -1.1986 -1.1715  1.3698
 3581TIP3    H210708   5.760   5.789   0.962  1.4126  0.0359 -0.4016
 3582TIP3   OH210709   7.185   6.463   0.753 -0.1987  0.7775 -0.3416
 3582TIP3    H110710   7.243   6.488   0.681 -1.2370  1.9764 -0.7749
 3582TIP3    H210711   7.118   6.409   0.713 -0.9514  1.6947 -0.3477
 3583TIP3   OH210712   0.003   3.568   1.155  0.3457 -0.1071 -0.2682
 3583TIP3    H110713   0.027   3.508   1.084  0.7585  2.0181 -2.0014
 3583TIP3    H210714   0.083   3.580   1.205  0.9747  1.0071 -1.4932
 3584TIP3   OH210715   3.896   3.349   0.721 -0.2897 -0.1042  0.8096
 3584TIP3    H110716   3.990   3.330   0.713 -0.1483  0.5958  0.7232
 3584TIP3    H210717   3.887   3.438   0.687 -0.9513 -0.0739  1.0502
 3585TIP3   OH210718   5.911  -0.008   5.546  0.5619 -0.6275 -0.2067
 3585TIP3    H110719   5.919   0.087   5.553 -1.3131 -0.5518  3.1805
 3585TIP3    H210720   6.001  -0.039   5.535  1.2285  1.4866 -1.2675
 3586TIP3   OH210721   2.979   1.711   3.249 -0.3887  0.0308  0.4904
 3586TIP3    H110722   3.049   1.761   3.290  1.6839 -1.2765 -1.2382
 3586TIP3    H210723   3.005   1.620   3.261 -1.5651 -0.4712 -0.5881
 3587TIP3   OH210724   1.062   5.935   3.919 -0.0493  0.1551  0.1803
 3587TIP3    H110725   1.000   5.906   3.985 -2.6315  2.3678 -1.0839
 3587TIP3    H210726   1.074   6.028   3.937 -1.2921  0.9749 -2.6676
 3588TIP3   OH210727   5.735   3.186   5.075  0.6415 -0.3162  0.4834
 3588TIP3    H110728   5.658   3.166   5.021 -1.0264  1.6155  2.0012
 3588TIP3    H210729   5.797   3.116   5.054 -0.3288 -0.3075 -3.0342
 3589TIP3   OH210730   6.452   4.307   4.194 -1.0941  0.0849 -0.1533
 3589TIP3    H110731   6.360   4.333   4.195 -0.9497  0.6203 -0.3331
 3589TIP3    H210732   6.483   4.334   4.107 -0.9802 -0.8532 -0.4180
 3590TIP3   OH210733   6.165   6.491   1.154 -0.0228 -0.3151 -0.3677
 3590TIP3    H110734   6.181   6.510   1.061 -0.3314  0.3593 -0.2925
 3590TIP3    H210735   6.091   6.548   1.177 -0.5555 -1.1632  0.0485
 3591TIP3   OH210736   4.820   1.313   5.015  0.1587 -0.7331  0.0677
 3591TIP3    H110737   4.814   1.402   5.050  1.4173  0.1802 -1.9066
 3591TIP3    H210738   4.761   1.313   4.939  1.5734 -0.9862 -1.0652
 3592TIP3   OH210739   0.387   3.876   0.511 -0.5549  0.0878 -0.1002
 3592TIP3    H110740   0.470   3.836   0.487  0.6432  1.6749  1.2130
 3592TIP3    H210741   0.355   3.917   0.431  0.8548  1.0378 -0.1887
 3593TIP3   OH210742   6.877   6.332   3.029 -0.2780  0.4249 -0.0840
 3593TIP3    H110743   6.803   6.337   3.090  0.0010 -0.5284  0.3603
 3593TIP3    H210744   6.842   6.365   2.946 -1.0681  0.4339  0.2379
 3594TIP3   OH210745   4.201   5.298   3.073 -0.3944  0.6126 -0.1352
 3594TIP3    H110746   4.223   5.315   2.982 -2.2296 -0.7064 -0.8861
 3594TIP3    H210747   4.200   5.385   3.113  0.7792  1.1823 -1.2631
 3595TIP3   OH210748   3.176   4.461   1.254  0.4913  0.2403  0.3520
 3595TIP3    H110749   3.205   4.513   1.329  0.9885  0.5549 -0.0542
 3595TIP3    H210750   3.244   4.474   1.188  1.1077 -1.6744  0.5550
 3596TIP3   OH210751   1.281   6.683   3.597  0.8899 -0.1397 -0.2659
 3596TIP3    H110752   1.251   6.643   3.678 -0.5711  2.0434  0.3612
 3596TIP3    H210753   1.303   6.609   3.540 -2.9419 -1.9203  0.2783
 3597TIP3   OH210754   0.042   0.752   0.448  0.1695  0.1209  0.1504
 3597TIP3    H110755   0.052   0.670   0.496  0.1714 -0.4540 -0.8180
 3597TIP3    H210756   0.123   0.761   0.398 -0.0989  0.3936 -0.2378
 3598TIP3   OH210757   5.894   1.097   1.117  0.5302  0.1267  0.3320
 3598TIP3    H110758   5.811   1.114   1.072  1.2148  1.1077 -0.6305
 3598TIP3    H210759   5.937   1.182   1.120  1.3782 -0.3135  1.0904
 3599TIP3   OH210760   2.584   0.428   3.318  0.0130  0.4669 -0.2866
 3599TIP3    H110761   2.667   0.415   3.274 -0.0974 -0.3168 -0.2745
 3599TIP3    H210762   2.522   0.449   3.248 -0.1279 -0.6130 -0.4996
 3600TIP3   OH210763   2.415   6.197   1.536  0.3344  0.2964 -0.2465
 3600TIP3    H110764   2.457   6.241   1.462 -1.1571  0.6145 -0.9455
 3600TIP3    H210765   2.373   6.120   1.497  0.5542 -0.2003  0.4864
 3601TIP3   OH210766   1.599   2.312   3.469 -0.3849  0.0406  0.3741
 3601TIP3    H110767   1.668   2.265   3.423 -0.3421  1.2529 -0.8887
 3601TIP3    H210768   1.526   2.251   3.473 -0.0843 -0.3880 -0.5468
 3602TIP3   OH210769   3.078   3.855   1.056  0.6873 -0.0831 -0.4534
 3602TIP3    H110770   3.074   3.899   0.970  0.6077 -0.3381 -0.5815
 3602TIP3    H210771   3.120   3.919   1.113 -0.0726  0.4361 -0.4687
 3603TIP3   OH210772   5.567   2.304   4.386 -0.0983 -0.1589 -0.1911
 3603TIP3    H110773   5.507   2.246   4.432  1.1388  0.3088  2.1413
 3603TIP3    H210774   5.525   2.390   4.389 -0.7921 -0.4146 -1.5097
 3604TIP3   OH210775   3.567   5.465   4.278 -0.4785 -0.1355 -0.8742
 3604TIP3    H110776   3.540   5.555   4.260 -0.5103  0.0904  0.2596
 3604TIP3    H210777   3.656   5.460   4.245 -0.8920 -0.0630 -2.0695
 3605TIP3   OH210778   0.131   5.860   2.035 -0.0569  0.6421  0.2073
 3605TIP3    H110779   0.093   5.863   1.947  1.8439 -0.4215 -0.7325
 3605TIP3    H210780   0.057   5.842   2.093 -0.9054 -2.7226 -1.6415
 3606TIP3   OH210781   1.455   0.502   0.674 -0.0737 -0.3601 -0.7116
 3606TIP3    H110782   1.403   0.582   0.683 -1.1289 -0.9258 -1.4223
 3606TIP3    H210783   1.435   0.471   0.585 -0.9084 -2.2143  0.0759
 3607TIP3   OH210784   6.882   3.749   5.433  0.0333  0.8980 -0.2754
 3607TIP3    H110785   6.957   3.757   5.492  0.1200  1.2049 -0.4233
 3607TIP3    H210786   6.813   3.801   5.474 -0.7184 -0.8823  0.8171
 3608TIP3   OH210787   1.357   5.875   3.112 -0.2276  0.1915 -0.5118
 3608TIP3    H110788   1.394   5.960   3.134 -0.9317  0.2482  0.5124
 3608TIP3    H210789   1.415   5.812   3.155  0.0187  0.1701 -0.8713
 3609TIP3   OH210790   1.215   1.362   0.094 -0.3120 -0.1951 -0.4992
 3609TIP3    H110791   1.173   1.289   0.048 -0.0720  0.2742 -1.4888
 3609TIP3    H210792   1.299   1.373   0.049 -0.0213  0.2010  0.1386
 3610TIP3   OH210793   4.100   0.570   2.770 -0.4686 -0.0973  0.2085
 3610TIP3    H110794   4.191   0.598   2.763 -0.7801  0.8445 -0.2940
 3610TIP3    H210795   4.051   0.638   2.725 -1.5204 -0.0761  1.3442
 3611TIP3   OH210796   3.019   0.600   5.690 -1.0896 -0.6633  0.6526
 3611TIP3    H110797   3.018   0.534   5.759  0.7257 -0.1031  1.2513
 3611TIP3    H210798   3.077   0.668   5.722 -0.2872 -0.3257 -1.3624
 3612TIP3   OH210799   4.466   0.706   5.178  0.1868  0.1099  0.1205
 3612TIP3    H110800   4.440   0.722   5.088 -0.7381  0.0335  0.3682
 3612TIP3    H210801   4.548   0.657   5.171  0.6228  0.9278 -0.6632
 3613TIP3   OH210802   5.551   1.638   0.473  0.0662  0.2716 -0.1252
 3613TIP3    H110803   5.495   1.661   0.546  1.4826  2.9611  0.2616
 3613TIP3    H210804   5.628   1.596   0.513 -0.1608 -0.3391 -0.3180
 3614TIP3   OH210805   1.137   4.809   1.670  0.3682 -0.2006 -0.1574
 3614TIP3    H110806   1.078   4.861   1.616 -0.0412  0.8191  1.2089
 3614TIP3    H210807   1.222   4.853   1.662 -0.5149  2.6010  3.1711
 3615TIP3   OH210808   0.788   5.483   0.758 -0.1990  0.3302  0.7533
 3615TIP3    H110809   0.863   5.535   0.729 -0.7538  0.7542  0.0082
 3615TIP3    H210810   0.805   5.395   0.726 -0.1696  0.5025  0.2766
 3616TIP3   OH210811   4.393   0.038   0.623 -0.2225  0.2568  0.7757
 3616TIP3    H110812   4.465   0.038   0.686  0.3963  0.6974  0.0835
 3616TIP3    H210813   4.370   0.130   0.613  0.1568  0.2619 -0.1595
 3617TIP3   OH210814   2.969   1.006   5.201  0.1682 -0.2332 -0.5589
 3617TIP3    H110815   2.982   0.955   5.121  1.3615  0.4117 -0.7909
 3617TIP3    H210816   2.884   1.048   5.189  0.8829  0.8777 -2.0894
 3618TIP3   OH210817   4.313   0.319   0.272 -0.3523  0.2681 -0.2600
 3618TIP3    H110818   4.223   0.346   0.288 -0.3728  0.1421 -0.1610
 3618TIP3    H210819   4.313   0.224   0.289 -0.5004  0.0248 -1.5416
 3619TIP3   OH210820   6.780   6.397   3.683  0.2186  0.0472 -0.4315
 3619TIP3    H110821   6.785   6.463   3.752 -1.4935 -0.5578  0.3362
 3619TIP3    H210822   6.856   6.414   3.628  0.9636  1.3222  0.9138
 3620TIP3   OH210823   2.768   0.276   4.941 -0.5548 -0.1302  0.4558
 3620TIP3    H110824   2.741   0.228   4.863 -1.0419  0.4872  0.2259
 3620TIP3    H210825   2.698   0.341   4.954 -0.6677 -0.4475  1.6110
 3621TIP3   OH210826   6.371   0.191   4.579 -0.8109  0.4220 -0.3371
 3621TIP3    H110827   6.314   0.253   4.625 -2.3870 -0.3135 -1.2055
 3621TIP3    H210828   6.351   0.106   4.617  0.7252  0.3086  0.2672
 3622TIP3   OH210829   6.321   1.488   2.626 -0.2716  0.1801 -0.4503
 3622TIP3    H110830   6.251   1.475   2.691 -0.9981  0.7762 -1.0930
 3622TIP3    H210831   6.278   1.478   2.542  0.4525  0.4230 -0.8587
 3623TIP3   OH210832   2.368   1.860   1.076 -0.0999  0.2363  0.3797
 3623TIP3    H110833   2.325   1.863   0.991  1.1825 -0.0155 -0.2900
 3623TIP3    H210834   2.374   1.766   1.096 -0.7142  0.3034  0.9305
 3624TIP3   OH210835   2.584   0.603   1.417  0.2396  0.0311 -0.0161
 3624TIP3    H110836   2.542   0.550   1.350  1.0185 -1.0379  0.3261
 3624TIP3    H210837   2.546   0.573   1.500  0.8542 -0.1624  0.2010
 3625TIP3   OH210838   2.098   2.167   1.215 -0.4079 -0.2798  0.1019
 3625TIP3    H110839   2.163   2.236   1.230 -1.5870  0.8175  0.3369
 3625TIP3    H210840   2.143   2.086   1.239  1.3192  0.2756 -1.0955
 3626TIP3   OH210841   1.137   4.601   2.756 -0.0108  0.6512  0.1978
 3626TIP3    H110842   1.169   4.622   2.844  1.5500 -2.5200  0.5613
 3626TIP3    H210843   1.215   4.568   2.710 -1.5575 -1.8073 -0.8868
 3627TIP3   OH210844   2.107   5.999   1.281 -0.4981 -0.2343  0.4810
 3627TIP3    H110845   2.111   6.094   1.279  0.2115 -0.2211  1.8846
 3627TIP3    H210846   2.023   5.978   1.240 -1.1682  1.0452  1.1404
 3628TIP3   OH210847   2.722   2.911   0.042 -0.1867  0.0128  0.1494
 3628TIP3    H110848   2.675   2.973   0.098  0.8206  1.3467 -0.4263
 3628TIP3    H210849   2.815   2.930   0.059  0.1353 -0.8637 -0.5639
 3629TIP3   OH210850   1.956   2.579   1.359  0.5398  0.3529 -0.0372
 3629TIP3    H110851   1.875   2.539   1.329  0.6809 -1.0864  1.3329
 3629TIP3    H210852   2.024   2.540   1.304  0.4306  0.6474 -0.3849
 3630TIP3   OH210853   6.111   2.113   0.136 -0.0242 -0.3792  0.0506
 3630TIP3    H110854   6.046   2.145   0.198  1.5065  0.8657  1.0815
 3630TIP3    H210855   6.170   2.060   0.189  1.0024  0.2644 -0.4257
 3631TIP3   OH210856   5.544   6.322   1.064 -0.4069 -0.4362 -0.4105
 3631TIP3    H110857   5.485   6.397   1.063 -0.8165 -0.7519 -0.8679
 3631TIP3    H210858   5.630   6.359   1.042 -0.5737 -0.0811 -0.4758
 3632TIP3   OH210859   4.879   0.430   1.929 -0.1714 -0.4763 -0.3824
 3632TIP3    H110860   4.883   0.490   2.003 -1.2866 -2.2091  1.1824
 3632TIP3    H210861   4.961   0.381   1.933 -0.5964 -1.1551  0.2694
 3633TIP3   OH210862   2.583   2.016   0.702 -0.6039 -0.2920 -0.4033
 3633TIP3    H110863   2.611   1.947   0.762 -3.1494 -0.0694  1.2091
 3633TIP3    H210864   2.632   2.093   0.731 -0.7441 -0.5121  0.4416
 3634TIP3   OH210865   5.147   2.928   0.317  0.3243 -0.2224 -0.8229
 3634TIP3    H110866   5.105   2.989   0.379 -0.0914 -1.5461  0.2524
 3634TIP3    H210867   5.076   2.900   0.259  0.5600  0.4533 -1.4524
 3635TIP3   OH210868   2.567   0.626   1.010 -0.2811 -0.8151  0.1885
 3635TIP3    H110869   2.548   0.550   0.954  1.7274 -1.5318  0.3758
 3635TIP3    H210870   2.658   0.613   1.036 -0.6496  0.3992  2.2585
 3636TIP3   OH210871   0.355   5.036   5.314 -0.5000 -0.0897  0.2591
 3636TIP3    H110872   0.313   5.088   5.245  0.7916 -0.6064 -0.9713
 3636TIP3    H210873   0.406   5.099   5.364 -2.1432  0.4362  1.3511
 3637TIP3   OH210874   3.851   1.087   1.521  0.4979  0.2759 -0.0121
 3637TIP3    H110875   3.766   1.042   1.520  0.1286  0.9691 -0.1863
 3637TIP3    H210876   3.875   1.094   1.429  0.5513  0.4312  0.0131
 3638TIP3   OH210877   3.473   5.178   4.585 -0.2056  0.0277 -0.0753
 3638TIP3    H110878   3.472   5.262   4.632  3.1249  2.1539 -3.2804
 3638TIP3    H210879   3.531   5.122   4.636 -1.1417  0.1717  1.2112
 3639TIP3   OH210880   4.061   0.525   0.949  0.4778  0.0276  0.6716
 3639TIP3    H110881   4.064   0.502   1.042  0.7414 -2.3458  0.1397
 3639TIP3    H210882   4.153   0.532   0.924  0.4061  0.7225  0.5918
 3640TIP3   OH210883   5.887   2.903   4.449  0.4131  0.0313 -0.0274
 3640TIP3    H110884   5.918   2.842   4.517  0.8915  0.9667  0.6248
 3640TIP3    H210885   5.792   2.899   4.456  0.4467  0.8869  1.4574
 3641TIP3   OH210886   4.136   2.861   4.699 -0.4628 -0.7757  0.2612
 3641TIP3    H110887   4.152   2.772   4.730 -1.9233 -1.2990 -0.3786
 3641TIP3    H210888   4.048   2.883   4.731 -0.2371  0.3317  0.1778
 3642TIP3   OH210889   0.934   4.007   1.883 -0.0798  0.5203 -0.3800
 3642TIP3    H110890   0.914   4.100   1.893  0.8332  0.7190 -0.3656
 3642TIP3    H210891   0.950   3.995   1.789  0.3525  0.4908 -0.3039
 3643TIP3   OH210892   3.254   3.153   2.810 -0.2819  0.3217 -0.0039
 3643TIP3    H110893   3.339   3.109   2.817 -0.4473  0.0895  0.6807
 3643TIP3    H210894   3.254   3.192   2.723 -0.4137 -1.6477 -0.9573
 3644TIP3   OH210895   1.599   2.598   0.736 -0.0570 -0.5182 -0.0763
 3644TIP3    H110896   1.671   2.547   0.774 -0.0141 -0.3169  0.1138
 3644TIP3    H210897   1.587   2.671   0.797 -2.0734 -1.8861  1.2819
 3645TIP3   OH210898   1.649   3.249   3.863  0.0254  0.4015 -0.1422
 3645TIP3    H110899   1.663   3.294   3.780 -1.6041  2.2968  0.5418
 3645TIP3    H210900   1.555   3.258   3.880 -0.1358 -2.0751  0.7720
 3646TIP3   OH210901   5.636   6.374   2.749 -0.0501  0.0234 -0.0823
 3646TIP3    H110902   5.574   6.355   2.820 -0.0457  1.0858  0.2339
 3646TIP3    H210903   5.586   6.428   2.688 -0.1524 -1.1770 -1.0751
 3647TIP3   OH210904   6.131   4.215   5.437 -0.0792 -0.3883 -0.2552
 3647TIP3    H110905   6.042   4.192   5.410  0.5645 -2.0533 -1.0877
 3647TIP3    H210906   6.143   4.171   5.521 -0.7604  1.6532  0.9724
 3648TIP3   OH210907   5.998   3.127   2.637 -0.7217  0.9416  0.5308
 3648TIP3    H110908   5.906   3.103   2.621 -0.1678 -0.7586 -0.3549
 3648TIP3    H210909   6.047   3.047   2.620  0.9997  1.9540  0.4907
 3649TIP3   OH210910   6.188   2.204   4.491 -0.1154  0.2592 -0.5464
 3649TIP3    H110911   6.275   2.167   4.476 -0.4861 -1.1436  0.5271
 3649TIP3    H210912   6.135   2.168   4.420  0.4177  2.1862 -2.0039
 3650TIP3   OH210913   4.578   0.563   1.568  0.4699  0.0890  0.0368
 3650TIP3    H110914   4.496   0.517   1.551  1.6100 -1.7540 -0.8395
 3650TIP3    H210915   4.552   0.644   1.613 -1.8954  0.1374 -1.2536
 3651TIP3   OH210916   5.510   0.555   2.459 -0.4956 -0.1850  0.7917
 3651TIP3    H110917   5.599   0.524   2.472 -0.1584  0.2613 -0.3455
 3651TIP3    H210918   5.477   0.571   2.548  1.5345  2.3325  1.2096
 3652TIP3   OH210919   6.567   5.816   1.969  0.4938 -0.6595 -0.5084
 3652TIP3    H110920   6.536   5.851   1.885 -1.9959 -1.2510  0.0821
 3652TIP3    H210921   6.518   5.735   1.981 -0.8368  0.4551  2.4482
 3653TIP3   OH210922   4.046   5.758   3.735  0.1690 -0.5916  0.0776
 3653TIP3    H110923   4.060   5.848   3.763 -1.2986 -0.3630  0.1346
 3653TIP3    H210924   4.133   5.718   3.738  0.8238  0.7978  0.1052
 3654TIP3   OH210925   0.993   3.233   5.670 -0.0328  0.4367 -0.2953
 3654TIP3    H110926   1.017   3.237   5.763  0.6624 -0.1727 -0.4349
 3654TIP3    H210927   1.012   3.320   5.636 -0.0907  0.6001  0.0925
 3655TIP3   OH210928   6.332   2.274   4.068  0.0260  0.4312  0.0882
 3655TIP3    H110929   6.303   2.322   4.146 -1.5430 -2.0440  1.1494
 3655TIP3    H210930   6.251   2.246   4.026  0.7776 -2.7674  0.5351
 3656TIP3   OH210931   4.386   6.456   2.724 -0.1169  0.1755  0.1579
 3656TIP3    H110932   4.405   6.472   2.817  0.4537  1.2546 -0.1245
 3656TIP3    H210933   4.316   6.518   2.703 -1.9508 -1.7278  0.4412
 3657TIP3   OH210934   6.981   0.640   1.236  0.0248 -0.1560 -0.3390
 3657TIP3    H110935   7.009   0.548   1.236  0.5796 -0.0124  0.9244
 3657TIP3    H210936   6.935   0.650   1.320 -0.6462  0.5470 -0.7828
 3658TIP3   OH210937   5.262   1.486   5.533 -0.5275 -0.0542  0.1581
 3658TIP3    H110938   5.175   1.458   5.505 -1.2302 -0.4430  2.4456
 3658TIP3    H210939   5.321   1.419   5.497 -1.0735  0.4396 -1.7679
 3659TIP3   OH210940   3.405   4.528   4.659 -0.2222  0.5899 -0.2038
 3659TIP3    H110941   3.490   4.523   4.703 -0.3898  0.2062  0.0823
 3659TIP3    H210942   3.421   4.497   4.570 -0.4078 -1.2086  0.3494
 3660TIP3   OH210943   2.790   3.174   5.715 -0.1394 -0.0036 -0.5837
 3660TIP3    H110944   2.776   3.202   5.805 -0.2109  2.8262 -1.3734
 3660TIP3    H210945   2.702   3.171   5.677 -0.1548 -1.6824 -0.4497
 3661TIP3   OH210946   4.985   1.735   3.499 -0.0025  0.2017 -0.2315
 3661TIP3    H110947   4.953   1.797   3.432  0.4116 -0.0968 -0.7146
 3661TIP3    H210948   5.077   1.721   3.477  0.6404  1.4811  1.4832
 3662TIP3   OH210949   4.450   6.354   4.971 -0.1032 -0.0389  0.2126
 3662TIP3    H110950   4.452   6.265   4.937  3.2845 -0.3445  0.8743
 3662TIP3    H210951   4.398   6.349   5.051  2.1499 -2.1040  1.6794
 3663TIP3   OH210952   1.411   2.299   3.053 -0.1807 -0.2629 -0.0427
 3663TIP3    H110953   1.430   2.220   3.104 -0.3613  0.4019  1.1029
 3663TIP3    H210954   1.435   2.371   3.111 -1.0976  0.5359 -0.6143
 3664TIP3   OH210955   1.012   2.475   0.691  0.3829  0.4333 -0.2295
 3664TIP3    H110956   0.954   2.543   0.657 -0.1203  0.0637 -0.1238
 3664TIP3    H210957   1.080   2.465   0.624  0.1917  0.7011 -0.4660
 3665TIP3   OH210958   3.965   5.894   0.138  0.2633  0.7820 -0.4409
 3665TIP3    H110959   4.060   5.889   0.153  0.2541 -0.1547 -0.6456
 3665TIP3    H210960   3.936   5.803   0.134 -0.2779  0.9796 -2.6438
 3666TIP3   OH210961   0.757   0.259   3.734 -0.3687  0.2764  0.1579
 3666TIP3    H110962   0.850   0.239   3.750 -0.0200  1.3909 -0.3486
 3666TIP3    H210963   0.718   0.262   3.821 -0.2303 -1.4453  0.3287
 3667TIP3   OH210964   4.528   0.422   5.341 -0.5615  0.5179 -0.4492
 3667TIP3    H110965   4.586   0.360   5.386 -0.5211 -0.3510 -1.6520
 3667TIP3    H210966   4.558   0.508   5.370  1.8207  0.1550 -1.5415
 3668TIP3   OH210967   5.250   2.742   4.551  0.2030 -0.3525  0.7597
 3668TIP3    H110968   5.204   2.673   4.504  0.5285 -0.1921  0.1941
 3668TIP3    H210969   5.306   2.695   4.614 -0.8678 -0.5402  1.6069
 3669TIP3   OH210970   5.339   3.574   2.239  0.7911 -0.4043 -0.0954
 3669TIP3    H110971   5.355   3.486   2.206 -2.7385 -1.6257  0.9435
 3669TIP3    H210972   5.356   3.568   2.333  0.6095  0.0193 -0.0311
 3670TIP3   OH210973   3.415   4.930   4.809  0.3256 -0.4055 -0.5623
 3670TIP3    H110974   3.345   4.993   4.827 -0.6385 -1.6123  0.0335
 3670TIP3    H210975   3.371   4.845   4.810  2.1410 -1.4161  1.9886
 3671TIP3   OH210976   3.932   3.050   0.129  0.3582  0.0891  0.3886
 3671TIP3    H110977   3.950   2.965   0.168 -3.3844 -1.0486  0.0166
 3671TIP3    H210978   3.982   3.050   0.048 -1.2219 -2.8307 -0.7421
 3672TIP3   OH210979   4.594   6.136   4.989  0.1055 -0.3414  0.3257
 3672TIP3    H110980   4.664   6.192   5.024 -0.0539 -0.4203  0.7771
 3672TIP3    H210981   4.570   6.080   5.062  0.6031 -1.3504 -0.2610
 3673TIP3   OH210982   2.290   2.803   3.763 -0.0176  0.4370 -0.4999
 3673TIP3    H110983   2.377   2.839   3.782 -0.2719  1.4358 -1.1586
 3673TIP3    H210984   2.307   2.730   3.703  0.2787  1.5053 -1.7596
 3674TIP3   OH210985   1.780   1.511   1.237 -0.0976  1.2283 -0.3464
 3674TIP3    H110986   1.819   1.437   1.192 -0.1396  0.7159  0.4335
 3674TIP3    H210987   1.752   1.570   1.167  1.9296  1.5628 -0.9312
 3675TIP3   OH210988   2.485   2.098   3.632  0.0648  0.5276  0.2069
 3675TIP3    H110989   2.545   2.143   3.573  1.7393 -0.7068  0.8522
 3675TIP3    H210990   2.512   2.006   3.627 -0.0572  0.3070  2.4586
 3676TIP3   OH210991   5.035   6.120   5.775  0.2682 -0.0577  0.2258
 3676TIP3    H110992   5.070   6.183   5.838  1.3976 -0.4026 -0.0452
 3676TIP3    H210993   5.092   6.127   5.699 -0.5287 -0.3129 -0.4118
 3677TIP3   OH210994   2.194   6.768   1.116 -0.6629  0.8333  0.2820
 3677TIP3    H110995   2.180   6.772   1.211 -0.9284  1.9579  0.2179
 3677TIP3    H210996   2.260   6.835   1.098 -0.4429  0.4696 -0.2987
 3678TIP3   OH210997   3.376   6.072   2.555  0.4127 -0.2063  0.6374
 3678TIP3    H110998   3.352   6.161   2.528  1.8851 -0.3997 -1.6055
 3678TIP3    H210999   3.397   6.080   2.648 -3.6976  0.8292  1.6610
 3679TIP3   OH211000   2.892   4.649   3.011 -0.1705 -0.1888 -0.4755
 3679TIP3    H111001   2.866   4.583   3.075  1.3893 -0.9374 -0.5883
 3679TIP3    H211002   2.905   4.728   3.063 -0.1413 -0.4635 -0.0596
 3680TIP3   OH211003   4.858   1.121   0.774  0.4526 -0.5206 -0.3833
 3680TIP3    H111004   4.837   1.149   0.863  2.1390  0.5307 -0.2678
 3680TIP3    H211005   4.946   1.083   0.780  1.5147  1.5049 -1.9123
 3681TIP3   OH211006   5.028   3.946   0.283 -0.2488 -0.2801  0.1313
 3681TIP3    H111007   4.948   3.922   0.238  1.0429 -2.7904 -1.0318
 3681TIP3    H211008   5.072   4.007   0.224 -0.5350 -0.2275 -0.0256
 3682TIP3   OH211009   2.803   1.737   0.134  0.9040  0.1711 -0.3682
 3682TIP3    H111010   2.733   1.734   0.069  1.3173  1.0359 -0.8753
 3682TIP3    H211011   2.818   1.645   0.158  0.0920 -0.0739 -0.7747
 3683TIP3   OH211012   6.791   6.223   3.443  0.3434  0.2467 -0.3065
 3683TIP3    H111013   6.778   6.284   3.370  0.9248 -0.1756 -0.7775
 3683TIP3    H211014   6.782   6.277   3.521 -1.0333  0.5750 -0.6549
 3684TIP3   OH211015   2.903   3.518   0.584 -0.1884 -0.2321 -0.0610
 3684TIP3    H111016   2.848   3.520   0.505  0.5329  2.0933 -0.5849
 3684TIP3    H211017   2.972   3.582   0.567  1.3159 -1.3267  1.5673
 3685TIP3   OH211018   0.120   2.109   2.127  0.2427  0.4063 -0.4410
 3685TIP3    H111019   0.147   2.064   2.207 -1.7392 -0.7890 -0.3894
 3685TIP3    H211020   0.072   2.185   2.158  1.6717  1.4047 -0.5446
 3686TIP3   OH211021   4.216   2.565   1.143 -0.2080  0.2513 -0.2466
 3686TIP3    H111022   4.126   2.583   1.115 -1.2279 -1.5471  1.6035
 3686TIP3    H211023   4.213   2.569   1.238  1.6266 -0.1223 -0.1349
 3687TIP3   OH211024   4.954   3.201   0.726 -0.5638  0.1221  0.1419
 3687TIP3    H111025   4.873   3.151   0.716 -0.8059  0.0988  1.8981
 3687TIP3    H211026   4.934   3.286   0.688 -1.1503 -0.1458 -0.1693
 3688TIP3   OH211027   5.631   4.041   1.898 -0.1736 -0.4243  0.5875
 3688TIP3    H111028   5.536   4.026   1.895 -0.9317  3.2316  0.9779
 3688TIP3    H211029   5.641   4.131   1.868  3.5884 -1.6388 -2.4866
 3689TIP3   OH211030   1.500   0.265   1.230 -0.1590 -0.1879  0.3658
 3689TIP3    H111031   1.484   0.174   1.256  0.8503 -0.9908 -1.5780
 3689TIP3    H211032   1.421   0.290   1.182 -0.1459 -0.2766  0.2988
 3690TIP3   OH211033   2.617   4.945   5.003  0.2413  0.0801  0.2891
 3690TIP3    H111034   2.540   4.944   4.946  0.1002 -0.1140  0.4813
 3690TIP3    H211035   2.683   4.993   4.953 -0.1666  0.7003  0.3351
 3691TIP3   OH211036   4.926   5.624   2.136 -0.0667  0.4402  0.1033
 3691TIP3    H111037   4.881   5.543   2.157  0.0302  0.7069  1.4222
 3691TIP3    H211038   4.931   5.671   2.220 -0.1381  1.8098 -0.6320
 3692TIP3   OH211039   3.779   0.219   4.206 -0.8845  0.6615 -0.0317
 3692TIP3    H111040   3.749   0.275   4.135 -0.3421  1.1312  0.1045
 3692TIP3    H211041   3.699   0.197   4.255 -1.1596  0.9307 -0.3566
 3693TIP3   OH211042   6.128   3.006   5.369  0.2070 -0.4443 -0.1659
 3693TIP3    H111043   6.152   2.931   5.314  1.4275 -0.2031  0.0025
 3693TIP3    H211044   6.212   3.048   5.390 -0.2920 -0.0900  1.2449
 3694TIP3   OH211045   6.716   4.766   3.189  0.0777  0.0943 -0.1116
 3694TIP3    H111046   6.651   4.763   3.259 -0.2024  2.0810 -0.2273
 3694TIP3    H211047   6.792   4.721   3.225 -0.0928  0.9705  1.4219
 3695TIP3   OH211048   7.095   1.271   4.224 -0.3490 -0.2765  0.4531
 3695TIP3    H111049   7.168   1.235   4.274  1.1092  1.0333 -0.6246
 3695TIP3    H211050   7.022   1.273   4.286  0.5323 -1.5394  1.5935
 3696TIP3   OH211051   4.880   5.582   5.649 -0.1747 -0.4122 -0.1848
 3696TIP3    H111052   4.974   5.602   5.654  0.0710 -1.7858  1.3020
 3696TIP3    H211053   4.843   5.655   5.598  1.6965  0.1049 -0.8878
 3697TIP3   OH211054   7.101   4.799   2.390  0.2038  0.4918 -0.2660
 3697TIP3    H111055   7.177   4.746   2.368  1.3838  1.1425  1.9782
 3697TIP3    H211056   7.085   4.781   2.483 -2.7634 -0.0537 -0.7689
 3698TIP3   OH211057   3.562   5.838   5.234 -0.4494  0.4833  0.0555
 3698TIP3    H111058   3.649   5.878   5.220  0.9435 -2.1743  0.5485
 3698TIP3    H211059   3.523   5.890   5.304  0.5252  1.9962 -0.4505
 3699TIP3   OH211060   0.968   2.191   5.004 -0.3201 -0.2616  0.5276
 3699TIP3    H111061   0.961   2.195   4.909  0.2779 -1.5223  0.4116
 3699TIP3    H211062   1.027   2.263   5.027  0.6558 -0.8102 -0.1979
 3700TIP3   OH211063   1.546   5.398   4.175  0.2511 -0.1554  0.1839
 3700TIP3    H111064   1.566   5.314   4.133  2.5598  1.2135 -1.7675
 3700TIP3    H211065   1.621   5.414   4.233  0.6749  1.2365 -0.6967
 3701TIP3   OH211066   1.618   2.572   2.616 -0.3933 -0.2341 -0.1802
 3701TIP3    H111067   1.602   2.525   2.698  0.7443 -0.3900 -0.0392
 3701TIP3    H211068   1.555   2.534   2.555 -1.0972 -0.2802  0.5532
 3702TIP3   OH211069   6.271   0.363   3.250  0.7011 -0.0094  0.5849
 3702TIP3    H111070   6.282   0.421   3.325  2.8868 -1.5552  1.5560
 3702TIP3    H211071   6.349   0.308   3.250 -1.0603 -2.7225 -0.4986
 3703TIP3   OH211072   3.666   3.389   2.214  0.1575 -0.0616  0.2481
 3703TIP3    H111073   3.727   3.462   2.210 -0.2975  0.4063  1.5258
 3703TIP3    H211074   3.716   3.315   2.177  1.1738  0.5081  0.4317
 3704TIP3   OH211075   5.418   2.214   5.406  0.0185 -0.0538 -0.2276
 3704TIP3    H111076   5.469   2.185   5.330  0.4021 -0.1637  0.0669
 3704TIP3    H211077   5.455   2.300   5.428 -0.5316  0.2712 -0.5659
 3705TIP3   OH211078   3.886   1.844   2.922  0.0251  0.8902  0.0462
 3705TIP3    H111079   3.937   1.853   3.002  3.2232 -0.7493 -1.5825
 3705TIP3    H211080   3.929   1.773   2.874 -1.9039  1.5582 -2.9971
 3706TIP3   OH211081   2.634   2.762   5.513  0.2693  0.4279  0.4243
 3706TIP3    H111082   2.696   2.730   5.447  1.8345 -1.7143  2.7210
 3706TIP3    H211083   2.634   2.857   5.501  2.2972  0.3256 -1.1314
 3707TIP3   OH211084   2.556   4.836   3.407  0.2821  0.2039 -0.0371
 3707TIP3    H111085   2.510   4.825   3.490 -0.2091 -1.1894 -0.4768
 3707TIP3    H211086   2.645   4.862   3.433  0.0440  0.1127  0.9112
 3708TIP3   OH211087   6.508   3.990   1.384 -0.1202 -0.1375  0.0048
 3708TIP3    H111088   6.508   3.909   1.435  1.4555  0.2815  0.7027
 3708TIP3    H211089   6.599   4.005   1.361 -0.1772  2.1541  1.0341
 3709TIP3   OH211090   6.575   5.655   0.540  0.3791 -0.4628 -0.1963
 3709TIP3    H111091   6.662   5.690   0.561  0.4185 -0.2961 -0.6311
 3709TIP3    H211092   6.593   5.575   0.490  0.2861 -0.7931  0.2957
 3710TIP3   OH211093   6.938   2.140   1.975 -0.4015  0.1966  0.2776
 3710TIP3    H111094   6.935   2.154   1.880 -1.2162  1.5790  0.4811
 3710TIP3    H211095   6.986   2.058   1.986 -0.2362  0.0554 -1.3251
 3711TIP3   OH211096   1.948   3.276   5.132  0.1156  0.1459 -0.2015
 3711TIP3    H111097   1.913   3.341   5.194  0.4280  1.2128 -1.1149
 3711TIP3    H211098   1.872   3.246   5.083  0.1047  0.5660 -0.4477
 3712TIP3   OH211099   1.191   2.987   2.776  0.3981 -0.4709  0.4411
 3712TIP3    H111100   1.118   2.955   2.828  0.6379 -1.3042  0.2742
 3712TIP3    H211101   1.269   2.967   2.828  0.5815 -0.5355  0.1419
 3713TIP3   OH211102   0.057   3.757   5.067  0.2808  0.0691 -0.7069
 3713TIP3    H111103  -0.025   3.725   5.105  0.6541 -1.3179 -1.0179
 3713TIP3    H211104   0.114   3.773   5.142 -1.0156  3.4331 -0.2780
 3714TIP3   OH211105   0.644   0.958   3.730  0.1254 -0.8001  0.0464
 3714TIP3    H111106   0.727   1.000   3.706 -0.2770 -0.7634 -1.3664
 3714TIP3    H211107   0.595   1.027   3.774  0.3115 -0.4096 -0.3420
 3715TIP3   OH211108   7.038   4.026   1.667  0.3439  0.0326  0.7132
 3715TIP3    H111109   7.064   4.088   1.599 -0.5375 -1.6050 -1.2595
 3715TIP3    H211110   6.966   4.069   1.713  1.1630  1.3053  0.8498
 3716TIP3   OH211111   1.983   0.460   4.245  0.6144 -0.1826 -0.2418
 3716TIP3    H111112   2.018   0.467   4.334  0.9717  0.4782 -0.4299
 3716TIP3    H211113   1.888   0.462   4.256  0.6180 -1.3760  0.2195
 3717TIP3   OH211114   0.858   2.512   3.756  0.2774 -0.2509  0.2596
 3717TIP3    H111115   0.784   2.494   3.814 -0.7230  0.3010 -0.8115
 3717TIP3    H211116   0.887   2.426   3.726  0.9232 -0.5604  1.6764
 3718TIP3   OH211117   2.047   4.359   2.760  0.4295 -0.1492 -0.4203
 3718TIP3    H111118   1.977   4.344   2.696  0.2585 -0.9743 -0.0497
 3718TIP3    H211119   2.014   4.320   2.841  1.1370 -0.1480 -0.1288
 3719TIP3   OH211120   4.828   2.247   1.741  0.0831  0.0946  0.3279
 3719TIP3    H111121   4.809   2.339   1.720  1.2040 -0.0882 -1.6825
 3719TIP3    H211122   4.768   2.197   1.687 -0.2157 -0.3732  1.0862
 3720TIP3   OH211123   6.259   3.937   0.219  0.2935  0.2921  0.3264
 3720TIP3    H111124   6.351   3.937   0.244  0.0646  0.3582  1.1878
 3720TIP3    H211125   6.211   3.937   0.302 -0.4835  0.3108 -0.1108
 3721TIP3   OH211126   6.556   2.498   1.940 -0.1944 -0.3848 -0.3321
 3721TIP3    H111127   6.527   2.578   1.896  0.7865  0.5938  0.7340
 3721TIP3    H211128   6.555   2.520   2.033  0.6359 -1.4362 -0.0539
 3722TIP3   OH211129   7.157   4.124   4.862  0.2331  0.0259 -0.0293
 3722TIP3    H111130   7.196   4.085   4.784  1.8979  2.2457 -0.4142
 3722TIP3    H211131   7.067   4.143   4.837  0.8476  1.0487 -1.6127
 3723TIP3   OH211132   4.448   6.483   2.382  0.1157  0.6011 -0.6906
 3723TIP3    H111133   4.434   6.396   2.420  0.7978  0.7781 -0.0066
 3723TIP3    H211134   4.365   6.504   2.338 -0.6886  0.3547  0.6556
 3724TIP3   OH211135   5.296   2.217   3.577  0.3829  0.3842  0.2120
 3724TIP3    H111136   5.322   2.164   3.653  0.7240 -0.3042 -0.3732
 3724TIP3    H211137   5.362   2.286   3.573  0.2560  0.5330  0.6557
 3725TIP3   OH211138   2.479   6.788   2.441  0.1644  0.3627 -0.4275
 3725TIP3    H111139   2.413   6.844   2.400 -0.2933  0.2483  0.1263
 3725TIP3    H211140   2.440   6.765   2.526  0.1739 -1.1267 -0.8146
 3726TIP3   OH211141   5.006   2.592   2.897 -0.1598  0.0137 -0.4897
 3726TIP3    H111142   4.953   2.512   2.890  0.4328 -0.4084 -0.1906
 3726TIP3    H211143   4.994   2.621   2.987 -0.8859  0.6293 -0.7740
 3727TIP3   OH211144   6.115   1.640   4.815 -0.0422 -0.2111  0.8543
 3727TIP3    H111145   6.183   1.582   4.850 -0.6250 -1.1184  0.5427
 3727TIP3    H211146   6.128   1.637   4.720 -0.5810 -0.4894  0.7846
 3728TIP3   OH211147   6.658   0.406   0.093  0.3131 -0.1110  0.4825
 3728TIP3    H111148   6.608   0.325   0.081 -1.8321  1.3690 -1.5219
 3728TIP3    H211149   6.675   0.437   0.004 -1.1691  2.8551  1.0923
 3729TIP3   OH211150   0.760   3.153   1.759  0.0833  0.4408 -0.1003
 3729TIP3    H111151   0.754   3.249   1.762  0.8863  0.4993 -0.0056
 3729TIP3    H211152   0.814   3.130   1.835  0.2505 -0.0485 -0.3627
 3730TIP3   OH211153   6.458   4.600   5.357  0.1796  0.1935  0.6209
 3730TIP3    H111154   6.403   4.661   5.308  0.3767 -0.7648 -0.8584
 3730TIP3    H211155   6.396   4.549   5.409 -0.4388 -1.0916 -1.2651
 3731TIP3   OH211156   6.735   5.332   2.145  0.0294 -0.3732  0.3821
 3731TIP3    H111157   6.798   5.402   2.165  0.6210 -0.5730 -0.7134
 3731TIP3    H211158   6.720   5.288   2.229 -0.3349  1.0388  1.0932
 3732TIP3   OH211159   1.805   0.549   2.806  0.7454 -0.2519 -0.7851
 3732TIP3    H111160   1.874   0.550   2.739  2.0800  1.2450  0.5280
 3732TIP3    H211161   1.819   0.629   2.856 -0.7236 -0.9171  0.8047
 3733TIP3   OH211162   0.697   2.271   5.122 -0.3197  0.4502 -0.4383
 3733TIP3    H111163   0.761   2.292   5.190 -0.9126  1.4296 -0.1547
 3733TIP3    H211164   0.663   2.185   5.146 -0.2842  0.6439  0.3203
 3734TIP3   OH211165   2.490   2.237   1.360  0.2710  0.2811  0.5855
 3734TIP3    H111166   2.554   2.305   1.381 -0.1140  1.1797 -0.9881
 3734TIP3    H211167   2.405   2.276   1.384 -0.2685  1.6270 -2.8839
 3735TIP3   OH211168   1.096   6.676   5.170 -0.4112  0.2372 -0.3045
 3735TIP3    H111169   1.114   6.673   5.076  2.4478 -0.3173  0.1543
 3735TIP3    H211170   1.116   6.587   5.201 -0.5465  0.6109  0.9219
 3736TIP3   OH211171   6.664   1.920   2.829 -0.1358 -0.0988 -0.0431
 3736TIP3    H111172   6.578   1.958   2.848 -0.2932 -0.6721  0.3897
 3736TIP3    H211173   6.723   1.996   2.827 -0.4983  0.2096  0.5377
 3737TIP3   OH211174   4.487   4.925   0.176 -0.1441 -0.0043  0.4939
 3737TIP3    H111175   4.480   5.013   0.139 -0.7563  0.4414  1.6022
 3737TIP3    H211176   4.478   4.939   0.271 -1.9541 -1.4418  0.5689
 3738TIP3   OH211177   4.718   5.043   4.633  0.9054  0.1421  0.1412
 3738TIP3    H111178   4.738   4.968   4.690 -0.2105  1.1524  1.9391
 3738TIP3    H211179   4.697   5.114   4.693  1.2318  1.7329 -1.5424
 3739TIP3   OH211180   2.344   6.155   0.214 -0.0495  0.2842 -0.0489
 3739TIP3    H111181   2.325   6.237   0.169 -0.3033  0.6182  0.6566
 3739TIP3    H211182   2.288   6.157   0.292 -0.7052 -0.9478 -0.4600
 3740TIP3   OH211183   1.291   0.537   1.563  0.0482  0.2978  0.3086
 3740TIP3    H111184   1.272   0.505   1.475  0.4654  0.7855  0.0312
 3740TIP3    H211185   1.219   0.505   1.617  0.7470 -1.5670  0.1755
 3741TIP3   OH211186   0.468   3.385   1.895 -0.2944  0.3896 -0.4995
 3741TIP3    H111187   0.386   3.381   1.944 -1.1106 -0.8790 -1.9063
 3741TIP3    H211188   0.535   3.402   1.962 -1.3294 -1.3898  1.0961
 3742TIP3   OH211189   2.768   4.584   1.654  0.0942  0.0995 -0.4346
 3742TIP3    H111190   2.757   4.519   1.724  1.3229  0.3385  0.0056
 3742TIP3    H211191   2.737   4.666   1.693  0.0376  0.0808 -0.4399
 3743TIP3   OH211192   1.120   0.049   0.302  0.2390  0.4129 -0.0431
 3743TIP3    H111193   1.191  -0.014   0.301  0.1915  0.3546  0.2912
 3743TIP3    H211194   1.121   0.088   0.214 -1.0439 -1.5303 -0.9936
 3744TIP3   OH211195   3.721   5.388   2.085 -0.0186  0.5351 -0.3294
 3744TIP3    H111196   3.787   5.432   2.031  0.5622 -0.2561 -0.2792
 3744TIP3    H211197   3.640   5.437   2.068  0.0285  0.0205 -2.3082
 3745TIP3   OH211198   5.538   4.545   2.233  0.3074  0.0481 -1.0411
 3745TIP3    H111199   5.598   4.517   2.164  1.5812 -0.4763  0.2214
 3745TIP3    H211200   5.577   4.511   2.313 -2.4208 -1.5464 -0.2613
 3746TIP3   OH211201   5.930   0.142   4.731  0.6553 -0.1056  0.0496
 3746TIP3    H111202   5.969   0.103   4.653  0.0845  0.6240 -0.6170
 3746TIP3    H211203   6.004   0.180   4.778  0.9245  0.0811 -0.5105
 3747TIP3   OH211204   4.149   0.919   4.720 -0.1663  0.1692 -0.3267
 3747TIP3    H111205   4.161   0.835   4.763  0.4382  0.6666  0.4939
 3747TIP3    H211206   4.060   0.945   4.743 -1.1002 -1.1303 -2.2016
 3748TIP3   OH211207   0.457   3.117   5.820  0.4747 -0.1100  0.2381
 3748TIP3    H111208   0.525   3.126   5.753 -0.1545 -0.4361 -0.4677
 3748TIP3    H211209   0.413   3.035   5.798 -1.5782  1.1655 -0.6809
 3749TIP3   OH211210   3.173   5.744   5.383 -0.2496 -0.3413  0.4213
 3749TIP3    H111211   3.079   5.739   5.370 -0.3279  1.6707 -0.1727
 3749TIP3    H211212   3.184   5.767   5.475 -0.3960  0.2531  0.2955
 3750TIP3   OH211213   1.174   6.025   5.010  0.0073  0.4234 -0.0323
 3750TIP3    H111214   1.201   6.100   5.063  0.2666 -0.6101  1.3270
 3750TIP3    H211215   1.081   6.041   4.993 -0.0441  0.8436  0.5936
 3751TIP3   OH211216   5.300   6.105   4.118 -0.1620 -0.3267 -0.1525
 3751TIP3    H111217   5.225   6.120   4.061 -0.5287 -2.5683 -0.3384
 3751TIP3    H211218   5.262   6.076   4.201  0.4682 -1.9600 -0.4050
 3752TIP3   OH211219   5.225   3.293   1.426 -0.5063 -0.1035 -1.0213
 3752TIP3    H111220   5.245   3.240   1.503 -0.8143  1.4420  0.1476
 3752TIP3    H211221   5.181   3.231   1.366  0.2775 -1.4695 -0.2428
 3753TIP3   OH211222   5.654   4.291   0.152  0.1774 -0.2573 -0.0769
 3753TIP3    H111223   5.702   4.372   0.134  0.8229 -0.3740  1.0077
 3753TIP3    H211224   5.562   4.318   0.154  0.5244  1.2573  3.7517
 3754TIP3   OH211225   0.980   6.127   1.310 -0.3285  0.2759 -0.6015
 3754TIP3    H111226   0.916   6.059   1.288 -0.2850  0.6368 -1.9708
 3754TIP3    H211227   1.038   6.086   1.374 -1.2169 -0.4481 -0.2390
 3755TIP3   OH211228   5.837   5.530   0.094  0.0596 -0.5995 -0.2135
 3755TIP3    H111229   5.856   5.527  -0.000  2.0025  1.3379  0.0175
 3755TIP3    H211230   5.767   5.595   0.102  0.8796  0.3193 -0.2546
 3756TIP3   OH211231   4.725   3.605   2.195  0.4523 -0.1544 -0.5175
 3756TIP3    H111232   4.753   3.687   2.236  1.5149 -0.5196 -0.4746
 3756TIP3    H211233   4.806   3.555   2.182 -0.2905 -1.7965  0.7269
 3757TIP3   OH211234   0.708   6.725   0.550  0.1707 -0.1959  0.0062
 3757TIP3    H111235   0.748   6.679   0.623 -0.1928  0.4223  0.6119
 3757TIP3    H211236   0.614   6.707   0.558 -0.2462  2.1202  1.4032
 3758TIP3   OH211237   3.305   5.761   5.710 -0.9134  0.0776  0.5801
 3758TIP3    H111238   3.262   5.794   5.789 -1.7954  0.0964  0.0942
 3758TIP3    H211239   3.356   5.685   5.741 -0.4287  0.6885  1.3427
 3759TIP3   OH211240   6.527   4.036   0.518  0.3729 -0.7012 -0.4375
 3759TIP3    H111241   6.484   3.989   0.589  1.0478 -0.9976 -0.2280
 3759TIP3    H211242   6.618   4.008   0.521  1.1677  1.7201  0.6639
 3760TIP3   OH211243   2.467   6.656   4.387  0.1666  0.0666 -0.5300
 3760TIP3    H111244   2.423   6.670   4.471  1.2168 -0.0993  0.0606
 3760TIP3    H211245   2.560   6.666   4.406  0.4029  0.3046 -1.7390
 3761TIP3   OH211246   6.620   1.330   1.395 -0.1062  0.0566 -0.0854
 3761TIP3    H111247   6.624   1.316   1.490  1.2085  1.5716  0.1339
 3761TIP3    H211248   6.610   1.424   1.385 -1.4183 -0.1850 -1.4785
 3762TIP3   OH211249   5.723   1.620   2.394 -0.5705  0.2452  0.5340
 3762TIP3    H111250   5.692   1.580   2.312 -1.0024  1.1522  0.2440
 3762TIP3    H211251   5.665   1.584   2.461 -0.9172  0.3332  0.2846
 3763TIP3   OH211252   4.631   2.613   1.442 -0.4100 -0.0862  0.3698
 3763TIP3    H111253   4.693   2.540   1.439 -0.5658 -0.2242  0.5544
 3763TIP3    H211254   4.570   2.591   1.512  0.0263  0.6023  0.9867
 3764TIP3   OH211255   7.020   0.079   1.657 -0.5946 -0.3409 -0.5534
 3764TIP3    H111256   7.014   0.044   1.746 -1.3530  1.0906 -0.0235
 3764TIP3    H211257   6.941   0.046   1.614 -1.1131  0.3584 -0.1662
 3765TIP3   OH211258   1.368   4.077   0.964 -0.5059  0.3263 -0.0505
 3765TIP3    H111259   1.417   4.153   0.996  0.3734 -0.0043 -0.5558
 3765TIP3    H211260   1.420   4.001   0.992 -1.3047 -0.0873  0.3407
 3766TIP3   OH211261   0.724   3.709   2.482  0.5070 -0.3405  0.5159
 3766TIP3    H111262   0.815   3.703   2.510  0.6066  0.6656  0.4342
 3766TIP3    H211263   0.677   3.737   2.561  0.5297  0.7849  0.1484
 3767TIP3   OH211264   2.592   5.930   2.087 -0.1325 -0.3126 -0.0044
 3767TIP3    H111265   2.611   5.995   2.019 -1.8036  0.9182  0.6330
 3767TIP3    H211266   2.552   5.857   2.039  1.0438 -0.5764 -0.6301
 3768TIP3   OH211267   1.213   4.870   5.524 -0.1766 -0.7109  0.6464
 3768TIP3    H111268   1.128   4.851   5.562 -0.2036 -0.8157  0.5333
 3768TIP3    H211269   1.195   4.931   5.452  0.1395  1.7066  2.4894
 3769TIP3   OH211270   2.816   1.896   3.450 -0.0728  0.0030  0.0024
 3769TIP3    H111271   2.841   1.909   3.541 -0.6039 -1.7235  0.4287
 3769TIP3    H211272   2.899   1.880   3.405  0.1160  0.0751  0.3178
 3770TIP3   OH211273   0.554   1.861   3.793  0.0896 -0.2692 -1.0695
 3770TIP3    H111274   0.647   1.871   3.774  0.2692 -1.0332 -0.6420
 3770TIP3    H211275   0.527   1.947   3.826  0.7684 -0.1879 -0.7054
 3771TIP3   OH211276   0.950   4.783   0.027  0.2242 -0.3492 -0.2426
 3771TIP3    H111277   0.936   4.844  -0.046  1.5441  0.6233  0.2862
 3771TIP3    H211278   0.870   4.790   0.079  0.5321  1.3064  0.0551
 3772TIP3   OH211279   3.591   0.118   2.008  0.6649 -0.4569  0.1365
 3772TIP3    H111280   3.532   0.144   1.938  2.3298 -0.2605 -1.2587
 3772TIP3    H211281   3.566   0.028   2.029 -0.8995  0.0300  0.4416
 3773TIP3   OH211282   1.086   4.050   4.077 -0.1805  0.3152  0.1473
 3773TIP3    H111283   1.062   4.133   4.118  0.9815  0.0620  1.4035
 3773TIP3    H211284   1.093   3.988   4.149  2.4423 -0.0269 -0.2766
 3774TIP3   OH211285   2.667   5.124   2.160 -0.2396  0.4710 -0.3554
 3774TIP3    H111286   2.631   5.127   2.248  2.6014  2.0133  0.8731
 3774TIP3    H211287   2.639   5.206   2.120  0.0434  0.6541 -0.1834
 3775TIP3   OH211288   6.372   1.952   2.843 -0.0700  0.0916  0.0413
 3775TIP3    H111289   6.320   1.911   2.912 -1.2272 -0.1631 -0.9521
 3775TIP3    H211290   6.370   2.045   2.864  1.2349 -0.1476  1.4149
 3776TIP3   OH211291   6.068   0.679   5.045  0.2726 -0.4263 -0.3736
 3776TIP3    H111292   5.998   0.626   5.006  2.2498 -2.6117 -1.2583
 3776TIP3    H211293   6.105   0.727   4.971 -1.8995  2.9149  0.5158
 3777TIP3   OH211294   0.141   5.225   3.951  0.4385 -0.4034  0.0093
 3777TIP3    H111295   0.074   5.191   3.891 -1.3558  1.5827  0.7384
 3777TIP3    H211296   0.178   5.300   3.904  1.6925 -1.0466 -0.0774
 3778TIP3   OH211297   6.170   3.441   3.898  0.1263 -0.0148 -0.4285
 3778TIP3    H111298   6.110   3.511   3.925 -0.2301  0.2002 -1.7333
 3778TIP3    H211299   6.235   3.438   3.968 -0.7547  0.5328  0.4351
 3779TIP3   OH211300   3.881   3.188   2.624  0.2350 -0.0345  0.4659
 3779TIP3    H111301   3.881   3.156   2.533 -2.3068 -0.3598  0.5264
 3779TIP3    H211302   3.920   3.276   2.618 -2.2316  1.0563 -1.4282
 3780TIP3   OH211303   0.761   6.689   2.115  0.7751  0.0529 -0.5432
 3780TIP3    H111304   0.679   6.705   2.163  0.9155  3.5177 -1.2451
 3780TIP3    H211305   0.805   6.620   2.165 -1.4768 -0.2338  1.1905
 3781TIP3   OH211306   3.838   1.696   2.633  0.0437  0.2820  0.6922
 3781TIP3    H111307   3.916   1.684   2.687  0.7917 -1.5261 -0.6927
 3781TIP3    H211308   3.872   1.724   2.548 -0.8072 -0.4544  0.0965
 3782TIP3   OH211309   5.464   0.211   5.239 -0.1191  0.1913 -0.2060
 3782TIP3    H111310   5.375   0.220   5.273 -0.3661  0.9395 -1.0064
 3782TIP3    H211311   5.459   0.141   5.175  0.4008 -1.3951  1.3861
 3783TIP3   OH211312   4.876   3.194   1.071  0.2275  0.6216  0.0440
 3783TIP3    H111313   4.940   3.260   1.044 -1.8197  2.0682 -1.5488
 3783TIP3    H211314   4.858   3.215   1.163  1.6086  0.5163  0.3610
 3784TIP3   OH211315   1.707   6.737   5.178 -0.1228 -0.4623 -0.3141
 3784TIP3    H111316   1.682   6.733   5.085  0.6437  0.8876 -0.5922
 3784TIP3    H211317   1.682   6.824   5.206  1.2343 -0.2369  0.2734
 3785TIP3   OH211318   3.210   2.060   3.912 -0.1298  0.3094  0.1666
 3785TIP3    H111319   3.152   2.135   3.904 -0.3884  0.0236 -0.7276
 3785TIP3    H211320   3.273   2.070   3.841 -2.9171 -2.6772 -3.1010
 3786TIP3   OH211321   1.673   1.983   3.351  0.2287  0.1168 -0.3453
 3786TIP3    H111322   1.680   1.975   3.446  0.5352  0.4056 -0.3388
 3786TIP3    H211323   1.764   1.982   3.320  0.2046  1.2826 -0.5170
 3787TIP3   OH211324   5.572   6.041   1.366  0.3062  0.6981  0.3900
 3787TIP3    H111325   5.597   6.059   1.276 -0.6793  2.8687  0.4919
 3787TIP3    H211326   5.481   6.013   1.360  0.2492  0.8122  0.7077
 3788TIP3   OH211327   4.438   2.465   1.562  0.3115  0.2852 -0.1611
 3788TIP3    H111328   4.349   2.479   1.594  0.1801 -0.7620 -0.0499
 3788TIP3    H211329   4.429   2.467   1.467 -0.0668 -1.0860 -0.1786
 3789TIP3   OH211330   6.215   4.052   3.503  0.2385  0.0622  0.3359
 3789TIP3    H111331   6.284   3.990   3.479 -0.0336 -0.1068 -0.0296
 3789TIP3    H211332   6.161   4.005   3.565 -1.0612 -0.7856 -1.3515
 3790TIP3   OH211333   5.831   2.570   2.891  0.3005  0.1411  0.2590
 3790TIP3    H111334   5.803   2.491   2.938  1.0246  0.1086  0.6489
 3790TIP3    H211335   5.800   2.557   2.801 -1.6543  0.4756  0.8319
 3791TIP3   OH211336   3.224   3.077   5.679  0.0213  0.4080  0.0339
 3791TIP3    H111337   3.303   3.026   5.699  0.8432  1.0137 -1.5116
 3791TIP3    H211338   3.177   3.082   5.762  1.5038 -0.1548  0.9425
 3792TIP3   OH211339   0.505   6.331   1.901  0.2358  0.4249 -0.0376
 3792TIP3    H111340   0.494   6.379   1.983 -1.9736  1.9944 -1.1472
 3792TIP3    H211341   0.429   6.273   1.897  0.4430  0.1966 -0.8589
 3793TIP3   OH211342   5.311   1.763   0.217  0.9306 -0.6616  0.1370
 3793TIP3    H111343   5.385   1.787   0.161  0.2084 -1.3168 -1.1403
 3793TIP3    H211344   5.316   1.824   0.291  1.3863  0.8270 -1.0753
 3794TIP3   OH211345   5.468   1.359   2.738  0.5232 -0.4886  0.4310
 3794TIP3    H111346   5.425   1.278   2.709  0.3215 -0.2673  0.0996
 3794TIP3    H211347   5.430   1.377   2.824 -0.6458  0.1254 -0.1909
 3795TIP3   OH211348   4.351   3.749   0.147  0.1531  0.6212 -0.1700
 3795TIP3    H111349   4.409   3.721   0.076  0.3178  0.4693  0.0263
 3795TIP3    H211350   4.382   3.702   0.224 -0.4132  0.3191 -0.1229
 3796TIP3   OH211351   2.905   0.289   5.873 -0.1879 -0.1530  0.1980
 3796TIP3    H111352   2.992   0.289   5.913  0.3749  0.4253 -0.9568
 3796TIP3    H211353   2.886   0.197   5.856  0.8869 -0.1884 -0.9335
 3797TIP3   OH211354   0.815   6.796   0.016 -0.3904  0.5566 -0.8630
 3797TIP3    H111355   0.756   6.839   0.079  0.5425  1.3258 -0.4885
 3797TIP3    H211356   0.790   6.704   0.019  1.1319  0.1043  2.4178
 3798TIP3   OH211357   1.651   2.752   1.966  0.0143  0.1540 -0.0417
 3798TIP3    H111358   1.720   2.793   2.018 -0.3799 -0.2129  0.7895
 3798TIP3    H211359   1.692   2.676   1.926  0.2435  0.2747 -0.0404
 3799TIP3   OH211360   2.694   5.143   0.577 -0.1496 -0.6390 -0.0363
 3799TIP3    H111361   2.788   5.162   0.572 -0.0456 -0.1029  2.6042
 3799TIP3    H211362   2.689   5.065   0.633 -1.3160  0.0099  0.7959
 3800TIP3   OH211363   6.368   5.024   0.639  0.2433  0.0691 -0.1423
 3800TIP3    H111364   6.365   5.119   0.631 -1.6856  0.1854  1.2728
 3800TIP3    H211365   6.319   4.992   0.563 -0.4615  0.2682  0.2297
 3801TIP3   OH211366   2.945   3.570   0.123  0.1508 -0.1306  0.5755
 3801TIP3    H111367   3.033   3.587   0.089  0.2148 -1.5230  0.0139
 3801TIP3    H211368   2.912   3.498   0.071 -0.9146 -0.3426  1.5037
 3802TIP3   OH211369   1.100   0.143   5.479 -0.0120  0.3451  0.0896
 3802TIP3    H111370   1.020   0.123   5.429  1.2735 -0.8455 -1.5906
 3802TIP3    H211371   1.150   0.062   5.478  1.3499  1.1304  0.9072
 3803TIP3   OH211372   4.391   0.796   2.444  0.4774 -0.1153 -0.0233
 3803TIP3    H111373   4.411   0.703   2.452 -1.2173 -0.5464 -0.3751
 3803TIP3    H211374   4.330   0.814   2.516  1.6966  1.0514  0.7965
 3804TIP3   OH211375   2.713   6.477   1.333  0.4349  0.8107 -0.2280
 3804TIP3    H111376   2.633   6.431   1.360 -0.5305  0.4312 -3.3327
 3804TIP3    H211377   2.682   6.551   1.281  2.0626  0.6190 -1.5554
 3805TIP3   OH211378   1.253   5.287   5.214  0.0338 -0.0491 -0.0241
 3805TIP3    H111379   1.262   5.234   5.136  0.6806  0.3410 -0.2222
 3805TIP3    H211380   1.270   5.377   5.184  0.6387  0.0621  0.6217
 3806TIP3   OH211381   1.705   6.398   3.912 -0.2163  0.4447  0.2028
 3806TIP3    H111382   1.662   6.341   3.848  0.8562  0.8169 -0.8891
 3806TIP3    H211383   1.682   6.360   3.997 -0.0321 -1.2646 -0.4639
 3807TIP3   OH211384   1.375   4.522   4.056 -0.2093  0.3648  0.5580
 3807TIP3    H111385   1.322   4.508   3.977  1.2203  1.0144 -0.5807
 3807TIP3    H211386   1.424   4.441   4.067 -0.4509  0.2539  0.8114
 3808TIP3   OH211387   5.463   0.686   5.501  0.2254 -0.1415  0.0999
 3808TIP3    H111388   5.439   0.765   5.451  0.9498  1.3911  2.0241
 3808TIP3    H211389   5.390   0.672   5.561  0.5918 -0.2548  0.5270
 3809TIP3   OH211390   3.998   2.149   2.943 -0.1567 -0.5048  0.2515
 3809TIP3    H111391   3.917   2.170   2.990 -0.4182  0.8015 -0.7238
 3809TIP3    H211392   4.001   2.053   2.941 -2.3669 -0.6011 -0.8308
 3810TIP3   OH211393   4.140   4.547   2.675 -0.2313 -0.4896 -0.8690
 3810TIP3    H111394   4.084   4.581   2.605  0.1091  0.4867 -0.6845
 3810TIP3    H211395   4.084   4.545   2.752  0.2496  1.6176 -0.3984
 3811TIP3   OH211396   4.070   1.118   5.045  0.2339 -0.0468  0.4021
 3811TIP3    H111397   4.103   1.199   5.084 -0.3024 -1.0594  3.1987
 3811TIP3    H211398   4.147   1.063   5.034  0.5343  0.6270 -1.0621
 3812TIP3   OH211399   0.387   2.104   1.432  0.4930 -0.0226  0.7400
 3812TIP3    H111400   0.367   2.077   1.521  1.7709 -4.3415 -0.0664
 3812TIP3    H211401   0.302   2.118   1.391 -0.3363 -2.3511  1.5380
 3813TIP3   OH211402   6.249   4.229   5.020  0.1355  0.1918 -0.2948
 3813TIP3    H111403   6.161   4.265   5.028 -0.9039 -1.9153 -1.3649
 3813TIP3    H211404   6.272   4.241   4.928 -0.0608 -1.3640 -0.5809
 3814TIP3   OH211405   3.909   0.393   5.112 -0.5820  0.0898  0.3633
 3814TIP3    H111406   3.901   0.371   5.205 -1.2211  1.0264  0.5461
 3814TIP3    H211407   4.001   0.379   5.092 -0.2520  0.6756  1.3599
 3815TIP3   OH211408   2.878   1.051   5.523  0.0450  0.1402  0.2580
 3815TIP3    H111409   2.937   1.121   5.494 -0.3392  1.4879  2.5118
 3815TIP3    H211410   2.876   0.990   5.449  2.5024  1.1406 -0.7600
 3816TIP3   OH211411   1.711   1.123   5.442  0.0555  0.3860  1.0882
 3816TIP3    H111412   1.710   1.058   5.372 -0.5052  2.2181 -0.7106
 3816TIP3    H211413   1.803   1.145   5.453  0.0007  1.7392 -0.7702
 3817TIP3   OH211414   2.756   5.927   0.357 -0.0535  0.1689 -0.5779
 3817TIP3    H111415   2.742   5.948   0.449 -0.8900  0.6530 -0.8057
 3817TIP3    H211416   2.780   6.011   0.316  0.0543  0.0083 -0.8526
 3818TIP3   OH211417   2.786   1.666   2.301 -0.2519 -0.4937  0.1300
 3818TIP3    H111418   2.875   1.640   2.327 -0.1022 -0.9066 -0.7813
 3818TIP3    H211419   2.799   1.731   2.232 -0.6458 -1.6329 -1.0542
 3819TIP3   OH211420   1.574   2.987   3.158  0.1621  0.2658  0.2350
 3819TIP3    H111421   1.512   3.020   3.223 -0.9984 -0.4770 -0.4554
 3819TIP3    H211422   1.596   2.899   3.189  1.0312  0.5949  0.5741
 3820TIP3   OH211423   5.914   2.262   0.332  0.0150 -0.5558  0.3839
 3820TIP3    H111424   5.927   2.167   0.328  2.0863 -0.2782 -2.8112
 3820TIP3    H211425   5.829   2.276   0.290  1.6716 -0.8580 -3.4178
 3821TIP3   OH211426   5.972   1.397   2.327  0.2253  0.5852 -0.6523
 3821TIP3    H111427   5.960   1.389   2.233  1.5748 -1.9756 -0.6795
 3821TIP3    H211428   5.906   1.338   2.364  1.0875 -0.0449 -0.0980
 3822TIP3   OH211429   5.934   1.862   3.234 -0.3582 -0.7250 -0.0225
 3822TIP3    H111430   5.938   1.860   3.330 -0.9291 -1.1265 -0.0049
 3822TIP3    H211431   6.014   1.818   3.206 -0.6671 -1.4835  0.2738
 3823TIP3   OH211432   2.117   1.299   4.709  0.3222 -0.9441 -0.2917
 3823TIP3    H111433   2.168   1.323   4.787  2.5009 -1.2868 -1.5155
 3823TIP3    H211434   2.048   1.365   4.704  1.1982  0.1169  0.9740
 3824TIP3   OH211435   6.263   0.492   5.231  0.2225  0.1993  0.0717
 3824TIP3    H111436   6.207   0.440   5.288  0.9587 -0.8300 -0.1112
 3824TIP3    H211437   6.204   0.528   5.165 -0.1634 -1.3746 -0.4916
 3825TIP3   OH211438   1.717   5.836   4.056  0.3550 -0.5239 -0.0916
 3825TIP3    H111439   1.732   5.882   4.139 -1.3851 -2.8286  1.6495
 3825TIP3    H211440   1.792   5.777   4.047 -0.3524 -1.6458  0.9486
 3826TIP3   OH211441   1.680   5.590   5.019  0.1738  0.1203 -0.8778
 3826TIP3    H111442   1.715   5.647   5.087 -0.2275 -0.1728 -0.4140
 3826TIP3    H211443   1.757   5.552   4.977  0.4849 -1.9955  1.3648
 3827TIP3   OH211444   5.970   2.388   1.067 -0.3093 -0.1672  0.0029
 3827TIP3    H111445   6.028   2.412   0.994 -1.3465 -1.0845 -1.1656
 3827TIP3    H211446   5.941   2.472   1.103  1.0257  0.3031  0.0358
 3828TIP3   OH211447   0.796   0.234   2.016 -1.1717 -0.1530  0.4504
 3828TIP3    H111448   0.730   0.302   2.013  0.8842  1.9527  0.4240
 3828TIP3    H211449   0.873   0.272   1.974  0.0631 -2.5150  0.3752
 3829TIP3   OH211450   4.203   3.461   1.469  0.0204  0.8805  0.2432
 3829TIP3    H111451   4.224   3.486   1.379 -0.9972  1.5844  0.1858
 3829TIP3    H211452   4.113   3.491   1.482 -0.2104 -0.1575  1.1588
 3830TIP3   OH211453   6.562   2.266   2.581  0.4396 -0.0818  0.0876
 3830TIP3    H111454   6.646   2.230   2.552  0.6438  0.2824  0.2216
 3830TIP3    H211455   6.581   2.306   2.666 -0.3149 -1.8400  1.1511
 3831TIP3   OH211456   2.964   3.887   3.535 -0.0761  0.0949  0.5463
 3831TIP3    H111457   2.908   3.935   3.597 -0.6749 -1.4578  1.2775
 3831TIP3    H211458   2.976   3.947   3.462 -1.3961  1.0747  1.0878
 3832TIP3   OH211459   7.105   2.382   0.967  0.0134  0.6712  0.2623
 3832TIP3    H111460   7.060   2.343   0.892  0.8447 -0.1229  0.1501
 3832TIP3    H211461   7.168   2.443   0.928 -0.9634  1.8116  0.4196
 3833TIP3   OH211462   2.260   4.575   5.146  0.3279 -0.2491  0.3392
 3833TIP3    H111463   2.218   4.572   5.060  0.6309 -2.3677  0.2163
 3833TIP3    H211464   2.225   4.654   5.188  0.0400  0.7319 -1.6394
 3834TIP3   OH211465   4.390   0.058   3.140 -0.0626  0.1542  0.9269
 3834TIP3    H111466   4.325   0.057   3.210  1.4725 -0.7873  2.4052
 3834TIP3    H211467   4.358   0.124   3.079 -2.5959 -0.5558  1.3721
 3835TIP3   OH211468   6.390   3.413   4.121 -0.1589  0.1027 -0.1349
 3835TIP3    H111469   6.385   3.323   4.153  1.5136  0.2466  0.6424
 3835TIP3    H211470   6.383   3.467   4.200  3.5602  0.4743  0.1183
 3836TIP3   OH211471   5.290   4.064   1.162 -0.4423 -0.3064  0.2530
 3836TIP3    H111472   5.349   4.045   1.235  1.0114  1.6155 -0.3164
 3836TIP3    H211473   5.336   4.032   1.085  0.3913  1.9860 -0.3003
 3837TIP3   OH211474   5.712   1.587   3.750  0.1695 -0.3725 -0.3160
 3837TIP3    H111475   5.788   1.564   3.802 -0.8527 -1.2885  0.8397
 3837TIP3    H211476   5.648   1.620   3.813 -1.2963 -1.9984 -0.8633
 3838TIP3   OH211477   5.373   5.039   4.894  0.2163  0.0477 -0.0189
 3838TIP3    H111478   5.388   4.960   4.844 -0.6731 -0.2409  0.1445
 3838TIP3    H211479   5.278   5.042   4.906  0.2896  0.8371  0.4596
 3839TIP3   OH211480   2.757   2.752   1.171 -0.6485 -0.3077 -0.0814
 3839TIP3    H111481   2.829   2.814   1.183 -1.8466  1.1436  0.0021
 3839TIP3    H211482   2.793   2.668   1.197  1.2886  0.1874 -0.9574
 3840TIP3   OH211483   3.257   1.857   5.720 -0.8340  0.0793  0.7133
 3840TIP3    H111484   3.257   1.943   5.763  1.3313  1.7979 -2.3382
 3840TIP3    H211485   3.170   1.851   5.680 -0.1998  2.2280 -1.2483
 3841TIP3   OH211486   5.698   3.433   4.125 -0.4103  0.4859  0.4507
 3841TIP3    H111487   5.676   3.345   4.096 -0.3366  0.6842 -0.2326
 3841TIP3    H211488   5.698   3.485   4.045 -0.7923  1.1759  0.8885
 3842TIP3   OH211489   6.311   5.140   3.955  0.0466  0.1285 -0.4224
 3842TIP3    H111490   6.230   5.098   3.984 -0.6523  1.8443  0.1896
 3842TIP3    H211491   6.311   5.129   3.860 -0.0530 -1.3118 -0.2815
 3843TIP3   OH211492   6.041   3.262   0.907  0.5935 -0.1065 -0.3861
 3843TIP3    H111493   5.967   3.208   0.879  0.4339  0.0630 -0.2930
 3843TIP3    H211494   6.066   3.310   0.828  0.5373 -0.0866 -0.3921
 3844TIP3   OH211495   1.637   4.432   1.785  0.8194  0.2870 -0.4553
 3844TIP3    H111496   1.563   4.398   1.836  3.1019 -3.2494  0.9221
 3844TIP3    H211497   1.639   4.377   1.706  0.8190  1.7610 -1.5303
 3845TIP3   OH211498   1.499   3.384   3.193  0.1809  0.3074  0.7586
 3845TIP3    H111499   1.461   3.339   3.268 -0.5646  1.2490  0.9703
 3845TIP3    H211500   1.425   3.399   3.134  0.5976  0.3721  0.2436
 3846TIP3   OH211501   3.354   6.736   1.485  0.4355  0.2754 -0.2514
 3846TIP3    H111502   3.359   6.689   1.568  0.3445  0.2440 -0.2629
 3846TIP3    H211503   3.443   6.737   1.452  0.6955  1.3235  0.4187
 3847TIP3   OH211504   2.348   4.588   2.121  0.0815  0.0991  0.0147
 3847TIP3    H111505   2.361   4.683   2.116 -2.4120  0.4551 -0.9316
 3847TIP3    H211506   2.260   4.578   2.157  0.5824 -1.8996  0.8109
 3848TIP3   OH211507   4.877   3.053   1.611 -0.8104  0.0506 -0.0731
 3848TIP3    H111508   4.926   2.988   1.661  0.1860 -1.3710 -2.7345
 3848TIP3    H211509   4.815   3.002   1.559 -1.0530  1.3654 -1.1403
 3849TIP3   OH211510   6.365   2.817   0.230 -0.0932 -0.1984 -0.0041
 3849TIP3    H111511   6.299   2.787   0.168  0.3590 -1.3921  0.0717
 3849TIP3    H211512   6.428   2.746   0.235  1.0485  0.7887  0.1711
 3850TIP3   OH211513   3.883   4.803   3.222  0.1621 -0.3058 -0.5165
 3850TIP3    H111514   3.833   4.880   3.250  1.6225  0.6099 -0.3485
 3850TIP3    H211515   3.916   4.826   3.135 -1.7483 -1.9163 -1.7533
 3851TIP3   OH211516  -0.024   3.455   3.551  0.3694  0.4257 -0.4676
 3851TIP3    H111517   0.066   3.463   3.518  0.9172 -0.5074  0.6992
 3851TIP3    H211518  -0.019   3.489   3.640  0.1007 -1.6494  0.3935
 3852TIP3   OH211519   3.915   2.721   5.641 -0.2880  0.1809 -0.1654
 3852TIP3    H111520   3.858   2.646   5.624 -0.0484 -0.2541  0.9074
 3852TIP3    H211521   3.889   2.753   5.727  1.9231 -0.8575  0.9915
 3853TIP3   OH211522   1.557   0.969   4.854  0.6113  0.2210 -0.0265
 3853TIP3    H111523   1.640   1.009   4.881  1.2876 -0.5053 -0.9834
 3853TIP3    H211524   1.535   1.012   4.772  0.4519 -0.1627 -0.1838
 3854TIP3   OH211525   3.575   1.202   1.855  0.8695 -0.2817  0.1764
 3854TIP3    H111526   3.653   1.256   1.841  1.1414 -0.3194  1.4152
 3854TIP3    H211527   3.580   1.176   1.947  0.4345 -1.9409 -0.2236
 3855TIP3   OH211528   2.064   4.105   3.111 -0.1699 -0.0051  0.4829
 3855TIP3    H111529   2.083   4.073   3.022 -0.7031 -0.4495  0.5198
 3855TIP3    H211530   2.107   4.042   3.169 -0.1860  0.0397  0.5439
 3856TIP3   OH211531   6.381   1.308   1.271  0.2067 -0.1533 -0.0222
 3856TIP3    H111532   6.474   1.294   1.287  0.3347  1.0888  0.4219
 3856TIP3    H211533   6.356   1.379   1.330 -0.9745 -0.3085 -0.2972
 3857TIP3   OH211534   4.762   6.470   1.816 -0.0550 -0.2933 -0.2509
 3857TIP3    H111535   4.774   6.378   1.838  1.2566 -0.3258 -1.0088
 3857TIP3    H211536   4.775   6.474   1.721  1.0222  0.8275 -0.0751
 3858TIP3   OH211537   0.824   2.296   3.587 -0.2118  0.0709 -0.3515
 3858TIP3    H111538   0.827   2.292   3.492  0.5056 -0.8570 -0.2956
 3858TIP3    H211539   0.731   2.290   3.609 -0.3015 -0.8207 -0.9523
 3859TIP3   OH211540   4.582   0.419   3.180  0.1059 -1.0908 -0.3433
 3859TIP3    H111541   4.531   0.369   3.117  1.1798 -1.7891 -0.6934
 3859TIP3    H211542   4.607   0.355   3.247 -1.1308 -0.3338  0.8885
 3860TIP3   OH211543   4.781   2.789   0.671 -0.6559  0.2790 -0.0047
 3860TIP3    H111544   4.875   2.807   0.673 -0.1267 -2.2135  0.0582
 3860TIP3    H211545   4.748   2.844   0.600  0.6215  2.0056  0.6556
 3861TIP3   OH211546   0.837   3.000   5.794  0.3351 -0.2376  0.2074
 3861TIP3    H111547   0.849   3.061   5.866  0.5750  0.5076 -0.4458
 3861TIP3    H211548   0.921   2.955   5.786  0.0199 -0.9824  0.9713
 3862TIP3   OH211549   2.337   4.995   2.505 -0.1228  0.1999  0.5164
 3862TIP3    H111550   2.261   4.937   2.495 -0.5929  0.8568  0.1792
 3862TIP3    H211551   2.404   4.940   2.545 -0.1832 -0.8924 -0.8162
 3863TIP3   OH211552   6.680   3.049   3.117 -0.4429 -0.1146 -0.0866
 3863TIP3    H111553   6.675   3.123   3.178  0.1745  0.2630 -0.4846
 3863TIP3    H211554   6.606   3.061   3.058  1.2875  1.8901 -2.0220
 3864TIP3   OH211555   5.015   5.008   4.252 -0.2745  0.3912 -0.1842
 3864TIP3    H111556   4.997   4.934   4.194  0.6272 -0.0829  0.1216
 3864TIP3    H211557   4.934   5.060   4.250 -0.9743 -0.6623 -0.3028
 3865TIP3   OH211558   0.133   4.345   0.322 -0.5031 -0.5219 -0.2843
 3865TIP3    H111559   0.139   4.299   0.405  0.4341 -2.8553 -1.5572
 3865TIP3    H211560   0.046   4.325   0.289 -0.0150 -1.6256 -0.9419
 3866TIP3   OH211561   4.345   1.120   4.984 -0.0009 -0.0121  0.7697
 3866TIP3    H111562   4.396   1.054   4.938  1.2831  1.8214 -0.6090
 3866TIP3    H211563   4.410   1.175   5.027 -0.9327  1.0190  0.9064
 3867TIP3   OH211564   0.522   5.874   5.052 -0.5007  0.2620 -0.0928
 3867TIP3    H111565   0.507   5.854   5.144 -0.8410 -0.0347 -0.2088
 3867TIP3    H211566   0.533   5.788   5.010 -2.6310  0.2336 -0.7166
 3868TIP3   OH211567   0.361   4.417   2.741  0.0182 -0.3067  0.1053
 3868TIP3    H111568   0.419   4.407   2.665 -1.1180 -2.2720 -0.5659
 3868TIP3    H211569   0.374   4.336   2.791 -1.7087 -0.5312  0.2310
 3869TIP3   OH211570   2.305   3.700   1.516  0.4117 -0.2270 -0.6598
 3869TIP3    H111571   2.315   3.765   1.587  2.3481 -1.1804  0.0061
 3869TIP3    H211572   2.212   3.679   1.517  0.1284  0.8900  0.6175
 3870TIP3   OH211573   1.469   2.819   5.438 -0.1918  0.7056  0.0010
 3870TIP3    H111574   1.503   2.813   5.348  0.4224  1.5938  0.1601
 3870TIP3    H211575   1.378   2.847   5.428 -0.3332  0.1413 -0.3610
 3871TIP3   OH211576   1.499   0.230   2.903  0.1726  0.1438 -0.4290
 3871TIP3    H111577   1.537   0.309   2.864 -1.1981  1.0243 -0.0427
 3871TIP3    H211578   1.565   0.202   2.967 -0.3493  2.4752  1.2804
 3872TIP3   OH211579   6.881   0.619   3.108  0.0032 -0.5094 -0.2002
 3872TIP3    H111580   6.891   0.714   3.112  1.5095 -0.6729  2.3988
 3872TIP3    H211581   6.968   0.587   3.081 -0.0212 -1.1582  0.4347
 3873TIP3   OH211582   6.816   0.707   5.650 -0.4197  0.1448  0.2505
 3873TIP3    H111583   6.800   0.684   5.559 -2.9423  1.7597  0.1992
 3873TIP3    H211584   6.828   0.622   5.694  0.7306 -0.6640 -1.4853
 3874TIP3   OH211585   5.922   1.173   0.107 -0.4282 -0.1511  0.3131
 3874TIP3    H111586   5.922   1.132   0.193 -1.1486  0.0272  0.4013
 3874TIP3    H211587   5.846   1.230   0.107  0.5131  1.1600  0.1743
 3875TIP3   OH211588   6.900   3.346   5.518 -0.2036 -0.1481  0.4926
 3875TIP3    H111589   6.978   3.401   5.528 -0.1656 -0.0725 -0.1862
 3875TIP3    H211590   6.827   3.406   5.532 -0.1510 -0.0817  0.4847
 3876TIP3   OH211591   2.813   2.624   5.325  0.7176 -0.6714 -0.1436
 3876TIP3    H111592   2.748   2.604   5.258  0.5357  1.8114 -0.8083
 3876TIP3    H211593   2.798   2.559   5.394 -0.9373 -1.5477 -1.2692
 3877TIP3   OH211594   6.541   6.732   3.934  0.1214  0.1387  0.1046
 3877TIP3    H111595   6.546   6.791   4.009 -0.4076  0.8667 -0.4266
 3877TIP3    H211596   6.462   6.679   3.951 -0.0019  0.3075  0.0631
 3878TIP3   OH211597   4.200   6.067   0.836  0.0818  0.1467 -0.4912
 3878TIP3    H111598   4.265   6.064   0.765 -0.6222 -0.9003 -1.1292
 3878TIP3    H211599   4.118   6.090   0.791 -0.6100 -1.6548 -0.2473
 3879TIP3   OH211600   3.339   3.913   2.745  0.7245  0.1850  0.4285
 3879TIP3    H111601   3.342   3.991   2.690 -1.6436  0.7894  1.0393
 3879TIP3    H211602   3.376   3.942   2.829 -0.3997  0.7903  0.7443
 3880TIP3   OH211603   0.637   2.093   1.374 -0.1219  0.5939 -0.6936
 3880TIP3    H111604   0.543   2.102   1.389 -0.1490  0.6480 -0.9060
 3880TIP3    H211605   0.659   2.162   1.311 -0.0212  0.2903 -0.9936
 3881TIP3   OH211606   3.242   0.537   0.046 -0.2839  0.3732 -0.4726
 3881TIP3    H111607   3.300   0.521   0.120 -0.6910  0.9232 -0.0306
 3881TIP3    H211608   3.259   0.464  -0.014 -0.5302 -0.5146  0.5104
 3882TIP3   OH211609   7.182   5.522   0.591  0.9406  0.6689 -0.3937
 3882TIP3    H111610   7.229   5.523   0.674 -0.2520 -1.1816  0.3899
 3882TIP3    H211611   7.158   5.613   0.575  1.4129  1.0907  1.1559
 3883TIP3   OH211612   2.916   5.458   3.851  0.0397  0.0841  0.1614
 3883TIP3    H111613   2.917   5.478   3.757  1.4083  1.4073  0.4139
 3883TIP3    H211614   2.846   5.514   3.886  0.8175  1.0707  0.1898
 3884TIP3   OH211615   5.675   1.749   0.222  0.4827  0.2001  0.2283
 3884TIP3    H111616   5.726   1.684   0.173 -0.1373 -0.3802  0.3363
 3884TIP3    H211617   5.660   1.709   0.307 -2.0294 -0.6435 -0.5214
 3885TIP3   OH211618   6.669   4.855   0.298 -0.1038 -0.1624 -0.6320
 3885TIP3    H111619   6.591   4.909   0.310 -0.2628 -0.4565 -0.3026
 3885TIP3    H211620   6.735   4.893   0.356 -0.3786 -0.6299 -0.0002
 3886TIP3   OH211621   3.377   4.470   2.159 -0.0123  0.3668 -0.2568
 3886TIP3    H111622   3.368   4.492   2.066  2.0080  0.8100 -0.3744
 3886TIP3    H211623   3.470   4.480   2.178 -0.3416  0.0375  1.7697
 3887TIP3   OH211624   0.773   1.719   3.059 -0.9680 -0.3027  0.2696
 3887TIP3    H111625   0.679   1.738   3.060 -0.9428 -0.0427 -0.8613
 3887TIP3    H211626   0.790   1.688   2.970  0.1720  0.4574  0.2104
 3888TIP3   OH211627   6.234   2.054   0.683 -0.4443  0.4414 -0.1915
 3888TIP3    H111628   6.298   1.987   0.662 -2.0703 -0.7449 -1.6121
 3888TIP3    H211629   6.261   2.086   0.770  1.4246 -0.7162 -0.2861
 3889TIP3   OH211630   4.131   0.988   2.683  0.3214 -0.0776  0.5378
 3889TIP3    H111631   4.187   1.027   2.616 -0.6408 -0.6326 -0.6354
 3889TIP3    H211632   4.071   0.932   2.634 -0.9722  0.1551  1.7970
 3890TIP3   OH211633   1.755   2.110   0.860 -0.8667  0.4062 -0.4454
 3890TIP3    H111634   1.734   2.077   0.948  0.6925  2.1933  0.6697
 3890TIP3    H211635   1.672   2.143   0.826 -1.2905  0.7320  0.8402
 3891TIP3   OH211636   5.271   6.731   5.901 -0.1922 -0.4260  0.1022
 3891TIP3    H111637   5.342   6.667   5.905 -0.4162 -0.6663  0.2895
 3891TIP3    H211638   5.295   6.789   5.828  0.1903 -0.5066  0.1613
 3892TIP3   OH211639   5.772   1.884   2.024  0.2191 -0.1383  0.6398
 3892TIP3    H111640   5.820   1.876   2.106  0.1744  0.1440  0.6929
 3892TIP3    H211641   5.836   1.863   1.956  0.4227  0.2562  0.7091
 3893TIP3   OH211642   5.580   6.616   0.965  0.1150 -0.6078  0.1065
 3893TIP3    H111643   5.633   6.645   0.890 -0.2593 -0.0263  0.0618
 3893TIP3    H211644   5.502   6.671   0.962  0.3205 -0.2190  1.2169
 3894TIP3   OH211645   0.063   6.182   0.453 -0.1817 -0.9697 -0.1645
 3894TIP3    H111646   0.090   6.273   0.466 -1.2648 -0.6862  0.2245
 3894TIP3    H211647   0.024   6.156   0.537 -0.2039 -1.6778 -0.3844
 3895TIP3   OH211648   1.972   6.496   1.275 -0.4298 -0.0385  0.0138
 3895TIP3    H111649   1.917   6.526   1.348 -1.1664 -0.4219 -0.3710
 3895TIP3    H211650   1.998   6.407   1.300  0.6218  0.3914  0.5208
 3896TIP3   OH211651   6.535   3.396   3.579 -0.2568  0.1301 -0.4012
 3896TIP3    H111652   6.474   3.469   3.593 -1.5720 -0.9335 -0.4392
 3896TIP3    H211653   6.555   3.364   3.666  0.6943  0.8065 -0.3546
 3897TIP3   OH211654   4.946   4.525   3.719  0.1533  0.4596 -0.4715
 3897TIP3    H111655   4.901   4.505   3.802 -1.4698  0.1514 -1.3740
 3897TIP3    H211656   4.921   4.615   3.700 -0.7976  0.0431 -1.3628
 3898TIP3   OH211657   5.277   6.783   4.580  0.3103 -0.3001 -0.5549
 3898TIP3    H111658   5.361   6.824   4.558  0.1686  0.0280 -0.4919
 3898TIP3    H211659   5.279   6.774   4.675 -0.4240  1.2888 -0.3462
 3899TIP3   OH211660   3.010   6.164   2.550 -0.4764 -0.3115 -0.6204
 3899TIP3    H111661   3.053   6.188   2.632 -0.1622 -2.8322  0.0382
 3899TIP3    H211662   2.953   6.238   2.530 -0.3054  0.5273  1.6993
 3900TIP3   OH211663   5.557   4.502   5.915 -0.5941 -0.3065  0.0181
 3900TIP3    H111664   5.598   4.416   5.919  1.2925  0.5025 -0.8165
 3900TIP3    H211665   5.586   4.539   5.831 -3.1792  0.2904 -0.7163
 3901TIP3   OH211666   1.259   5.400   0.847  0.0585  0.1522  0.1937
 3901TIP3    H111667   1.279   5.432   0.759  0.4989 -0.4456  0.0693
 3901TIP3    H211668   1.341   5.364   0.879 -0.9330 -3.4159 -0.7916
 3902TIP3   OH211669   4.194   1.417   2.726  0.1530  0.5721 -0.3320
 3902TIP3    H111670   4.147   1.363   2.663 -0.3464  0.5780  0.0333
 3902TIP3    H211671   4.277   1.437   2.682 -1.0559  2.4192 -1.9348
 3903TIP3   OH211672   5.330   6.683   4.130  0.3857  0.7556 -0.1338
 3903TIP3    H111673   5.285   6.710   4.050 -0.1754 -0.3303 -0.2055
 3903TIP3    H211674   5.329   6.587   4.127  1.4430  0.7035  0.5774
 3904TIP3   OH211675   1.055   3.968   0.367  0.0747 -0.4829  0.3236
 3904TIP3    H111676   1.017   3.962   0.279  2.2654 -0.7727 -0.6489
 3904TIP3    H211677   1.053   4.062   0.387 -2.4673 -0.6040  0.9681
 3905TIP3   OH211678   0.284   0.522   4.594  0.5773 -0.5831  0.5181
 3905TIP3    H111679   0.274   0.543   4.688  2.1481 -1.6709  0.9604
 3905TIP3    H211680   0.375   0.496   4.585  1.1267  1.7583 -1.8055
 3906TIP3   OH211681   4.479   3.563   2.685 -0.4134  0.1286  0.3945
 3906TIP3    H111682   4.559   3.606   2.655 -1.1470  0.4692 -1.1633
 3906TIP3    H211683   4.438   3.530   2.606 -1.4875 -0.6551  1.2423
 3907TIP3   OH211684   0.564   6.597   5.828  0.3397  0.5393  0.5150
 3907TIP3    H111685   0.625   6.603   5.902  0.9686  1.4544 -0.0473
 3907TIP3    H211686   0.563   6.686   5.792  0.4279 -0.0164 -0.8760
 3908TIP3   OH211687   2.954   5.177   3.735  0.5662  0.4010  0.1997
 3908TIP3    H111688   2.904   5.244   3.782 -0.1416 -0.4693  0.7143
 3908TIP3    H211689   2.990   5.122   3.804  0.4789 -0.2211 -0.2488
 3909TIP3   OH211690   5.079   2.097   4.563  0.1770 -0.1841 -0.1309
 3909TIP3    H111691   5.118   2.150   4.494  1.1518  1.1861  1.3837
 3909TIP3    H211692   5.142   2.027   4.579  0.1774 -0.2230 -0.3078
 3910TIP3   OH211693   4.514   5.913   5.186  0.2894  0.2367 -0.6213
 3910TIP3    H111694   4.533   5.829   5.228 -0.3728  1.0471  1.3841
 3910TIP3    H211695   4.419   5.912   5.174 -0.0554  1.5952  1.5525
 3911TIP3   OH211696   7.052   1.877   0.743 -0.0061 -0.9015 -0.3297
 3911TIP3    H111697   7.106   1.955   0.747 -0.3672 -0.6623 -0.1087
 3911TIP3    H211698   7.068   1.841   0.656  1.1427 -1.2907  0.0244
 3912TIP3   OH211699   7.111   1.270   2.774 -0.0794  0.0643  0.7010
 3912TIP3    H111700   7.144   1.205   2.712 -0.2467  1.5815 -1.0699
 3912TIP3    H211701   7.190   1.301   2.820  0.0329 -1.1334  1.3564
 3913TIP3   OH211702   6.554   4.546   1.867  0.5082  0.4483  0.1389
 3913TIP3    H111703   6.464   4.518   1.854  1.1269 -1.6326  0.0861
 3913TIP3    H211704   6.575   4.599   1.790 -0.3377  0.1367 -0.3107
 3914TIP3   OH211705   3.618   0.772   0.639 -0.1511  0.0326  0.3367
 3914TIP3    H111706   3.707   0.744   0.616 -0.3429  0.7880 -1.5072
 3914TIP3    H211707   3.578   0.794   0.555 -2.3624 -1.0257  1.0543
 3915TIP3   OH211708   5.174   0.936   5.441  0.4529 -0.1160  0.2781
 3915TIP3    H111709   5.085   0.939   5.406  0.8338  1.3882 -0.6311
 3915TIP3    H211710   5.177   0.855   5.491 -0.5338 -1.7430 -2.1023
 3916TIP3   OH211711   1.122   1.385   3.353  0.3342 -0.4523  0.2285
 3916TIP3    H111712   1.038   1.339   3.354 -1.2765  2.2806  0.5229
 3916TIP3    H211713   1.133   1.414   3.263 -0.5232  1.6234  0.7520
 3917TIP3   OH211714   2.261   4.518   2.652  0.1764 -0.4997  0.2832
 3917TIP3    H111715   2.185   4.471   2.685  0.0473 -0.6212 -0.1791
 3917TIP3    H211716   2.326   4.512   2.722 -0.0611 -0.8239  0.4765
 3918TIP3   OH211717   1.020   3.512   4.797  0.3378 -0.2587 -0.1405
 3918TIP3    H111718   1.116   3.518   4.794  0.2587  1.1102 -0.4585
 3918TIP3    H211719   0.990   3.597   4.766 -1.0058 -1.1179 -1.2751
 3919TIP3   OH211720   5.153   3.207   3.552 -0.0222 -0.9209  0.4115
 3919TIP3    H111721   5.164   3.113   3.539  3.0288 -0.6290  0.3125
 3919TIP3    H211722   5.241   3.239   3.573 -0.6437  2.1695 -1.1456
 3920TIP3   OH211723   1.779   2.922   1.584 -0.1398  0.1120  0.0807
 3920TIP3    H111724   1.741   2.874   1.511 -0.4661  0.7285 -0.1575
 3920TIP3    H211725   1.874   2.907   1.576 -0.2895 -1.1727  0.5037
 3921TIP3   OH211726   2.013   4.527   5.727  0.2098 -0.8007  1.1609
 3921TIP3    H111727   1.929   4.482   5.717 -0.5932  0.9432 -0.8389
 3921TIP3    H211728   2.078   4.464   5.699 -0.7222 -1.2853  0.0099
 3922TIP3   OH211729   3.725   4.714   1.165 -0.3449 -0.3926  0.0215
 3922TIP3    H111730   3.667   4.638   1.158 -0.1361 -0.6708  1.1472
 3922TIP3    H211731   3.717   4.742   1.256  1.2951 -0.4574  0.2176
 3923TIP3   OH211732  -0.031   6.009   0.868  0.7866 -0.6388 -0.1265
 3923TIP3    H111733   0.016   6.092   0.881  0.1315 -0.3904  0.7685
 3923TIP3    H211734   0.031   5.942   0.897  0.6642 -0.3222  0.9188
 3924TIP3   OH211735   3.160   0.867   0.930  0.4918  0.3018  0.3678
 3924TIP3    H111736   3.239   0.874   0.875  2.1031 -0.2765  2.4789
 3924TIP3    H211737   3.191   0.887   1.018 -1.9386  0.8686  1.1617
 3925TIP3   OH211738   1.821   5.835   0.332  0.0974 -0.2819  0.0858
 3925TIP3    H111739   1.856   5.788   0.407 -1.1294  0.0054  0.8741
 3925TIP3    H211740   1.841   5.927   0.349  1.8344 -0.3923 -1.0892
 3926TIP3   OH211741   0.501   3.377   0.122 -0.3638  0.2374 -0.5223
 3926TIP3    H111742   0.484   3.284   0.111 -0.1414 -0.0203  1.0385
 3926TIP3    H211743   0.483   3.416   0.036  1.1917 -1.4636 -1.6721
 3927TIP3   OH211744   3.770   0.642   1.025 -0.7333 -0.1120  0.0980
 3927TIP3    H111745   3.850   0.629   0.975 -1.2051 -0.5802 -0.5447
 3927TIP3    H211746   3.703   0.591   0.979 -1.6629  1.1717 -0.0483
 3928TIP3   OH211747   3.016   2.904   0.352 -0.2075  0.0205  0.2266
 3928TIP3    H111748   2.954   2.963   0.310  0.9922  1.3132  0.1778
 3928TIP3    H211749   3.050   2.850   0.281 -0.9445 -0.4010  0.1860
 3929TIP3   OH211750   7.006   6.521   3.273  0.6212  0.2429 -0.4492
 3929TIP3    H111751   6.942   6.494   3.207  1.4004 -0.3288 -0.9918
 3929TIP3    H211752   7.090   6.497   3.236  1.1443  0.7767  0.3565
 3930TIP3   OH211753   4.555   4.298   4.699 -0.1606  0.2282  0.0902
 3930TIP3    H111754   4.530   4.244   4.624  3.2589 -1.2935 -0.1021
 3930TIP3    H211755   4.556   4.237   4.773 -0.6454  1.0747  0.8161
 3931TIP3   OH211756   0.486   5.227   3.812  0.2016  0.3769 -0.0457
 3931TIP3    H111757   0.409   5.283   3.810 -0.7569 -0.6864  2.6940
 3931TIP3    H211758   0.557   5.283   3.843 -0.0675  0.7140 -0.0382
 3932TIP3   OH211759   5.050   2.831   4.929  0.6358  0.1370  0.1613
 3932TIP3    H111760   5.005   2.864   5.006  0.7996  1.2306 -0.1953
 3932TIP3    H211761   5.037   2.736   4.932  0.9706  0.1071  1.7384
 3933TIP3   OH211762   2.309   5.965   4.392  0.8304 -0.1219 -0.1445
 3933TIP3    H111763   2.377   6.032   4.403  0.6293 -0.1007  1.2111
 3933TIP3    H211764   2.234   6.000   4.441  0.7178 -1.3158  0.5657
 3934TIP3   OH211765   0.466   6.114   2.197 -0.5169 -0.0675 -0.4040
 3934TIP3    H111766   0.515   6.137   2.276 -0.9795  0.8120 -0.3681
 3934TIP3    H211767   0.388   6.168   2.200 -0.1295  0.6271 -1.9233
 3935TIP3   OH211768   2.687   6.035   5.868 -0.2343  0.1498  0.3267
 3935TIP3    H111769   2.782   6.039   5.858 -0.0589 -0.8877  1.3726
 3935TIP3    H211770   2.662   5.952   5.828 -0.7464  0.5684 -0.2291
 3936TIP3   OH211771   2.472   4.605   3.978 -0.4059 -0.2713  0.0043
 3936TIP3    H111772   2.428   4.538   4.031 -1.2587  0.0475 -0.2898
 3936TIP3    H211773   2.503   4.669   4.042 -0.6330 -0.3511  0.1970
 3937TIP3   OH211774   6.969   1.003   3.700 -0.1761  0.1261 -0.5069
 3937TIP3    H111775   6.925   1.088   3.693 -0.5427 -0.0211 -0.0039
 3937TIP3    H211776   6.932   0.962   3.778  1.1176  0.1512  0.1542
 3938TIP3   OH211777   5.462   6.258   2.966  0.4717  1.2519 -0.1104
 3938TIP3    H111778   5.416   6.193   2.911 -0.1339 -0.7736  2.5830
 3938TIP3    H211779   5.395   6.323   2.986 -0.4803 -0.0993  1.3474
 3939TIP3   OH211780   2.993   0.884   0.660 -0.3026 -0.0137  0.0411
 3939TIP3    H111781   2.956   0.941   0.728 -0.6992 -1.3585  0.9805
 3939TIP3    H211782   3.087   0.906   0.661 -0.5044  0.9154  0.0803
 3940TIP3   OH211783   3.859   3.712   4.745  0.3234 -0.3725 -0.1815
 3940TIP3    H111784   3.820   3.797   4.767  1.0728 -0.2735  0.8948
 3940TIP3    H211785   3.829   3.653   4.814  0.0317 -0.9262 -0.7692
 3941TIP3   OH211786   3.854   6.251   3.068  0.6548 -0.7250 -0.6328
 3941TIP3    H111787   3.863   6.157   3.079 -1.2794 -0.7892  0.9370
 3941TIP3    H211788   3.862   6.287   3.157 -2.8366  0.0984 -0.5017
 3942TIP3   OH211789   6.604  -0.024   2.928  0.2056  0.0991  0.0006
 3942TIP3    H111790   6.553   0.018   2.998 -2.1266 -0.9669 -0.9481
 3942TIP3    H211791   6.673   0.039   2.908 -0.8005  1.7126  1.2778
 3943TIP3   OH211792   5.252   2.377   0.350  0.3057 -0.4921  0.6499
 3943TIP3    H111793   5.243   2.345   0.260 -2.0840 -0.3199  0.7495
 3943TIP3    H211794   5.197   2.456   0.353  0.2988 -0.5215  2.2577
 3944TIP3   OH211795   5.269   6.454   3.040 -0.1159  0.1310  0.8493
 3944TIP3    H111796   5.194   6.477   3.095 -0.3343 -0.0939  0.6469
 3944TIP3    H211797   5.232   6.441   2.953  0.0187 -0.8455  0.9227
 3945TIP3   OH211798   6.856   3.029   1.582  0.4103 -0.3929  0.2590
 3945TIP3    H111799   6.905   3.029   1.500 -0.0846  1.1506 -0.0559
 3945TIP3    H211800   6.764   3.024   1.555  0.2211  0.5459  0.6848
 3946TIP3   OH211801   3.771   1.131   3.664 -1.0746 -0.1695 -0.8784
 3946TIP3    H111802   3.728   1.171   3.588 -1.2063  1.3438 -0.0499
 3946TIP3    H211803   3.841   1.192   3.687 -0.4754 -1.0485 -0.3035
 3947TIP3   OH211804   6.228   4.215   1.045  0.1479  0.5200 -0.3510
 3947TIP3    H111805   6.321   4.195   1.058  0.4395  0.2253 -2.5158
 3947TIP3    H211806   6.195   4.233   1.133  1.6418 -1.9533  0.8365
 3948TIP3   OH211807   4.913   2.433   3.665  0.2831  0.3795  0.5256
 3948TIP3    H111808   4.820   2.415   3.677  0.0893  0.5022 -0.6846
 3948TIP3    H211809   4.940   2.476   3.747 -1.0208  1.5149  0.3903
 3949TIP3   OH211810   0.377   4.921   2.433 -0.3661  0.0108 -0.2597
 3949TIP3    H111811   0.299   4.915   2.379 -0.4045 -0.3829 -0.1683
 3949TIP3    H211812   0.387   4.833   2.470 -0.9284  0.5232  1.1953
 3950TIP3   OH211813   4.532   3.394   2.236  0.1476 -0.6258  0.1169
 3950TIP3    H111814   4.584   3.475   2.236  1.0674 -1.1706  1.6613
 3950TIP3    H211815   4.492   3.392   2.149  0.3842  1.3029 -0.0945
 3951TIP3   OH211816   0.769   3.893   3.441  0.9470 -0.0078  0.5393
 3951TIP3    H111817   0.787   3.974   3.392 -0.8702  0.5528  0.7099
 3951TIP3    H211818   0.720   3.922   3.518 -1.9707 -1.4343 -0.6474
 3952TIP3   OH211819   2.929   3.122   1.503  0.8678  0.2108  0.1290
 3952TIP3    H111820   2.916   3.098   1.412  2.9501 -0.9042  0.0764
 3952TIP3    H211821   2.907   3.215   1.507  0.9783  0.3286 -1.5416
 3953TIP3   OH211822   5.204   3.645   1.936  0.3209 -0.6113 -0.1934
 3953TIP3    H111823   5.264   3.704   1.981  0.6780 -0.0331 -1.3949
 3953TIP3    H211824   5.256   3.609   1.864 -0.3944 -1.1002 -0.4675
 3954TIP3   OH211825   0.278   4.886   1.699  0.4255 -0.4006 -0.1834
 3954TIP3    H111826   0.250   4.842   1.780  1.9969 -0.5404  0.3219
 3954TIP3    H211827   0.242   4.832   1.629 -2.0927  0.4500  0.3758
 3955TIP3   OH211828   0.362   0.806   4.506  0.3082 -0.6012 -0.3750
 3955TIP3    H111829   0.448   0.821   4.468  0.2678 -1.7950 -0.9973
 3955TIP3    H211830   0.380   0.775   4.595  0.5424 -0.9475 -0.5380
 3956TIP3   OH211831   6.820   0.327   3.200  0.4243  0.0207 -0.5793
 3956TIP3    H111832   6.825   0.422   3.211 -0.2736 -0.0178  0.1832
 3956TIP3    H211833   6.863   0.292   3.278  0.8486 -0.2893 -0.9539
 3957TIP3   OH211834   1.500   2.800   0.918 -0.4513  0.1572  0.0314
 3957TIP3    H111835   1.497   2.894   0.901 -2.0354  0.2174  0.4521
 3957TIP3    H211836   1.583   2.786   0.964  0.4952  1.0979 -1.3187
 3958TIP3   OH211837   4.274   0.198   5.003  0.1545 -0.4050  0.2371
 3958TIP3    H111838   4.259   0.230   5.092 -0.2385 -0.8911  0.3480
 3958TIP3    H211839   4.320   0.116   5.014 -1.1012 -1.1607  0.0506
 3959TIP3   OH211840   5.071   6.754   2.628 -0.8685 -0.2194  0.8345
 3959TIP3    H111841   4.993   6.774   2.680 -3.2980 -1.4621 -2.0147
 3959TIP3    H211842   5.072   6.658   2.624 -1.7005 -0.2092 -2.4487
 3960TIP3   OH211843   0.579   4.405   3.469 -0.8045 -0.2716  0.1136
 3960TIP3    H111844   0.485   4.386   3.473 -0.9352  0.3699  0.1610
 3960TIP3    H211845   0.585   4.498   3.487 -0.2887  0.0277 -1.4312
 3961TIP3   OH211846   6.855   1.412   1.188 -0.6560 -0.3744 -0.1027
 3961TIP3    H111847   6.808   1.338   1.227 -0.7425 -0.9114 -1.1951
 3961TIP3    H211848   6.877   1.468   1.263 -2.0822 -0.6377  0.5466
 3962TIP3   OH211849   1.940   4.468   4.622  0.2480 -0.0283  0.6759
 3962TIP3    H111850   1.955   4.546   4.569 -1.1042 -0.1742  0.0357
 3962TIP3    H211851   2.017   4.413   4.607 -0.5269 -0.5375 -2.0064
 3963TIP3   OH211852   1.602   1.655   4.650  0.0636  0.4379 -0.0475
 3963TIP3    H111853   1.661   1.691   4.717 -1.1835 -1.5786  2.3444
 3963TIP3    H211854   1.528   1.715   4.648  0.2721  0.7027  0.1191
 3964TIP3   OH211855   6.340   1.702   3.268 -0.2443  0.4283  0.4368
 3964TIP3    H111856   6.288   1.700   3.187 -0.0243  1.4169  0.2612
 3964TIP3    H211857   6.278   1.674   3.336 -0.8634  1.0832  0.1527
 3965TIP3   OH211858   3.367   3.560   1.973  0.2943 -0.0332 -0.8092
 3965TIP3    H111859   3.312   3.533   2.047  2.0494 -0.2808  0.4571
 3965TIP3    H211860   3.433   3.618   2.012  0.7580  0.5249 -2.3433
 3966TIP3   OH211861   1.433   3.769   4.106 -0.2024  0.2472 -0.2493
 3966TIP3    H111862   1.386   3.818   4.039  0.1260  0.0709 -0.6178
 3966TIP3    H211863   1.383   3.688   4.116  0.1031 -0.0058 -0.7492
 3967TIP3   OH211864   4.857   4.985   3.272 -0.0966  0.0231  0.4209
 3967TIP3    H111865   4.762   4.974   3.268 -0.1220  0.4306 -0.2537
 3967TIP3    H211866   4.878   5.039   3.196  0.5213  1.1086  1.3311
 3968TIP3   OH211867   4.474   3.020   0.315  0.4009 -0.1921  0.0465
 3968TIP3    H111868   4.487   3.069   0.396  1.2507 -1.0477  0.4460
 3968TIP3    H211869   4.448   3.086   0.251  0.8499  0.6740  0.7376
 3969TIP3   OH211870   2.426   0.915   1.303  0.2529 -0.1981  0.0365
 3969TIP3    H111871   2.507   0.923   1.253  0.1202  1.7920  0.0511
 3969TIP3    H211872   2.379   0.997   1.285 -2.2939 -1.7589 -0.8613
 3970TIP3   OH211873   3.771   4.432   4.414 -0.2187 -0.4877  0.2124
 3970TIP3    H111874   3.845   4.404   4.468 -0.7561 -3.3251 -0.3680
 3970TIP3    H211875   3.809   4.488   4.347  1.3809 -1.6423  0.1111
 3971TIP3   OH211876   2.272   3.161   5.454 -0.5914  0.4029 -0.0433
 3971TIP3    H111877   2.207   3.093   5.472  0.8116 -1.6150 -2.0396
 3971TIP3    H211878   2.253   3.188   5.364 -0.1980  1.6259  0.2185
 3972TIP3   OH211879   2.475   4.253   0.404  0.3996 -0.2375 -0.0377
 3972TIP3    H111880   2.457   4.345   0.425 -0.8750 -0.6738  0.8585
 3972TIP3    H211881   2.401   4.226   0.350  0.6548 -0.8175 -0.0989
 3973TIP3   OH211882   0.046   1.541   0.882 -0.2254 -0.5240  0.3260
 3973TIP3    H111883  -0.027   1.489   0.916 -0.3972 -1.2013 -1.0094
 3973TIP3    H211884   0.124   1.501   0.920 -0.5200  0.3072  1.8996
 3974TIP3   OH211885   5.447   0.002   1.817  0.3639 -0.0985  0.3467
 3974TIP3    H111886   5.514  -0.009   1.885 -0.5434 -0.3078  1.2172
 3974TIP3    H211887   5.372   0.039   1.863 -0.2448 -0.1801 -0.5627
 3975TIP3   OH211888   2.446   4.315   4.247  0.2750  0.9100  0.4474
 3975TIP3    H111889   2.416   4.406   4.247 -0.4320  0.7048 -0.5537
 3975TIP3    H211890   2.444   4.289   4.339  0.0620  1.7803  0.6989
 3976TIP3   OH211891   1.639   0.901   2.364 -0.5094  0.4844 -0.2394
 3976TIP3    H111892   1.707   0.963   2.390  0.3270 -1.1470  1.7527
 3976TIP3    H211893   1.557   0.943   2.389 -0.1043  1.5372 -0.6364
 3977TIP3   OH211894   6.430   3.287   1.560  0.1353  0.3796 -0.6206
 3977TIP3    H111895   6.468   3.318   1.642 -0.1522 -0.0809 -0.3114
 3977TIP3    H211896   6.356   3.346   1.544 -1.4546 -1.0902  0.8320
 3978TIP3   OH211897   5.800   0.614   3.182  0.0292 -0.2946  0.2962
 3978TIP3    H111898   5.712   0.612   3.218 -0.4907  0.4671 -0.8804
 3978TIP3    H211899   5.790   0.591   3.089  0.7215  1.9902 -0.4154
 3979TIP3   OH211900   0.777   4.955   2.457  0.0278  0.4973  0.3856
 3979TIP3    H111901   0.750   4.870   2.423 -0.6693  0.3903  1.1676
 3979TIP3    H211902   0.696   5.006   2.461  0.1869  0.6987  1.2829
 3980TIP3   OH211903   0.778   5.694   5.112  0.0747  0.3592 -0.1120
 3980TIP3    H111904   0.705   5.653   5.158  0.6999 -1.9264 -1.0262
 3980TIP3    H211905   0.739   5.735   5.035 -0.2322 -1.2935 -0.8713
 3981TIP3   OH211906   5.735   0.328   2.483 -0.4390 -0.3725  0.9040
 3981TIP3    H111907   5.809   0.325   2.543  2.0108  1.0040 -1.7561
 3981TIP3    H211908   5.740   0.246   2.435  0.6638  0.4742 -0.5397
 3982TIP3   OH211909   6.596   5.218   3.237  0.6096 -0.4501 -0.5969
 3982TIP3    H111910   6.677   5.209   3.287 -1.1352 -3.3554  2.1064
 3982TIP3    H211911   6.596   5.142   3.178  0.1366 -0.1121 -1.0414
 3983TIP3   OH211912   6.815   4.227   0.285  0.0289 -0.1479  0.5313
 3983TIP3    H111913   6.817   4.322   0.294  1.6675  0.0507 -1.2747
 3983TIP3    H211914   6.724   4.207   0.262 -0.6505  0.7800  2.1872
 3984TIP3   OH211915   7.179   2.933   4.623  0.5058 -0.2971  0.1660
 3984TIP3    H111916   7.215   3.014   4.657 -0.3899  0.1291  0.1293
 3984TIP3    H211917   7.175   2.947   4.528  3.3694 -1.6255 -0.2562
 3985TIP3   OH211918   4.154   6.297   4.689  0.3121  0.2369  0.1738
 3985TIP3    H111919   4.074   6.346   4.706 -0.2600 -0.9733  1.1762
 3985TIP3    H211920   4.225   6.361   4.698 -0.5043  1.2108 -0.2370
 3986TIP3   OH211921   7.049   6.618   5.762  0.2771 -0.1298 -0.5799
 3986TIP3    H111922   7.058   6.706   5.798  0.7072 -0.8768  1.2743
 3986TIP3    H211923   7.019   6.631   5.672 -0.8795  1.8596  0.0355
 3987TIP3   OH211924   7.078   0.375   4.675  0.2728 -0.1797  0.0279
 3987TIP3    H111925   7.128   0.295   4.689  3.2023  1.7839  1.9719
 3987TIP3    H211926   7.088   0.393   4.582  2.2991 -0.5009  0.1283
 3988TIP3   OH211927   5.638   4.067   4.969  0.0142  0.4395 -0.3054
 3988TIP3    H111928   5.644   4.122   5.047 -1.4351  0.1656  0.0307
 3988TIP3    H211929   5.595   4.123   4.904  0.8567  0.5359 -0.7828
 3989TIP3   OH211930   0.753   4.964   1.692 -0.7234 -0.2762 -0.1530
 3989TIP3    H111931   0.758   4.889   1.634  0.6525 -0.0825 -0.3189
 3989TIP3    H211932   0.694   4.937   1.763 -1.7499 -0.8078 -1.1743
 3990TIP3   OH211933   0.962   2.601   5.127  0.1435 -0.0980 -0.3496
 3990TIP3    H111934   0.939   2.693   5.112  0.0605  0.3909  2.1885
 3990TIP3    H211935   0.960   2.561   5.041 -2.0455  1.7804 -1.2790
 3991TIP3   OH211936   2.669   2.641   5.099  0.1957 -0.3453  0.3416
 3991TIP3    H111937   2.584   2.604   5.076  0.3410 -0.1744 -0.5012
 3991TIP3    H211938   2.655   2.736   5.096  0.3582 -0.3184  0.4276
 3992TIP3   OH211939   3.371   2.678   3.570  0.2753 -0.3154 -0.0219
 3992TIP3    H111940   3.457   2.717   3.563 -0.5230  1.3934 -0.6983
 3992TIP3    H211941   3.333   2.717   3.649 -0.2637 -0.2847 -0.2945
 3993TIP3   OH211942   6.237   5.238   5.438  0.4923  0.5273 -0.1042
 3993TIP3    H111943   6.189   5.161   5.469  0.9594  0.0122 -0.6430
 3993TIP3    H211944   6.227   5.236   5.343  0.8345  0.9093 -0.1508
 3994TIP3   OH211945   5.134   2.322   2.183  0.5261  0.3922  0.6818
 3994TIP3    H111946   5.080   2.319   2.262  1.4460 -0.5604  1.3098
 3994TIP3    H211947   5.135   2.232   2.151  0.8963  0.6008  0.0925
 3995TIP3   OH211948   1.450   2.837   1.739 -0.4124 -0.5402  0.6168
 3995TIP3    H111949   1.516   2.769   1.728 -0.6617 -0.7095  0.1382
 3995TIP3    H211950   1.463   2.869   1.829  0.2672 -0.6199  0.5513
 3996TIP3   OH211951   2.794   6.119   0.924  0.2789  0.1190  0.2738
 3996TIP3    H111952   2.708   6.140   0.888  0.0186 -0.3094  0.6225
 3996TIP3    H211953   2.780   6.119   1.019  0.6757  0.1077  0.3312
 3997TIP3   OH211954   2.661   1.305   2.861 -0.2241 -0.1808  0.7085
 3997TIP3    H111955   2.565   1.306   2.862 -0.2316  1.8184  1.1967
 3997TIP3    H211956   2.684   1.286   2.770 -1.1075  0.6509  0.2932
 3998TIP3   OH211957   0.912   2.214   4.728 -0.0459  0.0921 -0.3739
 3998TIP3    H111958   0.972   2.247   4.661  1.2939 -2.0392 -0.3349
 3998TIP3    H211959   0.845   2.166   4.679  0.9542 -1.4976 -0.2855
 3999TIP3   OH211960   6.722   6.169   1.928 -0.6612 -0.3377  0.1678
 3999TIP3    H111961   6.795   6.107   1.925  0.5359  1.0578 -0.6491
 3999TIP3    H211962   6.691   6.174   1.838 -0.9384  0.0408  0.2831
 4000TIP3   OH211963   0.159   5.789   0.627  0.2048 -0.0463  0.7163
 4000TIP3    H111964   0.166   5.759   0.717 -0.2643  0.1382  0.8171
 4000TIP3    H211965   0.242   5.764   0.586  0.8026  0.6987  1.4430
 4001TIP3   OH211966   7.038   5.702   3.101  0.1130 -0.0857 -0.2445
 4001TIP3    H111967   6.962   5.644   3.111 -0.6879  0.7934 -1.0651
 4001TIP3    H211968   7.063   5.724   3.191  0.6253 -1.8964  0.1072
 4002TIP3   OH211969   2.716   4.650   2.808  0.8075  0.7417 -0.1175
 4002TIP3    H111970   2.796   4.638   2.859  1.5940  1.4598 -1.1149
 4002TIP3    H211971   2.719   4.742   2.781  0.1278  0.5336 -0.9394
 4003TIP3   OH211972   2.590   5.486   0.204 -0.1597 -0.6359  0.0994
 4003TIP3    H111973   2.539   5.525   0.276  2.1961  0.4291  1.3062
 4003TIP3    H211974   2.662   5.547   0.191 -0.2089 -1.0981 -2.8787
 4004TIP3   OH211975   3.400   3.830   0.511  0.2736 -0.1670  0.1416
 4004TIP3    H111976   3.349   3.897   0.465  1.3257  0.9459  0.5528
 4004TIP3    H211977   3.489   3.842   0.479  0.7902 -0.2351  1.5092
 4005TIP3   OH211978   6.379   3.846   2.280 -0.1182  0.2906 -0.1028
 4005TIP3    H111979   6.464   3.867   2.241  0.7004  0.2260  1.5692
 4005TIP3    H211980   6.334   3.930   2.287 -0.6889  0.1863 -2.0270
 4006TIP3   OH211981   3.293   1.688   4.121  0.2868  0.5555 -0.2093
 4006TIP3    H111982   3.232   1.761   4.114 -2.9670 -1.9949 -1.3765
 4006TIP3    H211983   3.301   1.655   4.031 -0.4749 -2.0195  0.5819
 4007TIP3   OH211984   3.025   5.413   1.954  0.2921 -0.0775  0.6755
 4007TIP3    H111985   3.055   5.365   1.877  0.4222  1.0129  0.0248
 4007TIP3    H211986   3.080   5.380   2.025  0.9780 -0.2741  0.0746
 4008TIP3   OH211987   5.233   6.235  -0.032  0.3206 -0.1120  0.4151
 4008TIP3    H111988   5.222   6.315   0.020  1.3691  0.2994  0.0412
 4008TIP3    H211989   5.299   6.185   0.016  0.1141 -0.4766  0.3202
 4009TIP3   OH211990   0.958   6.457   5.626 -0.1092 -0.2883  0.1217
 4009TIP3    H111991   1.053   6.458   5.620 -0.0812 -0.2487  0.5170
 4009TIP3    H211992   0.940   6.411   5.708 -0.4562 -1.1176 -0.4087
 4010TIP3   OH211993   1.178   0.906   3.691 -0.0162 -0.8208  0.2697
 4010TIP3    H111994   1.235   0.979   3.666  0.9258 -1.5506  0.2279
 4010TIP3    H211995   1.090   0.941   3.683  0.4209  0.3220  0.2736
 4011TIP3   OH211996   2.858   6.564   4.893 -0.3371  0.2833 -0.2554
 4011TIP3    H111997   2.894   6.525   4.813 -1.1051 -0.2877 -0.3258
 4011TIP3    H211998   2.769   6.591   4.869 -0.4282  0.4880  0.2952
 4012TIP3   OH211999   4.743   4.452   4.581  0.6888 -0.1907 -0.0839
 4012TIP3    H112000   4.820   4.468   4.635  1.0081 -1.8325 -0.0018
 4012TIP3    H212001   4.700   4.377   4.622  0.0387 -0.4302 -1.1641
 4013TIP3   OH212002   4.071   3.255   3.586 -0.8720  0.6715  0.2029
 4013TIP3    H112003   4.129   3.188   3.624 -0.2796  0.6388 -0.7264
 4013TIP3    H212004   3.986   3.239   3.627 -0.8696 -0.9822 -0.3602
 4014TIP3   OH212005   0.878   0.607   0.701 -0.1196  0.5596  0.8214
 4014TIP3    H112006   0.963   0.644   0.676  0.0675 -1.1180 -1.4212
 4014TIP3    H212007   0.836   0.675   0.752  1.9784  2.0327  0.7267
 4015TIP3   OH212008   1.744   5.360   0.191 -0.2687 -0.2393  0.3303
 4015TIP3    H112009   1.714   5.317   0.111 -1.7156 -0.3396  0.8879
 4015TIP3    H212010   1.797   5.293   0.235 -0.9268 -0.8143  0.2760
 4016TIP3   OH212011   5.658   3.463   0.139 -0.9462 -0.2923 -0.1647
 4016TIP3    H112012   5.647   3.543   0.191  1.0093  0.0875 -0.2589
 4016TIP3    H212013   5.670   3.495   0.049 -4.1133 -0.9344 -0.9082
 4017TIP3   OH212014   5.500   3.903   5.160 -0.2469 -0.0229  0.1408
 4017TIP3    H112015   5.485   3.813   5.130  0.4943  0.1840 -0.8801
 4017TIP3    H212016   5.547   3.945   5.088  0.2681  0.9106  1.0014
 4018TIP3   OH212017   1.388   4.605   0.295  0.4140  0.3472 -0.2197
 4018TIP3    H112018   1.316   4.597   0.232  1.0927  0.3442 -1.0170
 4018TIP3    H212019   1.429   4.519   0.295  0.6326  0.4518 -0.0360
 4019TIP3   OH212020   4.070   0.580   1.296  0.2233 -0.4274  0.4490
 4019TIP3    H112021   4.092   0.501   1.246  0.0604 -0.4218  0.3650
 4019TIP3    H212022   4.136   0.644   1.270  0.2201 -0.4661  0.3426
 4020TIP3   OH212023   6.154   4.516   0.970  0.2707  0.4784  0.1810
 4020TIP3    H112024   6.119   4.434   1.004  1.7749  0.0838  0.8502
 4020TIP3    H212025   6.186   4.494   0.882  1.1488  0.2034  0.5610
 4021TIP3   OH212026   2.417   2.347   4.112  0.1716 -0.0467  0.4967
 4021TIP3    H112027   2.397   2.253   4.113 -0.5250  0.0473 -1.0918
 4021TIP3    H212028   2.510   2.352   4.135  0.2381 -1.1282  0.5196
 4022TIP3   OH212029   2.271   0.474   4.245  0.4442  0.2272 -0.2483
 4022TIP3    H112030   2.212   0.420   4.193 -1.0323  0.8986  0.6495
 4022TIP3    H212031   2.221   0.494   4.324  2.7646 -1.1383  1.6824
 4023TIP3   OH212032   0.846   6.433   4.755 -0.1542  0.1269  0.5048
 4023TIP3    H112033   0.779   6.365   4.740  0.9452 -0.7055 -0.8146
 4023TIP3    H212034   0.918   6.386   4.796  0.1682  0.7406  0.6414
 4024TIP3   OH212035   5.171   2.030   2.890 -0.1311 -0.0032  0.1131
 4024TIP3    H112036   5.245   1.989   2.845  0.8672  0.4603  1.2757
 4024TIP3    H212037   5.117   1.957   2.921  0.8150 -0.4099  0.8288
 4025TIP3   OH212038   2.913   6.341   0.772  0.1665  0.0180  0.2825
 4025TIP3    H112039   2.931   6.251   0.744 -0.6877 -0.1436  0.2424
 4025TIP3    H212040   2.849   6.333   0.842 -0.4171  0.6193 -0.1593
 4026TIP3   OH212041   2.088   4.305   1.696  0.4273  0.6060  0.0309
 4026TIP3    H112042   2.069   4.224   1.648  2.1187 -2.4110  3.8835
 4026TIP3    H212043   2.182   4.317   1.684  0.3082  1.6321  0.1014
 4027TIP3   OH212044   4.256   0.844   4.462  0.4348 -0.0260  0.0355
 4027TIP3    H112045   4.245   0.909   4.393 -0.3340  0.2942  0.4527
 4027TIP3    H212046   4.232   0.889   4.543  0.0909 -0.7648  0.3571
 4028TIP3   OH212047   5.651   0.582   5.138 -0.0874  0.0828  0.5923
 4028TIP3    H112048   5.737   0.547   5.117 -0.8279 -0.3559 -2.1166
 4028TIP3    H212049   5.662   0.677   5.140  0.3457  0.0661 -0.4846
 4029TIP3   OH212050   4.944   2.273   0.946 -0.0016 -0.4550 -0.5787
 4029TIP3    H112051   4.850   2.256   0.941  0.3008 -1.8267 -3.1718
 4029TIP3    H212052   4.969   2.296   0.857  1.8575  1.7529  0.3955
 4030TIP3   OH212053   4.922   3.762   4.765  0.3887  0.0491  0.3078
 4030TIP3    H112054   4.891   3.850   4.743  1.6085  0.1108 -1.3703
 4030TIP3    H212055   4.919   3.759   4.861 -0.0428  1.7745  0.3814
 4031TIP3   OH212056   3.667   2.347   3.222  0.0888 -0.4388  0.0016
 4031TIP3    H112057   3.746   2.361   3.274  0.2243 -1.6804  0.1610
 4031TIP3    H212058   3.600   2.323   3.286 -0.1746 -0.3568 -0.2391
 4032TIP3   OH212059   2.594   1.163   4.902  0.3348 -0.1217 -0.3706
 4032TIP3    H112060   2.590   1.249   4.860  0.0571  0.4187  0.7208
 4032TIP3    H212061   2.503   1.133   4.906  0.2754  0.1439  0.4479
 4033TIP3   OH212062   0.934   5.945   2.675 -0.4096 -0.1175  0.4614
 4033TIP3    H112063   0.880   6.002   2.730 -0.1833 -0.3471  0.9361
 4033TIP3    H212064   0.934   5.861   2.722 -0.2464 -0.3287  0.0831
 4034TIP3   OH212065   6.229   3.508   5.796  0.6230 -0.1389  0.4254
 4034TIP3    H112066   6.276   3.554   5.726 -1.2176 -0.2667 -0.9729
 4034TIP3    H212067   6.212   3.421   5.761  0.2783 -0.4478  1.3294
 4035TIP3   OH212068   2.676   0.355   5.278 -0.4241  0.8134 -0.1180
 4035TIP3    H112069   2.624   0.395   5.208  0.3597  1.2590 -0.4650
 4035TIP3    H212070   2.764   0.348   5.241  0.2457  1.9819  1.1485
 4036TIP3   OH212071   1.946   5.150   1.734 -0.0595  0.4152 -0.0145
 4036TIP3    H112072   2.024   5.187   1.692  0.6210 -0.3537  0.5271
 4036TIP3    H212073   1.879   5.217   1.723 -0.3980 -0.3241 -3.6785
 4037TIP3   OH212074   5.793   4.750   2.226 -0.1226 -0.4929  0.1025
 4037TIP3    H112075   5.771   4.663   2.193  0.9960 -0.8850  0.3412
 4037TIP3    H212076   5.726   4.807   2.189 -1.6757 -1.6428  1.0260
 4038TIP3   OH212077   2.544   3.257   3.999  0.0587 -0.0305  0.3148
 4038TIP3    H112078   2.564   3.232   3.909  0.7119 -2.0834  0.9929
 4038TIP3    H212079   2.470   3.317   3.991 -0.1396 -0.4732 -1.5572
 4039TIP3   OH212080   1.477   4.867   0.297 -0.7876 -0.7205 -0.0865
 4039TIP3    H112081   1.552   4.840   0.245 -0.8371 -2.4012  0.6661
 4039TIP3    H212082   1.423   4.788   0.305 -1.7693  0.0090  0.8358
 4040TIP3   OH212083   1.749   4.306   4.538  0.2198 -0.1944 -0.0046
 4040TIP3    H112084   1.707   4.362   4.472 -1.5479  1.5514  2.4272
 4040TIP3    H212085   1.808   4.365   4.584 -0.4347 -0.7047  1.5371
 4041TIP3   OH212086   2.345   6.102   4.800  0.1576  0.1816 -0.0795
 4041TIP3    H112087   2.344   6.072   4.891 -1.1446 -0.6327 -0.3286
 4041TIP3    H212088   2.415   6.051   4.758 -0.5146 -0.8724  0.0385
 4042TIP3   OH212089   0.880   4.607   4.248  0.0473 -0.4993 -0.0384
 4042TIP3    H112090   0.859   4.697   4.271  1.6709  0.5329 -2.1681
 4042TIP3    H212091   0.962   4.590   4.294  1.0189  0.0351 -1.4978
 4043TIP3   OH212092   4.128   1.129   5.816 -0.8612  0.1364  0.9050
 4043TIP3    H112093   4.199   1.099   5.872 -0.5464 -0.7228  0.0782
 4043TIP3    H212094   4.171   1.182   5.749 -1.1147  0.3762  0.9309
 4044TIP3   OH212095   7.094   4.521   0.046 -0.0581 -0.0574  0.0138
 4044TIP3    H112096   7.037   4.567  -0.016  1.9569  2.2779 -0.2537
 4044TIP3    H212097   7.165   4.486  -0.009 -0.4658 -1.7368  0.5034
 4045TIP3   OH212098   1.679   4.737   4.229  0.3308  0.0237  0.3531
 4045TIP3    H112099   1.693   4.827   4.257 -1.4287  0.4407  0.0402
 4045TIP3    H212100   1.694   4.739   4.134 -2.9354  0.8286 -0.2625
 4046TIP3   OH212101   3.655   5.984   2.475  0.2248 -0.0752  0.3431
 4046TIP3    H112102   3.629   5.893   2.489 -1.7632 -0.2406 -3.2561
 4046TIP3    H212103   3.574   6.034   2.483  0.7650  0.9709 -0.5056
 4047TIP3   OH212104   4.837   5.912   3.797 -0.1206 -0.0310 -0.0237
 4047TIP3    H112105   4.795   5.959   3.869  1.7455  0.0508  1.0777
 4047TIP3    H212106   4.844   5.822   3.828  0.1580 -0.1292 -0.3678
 4048TIP3   OH212107   6.244   2.767   4.308  0.1005 -0.3366 -0.1908
 4048TIP3    H112108   6.311   2.718   4.356  1.0115 -0.2402 -1.2970
 4048TIP3    H212109   6.226   2.844   4.362  1.7147  0.2075 -0.3793
 4049TIP3   OH212110   2.375   4.729   3.232 -0.0282  0.1531 -0.3129
 4049TIP3    H112111   2.343   4.668   3.299  0.0956  0.8865  0.4253
 4049TIP3    H212112   2.460   4.758   3.264 -0.7684  1.9204  0.1362
 4050TIP3   OH212113   4.891   3.090   2.800 -0.1164  0.1515 -0.0634
 4050TIP3    H112114   4.834   3.019   2.830  0.2827 -0.7909 -1.4597
 4050TIP3    H212115   4.938   3.117   2.880 -1.4930  0.0193  0.8238
 4051TIP3   OH212116   0.099   0.086   0.628  0.0529 -0.0494 -0.4642
 4051TIP3    H112117   0.106  -0.009   0.619  1.0188  0.0174 -0.4551
 4051TIP3    H212118   0.008   0.105   0.605 -0.4897 -1.1036  0.6429
 4052TIP3   OH212119   1.871   1.197   1.915  0.4257 -0.0335  0.7507
 4052TIP3    H112120   1.817   1.119   1.929 -0.5216  0.1251 -1.5535
 4052TIP3    H212121   1.810   1.263   1.883  1.3839  1.3750  1.7510
 4053TIP3   OH212122   5.539   2.946   0.612 -0.1525  0.3637 -0.1856
 4053TIP3    H112123   5.504   2.860   0.633  1.2379 -0.0187  0.6552
 4053TIP3    H212124   5.633   2.933   0.604  0.2129  1.9770  0.9611
 4054TIP3   OH212125   6.898   4.569   5.167 -0.1946  0.3076  0.6079
 4054TIP3    H112126   6.941   4.652   5.186  1.4666  0.2484 -2.1825
 4054TIP3    H212127   6.810   4.593   5.139  0.2486  1.1603 -0.1032
 4055TIP3   OH212128   4.997   5.329  -0.016 -0.4394 -0.2522  0.0419
 4055TIP3    H112129   5.059   5.398   0.011  0.7249 -0.2810 -2.2895
 4055TIP3    H212130   5.014   5.257   0.045 -1.1245  1.1605  2.0328
 4056TIP3   OH212131   5.211   0.419   3.485  0.4288 -0.4208  0.2666
 4056TIP3    H112132   5.278   0.399   3.550 -0.4288 -0.9107  1.0277
 4056TIP3    H212133   5.154   0.482   3.528 -0.2461 -0.8782  0.0688
 4057TIP3   OH212134   4.576   1.085   2.787  0.2894  0.7865  0.2342
 4057TIP3    H112135   4.494   1.035   2.783  0.4011  0.5665  0.7217
 4057TIP3    H212136   4.603   1.093   2.695 -0.9436  1.9815 -0.0690
 4058TIP3   OH212137   2.094   2.711   4.553  0.7449  0.1754 -0.1180
 4058TIP3    H112138   2.084   2.761   4.472 -2.8053 -0.0390  0.0507
 4058TIP3    H212139   2.043   2.760   4.618  1.4365 -0.9960  1.3562
 4059TIP3   OH212140   3.549   5.702   3.731 -0.7003  0.4363 -0.1554
 4059TIP3    H112141   3.583   5.644   3.663 -1.2918 -1.4394  1.0635
 4059TIP3    H212142   3.623   5.759   3.753  0.2683 -0.5911 -0.6424
 4060TIP3   OH212143   2.655   0.922   1.170 -0.1817 -0.2872  0.0275
 4060TIP3    H112144   2.687   1.011   1.155  0.4170 -0.7064 -1.2677
 4060TIP3    H212145   2.724   0.865   1.135 -0.3468 -1.2807  1.2585
 4061TIP3   OH212146   0.102   0.016   0.077  0.1705  0.1635 -0.1199
 4061TIP3    H112147   0.089   0.070   0.155  0.0181 -1.1708  0.8114
 4061TIP3    H212148   0.153   0.071   0.018 -2.0895  2.2905 -0.2669
 4062TIP3   OH212149   4.736   1.720   4.167 -0.0331 -0.3462 -0.6771
 4062TIP3    H112150   4.756   1.809   4.138 -0.9310  0.1233  0.1034
 4062TIP3    H212151   4.693   1.731   4.252  1.1252 -1.6036  0.1189
 4063TIP3   OH212152   0.445   0.996   4.937  0.4747 -0.3453 -0.4688
 4063TIP3    H112153   0.429   0.940   5.013  1.5597 -0.9755 -0.6913
 4063TIP3    H212154   0.505   0.946   4.882  1.9138  1.2228 -0.4278
 4064TIP3   OH212155   3.362   3.454   5.594  0.3283  0.7042 -0.4722
 4064TIP3    H112156   3.286   3.418   5.548  0.0119  0.4063  0.2612
 4064TIP3    H212157   3.432   3.391   5.578 -0.3837 -0.6111  1.3117
 4065TIP3   OH212158   3.506   2.889   5.368 -0.0072  0.5482 -0.0595
 4065TIP3    H112159   3.415   2.908   5.389 -0.5338 -1.8993  0.2314
 4065TIP3    H212160   3.501   2.834   5.290  0.9316 -1.9711  1.5145
 4066TIP3   OH212161   6.190   0.503   2.761 -0.6094  0.2750 -0.0651
 4066TIP3    H112162   6.109   0.542   2.793 -0.3561  0.5417  0.2550
 4066TIP3    H212163   6.259   0.542   2.815 -0.4922 -1.9757  1.5360
 4067TIP3   OH212164   3.273   6.210   5.531  0.3187 -0.2606 -0.1303
 4067TIP3    H112165   3.296   6.208   5.624 -1.0696  1.9553  0.3332
 4067TIP3    H212166   3.179   6.196   5.529  0.3428 -0.3528 -1.2217
 4068TIP3   OH212167   0.038   4.677   0.280 -0.1656  0.4394  0.6587
 4068TIP3    H112168   0.063   4.587   0.259 -0.7033  0.8419 -2.0908
 4068TIP3    H212169   0.043   4.724   0.197  1.7455  3.4186  2.2702
 4069TIP3   OH212170   0.951   3.495   2.474 -0.3049 -0.0540  0.4339
 4069TIP3    H112171   0.967   3.567   2.413  1.1213 -0.7106 -0.0055
 4069TIP3    H212172   1.012   3.426   2.447 -1.5503 -1.4047  0.9080
 4070TIP3   OH212173   1.336   5.869   2.759 -0.0054  0.2550 -0.1053
 4070TIP3    H112174   1.305   5.943   2.707 -0.8868 -0.5790 -0.7906
 4070TIP3    H212175   1.379   5.811   2.696 -1.3535 -0.9156  0.0119
 4071TIP3   OH212176   1.592   0.730   5.473  0.2284 -0.3839 -0.4705
 4071TIP3    H112177   1.589   0.800   5.537  0.9471  1.1815 -2.0636
 4071TIP3    H212178   1.643   0.766   5.400 -0.3711 -2.1465 -1.8365
 4072TIP3   OH212179   2.869   3.524   3.224  0.3069  0.5101 -0.0501
 4072TIP3    H112180   2.800   3.587   3.206  0.3419 -0.0714 -2.6505
 4072TIP3    H212181   2.946   3.578   3.246 -0.4291  1.2096  0.8928
 4073TIP3   OH212182   0.554   4.001   5.661 -0.2204 -0.4308  0.0214
 4073TIP3    H112183   0.484   4.028   5.721  1.1772 -0.1703  1.6191
 4073TIP3    H212184   0.525   3.916   5.628  0.1070 -1.9021  3.1556
 4074TIP3   OH212185   0.240   2.671   1.376  0.6626 -0.5502 -0.3298
 4074TIP3    H112186   0.261   2.583   1.406  0.1989  0.0296  1.8339
 4074TIP3    H212187   0.183   2.658   1.301 -0.9667 -2.1208  1.0931
 4075TIP3   OH212188   2.430   0.529   2.424  0.2681 -0.0617  0.5730
 4075TIP3    H112189   2.400   0.443   2.393  1.9054 -0.2818 -0.5204
 4075TIP3    H212190   2.520   0.513   2.455  0.1543  1.0199  1.5137
 4076TIP3   OH212191   3.167   0.614   1.443  0.3235 -0.5299  0.6847
 4076TIP3    H112192   3.102   0.622   1.374 -0.1049 -0.2530  1.1174
 4076TIP3    H212193   3.167   0.522   1.466 -0.1034 -0.4857  0.8635
 4077TIP3   OH212194   2.802   5.846   1.842 -0.0895  0.2756 -0.9941
 4077TIP3    H112195   2.727   5.788   1.857  0.6981 -1.0053 -1.8511
 4077TIP3    H212196   2.779   5.927   1.887 -1.8400 -0.2081 -0.9592
 4078TIP3   OH212197   0.334   5.637   2.061 -0.1038  0.0064  0.3921
 4078TIP3    H112198   0.277   5.645   1.985  1.3101 -1.0552 -0.8458
 4078TIP3    H212199   0.375   5.724   2.069  0.4974 -0.1461 -0.7336
 4079TIP3   OH212200   6.093   3.759   1.505 -0.3134  0.1733  0.0829
 4079TIP3    H112201   6.143   3.840   1.501 -1.8724  1.1453 -1.3559
 4079TIP3    H212202   6.099   3.722   1.416 -1.5008 -0.0644  0.0824
 4080TIP3   OH212203   1.399   3.316   5.811 -0.3208 -0.0598 -0.3320
 4080TIP3    H112204   1.453   3.239   5.792  0.3326  0.2839  0.0784
 4080TIP3    H212205   1.364   3.300   5.898 -0.6675 -0.1648 -0.4924
 4081TIP3   OH212206   0.455   6.553   2.956 -0.5768 -0.2333 -0.4115
 4081TIP3    H112207   0.508   6.535   2.878 -1.3469  0.0072 -1.0052
 4081TIP3    H212208   0.476   6.644   2.978  0.8572 -0.7801  0.6477
 4082TIP3   OH212209   1.282   2.024   1.429  0.5737  0.1510  0.0613
 4082TIP3    H112210   1.299   2.118   1.424 -0.3651  0.4096  1.3064
 4082TIP3    H212211   1.355   1.988   1.480  0.3317  0.3832  0.5712
 4083TIP3   OH212212   3.937   4.525   4.855 -0.1897  0.2170  0.2449
 4083TIP3    H112213   3.956   4.618   4.852 -0.9670  0.3783 -0.1771
 4083TIP3    H212214   3.963   4.497   4.943 -1.3298  1.1587  0.9221
 4084TIP3   OH212215   4.833   0.658   2.926 -0.2469  0.2893  0.5777
 4084TIP3    H112216   4.842   0.628   3.016 -2.5551 -2.6025 -0.0130
 4084TIP3    H212217   4.859   0.583   2.872  1.3039  2.0178 -1.2443
 4085TIP3   OH212218   0.363   6.495   1.047 -0.2174 -0.4844 -0.7545
 4085TIP3    H112219   0.331   6.508   0.958 -1.9388  2.4953  0.1662
 4085TIP3    H212220   0.290   6.455   1.094  1.1512 -3.4023 -0.8522
 4086TIP3   OH212221   2.843   2.285   4.385  0.1533  0.3502 -0.3649
 4086TIP3    H112222   2.817   2.374   4.411 -1.6849 -0.4846  0.8413
 4086TIP3    H212223   2.779   2.260   4.319 -0.2245 -0.5979  0.3428
 4087TIP3   OH212224   4.058   5.473   4.692  0.7082  0.6543  0.5603
 4087TIP3    H112225   4.056   5.379   4.708 -0.0156  0.4926 -0.3796
 4087TIP3    H212226   4.147   5.490   4.660  0.6317  0.1708  0.0788
 4088TIP3   OH212227   2.343   3.472   4.004 -0.0601  0.3357 -0.4730
 4088TIP3    H112228   2.300   3.553   4.031 -2.1520 -0.6507 -0.6552
 4088TIP3    H212229   2.282   3.403   4.030  1.7042 -1.2117 -0.2442
 4089TIP3   OH212230   1.690   3.467   2.408  0.4765 -0.4628  0.3208
 4089TIP3    H112231   1.663   3.557   2.426  0.1431 -0.5483  0.2515
 4089TIP3    H212232   1.610   3.423   2.379 -0.2842 -1.7827  3.9134
 4090TIP3   OH212233   4.395   3.495   4.437 -1.0095 -0.0203  0.3519
 4090TIP3    H112234   4.425   3.414   4.396 -0.4785 -0.7849  2.1625
 4090TIP3    H212235   4.314   3.470   4.482 -1.2773  0.6590  0.2537
 4091TIP3   OH212236   7.027   3.320   2.858  0.5786  0.0667 -0.1700
 4091TIP3    H112237   7.019   3.378   2.934  0.3205 -0.6274  0.3418
 4091TIP3    H212238   6.992   3.236   2.888  2.1393 -0.7298 -0.4983
 4092TIP3   OH212239   6.370   0.256   2.752  0.1466 -0.4394 -0.3095
 4092TIP3    H112240   6.313   0.333   2.741 -0.6890 -0.8838  0.8448
 4092TIP3    H212241   6.379   0.222   2.663  0.3023  0.8239 -0.8089
 4093TIP3   OH212242   0.632   4.424   2.338  0.0382  0.0565  0.0489
 4093TIP3    H112243   0.708   4.383   2.299 -1.1074 -1.5983 -0.5605
 4093TIP3    H212244   0.616   4.374   2.418 -1.3963 -0.8114 -0.7213
 4094TIP3   OH212245   2.420   4.103   2.997 -0.0673 -0.5780  0.3303
 4094TIP3    H112246   2.390   4.188   3.031  0.5214  0.4640 -1.6056
 4094TIP3    H212247   2.339   4.054   2.981 -0.5416  0.4543 -0.5403
 4095TIP3   OH212248   5.893   5.098   1.613  0.3890  0.2094  0.3198
 4095TIP3    H112249   5.851   5.141   1.687  0.5241 -0.0122  0.5282
 4095TIP3    H212250   5.969   5.154   1.592  0.6947 -0.0455  0.7352
 4096TIP3   OH212251   6.565   0.289   1.107 -0.0411 -0.2223 -0.4562
 4096TIP3    H112252   6.544   0.360   1.046  2.3255  1.8126  0.9041
 4096TIP3    H212253   6.515   0.310   1.186  0.3314 -0.2955 -0.1958
 4097TIP3   OH212254   0.085   5.598   1.864  0.3271 -0.1397  0.7463
 4097TIP3    H112255   0.159   5.544   1.836  0.0443 -0.0499 -0.2375
 4097TIP3    H212256   0.009   5.539   1.858 -0.0314  0.4169 -0.6314
 4098TIP3   OH212257   2.816   4.268   3.541 -0.2540  0.0147  0.2046
 4098TIP3    H112258   2.766   4.350   3.545  0.0596  0.2363 -0.2236
 4098TIP3    H212259   2.819   4.247   3.447  1.5046  0.6856  0.0630
 4099TIP3   OH212260   2.438   1.227   5.195  0.2453 -0.1211  0.5162
 4099TIP3    H112261   2.367   1.289   5.212 -0.5999 -1.6044  2.8489
 4099TIP3    H212262   2.510   1.281   5.162 -0.8175  1.9254  1.3747
 4100TIP3   OH212263   4.307   1.097   2.522  0.3297  0.0835 -0.4651
 4100TIP3    H112264   4.291   1.116   2.430 -0.9204  0.5946 -0.1655
 4100TIP3    H212265   4.402   1.103   2.532  0.3681  1.3842 -1.4377
 4101TIP3   OH212266   3.117   0.355   2.040  0.4536 -0.2312  0.3662
 4101TIP3    H112267   3.127   0.294   1.967 -0.6450 -0.0435  0.0314
 4101TIP3    H212268   3.145   0.439   2.006 -1.8567  0.2697 -0.5259
 4102TIP3   OH212269   0.233   4.645   2.480 -0.0103  0.2502 -0.0436
 4102TIP3    H112270   0.253   4.575   2.418 -0.0919  1.2003 -1.1746
 4102TIP3    H212271   0.156   4.614   2.527  1.2307 -1.3673  1.0382
 4103TIP3   OH212272   3.378   3.048   4.184 -0.3739  0.0873  0.0473
 4103TIP3    H112273   3.409   3.138   4.194 -0.5177 -0.0108  1.6546
 4103TIP3    H212274   3.454   3.000   4.151 -0.6223  0.9898 -1.9414
 4104TIP3   OH212275   6.352   2.662   0.936  0.3704 -0.1631  0.5338
 4104TIP3    H112276   6.313   2.580   0.905  1.4929 -0.8977  0.9999
 4104TIP3    H212277   6.332   2.664   1.029 -0.3392  0.5083  0.3782
 4105TIP3   OH212278   0.589   4.411   2.038  0.0091  0.5437 -0.0820
 4105TIP3    H112279   0.654   4.459   1.986  0.0210  1.8628  1.0974
 4105TIP3    H212280   0.633   4.396   2.122 -0.4757 -0.4106  0.0134
 4106TIP3   OH212281   5.503   3.855   3.469  0.4896  0.1050 -0.2770
 4106TIP3    H112282   5.493   3.882   3.377 -0.8893  0.5786 -0.0192
 4106TIP3    H212283   5.414   3.836   3.498  0.8352  0.4852  1.1193
 4107TIP3   OH212284   6.351   2.421   1.533 -0.4102  0.1611 -0.0535
 4107TIP3    H112285   6.307   2.472   1.600 -1.8270  3.8434 -3.3963
 4107TIP3    H212286   6.444   2.430   1.552 -0.7047  2.5900  0.4884
 4108TIP3   OH212287   3.497   1.705   1.505 -0.1619 -0.1082  0.4939
 4108TIP3    H112288   3.449   1.734   1.427  1.2781  0.8056 -0.0914
 4108TIP3    H212289   3.460   1.619   1.525 -0.7844 -0.2277 -1.0084
 4109TIP3   OH212290   4.617   3.129   5.472 -0.2845  0.3355  0.2147
 4109TIP3    H112291   4.585   3.098   5.557  0.3910  0.7524  0.6291
 4109TIP3    H212292   4.711   3.142   5.485 -0.2532  0.8251 -0.4745
 4110TIP3   OH212293   2.566   2.288   0.491 -0.5091  0.2841 -0.1381
 4110TIP3    H112294   2.655   2.266   0.517 -0.7716 -0.0534  0.5067
 4110TIP3    H212295   2.559   2.260   0.400  0.4731  1.5940 -0.6509
 4111TIP3   OH212296   4.723   1.549   1.796 -0.1786  0.3632 -0.0387
 4111TIP3    H112297   4.645   1.582   1.843  1.3506  0.2468  2.8070
 4111TIP3    H212298   4.776   1.507   1.864  1.4570 -1.3948 -2.2538
 4112TIP3   OH212299   3.943   2.753   4.468 -0.1918 -0.1637 -0.4292
 4112TIP3    H112300   3.985   2.780   4.550 -3.3421 -1.1935  1.6932
 4112TIP3    H212301   3.988   2.672   4.444  0.9120  0.2561  0.1515
 4113TIP3   OH212302   1.803   1.227   1.182 -0.3054  0.1716 -0.5385
 4113TIP3    H112303   1.850   1.204   1.263  1.5313 -1.8974 -2.0658
 4113TIP3    H212304   1.723   1.174   1.185 -0.8378  0.9858  0.4089
 4114TIP3   OH212305   3.000   3.912   0.792 -0.1220 -0.1101 -0.3313
 4114TIP3    H112306   2.921   3.955   0.824  0.3498  1.6682 -1.4004
 4114TIP3    H212307   2.985   3.900   0.698 -0.8525 -3.8139  0.1184
 4115TIP3   OH212308   2.791   5.680   0.499 -0.4411  0.7786 -0.1944
 4115TIP3    H112309   2.698   5.662   0.508 -0.5814  0.2573 -2.0765
 4115TIP3    H212310   2.795   5.768   0.461 -0.2532  0.3906 -1.1180
 4116TIP3   OH212311   3.423   2.428   0.997  0.6156  0.1145 -0.2576
 4116TIP3    H112312   3.511   2.463   1.003  0.3528  0.7128  0.2698
 4116TIP3    H212313   3.367   2.505   0.985  0.2222 -0.3090 -1.2579
 4117TIP3   OH212314   2.637   3.915   0.942 -0.1801  0.0808  0.0982
 4117TIP3    H112315   2.684   3.991   0.977  0.8220 -0.1920 -0.6022
 4117TIP3    H212316   2.692   3.840   0.964 -0.4427 -0.2831 -0.4496
 4118TIP3   OH212317   6.148   2.481   1.316 -0.1330 -0.0358 -0.8825
 4118TIP3    H112318   6.097   2.556   1.346 -1.3529 -0.2763 -2.2440
 4118TIP3    H212319   6.170   2.434   1.396  0.6392  1.7313 -0.0030
 4119TIP3   OH212320   5.759   0.829   3.408  0.3081 -0.0402  0.3823
 4119TIP3    H112321   5.826   0.796   3.348  1.1688  2.2904 -0.0261
 4119TIP3    H212322   5.757   0.764   3.479  2.5178 -0.5230  0.0701
 4120TIP3   OH212323   5.006   1.962   0.323 -0.4377 -0.3089 -0.3908
 4120TIP3    H112324   5.022   1.897   0.391 -1.4447 -1.1426 -0.9346
 4120TIP3    H212325   5.076   1.948   0.259  0.0404 -0.0528  0.0642
 4121TIP3   OH212326   2.521   4.484   0.674  0.2090 -0.2857  0.1843
 4121TIP3    H112327   2.514   4.576   0.650 -0.4952 -0.2612  0.4722
 4121TIP3    H212328   2.598   4.452   0.625  1.8647  0.9811  1.8057
 4122TIP3   OH212329   4.657   1.970   3.655 -0.1045 -0.0763 -0.1362
 4122TIP3    H112330   4.743   2.012   3.657 -0.2366  0.2495 -0.9640
 4122TIP3    H212331   4.598   2.034   3.695  0.2502 -0.8625  1.7419
 4123TIP3   OH212332   0.758   4.392   3.763 -0.4179  0.0836 -0.0231
 4123TIP3    H112333   0.768   4.479   3.803  0.4786  0.2028 -0.4927
 4123TIP3    H212334   0.664   4.376   3.766 -0.4402  0.3556  1.5638
 4124TIP3   OH212335   2.104   4.448   1.000  0.3044  0.0523 -0.1149
 4124TIP3    H112336   2.054   4.493   0.932 -0.7418 -1.2610 -0.2671
 4124TIP3    H212337   2.137   4.517   1.056  0.3819  1.1117 -1.4103
 4125TIP3   OH212338   1.435   5.803   0.216  0.3324 -0.0301  0.0770
 4125TIP3    H112339   1.445   5.863   0.291  1.5358 -0.0859 -0.0233
 4125TIP3    H212340   1.478   5.723   0.244 -0.0382 -0.3732 -0.3285
 4126TIP3   OH212341   2.848   0.036   5.828  0.5890  0.7706  0.1412
 4126TIP3    H112342   2.801   0.025   5.745  1.2554  0.6305 -0.2238
 4126TIP3    H212343   2.798  -0.017   5.891  1.0397 -0.5034 -0.5401
 4127TIP3   OH212344   2.976   2.197   2.932  0.0666 -0.1129  0.1207
 4127TIP3    H112345   2.971   2.289   2.957 -0.5153 -0.4098  1.1596
 4127TIP3    H212346   3.056   2.165   2.975  1.0288  0.2101 -1.3538
 4128TIP3   OH212347   1.932   1.535   2.830  0.6033 -0.8953 -0.4163
 4128TIP3    H112348   1.963   1.474   2.897 -0.1146 -1.6771 -0.7673
 4128TIP3    H212349   1.837   1.538   2.843  0.7365  1.0219  0.2959
 4129TIP3   OH212350   1.488   5.984   0.781  0.0710 -0.5742 -0.3682
 4129TIP3    H112351   1.504   5.891   0.800  0.2442 -0.3364  0.7251
 4129TIP3    H212352   1.408   6.004   0.831 -0.1287 -0.2112 -0.8361
 4130TIP3   OH212353   2.183   1.936   1.358 -0.5592  0.1873  0.1915
 4130TIP3    H112354   2.195   1.963   1.448  0.7343  0.3861 -0.0228
 4130TIP3    H212355   2.236   1.857   1.349 -3.9700 -2.3859  0.7148
 4131TIP3   OH212356   5.382   4.465   1.841 -0.8207 -0.2991  0.5873
 4131TIP3    H112357   5.389   4.551   1.882  0.1453 -0.1998  0.2390
 4131TIP3    H212358   5.288   4.444   1.844 -1.2009  1.1914 -0.1908
 4132TIP3   OH212359   1.960   1.587   2.535 -0.6999  0.7189 -0.2273
 4132TIP3    H112360   2.027   1.603   2.602  0.5820 -1.1298 -0.9948
 4132TIP3    H212361   1.902   1.522   2.575 -1.3950  1.4654 -0.0009
 4133TIP3   OH212362   0.059   1.236   3.554 -0.1789 -0.4033  0.1949
 4133TIP3    H112363   0.085   1.298   3.623  3.5330 -1.2626 -0.1950
 4133TIP3    H212364   0.066   1.150   3.595 -0.1378 -0.8032 -0.6315
 4134TIP3   OH212365   4.692   5.586   0.623  0.2392 -0.6703  0.1030
 4134TIP3    H112366   4.738   5.669   0.640 -0.5914 -0.3738  0.9803
 4134TIP3    H212367   4.737   5.549   0.547 -0.8030  1.7034 -1.8023
 4135TIP3   OH212368   4.151   1.836   1.407 -0.0807 -0.6048 -0.0356
 4135TIP3    H112369   4.147   1.929   1.386 -0.4838 -0.4463  0.7124
 4135TIP3    H212370   4.236   1.824   1.448 -0.8632 -0.1226  1.8322
 4136TIP3   OH212371   4.667   4.109   2.591 -0.5147  0.2001  0.4506
 4136TIP3    H112372   4.743   4.101   2.533 -1.3870 -2.5349 -0.4814
 4136TIP3    H212373   4.657   4.203   2.606  3.0185  0.6797  0.6150
 4137TIP3   OH212374   6.842   5.503   3.909 -0.5201  0.3125 -0.0227
 4137TIP3    H112375   6.915   5.492   3.848 -0.3355 -0.9153  0.3935
 4137TIP3    H212376   6.859   5.439   3.978 -1.1708  1.0890  0.8939
 4138TIP3   OH212377   1.702   6.162   2.929 -0.4265 -0.3558  0.2731
 4138TIP3    H112378   1.747   6.100   2.871  0.5218 -1.0099  1.6633
 4138TIP3    H212379   1.764   6.233   2.942 -1.4216  0.8377 -1.1226
 4139TIP3   OH212380   6.538   6.191   2.452  0.6639  0.5524  0.3424
 4139TIP3    H112381   6.500   6.278   2.467  1.0745  0.9487 -0.8079
 4139TIP3    H212382   6.556   6.189   2.358  0.1793 -0.9879  0.2585
 4140TIP3   OH212383   4.740   3.970   2.828  0.0584  0.1471  0.1228
 4140TIP3    H112384   4.724   4.007   2.741  0.1892  0.5815  0.2814
 4140TIP3    H212385   4.835   3.957   2.831 -0.0099 -0.3749 -0.0008
 4141TIP3   OH212386   0.559   2.347   4.772 -0.1828  0.1250  0.0011
 4141TIP3    H112387   0.474   2.351   4.728 -0.3348  0.5839  0.3346
 4141TIP3    H212388   0.547   2.396   4.854  1.1363  2.5917 -1.1633
 4142TIP3   OH212389   1.953   6.467   5.772  0.1138  0.2317  0.6107
 4142TIP3    H112390   1.966   6.443   5.864 -1.7616 -0.1510  0.8154
 4142TIP3    H212391   2.030   6.433   5.727  0.8985  0.1167  1.9819
 4143TIP3   OH212392   1.293   0.495   2.934 -0.4179 -0.5879  0.1381
 4143TIP3    H112393   1.274   0.405   2.961  0.4186 -0.6721  0.4722
 4143TIP3    H212394   1.366   0.487   2.872 -0.2489 -0.1288  0.2752
 4144TIP3   OH212395   0.322   1.847   4.366 -0.0109  0.4828 -0.0676
 4144TIP3    H112396   0.227   1.848   4.352 -0.2405 -1.3507  1.1104
 4144TIP3    H212397   0.335   1.895   4.448 -0.0531 -0.2307  0.3642
 4145TIP3   OH212398   6.481   1.659   3.533  0.4550 -0.4655 -0.0869
 4145TIP3    H112399   6.559   1.603   3.536 -0.9694 -2.6227  3.2035
 4145TIP3    H212400   6.446   1.647   3.445  3.3732  0.0071 -1.4111
 4146TIP3   OH212401   6.390   6.117   3.615  0.2195  0.0361  0.3249
 4146TIP3    H112402   6.424   6.198   3.653 -1.0952  1.1610 -0.7831
 4146TIP3    H212403   6.424   6.116   3.526 -1.1198  0.2547 -0.2123
 4147TIP3   OH212404   3.935   2.342   2.093  0.5641  0.9128  0.0770
 4147TIP3    H112405   3.931   2.380   2.181 -1.3717  0.2538  0.3240
 4147TIP3    H212406   3.949   2.248   2.108  2.4465  1.0723 -0.4345
 4148TIP3   OH212407   6.793   2.416   2.860  0.4827  0.3331  0.1152
 4148TIP3    H112408   6.757   2.461   2.784  1.3429  1.2888  0.2449
 4148TIP3    H212409   6.858   2.477   2.895  1.0482 -0.6495  0.8312
 4149TIP3   OH212410   3.866   0.687   0.574 -0.3037 -0.1176  0.0535
 4149TIP3    H112411   3.934   0.726   0.630  0.2663  0.3599 -0.9434
 4149TIP3    H212412   3.836   0.611   0.623 -0.2804  0.6469  1.3107
 4150TIP3   OH212413   7.068   5.323   3.453 -0.6029  0.6885 -0.4212
 4150TIP3    H112414   7.019   5.389   3.502  0.8288  1.1725  0.4128
 4150TIP3    H212415   7.159   5.334   3.481 -0.1203 -0.7334 -1.2941
 4151TIP3   OH212416   0.774   2.402   1.743 -0.4913  0.1214  0.7388
 4151TIP3    H112417   0.804   2.322   1.699 -0.4538  0.0798  0.8377
 4151TIP3    H212418   0.802   2.390   1.834 -2.5650 -0.8335  1.3021
 4152TIP3   OH212419   4.298   1.338   1.924 -0.1905  0.3198  0.3603
 4152TIP3    H112420   4.286   1.431   1.908  2.2918  0.5419 -0.5608
 4152TIP3    H212421   4.345   1.305   1.848 -1.2380 -1.7853  0.5224
 4153TIP3   OH212422   6.150   2.059   5.250  0.4512  0.0001 -1.4113
 4153TIP3    H112423   6.063   2.099   5.255  0.6211  0.2621 -0.1982
 4153TIP3    H212424   6.155   2.004   5.329  1.4239  0.0653 -1.4225
 4154TIP3   OH212425   0.748   0.490   3.590  0.0760  0.0291  0.1722
 4154TIP3    H112426   0.758   0.397   3.612 -0.2893  0.2297  1.2708
 4154TIP3    H212427   0.830   0.530   3.618  1.3943 -0.3461 -2.8050
 4155TIP3   OH212428   0.766   4.891   5.004 -0.2247  0.4980  0.0132
 4155TIP3    H112429   0.820   4.969   5.017 -1.0878  1.4031 -1.5301
 4155TIP3    H212430   0.681   4.914   5.041 -0.1695 -0.1598  0.5777
 4156TIP3   OH212431   4.709   1.664   2.281 -0.2224  0.1875 -0.5288
 4156TIP3    H112432   4.734   1.742   2.233 -1.8256  1.0848  0.0065
 4156TIP3    H212433   4.656   1.613   2.219 -2.5622  1.4986  0.2825
 4157TIP3   OH212434   2.511   0.173   4.208 -0.0237  0.0624 -0.1664
 4157TIP3    H112435   2.518   0.081   4.233  0.2202 -0.2093 -1.2213
 4157TIP3    H212436   2.601   0.201   4.194 -0.0041  0.7858  1.2436
 4158TIP3   OH212437   0.965   3.023   5.481 -0.1289  0.2754 -0.1191
 4158TIP3    H112438   0.870   3.013   5.486 -0.0401 -0.8502 -0.3601
 4158TIP3    H212439   0.985   3.099   5.536 -1.1258  0.3042  0.2153
 4159TIP3   OH212440   3.205   0.286   4.597 -0.2462 -0.1696 -0.5699
 4159TIP3    H112441   3.255   0.304   4.518  0.5464 -2.4888 -0.6909
 4159TIP3    H212442   3.198   0.370   4.641  0.9826  0.8144 -2.1469
 4160TIP3   OH212443   0.212   5.673   3.175  0.2006  0.0242 -0.1370
 4160TIP3    H112444   0.196   5.581   3.152 -0.6744 -0.1945  1.2105
 4160TIP3    H212445   0.154   5.722   3.117 -3.1234 -0.5965  2.3302
 4161TIP3   OH212446   2.090   0.578   5.690 -0.5552  0.1210  0.3587
 4161TIP3    H112447   2.094   0.641   5.618 -0.1920 -1.2461 -0.8678
 4161TIP3    H212448   2.174   0.587   5.735 -0.8346  1.0749  0.7127
 4162TIP3   OH212449   1.259   5.895   2.218 -0.2866 -0.0670 -0.3470
 4162TIP3    H112450   1.206   5.823   2.254 -1.7918  0.3379 -1.6213
 4162TIP3    H212451   1.315   5.853   2.153  0.2937 -0.3617  0.3300
 4163TIP3   OH212452   7.008   4.350   2.073 -0.9002 -0.1026  0.2545
 4163TIP3    H112453   7.066   4.410   2.025  0.2398 -1.3216  0.0403
 4163TIP3    H212454   6.923   4.361   2.031 -0.1996 -0.2536 -1.2644
 4164TIP3   OH212455   1.748   4.017   3.139  0.2784 -0.4323  0.0146
 4164TIP3    H112456   1.818   3.979   3.192 -0.4872 -0.5160  1.0044
 4164TIP3    H212457   1.723   4.097   3.184  2.7450  2.1182 -2.7333
 4165TIP3   OH212458   2.896   6.632   3.068  0.0176  0.5453  0.1112
 4165TIP3    H112459   2.967   6.693   3.047 -0.0229  0.3082 -0.7627
 4165TIP3    H212460   2.916   6.553   3.018 -1.3017  0.7794 -0.8624
 4166TIP3   OH212461   4.811   6.659   0.366  0.5960  0.3975  0.5682
 4166TIP3    H112462   4.877   6.719   0.400 -0.8694  1.3133  2.0017
 4166TIP3    H212463   4.734   6.715   0.352 -0.1914 -0.8021 -0.0139
 4167TIP3   OH212464   6.172   0.304   0.569 -0.2339 -0.3652  0.7825
 4167TIP3    H112465   6.155   0.213   0.543  0.2675 -0.1258 -0.4246
 4167TIP3    H212466   6.118   0.356   0.511  0.2083  0.1485  0.8269
 4168TIP3   OH212467   5.496   0.373   1.914 -0.3883 -0.0056 -0.0921
 4168TIP3    H112468   5.424   0.426   1.948  0.5580  0.4947  1.2224
 4168TIP3    H212469   5.490   0.382   1.819 -2.0324  0.0330 -0.0225
 4169TIP3   OH212470   0.324   2.366   4.088  0.1542 -0.0048  0.2819
 4169TIP3    H112471   0.379   2.291   4.110  2.8213  1.7919  0.1974
 4169TIP3    H212472   0.249   2.359   4.146  0.3222 -2.6881  0.2779
 4170TIP3   OH212473   1.493   2.351   5.636  0.0143 -0.1394 -0.4894
 4170TIP3    H112474   1.579   2.330   5.673 -0.2590 -2.1238 -0.8334
 4170TIP3    H212475   1.483   2.445   5.648  1.3987 -0.1771  1.3395
 4171TIP3   OH212476   3.342   2.672   5.723  0.0415  0.6136 -0.5546
 4171TIP3    H112477   3.351   2.756   5.768 -0.5629  0.1268  0.5275
 4171TIP3    H212478   3.432   2.639   5.716  0.0906  0.1615  1.4448
 4172TIP3   OH212479   7.040   2.558   0.551  0.2043 -0.1931  0.0309
 4172TIP3    H112480   6.945   2.550   0.543  0.2956 -1.6718  0.1308
 4172TIP3    H212481   7.074   2.517   0.471  0.7531  1.1806 -0.4677
 4173TIP3   OH212482   3.034   2.841   3.553 -0.2371 -0.2742  0.0303
 4173TIP3    H112483   3.052   2.864   3.462 -0.5393  0.6203  0.1839
 4173TIP3    H212484   3.101   2.887   3.603 -0.8006  0.2175  0.3405
 4174TIP3   OH212485   3.876   5.731   5.677  0.0234 -0.0687 -0.6652
 4174TIP3    H112486   3.847   5.777   5.756  1.8547 -3.6610  2.4836
 4174TIP3    H212487   3.964   5.765   5.661 -0.2909  0.5562 -1.0966
 4175TIP3   OH212488   3.286   6.769   5.353 -0.3444  0.2554 -0.4127
 4175TIP3    H112489   3.369   6.743   5.392 -0.1443  1.2951 -0.1105
 4175TIP3    H212490   3.252   6.837   5.411 -2.0184 -0.9844  0.1396
 4176TIP3   OH212491   3.714   5.434   4.591 -0.5334  0.9724  0.1600
 4176TIP3    H112492   3.699   5.412   4.499 -0.2599 -1.7965  0.6837
 4176TIP3    H212493   3.781   5.502   4.589 -1.4632  1.8963 -1.6919
 4177TIP3   OH212494   1.377   4.856   5.021  0.0649  0.1638  0.0843
 4177TIP3    H112495   1.462   4.823   4.992 -1.3659 -0.5117 -3.9915
 4177TIP3    H212496   1.323   4.778   5.034 -0.4563  0.6241  0.7649
 4178TIP3   OH212497   5.786   5.034   4.105  0.2387  0.5759  0.0843
 4178TIP3    H112498   5.769   5.081   4.024 -0.9571 -1.7818 -1.1270
 4178TIP3    H212499   5.862   4.980   4.087  0.8630  1.1003  1.0493
 4179TIP3   OH212500   4.627   6.329   5.284 -0.2862  0.0791  0.4755
 4179TIP3    H112501   4.544   6.318   5.237  0.3262 -0.4845 -0.5356
 4179TIP3    H212502   4.608   6.390   5.354 -1.3705  0.5917 -0.2398
 4180TIP3   OH212503   4.655   2.377   5.124  0.3696  0.2414  0.0275
 4180TIP3    H112504   4.730   2.324   5.096 -0.3570 -1.0765  0.4640
 4180TIP3    H212505   4.685   2.421   5.203  0.1780 -1.6779  1.2444
 4181TIP3   OH212506   2.923   1.949   0.251  0.1467  0.4379 -0.0488
 4181TIP3    H112507   2.903   1.925   0.341  0.6458 -1.4791 -0.4160
 4181TIP3    H212508   2.887   1.878   0.198  1.1280  0.8033 -1.2550
 4182TIP3   OH212509   4.678   0.846   5.341  0.5142  0.1312  0.6106
 4182TIP3    H112510   4.635   0.852   5.256  1.9843 -0.0268 -0.1714
 4182TIP3    H212511   4.634   0.773   5.385 -0.7824  0.7061  0.3181
 4183TIP3   OH212512   3.516   4.541   4.396 -0.1445 -0.0728 -0.1694
 4183TIP3    H112513   3.609   4.523   4.380  0.0953 -1.2126  2.1111
 4183TIP3    H212514   3.469   4.483   4.335  0.6174 -0.2163 -0.6331
 4184TIP3   OH212515   2.400   5.303   1.052 -0.2996  0.4231 -0.0190
 4184TIP3    H112516   2.394   5.357   1.131 -1.4820 -2.1068  1.7841
 4184TIP3    H212517   2.338   5.343   0.991  1.6748  3.2703 -0.3440
 4185TIP3   OH212518   4.310   0.971   1.065  0.3286 -0.5795 -0.0392
 4185TIP3    H112519   4.296   1.063   1.086  0.2005 -0.0880 -2.0655
 4185TIP3    H212520   4.314   0.968   0.970 -1.1452 -2.8964 -0.1104
 4186TIP3   OH212521   6.790   5.929   5.105  0.3469 -0.1439 -0.3784
 4186TIP3    H112522   6.831   5.913   5.020 -0.7847  0.9639 -1.1657
 4186TIP3    H212523   6.696   5.925   5.087  0.0860 -0.0238  0.8626
 4187TIP3   OH212524   3.786   5.644   0.895 -0.3701 -0.1133 -0.0778
 4187TIP3    H112525   3.830   5.576   0.843  0.3590 -0.3698  0.8529
 4187TIP3    H212526   3.760   5.710   0.830 -1.2827 -1.3441 -1.0415
 4188TIP3   OH212527   2.729   5.589   4.883  0.4654 -0.0435  0.5691
 4188TIP3    H112528   2.689   5.552   4.804  0.0395 -0.5011  0.9914
 4188TIP3    H212529   2.660   5.642   4.922  0.4155 -0.4465  1.0423
 4189TIP3   OH212530   1.979   1.465   3.492 -0.5112  0.0712 -0.2133
 4189TIP3    H112531   1.993   1.477   3.398 -0.1081  0.4251 -0.1092
 4189TIP3    H212532   2.045   1.401   3.519  1.4351  2.1882  0.3940
 4190TIP3   OH212533   5.291   3.804   4.125 -0.0325  0.3659  0.1416
 4190TIP3    H112534   5.262   3.891   4.097 -0.9218  0.0695  0.1086
 4190TIP3    H212535   5.227   3.776   4.190 -0.0001 -0.4383 -0.1500
 4191TIP3   OH212536   4.055   4.912   3.519  0.7638  0.0056  0.8222
 4191TIP3    H112537   4.025   4.994   3.479  0.4806 -0.0416  0.9303
 4191TIP3    H212538   3.997   4.899   3.594  1.6691  0.3942  1.6043
 4192TIP3   OH212539   2.708   4.065   2.951  0.7004  0.0145 -0.2213
 4192TIP3    H112540   2.616   4.071   2.978  1.2467 -1.5513  2.3628
 4192TIP3    H212541   2.713   3.983   2.902  0.7590 -0.1155 -0.0036
 4193TIP3   OH212542   4.932   2.673   3.177 -0.2969  0.2966  0.1105
 4193TIP3    H112543   4.920   2.612   3.250 -0.4117  0.9550  0.6616
 4193TIP3    H212544   4.857   2.733   3.184 -0.1902  0.4950 -0.4175
 4194TIP3   OH212545   2.573   6.709   3.328 -0.4799  0.3422 -0.0314
 4194TIP3    H112546   2.625   6.687   3.251 -2.0509  1.5294 -1.4955
 4194TIP3    H212547   2.609   6.793   3.358  1.0237 -0.7526  1.4291
 4195TIP3   OH212548   4.427   5.257   3.614 -0.2022  0.3361 -0.5914
 4195TIP3    H112549   4.361   5.238   3.547 -0.3511  1.6650 -0.8448
 4195TIP3    H212550   4.464   5.341   3.588  0.8898  0.0980  0.1119
 4196TIP3   OH212551   1.633   2.074   4.845  0.6138  0.0429  0.3614
 4196TIP3    H112552   1.589   2.156   4.867  2.1085  0.6386  1.2653
 4196TIP3    H212553   1.599   2.010   4.907  2.2640  0.9188  2.2883
 4197TIP3   OH212554   1.557   2.418   2.028 -0.4457 -0.1479  0.0606
 4197TIP3    H112555   1.506   2.425   1.947  0.0771 -1.6015 -0.4384
 4197TIP3    H212556   1.646   2.399   1.997 -0.0032  0.4291  0.9612
 4198TIP3   OH212557   0.784   1.635   1.089  0.4691 -0.3891 -0.0563
 4198TIP3    H112558   0.796   1.586   1.007  0.1933 -0.8393  0.1735
 4198TIP3    H212559   0.734   1.576   1.145 -0.7552  0.5498 -0.1392
 4199TIP3   OH212560   4.996   0.195   0.658  0.0831 -0.1612  0.5311
 4199TIP3    H112561   5.051   0.216   0.583  0.3243  2.5450  1.3776
 4199TIP3    H212562   4.982   0.101   0.651  0.8659 -0.1621 -2.3623
 4200TIP3   OH212563   2.433   6.049   2.869  0.2615  0.1544  0.0768
 4200TIP3    H112564   2.494   6.122   2.853  1.4407 -0.0336  3.0188
 4200TIP3    H212565   2.367   6.058   2.800  3.0018  0.9848 -2.7333
 4201TIP3   OH212566   3.740   0.861   2.318 -0.0481 -0.1241  0.1097
 4201TIP3    H112567   3.754   0.821   2.233 -0.0765  0.3800 -0.1384
 4201TIP3    H212568   3.748   0.789   2.381  2.3651 -0.1312 -0.0958
 4202TIP3   OH212569   5.962   1.608   2.509 -0.4242  0.0204  0.0980
 4202TIP3    H112570   5.874   1.633   2.481  0.0483  1.0717 -0.5156
 4202TIP3    H212571   5.974   1.520   2.473 -0.1773  0.9672 -2.3316
 4203TIP3   OH212572   6.954   3.248   3.186 -0.3640  0.5981 -0.2453
 4203TIP3    H112573   6.864   3.235   3.215 -0.1807  0.2814  0.1762
 4203TIP3    H212574   6.970   3.342   3.198 -0.3219  0.4907  0.5877
 4204TIP3   OH212575   1.840   2.931   4.146 -0.2828  0.0550  0.0545
 4204TIP3    H112576   1.843   2.837   4.162 -0.2416  0.2840  1.5894
 4204TIP3    H212577   1.785   2.941   4.068 -0.5169 -1.2180  0.0407
 4205TIP3   OH212578   0.625   1.246   0.110 -0.2642  0.4597 -0.3669
 4205TIP3    H112579   0.567   1.321   0.101 -0.3241  0.4202 -0.3111
 4205TIP3    H212580   0.658   1.251   0.199 -0.6237  0.1659 -0.2132
 4206TIP3   OH212581   4.447   4.110   4.511 -0.4429 -0.4553 -0.6040
 4206TIP3    H112582   4.495   4.059   4.446 -1.1809 -0.4646 -1.1534
 4206TIP3    H212583   4.382   4.158   4.460 -0.7093 -0.0870  0.0774
 4207TIP3   OH212584   4.325   4.587   0.787 -0.4274  0.2267  0.5472
 4207TIP3    H112585   4.334   4.671   0.831  1.6497 -0.1323  0.8830
 4207TIP3    H212586   4.399   4.583   0.727 -0.6018 -1.2811  0.3909
 4208TIP3   OH212587   5.751   2.107   4.969 -0.5771  0.1277  0.6304
 4208TIP3    H112588   5.707   2.024   4.982 -1.3534  0.6185  1.2030
 4208TIP3    H212589   5.839   2.094   5.005 -0.8079 -0.3312  1.0311
 4209TIP3   OH212590   0.061   0.857   3.436  0.5168  0.7282  0.4222
 4209TIP3    H112591  -0.029   0.890   3.447 -0.5624 -1.9321  0.2920
 4209TIP3    H212592   0.092   0.899   3.356 -2.0107 -0.9548 -1.6227
 4210TIP3   OH212593   1.600   6.121   4.364  0.7803  0.3295 -0.1369
 4210TIP3    H112594   1.657   6.044   4.369  0.9058  0.3697 -0.9210
 4210TIP3    H212595   1.622   6.163   4.281  0.6219  1.1467  0.2252
 4211TIP3   OH212596   1.167   2.402   2.258 -0.1261  0.3988 -0.0443
 4211TIP3    H112597   1.081   2.362   2.272 -0.0978 -0.1609 -1.3504
 4211TIP3    H212598   1.148   2.490   2.225 -0.1920  0.5931  0.5084
 4212TIP3   OH212599   0.613   3.484   1.047  0.2857 -0.0713  0.2885
 4212TIP3    H112600   0.663   3.521   1.120  1.8917 -0.7569 -0.4196
 4212TIP3    H212601   0.669   3.413   1.013  0.0980  0.8978 -2.2652
 4213TIP3   OH212602   3.723   2.942   5.545  0.4408 -0.2073  0.5595
 4213TIP3    H112603   3.808   2.898   5.539  1.1370  1.0700  0.7156
 4213TIP3    H212604   3.669   2.900   5.479  1.2213 -0.9771  0.3945
 4214TIP3   OH212605   5.116   0.769   3.748 -0.1885 -0.5746 -0.5080
 4214TIP3    H112606   5.131   0.697   3.810  0.3488 -0.9985 -1.1229
 4214TIP3    H212607   5.109   0.726   3.663 -1.3776 -0.0416 -0.6950
 4215TIP3   OH212608   0.744   6.184   4.055  0.1145  0.0535 -0.0910
 4215TIP3    H112609   0.779   6.229   3.979 -0.0118  0.2914 -0.0083
 4215TIP3    H212610   0.670   6.133   4.021  1.8184 -2.1624 -0.6821
 4216TIP3   OH212611   6.393   3.898   5.410  0.1423  0.6671  1.0080
 4216TIP3    H112612   6.386   3.988   5.440  0.1006  0.3075  2.1268
 4216TIP3    H212613   6.321   3.888   5.347  2.2073  2.3789 -1.8496
 4217TIP3   OH212614   1.421   0.577   4.047  0.2354 -0.0776  0.5901
 4217TIP3    H112615   1.496   0.626   4.013 -0.8094  1.4534  0.3981
 4217TIP3    H212616   1.414   0.604   4.138  0.5068 -0.9988  0.8980
 4218TIP3   OH212617   4.857   2.176   3.223  0.4566 -0.8952 -0.3915
 4218TIP3    H112618   4.765   2.184   3.246  1.2025  1.8737  2.1242
 4218TIP3    H212619   4.892   2.113   3.285  0.8577  0.5288  0.8732
 4219TIP3   OH212620   0.382   4.067   5.843 -0.2116  0.0806  0.1245
 4219TIP3    H112621   0.291   4.080   5.817 -0.9682 -2.5293  1.0910
 4219TIP3    H212622   0.392   4.119   5.923 -0.9043  0.2519  0.1017
 4220TIP3   OH212623   0.275   1.978   5.677  0.0481 -0.3807  0.0155
 4220TIP3    H112624   0.183   1.950   5.683  0.2974 -1.2553 -0.0851
 4220TIP3    H212625   0.306   1.975   5.768  0.1361 -0.6523 -0.0229
 4221TIP3   OH212626   1.646   6.476   2.816 -0.3099  0.6031 -0.0929
 4221TIP3    H112627   1.555   6.484   2.787  0.7803  1.6336 -3.7862
 4221TIP3    H212628   1.682   6.405   2.763  1.4382  1.2862  0.1181
 4222TIP3   OH212629   0.927   4.302   1.860  0.4269 -0.3300 -0.4698
 4222TIP3    H112630   0.915   4.396   1.874  0.1643 -0.3723 -0.4109
 4222TIP3    H212631   0.844   4.273   1.822 -0.1371 -0.8491  1.0685
 4223TIP3   OH212632   2.190   1.850   3.057  0.1589 -0.2277 -0.1943
 4223TIP3    H112633   2.241   1.907   3.115  0.3713 -0.4398 -0.1702
 4223TIP3    H212634   2.205   1.761   3.090  0.7920 -0.4164 -0.9460
 4224TIP3   OH212635   3.413   0.846   4.873  0.3759 -0.3082  0.0099
 4224TIP3    H112636   3.420   0.763   4.921  0.9951  0.2983  1.0099
 4224TIP3    H212637   3.425   0.821   4.782  1.9402 -1.1784  0.4005
 4225TIP3   OH212638   1.138   4.572   1.217 -0.5712  0.1008  0.0556
 4225TIP3    H112639   1.137   4.668   1.225 -1.9154 -0.0374  2.5555
 4225TIP3    H212640   1.201   4.543   1.282 -2.0803 -0.7613  1.1936
 4226TIP3   OH212641   0.623   2.768   3.715  0.3237 -0.0537 -0.4078
 4226TIP3    H112642   0.616   2.863   3.707  1.8802  0.0941 -0.3512
 4226TIP3    H212643   0.535   2.736   3.698 -0.4834  1.4603  0.6249
 4227TIP3   OH212644   2.628   3.072   2.347  0.4035 -0.2633  0.4167
 4227TIP3    H112645   2.683   3.098   2.273  0.0500 -0.4737  0.0732
 4227TIP3    H212646   2.632   3.146   2.407  1.1915 -0.3458  0.4750
 4228TIP3   OH212647   6.544   4.266   2.895  0.2430  0.2137 -0.4860
 4228TIP3    H112648   6.607   4.237   2.962 -0.3524 -0.8617 -0.3773
 4228TIP3    H212649   6.512   4.185   2.856  0.8359  0.8203 -2.3460
 4229TIP3   OH212650   1.473   0.230   0.772 -0.1329  0.1853  0.4243
 4229TIP3    H112651   1.434   0.310   0.738  1.1462  0.4660 -0.4774
 4229TIP3    H212652   1.535   0.202   0.704  0.0639 -1.1049  1.0866
 4230TIP3   OH212653   3.465   0.167   2.542 -0.5252 -0.4184 -0.5579
 4230TIP3    H112654   3.442   0.115   2.465 -0.3776  0.5402 -1.2639
 4230TIP3    H212655   3.549   0.129   2.572 -0.8353 -1.1206 -0.5482
 4231TIP3   OH212656   7.090   2.091   5.792 -0.0845  0.4816 -0.1703
 4231TIP3    H112657   7.045   2.176   5.790  1.0475  1.2006  1.7461
 4231TIP3    H212658   7.120   2.078   5.703  0.0674  2.3187 -0.4351
 4232TIP3   OH212659   6.555   4.631   0.423  0.1158 -0.1237 -0.0142
 4232TIP3    H112660   6.470   4.657   0.457 -0.5585 -0.9873 -0.9847
 4232TIP3    H212661   6.598   4.714   0.401 -1.0362  0.2925 -0.8173
 4233TIP3   OH212662   5.406   6.072   5.176 -0.2463  0.2979  0.1635
 4233TIP3    H112663   5.457   6.124   5.113 -1.1159  1.3088  0.2786
 4233TIP3    H212664   5.404   6.126   5.255  0.2074 -0.6429  0.8346
 4234TIP3   OH212665   5.476   3.127   0.414 -0.1290  0.1330 -0.6584
 4234TIP3    H112666   5.422   3.075   0.473 -0.8411  0.5153 -0.9562
 4234TIP3    H212667   5.566   3.100   0.433 -0.1871  1.3549  1.6923
 4235TIP3   OH212668   3.027   0.878   3.672  0.1701 -0.3199  0.3177
 4235TIP3    H112669   2.954   0.939   3.677 -0.6160 -1.1813 -0.2175
 4235TIP3    H212670   3.018   0.823   3.750  0.0786 -0.5924  0.1201
 4236TIP3   OH212671   6.099   0.380   0.092  0.2648 -0.0988  0.3609
 4236TIP3    H112672   6.131   0.306   0.041 -0.2242 -0.3160  0.3602
 4236TIP3    H212673   6.115   0.356   0.184 -1.3300 -0.9355  0.4674
 4237TIP3   OH212674   5.986   0.624   0.635  0.2726  0.5812 -0.2165
 4237TIP3    H112675   6.048   0.693   0.613  0.2837  1.0119  1.0822
 4237TIP3    H212676   5.984   0.567   0.558 -0.1275  2.3028 -1.5190
 4238TIP3   OH212677   1.417   2.433   4.409  0.2986 -0.0698  0.2234
 4238TIP3    H112678   1.356   2.373   4.452 -0.2820  0.8975  0.7674
 4238TIP3    H212679   1.499   2.384   4.405 -0.5897 -1.5430 -0.8811
 4239TIP3   OH212680   5.957   3.135   1.899 -0.0450  0.3781 -0.0520
 4239TIP3    H112681   5.887   3.090   1.947  0.4917 -0.2459  0.1570
 4239TIP3    H212682   6.024   3.068   1.886  0.6137  1.0302 -0.0487
 4240TIP3   OH212683   6.785   4.641   1.707  0.5806 -0.1832 -0.1863
 4240TIP3    H112684   6.781   4.717   1.764  1.4663 -0.2646  0.0066
 4240TIP3    H212685   6.843   4.580   1.753  2.4032  0.2701 -1.7661
 4241TIP3   OH212686   4.311   5.714   0.567  0.0821  0.2136 -0.3980
 4241TIP3    H112687   4.378   5.768   0.524  1.1426 -0.7222  0.0231
 4241TIP3    H212688   4.332   5.721   0.660 -1.6110  1.4495 -0.0687
 4242TIP3   OH212689   5.113   5.270   2.975 -0.0329  0.2336 -0.1318
 4242TIP3    H112690   5.138   5.335   3.041  2.2663 -0.6153 -0.0450
 4242TIP3    H212691   5.170   5.290   2.900 -2.3564  0.9658 -1.8044
 4243TIP3   OH212692   4.602   6.728   2.977  0.2619  0.3292 -0.0069
 4243TIP3    H112693   4.689   6.713   3.014  0.5814 -1.4819 -1.3557
 4243TIP3    H212694   4.606   6.816   2.939  1.4876  0.2677 -0.0351
 4244TIP3   OH212695   6.862   2.756   0.756  0.0193 -0.7198 -0.5533
 4244TIP3    H112696   6.828   2.808   0.683 -0.6358 -0.1866  0.1173
 4244TIP3    H212697   6.797   2.766   0.825  0.7405 -1.0283  0.1903
 4245TIP3   OH212698   3.181   3.646   0.544 -0.1866 -0.0532  0.0560
 4245TIP3    H112699   3.125   3.658   0.468  0.3557  0.3971 -0.2743
 4245TIP3    H212700   3.246   3.716   0.538  0.0873 -0.2408  0.7268
 4246TIP3   OH212701   6.510   5.923   5.058  0.3248 -0.1225 -0.3952
 4246TIP3    H112702   6.491   6.001   5.005  0.3869  0.1123 -0.0691
 4246TIP3    H212703   6.495   5.850   4.998 -0.3737  0.1101 -0.5211
 4247TIP3   OH212704   2.580   6.702   4.796  0.2128  0.0464 -0.3474
 4247TIP3    H112705   2.563   6.719   4.703  1.5402 -0.9777 -0.8023
 4247TIP3    H212706   2.610   6.786   4.830  1.3093  0.0339 -1.2444
 4248TIP3   OH212707   6.524   5.247   5.484 -0.0293 -0.2199 -0.5247
 4248TIP3    H112708   6.546   5.339   5.469  1.0734 -0.5565 -1.1399
 4248TIP3    H212709   6.429   5.245   5.485 -0.0726  1.1399  0.9746
 4249TIP3   OH212710   0.294   5.618   5.527 -0.1121  0.2231  0.0656
 4249TIP3    H112711   0.372   5.562   5.515  0.2117  0.8827 -0.9777
 4249TIP3    H212712   0.243   5.606   5.448 -0.9529  0.0252  0.6212
 4250TIP3   OH212713   5.509   4.129   0.609 -0.1341  0.4715  0.0061
 4250TIP3    H112714   5.588   4.172   0.575  0.5138 -0.1272  0.7209
 4250TIP3    H212715   5.538   4.040   0.632 -1.0524  0.1966  0.1347
 4251TIP3   OH212716   0.828   1.730   0.495 -0.3606  0.1006  0.6676
 4251TIP3    H112717   0.734   1.729   0.513 -0.4063  0.0177  0.4227
 4251TIP3    H212718   0.837   1.686   0.410 -0.1451  0.5050  0.4785
 4252TIP3   OH212719   7.079   5.458   1.502 -0.2410  0.1019 -0.0330
 4252TIP3    H112720   7.117   5.500   1.425 -1.5024 -0.5207 -1.0169
 4252TIP3    H212721   7.003   5.511   1.524 -0.2855 -0.1233  0.3727
 4253TIP3   OH212722   0.063   2.339   2.247 -0.1586 -0.3877 -0.1393
 4253TIP3    H112723   0.016   2.358   2.328  1.4412  0.1303  0.7123
 4253TIP3    H212724   0.128   2.409   2.240  2.3131 -2.4896  0.2217
 4254TIP3   OH212725   1.484   4.846   4.545  0.1604 -0.1718  0.0270
 4254TIP3    H112726   1.448   4.759   4.564 -0.5166 -0.0934 -0.8281
 4254TIP3    H212727   1.578   4.838   4.563  0.2210 -1.2882 -0.7067
 4255TIP3   OH212728   5.220   4.262   2.812 -0.6906 -0.2519  0.1331
 4255TIP3    H112729   5.139   4.312   2.824 -0.6435  0.1207 -0.9773
 4255TIP3    H212730   5.191   4.171   2.802 -1.3421  0.1680 -3.2406
 4256TIP3   OH212731   4.796   0.430   0.094  0.6322 -0.0775  0.3920
 4256TIP3    H112732   4.860   0.452   0.162 -0.1403  0.7709  0.8783
 4256TIP3    H212733   4.716   0.410   0.143 -0.3395  1.9089 -0.2542
 4257TIP3   OH212734   0.126   1.184   5.514 -0.2141  0.1322 -0.2196
 4257TIP3    H112735   0.112   1.202   5.421 -1.0621 -1.4866 -0.4330
 4257TIP3    H212736   0.055   1.124   5.538 -0.8725  1.6047  1.8340
 4258TIP3   OH212737   3.565   4.002   3.893  0.5007  0.1315  0.1227
 4258TIP3    H112738   3.599   4.051   3.819 -0.8891  0.1673 -0.5107
 4258TIP3    H212739   3.537   3.918   3.856  2.0176 -0.8474  1.0397
 4259TIP3   OH212740   7.174   0.910   2.317  0.2634  0.2339  0.2921
 4259TIP3    H112741   7.185   0.991   2.367  0.6997 -0.5519  1.4948
 4259TIP3    H212742   7.113   0.934   2.246  1.5591  1.9796 -0.2852
 4260TIP3   OH212743   5.653   1.200   5.061 -0.1003  0.4179  0.1989
 4260TIP3    H112744   5.604   1.166   4.987  0.3246 -1.9038  0.9029
 4260TIP3    H212745   5.743   1.170   5.047  0.0788  0.3139  1.4108
 4261TIP3   OH212746   6.943   4.008   1.000 -0.0224  0.1306  0.0116
 4261TIP3    H112747   7.003   4.052   0.940  0.4558 -0.5592 -0.0208
 4261TIP3    H212748   6.860   4.005   0.952  0.1054  0.4290 -0.2330
 4262TIP3   OH212749   7.161   5.849   1.824  0.0024 -0.5973  0.0328
 4262TIP3    H112750   7.193   5.759   1.831 -0.9914 -1.1058 -1.4694
 4262TIP3    H212751   7.087   5.843   1.763 -0.0408  1.2535 -0.1415
 4263TIP3   OH212752   5.955   3.227   4.670  0.1660 -0.0589 -0.2147
 4263TIP3    H112753   5.915   3.150   4.712  0.1855  1.1161  2.1427
 4263TIP3    H212754   5.890   3.258   4.608 -0.7542 -0.7016  0.4083
 4264TIP3   OH212755   1.049   5.227   0.739 -0.2567 -0.1316  0.4018
 4264TIP3    H112756   1.061   5.134   0.718  0.5090  0.4519 -2.1102
 4264TIP3    H212757   1.138   5.259   0.756 -0.3010  0.4828 -0.4750
 4265TIP3   OH212758   5.813   2.206  -0.005  0.3728  0.3497 -0.0382
 4265TIP3    H112759   5.850   2.290   0.019  1.3157 -0.4711  1.5270
 4265TIP3    H212760   5.813   2.155   0.076 -0.4536 -1.0589 -0.8742
 4266TIP3   OH212761   4.469   0.920   3.168 -0.4297 -0.4168 -0.0142
 4266TIP3    H112762   4.400   0.986   3.170 -1.4433 -1.3788 -1.3485
 4266TIP3    H212763   4.548   0.969   3.141 -1.4764  0.0444 -2.4960
 4267TIP3   OH212764   6.679   5.076   0.103  0.3425  0.2090  0.2963
 4267TIP3    H112765   6.762   5.092   0.057  0.2605  3.0534  0.9655
 4267TIP3    H212766   6.703   5.081   0.196 -0.4457  0.3000  0.4970
 4268TIP3   OH212767   1.336   0.811   4.781  0.0356  0.1094  0.5855
 4268TIP3    H112768   1.410   0.853   4.825  0.9098 -1.0141  0.2176
 4268TIP3    H212769   1.263   0.872   4.794  0.7971  0.8145  1.7267
 4269TIP3   OH212770   6.537   2.484   2.226 -0.1310 -0.0992 -0.2466
 4269TIP3    H112771   6.517   2.399   2.265  0.8578 -0.2544 -0.0582
 4269TIP3    H212772   6.527   2.547   2.298 -0.3282 -0.1153 -0.2575
 4270TIP3   OH212773   1.272   4.672   2.970 -0.7021  0.1867 -0.2464
 4270TIP3    H112774   1.296   4.752   3.017 -1.0280 -0.0436  0.3172
 4270TIP3    H212775   1.226   4.619   3.034  0.7020 -1.0686 -0.2073
 4271TIP3   OH212776   3.233   3.152   4.865  0.4291 -0.2664 -0.1811
 4271TIP3    H112777   3.253   3.061   4.842  2.3468 -0.3440  1.4136
 4271TIP3    H212778   3.223   3.151   4.961 -1.3424  0.9257 -0.3054
 4272TIP3   OH212779   7.053   5.784   0.596  0.0383  0.2002 -0.4173
 4272TIP3    H112780   7.135   5.826   0.567  0.2933  0.3475  0.4777
 4272TIP3    H212781   6.990   5.855   0.600 -0.4158 -0.0788 -2.0609
 4273TIP3   OH212782   0.137   1.336   1.503 -0.2414  0.7505 -0.1200
 4273TIP3    H112783   0.134   1.421   1.547  1.3168  0.1523  1.2324
 4273TIP3    H212784   0.216   1.338   1.449  0.0001  0.0531  0.1871
 4274TIP3   OH212785   1.366   5.233   3.930  0.0200 -0.1756 -0.0124
 4274TIP3    H112786   1.401   5.151   3.896 -1.1549  0.1357 -2.1890
 4274TIP3    H212787   1.431   5.299   3.906 -0.7910  0.0376 -1.7831
 4275TIP3   OH212788   2.838   5.649   2.592  0.6485  0.4957 -0.2303
 4275TIP3    H112789   2.887   5.568   2.607 -0.9693  0.0333  4.1887
 4275TIP3    H212790   2.905   5.717   2.583  2.0582 -0.8147 -0.0490
 4276TIP3   OH212791   6.882   0.354   2.660 -0.1074  0.9785 -0.2423
 4276TIP3    H112792   6.796   0.389   2.637 -0.4577 -0.7945 -1.8372
 4276TIP3    H212793   6.937   0.374   2.584 -0.7407 -3.1354 -2.0357
 4277TIP3   OH212794   6.471   6.278   3.215 -0.0946  0.0424  0.1658
 4277TIP3    H112795   6.482   6.243   3.127 -1.8365 -0.0007 -0.0697
 4277TIP3    H212796   6.480   6.202   3.273  0.4298 -0.0315 -0.0087
 4278TIP3   OH212797   2.076   2.148   3.927  0.1922  0.2574  0.4226
 4278TIP3    H112798   1.982   2.159   3.944 -0.0903 -1.5787  0.2953
 4278TIP3    H212799   2.100   2.223   3.873 -0.3054  2.8265  3.4724
 4279TIP3   OH212800   0.044   1.379   5.896 -0.1985  0.1903  0.5458
 4279TIP3    H112801  -0.016   1.416   5.831 -0.4003  0.0036  0.6233
 4279TIP3    H212802   0.020   1.286   5.900 -1.7654  0.6206  2.5693
 4280TIP3   OH212803   5.806   2.622   3.389  0.4837 -0.0375  1.1385
 4280TIP3    H112804   5.900   2.605   3.385  0.5460  0.2427  1.4038
 4280TIP3    H212805   5.766   2.535   3.403  0.5548 -0.4595 -0.8829
 4281TIP3   OH212806   3.572   6.312   5.016  0.5808  0.2105  0.6657
 4281TIP3    H112807   3.633   6.386   5.019 -0.7600  1.5394 -1.9785
 4281TIP3    H212808   3.490   6.346   5.051  0.2691 -0.3925  0.5376
 4282TIP3   OH212809   1.586   2.710   4.085 -0.3091 -0.2153  0.2267
 4282TIP3    H112810   1.562   2.783   4.142  0.3452 -0.0786  0.3295
 4282TIP3    H212811   1.507   2.656   4.082 -0.5545  0.1019  0.7552
 4283TIP3   OH212812   4.935   6.420   0.344  0.6065  0.1838  0.3791
 4283TIP3    H112813   4.860   6.475   0.368  0.3265 -1.2553  3.2334
 4283TIP3    H212814   4.975   6.396   0.428  2.7641 -1.1601 -0.9439
 4284TIP3   OH212815   1.854   5.081   3.898  0.1014 -0.3371 -0.7771
 4284TIP3    H112816   1.898   4.996   3.897 -0.4729 -0.7529  1.8956
 4284TIP3    H212817   1.918   5.140   3.939 -0.7658 -0.3515  0.6791
 4285TIP3   OH212818   0.746   3.223   0.582  0.5993 -0.0019 -0.1210
 4285TIP3    H112819   0.680   3.223   0.512  1.7798  0.6485 -1.2790
 4285TIP3    H212820   0.829   3.240   0.537  1.8771 -2.6029  1.0082
 4286TIP3   OH212821   4.168   4.238   4.734 -0.0957  0.2048 -0.6369
 4286TIP3    H112822   4.202   4.172   4.794  2.5504  0.1147 -2.0420
 4286TIP3    H212823   4.160   4.318   4.786 -0.7263 -0.5648  0.4657
 4287TIP3   OH212824   2.127   6.628   3.258 -0.0419 -0.4417  0.2579
 4287TIP3    H112825   2.147   6.632   3.165  0.5028  1.1574  0.4065
 4287TIP3    H212826   2.212   6.620   3.301 -0.1612  0.3613  0.6647
 4288TIP3   OH212827   1.272   3.305   3.696  0.3926 -0.0975  0.5350
 4288TIP3    H112828   1.246   3.384   3.649  0.2924 -0.4553 -0.0258
 4288TIP3    H212829   1.350   3.330   3.745 -0.1296  0.5831  1.0462
 4289TIP3   OH212830   1.854   3.532   2.830  0.3629 -0.7209  0.1527
 4289TIP3    H112831   1.834   3.592   2.758 -0.1195 -0.4671  0.4861
 4289TIP3    H212832   1.942   3.500   2.812  0.9374  0.6534  0.3459
 4290TIP3   OH212833   1.084   6.094   4.355 -0.0446 -0.5191  0.0908
 4290TIP3    H112834   1.038   6.014   4.380  1.4876 -1.2340  0.7773
 4290TIP3    H212835   1.058   6.158   4.421 -0.8239 -0.6049 -0.1206
 4291TIP3   OH212836   0.318   3.328   3.851 -0.2429 -0.0403  0.3617
 4291TIP3    H112837   0.320   3.278   3.932 -0.5990  0.6624  0.8166
 4291TIP3    H212838   0.280   3.268   3.786 -2.7816  0.3153  1.4086
 4292TIP3   OH212839   5.584   5.453   1.318  0.3420  0.3232 -0.9979
 4292TIP3    H112840   5.508   5.490   1.363 -0.9046 -0.5756 -2.2713
 4292TIP3    H212841   5.656   5.466   1.379 -1.4867 -2.1348  1.9965
 4293TIP3   OH212842   0.238   5.233   5.127  0.4387  0.3358 -0.1288
 4293TIP3    H112843   0.249   5.326   5.144 -0.6835  0.5048 -0.2923
 4293TIP3    H212844   0.234   5.226   5.031  1.8798 -0.0528 -0.1869
 4294TIP3   OH212845   3.514   2.105   0.482 -0.4335  0.0923  0.4154
 4294TIP3    H112846   3.486   2.013   0.488 -2.4945  0.6275 -0.1518
 4294TIP3    H212847   3.602   2.101   0.445 -0.8862 -1.6260 -0.5988
 4295TIP3   OH212848   6.815   5.635   1.907 -0.2799  0.1690  0.1960
 4295TIP3    H112849   6.814   5.602   1.996  0.7881 -1.7394 -0.4300
 4295TIP3    H212850   6.724   5.626   1.877 -0.7799  1.4536  1.2743
 4296TIP3   OH212851   0.398   4.277   4.898  0.2430 -0.0436  0.4203
 4296TIP3    H112852   0.434   4.259   4.811 -1.3546 -1.3246 -0.0230
 4296TIP3    H212853   0.409   4.194   4.945 -0.8841 -0.0413  0.6965
 4297TIP3   OH212854   6.732   4.273   5.020 -0.5862  0.0731 -0.3700
 4297TIP3    H112855   6.660   4.335   5.033 -0.8239 -0.4267  0.8702
 4297TIP3    H212856   6.740   4.228   5.104  3.2499  2.3038  0.7390
 4298TIP3   OH212857   4.109   2.663   3.426 -0.2411  0.4907 -0.2888
 4298TIP3    H112858   4.171   2.620   3.366 -0.0411  1.0089 -0.4535
 4298TIP3    H212859   4.126   2.622   3.511 -0.5308 -0.2531 -0.5777
 4299TIP3   OH212860   0.034   6.134   0.185  0.9417 -0.2718  0.5050
 4299TIP3    H112861   0.038   6.140   0.280 -1.6904  2.2703  0.6175
 4299TIP3    H212862  -0.039   6.076   0.167 -0.1867  1.1917  0.1609
 4300TIP3   OH212863   5.073   2.408   1.920  0.4970 -0.1092  0.0247
 4300TIP3    H112864   5.094   2.392   2.012  2.1326  0.9052 -0.1294
 4300TIP3    H212865   5.111   2.334   1.873  0.5771 -0.1020  0.0772
 4301TIP3   OH212866   5.881   1.217   1.910  0.8156 -0.1946  0.0202
 4301TIP3    H112867   5.902   1.199   2.001  0.2992 -0.2143  0.1391
 4301TIP3    H212868   5.870   1.131   1.870 -0.0756 -0.1826  0.2126
 4302TIP3   OH212869   0.776   3.914   2.876  0.2739  0.1790  0.1389
 4302TIP3    H112870   0.835   3.985   2.901  1.7365 -0.6703 -0.7355
 4302TIP3    H212871   0.803   3.840   2.930 -0.6732  0.0300  0.4354
 4303TIP3   OH212872   4.650   1.862   2.619  0.1017 -0.0740  0.2342
 4303TIP3    H112873   4.584   1.868   2.549  0.7092 -1.3978 -0.4961
 4303TIP3    H212874   4.681   1.771   2.614  1.8316  0.4614  0.6843
 4304TIP3   OH212875   3.987   4.599   3.355 -0.1719 -0.5691  0.6430
 4304TIP3    H112876   3.923   4.528   3.360  0.4883 -1.2097  0.1148
 4304TIP3    H212877   3.936   4.675   3.327 -0.8429 -0.8785  0.9903
 4305TIP3   OH212878   2.370   0.745   3.401 -0.0184 -0.6158 -0.3498
 4305TIP3    H112879   2.384   0.837   3.379  0.3664 -0.9542 -1.6547
 4305TIP3    H212880   2.376   0.741   3.496 -2.9100  1.1569  0.0013
 4306TIP3   OH212881   0.438   0.747   1.577 -0.6090  0.1397  0.2891
 4306TIP3    H112882   0.512   0.703   1.619  0.7071  1.0650 -0.9902
 4306TIP3    H212883   0.411   0.686   1.508  2.6896  2.0769 -3.0239
 4307TIP3   OH212884   6.263   1.324   3.435 -0.4786 -0.0863 -0.0267
 4307TIP3    H112885   6.205   1.298   3.507 -0.3055 -1.4188 -0.3307
 4307TIP3    H212886   6.206   1.371   3.374 -1.1184 -0.8505 -0.0326
 4308TIP3   OH212887   4.098   4.446   2.101 -0.3431 -0.3046  0.4399
 4308TIP3    H112888   4.073   4.361   2.066 -1.2281 -0.4057  1.3030
 4308TIP3    H212889   4.171   4.474   2.046 -0.6308 -1.2116 -0.4164
 4309TIP3   OH212890   0.167   1.255   0.332 -0.0389  0.3172 -0.5287
 4309TIP3    H112891   0.140   1.164   0.348 -0.7996  0.8750  1.7932
 4309TIP3    H212892   0.242   1.248   0.273  0.6356 -1.8954  0.4929
 4310TIP3   OH212893   3.646   5.445   3.809  0.1709 -0.1246  0.1074
 4310TIP3    H112894   3.565   5.398   3.831  0.1704 -0.8371 -1.3333
 4310TIP3    H212895   3.624   5.537   3.823 -0.7407 -0.3468  0.1973
 4311TIP3   OH212896   5.214   1.946   3.184  0.0255 -0.5743 -0.3458
 4311TIP3    H112897   5.232   2.034   3.153 -1.7830  0.3976  1.1415
 4311TIP3    H212898   5.155   1.909   3.119 -0.8196  0.0715  0.0457
 4312TIP3   OH212899   6.920   0.128   4.637  0.4452  0.1581  0.0362
 4312TIP3    H112900   6.825   0.126   4.625  0.6825  0.7249 -2.2567
 4312TIP3    H212901   6.950   0.202   4.585  2.1265  0.2524  1.0558
 4313TIP3   OH212902   5.485   1.963   4.250 -0.1382 -0.1207  0.4682
 4313TIP3    H112903   5.560   2.006   4.291 -0.7679  0.2738  1.2494
 4313TIP3    H212904   5.467   2.015   4.172 -0.4018  0.5860  0.9830
 4314TIP3   OH212905   3.557   4.412   4.096 -0.4075  0.2529  0.4110
 4314TIP3    H112906   3.588   4.436   4.009  2.7377 -0.4447  1.2237
 4314TIP3    H212907   3.461   4.418   4.090 -0.2463  1.3446 -2.7141
 4315TIP3   OH212908   5.228   3.094   3.811 -0.3691 -0.4737 -0.4184
 4315TIP3    H112909   5.133   3.105   3.808 -0.4577 -0.7785  0.7642
 4315TIP3    H212910   5.262   3.180   3.836 -0.4337 -0.7004  0.4555
 4316TIP3   OH212911   3.157   4.979   2.576  0.3125 -0.1805 -0.2575
 4316TIP3    H112912   3.187   4.925   2.649 -1.0878  0.1996  0.6456
 4316TIP3    H212913   3.112   4.917   2.518 -1.0979 -0.0794  0.6664
 4317TIP3   OH212914   5.964   3.652   0.345 -0.2264  0.0752  0.2810
 4317TIP3    H112915   5.983   3.578   0.288 -0.7658  1.1266 -1.3436
 4317TIP3    H212916   6.048   3.696   0.357 -0.2338  0.2782 -0.3660
 4318TIP3   OH212917   5.662   4.042   3.557  0.1853 -0.2026  0.2672
 4318TIP3    H112918   5.618   4.074   3.637 -0.0013 -0.6336  0.3389
 4318TIP3    H212919   5.611   3.966   3.531 -0.0574  0.2312 -0.5560
 4319TIP3   OH212920   5.840   1.678   1.546  0.1563  0.1856  0.1556
 4319TIP3    H112921   5.893   1.677   1.466  1.9326 -1.2968  1.2586
 4319TIP3    H212922   5.897   1.641   1.613 -2.2867 -1.4884  1.4713
 4320TIP3   OH212923   6.523   6.123   2.949  0.8013 -0.2509 -0.2289
 4320TIP3    H112924   6.554   6.179   2.879 -1.2534  1.0307 -0.1812
 4320TIP3    H212925   6.432   6.103   2.927  0.5318 -1.0080  1.3414
 4321TIP3   OH212926   0.792   0.672   1.165  0.1061 -0.4193 -0.0917
 4321TIP3    H112927   0.866   0.617   1.140  0.9606  0.2726  0.8276
 4321TIP3    H212928   0.819   0.713   1.248 -1.3272 -0.1939  0.2918
 4322TIP3   OH212929   0.356   4.752   3.688  0.3754  0.3554 -0.3991
 4322TIP3    H112930   0.407   4.734   3.767  0.8254 -0.8412 -0.9450
 4322TIP3    H212931   0.291   4.682   3.685  1.3799 -0.5697 -1.9224
 4323TIP3   OH212932   0.022   1.703   0.401 -0.2210 -0.1579  0.0590
 4323TIP3    H112933  -0.036   1.628   0.390 -0.8845  0.1775  1.1642
 4323TIP3    H212934   0.058   1.693   0.489 -0.1806  0.7228  0.1529
 4324TIP3   OH212935   1.220   5.666   0.119  0.5259 -0.5809  0.3614
 4324TIP3    H112936   1.158   5.726   0.077  1.2774 -1.6263 -2.4816
 4324TIP3    H212937   1.297   5.721   0.139 -0.2226  0.1414  1.3887
 4325TIP3   OH212938   4.878   0.239   1.606 -0.3511  0.2209 -0.3775
 4325TIP3    H112939   4.791   0.243   1.566 -0.2978  1.8896 -0.4122
 4325TIP3    H212940   4.869   0.294   1.685  1.0148  1.5891 -1.1291
 4326TIP3   OH212941   3.802   4.098   0.928 -0.2218 -0.0759 -0.0471
 4326TIP3    H112942   3.824   4.080   0.836 -3.5701 -0.6641 -0.8653
 4326TIP3    H212943   3.848   4.030   0.976 -0.8966 -1.8119 -1.6857
 4327TIP3   OH212944   1.174   3.797   2.804 -0.2101 -0.3200  0.1479
 4327TIP3    H112945   1.164   3.881   2.849  0.5408 -0.3700  0.4269
 4327TIP3    H212946   1.197   3.735   2.874  1.0475 -0.3812 -0.2957
 4328TIP3   OH212947   5.947   3.807   4.331  0.6122  0.4648 -0.2957
 4328TIP3    H112948   5.969   3.900   4.328  0.6502  0.4276 -1.9845
 4328TIP3    H212949   6.017   3.764   4.283 -0.3739 -0.2167 -1.1857
 4329TIP3   OH212950   3.518   3.866   1.942  0.0053  0.0213  0.3289
 4329TIP3    H112951   3.479   3.895   1.860 -0.4119  2.1998  1.2532
 4329TIP3    H212952   3.455   3.890   2.009  0.3124 -1.7757  1.3279
 4330TIP3   OH212953   2.027   0.867   4.215  0.1108  0.5558  0.4290
 4330TIP3    H112954   2.058   0.898   4.301  0.4339 -0.7948  0.8265
 4330TIP3    H212955   2.093   0.803   4.188 -0.7112 -0.0535 -0.1821
 4331TIP3   OH212956   1.367   3.583   5.821  0.1081  0.1201 -0.9594
 4331TIP3    H112957   1.350   3.494   5.852 -1.4511  0.5266 -0.5587
 4331TIP3    H212958   1.420   3.571   5.742 -0.9643 -1.2154 -1.5169
 4332TIP3   OH212959   6.062   6.169   4.172 -0.4427  0.0594  0.1691
 4332TIP3    H112960   6.056   6.115   4.251  1.3402  1.3066  1.2253
 4332TIP3    H212961   6.000   6.240   4.187 -2.1379 -1.1353 -0.8335
 4333TIP3   OH212962   5.975   5.393   1.665  0.0425  0.3482  0.1616
 4333TIP3    H112963   6.022   5.402   1.583  1.0466  1.4635  0.8166
 4333TIP3    H212964   6.033   5.340   1.721 -0.0197  0.7127  0.5791
 4334TIP3   OH212965   3.331   5.189   0.884  1.0205 -0.3814 -0.1987
 4334TIP3    H112966   3.349   5.282   0.874 -1.3584  0.4401  1.9911
 4334TIP3    H212967   3.335   5.173   0.978 -1.8560 -1.6286 -0.1556
 4335TIP3   OH212968   0.059   4.365   0.861 -0.5758 -0.0918 -0.2260
 4335TIP3    H112969   0.065   4.280   0.905  0.4269 -0.2187 -0.5764
 4335TIP3    H212970   0.012   4.421   0.922  2.3740  0.2740  1.8848
 4336TIP3   OH212971   2.660   6.314   2.992  0.3175 -0.0667  0.2517
 4336TIP3    H112972   2.691   6.255   2.924 -1.7731 -2.2411  1.0590
 4336TIP3    H212973   2.713   6.292   3.069 -0.4367 -0.9242  0.5424
 4337TIP3   OH212974   0.516   0.939   0.251  0.0603 -0.3949  0.5275
 4337TIP3    H112975   0.602   0.957   0.288  0.8326  1.3306 -1.9080
 4337TIP3    H212976   0.528   0.859   0.199  0.7296  0.8074 -1.2505
 4338TIP3   OH212977   1.457   4.057   5.498  0.1944 -0.4177 -0.3584
 4338TIP3    H112978   1.515   4.047   5.573 -0.0380  1.3351  0.1119
 4338TIP3    H212979   1.369   4.049   5.535  0.0906 -0.1807 -0.5555
 4339TIP3   OH212980   3.905   1.914   4.345 -0.4742 -0.0956  0.1854
 4339TIP3    H112981   3.863   1.972   4.409 -0.3951 -1.2156  1.2838
 4339TIP3    H212982   3.997   1.941   4.344 -0.2628 -0.7517  1.3305
 4340TIP3   OH212983   4.978   5.813   4.181 -0.1163  0.1622 -0.1527
 4340TIP3    H112984   4.982   5.907   4.195  0.3869  0.1826 -0.4155
 4340TIP3    H212985   4.934   5.779   4.259  1.2200  0.4413  0.7560
 4341TIP3   OH212986   2.707   2.848   4.052 -0.1899 -0.1496  0.1116
 4341TIP3    H112987   2.714   2.940   4.077 -1.2507 -0.3536  1.2641
 4341TIP3    H212988   2.667   2.850   3.965  1.4398  0.5121 -0.6582
 4342TIP3   OH212989   3.289   1.227   1.039 -0.2414  0.1250 -0.2021
 4342TIP3    H112990   3.272   1.276   1.120 -0.4874 -0.4772  0.1202
 4342TIP3    H212991   3.337   1.288   0.983  0.4471  0.3639  0.6266
 4343TIP3   OH212992   3.463   0.543   4.873 -0.0267 -0.1176 -0.4707
 4343TIP3    H112993   3.500   0.527   4.960  0.1762  3.0931  0.1596
 4343TIP3    H212994   3.512   0.485   4.816 -0.5140 -2.7164  1.5464
 4344TIP3   OH212995   6.497   6.041   3.349  0.0553 -0.1653 -0.3490
 4344TIP3    H112996   6.582   6.017   3.312 -0.0454 -1.8044  0.4061
 4344TIP3    H212997   6.443   5.964   3.336 -1.5603  1.0923 -1.4291
 4345TIP3   OH212998   4.430   3.287   1.122 -0.4073  0.6439 -0.7391
 4345TIP3    H112999   4.519   3.312   1.096  1.2378 -1.8163  1.8637
 4345TIP3    H213000   4.387   3.262   1.040  1.1148  2.2739 -2.1248
 4346TIP3   OH213001   7.073   3.600   0.785  0.2722  0.5771 -0.2650
 4346TIP3    H113002   7.009   3.649   0.836 -0.0716 -1.7588  1.7215
 4346TIP3    H213003   7.155   3.610   0.833 -0.2846 -2.5753  1.6376
 4347TIP3   OH213004   4.716   3.527   4.340 -0.2024  0.1083 -0.0905
 4347TIP3    H113005   4.751   3.552   4.425  1.8067 -1.1414 -0.4817
 4347TIP3    H213006   4.686   3.436   4.352  1.2867 -0.5288 -0.9988
 4348TIP3   OH213007   0.633   6.714   3.903 -0.6301 -0.0287  0.0911
 4348TIP3    H113008   0.622   6.622   3.878 -0.9010 -0.0627  0.3393
 4348TIP3    H213009   0.629   6.762   3.820 -2.1899 -0.0753  0.1187
 4349TIP3   OH213010   5.130   5.557   0.118  0.1960 -0.3023  0.3139
 4349TIP3    H113011   5.117   5.650   0.104  0.0425 -0.3836 -0.1027
 4349TIP3    H213012   5.199   5.552   0.185  2.0481  0.1148 -1.4501
 4350TIP3   OH213013   2.184   0.382   3.462 -0.0521 -0.8033 -0.3718
 4350TIP3    H113014   2.105   0.341   3.496  0.0398  0.8348  2.1213
 4350TIP3    H213015   2.163   0.475   3.459  2.0926 -0.1452  1.6350
 4351TIP3   OH213016   5.764   5.133   0.136  0.1332  0.0167  1.1891
 4351TIP3    H113017   5.803   5.051   0.105 -0.2294  0.4163 -0.4442
 4351TIP3    H213018   5.670   5.114   0.139 -0.2887  1.0820 -1.8620
 4352TIP3   OH213019   5.319   2.548   3.764 -0.4936 -0.1876  0.3549
 4352TIP3    H113020   5.288   2.460   3.785  3.0303 -1.4727  0.8625
 4352TIP3    H213021   5.369   2.537   3.683 -1.9490  1.8735 -0.8831
 4353TIP3   OH213022   0.558   5.670   4.878 -0.3535 -0.0102 -0.1521
 4353TIP3    H113023   0.633   5.703   4.828  0.2145  1.9924  1.9043
 4353TIP3    H213024   0.537   5.587   4.835  1.3440  0.6238 -2.4384
 4354TIP3   OH213025   0.100   0.250   1.933 -0.6374 -0.0161 -0.5096
 4354TIP3    H113026   0.042   0.236   2.007 -0.9831 -0.4222 -0.8510
 4354TIP3    H213027   0.133   0.163   1.911  2.5220  0.5090  1.5667
 4355TIP3   OH213028   2.757   2.138   2.536 -0.5620  0.1160  0.0133
 4355TIP3    H113029   2.776   2.170   2.448  0.6026 -0.1554  0.1581
 4355TIP3    H213030   2.790   2.206   2.594  1.5210 -1.0735  0.3105
 4356TIP3   OH213031   1.983   4.350   5.513  0.1722  0.3207  0.8499
 4356TIP3    H113032   2.055   4.349   5.450 -0.6217  0.3526 -0.0827
 4356TIP3    H213033   1.991   4.267   5.560  0.0915 -0.2498 -0.1093
 4357TIP3   OH213034   6.825   3.112   3.562  0.3176  0.4599 -0.2020
 4357TIP3    H113035   6.798   3.033   3.608  0.2467  0.6050  0.0047
 4357TIP3    H213036   6.918   3.122   3.584  1.1819 -1.2570 -2.6362
 4358TIP3   OH213037   0.828   1.656   2.314  0.3559 -0.0271 -0.4079
 4358TIP3    H113038   0.756   1.718   2.321  0.1492 -0.2732 -0.3102
 4358TIP3    H213039   0.787   1.574   2.287  0.3172 -0.6643  1.4449
 4359TIP3   OH213040   4.186   6.646   5.658 -0.0964  0.3465  0.5930
 4359TIP3    H113041   4.109   6.590   5.651 -1.1951  1.7621  0.8569
 4359TIP3    H213042   4.219   6.630   5.747  0.9601 -1.5020 -0.0781
 4360TIP3   OH213043   2.111   6.038   4.613  0.1043  0.0781 -0.3960
 4360TIP3    H113044   2.061   6.061   4.691 -1.5687 -0.0743 -1.3507
 4360TIP3    H213045   2.202   6.041   4.640 -0.2939  2.3177  0.9626
 4361TIP3   OH213046   5.768   3.313   4.459  0.2278  0.1225 -0.4779
 4361TIP3    H113047   5.775   3.404   4.430  3.2055  0.3208  0.5450
 4361TIP3    H213048   5.680   3.307   4.496 -0.2491  2.4278 -1.0768
 4362TIP3   OH213049   3.541   3.687   4.541  0.2357 -0.2986 -0.0654
 4362TIP3    H113050   3.464   3.651   4.586 -0.4207 -0.8436 -1.5745
 4362TIP3    H213051   3.564   3.765   4.592 -0.2665 -1.0654  1.3977
 4363TIP3   OH213052   3.699   6.586   4.223 -0.2380 -0.0692  0.0954
 4363TIP3    H113053   3.628   6.647   4.204 -0.8640 -1.0545 -0.8636
 4363TIP3    H213054   3.775   6.642   4.242 -0.7448  1.0091 -0.9207
 4364TIP3   OH213055   4.765   0.441   2.289 -0.3788  0.1964  0.7557
 4364TIP3    H113056   4.681   0.484   2.273  0.4141  1.8153  0.7553
 4364TIP3    H213057   4.743   0.364   2.341 -1.8529  0.6801  0.8877
 4365TIP3   OH213058   5.987   5.773   2.465 -0.0673 -0.0139 -0.1582
 4365TIP3    H113059   6.011   5.835   2.533 -0.2340  0.1594 -0.2551
 4365TIP3    H213060   6.070   5.750   2.423 -0.1026  0.9015 -0.7619
 4366TIP3   OH213061   5.088   1.915   1.125 -0.3787 -0.0288 -0.2656
 4366TIP3    H113062   5.101   1.955   1.039 -2.2864  1.4669  0.0633
 4366TIP3    H213063   5.152   1.958   1.182 -0.5188  0.5443 -0.5270
 4367TIP3   OH213064   2.826   2.500   1.214 -0.1292 -0.5014  0.2001
 4367TIP3    H113065   2.876   2.499   1.133 -0.6436  0.2527 -0.1389
 4367TIP3    H213066   2.883   2.456   1.278  0.6578 -0.2920 -0.3421
 4368TIP3   OH213067   4.230   3.736   4.742 -0.0537 -0.5230 -0.5003
 4368TIP3    H113068   4.191   3.649   4.754 -2.4934  0.6178  0.5792
 4368TIP3    H213069   4.213   3.757   4.650 -0.1553 -0.8887 -0.5674
 4369TIP3   OH213070   3.828   0.696   2.806 -0.1670  0.0090  0.1445
 4369TIP3    H113071   3.750   0.735   2.846 -1.6402 -0.7563 -1.8322
 4369TIP3    H213072   3.835   0.609   2.846  0.7616  0.7175  1.6093
 4370TIP3   OH213073   1.467   3.826   0.980  0.4021 -0.9021 -0.0254
 4370TIP3    H113074   1.478   3.749   1.035  1.8921 -1.6105 -1.2516
 4370TIP3    H213075   1.556   3.858   0.965 -0.0902  0.1867 -0.7398
 4371TIP3   OH213076   1.355   1.855   0.402 -0.0213 -0.7337 -0.2372
 4371TIP3    H113077   1.379   1.770   0.364 -0.0098  0.8097 -4.1894
 4371TIP3    H213078   1.262   1.846   0.423 -0.1326 -1.6122 -1.0180
 4372TIP3   OH213079   6.361   0.516   3.713 -0.1424 -0.4572 -0.5811
 4372TIP3    H113080   6.268   0.526   3.696  0.1163  0.8750 -1.3463
 4372TIP3    H213081   6.396   0.605   3.711  0.9788 -0.8309  0.7338
 4373TIP3   OH213082   3.615   0.039   4.794 -0.0320 -0.0662 -0.2599
 4373TIP3    H113083   3.597   0.122   4.838  1.5506 -0.2029  0.7126
 4373TIP3    H213084   3.570  -0.027   4.847 -1.2408  0.1330 -1.0000
 4374TIP3   OH213085   2.985   4.102   1.759  0.0794 -0.2218 -0.1487
 4374TIP3    H113086   2.979   4.010   1.735 -0.6146 -0.5473  1.1785
 4374TIP3    H213087   2.900   4.139   1.735 -0.2667 -0.3306  0.8778
 4375TIP3   OH213088   2.608   0.594   1.758 -0.2590 -0.3734  0.3469
 4375TIP3    H113089   2.598   0.662   1.824  0.0395  1.9308 -1.8232
 4375TIP3    H213090   2.522   0.587   1.717  0.6249  1.7548 -2.1219
 4376TIP3   OH213091   4.580   4.766   2.008  0.4187 -0.4301 -0.3051
 4376TIP3    H113092   4.669   4.800   2.004  0.4794 -0.3299  1.3487
 4376TIP3    H213093   4.526   4.843   2.027  0.2354 -0.8091  0.7670
 4377TIP3   OH213094   5.925   1.407   1.680  0.4414  0.1415 -0.2733
 4377TIP3    H113095   5.926   1.346   1.753 -0.6550  0.9273  0.4321
 4377TIP3    H213096   5.835   1.404   1.648  0.7876  0.1699 -1.2921
 4378TIP3   OH213097   2.686   0.498   2.500 -0.0310  0.1572  0.0058
 4378TIP3    H113098   2.756   0.527   2.559 -0.3563  0.6665  0.1475
 4378TIP3    H213099   2.709   0.407   2.479 -0.4348 -0.3942  1.7315
 4379TIP3   OH213100   1.803   5.786   5.155 -0.1308  0.1389 -0.2725
 4379TIP3    H113101   1.747   5.838   5.214  0.3157  4.2596 -3.0563
 4379TIP3    H213102   1.887   5.783   5.200 -0.3128  1.5197  0.2200
 4380TIP3   OH213103   1.727   1.408   0.120 -0.2339  0.0940 -0.0079
 4380TIP3    H113104   1.765   1.495   0.112 -2.4475  0.9895 -1.7135
 4380TIP3    H213105   1.646   1.412   0.069 -0.8216 -2.7303  0.5358
 4381TIP3   OH213106   2.450   3.533   1.679  0.8086  0.1938  0.0528
 4381TIP3    H113107   2.502   3.603   1.717  0.2962  0.3096  0.5596
 4381TIP3    H213108   2.416   3.569   1.597  1.0504  0.3159  0.0059
 4382TIP3   OH213109   3.577   0.364   4.693 -0.1345 -0.4705 -0.8969
 4382TIP3    H113110   3.556   0.310   4.769  0.5565  2.4060  1.5097
 4382TIP3    H213111   3.652   0.322   4.653 -0.2454 -1.8231  0.2596
 4383TIP3   OH213112   4.665   1.479   4.016  0.4772  0.0344 -0.3374
 4383TIP3    H113113   4.700   1.557   4.060  1.6512  0.3871 -1.8105
 4383TIP3    H213114   4.640   1.510   3.929 -2.4468 -0.4813  0.2117
 4384TIP3   OH213115   4.686   4.404   2.686 -0.9221 -0.2361 -0.1413
 4384TIP3    H113116   4.659   4.495   2.694  1.0900  0.5251 -1.1576
 4384TIP3    H213117   4.712   4.378   2.775 -0.0501  0.7136 -0.0987
 4385TIP3   OH213118   0.812   1.277   3.596 -0.6262  0.1165  0.2177
 4385TIP3    H113119   0.803   1.220   3.519 -1.4282  2.7077 -1.7554
 4385TIP3    H213120   0.744   1.246   3.656  0.1681 -2.1221  0.0646
 4386TIP3   OH213121   4.648   6.174   2.212  0.0653 -0.1812  0.2160
 4386TIP3    H113122   4.604   6.152   2.130 -1.0094  1.5150  0.2754
 4386TIP3    H213123   4.639   6.096   2.267 -1.8448 -0.3102 -0.2205
 4387TIP3   OH213124   6.050   5.791   1.129 -0.0620  0.3642  0.3735
 4387TIP3    H113125   6.087   5.849   1.062  2.1168 -1.5946 -0.2626
 4387TIP3    H213126   5.987   5.737   1.081 -0.9155  1.1360  0.6207
 4388TIP3   OH213127   5.643   3.637   1.137 -0.0622 -0.1059 -0.5862
 4388TIP3    H113128   5.654   3.710   1.197 -0.6782 -0.6781  0.2348
 4388TIP3    H213129   5.689   3.665   1.057  3.3240 -0.4505  1.0381
 4389TIP3   OH213130   6.029   5.892   4.342 -0.1301  0.4265 -0.3330
 4389TIP3    H113131   5.945   5.938   4.343  0.4802  1.5609 -0.0396
 4389TIP3    H213132   6.007   5.805   4.309 -1.8084 -0.1088  1.9639
 4390TIP3   OH213133   4.073   6.277   0.222 -0.0340 -0.3299 -0.2598
 4390TIP3    H113134   4.095   6.285   0.129  0.2524  1.3618 -0.0664
 4390TIP3    H213135   4.001   6.214   0.224  0.9422 -1.5424 -1.4703
 4391TIP3   OH213136   1.292   0.781   2.936  0.0441 -0.2020 -0.2971
 4391TIP3    H113137   1.269   0.777   2.843 -2.1593  0.4140  0.1514
 4391TIP3    H213138   1.278   0.693   2.969  0.4926 -0.3402 -0.4711
 4392TIP3   OH213139   4.095   2.848   5.514  0.8982  0.4533 -0.7761
 4392TIP3    H113140   4.040   2.775   5.543  1.2385  1.0348  1.6005
 4392TIP3    H213141   4.127   2.822   5.428 -0.5190 -1.3157 -0.8324
 4393TIP3   OH213142   0.162   2.563   2.758  0.4111  0.0388 -0.0062
 4393TIP3    H113143   0.151   2.654   2.731 -0.0778 -0.4628 -1.6351
 4393TIP3    H213144   0.253   2.543   2.738  0.5587  0.1991  0.4879
 4394TIP3   OH213145   6.659   0.041   5.148 -0.3358 -0.2559  0.3158
 4394TIP3    H113146   6.670   0.024   5.055 -0.3360  0.1390  0.2428
 4394TIP3    H213147   6.598   0.115   5.152  0.0779  0.0744  0.6119
 4395TIP3   OH213148   4.701   0.576   5.139  0.3994  0.4197 -0.2601
 4395TIP3    H113149   4.769   0.554   5.203  0.6915 -0.4900 -0.8701
 4395TIP3    H213150   4.743   0.565   5.054 -0.7672 -1.1357 -0.6858
 4396TIP3   OH213151   4.886   0.376   2.863 -0.2147  0.1043 -0.7833
 4396TIP3    H113152   4.828   0.300   2.871  0.8623 -0.6299  0.6109
 4396TIP3    H213153   4.957   0.346   2.806 -0.5859  0.6106 -1.5254
 4397TIP3   OH213154   1.591   6.618   2.471 -0.2171  0.6128  0.7321
 4397TIP3    H113155   1.582   6.700   2.422  1.1356 -0.1606 -0.9270
 4397TIP3    H213156   1.502   6.597   2.499 -0.7278  2.1427  0.3511
 4398TIP3   OH213157   6.856   0.764   5.096  0.0884 -0.5037 -0.2545
 4398TIP3    H113158   6.849   0.858   5.078  2.6319 -0.4918 -1.6671
 4398TIP3    H213159   6.950   0.749   5.110 -0.4632 -2.5588  1.9243
 4399TIP3   OH213160   0.338   0.403   0.426 -0.4572  0.2908  0.0094
 4399TIP3    H113161   0.340   0.474   0.490 -0.0213  0.3224 -0.0402
 4399TIP3    H213162   0.429   0.377   0.416 -0.7294 -1.1696  1.0159
 4400TIP3   OH213163   0.379   5.324   1.546  0.1614  0.1968  0.4721
 4400TIP3    H113164   0.328   5.245   1.526  0.8907 -0.3231  0.6143
 4400TIP3    H213165   0.415   5.351   1.462  0.2742  0.1182  0.4950
 4401TIP3   OH213166   0.649   3.260   2.919  0.4456  0.1371 -0.2168
 4401TIP3    H113167   0.702   3.325   2.874  0.6144 -1.0020 -1.7319
 4401TIP3    H213168   0.579   3.239   2.858  1.2184 -2.1479 -0.4158
 4402TIP3   OH213169   0.822   6.227   3.043  0.5861  0.4165 -0.2792
 4402TIP3    H113170   0.878   6.168   3.094  1.7307  0.2434 -1.6791
 4402TIP3    H213171   0.859   6.314   3.056 -0.0654  0.6121  0.3928
 4403TIP3   OH213172   6.706   6.308   4.652  0.1170 -0.4672 -0.0570
 4403TIP3    H113173   6.680   6.222   4.687  0.8996 -1.4408 -1.7391
 4403TIP3    H213174   6.796   6.295   4.622 -0.1466  0.6215 -1.3926
 4404TIP3   OH213175   0.537   5.947   4.749 -0.2140  0.5360 -0.0531
 4404TIP3    H113176   0.503   5.872   4.799 -0.7307 -0.1588 -1.4034
 4404TIP3    H213177   0.464   6.008   4.745 -0.2925  0.4268 -0.2797
 4405TIP3   OH213178   4.185   6.556   0.063 -0.0726 -0.0096 -0.5276
 4405TIP3    H113179   4.199   6.602  -0.019 -0.8588 -0.3350 -0.8495
 4405TIP3    H213180   4.108   6.502   0.048  0.0085 -0.3725  0.2962
 4406TIP3   OH213181   3.667   6.711   0.146 -0.4030 -0.1430  0.3462
 4406TIP3    H113182   3.672   6.664   0.229  2.0351  1.1259  0.9983
 4406TIP3    H213183   3.573   6.729   0.135 -0.9622 -1.7584  1.9675
 4407TIP3   OH213184   3.523   2.376   0.168  0.2542 -0.3185 -0.4002
 4407TIP3    H113185   3.572   2.450   0.203 -2.1838  1.7660 -1.0942
 4407TIP3    H213186   3.474   2.342   0.242  0.0250 -0.0883 -0.4460
 4408TIP3   OH213187   5.415   3.762   5.809  0.3661  0.2214 -0.1366
 4408TIP3    H113188   5.502   3.723   5.814 -0.3769 -1.4338  0.8913
 4408TIP3    H213189   5.381   3.756   5.898 -1.6828 -1.4070 -0.9474
 4409TIP3   OH213190   2.106   3.840   1.194  0.1752 -0.2609 -0.0248
 4409TIP3    H113191   2.091   3.761   1.141 -0.3098 -0.8772  0.9963
 4409TIP3    H213192   2.076   3.912   1.139 -1.5467 -0.9989 -0.1065
 4410TIP3   OH213193   0.699   2.273   5.566  0.0801  0.6142  0.0311
 4410TIP3    H113194   0.671   2.202   5.624 -0.9192  1.1066  0.1829
 4410TIP3    H213195   0.695   2.351   5.622  2.0472  0.7017  0.1344
 4411TIP3   OH213196   4.097   2.127   2.362 -0.3905 -0.3600 -0.2921
 4411TIP3    H113197   4.008   2.093   2.376 -0.2558 -0.9778 -0.8552
 4411TIP3    H213198   4.114   2.183   2.438 -0.8317 -1.1305  0.3911
 4412TIP3   OH213199   4.410   0.806   0.584 -0.2211 -0.1361  0.3715
 4412TIP3    H113200   4.449   0.873   0.528  0.1352  0.0431  0.8263
 4412TIP3    H213201   4.402   0.729   0.528 -0.5630  0.2654 -0.1315
 4413TIP3   OH213202   6.450   6.409   0.524  0.4858  0.4239 -0.4828
 4413TIP3    H113203   6.374   6.458   0.554 -0.3622 -1.2730  0.2719
 4413TIP3    H213204   6.521   6.474   0.524 -0.8903  2.0068 -1.0748
 4414TIP3   OH213205   1.719   0.347   1.095  0.5713  0.3628 -0.4253
 4414TIP3    H113206   1.646   0.328   1.154  2.0036  1.0456  1.6719
 4414TIP3    H213207   1.694   0.429   1.052  0.3708  0.9662  0.7931
 4415TIP3   OH213208   4.005   3.373   5.850  0.7629  0.4047 -0.3098
 4415TIP3    H113209   3.989   3.379   5.756 -0.2897 -2.2376 -0.3876
 4415TIP3    H213210   4.098   3.350   5.857  1.2979  2.2762 -0.5440
 4416TIP3   OH213211   5.853   4.907   4.370  0.1979 -0.5320 -0.0617
 4416TIP3    H113212   5.947   4.915   4.349  0.1648 -0.2232 -0.0887
 4416TIP3    H213213   5.810   4.965   4.308 -0.1271 -1.6747 -0.9556
 4417TIP3   OH213214   4.199   4.913   1.086  0.5111  0.1187  0.2279
 4417TIP3    H113215   4.174   4.996   1.125 -1.8845 -0.1574 -0.5521
 4417TIP3    H213216   4.116   4.868   1.069  1.6507 -1.6753 -1.0022
 4418TIP3   OH213217   1.715   1.069   3.075 -0.1321 -0.5349  0.2188
 4418TIP3    H113218   1.756   1.016   3.143 -1.1737 -1.3349  0.2413
 4418TIP3    H213219   1.632   1.025   3.056  0.3126 -0.5998 -1.8907
 4419TIP3   OH213220   6.428   2.796   5.018  0.3607  0.2228  0.6454
 4419TIP3    H113221   6.458   2.850   5.091 -0.5103  0.2937  0.9690
 4419TIP3    H213222   6.496   2.730   5.007  0.1373 -0.2674  2.0461
 4420TIP3   OH213223   5.430   0.425   5.036 -0.1915  0.4126  0.6833
 4420TIP3    H113224   5.435   0.365   5.111  0.4753  2.0676  2.0381
 4420TIP3    H213225   5.507   0.481   5.045 -0.5894  1.2293 -0.7361
 4421TIP3   OH213226   0.113   3.394   0.924  0.1222 -0.0755 -0.5137
 4421TIP3    H113227   0.183   3.343   0.965  0.8404  1.6100  0.4508
 4421TIP3    H213228   0.137   3.396   0.831  1.9094  1.2248 -0.0798
 4422TIP3   OH213229   6.347   0.249   4.277  0.7583  0.1119 -0.6252
 4422TIP3    H113230   6.357   0.334   4.233  2.8671  0.7028  0.8097
 4422TIP3    H213231   6.302   0.270   4.359 -0.8276 -0.5662 -1.2970
 4423TIP3   OH213232   5.747   2.442   0.822  0.1589 -0.3110  0.0565
 4423TIP3    H113233   5.708   2.526   0.848  1.2680 -0.0130  0.8220
 4423TIP3    H213234   5.746   2.390   0.902 -0.1768 -0.9064 -0.3276
 4424TIP3   OH213235   6.318   4.210   4.500  0.6340  0.0175  0.1639
 4424TIP3    H113236   6.318   4.123   4.459  2.2651  0.1769 -0.2439
 4424TIP3    H213237   6.294   4.270   4.429  2.9583  0.2389 -0.5028
 4425TIP3   OH213238   2.693   0.527   4.770 -0.2532 -0.0965 -0.0524
 4425TIP3    H113239   2.785   0.501   4.766 -0.3375 -0.5000  0.4839
 4425TIP3    H213240   2.655   0.495   4.688  0.0823  0.0540 -0.2666
 4426TIP3   OH213241   4.921   2.523   5.612 -0.5284 -0.0399 -0.1042
 4426TIP3    H113242   4.870   2.456   5.566 -0.6882 -0.2890  0.4333
 4426TIP3    H213243   4.996   2.476   5.648  0.4711  0.4403 -1.4630
 4427TIP3   OH213244   5.122   0.496   0.478 -0.4041  0.2749 -0.9410
 4427TIP3    H113245   5.145   0.552   0.404  1.1662  1.9145  0.6721
 4427TIP3    H213246   5.109   0.557   0.551  3.8754 -1.3482  1.5514
 4428TIP3   OH213247   3.056   5.292   4.245  0.2098  0.0198  0.1215
 4428TIP3    H113248   3.126   5.355   4.261  0.0810  0.4408 -0.9038
 4428TIP3    H213249   3.101   5.207   4.239  0.4183  0.0407  1.1870
 4429TIP3   OH213250   2.062   3.204   2.774  0.3390 -0.1308  0.2360
 4429TIP3    H113251   2.039   3.172   2.686 -3.9580 -0.6827  1.3290
 4429TIP3    H213252   2.158   3.206   2.774  0.5962 -1.7618 -3.8506
 4430TIP3   OH213253   2.213   4.322   5.355 -0.1778 -0.3625  0.0206
 4430TIP3    H113254   2.192   4.383   5.285 -0.5476  0.7104  1.0311
 4430TIP3    H213255   2.267   4.255   5.313  0.9282  1.0836 -0.9711
 4431TIP3   OH213256   5.383   4.905   5.154  0.8661  0.2823 -0.3305
 4431TIP3    H113257   5.379   4.940   5.243 -2.5895 -0.9817  0.1329
 4431TIP3    H213258   5.349   4.976   5.099 -1.9081 -0.6570  0.0672
 4432TIP3   OH213259   4.934   3.572   3.304  0.1418  0.2433  0.3370
 4432TIP3    H113260   5.029   3.580   3.296  0.0547  0.4982 -0.5544
 4432TIP3    H213261   4.920   3.480   3.330  0.6173  0.1670  0.3301
 4433TIP3   OH213262   5.164   5.601   1.451  0.4790  0.3178 -0.3028
 4433TIP3    H113263   5.088   5.546   1.431 -1.7997  2.5425  1.4766
 4433TIP3    H213264   5.142   5.686   1.413  1.3139  1.4474  1.6213
 4434TIP3   OH213265   2.973   3.954   2.141 -0.1778 -0.2388 -0.3885
 4434TIP3    H113266   3.046   3.906   2.101 -0.4489 -0.6057 -0.4443
 4434TIP3    H213267   3.011   4.040   2.164  0.5267 -0.7494  0.4386
 4435TIP3   OH213268   5.236   1.806   3.431  0.6173 -0.1345  0.0842
 4435TIP3    H113269   5.303   1.822   3.497 -0.6376  1.8868  0.9896
 4435TIP3    H213270   5.274   1.838   3.350  1.0206  0.3779  0.4637
 4436TIP3   OH213271   2.338   4.410   0.164  0.3327  0.2135 -0.3726
 4436TIP3    H113272   2.365   4.458   0.242  0.2090 -2.1382  1.2253
 4436TIP3    H213273   2.382   4.454   0.092  2.4184  1.0113  1.3035
 4437TIP3   OH213274   3.407   4.646   3.113 -0.4019  0.3272 -0.0732
 4437TIP3    H113275   3.434   4.580   3.177  0.2730  0.3852 -0.2942
 4437TIP3    H213276   3.318   4.620   3.089 -1.2079  1.0443  1.8667
 4438TIP3   OH213277   0.452   6.700   0.618  0.5565  0.9394 -0.4309
 4438TIP3    H113278   0.392   6.689   0.544  0.5640  1.7306 -0.5698
 4438TIP3    H213279   0.395   6.712   0.694  0.5478 -0.0826 -0.2592
 4439TIP3   OH213280   6.776   1.419   4.433 -0.0850 -0.0039  0.1421
 4439TIP3    H113281   6.735   1.339   4.400 -0.1756  0.3101 -0.5272
 4439TIP3    H213282   6.728   1.490   4.390  0.3935  0.3945  0.2600
 4440TIP3   OH213283   5.856   0.224   0.937 -0.3884 -0.3078  0.4933
 4440TIP3    H113284   5.892   0.191   0.855 -1.6256  1.1920 -0.7202
 4440TIP3    H213285   5.808   0.303   0.912 -0.0306  0.7267  2.8047
 4441TIP3   OH213286   3.331   4.180   3.102  0.0126 -0.2725 -0.2274
 4441TIP3    H113287   3.418   4.164   3.066 -0.1618 -0.5887 -0.5225
 4441TIP3    H213288   3.346   4.211   3.191  0.4449  0.2338 -0.4703
 4442TIP3   OH213289   4.988   6.474   2.620 -0.1454  0.0619  0.6377
 4442TIP3    H113290   4.919   6.446   2.680 -0.9335 -0.6033 -0.5443
 4442TIP3    H213291   4.969   6.428   2.538  1.4220  0.2517  0.1332
 4443TIP3   OH213292   2.938   6.136   3.827  0.0512 -0.6810  0.1098
 4443TIP3    H113293   2.992   6.157   3.903  0.5901 -0.4066 -0.3489
 4443TIP3    H213294   2.999   6.099   3.763 -0.6533 -2.5191  0.4250
 4444TIP3   OH213295   0.134   2.540   5.728 -0.0130  0.3572 -0.1267
 4444TIP3    H113296   0.126   2.467   5.789  0.2035  0.0869 -0.4139
 4444TIP3    H213297   0.085   2.512   5.650 -1.1734  1.1381  0.3051
 4445TIP3   OH213298   6.666   4.079   5.259 -0.3353  0.0374  0.3446
 4445TIP3    H113299   6.702   4.057   5.345  0.0544  1.1629  0.4747
 4445TIP3    H213300   6.573   4.094   5.275 -0.1905  0.6379  0.6466
 4446TIP3   OH213301   3.924   1.577   5.195 -0.9324  0.0125 -0.1413
 4446TIP3    H113302   3.865   1.587   5.120  0.2256 -0.6378 -1.1672
 4446TIP3    H213303   3.919   1.661   5.241 -3.2699 -0.2867  0.2999
 4447TIP3   OH213304   1.176   3.126   1.412  0.5211  0.0062  0.1656
 4447TIP3    H113305   1.149   3.059   1.349  2.4504  1.3458 -2.2866
 4447TIP3    H213306   1.232   3.080   1.474  0.4741 -0.9734 -0.4978
 4448TIP3   OH213307   6.464   2.745   1.897 -0.9408  0.2981 -0.9094
 4448TIP3    H113308   6.516   2.816   1.935  0.8319  0.0986 -2.7807
 4448TIP3    H213309   6.375   2.762   1.927  0.0838  0.8245  2.2111
 4449TIP3   OH213310   1.536   0.226   4.761 -0.0440  0.1950 -0.6736
 4449TIP3    H113311   1.554   0.215   4.854 -0.9248 -1.0656 -0.6220
 4449TIP3    H213312   1.576   0.149   4.720  0.4965  0.8340 -1.3657
 4450TIP3   OH213313   5.387   0.309   1.393  0.5315 -0.2513  0.0162
 4450TIP3    H113314   5.459   0.321   1.331  0.7450  2.3389  0.6238
 4450TIP3    H213315   5.310   0.345   1.347  0.0193 -1.1774  0.1207
 4451TIP3   OH213316   3.426   1.598   1.084 -0.5651 -0.0738 -0.6867
 4451TIP3    H113317   3.429   1.614   0.989  0.1778 -0.4428 -0.7398
 4451TIP3    H213318   3.516   1.613   1.113 -0.6308 -0.6672 -0.1582
 4452TIP3   OH213319   5.136   4.011   4.214  0.2378 -0.2593  0.4297
 4452TIP3    H113320   5.087   3.966   4.282 -0.5687 -1.7622 -1.0731
 4452TIP3    H213321   5.227   4.006   4.243  0.1062 -2.2996  0.6701
 4453TIP3   OH213322   2.179   2.096   1.568  0.3802  0.4415  0.3224
 4453TIP3    H113323   2.265   2.073   1.602  0.5509 -1.2951 -1.1153
 4453TIP3    H213324   2.192   2.178   1.520  1.3286 -0.0088 -0.2052
 4454TIP3   OH213325   6.106   2.108   3.424 -0.1073 -0.3747 -0.4940
 4454TIP3    H113326   6.016   2.080   3.442 -0.4794  1.2973  0.4124
 4454TIP3    H213327   6.108   2.123   3.329 -0.2888 -2.0061 -0.7853
 4455TIP3   OH213328   6.801   2.218   5.736  0.3587 -0.3451 -0.1732
 4455TIP3    H113329   6.770   2.262   5.657  0.5267  0.7390  0.3457
 4455TIP3    H213330   6.726   2.218   5.795  0.8600  0.8398  0.4860
 4456TIP3   OH213331   5.695   1.769   0.811  0.2790  0.1528 -0.0323
 4456TIP3    H113332   5.736   1.778   0.897  0.4276 -1.9597  0.1698
 4456TIP3    H213333   5.744   1.698   0.768  0.4958  1.4511 -2.0577
 4457TIP3   OH213334   1.003   3.622   2.206 -0.0481 -0.2722  0.5527
 4457TIP3    H113335   0.925   3.676   2.200  0.5402  0.6248  0.7105
 4457TIP3    H213336   1.070   3.671   2.159  0.8827 -0.1463  1.9576
 4458TIP3   OH213337   2.699   5.912   2.903  0.1084  0.6897  0.1521
 4458TIP3    H113338   2.623   5.944   2.854 -1.3710 -0.3248  1.6851
 4458TIP3    H213339   2.772   5.968   2.874 -1.3503  2.1738 -0.8078
 4459TIP3   OH213340   3.151   2.850   1.501  0.2284  0.1322  0.0119
 4459TIP3    H113341   3.125   2.925   1.555 -0.3163  0.1214 -0.2315
 4459TIP3    H213342   3.197   2.888   1.427 -0.3900  0.2579 -0.3123
 4460TIP3   OH213343   4.344   1.831   0.854  0.4473  0.2936 -0.1479
 4460TIP3    H113344   4.283   1.757   0.861  2.2162 -1.2515 -0.2346
 4460TIP3    H213345   4.298   1.895   0.801 -1.6400 -0.2066  0.9403
 4461TIP3   OH213346   4.371   0.659   2.705 -0.3004  0.6007 -0.3995
 4461TIP3    H113347   4.429   0.662   2.781 -0.7652  1.4086 -0.0690
 4461TIP3    H213348   4.419   0.606   2.641  0.7425  1.1243 -0.0787
 4462TIP3   OH213349   5.562   6.485   1.378 -0.1005 -0.0192  0.4658
 4462TIP3    H113350   5.494   6.549   1.400 -0.1252  0.5227 -1.0430
 4462TIP3    H213351   5.548   6.466   1.285  2.4142  0.9253 -0.1994
 4463TIP3   OH213352   4.116   3.928   3.580  0.4519 -0.3386  0.0491
 4463TIP3    H113353   4.208   3.941   3.555  0.5005 -0.8873 -0.0843
 4463TIP3    H213354   4.082   4.016   3.594  0.9346 -0.1178 -0.1343
 4464TIP3   OH213355   6.306   4.726   3.160 -0.3490  0.0314  0.4419
 4464TIP3    H113356   6.306   4.811   3.116 -0.8046 -1.2244 -2.2069
 4464TIP3    H213357   6.399   4.702   3.165 -0.1507  0.9961  1.9678
 4465TIP3   OH213358   2.593   1.991   0.158 -0.7208 -0.7034  0.1703
 4465TIP3    H113359   2.683   1.958   0.164  0.8520  3.2903  2.3001
 4465TIP3    H213360   2.542   1.930   0.211  1.1766 -1.7962  0.8471
 4466TIP3   OH213361   3.002   2.522   3.652  0.1357  0.1055  0.3834
 4466TIP3    H113362   3.017   2.601   3.601  1.7291 -0.3608  0.0597
 4466TIP3    H213363   3.088   2.478   3.654 -0.6664 -1.5289  0.6715
 4467TIP3   OH213364   5.354   0.314   4.714  0.3488  0.5880 -0.1809
 4467TIP3    H113365   5.318   0.383   4.769  1.2785  0.7774  0.2091
 4467TIP3    H213366   5.382   0.246   4.776 -0.5627 -0.1632 -0.5550
 4468TIP3   OH213367   0.648   1.521   1.323 -0.5623 -0.3874 -0.2122
 4468TIP3    H113368   0.664   1.431   1.352 -0.0700 -0.7605 -1.5972
 4468TIP3    H213369   0.578   1.552   1.380 -1.3953 -1.9649 -0.3368
 4469TIP3   OH213370   1.201   2.545   3.267 -0.1104  0.0503 -0.5669
 4469TIP3    H113371   1.177   2.453   3.254  0.7074 -0.1203 -0.9566
 4469TIP3    H213372   1.296   2.543   3.277  0.0357  0.9554 -1.5820
 4470TIP3   OH213373   5.356   1.557   0.630  0.1342  0.1003  0.1722
 4470TIP3    H113374   5.313   1.524   0.709  1.2845 -1.7751  0.0913
 4470TIP3    H213375   5.288   1.556   0.563 -0.0517 -1.6241  0.3408
 4471TIP3   OH213376   6.663   0.977   3.393 -0.3743  0.0190  0.0718
 4471TIP3    H113377   6.661   1.072   3.401 -0.5836  0.2080 -1.7800
 4471TIP3    H213378   6.752   0.952   3.415 -0.2417  0.6716  0.2881
 4472TIP3   OH213379   4.102   0.853  -0.005 -0.2023 -0.4708 -0.2958
 4472TIP3    H113380   4.098   0.823   0.086  0.7886  1.2664  0.3517
 4472TIP3    H213381   4.177   0.912  -0.008 -0.6940  0.1232 -2.0586
 4473TIP3   OH213382   2.654   3.462   5.683  1.2746 -0.2060 -0.1096
 4473TIP3    H113383   2.562   3.436   5.678  1.0028  0.7761 -0.4282
 4473TIP3    H213384   2.681   3.473   5.592  1.0881  1.5632  0.0199
 4474TIP3   OH213385   3.786   2.081   2.736  0.2591  0.1786  0.6795
 4474TIP3    H113386   3.715   2.128   2.779 -1.0899 -0.1710 -1.0385
 4474TIP3    H213387   3.821   2.023   2.803 -1.6632 -0.2600  1.3828
 4475TIP3   OH213388   2.769   3.402   0.326 -0.2158 -0.0174 -0.0227
 4475TIP3    H113389   2.818   3.438   0.252 -1.7408 -0.5607 -1.3583
 4475TIP3    H213390   2.777   3.307   0.317  1.3733 -0.1169  1.8085
 4476TIP3   OH213391   4.818   6.726   1.560  0.4042  0.4124 -0.3691
 4476TIP3    H113392   4.896   6.739   1.614  0.8219 -0.2443 -0.8124
 4476TIP3    H213393   4.754   6.788   1.597  2.0658  3.2951 -1.9183
 4477TIP3   OH213394   3.490   1.809   5.526  0.0469 -0.2193 -0.0816
 4477TIP3    H113395   3.568   1.757   5.546  0.0745  0.1359  0.7821
 4477TIP3    H213396   3.428   1.787   5.596 -1.3145 -1.8403 -1.6983
 4478TIP3   OH213397   0.430   0.023   5.447  0.6744 -0.0559  0.1110
 4478TIP3    H113398   0.478   0.104   5.431  0.4326 -0.2112 -1.4799
 4478TIP3    H213399   0.338   0.049   5.446  0.3906 -0.7537 -3.5317
 4479TIP3   OH213400   2.015   6.736   3.475  0.1338 -0.3935  0.2224
 4479TIP3    H113401   1.926   6.752   3.444  0.2392 -1.4674 -0.7155
 4479TIP3    H213402   2.062   6.703   3.398  1.3744  0.2264  0.6787
 4480TIP3   OH213403   0.690   2.932   0.346 -0.0211 -0.4523  0.0353
 4480TIP3    H113404   0.712   2.882   0.424  2.3145 -0.5681 -0.6144
 4480TIP3    H213405   0.711   2.874   0.273 -0.3123  0.3499 -0.7132
 4481TIP3   OH213406   0.952   6.220   1.779  0.4349  0.1413 -0.3901
 4481TIP3    H113407   0.894   6.181   1.844  2.1330 -0.6932  0.7156
 4481TIP3    H213408   0.894   6.263   1.717 -1.2814  0.4246  1.3348
 4482TIP3   OH213409   0.117   0.892   4.571 -0.1418 -0.3118 -0.2246
 4482TIP3    H113410   0.186   0.863   4.510  1.0769  1.1004  0.4256
 4482TIP3    H213411   0.162   0.950   4.632 -1.3145 -1.6899  2.0767
 4483TIP3   OH213412   6.111   4.954   5.545  0.3258 -0.6502 -0.2979
 4483TIP3    H113413   6.202   4.942   5.574  0.9426  1.1260 -1.3275
 4483TIP3    H213414   6.116   4.958   5.450 -0.6013  0.9069 -0.3167
 4484TIP3   OH213415   5.048   3.139   3.049 -0.6966 -0.4914  0.4787
 4484TIP3    H113416   5.118   3.074   3.036  1.9990  2.4936 -1.5747
 4484TIP3    H213417   5.076   3.189   3.125 -0.6898  0.5180 -0.1609
 4485TIP3   OH213418   7.145   0.956   3.020 -0.1202  0.1199  0.9962
 4485TIP3    H113419   7.058   0.931   3.051 -0.9080  2.5735  0.9527
 4485TIP3    H213420   7.129   1.020   2.951  1.6931 -1.7225 -1.3216
 4486TIP3   OH213421   3.085   4.556   3.270 -0.0851  0.0398  0.2339
 4486TIP3    H113422   3.115   4.591   3.187  2.2746 -0.6658  0.7121
 4486TIP3    H213423   3.054   4.468   3.250 -0.2298  0.1506 -0.0215
 4487TIP3   OH213424   0.120   4.634   4.002  0.0425 -0.2655  0.0533
 4487TIP3    H113425   0.152   4.683   4.077  0.4967 -0.0943 -0.2411
 4487TIP3    H213426   0.045   4.585   4.034  0.0108  0.0879  0.5236
 4488TIP3   OH213427   5.323   4.087   5.793 -0.0452 -0.3965 -0.3013
 4488TIP3    H113428   5.239   4.048   5.772 -0.8608  1.9369 -1.7423
 4488TIP3    H213429   5.386   4.039   5.740 -0.7391 -0.9255 -0.6600
 4489TIP3   OH213430   1.565   2.128   2.462 -0.0369  0.3255  0.0820
 4489TIP3    H113431   1.558   2.122   2.557 -1.4325  2.9711  0.2451
 4489TIP3    H213432   1.501   2.195   2.437  0.5832  0.0319 -2.6864
 4490TIP3   OH213433   5.907   4.062   2.677  0.1403 -0.4014  0.1015
 4490TIP3    H113434   5.950   4.062   2.762 -1.7076  0.4693  1.1032
 4490TIP3    H213435   5.912   4.153   2.647  0.8915 -0.7219 -0.8220
 4491TIP3   OH213436   1.266   1.403   3.035 -0.2364 -0.1685  0.4407
 4491TIP3    H113437   1.212   1.478   3.009 -0.1757 -0.5253 -0.7492
 4491TIP3    H213438   1.346   1.443   3.069 -1.6217  0.4172  3.3007
 4492TIP3   OH213439   4.299   6.250   3.164  0.3029  0.0121  0.4859
 4492TIP3    H113440   4.252   6.188   3.108  0.3037 -0.1584  0.6744
 4492TIP3    H213441   4.373   6.279   3.111 -0.5781  1.0647 -0.2052
 4493TIP3   OH213442   6.729   5.344   1.188  0.3262  0.5056  0.5885
 4493TIP3    H113443   6.783   5.401   1.133  1.6005 -0.4081  0.8453
 4493TIP3    H213444   6.650   5.394   1.205  0.4176  1.2659 -1.1081
 4494TIP3   OH213445   3.342   4.118   5.222 -0.1394  0.4143  0.1923
 4494TIP3    H113446   3.383   4.138   5.307 -0.1390  1.1992  0.0189
 4494TIP3    H213447   3.256   4.160   5.227 -0.4869 -0.2836  0.1317
 4495TIP3   OH213448   4.913   4.515   5.659 -0.3089 -0.5047 -0.0562
 4495TIP3    H113449   4.853   4.461   5.609  0.7472 -1.1503 -0.6728
 4495TIP3    H213450   4.948   4.457   5.727 -0.2105 -0.2022  0.1601
 4496TIP3   OH213451   5.281   5.817   2.649  0.0463  0.1117  0.1759
 4496TIP3    H113452   5.251   5.840   2.561  0.8299 -1.1266 -0.4423
 4496TIP3    H213453   5.375   5.832   2.647 -0.1206  1.4071  1.2565
 4497TIP3   OH213454   1.684   4.497   2.188  0.2854 -0.5876 -0.0315
 4497TIP3    H113455   1.734   4.496   2.107 -0.3175  0.6454 -0.4399
 4497TIP3    H213456   1.648   4.408   2.195  1.7542 -1.2302 -0.1857
 4498TIP3   OH213457   1.595   4.430   5.081 -0.1777 -0.0700 -0.3967
 4498TIP3    H113458   1.643   4.392   5.155 -1.7099  0.7723  1.1036
 4498TIP3    H213459   1.548   4.504   5.119 -1.2394  0.2193 -2.1762
 4499TIP3   OH213460   7.093   1.043   5.519 -0.4791 -0.3347  0.0181
 4499TIP3    H113461   7.090   0.948   5.504  1.7835 -0.3340 -0.8430
 4499TIP3    H213462   7.031   1.058   5.590  1.2317 -2.9187  2.2832
 4500TIP3   OH213463   4.763   4.545   1.281  0.2501 -0.0208 -0.3768
 4500TIP3    H113464   4.757   4.480   1.210  0.6884  0.1101 -0.5386
 4500TIP3    H213465   4.831   4.605   1.252 -0.5141  0.8231 -0.4789
 4501TIP3   OH213466   2.520   1.806   1.792  0.0896  0.0807 -0.6183
 4501TIP3    H113467   2.449   1.848   1.841 -0.7490  0.1311 -1.8501
 4501TIP3    H213468   2.600   1.840   1.832 -0.4936 -1.2948  1.9620
 4502TIP3   OH213469   0.994   1.129   2.986 -0.2242  0.1447 -0.6160
 4502TIP3    H113470   0.946   1.048   2.968 -2.8256  1.1299  1.3281
 4502TIP3    H213471   1.037   1.112   3.070  1.2249  0.0063 -1.3550
 4503TIP3   OH213472   0.390   4.545   4.987  0.2836 -0.1888  0.0196
 4503TIP3    H113473   0.397   4.453   4.962 -0.3584  0.1615 -1.5854
 4503TIP3    H213474   0.479   4.580   4.977  0.2240 -0.2855 -0.8860
 4504TIP3   OH213475   5.334   1.487   3.243 -0.6031  0.3834 -0.1264
 4504TIP3    H113476   5.255   1.473   3.296 -0.7221  0.7283 -0.2140
 4504TIP3    H213477   5.314   1.563   3.189 -1.0232 -0.7750 -1.6779
 4505TIP3   OH213478   1.763   2.564   5.757  0.0576  0.2614 -0.1122
 4505TIP3    H113479   1.776   2.477   5.794 -1.3373 -0.8115 -1.9583
 4505TIP3    H213480   1.825   2.567   5.683  0.7077  1.1969  0.4511
 4506TIP3   OH213481   0.715   6.229   0.487  0.3680  0.2167  0.6453
 4506TIP3    H113482   0.620   6.231   0.475 -0.0880 -2.1755  3.0283
 4506TIP3    H213483   0.734   6.307   0.539 -0.2479  0.7495  0.1022
 4507TIP3   OH213484   2.490   0.242   1.894  0.5095 -0.0246  0.3245
 4507TIP3    H113485   2.555   0.213   1.829  0.6480  1.2313 -0.1289
 4507TIP3    H213486   2.528   0.320   1.933 -1.1521  1.3871 -0.7143
 4508TIP3   OH213487   5.911   3.220   3.625  0.1158 -0.0711 -0.7971
 4508TIP3    H113488   5.849   3.177   3.566 -0.1414  0.0850 -0.6415
 4508TIP3    H213489   5.856   3.275   3.681  0.5051  0.9750 -1.4204
 4509TIP3   OH213490   6.746   1.291   2.481  0.2465  0.0378 -0.1714
 4509TIP3    H113491   6.739   1.272   2.574  0.5222  0.3592 -0.0848
 4509TIP3    H213492   6.826   1.247   2.453 -0.6207 -1.3510 -0.5894
 4510TIP3   OH213493   5.394   2.126   3.801 -0.5125  0.1273  0.3648
 4510TIP3    H113494   5.336   2.185   3.848 -2.5426 -0.8530 -0.7762
 4510TIP3    H213495   5.388   2.043   3.849  0.8513  0.3137  0.8862
 4511TIP3   OH213496   5.627   1.801   3.236 -0.3450 -0.2955  0.0330
 4511TIP3    H113497   5.721   1.819   3.231 -0.5239  0.9376  0.7025
 4511TIP3    H213498   5.590   1.880   3.275 -1.3573 -1.6735  2.0756
 4512TIP3   OH213499   6.465   2.208   3.449  0.3271  0.4758 -0.1575
 4512TIP3    H113500   6.408   2.131   3.457 -0.0790  0.7653 -0.1800
 4512TIP3    H213501   6.547   2.174   3.415  0.5543 -0.1210  0.9516
 4513TIP3   OH213502   3.581   6.605   2.110 -0.3577  0.0950 -0.5052
 4513TIP3    H113503   3.619   6.526   2.071 -0.6507 -0.2904 -0.0293
 4513TIP3    H213504   3.564   6.663   2.036 -1.3055 -0.7957 -1.0165
 4514TIP3   OH213505   5.141   2.361   5.427  0.2760 -0.0353  0.4185
 4514TIP3    H113506   5.082   2.330   5.496  1.2257  1.6306  2.0790
 4514TIP3    H213507   5.218   2.305   5.434  0.0167 -0.4329  0.1112
 4515TIP3   OH213508   5.514   6.604   4.963 -0.1660  0.4654  0.4980
 4515TIP3    H113509   5.436   6.549   4.968 -0.0236  0.2777  0.6658
 4515TIP3    H213510   5.586   6.544   4.979  0.0651  0.5005 -0.4039
 4516TIP3   OH213511   4.832   4.548   3.973  0.0306  0.1000  1.1342
 4516TIP3    H113512   4.890   4.599   4.031  0.6880 -0.4091  0.9390
 4516TIP3    H213513   4.788   4.487   4.031 -0.2578  0.4382  1.2742
 4517TIP3   OH213514   1.906   3.292   3.359 -0.2710 -0.5238  0.1148
 4517TIP3    H113515   1.972   3.300   3.428 -0.5762  1.5614  0.2408
 4517TIP3    H213516   1.956   3.264   3.282  0.2764 -1.6679  0.8538
 4518TIP3   OH213517   0.231   4.099   4.607  0.2570  0.4616 -0.2177
 4518TIP3    H113518   0.208   4.095   4.700 -1.4025 -1.4890 -0.6392
 4518TIP3    H213519   0.176   4.169   4.572 -1.3538 -0.7692 -0.2425
 4519TIP3   OH213520   0.148   0.743   4.029 -0.0916  0.1562  0.4969
 4519TIP3    H113521   0.059   0.726   4.061  0.2254  0.3327  1.4918
 4519TIP3    H213522   0.204   0.727   4.105  0.5877  1.6409  0.3367
 4520TIP3   OH213523   2.986   4.398   1.494 -0.0286 -0.1887 -0.2145
 4520TIP3    H113524   2.901   4.440   1.485 -1.1069 -2.2797 -0.6284
 4520TIP3    H213525   3.030   4.413   1.411 -0.5829 -0.2454 -0.5212
 4521TIP3   OH213526   5.184   3.211   4.516 -0.3437  0.2024  0.1884
 4521TIP3    H113527   5.102   3.235   4.559 -0.6480 -0.8461  0.2064
 4521TIP3    H213528   5.236   3.168   4.584 -0.7760 -1.3416 -0.4214
 4522TIP3   OH213529   2.552   0.089   5.789  0.7589  0.5039  0.0540
 4522TIP3    H113530   2.527   0.177   5.762 -0.3370  0.2725  0.2690
 4522TIP3    H213531   2.589   0.049   5.709 -0.8555  0.4076 -0.6985
 4523TIP3   OH213532   1.148   5.123   5.397  0.5561 -0.3115  0.4190
 4523TIP3    H113533   1.092   5.164   5.463 -0.9781 -2.2346  0.4043
 4523TIP3    H213534   1.181   5.196   5.345 -0.8734  0.9983  1.2499
 4524TIP3   OH213535   0.398   2.055   3.878  0.1550  0.6341 -0.6443
 4524TIP3    H113536   0.326   2.088   3.824 -0.5576  0.2708  0.0704
 4524TIP3    H213537   0.402   2.116   3.952  0.1898  0.3068 -0.3767
 4525TIP3   OH213538   2.046   5.773   4.589 -0.3770  0.1020  0.3003
 4525TIP3    H113539   2.069   5.863   4.568 -1.8170  0.5243  0.4559
 4525TIP3    H213540   2.046   5.769   4.685  2.7321 -0.9143  0.3669
 4526TIP3   OH213541   4.775   1.672   5.695 -0.3440 -0.6261 -0.1074
 4526TIP3    H113542   4.838   1.677   5.767  0.1013 -1.7266 -0.4099
 4526TIP3    H213543   4.781   1.758   5.653  1.3369 -0.8825 -0.4489
 4527TIP3   OH213544   1.659   3.677   3.964  0.2322  0.9824 -0.2683
 4527TIP3    H113545   1.610   3.726   4.029  1.1054 -0.3917  1.4969
 4527TIP3    H213546   1.605   3.682   3.885 -1.7420  1.1866  1.0286
 4528TIP3   OH213547   2.132   0.583   2.826 -0.1325  0.3227 -0.2134
 4528TIP3    H113548   2.098   0.561   2.739 -0.4115 -1.5691  0.3313
 4528TIP3    H213549   2.089   0.521   2.885  2.1497 -0.3174  0.9029
 4529TIP3   OH213550   5.915   5.740   3.008 -0.4485 -0.4518 -0.5490
 4529TIP3    H113551   6.000   5.782   3.017 -0.6014 -0.2272 -0.1588
 4529TIP3    H213552   5.934   5.656   2.966  0.2403 -1.3646  1.4795
 4530TIP3   OH213553   1.292   5.634   3.558 -0.1443  0.2336 -0.1166
 4530TIP3    H113554   1.284   5.690   3.635 -0.1902  0.7048 -0.4617
 4530TIP3    H213555   1.255   5.685   3.486 -0.8245 -0.5024 -0.3163
 4531TIP3   OH213556   0.857   5.802   5.554 -0.8140  0.4443  0.1748
 4531TIP3    H113557   0.904   5.838   5.629 -0.7831  0.3363  0.2083
 4531TIP3    H213558   0.792   5.868   5.531  0.7427  1.5527 -1.2148
 4532TIP3   OH213559   5.085   1.283   1.383  0.3761  0.2520  0.9184
 4532TIP3    H113560   5.157   1.281   1.446  1.5809 -2.3101 -0.3699
 4532TIP3    H213561   5.008   1.257   1.433  1.0038 -0.2862  1.6217
 4533TIP3   OH213562   2.007   2.403   2.935 -0.1272  0.1771 -0.1357
 4533TIP3    H113563   1.955   2.483   2.937  0.7668  0.7773  0.0964
 4533TIP3    H213564   1.958   2.340   2.988  0.0376  1.1423  1.2008
 4534TIP3   OH213565   4.392   6.225   5.566  0.0638 -0.4918  0.3097
 4534TIP3    H113566   4.432   6.212   5.652  1.4176  0.7763 -0.0981
 4534TIP3    H213567   4.448   6.289   5.523 -1.4912  0.0871 -0.9326
 4535TIP3   OH213568   1.086   0.033   5.138 -0.0448 -0.1748  0.0625
 4535TIP3    H113569   1.030   0.053   5.213 -0.2203 -0.4541  0.0056
 4535TIP3    H213570   1.027  -0.005   5.073  0.5528 -2.5742  0.8237
 4536TIP3   OH213571   2.366   2.948   0.649 -0.1236  0.1812 -0.8555
 4536TIP3    H113572   2.278   2.961   0.613 -0.7626 -0.7668  0.2915
 4536TIP3    H213573   2.402   2.876   0.598 -1.0252 -1.1583  0.3216
 4537TIP3   OH213574   0.212   3.000   0.193  0.1049  0.1429  0.2546
 4537TIP3    H113575   0.176   3.065   0.254 -0.3513 -0.3787  0.5525
 4537TIP3    H213576   0.265   2.943   0.248  0.8194  0.4879 -0.0703
 4538TIP3   OH213577   1.980   4.694   0.913 -0.1532 -0.4053  0.3104
 4538TIP3    H113578   1.989   4.731   1.001 -1.8996 -0.4303  0.5345
 4538TIP3    H213579   2.021   4.759   0.856  1.0981 -0.4356  1.1155
 4539TIP3   OH213580   5.402   2.138   0.827  0.0651 -0.2110 -0.0512
 4539TIP3    H113581   5.411   2.109   0.737 -0.7187 -1.6328  0.2936
 4539TIP3    H213582   5.461   2.081   0.877 -0.1313  0.0032  0.4345
 4540TIP3   OH213583   2.811   1.386   1.434 -0.1501  0.2963  0.2434
 4540TIP3    H113584   2.888   1.382   1.379 -0.7925  0.7907 -0.7243
 4540TIP3    H213585   2.760   1.308   1.411  0.1448 -0.1382  1.0239
 4541TIP3   OH213586   1.802   5.912   0.781 -0.0676 -0.6513  0.7600
 4541TIP3    H113587   1.888   5.953   0.790 -0.1231 -0.2498 -0.3630
 4541TIP3    H213588   1.740   5.985   0.788 -0.1925 -0.5905 -0.7002
 4542TIP3   OH213589   3.520   3.392   1.820  0.5324  0.0709 -0.5206
 4542TIP3    H113590   3.466   3.443   1.880  0.5776 -1.0011  0.4734
 4542TIP3    H213591   3.484   3.410   1.734 -1.3112 -0.4533  0.0885
 4543TIP3   OH213592   1.065   2.223   0.809  0.0842 -0.0271 -0.1948
 4543TIP3    H113593   1.058   2.310   0.771  0.9995  1.1755  2.1916
 4543TIP3    H213594   0.977   2.205   0.844 -0.0392  0.0334 -0.4688
 4544TIP3   OH213595   2.555   2.834   3.835  0.6340 -0.4220  0.0254
 4544TIP3    H113596   2.581   2.743   3.819  0.1439 -0.6603  0.5568
 4544TIP3    H213597   2.620   2.886   3.787  0.5559 -1.0617 -0.7957
 4545TIP3   OH213598   1.159   2.039   2.951  0.9512  0.0241  0.1155
 4545TIP3    H113599   1.151   2.024   3.045  2.8326 -1.1962  0.1321
 4545TIP3    H213600   1.216   2.115   2.943 -0.3356  1.0049 -0.0659
 4546TIP3   OH213601   2.334   6.621   3.059  0.1699 -0.1800  0.3219
 4546TIP3    H113602   2.352   6.536   3.101  1.4447  0.3614  0.9220
 4546TIP3    H213603   2.420   6.662   3.049 -0.2425  0.3159 -1.5918
 4547TIP3   OH213604   1.175   5.962   5.434 -0.4749 -0.2893  0.1576
 4547TIP3    H113605   1.205   6.034   5.490 -0.8161  0.5251 -0.6925
 4547TIP3    H213606   1.083   5.981   5.417 -0.0031  0.3638 -1.9640
 4548TIP3   OH213607   5.470   5.387   5.313  0.2675 -0.0526 -0.0118
 4548TIP3    H113608   5.505   5.469   5.345 -0.8723  0.1800  0.6979
 4548TIP3    H213609   5.376   5.391   5.333  0.2190 -1.5919  0.1997
 4549TIP3   OH213610   0.236   5.019   0.254  0.0874 -0.0627  0.6315
 4549TIP3    H113611   0.198   5.104   0.278  0.7080  0.2778  0.4157
 4549TIP3    H213612   0.270   4.984   0.337 -0.6521 -0.3581  0.8223
 4550TIP3   OH213613   2.012   3.422   5.461 -0.2537 -0.2245  0.3174
 4550TIP3    H113614   2.098   3.442   5.425 -1.0481  0.5024 -1.2646
 4550TIP3    H213615   2.021   3.438   5.555  1.4737 -0.7237  0.2799
 4551TIP3   OH213616   7.008   6.756   3.066  0.3403 -0.2071 -0.0732
 4551TIP3    H113617   7.073   6.711   3.013 -0.7690 -1.6090 -0.3102
 4551TIP3    H213618   6.935   6.773   3.006 -0.3608 -0.5570  0.6569
 4552TIP3   OH213619   1.098   4.422   2.315 -0.5355 -0.6912  0.2271
 4552TIP3    H113620   1.082   4.410   2.408 -0.0119 -0.0596  0.4145
 4552TIP3    H213621   1.194   4.426   2.308 -0.5806 -0.4067 -0.2850
 4553TIP3   OH213622   4.337   4.237   1.214 -0.3464 -0.7745 -0.3704
 4553TIP3    H113623   4.412   4.296   1.229 -1.9147  1.1992  0.1136
 4553TIP3    H213624   4.301   4.221   1.301 -1.5268 -0.2268 -0.7381
 4554TIP3   OH213625   0.535   6.697   5.512  0.3192 -0.5297  0.6068
 4554TIP3    H113626   0.569   6.782   5.484 -1.2408 -0.7076 -2.1523
 4554TIP3    H213627   0.445   6.716   5.539  0.2068 -1.1834  0.6872
 4555TIP3   OH213628   0.571   5.936   1.058  0.9187 -0.2156  0.0891
 4555TIP3    H113629   0.541   6.014   1.106 -2.1093 -1.7413  0.9325
 4555TIP3    H213630   0.545   5.952   0.967 -1.0542 -0.7517  0.5077
 4556TIP3   OH213631   6.512   5.287   4.089 -0.1808  0.2464 -0.1268
 4556TIP3    H113632   6.444   5.257   4.029 -0.4006  0.2362  0.1274
 4556TIP3    H213633   6.465   5.312   4.168  0.2963 -1.6799  0.8112
 4557TIP3   OH213634   4.206   2.910   1.149  0.5177 -0.3814  0.3261
 4557TIP3    H113635   4.145   2.956   1.092 -0.3490  1.2980  2.4514
 4557TIP3    H213636   4.235   2.834   1.098 -1.5656  0.0211 -1.6047
 4558TIP3   OH213637   0.844   5.765   4.830 -0.1850 -0.6911 -0.7249
 4558TIP3    H113638   0.834   5.836   4.766 -0.1802  0.1371  0.1737
 4558TIP3    H213639   0.938   5.759   4.844 -0.0512 -1.8836 -1.8733
 4559TIP3   OH213640   2.658   4.664   0.184  0.1445  0.1175 -0.5081
 4559TIP3    H113641   2.725   4.727   0.211  0.7711  0.1090 -1.9151
 4559TIP3    H213642   2.576   4.713   0.189  0.4696  0.6583 -0.3597
 4560TIP3   OH213643   1.629   4.357   2.890  0.1311 -0.8444 -0.3700
 4560TIP3    H113644   1.676   4.353   2.806  0.0869  1.4661 -0.5711
 4560TIP3    H213645   1.663   4.436   2.932 -2.5763  0.1646  0.0832
 4561TIP3   OH213646   1.091   5.095   3.564 -0.3424  0.1396 -0.2824
 4561TIP3    H113647   1.032   5.153   3.515 -0.0264  0.8777  0.1936
 4561TIP3    H213648   1.098   5.136   3.650  0.7046 -0.0541 -0.2678
 4562TIP3   OH213649   2.918   3.502   0.854 -0.0870 -0.5194  0.0690
 4562TIP3    H113650   2.903   3.506   0.760 -0.7651 -2.5763  0.0478
 4562TIP3    H213651   3.013   3.514   0.864 -0.0663  0.1435 -0.8202
 4563TIP3   OH213652   4.578   5.047   3.492 -0.2740  0.1485  0.3380
 4563TIP3    H113653   4.519   4.983   3.531 -0.5294 -0.9589 -1.7263
 4563TIP3    H213654   4.527   5.128   3.488 -2.1418 -1.0313 -2.3540
 4564TIP3   OH213655   0.693   6.708   1.616 -0.3143 -0.2834 -0.1385
 4564TIP3    H113656   0.708   6.655   1.695 -1.8807 -0.8544 -0.1802
 4564TIP3    H213657   0.659   6.646   1.552  0.0031  0.3635 -0.9411
 4565TIP3   OH213658   0.958   3.756   1.183  0.0115  1.1774 -0.2166
 4565TIP3    H113659   0.944   3.806   1.103 -1.8147  0.5933 -0.3059
 4565TIP3    H213660   1.053   3.758   1.196  0.3868  1.0672 -2.5215
 4566TIP3   OH213661   0.397   4.846   3.968  0.2599 -0.3051 -0.0066
 4566TIP3    H113662   0.355   4.919   4.013  1.4730 -0.2671  1.1272
 4566TIP3    H213663   0.428   4.788   4.038  1.5587 -0.6163 -0.7898
 4567TIP3   OH213664   1.930   0.365   0.178 -0.3051  0.1426  1.2599
 4567TIP3    H113665   1.924   0.434   0.244 -0.5230 -1.7570  3.3509
 4567TIP3    H213666   1.862   0.387   0.114 -0.0021  2.1189  1.5315
 4568TIP3   OH213667   0.448   3.673   1.144  0.1023 -0.1519  0.2341
 4568TIP3    H113668   0.414   3.710   1.063  1.5486  0.1751 -0.2521
 4568TIP3    H213669   0.501   3.599   1.117  1.6651  0.7309  0.7352
 4569TIP3   OH213670   3.829   2.444   2.956 -0.2728  0.2667 -0.1523
 4569TIP3    H113671   3.914   2.417   2.923 -0.2829 -2.7340  1.8602
 4569TIP3    H213672   3.820   2.535   2.928  2.5656  0.0154 -2.3239
 4570TIP3   OH213673   0.906   0.415   3.028 -0.7943 -0.0735  0.0569
 4570TIP3    H113674   1.001   0.420   3.023 -0.7031 -0.6567  1.0086
 4570TIP3    H213675   0.885   0.437   3.118 -1.7252  1.9707 -0.6051
 4571TIP3   OH213676   3.155   6.145   3.634 -0.6674  0.3165 -0.1589
 4571TIP3    H113677   3.240   6.101   3.635 -0.7179  0.2356  0.7685
 4571TIP3    H213678   3.136   6.157   3.541  0.9156  1.4478 -0.3676
 4572TIP3   OH213679   1.839   2.755   3.862  0.9908 -0.7509 -0.5880
 4572TIP3    H113680   1.786   2.693   3.810  0.3863 -0.6995 -0.0484
 4572TIP3    H213681   1.776   2.821   3.891  1.7765  0.6254 -1.8687
 4573TIP3   OH213682   4.947   3.768   1.448  0.0551  0.0061 -0.5796
 4573TIP3    H113683   4.950   3.797   1.357 -1.6303 -0.8344 -0.9537
 4573TIP3    H213684   4.857   3.783   1.475  0.6360  0.6423  1.1141
 4574TIP3   OH213685   7.027   4.392   5.827  0.2611  0.8927  0.6662
 4574TIP3    H113686   7.066   4.307   5.844  0.6091  0.5351 -1.5515
 4574TIP3    H213687   7.050   4.411   5.736 -0.4782  3.0046  0.8578
 4575TIP3   OH213688   6.403   5.139   2.025 -0.0995  0.3874 -0.1811
 4575TIP3    H113689   6.433   5.079   1.957 -1.3432  0.8269 -1.1559
 4575TIP3    H213690   6.333   5.092   2.071 -1.8599  1.4140 -1.6686
 4576TIP3   OH213691   4.961   5.108   5.817 -0.8823  0.7271  0.1864
 4576TIP3    H113692   4.965   5.184   5.759 -2.3539 -0.3755 -1.4971
 4576TIP3    H213693   4.872   5.109   5.852 -1.1219 -0.4829 -0.3200
 4577TIP3   OH213694   0.027   0.168   1.204 -0.1929  0.1022  0.3010
 4577TIP3    H113695  -0.011   0.254   1.190  0.6364  0.5280  0.5967
 4577TIP3    H213696   0.098   0.183   1.267 -0.1277 -0.8161  0.4638
 4578TIP3   OH213697   1.276   3.553   4.006 -0.3872 -0.5903  0.6744
 4578TIP3    H113698   1.195   3.605   4.009 -0.9779 -1.0762 -2.6148
 4578TIP3    H213699   1.248   3.464   4.029 -0.6422 -0.5924  0.3701
 4579TIP3   OH213700   1.062   1.788   1.935  0.0413  0.7613  0.2705
 4579TIP3    H113701   1.076   1.876   1.901 -0.9624  0.3954 -1.2272
 4579TIP3    H213702   1.063   1.732   1.857  0.3885 -0.5180  1.1618
 4580TIP3   OH213703   1.041   0.596   3.242 -0.7266 -0.5409 -0.0996
 4580TIP3    H113704   1.072   0.505   3.242  1.4700  0.1648 -0.1005
 4580TIP3    H213705   1.092   0.639   3.310 -1.7612  0.7076 -0.0833
 4581TIP3   OH213706   3.210   4.730   5.790  0.1112  0.2565  0.1584
 4581TIP3    H113707   3.155   4.697   5.862  2.2444 -2.0961  0.8651
 4581TIP3    H213708   3.164   4.704   5.711 -0.2364 -0.9303  0.7219
 4582TIP3   OH213709   2.563   5.575   1.252 -0.3383 -0.1331  0.5452
 4582TIP3    H113710   2.532   5.519   1.324  1.6244 -0.0145  1.5669
 4582TIP3    H213711   2.588   5.657   1.295  0.1965  0.2019 -0.3852
 4583TIP3   OH213712   5.842   1.232   0.567  0.3888 -0.4267 -0.2289
 4583TIP3    H113713   5.827   1.326   0.580  1.6682 -0.0001 -1.5673
 4583TIP3    H213714   5.892   1.205   0.645  0.5553  0.1543 -0.1297
 4584TIP3   OH213715   6.608   4.911   4.429  0.3108  0.4895 -0.3315
 4584TIP3    H113716   6.626   4.991   4.380  1.1920  1.6936  1.8208
 4584TIP3    H213717   6.584   4.941   4.516  0.0700 -1.5915  0.3780
 4585TIP3   OH213718   3.739   1.646   4.705  0.0763  0.0805  0.1883
 4585TIP3    H113719   3.802   1.699   4.657  1.0435 -0.3770  0.9273
 4585TIP3    H213720   3.655   1.689   4.691  0.7265  1.3598  0.1497
 4586TIP3   OH213721   5.141   5.367   4.132 -0.1314  0.0547 -0.4262
 4586TIP3    H113722   5.086   5.434   4.171 -0.2827 -0.0634 -0.4361
 4586TIP3    H213723   5.146   5.390   4.039  0.3380  0.4116 -0.3172
 4587TIP3   OH213724   1.153   5.636   3.209  0.3374  0.1811 -0.0928
 4587TIP3    H113725   1.244   5.616   3.231 -0.1478 -0.0487  1.9037
 4587TIP3    H213726   1.140   5.726   3.238 -0.1621  0.0768  0.0240
 4588TIP3   OH213727   2.696   3.713   1.930 -0.0130  0.3364 -0.0031
 4588TIP3    H113728   2.666   3.744   1.844 -2.7732 -2.2962 -0.1738
 4588TIP3    H213729   2.676   3.786   1.989 -1.6034  0.8467 -1.0778
 4589TIP3   OH213730   1.468   5.202   5.484  0.3074  0.0831 -0.1424
 4589TIP3    H113731   1.483   5.154   5.565  0.6581 -2.7088 -1.7356
 4589TIP3    H213732   1.383   5.172   5.453 -0.2863  1.8757 -0.3561
 4590TIP3   OH213733   0.136   5.788   3.443  0.1311 -0.3044  0.1094
 4590TIP3    H113734   0.042   5.795   3.422 -0.2346 -0.6879  1.5247
 4590TIP3    H213735   0.175   5.752   3.363 -1.1404 -1.4356 -0.0419
 4591TIP3   OH213736   7.181   2.571   5.479 -0.7360 -0.2324 -0.5011
 4591TIP3    H113737   7.237   2.494   5.474 -0.2466 -0.1708  2.3047
 4591TIP3    H213738   7.182   2.607   5.390  2.3806 -1.1343 -0.9652
 4592TIP3   OH213739   0.816   4.568   1.892  0.0507 -0.0229  0.2533
 4592TIP3    H113740   0.889   4.594   1.835 -0.1430 -0.9807 -0.4391
 4592TIP3    H213741   0.826   4.624   1.970  0.3803  1.2275 -0.6530
 4593TIP3   OH213742   2.013   1.017   2.074 -0.5548  0.2554 -0.4669
 4593TIP3    H113743   2.037   0.943   2.018  0.0045 -0.6665  0.9419
 4593TIP3    H213744   1.989   1.087   2.012 -0.7436 -0.9690 -1.8307
 4594TIP3   OH213745   6.870   2.957   4.154 -0.2261 -0.1697 -0.4850
 4594TIP3    H113746   6.927   2.881   4.145  0.9021  0.7610 -1.6604
 4594TIP3    H213747   6.817   2.957   4.074 -1.9680 -1.0393  0.6035
 4595TIP3   OH213748   4.831   6.712   5.070  0.0815 -0.0161 -0.6584
 4595TIP3    H113749   4.918   6.747   5.089 -0.0932  0.5172 -0.8300
 4595TIP3    H213750   4.831   6.696   4.976  0.4250 -1.2296 -0.4732
 4596TIP3   OH213751   3.096   0.607   0.632 -0.2540  0.6924  0.4915
 4596TIP3    H113752   3.047   0.566   0.702 -1.3834  1.5092  0.2057
 4596TIP3    H213753   3.065   0.698   0.630 -0.0396  0.7650 -0.8681
 4597TIP3   OH213754   5.399   3.416   5.070  0.9231 -0.5652  0.0180
 4597TIP3    H113755   5.492   3.437   5.061  0.5526  1.5488  0.5421
 4597TIP3    H213756   5.396   3.350   5.139  2.1353 -1.8855 -1.1473
 4598TIP3   OH213757   1.935   5.202   5.226  0.1966  0.3971 -0.2743
 4598TIP3    H113758   1.972   5.233   5.143 -0.6820 -0.5953 -1.0727
 4598TIP3    H213759   2.010   5.195   5.284  1.0347 -0.0844 -1.3743
 4599TIP3   OH213760   0.070   5.578   3.704  0.1696 -0.1286 -0.1163
 4599TIP3    H113761   0.055   5.610   3.615 -0.7980 -0.8528 -0.2161
 4599TIP3    H213762   0.148   5.626   3.733  1.9355 -1.5599 -2.1907
 4600TIP3   OH213763   3.092   5.744   3.910 -0.8567  0.5946  0.3119
 4600TIP3    H113764   3.080   5.760   3.816 -1.3028 -0.8697  0.0902
 4600TIP3    H213765   3.039   5.666   3.928  0.0648  0.2156  1.5512
 4601TIP3   OH213766   6.959   2.409   4.777  0.1783 -0.0384  0.6530
 4601TIP3    H113767   7.014   2.487   4.770  0.2613  0.1327  2.5911
 4601TIP3    H213768   6.975   2.360   4.696  0.3268  1.8030 -0.4732
 4602TIP3   OH213769   4.873   1.301   3.229  0.1665 -0.1991  0.4333
 4602TIP3    H113770   4.786   1.337   3.209  0.7364  0.2025 -1.5513
 4602TIP3    H213771   4.921   1.375   3.266  0.2307  0.1313 -0.2790
 4603TIP3   OH213772   2.841   5.448   2.803  0.0427  0.1041  0.1180
 4603TIP3    H113773   2.829   5.508   2.877 -1.8898 -0.6527  0.4717
 4603TIP3    H213774   2.752   5.433   2.770  0.9392  1.8444 -3.5441
 4604TIP3   OH213775   3.272   5.050   4.098  0.0490 -0.3453  0.3740
 4604TIP3    H113776   3.254   5.009   4.183  1.8340  0.4081  1.1516
 4604TIP3    H213777   3.358   5.089   4.108  0.1292  0.0878 -1.6899
 4605TIP3   OH213778   2.980   5.897   1.632 -0.2915 -0.2080 -0.3144
 4605TIP3    H113779   2.998   5.989   1.652  1.8680 -0.7304  0.3422
 4605TIP3    H213780   2.916   5.871   1.698 -0.9365  0.7938 -0.5090
 4606TIP3   OH213781   2.942   3.594   2.740 -0.1283 -0.6088  0.0426
 4606TIP3    H113782   2.981   3.534   2.676 -0.0788 -0.9688  0.4023
 4606TIP3    H213783   2.927   3.539   2.817 -0.7681 -0.3309  0.1259
 4607TIP3   OH213784   1.168   1.975   5.785  0.1177 -0.1077 -0.1589
 4607TIP3    H113785   1.229   1.902   5.776  0.9310  0.7307 -1.6839
 4607TIP3    H213786   1.165   2.015   5.698 -1.7123  0.5931  0.1788
 4608TIP3   OH213787   2.417   0.662   5.178  0.2160 -0.5877 -0.5376
 4608TIP3    H113788   2.374   0.711   5.248  0.6020 -2.4407  1.0996
 4608TIP3    H213789   2.492   0.716   5.152 -1.2990  1.2504 -1.2817
 4609TIP3   OH213790   4.149   5.361   3.950  0.1140  0.0911  0.3670
 4609TIP3    H113791   4.078   5.418   3.919  0.6084 -0.0054 -1.0142
 4609TIP3    H213792   4.123   5.337   4.039 -2.2245 -0.9377 -0.4994
 4610TIP3   OH213793   5.071   4.332   3.364  0.3699  0.2435  0.0040
 4610TIP3    H113794   5.054   4.394   3.293  2.2658  0.2513 -0.4968
 4610TIP3    H213795   5.070   4.386   3.443 -1.9354  0.2039  0.0666
 4611TIP3   OH213796   4.055   0.344   3.189  1.1850 -0.2734 -0.1284
 4611TIP3    H113797   4.086   0.422   3.142  0.9216 -0.1482 -0.0965
 4611TIP3    H213798   4.085   0.357   3.279  0.2809  0.2759  0.1034
 4612TIP3   OH213799   6.189   5.332   1.839  0.1826 -0.7991 -0.2844
 4612TIP3    H113800   6.169   5.401   1.903  1.2219  0.5817 -1.3822
 4612TIP3    H213801   6.273   5.296   1.867 -0.1209 -1.2868  0.0074
 4613TIP3   OH213802   3.109   1.842   4.338 -0.4974 -0.3322  0.0086
 4613TIP3    H113803   3.027   1.889   4.353 -0.8478 -1.0649  0.4333
 4613TIP3    H213804   3.118   1.839   4.243  0.8001  2.7392 -0.1127
 4614TIP3   OH213805   0.547   1.063   2.593  0.8016 -0.4168 -0.4177
 4614TIP3    H113806   0.526   0.970   2.599  0.6384 -0.3606 -0.1181
 4614TIP3    H213807   0.581   1.086   2.680 -1.2014  0.3014  0.2189
 4615TIP3   OH213808   6.269   0.089   1.516 -0.8878  0.2829  0.4722
 4615TIP3    H113809   6.354   0.122   1.546  0.1895 -1.3221 -0.6241
 4615TIP3    H213810   6.278   0.085   1.420 -0.6058 -3.7042  0.4956
 4616TIP3   OH213811   2.727   4.326   4.126 -0.3277 -0.4156  0.4760
 4616TIP3    H113812   2.757   4.238   4.106 -0.9247 -0.6113  0.4064
 4616TIP3    H213813   2.639   4.314   4.161 -1.2768  0.2749 -1.5036
 4617TIP3   OH213814   6.845   5.750   1.127 -0.1227 -0.1328  0.2755
 4617TIP3    H113815   6.751   5.736   1.127 -0.4363  1.7325  1.3466
 4617TIP3    H213816   6.865   5.785   1.040 -0.5456  0.2287  0.3246
 4618TIP3   OH213817   2.008   4.802   3.102 -0.1750 -0.3521  0.0508
 4618TIP3    H113818   1.925   4.817   3.056 -1.5304 -1.5324  1.9561
 4618TIP3    H213819   2.034   4.714   3.077 -0.7462 -0.8727  1.2105
 4619TIP3   OH213820   0.226   3.584   3.844  0.6717 -0.3722  0.3061
 4619TIP3    H113821   0.251   3.623   3.928 -2.6260  0.2401  1.1531
 4619TIP3    H213822   0.259   3.495   3.848  1.1027 -0.1803  2.0370
 4620TIP3   OH213823   1.768   3.869   5.195  0.0298 -0.0293  0.1644
 4620TIP3    H113824   1.768   3.950   5.145 -1.4699 -0.3889 -0.4704
 4620TIP3    H213825   1.841   3.878   5.256 -0.0212  1.7279  0.0095
 4621TIP3   OH213826   1.092   2.079   0.543  0.1975  0.1363 -0.3018
 4621TIP3    H113827   1.051   2.112   0.623 -0.5364  3.8208 -2.0038
 4621TIP3    H213828   1.183   2.107   0.549  0.3666 -0.3893 -0.3707
 4622TIP3   OH213829   3.473   2.761   1.584  0.0472 -0.4911  0.7788
 4622TIP3    H113830   3.529   2.701   1.534 -0.5067 -0.9979  0.7592
 4622TIP3    H213831   3.515   2.847   1.573 -0.5609 -0.4120 -1.3260
 4623TIP3   OH213832   0.814   5.204   0.596  0.1008 -0.3177 -0.3433
 4623TIP3    H113833   0.877   5.240   0.659  2.2344 -0.5055 -2.2257
 4623TIP3    H213834   0.827   5.110   0.601 -1.3602 -0.4976  0.4985
 4624TIP3   OH213835   6.396   6.120   4.916 -0.5745 -0.1006 -0.0620
 4624TIP3    H113836   6.407   6.215   4.924  2.7720 -0.1737 -2.1400
 4624TIP3    H213837   6.409   6.102   4.823 -1.0989 -2.6357  0.2946
 4625TIP3   OH213838   4.048   0.382   2.360  0.3852  0.0859  0.1506
 4625TIP3    H113839   4.123   0.368   2.301 -0.9498 -1.6426 -1.2467
 4625TIP3    H213840   3.986   0.434   2.309 -0.5858 -1.0125  0.1694
 4626TIP3   OH213841   1.157   6.164   1.571  0.3561 -0.4487 -0.6635
 4626TIP3    H113842   1.130   6.253   1.546 -1.6243 -1.7036 -3.5231
 4626TIP3    H213843   1.127   6.154   1.661 -1.5709  1.0163 -1.0869
 4627TIP3   OH213844   3.769   4.389   3.392 -0.0330 -0.1114 -0.1910
 4627TIP3    H113845   3.760   4.309   3.340 -1.6984 -0.0341 -0.0957
 4627TIP3    H213846   3.776   4.359   3.483 -0.1383 -0.1688 -0.2020
 4628TIP3   OH213847   2.986   1.877   5.657 -0.4473 -0.2406 -0.4287
 4628TIP3    H113848   2.942   1.949   5.702 -0.4878  0.3379 -1.3684
 4628TIP3    H213849   2.962   1.888   5.565  1.1095 -0.3143 -0.8681
 4629TIP3   OH213850   2.973   4.924   3.023 -0.5904  0.0764 -0.4213
 4629TIP3    H113851   2.989   5.005   2.975  1.1482 -0.1582 -0.3040
 4629TIP3    H213852   2.887   4.936   3.063 -1.0472  1.2107 -1.6855
 4630TIP3   OH213853   2.041   2.435   4.687 -0.8323 -0.3150  0.4708
 4630TIP3    H113854   2.047   2.512   4.630 -4.3341 -0.8600 -0.9194
 4630TIP3    H213855   2.086   2.460   4.767 -1.4448  3.0364 -0.0892
 4631TIP3   OH213856   6.570   0.045   1.377  0.6309 -0.2355 -0.1320
 4631TIP3    H113857   6.623   0.049   1.297  1.2203  3.2685  0.2375
 4631TIP3    H213858   6.481   0.061   1.348  1.0113  2.4741 -0.1412
 4632TIP3   OH213859   6.278   0.938   1.504 -0.5643  0.3504  0.4926
 4632TIP3    H113860   6.226   0.902   1.432  0.5787  0.1635 -0.2754
 4632TIP3    H213861   6.273   1.033   1.492 -0.3249  0.3187  0.1119
 4633TIP3   OH213862   7.110   5.413   4.403 -0.2968  0.0927 -0.2175
 4633TIP3    H113863   7.025   5.370   4.398  0.1072 -0.7445  0.0348
 4633TIP3    H213864   7.092   5.504   4.381 -1.1575 -0.2067 -0.7761
 4634TIP3   OH213865   0.346   4.538   3.891  0.1590 -0.1039 -0.2451
 4634TIP3    H113866   0.261   4.542   3.934 -0.7063 -0.6436 -1.8552
 4634TIP3    H213867   0.407   4.572   3.957 -1.3575  0.8597  0.7277
 4635TIP3   OH213868   6.880   1.788   2.735  0.0342 -0.1425 -0.0295
 4635TIP3    H113869   6.791   1.805   2.766  0.6809  1.6447  1.0608
 4635TIP3    H213870   6.879   1.698   2.705 -2.0117 -0.3185  0.4372
 4636TIP3   OH213871   6.730   4.213   0.767  0.4106  0.1690 -0.3573
 4636TIP3    H113872   6.700   4.293   0.723  2.0078  0.1684 -1.5446
 4636TIP3    H213873   6.815   4.237   0.802  0.1772 -0.5542  0.7193
 4637TIP3   OH213874   4.193   6.281   5.805 -0.2401 -0.0707  0.0316
 4637TIP3    H113875   4.209   6.188   5.820 -0.5647 -0.5121 -2.0263
 4637TIP3    H213876   4.207   6.292   5.711 -2.2982  1.5035 -0.1576
 4638TIP3   OH213877   0.327   2.720   5.585 -0.1102 -0.7074  0.7000
 4638TIP3    H113878   0.415   2.698   5.618  1.0197 -0.2870 -1.8434
 4638TIP3    H213879   0.272   2.648   5.616  1.3088 -1.4790  1.5772
 4639TIP3   OH213880   3.578   1.728   3.436 -0.1697 -0.3410 -0.0235
 4639TIP3    H113881   3.665   1.746   3.472  0.0580 -0.5576 -0.4603
 4639TIP3    H213882   3.591   1.652   3.379 -0.7641 -0.7362  0.3681
 4640TIP3   OH213883   0.096   6.685   2.111 -0.1591  0.1313  0.1440
 4640TIP3    H113884   0.007   6.717   2.122 -0.4018 -0.5007  0.0227
 4640TIP3    H213885   0.131   6.681   2.201  0.0745  1.2741  0.1208
 4641TIP3   OH213886   1.355   1.187   2.869 -0.1292  0.1002 -0.1106
 4641TIP3    H113887   1.318   1.263   2.913  1.4183  0.4843  0.6256
 4641TIP3    H213888   1.413   1.148   2.935  2.5057  0.8581 -1.8424
 4642TIP3   OH213889   0.357   6.584   3.208  0.2109 -0.1826 -0.1432
 4642TIP3    H113890   0.383   6.557   3.120 -1.1130 -1.5319 -0.1622
 4642TIP3    H213891   0.434   6.566   3.262  0.6900 -0.2920 -0.8492
 4643TIP3   OH213892   0.407   1.117   5.347 -0.3424 -0.4224 -0.2125
 4643TIP3    H113893   0.490   1.073   5.365  0.4969  0.7012 -1.1650
 4643TIP3    H213894   0.425   1.210   5.365 -1.6752 -0.2866  0.4825
 4644TIP3   OH213895   6.423   6.157   5.427 -0.0613 -0.4784 -0.3336
 4644TIP3    H113896   6.332   6.129   5.436 -0.4176  0.1796 -1.6562
 4644TIP3    H213897   6.471   6.076   5.409 -0.0503 -1.1113  2.1061
 4645TIP3   OH213898   2.811   4.902   5.679  0.6446 -0.7947  0.2359
 4645TIP3    H113899   2.811   4.997   5.666  1.2007 -0.7981  0.1805
 4645TIP3    H213900   2.853   4.889   5.764  1.9636 -1.0573 -0.4157
 4646TIP3   OH213901   7.165   0.687   4.680 -0.4270  0.0811  0.3790
 4646TIP3    H113902   7.201   0.762   4.633 -1.6057  0.8778  0.7094
 4646TIP3    H213903   7.241   0.636   4.707  0.4060  1.2863  0.3516
 4647TIP3   OH213904   4.931   5.132   5.433 -0.2598  0.1096  0.1599
 4647TIP3    H113905   4.914   5.038   5.425 -0.1165  0.1179 -0.2855
 4647TIP3    H213906   4.857   5.166   5.483 -1.7343  0.2062 -1.9818
 4648TIP3   OH213907   6.060   5.644   5.431  0.2301 -0.0989  1.1022
 4648TIP3    H113908   6.052   5.600   5.346  1.7787  0.0761  0.8346
 4648TIP3    H213909   5.976   5.629   5.473 -1.0784  0.9059 -0.9686
 4649TIP3   OH213910   5.521   6.483   0.046 -0.5627  0.0217  0.2268
 4649TIP3    H113911   5.516   6.395   0.083 -0.3667 -0.6457 -1.2522
 4649TIP3    H213912   5.437   6.522   0.065 -0.9731 -0.8077  0.1655
 4650TIP3   OH213913   5.165   3.544   1.522 -0.0344 -0.0036 -0.0442
 4650TIP3    H113914   5.072   3.527   1.534 -0.6680  0.7983 -3.1404
 4650TIP3    H213915   5.196   3.471   1.469  0.5732  0.8760 -0.9320
 4651TIP3   OH213916   4.871   2.503   3.394  0.2411  0.2967 -0.0409
 4651TIP3    H113917   4.781   2.478   3.377 -0.0255  1.6749 -0.8519
 4651TIP3    H213918   4.879   2.505   3.490 -0.6251  0.2976  0.0314
 4652TIP3   OH213919   1.089   0.404   5.349 -0.0102 -0.0711  0.0063
 4652TIP3    H113920   1.109   0.336   5.414 -0.6981  0.7514  1.1315
 4652TIP3    H213921   1.127   0.372   5.268  0.3158 -1.4521  0.6719
 4653TIP3   OH213922   3.165   5.670   2.102 -0.5674  0.1158  0.4686
 4653TIP3    H113923   3.183   5.730   2.029  0.6482  0.0642  0.6951
 4653TIP3    H213924   3.070   5.660   2.103 -0.6568  0.7317 -0.6178
 4654TIP3   OH213925   0.736   4.742   1.522 -0.2078  0.6510  0.0282
 4654TIP3    H113926   0.770   4.720   1.435 -0.4310 -0.0119  0.1030
 4654TIP3    H213927   0.719   4.657   1.563 -0.2282  0.9649  0.6716
 4655TIP3   OH213928   4.717   4.254   0.190  0.5697  0.3195  0.3833
 4655TIP3    H113929   4.659   4.221   0.122  1.6516  0.4286 -0.6300
 4655TIP3    H213930   4.667   4.245   0.271 -0.1114 -1.4571 -0.1853
 4656TIP3   OH213931   6.505   2.297   4.938 -0.1490 -0.8510  0.5367
 4656TIP3    H113932   6.449   2.337   5.005 -1.3626  1.8617 -1.8812
 4656TIP3    H213933   6.583   2.352   4.935  0.2156 -1.3745  0.1972
 4657TIP3   OH213934   1.639   2.798   3.575  0.4027 -0.5940 -0.0624
 4657TIP3    H113935   1.598   2.768   3.656 -0.9691 -1.0780 -0.9127
 4657TIP3    H213936   1.712   2.738   3.561 -0.5060 -1.7062 -0.1619
 4658TIP3   OH213937   4.785   6.538   2.816 -0.0460  0.0114  0.0144
 4658TIP3    H113938   4.863   6.507   2.862 -0.2339 -2.0775 -0.9709
 4658TIP3    H213939   4.714   6.530   2.880  0.1920 -0.0043  0.2798
 4659TIP3   OH213940   5.769   1.473   0.918 -0.5545 -0.1761 -0.2321
 4659TIP3    H113941   5.732   1.385   0.923  1.6997 -1.3376 -2.0048
 4659TIP3    H213942   5.791   1.484   0.825 -1.4699  2.6061 -0.2176
 4660TIP3   OH213943   2.091   6.061   5.417 -0.1906 -0.2748 -0.3078
 4660TIP3    H113944   2.182   6.078   5.392 -0.0213  1.1824  1.0863
 4660TIP3    H213945   2.087   5.967   5.430  1.4172 -0.2698  0.5543
 4661TIP3   OH213946   3.665   2.356   0.637 -0.9975 -0.2913 -0.5991
 4661TIP3    H113947   3.724   2.295   0.592 -1.3609 -0.8098 -0.3884
 4661TIP3    H213948   3.721   2.428   0.664 -0.2422 -1.2297  0.4573
 4662TIP3   OH213949   5.332   6.480   3.508  0.0213  0.6943  0.2583
 4662TIP3    H113950   5.310   6.570   3.481 -2.0199  0.3098  0.4881
 4662TIP3    H213951   5.312   6.427   3.431 -0.4332  0.2453  0.6826
 4663TIP3   OH213952   3.107   1.015   1.864 -0.0378  0.0694  0.1551
 4663TIP3    H113953   3.196   0.986   1.882 -0.3474 -0.1776  1.3527
 4663TIP3    H213954   3.073   0.950   1.802  1.3285  1.4235 -2.1830
 4664TIP3   OH213955   2.462   1.464   2.148  0.2450  0.2103  0.0557
 4664TIP3    H113956   2.510   1.493   2.070  0.9682  0.6070  0.6355
 4664TIP3    H213957   2.497   1.519   2.219  0.0332 -0.5654  0.7664
 4665TIP3   OH213958   4.175   0.695   4.886 -0.5166 -0.7312 -0.0963
 4665TIP3    H113959   4.174   0.599   4.879  0.5687 -0.8430  0.9402
 4665TIP3    H213960   4.103   0.714   4.946  0.1953 -1.0272  0.8663
 4666TIP3   OH213961   2.524   2.103   3.927  0.2094  0.1331  0.2395
 4666TIP3    H113962   2.496   2.012   3.939  1.0800 -0.2258 -0.3505
 4666TIP3    H213963   2.566   2.103   3.841  0.2633  1.0851  0.2657
 4667TIP3   OH213964   1.802   0.271   2.801  0.3103 -0.4644  0.2547
 4667TIP3    H113965   1.758   0.266   2.716 -1.1799  0.4273  0.9232
 4667TIP3    H213966   1.816   0.364   2.816 -0.2177 -0.5416  1.3420
 4668TIP3   OH213967   2.860   1.244   5.808 -0.0808 -0.0174 -0.2079
 4668TIP3    H113968   2.868   1.247   5.903  1.3516  0.5471 -0.3328
 4668TIP3    H213969   2.950   1.237   5.776 -0.5317 -0.0049 -1.5346
 4669TIP3   OH213970   4.673   2.953   0.089  0.4775 -0.3612 -0.0916
 4669TIP3    H113971   4.598   2.995   0.046  0.1018 -1.0663 -0.1387
 4669TIP3    H213972   4.639   2.869   0.119  0.5427  0.3577  2.1894
 4670TIP3   OH213973   3.194   3.043   4.383  0.0359  0.3176  0.2561
 4670TIP3    H113974   3.254   3.010   4.316  1.8674  2.6269  0.6100
 4670TIP3    H213975   3.238   3.122   4.417 -2.0832  0.7158  2.2995
 4671TIP3   OH213976   6.830   4.357   4.241 -0.3180 -0.7615 -0.1697
 4671TIP3    H113977   6.804   4.348   4.149 -1.2817 -1.6815  0.1766
 4671TIP3    H213978   6.902   4.295   4.251  0.4666  0.0577 -0.5290
 4672TIP3   OH213979   3.536   0.342   5.592  0.5028  0.2748 -0.3825
 4672TIP3    H113980   3.544   0.256   5.634  0.9998  1.1935  1.5016
 4672TIP3    H213981   3.548   0.325   5.498 -1.7777 -2.0450 -0.3677
 4673TIP3   OH213982   1.283   6.320   5.041  0.5438 -0.1245  0.1457
 4673TIP3    H113983   1.368   6.341   5.003  0.5202  2.6390  1.3893
 4673TIP3    H213984   1.300   6.314   5.135 -0.3360 -1.4522  0.2468
 4674TIP3   OH213985   1.126   4.223   0.970 -0.1526  0.4557  0.4128
 4674TIP3    H113986   1.145   4.201   1.061 -0.9249 -1.0127  0.2587
 4674TIP3    H213987   1.193   4.176   0.920  0.4402  1.4828  0.2252
 4675TIP3   OH213988   3.155   1.094   2.733 -0.1089 -0.7543 -0.1179
 4675TIP3    H113989   3.222   1.146   2.778  0.0671  0.9157 -2.2022
 4675TIP3    H213990   3.198   1.063   2.654 -0.9915 -2.0447 -0.1261
 4676TIP3   OH213991   4.717   0.742   5.686  0.1234 -0.9553 -0.0896
 4676TIP3    H113992   4.719   0.666   5.744 -0.2188 -1.0393 -0.1825
 4676TIP3    H213993   4.628   0.743   5.650 -0.5136  0.5823  1.3708
 4677TIP3   OH213994   2.925   5.767   5.547 -0.3740  0.4725  0.5231
 4677TIP3    H113995   2.937   5.698   5.612 -0.5580  0.2861  0.3608
 4677TIP3    H213996   2.832   5.765   5.526 -0.3058  0.4818  0.2048
 4678TIP3   OH213997   5.736   4.643   1.579 -0.1261  0.2513 -0.3554
 4678TIP3    H113998   5.797   4.717   1.583  1.4448 -0.9631 -0.7053
 4678TIP3    H213999   5.677   4.664   1.506  1.8813  0.0597 -2.1290
 4679TIP3   OH214000   2.366   0.279   5.594  0.6006  0.3450 -0.1946
 4679TIP3    H114001   2.283   0.289   5.640  0.8408  1.7578 -0.0065
 4679TIP3    H214002   2.354   0.203   5.538 -0.5557  0.0831  0.3870
 4680TIP3   OH214003   5.939   6.805   5.727 -0.0239 -0.0480  0.3082
 4680TIP3    H114004   5.919   6.725   5.777  0.2245 -0.5766 -0.4137
 4680TIP3    H214005   6.012   6.779   5.670 -0.7221  0.3471 -0.7814
 4681TIP3   OH214006   4.302   3.922   2.694 -0.2492 -0.0764 -0.0546
 4681TIP3    H114007   4.277   3.990   2.757  0.2911 -0.8837  1.0771
 4681TIP3    H214008   4.338   3.852   2.749 -1.7205 -1.7007 -1.0812
 4682TIP3   OH214009   0.412   2.265   5.539 -0.8272  0.7319  0.5624
 4682TIP3    H114010   0.500   2.298   5.519 -0.5637 -0.2051  0.1126
 4682TIP3    H214011   0.425   2.208   5.615 -0.7079 -0.8628 -0.6101
 4683TIP3   OH214012   0.339   4.623   3.395 -0.2983 -0.2851  0.3527
 4683TIP3    H114013   0.332   4.695   3.333  0.0697  0.0206  0.6644
 4683TIP3    H214014   0.416   4.643   3.448 -1.3818  0.2095  1.8368
 4684TIP3   OH214015   6.890   2.644   5.343 -0.0748 -0.5530  0.4164
 4684TIP3    H114016   6.951   2.630   5.416  0.5126 -0.8602 -0.1267
 4684TIP3    H214017   6.849   2.729   5.363  0.4829 -0.3706  0.8198
 4685TIP3   OH214018   4.085   4.606   3.081  0.0673 -0.2952  0.0849
 4685TIP3    H114019   4.060   4.647   3.163  0.9183 -0.9599  0.6899
 4685TIP3    H214020   4.142   4.534   3.106  2.3761  0.9841 -1.2042
 4686TIP3   OH214021   5.946   1.472   5.514 -0.1278 -0.5672  0.2341
 4686TIP3    H114022   5.979   1.384   5.498 -1.4743 -0.9153 -0.8633
 4686TIP3    H214023   5.919   1.503   5.427  1.9098  1.6321  0.3049
 4687TIP3   OH214024   5.122   3.252   4.261  0.2070 -0.1991  0.2820
 4687TIP3    H114025   5.093   3.224   4.348  0.9069  4.7366  2.4753
 4687TIP3    H214026   5.217   3.240   4.262  0.2756  0.3007  0.4756
 4688TIP3   OH214027   5.011   3.227   2.379 -0.1430  0.5980  0.6181
 4688TIP3    H114028   4.940   3.194   2.435 -0.0192  0.5827  0.7647
 4688TIP3    H214029   5.083   3.246   2.439 -0.0912  0.8041  0.4927
 4689TIP3   OH214030   3.277   3.438   2.876 -0.0502 -0.0369 -0.0291
 4689TIP3    H114031   3.255   3.487   2.956 -1.8922 -2.1365  0.8456
 4689TIP3    H214032   3.283   3.347   2.904 -0.4610 -0.8110 -2.2190
 4690TIP3   OH214033   3.416   6.002   1.735 -0.2650 -0.3172  0.6334
 4690TIP3    H114034   3.378   6.082   1.698  0.0816  0.3770  1.7169
 4690TIP3    H214035   3.454   5.956   1.660  0.0140  0.8159  0.0585
 4691TIP3   OH214036   4.976   6.104   1.621 -0.1618 -0.5141  0.3961
 4691TIP3    H114037   5.007   6.173   1.679 -0.2411  0.5568 -0.7829
 4691TIP3    H214038   5.052   6.046   1.610  0.9071  1.0325 -0.9421
 4692TIP3   OH214039   6.563   3.291   2.878 -0.6818 -0.1387 -0.0633
 4692TIP3    H114040   6.585   3.199   2.862  1.4521  0.2474  0.2471
 4692TIP3    H214041   6.614   3.338   2.811 -0.8882  0.8599  0.4801
 4693TIP3   OH214042   5.911   2.289   2.105 -0.0925 -0.3504  0.4958
 4693TIP3    H114043   5.871   2.358   2.052 -0.5166 -0.2177  0.9806
 4693TIP3    H214044   5.839   2.254   2.158  0.9199  2.0657  3.7627
 4694TIP3   OH214045   0.758   0.696   4.643  0.1816  0.2115  0.7479
 4694TIP3    H114046   0.851   0.697   4.619  0.4613 -0.4560  1.7503
 4694TIP3    H214047   0.734   0.789   4.650  0.3013  0.4251 -1.1847
 4695TIP3   OH214048   0.391   1.840   3.394  0.1857  0.1089 -0.5965
 4695TIP3    H114049   0.372   1.765   3.450  1.4248  0.0366 -0.2410
 4695TIP3    H214050   0.474   1.818   3.352 -0.0802  0.7332 -1.4680
 4696TIP3   OH214051   6.810   3.569   4.749  0.4413  0.5573  0.2723
 4696TIP3    H114052   6.769   3.499   4.799  2.4225 -0.8367  0.0274
 4696TIP3    H214053   6.747   3.589   4.680 -0.3072 -0.7251  0.5596
 4697TIP3   OH214054   2.596   1.110   0.716 -0.3701  0.0359  0.2549
 4697TIP3    H114055   2.572   1.017   0.718  1.5938 -0.5289  0.3030
 4697TIP3    H214056   2.690   1.110   0.734  0.5559  1.7019 -3.5722
 4698TIP3   OH214057   6.025   4.766   0.775 -0.5078  0.5218 -0.2589
 4698TIP3    H114058   6.036   4.670   0.774 -1.9733  0.3390 -0.1450
 4698TIP3    H214059   6.111   4.799   0.803 -0.1264 -0.7837  0.1956
 4699TIP3   OH214060   4.826   2.952   1.964 -0.5041  0.1149  0.0178
 4699TIP3    H114061   4.760   3.020   1.973  0.7421  1.2704  0.9077
 4699TIP3    H214062   4.870   2.951   2.049  1.0511 -0.1385 -0.7517
 4700TIP3   OH214063   4.848   0.539   4.633  0.1574 -0.8856 -0.1401
 4700TIP3    H114064   4.860   0.600   4.560 -0.1786 -1.1755 -0.4420
 4700TIP3    H214065   4.861   0.593   4.711  1.2228 -0.7276 -0.4195
 4701TIP3   OH214066   3.788   3.638   1.028 -0.0169  0.0908 -0.4646
 4701TIP3    H114067   3.729   3.635   0.952  0.1245 -0.4141 -0.5604
 4701TIP3    H214068   3.787   3.548   1.062 -0.2871  0.3750  0.2983
 4702TIP3   OH214069   5.404   1.757   3.103 -0.1463  0.0540 -0.1528
 4702TIP3    H114070   5.489   1.782   3.138  0.5430 -0.7088 -1.2277
 4702TIP3    H214071   5.347   1.831   3.125  1.3623  1.7019 -1.4979
 4703TIP3   OH214072   3.691   6.080   5.745  0.7038 -0.2232  0.1907
 4703TIP3    H114073   3.656   6.162   5.712  1.2682  0.6078  1.5997
 4703TIP3    H214074   3.656   6.014   5.685 -0.9118  0.8710 -0.1387
 4704TIP3   OH214075   5.997   1.749   4.060 -0.3100  0.4271  0.1560
 4704TIP3    H114076   5.956   1.752   4.146 -1.3489  0.0605 -0.3113
 4704TIP3    H214077   5.938   1.797   4.003 -0.4872 -0.7384 -0.6857
 4705TIP3   OH214078   2.573   0.445   2.158  0.4938  0.4784  0.4309
 4705TIP3    H114079   2.624   0.457   2.238  0.3230  4.0576  0.1951
 4705TIP3    H214080   2.486   0.419   2.188  0.8922  0.0582  1.2538
 4706TIP3   OH214081   1.743   4.125   0.658 -0.1992 -0.5048  0.4507
 4706TIP3    H114082   1.654   4.096   0.635  0.9298 -3.9151 -0.2902
 4706TIP3    H214083   1.753   4.209   0.614 -1.7514 -1.9216 -3.0220
 4707TIP3   OH214084   3.570   1.326   3.523  0.1381  0.0446  0.6378
 4707TIP3    H114085   3.535   1.392   3.464  2.1128  1.2621  0.7563
 4707TIP3    H214086   3.510   1.252   3.514 -1.3377  1.3144 -0.5494
 4708TIP3   OH214087   2.415   6.132   5.139 -0.2146  0.1012 -0.7335
 4708TIP3    H114088   2.395   6.181   5.219 -1.7873 -1.2862 -0.2151
 4708TIP3    H214089   2.417   6.041   5.167  1.8099 -0.2488 -1.8253
 4709TIP3   OH214090   6.283   5.329   2.814  0.6998 -0.3772  0.1144
 4709TIP3    H114091   6.282   5.317   2.719 -2.3960  1.8664 -0.2518
 4709TIP3    H214092   6.253   5.245   2.848 -0.4433 -0.4829 -1.0645
 4710TIP3   OH214093   2.169   0.890   5.509  0.5335  0.0385 -0.2443
 4710TIP3    H114094   2.240   0.876   5.447  1.2631  0.9895  0.3582
 4710TIP3    H214095   2.212   0.905   5.593 -0.4485 -1.6756  0.6148
 4711TIP3   OH214096   4.858   2.826   1.251 -0.1730 -0.5852  0.2838
 4711TIP3    H114097   4.905   2.891   1.197  0.7130 -0.4331  1.2157
 4711TIP3    H214098   4.854   2.748   1.196 -0.4117 -0.0480 -0.4872
 4712TIP3   OH214099   2.037   3.194   0.064 -0.3269  0.6484 -0.3640
 4712TIP3    H114100   2.064   3.226   0.150  0.9160 -1.2246  0.0188
 4712TIP3    H214101   1.953   3.151   0.080 -1.3243  2.4099 -0.6179
 4713TIP3   OH214102   3.181   0.112   2.501  0.3082 -0.2910 -0.0921
 4713TIP3    H114103   3.096   0.124   2.543 -0.5616 -2.8208 -0.9599
 4713TIP3    H214104   3.178   0.168   2.424 -1.2545 -1.4577 -0.9439
 4714TIP3   OH214105   0.147   0.511   1.929 -0.0988  0.4437 -0.2356
 4714TIP3    H114106   0.135   0.534   1.837  1.6388 -1.8793 -1.1299
 4714TIP3    H214107   0.121   0.419   1.935  1.5885  0.0055  1.1569
 4715TIP3   OH214108   4.987   4.344   0.133  0.1345  0.3690 -0.4620
 4715TIP3    H114109   5.030   4.264   0.101  0.6900  0.2821  0.4555
 4715TIP3    H214110   4.898   4.316   0.155 -0.0308  0.2707 -1.2227
 4716TIP3   OH214111   2.084   3.289   1.579 -0.1293  0.1645  0.0514
 4716TIP3    H114112   2.079   3.200   1.616  0.4898 -0.6149 -1.6166
 4716TIP3    H214113   2.121   3.342   1.650 -2.5702 -0.3831  1.8524
 4717TIP3   OH214114   2.571   5.988   3.549 -0.1365  0.7129 -0.3406
 4717TIP3    H114115   2.520   5.954   3.475  0.4201 -1.1183  0.0627
 4717TIP3    H214116   2.551   6.081   3.551  0.2497  0.9523 -3.1499
 4718TIP3   OH214117   6.662   1.931   2.479  0.1969  0.0654 -0.4853
 4718TIP3    H114118   6.573   1.916   2.509  0.5922  0.7055  1.1140
 4718TIP3    H214119   6.696   1.843   2.460 -0.0941 -0.3996  1.0092
 4719TIP3   OH214120   6.811   1.663   3.277  0.4434  0.2606  0.7168
 4719TIP3    H114121   6.775   1.697   3.195  0.1016  1.5425  1.3741
 4719TIP3    H214122   6.901   1.697   3.280  0.4902  0.1323  0.8363
 4720TIP3   OH214123   6.591   1.118   0.852 -0.1223 -0.5273  0.5081
 4720TIP3    H114124   6.508   1.145   0.814 -0.4373  0.1686  1.6310
 4720TIP3    H214125   6.591   1.022   0.845 -0.9896 -0.5291  0.4243
 4721TIP3   OH214126   2.418   3.139   1.689  0.0542 -0.4087  0.5522
 4721TIP3    H114127   2.395   3.184   1.771  0.1683 -0.5789  0.6774
 4721TIP3    H214128   2.454   3.207   1.633 -0.3902 -0.2110  0.4982
 4722TIP3   OH214129   3.826   1.627   4.309  0.7129 -0.0956 -0.1660
 4722TIP3    H114130   3.855   1.717   4.320  1.7426 -0.2484 -1.3658
 4722TIP3    H214131   3.899   1.583   4.265  0.0666 -1.4090  0.0073
 4723TIP3   OH214132   5.403   5.930   2.125 -0.6167  0.4504  0.5631
 4723TIP3    H114133   5.326   5.979   2.096  0.2012  1.2193 -0.3815
 4723TIP3    H214134   5.420   5.868   2.054  0.2502  0.9996  0.2893
 4724TIP3   OH214135   2.760   0.914   0.303 -0.2041 -0.2673 -0.5148
 4724TIP3    H114136   2.787   1.001   0.333  1.0384 -1.2306  1.3977
 4724TIP3    H214137   2.680   0.895   0.353 -0.9674  0.0859 -1.5663
 4725TIP3   OH214138   0.680   1.814   5.305  0.0798 -0.3692  0.3593
 4725TIP3    H114139   0.657   1.895   5.260 -0.0448 -0.8651 -0.4815
 4725TIP3    H214140   0.596   1.768   5.314 -0.2596  0.5690  2.8680
 4726TIP3   OH214141   1.282   6.785   0.199 -0.2258  0.0357  0.1121
 4726TIP3    H114142   1.317   6.866   0.236  0.3184  0.7570 -1.8594
 4726TIP3    H214143   1.302   6.718   0.264  2.7690  0.8153  0.1314
 4727TIP3   OH214144   1.698   6.165   2.357 -0.1447 -0.3562  0.6050
 4727TIP3    H114145   1.642   6.088   2.364 -0.8298  0.1754  1.1084
 4727TIP3    H214146   1.784   6.136   2.387 -0.4187 -0.9061  0.8634
 4728TIP3   OH214147   2.631   2.125   3.415  0.6679  0.0320  0.2234
 4728TIP3    H114148   2.546   2.146   3.376  0.6329 -1.1013 -0.3350
 4728TIP3    H214149   2.654   2.039   3.379  2.2741  0.5209 -0.0037
 4729TIP3   OH214150   4.764   5.669   5.886  0.2785  0.1625  0.1151
 4729TIP3    H114151   4.795   5.600   5.828 -0.2577 -0.4044  0.4855
 4729TIP3    H214152   4.836   5.732   5.890  1.7547 -1.5530  1.6876
 4730TIP3   OH214153   3.837   3.595   2.123 -0.0232  0.8622  0.2180
 4730TIP3    H114154   3.872   3.602   2.035 -0.6759  0.6754 -0.0596
 4730TIP3    H214155   3.911   3.617   2.180  0.5419  0.4655 -0.3527
 4731TIP3   OH214156   1.231   3.499   4.971 -0.2350  0.5939 -0.6099
 4731TIP3    H114157   1.206   3.410   4.946  2.1753 -0.8786  1.6716
 4731TIP3    H214158   1.202   3.507   5.062  1.3119  1.3660 -0.1512
 4732TIP3   OH214159   5.118   4.588   4.489  0.5848  0.5403 -0.1971
 4732TIP3    H114160   5.063   4.666   4.498  0.0625  0.2184 -0.5821
 4732TIP3    H214161   5.144   4.587   4.397  0.4420  0.1645 -0.2356
 4733TIP3   OH214162   6.100   4.946   5.260  0.3100  0.5431  0.2350
 4733TIP3    H114163   6.193   4.948   5.282  0.1191  1.1646  1.0424
 4733TIP3    H214164   6.082   5.033   5.224 -0.5521  1.5474  2.8122
 4734TIP3   OH214165   5.416   4.916   2.603  0.1428  0.3241 -0.0364
 4734TIP3    H114166   5.464   4.962   2.672  0.4472  0.8585 -0.5944
 4734TIP3    H214167   5.368   4.985   2.558 -0.5840 -0.1126  0.0558
 4735TIP3   OH214168   4.593   6.810   1.919  0.5579  0.3067  0.7470
 4735TIP3    H114169   4.563   6.722   1.894  0.3248  0.8701 -1.0916
 4735TIP3    H214170   4.618   6.801   2.011 -1.5989 -1.1467  1.2944
 4736TIP3   OH214171   5.811   6.639   3.925 -0.2759  0.0441  0.0356
 4736TIP3    H114172   5.905   6.619   3.933  0.2914  1.9855 -1.0921
 4736TIP3    H214173   5.793   6.695   4.000 -0.3335  0.3271 -0.1896
 4737TIP3   OH214174   4.437   6.078   3.595 -0.0501 -0.3015 -0.5214
 4737TIP3    H114175   4.347   6.053   3.572 -0.2012 -0.4122  0.1686
 4737TIP3    H214176   4.428   6.127   3.676  0.6055 -1.2012  0.1200
 4738TIP3   OH214177   1.094   6.757  -0.007 -0.2611  0.3073  0.5329
 4738TIP3    H114178   1.161   6.803   0.043 -2.2136  1.7794  1.9425
 4738TIP3    H214179   1.011   6.793   0.025 -1.7584 -1.5987 -0.9580
 4739TIP3   OH214180   2.496   1.979   4.767 -0.0909  0.4061  0.4327
 4739TIP3    H114181   2.557   1.906   4.770 -1.2107 -0.5665  0.5249
 4739TIP3    H214182   2.414   1.940   4.734 -0.5673  1.7223 -0.0114
 4740TIP3   OH214183   6.715   2.474   5.271 -0.1137  0.0143 -0.4038
 4740TIP3    H114184   6.731   2.477   5.177 -0.8382  1.3954 -0.4997
 4740TIP3    H214185   6.761   2.550   5.306 -3.6145  2.2724 -0.2850
 4741TIP3   OH214186   5.191   3.996   2.589  0.6955  0.3439  0.4180
 4741TIP3    H114187   5.262   3.940   2.559  0.8430  0.0279  1.3156
 4741TIP3    H214188   5.139   4.014   2.511  1.8388  0.6914 -0.2720
 4742TIP3   OH214189   6.922   0.334   3.568  0.3579 -0.2047  0.4153
 4742TIP3    H114190   6.945   0.283   3.490 -1.1399  0.4668 -0.5154
 4742TIP3    H214191   6.827   0.344   3.563  0.2460 -0.0222  2.2718
 4743TIP3   OH214192   1.332   4.822   0.028 -0.3476 -0.1336  0.5011
 4743TIP3    H114193   1.359   4.840   0.118 -0.7447  0.2280  0.5487
 4743TIP3    H214194   1.353   4.729   0.015 -0.6776 -0.2988  1.1048
 4744TIP3   OH214195   4.387   1.541   1.557 -0.2745 -0.1654  0.1993
 4744TIP3    H114196   4.437   1.483   1.499  1.6928  0.0087  1.6458
 4744TIP3    H214197   4.429   1.533   1.642 -1.1719  1.9230  0.9049
 4745TIP3   OH214198   6.928   1.670   4.373 -0.4247 -0.3892 -0.4648
 4745TIP3    H114199   6.880   1.587   4.377  0.9632 -1.1730  2.4142
 4745TIP3    H214200   6.868   1.734   4.411  0.2970 -1.1406  2.0666
 4746TIP3   OH214201   3.631   4.298   3.733 -0.4008 -0.4919  0.3476
 4746TIP3    H114202   3.569   4.246   3.682 -0.9125 -1.5541  1.9733
 4746TIP3    H214203   3.584   4.379   3.751 -1.3883 -1.2868  1.5699
 4747TIP3   OH214204   3.484   2.080   3.038 -1.1740 -0.1000 -0.0466
 4747TIP3    H114205   3.479   1.990   3.068 -0.8194 -0.4202 -0.9313
 4747TIP3    H214206   3.564   2.084   2.986 -1.1158  0.7557  0.0809
 4748TIP3   OH214207   5.291   0.292   3.235 -0.1880  0.3924 -0.2043
 4748TIP3    H114208   5.318   0.217   3.286  0.0724  0.7234  0.1459
 4748TIP3    H214209   5.285   0.364   3.298 -3.4383  0.0163  0.0765
 4749TIP3   OH214210   2.460   4.122   2.465 -0.1735  0.3584  0.0077
 4749TIP3    H114211   2.486   4.190   2.402 -1.1407 -0.1031 -0.9242
 4749TIP3    H214212   2.398   4.165   2.523  1.7758  1.1774  1.5854
 4750TIP3   OH214213   2.732   3.422   1.987 -0.3366 -0.0452 -0.3787
 4750TIP3    H114214   2.699   3.398   1.901  0.6815  1.9120 -1.3678
 4750TIP3    H214215   2.734   3.518   1.987  0.6861 -0.0112  1.4201
 4751TIP3   OH214216   6.846   1.343   2.746  0.4244  0.0743 -0.4937
 4751TIP3    H114217   6.940   1.333   2.759  0.0781  0.0980  2.8583
 4751TIP3    H214218   6.812   1.254   2.740  0.5144  0.0207 -0.2218
 4752TIP3   OH214219   6.413   4.952   3.434 -0.2237 -0.7653 -0.3164
 4752TIP3    H114220   6.495   4.903   3.420 -1.4802 -2.9536 -0.4667
 4752TIP3    H214221   6.346   4.899   3.390 -1.8572  0.5317  0.5072
 4753TIP3   OH214222   2.368   5.720   3.455 -0.5043  0.2468  0.5361
 4753TIP3    H114223   2.303   5.720   3.525  0.0749  0.2678  1.0832
 4753TIP3    H214224   2.374   5.812   3.429 -1.5160  0.0969 -0.3109
 4754TIP3   OH214225   4.971   5.361   1.383  0.1944  0.3626  0.4747
 4754TIP3    H114226   4.982   5.306   1.461  1.0291 -0.8071 -0.4231
 4754TIP3    H214227   4.889   5.407   1.398 -0.3853 -0.8931  1.4263
 4755TIP3   OH214228   5.200   6.659   3.897 -0.7324  0.0401  0.3138
 4755TIP3    H114229   5.107   6.674   3.909 -0.9556  2.2604 -2.7665
 4755TIP3    H214230   5.208   6.565   3.879 -2.3951 -0.1493  0.4589
 4756TIP3   OH214231   0.565   0.909   3.246 -0.1419 -0.1405  0.6988
 4756TIP3    H114232   0.476   0.879   3.261 -0.2551  0.2353  0.7887
 4756TIP3    H214233   0.555   0.999   3.213  0.1538 -0.4812 -0.3674
 4757TIP3   OH214234   6.922   2.141   4.887  0.5876  0.0894  0.1815
 4757TIP3    H114235   7.005   2.102   4.915  1.2282  2.4608  1.8228
 4757TIP3    H214236   6.947   2.221   4.841 -0.7726 -0.1608 -1.0818
 4758TIP3   OH214237   3.037   0.805   3.978  0.0444 -0.5816  0.0660
 4758TIP3    H114238   3.019   0.896   4.002 -0.9385 -0.5689 -0.6715
 4758TIP3    H214239   2.952   0.761   3.986  0.3928 -1.3131 -0.1525
 4759TIP3   OH214240   5.914   0.602   2.704  0.5190 -0.2116 -0.2951
 4759TIP3    H114241   5.886   0.689   2.732  1.8383 -0.5452  2.4842
 4759TIP3    H214242   5.888   0.544   2.776  0.7179 -1.9249 -1.5326
 4760TIP3   OH214243   7.088   3.210   3.632 -0.0485  0.4287 -0.3167
 4760TIP3    H114244   7.097   3.255   3.716 -0.1366  0.2555 -0.2139
 4760TIP3    H214245   7.127   3.270   3.569  1.3512 -0.0666  0.0394
 4761TIP3   OH214246   3.709   4.886   2.754 -0.1028  0.3428  0.0440
 4761TIP3    H114247   3.678   4.839   2.832 -0.3642 -0.3864 -0.4909
 4761TIP3    H214248   3.636   4.882   2.693  0.5139 -0.1211 -0.6847
 4762TIP3   OH214249   3.499   5.639   0.716 -0.0413 -0.1809 -0.0735
 4762TIP3    H114250   3.475   5.571   0.653 -0.9339  1.1654 -1.2348
 4762TIP3    H214251   3.567   5.690   0.672 -0.7287  0.8210 -0.0044
 4763TIP3   OH214252   4.248   2.422   3.874 -0.3413  0.4668 -0.1726
 4763TIP3    H114253   4.205   2.507   3.886 -0.8218  0.4816 -1.8166
 4763TIP3    H214254   4.218   2.391   3.789 -0.5458 -1.5842  0.5892
 4764TIP3   OH214255   1.164   5.437   2.528 -0.1727 -0.6290 -0.2174
 4764TIP3    H114256   1.234   5.474   2.581  0.3743 -1.7446 -0.1521
 4764TIP3    H214257   1.109   5.390   2.590 -0.3500 -0.7047 -0.4311
 4765TIP3   OH214258   0.914   1.840   5.789 -0.2237  0.0324 -0.3915
 4765TIP3    H114259   0.997   1.887   5.801 -1.7776  2.9536 -0.1072
 4765TIP3    H214260   0.889   1.858   5.699  0.4980 -2.8865 -1.2984
 4766TIP3   OH214261   4.857   2.461   4.457  0.3360 -0.3373  0.1477
 4766TIP3    H114262   4.781   2.433   4.508  1.2066  0.3659  1.9366
 4766TIP3    H214263   4.885   2.542   4.500  0.4485  0.9386 -2.2116
 4767TIP3   OH214264   2.387   0.511   2.726 -0.0485  0.0062 -0.0350
 4767TIP3    H114265   2.308   0.552   2.762  0.3187  1.0702 -0.3919
 4767TIP3    H214266   2.406   0.562   2.647  0.6744 -0.6011 -0.2640
 4768TIP3   OH214267   1.692   1.789   1.033 -0.8532  0.1169  0.1046
 4768TIP3    H114268   1.623   1.752   0.978  0.0216 -0.1103 -0.8661
 4768TIP3    H214269   1.748   1.837   0.972  0.4375 -0.5708  0.7216
 4769TIP3   OH214270   5.371   4.514   3.335  0.3269  0.4586  0.0053
 4769TIP3    H114271   5.402   4.449   3.272 -0.4548  1.3836 -1.4152
 4769TIP3    H214272   5.286   4.541   3.300 -1.4347 -0.8904  2.9305
 4770TIP3   OH214273   2.598   0.028   5.068  0.2588 -0.4065  0.5650
 4770TIP3    H114274   2.587   0.074   5.151 -0.3864 -0.0509  0.2932
 4770TIP3    H214275   2.689   0.045   5.044  0.6230 -1.0133  1.4836
 4771TIP3   OH214276   3.131   5.659   1.659 -0.0982  0.4560  0.0515
 4771TIP3    H114277   3.158   5.610   1.581 -0.3707  0.8929 -0.3244
 4771TIP3    H214278   3.062   5.718   1.628 -0.9180 -0.0647  0.8336
 4772TIP3   OH214279   4.928   2.968   4.229 -0.0049  0.0692 -0.4201
 4772TIP3    H114280   4.930   3.058   4.195  0.9594  0.6804  1.1131
 4772TIP3    H214281   5.020   2.940   4.227  0.3408  0.6165  2.6982
 4773TIP3   OH214282   6.393   5.095   1.001 -0.0884  0.1354  0.0963
 4773TIP3    H114283   6.479   5.134   0.982 -0.1534 -0.8981 -2.9156
 4773TIP3    H214284   6.332   5.168   0.995  0.3887  0.5548  0.2704
 4774TIP3   OH214285   3.487   4.873   3.954  0.7604 -0.3253 -0.0905
 4774TIP3    H114286   3.431   4.883   4.030 -1.2246  1.5170 -1.6412
 4774TIP3    H214287   3.467   4.786   3.920 -0.0219 -0.2857  0.2541
 4775TIP3   OH214288   4.737   5.635   2.613 -0.4593  0.4954  0.2557
 4775TIP3    H114289   4.694   5.704   2.663 -1.4925 -0.5043  0.7875
 4775TIP3    H214290   4.822   5.673   2.588 -1.2003  2.1167  0.0927
 4776TIP3   OH214291   4.049   0.320   2.615 -0.5386  0.2074 -0.0095
 4776TIP3    H114292   4.065   0.396   2.672  2.8302  0.8571 -1.5396
 4776TIP3    H214293   4.015   0.358   2.534 -1.8328 -0.3070  0.2751
 4777TIP3   OH214294   6.415   0.412   3.986 -0.1500  0.0105 -0.0535
 4777TIP3    H114295   6.393   0.478   4.052  0.8653  1.6027 -1.2557
 4777TIP3    H214296   6.417   0.460   3.903  2.0590 -1.2063 -0.7885
 4778TIP3   OH214297   2.953   3.360   5.615 -0.0190  0.0213 -0.2915
 4778TIP3    H114298   2.910   3.275   5.626  1.5901 -0.8714 -0.4796
 4778TIP3    H214299   2.965   3.393   5.704 -1.0848  0.3023 -0.2390
 4779TIP3   OH214300   5.291   5.197   2.765  0.4591 -0.6011 -0.2651
 4779TIP3    H114301   5.378   5.158   2.756  0.5086 -0.1528 -1.9742
 4779TIP3    H214302   5.233   5.141   2.714 -0.2295 -0.7311  0.6292
 4780TIP3   OH214303   4.366   5.478   4.278 -0.3837 -0.6225  0.0200
 4780TIP3    H114304   4.426   5.528   4.333 -1.8412 -1.5971  2.6443
 4780TIP3    H214305   4.412   5.396   4.259 -0.1647 -0.5848  0.3964
 4781TIP3   OH214306   6.364   4.221   1.634 -0.6921 -0.2967  0.4087
 4781TIP3    H114307   6.432   4.186   1.693 -1.3685  1.7477  2.5699
 4781TIP3    H214308   6.317   4.285   1.687 -2.5858  0.3508 -1.8671
 4782TIP3   OH214309   3.191   2.401   1.158 -0.8656  0.0729  0.3739
 4782TIP3    H114310   3.271   2.365   1.196 -1.3033 -2.4202 -0.8876
 4782TIP3    H214311   3.196   2.495   1.176  2.8409  0.1995 -0.5238
 4783TIP3   OH214312   6.309   3.873   2.003 -0.1419 -0.5262 -0.1488
 4783TIP3    H114313   6.255   3.927   2.061  0.3706 -0.2704  0.0992
 4783TIP3    H214314   6.376   3.836   2.060  1.6135  1.3287 -0.8515
 4784TIP3   OH214315   5.527   5.600   5.477 -0.0689  0.1834  0.0135
 4784TIP3    H114316   5.600   5.574   5.534  0.3617 -1.5370 -1.2522
 4784TIP3    H214317   5.475   5.660   5.531  2.4019  1.7167  0.8631
 4785TIP3   OH214318   5.436   1.208   4.181 -0.2453 -0.4055  0.3736
 4785TIP3    H114319   5.514   1.262   4.196  0.3977 -1.4242  0.7470
 4785TIP3    H214320   5.456   1.157   4.103  0.7602 -2.9085  2.1448
 4786TIP3   OH214321   1.493   5.514   0.216 -0.9634 -0.8177 -0.2989
 4786TIP3    H114322   1.568   5.456   0.213 -1.0715 -1.0283  0.7332
 4786TIP3    H214323   1.417   5.456   0.207 -1.1173 -0.9984  1.7394
 4787TIP3   OH214324   6.039   2.314   3.582 -0.0113  0.2324  0.4434
 4787TIP3    H114325   5.954   2.336   3.546  1.6408  2.0044 -2.8162
 4787TIP3    H214326   6.070   2.241   3.527  0.3270 -0.9417  2.1054
 4788TIP3   OH214327   0.768   1.822   2.645 -0.3972 -0.2151  0.0679
 4788TIP3    H114328   0.679   1.856   2.634  0.0372  1.4137  1.2326
 4788TIP3    H214329   0.817   1.857   2.570 -0.9277 -2.0307 -1.2034
 4789TIP3   OH214330   5.788   1.840   5.822  0.0454  0.1908 -0.0742
 4789TIP3    H114331   5.842   1.918   5.829  0.5081 -0.1767  0.5104
 4789TIP3    H214332   5.850   1.767   5.822 -0.4513 -0.2636  1.1786
 4790TIP3   OH214333   5.309   0.339   2.852 -0.1554 -0.0813 -0.0564
 4790TIP3    H114334   5.276   0.426   2.873 -0.0144 -0.1213  0.3402
 4790TIP3    H214335   5.258   0.280   2.909  1.1020 -0.0818  1.1149
 4791TIP3   OH214336   3.092   2.921   3.970 -0.6065  0.3323 -0.4670
 4791TIP3    H114337   3.067   2.875   4.050  0.2953 -0.6372 -0.7199
 4791TIP3    H214338   3.066   3.012   3.985 -2.1799 -0.1969  0.1541
 4792TIP3   OH214339   4.941   6.689   1.301  0.5105  0.1479  0.1895
 4792TIP3    H114340   4.882   6.694   1.376 -1.0815 -3.7617 -0.5472
 4792TIP3    H214341   5.009   6.627   1.328  1.4208  0.7231 -0.7080
 4793TIP3   OH214342   1.168   6.410   4.024 -0.6330  0.0799  0.2316
 4793TIP3    H114343   1.091   6.353   4.021  0.1177 -1.1770  2.2341
 4793TIP3    H214344   1.242   6.350   4.012  0.0866  1.1382 -0.7846
 4794TIP3   OH214345   5.252   3.458   5.758 -0.0603 -0.3180  0.1752
 4794TIP3    H114346   5.340   3.425   5.737 -0.5799 -0.4316 -2.0593
 4794TIP3    H214347   5.262   3.497   5.844  2.9235  2.2416 -1.1193
 4795TIP3   OH214348   6.173   0.199   3.035  0.4229 -0.3176 -0.2127
 4795TIP3    H114349   6.201   0.112   3.063  1.2857 -0.0082 -0.1122
 4795TIP3    H214350   6.219   0.260   3.092 -2.2208  0.1891  1.5961
 4796TIP3   OH214351   2.836   2.122   5.709 -0.4306  0.3870 -0.3740
 4796TIP3    H114352   2.926   2.135   5.739  0.0063  1.5207 -2.0080
 4796TIP3    H214353   2.784   2.181   5.764 -0.0299  0.4520 -0.0558
 4797TIP3   OH214354   2.924   2.088   3.682 -0.1760  0.2398  0.5487
 4797TIP3    H114355   2.865   2.157   3.651  0.7289  0.4554 -0.7809
 4797TIP3    H214356   3.001   2.095   3.625 -0.0948 -1.9346  0.3089
 4798TIP3   OH214357   2.141   4.911   3.352 -0.3986 -0.6344 -0.5412
 4798TIP3    H114358   2.215   4.887   3.297  0.8615 -0.7759  1.1697
 4798TIP3    H214359   2.068   4.919   3.290  1.2235  0.5541 -2.4410
 4799TIP3   OH214360   6.591   1.379   3.242 -0.1133  0.0867 -0.1683
 4799TIP3    H114361   6.508   1.402   3.201  0.1138  0.7959 -0.2412
 4799TIP3    H214362   6.644   1.343   3.171  0.9088  2.8919 -0.9594
 4800TIP3   OH214363   0.949   0.158   2.220  0.8701  0.1751 -0.3895
 4800TIP3    H114364   0.893   0.190   2.150  0.5798  1.2147  0.2908
 4800TIP3    H214365   0.921   0.068   2.234 -1.1428  0.8638  0.4027
 4801TIP3   OH214366   6.697   2.053   4.755  0.2374  0.3992  0.6296
 4801TIP3    H114367   6.782   2.082   4.787  0.9733 -0.2694 -0.6569
 4801TIP3    H214368   6.683   1.969   4.799 -0.3991  1.1252  1.8642
 4802TIP3   OH214369   5.847   2.879   1.994  0.0394  0.3085 -0.4006
 4802TIP3    H114370   5.843   2.873   1.898  0.0814 -1.2131 -0.3308
 4802TIP3    H214371   5.760   2.852   2.023  0.5049 -0.7863  0.0265
 4803TIP3   OH214372   0.785   3.336   4.751 -0.3061  0.1525 -0.0460
 4803TIP3    H114373   0.746   3.423   4.741  0.0963  0.3303 -0.0526
 4803TIP3    H214374   0.868   3.351   4.796 -0.4940 -0.2868  0.4629
 4804TIP3   OH214375   4.915   2.249   5.225 -0.5943 -0.1369  0.7462
 4804TIP3    H114376   4.954   2.163   5.240  0.4956  0.1125 -0.3915
 4804TIP3    H214377   4.911   2.257   5.129 -0.9264  0.9661  0.8335
 4805TIP3   OH214378   6.168   5.117   1.480 -0.2944 -0.2124 -0.0531
 4805TIP3    H114379   6.086   5.115   1.431 -1.5798  2.0078  1.8459
 4805TIP3    H214380   6.235   5.135   1.414 -1.5435 -0.3462 -1.3986
 4806TIP3   OH214381   2.589   6.168   0.040  0.0514 -0.0017  0.1444
 4806TIP3    H114382   2.510   6.152   0.092 -0.9586 -0.4243 -1.4173
 4806TIP3    H214383   2.580   6.109  -0.035  1.1072  1.0343 -0.8392
 4807TIP3   OH214384   3.504   4.926   2.586 -0.7884 -0.3692 -0.2275
 4807TIP3    H114385   3.416   4.889   2.588 -0.7103 -0.5274  1.2788
 4807TIP3    H214386   3.553   4.868   2.528 -1.0778 -1.7476  0.8393
 4808TIP3   OH214387   1.019   6.792   0.508  0.1886  0.0879  0.2905
 4808TIP3    H114388   1.059   6.714   0.546  1.8949 -0.2880 -2.0291
 4808TIP3    H214389   0.934   6.762   0.474  1.0806 -0.9708 -1.1069
 4809TIP3   OH214390   1.401   6.004   4.581  0.5565 -0.4927 -0.1264
 4809TIP3    H114391   1.470   6.052   4.535  1.7543 -1.8616  0.1415
 4809TIP3    H214392   1.376   6.061   4.653  1.6132 -0.0604 -0.0822
 4810TIP3   OH214393   6.668   6.766   0.567 -0.1606  0.4648  0.0090
 4810TIP3    H114394   6.758   6.781   0.597  0.7329  0.2091 -2.2823
 4810TIP3    H214395   6.653   6.673   0.585  0.7738  0.0398 -1.2607
 4811TIP3   OH214396   5.706   6.674   0.112  0.1730  0.2148  0.3990
 4811TIP3    H114397   5.642   6.626   0.060 -0.7646  2.2070 -0.3977
 4811TIP3    H214398   5.755   6.606   0.158 -1.6708 -1.4432  0.0726
 4812TIP3   OH214399   7.061   5.239   0.847 -0.4161 -0.6799 -0.2668
 4812TIP3    H114400   6.973   5.277   0.849 -0.1122  0.0199  0.3948
 4812TIP3    H214401   7.051   5.153   0.888 -0.5912 -0.1368  0.8681
 4813TIP3   OH214402   3.304   5.348   3.272 -0.2110 -0.3864  0.0966
 4813TIP3    H114403   3.252   5.425   3.247  2.5822  2.4236  2.1723
 4813TIP3    H214404   3.380   5.351   3.214  0.9396 -0.2636  1.5540
 4814TIP3   OH214405   5.935   0.496   3.753 -0.6216  0.2198  0.0447
 4814TIP3    H114406   5.922   0.402   3.736 -0.2276  0.4859 -1.9561
 4814TIP3    H214407   5.903   0.508   3.842 -2.8871 -1.3949 -0.4401
 4815TIP3   OH214408   6.540   1.274   2.294  0.7027 -0.3293  0.1939
 4815TIP3    H114409   6.488   1.206   2.336 -0.1666 -0.0691 -0.4428
 4815TIP3    H214410   6.622   1.276   2.344  0.1742 -0.8591  1.0995
 4816TIP3   OH214411   4.600   3.282   5.248 -0.0843 -0.5792 -0.0087
 4816TIP3    H114412   4.554   3.361   5.274  1.6393  0.1786  0.8502
 4816TIP3    H214413   4.592   3.223   5.323  1.8234  0.2495  0.9092
 4817TIP3   OH214414   5.095   4.354   5.221 -0.1886  0.3136 -0.3555
 4817TIP3    H114415   5.011   4.391   5.250 -0.1369  0.2619 -0.1400
 4817TIP3    H214416   5.107   4.389   5.133  0.7085  2.2300  0.4801
 4818TIP3   OH214417   0.048   1.418   0.521  0.2210  0.1009  0.2097
 4818TIP3    H114418   0.053   1.360   0.596 -1.0339  0.1400  0.3464
 4818TIP3    H214419   0.093   1.371   0.450 -0.3509 -0.8103  0.4474
 4819TIP3   OH214420   1.109   5.340   4.594 -0.0160 -0.0599  0.0878
 4819TIP3    H114421   1.051   5.319   4.667 -0.8576  0.1670 -0.4985
 4819TIP3    H214422   1.196   5.316   4.625 -0.5336 -1.3453  0.6354
 4820TIP3   OH214423   1.519   1.003   1.740  0.0498 -0.1630 -0.2787
 4820TIP3    H114424   1.577   1.062   1.692 -1.3526  0.3488 -1.4225
 4820TIP3    H214425   1.468   0.960   1.672 -2.2850  0.8540  0.7165
 4821TIP3   OH214426   3.148   4.588   2.262 -0.2395  0.2974 -0.4337
 4821TIP3    H114427   3.206   4.563   2.190 -0.9376 -2.1128 -0.2550
 4821TIP3    H214428   3.074   4.528   2.254 -0.9265  0.8153  1.5709
 4822TIP3   OH214429   3.695   0.419   3.725 -0.0337 -0.6346  0.6376
 4822TIP3    H114430   3.658   0.434   3.638 -3.3911 -2.7251  1.5160
 4822TIP3    H214431   3.777   0.372   3.709 -0.1911 -0.2907 -1.3821
 4823TIP3   OH214432   5.104   0.969   5.912  0.0102  0.4812  0.0988
 4823TIP3    H114433   5.022   0.981   5.864  0.0353 -1.0693 -0.4150
 4823TIP3    H214434   5.172   0.974   5.845  0.2790  1.0551  0.4112
 4824TIP3   OH214435   5.109   2.946   2.681  0.4628 -0.0604  0.1060
 4824TIP3    H114436   5.030   2.893   2.687 -0.2678  0.7531 -1.7148
 4824TIP3    H214437   5.077   3.036   2.684  1.1857  0.2846 -1.7920
 4825TIP3   OH214438   6.387   1.410   0.541  0.4602  0.7364 -0.6662
 4825TIP3    H114439   6.323   1.426   0.611  0.2475 -1.2761 -0.3516
 4825TIP3    H214440   6.342   1.350   0.481  1.3007  1.0002 -1.5761
 4826TIP3   OH214441   4.328   3.299   0.873 -0.5017 -0.3182 -0.3490
 4826TIP3    H114442   4.348   3.392   0.868  0.3737 -0.5243 -0.8281
 4826TIP3    H214443   4.355   3.263   0.789 -1.9630 -0.8064 -0.6440
 4827TIP3   OH214444   4.099   5.080   3.186  0.5393 -0.1076 -0.2031
 4827TIP3    H114445   4.129   5.158   3.140 -0.4104  0.5022  0.1843
 4827TIP3    H214446   4.061   5.024   3.118 -0.7296  0.7267 -0.2069
 4828TIP3   OH214447   1.412   2.400   0.703  0.0312  0.0075 -0.3176
 4828TIP3    H114448   1.493   2.450   0.717  0.3040 -0.5142  0.0019
 4828TIP3    H214449   1.347   2.444   0.758  0.2679  0.0122 -0.0390
 4829TIP3   OH214450   4.658   1.081   1.321  0.3514  0.5771  0.1855
 4829TIP3    H114451   4.662   0.997   1.366 -0.3333  0.8813  0.8509
 4829TIP3    H214452   4.684   1.062   1.231 -0.5889 -0.4942  0.1254
 4830TIP3   OH214453   3.247   5.560   2.328 -0.0715  0.4303  0.9628
 4830TIP3    H114454   3.342   5.566   2.323 -0.0714 -0.3455 -0.8148
 4830TIP3    H214455   3.216   5.593   2.244 -1.3035 -0.4543  1.0359
 4831TIP3   OH214456   6.861   1.807   5.257 -0.0876  0.4733 -0.5512
 4831TIP3    H114457   6.846   1.882   5.199  1.7976  1.8412  0.6024
 4831TIP3    H214458   6.957   1.799   5.262 -0.2130 -0.5209  1.1636
 4832TIP3   OH214459   4.429   3.351   2.480 -0.5574 -0.6232 -0.1865
 4832TIP3    H114460   4.492   3.364   2.409  0.6593 -1.2947  0.7215
 4832TIP3    H214461   4.472   3.288   2.538 -1.6737 -0.3614  0.9646
 4833TIP3   OH214462   3.593   0.714   4.027 -0.2849 -0.2602 -0.2539
 4833TIP3    H114463   3.620   0.784   3.967 -0.7856  1.2699  1.2194
 4833TIP3    H214464   3.538   0.656   3.974 -1.4081  1.4954 -1.1104
 4834TIP3   OH214465   5.553   3.859   0.735  0.4279  0.0335 -0.4281
 4834TIP3    H114466   5.648   3.856   0.751  0.4767  1.7070 -0.2381
 4834TIP3    H214467   5.539   3.796   0.665  2.1692  1.7936 -2.5369
 4835TIP3   OH214468   3.866   5.613   4.420 -0.3207 -0.0363 -0.1096
 4835TIP3    H114469   3.918   5.597   4.341 -2.0560 -2.9442 -0.8121
 4835TIP3    H214470   3.822   5.696   4.403  2.4019  1.4960 -0.3262
 4836TIP3   OH214471   4.392   1.311   1.126  0.1651  0.1563  0.0586
 4836TIP3    H114472   4.456   1.276   1.064  0.2203  1.8757 -0.9043
 4836TIP3    H214473   4.427   1.396   1.152 -0.3508 -0.0965  1.7408
 4837TIP3   OH214474   4.401   2.599   5.714  0.1570  0.2356 -0.5471
 4837TIP3    H114475   4.436   2.513   5.738 -1.7940 -0.3709  0.3428
 4837TIP3    H214476   4.376   2.590   5.622 -2.1216 -0.9783  0.1027
 4838TIP3   OH214477   2.680   3.315   1.750  0.4372 -0.2622 -0.4195
 4838TIP3    H114478   2.639   3.320   1.663  0.9545  1.8091 -0.5973
 4838TIP3    H214479   2.773   3.329   1.734  0.6243 -0.4725  0.4221
 4839TIP3   OH214480   5.663   4.584   0.112 -0.0706  0.5429  0.3398
 4839TIP3    H114481   5.606   4.661   0.118  2.2919  2.4514  0.1210
 4839TIP3    H214482   5.701   4.590   0.024 -0.3037 -1.2646  0.0851
 4840TIP3   OH214483   6.314   5.864   0.009  0.1433 -0.0224 -0.1212
 4840TIP3    H114484   6.359   5.792   0.053 -1.5613 -1.1843 -0.1942
 4840TIP3    H214485   6.331   5.940   0.064  0.0996 -0.9467  1.1977
 4841TIP3   OH214486   5.161   4.834   2.794 -0.2110  0.4101  0.1195
 4841TIP3    H114487   5.075   4.805   2.762 -0.4782 -0.2384  1.3964
 4841TIP3    H214488   5.209   4.754   2.813 -1.2376  0.5852  4.4370
 4842TIP3   OH214489   6.528   0.819   1.432  0.3203  0.6325  0.1138
 4842TIP3    H114490   6.548   0.906   1.396 -1.0921  0.4916 -1.0792
 4842TIP3    H214491   6.435   0.825   1.457  0.1211 -0.6300 -0.2884
 4843TIP3   OH214492   2.945   6.083   1.954  0.2307  0.6082 -0.2695
 4843TIP3    H114493   2.922   6.135   1.877  3.2055  1.9459 -0.3771
 4843TIP3    H214494   3.014   6.024   1.923  1.0397  0.7378  1.1963
 4844TIP3   OH214495   3.583   0.760   1.828  0.1130 -0.2278  0.4780
 4844TIP3    H114496   3.575   0.717   1.742 -0.4104 -1.3600  1.0665
 4844TIP3    H214497   3.673   0.792   1.830 -0.1256  0.5974 -0.8387
 4845TIP3   OH214498   4.850   5.534   0.194  0.3563 -0.2339  0.5195
 4845TIP3    H114499   4.943   5.518   0.178  1.4292  3.1933  2.2692
 4845TIP3    H214500   4.821   5.586   0.119  0.4502  0.3853  0.8986
 4846TIP3   OH214501   0.330   5.845   1.551 -1.1147  0.4883  0.7256
 4846TIP3    H114502   0.276   5.766   1.551 -1.2261  0.5397 -0.5961
 4846TIP3    H214503   0.393   5.831   1.622 -0.7609 -1.0592  0.1558
 4847TIP3   OH214504   7.129   4.212   5.250 -0.9109  0.3328  0.0721
 4847TIP3    H114505   7.050   4.159   5.240  0.0287 -0.8853 -1.3391
 4847TIP3    H214506   7.142   4.253   5.165  0.1363  0.2736  0.1902
 4848TIP3   OH214507   5.906   1.574   2.077 -0.2844  0.5315 -0.2021
 4848TIP3    H114508   5.817   1.546   2.098  0.6547 -1.5824  1.3876
 4848TIP3    H214509   5.906   1.668   2.093 -1.8800  0.3558  1.1353
 4849TIP3   OH214510   5.299   0.597   1.617 -0.0934  0.1386 -0.7916
 4849TIP3    H114511   5.271   0.598   1.708 -0.6663  0.2574 -0.9696
 4849TIP3    H214512   5.391   0.624   1.620  0.0127 -0.2811 -0.2095
 4850TIP3   OH214513   0.625   0.265   4.505 -0.1958  0.7705 -0.0160
 4850TIP3    H114514   0.720   0.253   4.496 -0.2067 -2.5155  2.4536
 4850TIP3    H214515   0.589   0.229   4.424  0.6354 -1.7209  0.6117
 4851TIP3   OH214516   1.332   0.911   2.527 -1.0239  0.0480 -0.2136
 4851TIP3    H114517   1.249   0.871   2.551 -1.2675 -0.7201 -2.1389
 4851TIP3    H214518   1.314   1.005   2.525 -1.5143 -0.0224  0.4998
 4852TIP3   OH214519   0.258   1.654   1.796 -0.1131 -0.8590  0.4063
 4852TIP3    H114520   0.323   1.590   1.824  1.5387  0.2961 -0.5914
 4852TIP3    H214521   0.227   1.695   1.877  2.2029  0.2082  0.8497
 4853TIP3   OH214522   1.468   2.453   0.083  0.4326 -0.0768  0.2447
 4853TIP3    H114523   1.391   2.467   0.138  0.3481 -0.2826  0.1782
 4853TIP3    H214524   1.517   2.384   0.127  0.3220 -0.3022  0.0177
 4854TIP3   OH214525   0.227   6.263   5.566 -0.0931  0.4937  0.2475
 4854TIP3    H114526   0.247   6.220   5.483 -0.2330 -0.2762  0.5978
 4854TIP3    H214527   0.286   6.338   5.569  1.7546 -0.8672  0.5626
 4855TIP3   OH214528   2.781   2.537   1.585  0.3763  0.9300  0.4742
 4855TIP3    H114529   2.693   2.524   1.550  1.5366  0.0277 -2.3762
 4855TIP3    H214530   2.819   2.450   1.588  2.0739  1.5473 -1.1009
 4856TIP3   OH214531   6.031   6.691   5.473 -0.1738 -0.4839  0.4516
 4856TIP3    H114532   5.951   6.641   5.460  0.0236 -0.2295 -2.4858
 4856TIP3    H214533   6.101   6.632   5.444  0.4675  0.0630  0.8595
 4857TIP3   OH214534   7.071   3.460   4.787 -0.3696  0.5113  0.3246
 4857TIP3    H114535   6.982   3.488   4.810 -0.1733  0.1635  1.5802
 4857TIP3    H214536   7.079   3.374   4.827  0.6754  0.7143  0.5603
 4858TIP3   OH214537   0.493   4.343   3.806 -0.1225  0.3009 -0.8853
 4858TIP3    H114538   0.428   4.412   3.818 -0.8753 -0.1380 -2.2396
 4858TIP3    H214539   0.442   4.262   3.800  0.8003 -0.6207  1.9309
 4859TIP3   OH214540   6.314   4.497   0.740  0.1466 -0.4584  0.4686
 4859TIP3    H114541   6.405   4.498   0.771 -0.0141 -0.7379  0.9516
 4859TIP3    H214542   6.301   4.407   0.709  0.6078  0.0521 -1.3438
 4860TIP3   OH214543   3.659   0.780   5.455  0.0952  0.2718 -0.2326
 4860TIP3    H114544   3.604   0.719   5.405 -0.4026  0.4232  0.1247
 4860TIP3    H214545   3.714   0.724   5.510  0.4369  0.1139 -0.7253
 4861TIP3   OH214546   5.193   3.871   5.189 -0.3240  0.3971 -0.3323
 4861TIP3    H114547   5.215   3.954   5.232 -1.0164  1.2215 -1.5324
 4861TIP3    H214548   5.256   3.863   5.118  0.4206 -0.6625  0.3967
 4862TIP3   OH214549   4.314   6.321   1.017  0.0250 -0.3037 -0.2708
 4862TIP3    H114550   4.264   6.252   0.973  0.4529 -0.5646 -0.3592
 4862TIP3    H214551   4.250   6.364   1.074 -0.3950 -0.3543 -0.6984
 4863TIP3   OH214552   5.401   6.543   2.700  0.2690  0.5856  1.2766
 4863TIP3    H114553   5.362   6.599   2.632  0.8810 -0.1421  0.2994
 4863TIP3    H214554   5.332   6.480   2.722  0.0872  0.7893  1.2995
 4864TIP3   OH214555   2.602   4.741   2.379  0.5365  0.0355 -0.0481
 4864TIP3    H114556   2.526   4.710   2.429  0.7939 -0.6158 -0.0537
 4864TIP3    H214557   2.668   4.673   2.392  0.8583  0.2298 -0.6655
 4865TIP3   OH214558   1.631   0.154   0.552 -0.9901  0.9915 -0.2801
 4865TIP3    H114559   1.714   0.108   0.557 -1.8722 -0.6027  0.3621
 4865TIP3    H214560   1.642   0.216   0.480  0.5502  0.4262 -0.5667
 4866TIP3   OH214561  -0.016   6.486   0.290  0.0229 -0.6912  0.0168
 4866TIP3    H114562   0.040   6.478   0.366  0.4376 -0.2084 -0.2360
 4866TIP3    H214563   0.032   6.442   0.219 -0.7991 -2.0321  0.2456
 4867TIP3   OH214564   7.126   6.751   0.356 -0.1155 -0.0364  0.1743
 4867TIP3    H114565   7.100   6.791   0.274  0.3436 -3.1271 -1.6085
 4867TIP3    H214566   7.167   6.668   0.331  0.2982 -0.9901  3.5064
 4868TIP3   OH214567   4.304   0.251   2.251  0.1704 -0.4505 -0.1547
 4868TIP3    H114568   4.266   0.206   2.327  2.4393 -2.5091 -0.1362
 4868TIP3    H214569   4.276   0.199   2.176  0.7326 -0.4026 -0.4016
 4869TIP3   OH214570   7.052   2.259   4.570 -0.2295 -0.3191 -0.0038
 4869TIP3    H114571   7.013   2.211   4.497 -0.4639 -0.9905  0.5539
 4869TIP3    H214572   7.146   2.257   4.551 -0.2702 -0.6751 -0.1861
 4870TIP3   OH214573   5.390   3.559   4.703  0.0455 -0.7819 -0.3577
 4870TIP3    H114574   5.300   3.591   4.698  0.5403  0.6793 -0.4108
 4870TIP3    H214575   5.430   3.585   4.620  0.7893 -0.5158  0.0740
 4871TIP3   OH214576   3.629   2.941   3.427  0.1406 -0.5347 -0.0683
 4871TIP3    H114577   3.597   2.965   3.514 -0.2104 -1.3499  0.0335
 4871TIP3    H214578   3.700   2.879   3.444 -1.2532 -2.2922 -0.3759
 4872TIP3   OH214579   3.843   5.960   5.241  0.3587  0.4387  0.4470
 4872TIP3    H114580   3.907   5.896   5.272 -0.6286  0.4819  2.7208
 4872TIP3    H214581   3.853   6.034   5.300 -1.3903  0.6866  0.4673
 4873TIP3   OH214582   4.764   1.132   2.334 -0.2205  0.4511 -0.4112
 4873TIP3    H114583   4.857   1.113   2.317 -0.4072  1.1756 -2.6839
 4873TIP3    H214584   4.748   1.214   2.286 -2.0987  0.1865 -0.2992
 4874TIP3   OH214585   6.517   0.195   5.791 -0.2535  0.2979 -0.1601
 4874TIP3    H114586   6.524   0.123   5.854 -2.1479  0.2757  0.1026
 4874TIP3    H214587   6.552   0.159   5.709 -0.6436 -0.7542  0.1117
 4875TIP3   OH214588   1.920   2.646   1.813  0.0186  0.2917  0.3148
 4875TIP3    H114589   1.939   2.669   1.722 -0.1163 -2.1069 -0.3713
 4875TIP3    H214590   2.001   2.667   1.861  1.4706 -1.8549 -1.0538
 4876TIP3   OH214591   3.164   5.476   5.269 -0.1585 -0.6072 -0.8528
 4876TIP3    H114592   3.252   5.444   5.248 -0.6215 -2.6678  0.0869
 4876TIP3    H214593   3.180   5.561   5.311  1.3419 -0.7012 -1.1550
 4877TIP3   OH214594   0.593   5.636   2.734 -0.2165  0.4448 -0.4467
 4877TIP3    H114595   0.502   5.616   2.709  0.3886 -0.2411 -2.2032
 4877TIP3    H214596   0.614   5.570   2.801 -0.9197  0.4523 -0.2055
 4878TIP3   OH214597   3.105   1.551   5.346  0.2094 -0.3167  0.0012
 4878TIP3    H114598   3.026   1.603   5.363 -0.6927 -1.6550  0.1256
 4878TIP3    H214599   3.136   1.581   5.261  0.9661  1.8722  0.9636
 4879TIP3   OH214600   4.061   2.525   4.378 -0.7344  1.0260 -0.2288
 4879TIP3    H114601   4.085   2.438   4.410 -1.1576  1.4114  1.2425
 4879TIP3    H214602   4.144   2.568   4.359 -0.5115  0.4278 -0.6313
 4880TIP3   OH214603   3.398   4.259   4.351  0.0904 -0.8024  0.2553
 4880TIP3    H114604   3.433   4.205   4.280  0.4947 -0.3515  0.1042
 4880TIP3    H214605   3.306   4.270   4.330  0.8230  2.1891 -2.1508
 4881TIP3   OH214606   3.360   1.308   2.217 -0.4802  0.0013 -0.2624
 4881TIP3    H114607   3.379   1.337   2.306  1.7456  2.0712 -1.2720
 4881TIP3    H214608   3.422   1.356   2.163 -0.1596 -2.8862 -2.7485
 4882TIP3   OH214609   6.279   5.857   3.307 -0.2123  0.2275  0.3360
 4882TIP3    H114610   6.221   5.883   3.235  1.1335  2.2671 -0.0822
 4882TIP3    H214611   6.283   5.762   3.301 -0.0853  0.3316 -2.3405
 4883TIP3   OH214612   5.907   6.094   1.223 -0.4619 -0.4062 -0.2381
 4883TIP3    H114613   5.824   6.098   1.175 -0.1013  1.0263 -0.8008
 4883TIP3    H214614   5.891   6.145   1.303 -0.5577 -1.3857  0.3844
 4884TIP3   OH214615   6.142   3.373   4.814  0.5539 -0.3992 -0.5064
 4884TIP3    H114616   6.095   3.334   4.740  3.0354  0.1133 -2.5160
 4884TIP3    H214617   6.160   3.462   4.785  2.4076 -0.4786  0.2902
 4885TIP3   OH214618   2.665   3.432   5.419 -0.4627 -0.3015 -0.7592
 4885TIP3    H114619   2.589   3.417   5.363 -1.4284 -0.7736  0.6215
 4885TIP3    H214620   2.726   3.361   5.396 -1.4395 -1.3453 -0.2635
 4886TIP3   OH214621   1.335   6.716   2.291 -0.4702 -0.3422 -0.2124
 4886TIP3    H114622   1.361   6.644   2.349  0.2819  1.0974  1.3392
 4886TIP3    H214623   1.248   6.742   2.322 -0.3553 -0.0126 -0.1569
 4887TIP3   OH214624   4.824   6.176   2.695  0.0642  0.3552 -0.1616
 4887TIP3    H114625   4.763   6.221   2.636  0.1288  0.3385 -0.2413
 4887TIP3    H214626   4.784   6.184   2.782 -0.3697 -0.1987 -0.3028
 4888TIP3   OH214627   4.226   1.811   1.764 -0.1491  0.2775  0.0519
 4888TIP3    H114628   4.166   1.886   1.758 -2.0574 -0.7417  3.4410
 4888TIP3    H214629   4.289   1.836   1.831  1.0910 -0.0754 -0.9411
 4889TIP3   OH214630   5.212   4.704   3.615  0.5618  0.7093 -0.0759
 4889TIP3    H114631   5.159   4.754   3.552  0.3459  0.8250  0.1951
 4889TIP3    H214632   5.299   4.701   3.576  0.6078  1.4085 -0.0356
 4890TIP3   OH214633   4.683   2.373   4.199  1.0023 -0.4339 -0.4510
 4890TIP3    H114634   4.704   2.421   4.279  1.8008 -0.9861 -0.3088
 4890TIP3    H214635   4.594   2.400   4.177  0.3505 -1.0620  1.2176
 4891TIP3   OH214636   3.238   6.391   4.575  0.3035  0.0230 -0.2239
 4891TIP3    H114637   3.273   6.305   4.549 -0.4258 -0.1261 -0.7193
 4891TIP3    H214638   3.268   6.450   4.506  0.0915  0.0116 -0.3242
 4892TIP3   OH214639   5.966   3.946   1.067 -0.6238 -0.0885 -0.4793
 4892TIP3    H114640   5.876   3.917   1.079 -0.2445 -0.8792  0.5993
 4892TIP3    H214641   5.999   3.961   1.156  0.2735  0.3096 -0.8647
 4893TIP3   OH214642   1.912   0.529   4.916 -0.1965 -0.6313  0.1782
 4893TIP3    H114643   1.903   0.451   4.971 -2.1272 -0.1216  0.6670
 4893TIP3    H214644   1.932   0.600   4.977  1.9266 -0.7583 -0.3051
 4894TIP3   OH214645   5.488   2.159   0.081  0.2005  0.1350  0.0672
 4894TIP3    H114646   5.532   2.185   0.000  0.7928 -2.3833 -0.4950
 4894TIP3    H214647   5.402   2.200   0.077  0.7629  1.2346 -1.1186
 4895TIP3   OH214648   4.947   5.225   4.875 -0.6594 -0.2945 -0.0228
 4895TIP3    H114649   5.005   5.270   4.814 -1.8748  0.0147 -0.9853
 4895TIP3    H214650   4.935   5.286   4.948  0.4761 -0.5029  0.3520
 4896TIP3   OH214651   6.265   4.230   2.712 -0.1667  0.1815 -1.1348
 4896TIP3    H114652   6.178   4.216   2.675 -0.7322 -0.5383  0.3618
 4896TIP3    H214653   6.250   4.285   2.789  0.7612  0.3708 -1.0714
 4897TIP3   OH214654   5.548   5.282   3.369 -0.0546 -1.2588 -0.8931
 4897TIP3    H114655   5.534   5.315   3.281  0.7757 -1.1045 -0.9799
 4897TIP3    H214656   5.464   5.295   3.414 -1.1118 -3.1786 -2.2104
 4898TIP3   OH214657   6.530   3.835   4.747  0.5708  0.8795  0.0502
 4898TIP3    H114658   6.495   3.835   4.836 -0.1023 -1.2910 -0.1431
 4898TIP3    H214659   6.597   3.903   4.747 -0.9700  2.5010  1.5369
 4899TIP3   OH214660   6.858   1.412   4.705  0.4691  0.4975  0.6586
 4899TIP3    H114661   6.829   1.371   4.623  1.1908  1.3989 -0.0773
 4899TIP3    H214662   6.843   1.506   4.691  1.0566  0.7057  1.3632
 4900TIP3   OH214663   7.049   3.679   3.992  0.2792 -0.0799  0.2044
 4900TIP3    H114664   7.032   3.769   3.965  0.8060  0.1173  0.5158
 4900TIP3    H214665   7.077   3.634   3.912 -0.7676 -0.1745 -0.1186
 4901TIP3   OH214666   0.585   3.576   0.508 -0.6171 -0.3365 -0.7620
 4901TIP3    H114667   0.640   3.578   0.430  0.3338  1.1700 -0.0845
 4901TIP3    H214668   0.527   3.501   0.494  1.5687 -1.9891 -1.5120
 4902TIP3   OH214669   4.655   3.598   0.870  0.2263  0.3724  0.0515
 4902TIP3    H114670   4.718   3.528   0.881 -1.0884 -0.9357 -0.4173
 4902TIP3    H214671   4.581   3.573   0.926 -0.5611  1.0016 -0.6711
 4903TIP3   OH214672   3.417   5.477   2.576 -0.0155 -0.4010  0.7459
 4903TIP3    H114673   3.413   5.518   2.490  1.2052 -0.0587  0.8384
 4903TIP3    H214674   3.427   5.383   2.558  1.5572 -0.2059  0.4783
 4904TIP3   OH214675   2.775   6.688   5.537 -0.3649  0.1946 -0.0198
 4904TIP3    H114676   2.871   6.684   5.536 -0.3996 -0.7280 -1.0939
 4904TIP3    H214677   2.747   6.597   5.542 -1.1940  0.4707  0.5586
 4905TIP3   OH214678   4.863   5.830   0.548  0.3076  0.1433 -0.4873
 4905TIP3    H114679   4.884   5.831   0.455  1.2672  1.2667 -0.2832
 4905TIP3    H214680   4.947   5.845   0.592 -0.0717 -0.7211  0.5811
 4906TIP3   OH214681   3.420   2.305   1.738 -0.7895  0.0036 -0.6064
 4906TIP3    H114682   3.368   2.379   1.707 -1.4237 -0.3240 -0.3465
 4906TIP3    H214683   3.486   2.344   1.795 -2.0262  0.2534  0.7102
 4907TIP3   OH214684   3.230   4.747   4.478  0.2333 -0.1251  0.0553
 4907TIP3    H114685   3.324   4.740   4.495  0.3263 -1.2289 -0.7385
 4907TIP3    H214686   3.204   4.658   4.451 -0.8764  0.3389 -0.4835
 4908TIP3   OH214687   6.249   4.589   2.741 -0.4807 -0.0721  0.0648
 4908TIP3    H114688   6.344   4.583   2.728 -0.6154 -0.0681 -1.0072
 4908TIP3    H214689   6.233   4.544   2.825  0.4183 -0.4389  0.0478
 4909TIP3   OH214690   1.446   5.035   4.338  0.5334 -0.3091  0.6475
 4909TIP3    H114691   1.447   4.965   4.403  1.4322 -0.4395  0.4979
 4909TIP3    H214692   1.374   5.012   4.280  0.7584 -1.0623  0.6582
 4910TIP3   OH214693   2.286   1.549   4.082 -0.2184 -0.0377  0.1315
 4910TIP3    H114694   2.243   1.558   4.167  0.9011 -0.2292  0.7364
 4910TIP3    H214695   2.214   1.535   4.020 -0.9864 -0.9947  1.2029
 4911TIP3   OH214696   2.331   5.064   5.108  0.3746 -0.2209  0.3642
 4911TIP3    H114697   2.374   5.128   5.052  1.6700 -1.0351  0.3782
 4911TIP3    H214698   2.386   5.058   5.185 -0.5390 -0.2711  1.0308
 4912TIP3   OH214699   4.683   6.128   0.795  0.4309 -0.1113  0.6267
 4912TIP3    H114700   4.617   6.064   0.768  1.2429 -0.9220  0.5138
 4912TIP3    H214701   4.729   6.086   0.868  2.7224 -0.8528 -1.1174
 4913TIP3   OH214702   0.106   0.535   1.271 -0.0177  0.0762  0.9211
 4913TIP3    H114703   0.041   0.516   1.203  0.9036 -0.5548  0.1913
 4913TIP3    H214704   0.098   0.461   1.332  2.2607 -1.8733 -0.9284
 4914TIP3   OH214705   4.246   2.862   5.777 -0.8216 -0.0062  0.5254
 4914TIP3    H114706   4.308   2.789   5.787 -0.0559  0.4746 -0.5390
 4914TIP3    H214707   4.179   2.827   5.718 -0.9904 -0.1687  0.8096
 4915TIP3   OH214708   2.094   6.033   1.773  0.3832 -0.4239  0.1605
 4915TIP3    H114709   2.038   6.023   1.850 -0.9312  0.8288 -0.5858
 4915TIP3    H214710   2.183   6.014   1.805  0.5135  3.7487  2.9852
 4916TIP3   OH214711   4.086   4.103   3.326  0.3548  0.0238  0.0904
 4916TIP3    H114712   4.023   4.037   3.355  2.2624 -1.2287  1.5953
 4916TIP3    H214713   4.125   4.136   3.407  0.8505  1.5937 -0.7508
 4917TIP3   OH214714   5.983   1.457   0.322 -0.7106 -0.1775 -0.7615
 4917TIP3    H114715   5.929   1.463   0.401 -1.9338 -0.5113 -1.5280
 4917TIP3    H214716   5.922   1.478   0.251  0.8434  2.2440 -1.4932
 4918TIP3   OH214717   6.022   4.886   2.356 -0.2531  0.4078  0.2110
 4918TIP3    H114718   5.947   4.843   2.315 -0.3760  0.1309  0.7290
 4918TIP3    H214719   6.094   4.825   2.343 -0.4426  0.0014  1.0082
 4919TIP3   OH214720   5.075   0.207   0.965 -0.5237 -0.4027 -0.1701
 4919TIP3    H114721   5.037   0.290   0.992  1.0757  0.2609  0.1664
 4919TIP3    H214722   5.084   0.215   0.870 -0.6587 -0.3288 -0.1776
 4920TIP3   OH214723   4.180   3.738   2.417 -0.5494 -0.5103 -0.2930
 4920TIP3    H114724   4.179   3.797   2.493 -0.5455 -0.2976 -0.4577
 4920TIP3    H214725   4.273   3.724   2.399 -0.5502 -0.5293 -0.2833
 4921TIP3   OH214726   1.990   1.962   4.573 -0.0155 -0.1812 -0.3065
 4921TIP3    H114727   1.912   1.936   4.525  0.6743 -2.7052 -0.1866
 4921TIP3    H214728   2.062   1.950   4.510  0.6539 -1.4676  0.6576
 4922TIP3   OH214729   2.686   3.853   2.741  0.1969  0.3096  0.1393
 4922TIP3    H114730   2.726   3.828   2.658  0.6264  0.7007  0.2264
 4922TIP3    H214731   2.596   3.876   2.719  0.1295 -0.2064 -0.1181
 4923TIP3   OH214732   5.987   0.408   1.846  0.8312  0.1375 -0.0437
 4923TIP3    H114733   5.915   0.379   1.902  0.3478  1.8195  0.2493
 4923TIP3    H214734   5.950   0.479   1.794  1.5887 -0.6558 -1.7489
 4924TIP3   OH214735   4.360   0.921   2.794  1.0494  0.4544 -0.3871
 4924TIP3    H114736   4.359   0.844   2.738  0.3900 -0.1463  0.4248
 4924TIP3    H214737   4.268   0.948   2.801  1.2187  1.0264 -0.2782
 4925TIP3   OH214738   1.795   0.889   0.194  0.3796 -0.0335 -0.3478
 4925TIP3    H114739   1.711   0.861   0.157  0.1036  0.2574  0.0535
 4925TIP3    H214740   1.778   0.899   0.288  0.5157  1.2884 -0.4469
 4926TIP3   OH214741   6.156   2.593   2.176  0.0101  0.1649 -0.2115
 4926TIP3    H114742   6.165   2.516   2.120 -0.1241 -0.3123  0.4080
 4926TIP3    H214743   6.074   2.633   2.148  0.1083  0.1134 -0.5740
 4927TIP3   OH214744   3.214   4.339   5.030 -0.3217  0.2866  0.6103
 4927TIP3    H114745   3.288   4.343   5.090  0.8246 -0.0212 -0.7519
 4927TIP3    H214746   3.237   4.271   4.967 -2.1474 -0.4269  0.6540
 4928TIP3   OH214747   3.138   0.769   1.703  0.2021  0.0858  0.6052
 4928TIP3    H114748   3.168   0.706   1.638 -0.6081 -1.2473  1.4651
 4928TIP3    H214749   3.062   0.811   1.663 -0.2238 -0.6485  0.6275
 4929TIP3   OH214750   4.059   1.742   5.516 -0.1658 -0.6325 -0.5857
 4929TIP3    H114751   4.000   1.667   5.519 -1.5821  0.4099  3.2863
 4929TIP3    H214752   4.005   1.815   5.486 -0.3141 -0.1176  0.8638
 4930TIP3   OH214753   6.222   1.443   2.366 -0.2067 -0.4239  0.2024
 4930TIP3    H114754   6.258   1.355   2.381 -0.0569 -0.0680  2.1956
 4930TIP3    H214755   6.127   1.429   2.363 -0.1584 -0.7184 -0.0558
 4931TIP3   OH214756   4.963   6.299   2.362  0.4011 -0.4410  0.6236
 4931TIP3    H114757   4.878   6.344   2.365  0.7022  0.1508  0.3742
 4931TIP3    H214758   4.995   6.315   2.274  1.2591  0.2561  1.0462
 4932TIP3   OH214759   4.525   1.870   4.694  0.3889 -0.4620 -0.0200
 4932TIP3    H114760   4.586   1.908   4.758  0.7625  0.7851 -1.0866
 4932TIP3    H214761   4.446   1.850   4.746  1.0813 -0.5367  1.0428
 4933TIP3   OH214762   4.766   2.706   4.597 -0.0647 -0.2524 -0.0315
 4933TIP3    H114763   4.829   2.776   4.611 -1.4657  0.8860  0.8907
 4933TIP3    H214764   4.728   2.690   4.684 -0.8993 -1.0488 -0.5165
 4934TIP3   OH214765   2.834   6.412   1.084  0.2065  0.0750 -0.4669
 4934TIP3    H114766   2.839   6.462   1.166 -1.2024  1.8069 -1.3654
 4934TIP3    H214767   2.807   6.324   1.112  0.1071  0.5284  0.9632
 4935TIP3   OH214768   2.052   5.835   2.707 -0.0807 -0.0907  0.0366
 4935TIP3    H114769   2.096   5.755   2.734  1.1730  0.3906 -0.5069
 4935TIP3    H214770   1.963   5.807   2.685 -0.2514 -0.9862  1.7063
 4936TIP3   OH214771   4.642   1.975   4.929  0.0256  0.0571 -0.4572
 4936TIP3    H114772   4.729   1.967   4.890 -0.1078  1.8528 -1.2426
 4936TIP3    H214773   4.659   1.984   5.023  0.6369 -0.1672 -0.5404
 4937TIP3   OH214774   1.738   4.810   2.466  0.6254  0.2226 -0.3637
 4937TIP3    H114775   1.702   4.880   2.521 -0.0907  0.0926 -0.6451
 4937TIP3    H214776   1.814   4.849   2.424  1.0906  0.3681  0.5994
 4938TIP3   OH214777   7.179   5.785   2.216  0.3739  0.3673 -0.8151
 4938TIP3    H114778   7.146   5.801   2.304 -0.2658  0.3050 -1.0439
 4938TIP3    H214779   7.143   5.699   2.192 -0.9032  1.1472 -1.8129
 4939TIP3   OH214780   1.316   2.477   5.893 -0.4106 -0.3892  0.0924
 4939TIP3    H114781   1.389   2.486   5.955 -1.6040  2.0088  1.2617
 4939TIP3    H214782   1.352   2.507   5.810  0.5801 -1.5458  0.0611
 4940TIP3   OH214783   2.012   6.737  -0.004  0.4318  0.2757  0.7347
 4940TIP3    H114784   1.996   6.805  -0.069 -0.6475 -1.0096 -0.3965
 4940TIP3    H214785   2.021   6.785   0.079 -0.3309  1.7746 -0.0054
 4941TIP3   OH214786   5.484   4.151   3.307 -0.3784  0.6923  0.1908
 4941TIP3    H114787   5.506   4.103   3.227  0.7897 -0.4415  1.1478
 4941TIP3    H214788   5.568   4.163   3.352 -1.2646 -1.5666  2.7733
 4942TIP3   OH214789   6.648   6.230   2.737  0.1433 -0.0593 -0.3751
 4942TIP3    H114790   6.704   6.306   2.725  0.0915 -0.0952 -0.8584
 4942TIP3    H214791   6.603   6.219   2.653 -2.3438  1.3630  0.6603
 4943TIP3   OH214792   2.343   4.664   5.726  0.4282  0.0652 -0.3200
 4943TIP3    H114793   2.417   4.639   5.782  0.0360 -0.0751  0.1488
 4943TIP3    H214794   2.278   4.699   5.787 -0.1308 -0.3784 -0.6446
 4944TIP3   OH214795   4.681   6.702   4.693 -0.6004 -0.5428 -0.0911
 4944TIP3    H114796   4.651   6.650   4.767 -0.7605 -0.1630  0.1133
 4944TIP3    H214797   4.618   6.774   4.687  0.8233  0.8904  1.0351
 4945TIP3   OH214798   1.368   1.505   5.480 -0.3001  0.0340 -0.1036
 4945TIP3    H114799   1.353   1.578   5.540  0.8405 -0.5570  0.9525
 4945TIP3    H214800   1.462   1.488   5.486 -0.5258 -1.4528 -0.3918
 4946TIP3   OH214801   0.747   6.226   5.774  0.1077  0.0390 -0.0229
 4946TIP3    H114802   0.688   6.294   5.742 -0.3896  0.8075  2.2766
 4946TIP3    H214803   0.689   6.155   5.802  0.5849 -1.0686 -1.7299
 4947TIP3   OH214804   3.142   6.093   0.522  0.3749  0.0071 -0.4364
 4947TIP3    H114805   3.086   6.068   0.596 -0.6294 -1.7317 -1.7127
 4947TIP3    H214806   3.210   6.025   0.520  0.8783  0.5043 -0.6326
 4948TIP3   OH214807   0.881   6.354   0.207 -0.0077  0.4612 -0.1486
 4948TIP3    H114808   0.903   6.261   0.201 -0.2029  0.2199  2.0959
 4948TIP3    H214809   0.965   6.399   0.202  0.1834  0.0948 -0.2444
 4949TIP3   OH214810   6.582   5.499   3.859 -0.2491  0.0880  1.1335
 4949TIP3    H114811   6.575   5.404   3.851 -0.2103  0.0903  1.0716
 4949TIP3    H214812   6.676   5.516   3.865 -0.2251  0.1634  0.6160
 4950TIP3   OH214813   3.607   5.202   1.189  0.0759 -0.3674 -0.3647
 4950TIP3    H114814   3.610   5.139   1.261 -2.3568 -1.6990 -1.3192
 4950TIP3    H214815   3.699   5.218   1.167  0.8265 -1.1469  1.9373
 4951TIP3   OH214816   0.995   1.246   1.351 -0.1625 -0.6050 -0.3280
 4951TIP3    H114817   1.071   1.227   1.296  0.0785  0.9141 -0.5643
 4951TIP3    H214818   0.938   1.299   1.295  0.2681  1.3231  0.9719
 4952TIP3   OH214819   1.524   1.385   4.821 -0.1090 -0.4694 -0.4104
 4952TIP3    H114820   1.490   1.473   4.832  2.3621  0.4779  0.1794
 4952TIP3    H214821   1.455   1.339   4.771 -1.9272  1.4169  0.2128
 4953TIP3   OH214822   6.920   1.267   0.524  0.0882 -0.5444  0.3827
 4953TIP3    H114823   6.861   1.337   0.552 -0.9091 -1.3992  0.5127
 4953TIP3    H214824   6.897   1.193   0.580  0.6443 -1.1784 -0.2118
 4954TIP3   OH214825   5.281   1.847   5.003  0.4840  0.3103  0.2688
 4954TIP3    H114826   5.212   1.789   5.036 -0.2709  0.8202 -0.3884
 4954TIP3    H214827   5.360   1.818   5.049  0.1626 -1.3390 -0.1677
 4955TIP3   OH214828   2.157   3.982   0.909 -0.4403 -0.1303  0.1527
 4955TIP3    H114829   2.233   3.999   0.965 -1.3079 -0.4567  1.4742
 4955TIP3    H214830   2.147   4.063   0.858  0.1866  0.2949  0.6858
 4956TIP3   OH214831   3.146   1.493   4.797 -0.4861  0.1256 -0.0819
 4956TIP3    H114832   3.143   1.400   4.819 -0.5505  0.0717 -0.3219
 4956TIP3    H214833   3.147   1.496   4.702  3.0275  0.2312 -0.1597
 4957TIP3   OH214834   4.156   3.954   4.486  0.2170  0.2546 -0.1798
 4957TIP3    H114835   4.101   4.029   4.510 -1.0547 -0.7381  0.0981
 4957TIP3    H214836   4.107   3.878   4.517  1.4108 -0.7076 -0.6038
 4958TIP3   OH214837   0.490   1.570   5.222 -0.2761 -0.1894  0.3444
 4958TIP3    H114838   0.405   1.527   5.211  0.1887 -1.0341 -0.0914
 4958TIP3    H214839   0.508   1.610   5.136  0.4471 -1.3217 -0.0557
 4959TIP3   OH214840   6.439   0.336   0.462  0.2810  0.6180  0.1697
 4959TIP3    H114841   6.477   0.258   0.503 -0.4447 -0.0209 -0.3451
 4959TIP3    H214842   6.345   0.330   0.483 -0.2205 -0.0302 -2.0121
 4960TIP3   OH214843   5.677   6.499   5.247  0.3054  0.2569 -0.1585
 4960TIP3    H114844   5.672   6.403   5.244 -0.3112  0.2432  0.8734
 4960TIP3    H214845   5.766   6.519   5.219  0.7517 -0.6774  0.5271
 4961TIP3   OH214846   4.432   3.297   4.954  0.6809 -0.0102  0.4789
 4961TIP3    H114847   4.517   3.334   4.980  0.7426 -0.3855  0.8181
 4961TIP3    H214848   4.416   3.334   4.867  0.7196  0.8549  0.8232
 4962TIP3   OH214849   0.478   2.324   0.236  0.1724  0.1142  0.6402
 4962TIP3    H114850   0.424   2.246   0.238 -1.6933  1.3546  1.5806
 4962TIP3    H214851   0.567   2.291   0.221 -0.7417 -2.0258 -0.4824
 4963TIP3   OH214852   5.826   5.767   3.272 -0.3035 -0.1796 -0.1339
 4963TIP3    H114853   5.814   5.859   3.296  1.6744 -0.4438  2.2967
 4963TIP3    H214854   5.861   5.770   3.183  1.7519  1.6229  0.6347
 4964TIP3   OH214855   4.665   1.762   3.846 -0.3911 -0.8561  0.5410
 4964TIP3    H114856   4.600   1.700   3.812 -1.8224  0.8558 -0.0101
 4964TIP3    H214857   4.654   1.840   3.791 -1.3409  1.2879  3.5510
 4965TIP3   OH214858   1.977   0.205   3.531  0.1415 -0.0205  0.1468
 4965TIP3    H114859   1.979   0.110   3.535 -0.2731 -0.1867 -2.1672
 4965TIP3    H214860   1.916   0.231   3.599  0.8637 -1.3342  1.3458
 4966TIP3   OH214861   6.056   2.727   2.464  0.2244  0.4815  0.3492
 4966TIP3    H114862   6.076   2.704   2.373  0.1661  0.2670  0.3910
 4966TIP3    H214863   5.965   2.756   2.461  0.5757  1.6296  0.1268
 4967TIP3   OH214864   3.854   0.296   1.989  0.1436  0.0145 -0.4030
 4967TIP3    H114865   3.802   0.294   1.908  1.4296 -1.2591 -1.2468
 4967TIP3    H214866   3.843   0.208   2.026 -0.1103  0.4632  0.6132
 4968TIP3   OH214867   0.272   3.076   1.849  0.2354  0.5358 -0.2776
 4968TIP3    H114868   0.344   3.111   1.797 -0.3318  0.0836 -1.4162
 4968TIP3    H214869   0.306   2.995   1.886  0.2774  0.2283 -0.9630
 4969TIP3   OH214870   1.755   2.896   5.827  0.4214  0.0704 -0.3919
 4969TIP3    H114871   1.732   2.837   5.755 -0.4899  0.0956 -0.1325
 4969TIP3    H214872   1.839   2.935   5.800  0.5612 -0.6187 -1.0025
 4970TIP3   OH214873   0.635   3.187   0.356 -0.5074 -0.2146 -0.2513
 4970TIP3    H114874   0.641   3.092   0.357 -2.1686 -0.3554  1.1953
 4970TIP3    H214875   0.694   3.214   0.286  0.9022 -2.2197  0.0927
 4971TIP3   OH214876   6.746   0.768   3.657  0.3304  0.5376  0.1196
 4971TIP3    H114877   6.804   0.715   3.602 -1.0127  0.0801 -0.8928
 4971TIP3    H214878   6.800   0.791   3.733  1.4211 -0.9846 -0.1521
 4972TIP3   OH214879   1.861   2.176   1.500 -0.5698  0.0629  0.3172
 4972TIP3    H114880   1.927   2.240   1.525 -0.5572  0.0295  0.3703
 4972TIP3    H214881   1.911   2.106   1.457 -0.5552 -0.0263  0.4809
 4973TIP3   OH214882   0.511   0.963   0.686  0.6006 -0.1903 -0.2915
 4973TIP3    H114883   0.470   0.944   0.770  0.2385 -0.8285 -0.6038
 4973TIP3    H214884   0.440   0.998   0.632  1.0167  1.0362 -0.0751
 4974TIP3   OH214885   3.763   6.590   1.388  0.6750  0.1059  0.2686
 4974TIP3    H114886   3.819   6.622   1.317  1.9364 -0.9295  0.7539
 4974TIP3    H214887   3.690   6.547   1.343  1.2312 -0.1487 -0.4087
 4975TIP3   OH214888   2.567   1.438   3.585 -0.4487 -0.0034 -0.7691
 4975TIP3    H114889   2.545   1.409   3.673 -0.3926  0.3752 -0.6312
 4975TIP3    H214890   2.659   1.465   3.590 -0.4632  0.0805 -0.9261
 4976TIP3   OH214891   2.910   1.797   4.634  0.0721  0.4339  0.2505
 4976TIP3    H114892   2.884   1.850   4.559 -1.2542  1.6792  1.5307
 4976TIP3    H214893   2.870   1.712   4.618  2.6753 -0.5318 -2.1021
 4977TIP3   OH214894   5.459   6.012   5.562  0.0594 -0.0996  0.3747
 4977TIP3    H114895   5.553   6.019   5.546 -0.0488 -0.6222 -0.5672
 4977TIP3    H214896   5.421   6.087   5.517  0.0254  0.1857  0.8658
 4978TIP3   OH214897   5.421   0.460   3.976 -0.0175 -0.6842  0.3366
 4978TIP3    H114898   5.424   0.556   3.974 -0.1982 -0.6848  0.0481
 4978TIP3    H214899   5.331   0.439   3.952  0.4029 -0.9740 -1.0382
 4979TIP3   OH214900   3.935   2.831   2.263  0.0088  0.3819 -0.1334
 4979TIP3    H114901   3.977   2.849   2.179 -0.5991 -1.5395 -0.9054
 4979TIP3    H214902   4.003   2.791   2.317  0.4046  1.6335  0.3157
 4980TIP3   OH214903   0.938   2.311   4.135  0.0101  0.1182 -0.3113
 4980TIP3    H114904   1.014   2.341   4.085 -0.2302 -0.8987 -1.3166
 4980TIP3    H214905   0.867   2.308   4.072 -0.5633 -0.1537  0.3359
 4981TIP3   OH214906   4.404   2.244   2.865 -0.3031 -0.4986  0.5945
 4981TIP3    H114907   4.405   2.164   2.916 -3.4220 -1.9646 -1.3198
 4981TIP3    H214908   4.354   2.306   2.918  1.5574  0.0723  1.7863
 4982TIP3   OH214909   4.994   2.013   3.368 -0.1756 -0.4965 -0.5702
 4982TIP3    H114910   5.008   2.086   3.428 -2.0523  0.2946 -1.0128
 4982TIP3    H214911   5.082   1.981   3.347  0.6391  1.0881  0.3025
 4983TIP3   OH214912   4.711   6.276   3.193 -0.0996 -0.5359 -0.0532
 4983TIP3    H114913   4.660   6.218   3.249  0.6985 -1.6263 -0.4176
 4983TIP3    H214914   4.671   6.363   3.205 -1.7067 -1.2568  0.0269
 4984TIP3   OH214915   5.663   2.308   0.269  0.1265  0.1662  0.3941
 4984TIP3    H114916   5.621   2.327   0.353 -1.0297 -1.6258  0.2490
 4984TIP3    H214917   5.603   2.250   0.224  0.9979  0.6377 -1.4701
 4985TIP3   OH214918   1.166   2.607   1.649 -0.6848 -0.0920  0.0321
 4985TIP3    H114919   1.089   2.662   1.633 -1.3029 -0.8306  0.4026
 4985TIP3    H214920   1.195   2.632   1.737 -0.8610 -0.2469  0.1327
 4986TIP3   OH214921   5.380   4.333   0.441  0.5573 -0.5961 -0.2962
 4986TIP3    H114922   5.421   4.259   0.485 -0.0900 -0.2904  0.8690
 4986TIP3    H214923   5.453   4.390   0.416  0.9264 -0.4344  1.0482
 4987TIP3   OH214924   2.296   3.497   0.059 -0.2198  0.3905 -0.1370
 4987TIP3    H114925   2.360   3.526  -0.006 -0.1010 -2.6294 -1.5773
 4987TIP3    H214926   2.345   3.439   0.117 -1.0695  0.2087  0.4182
 4988TIP3   OH214927   4.814   0.342   4.188  0.0076  0.0187 -0.1731
 4988TIP3    H114928   4.723   0.339   4.160  0.1929  1.1214 -0.9490
 4988TIP3    H214929   4.816   0.291   4.269 -1.5366  0.9558  0.5045
 4989TIP3   OH214930   2.469   6.350   1.307 -0.3729 -0.0963  0.1323
 4989TIP3    H114931   2.480   6.282   1.241  1.9094  2.6018 -2.5706
 4989TIP3    H214932   2.398   6.405   1.273 -2.5921 -1.2254  2.5628
 4990TIP3   OH214933   1.512   0.826   5.731  0.1197 -0.4459  0.1099
 4990TIP3    H114934   1.435   0.826   5.787  0.0755  1.2062  0.0775
 4990TIP3    H214935   1.545   0.915   5.735  0.7646 -0.5733 -1.6189
 4991TIP3   OH214936   0.922   3.564   5.081  0.4769 -0.2991 -0.5051
 4991TIP3    H114937   0.957   3.519   5.004  0.0537  0.4432 -1.1459
 4991TIP3    H214938   0.942   3.657   5.065  1.7719 -0.2805  1.0127
 4992TIP3   OH214939   3.089   4.782   0.099  0.2642  0.1691 -0.5483
 4992TIP3    H114940   3.091   4.829   0.016  0.5134  0.6755 -0.2650
 4992TIP3    H214941   3.020   4.825   0.150 -0.9873 -1.1476 -1.0527
 4993TIP3   OH214942   6.498   6.051   0.681 -0.1605 -0.0257 -0.4818
 4993TIP3    H114943   6.440   6.066   0.755  0.7751 -0.5432  0.3719
 4993TIP3    H214944   6.528   5.961   0.691 -1.7253 -0.9072 -2.7299
 4994TIP3   OH214945   1.035   3.692   4.057 -0.2627  0.6030  0.0580
 4994TIP3    H114946   0.990   3.758   4.005  1.3546  1.5307 -0.2371
 4994TIP3    H214947   1.054   3.736   4.140 -1.9448 -0.5462  1.1111
 4995TIP3   OH214948   0.366   0.981   3.833 -0.1581  0.1473  0.2416
 4995TIP3    H114949   0.338   1.069   3.805 -2.1339 -0.7303 -0.7822
 4995TIP3    H214950   0.365   0.929   3.752 -0.2189 -1.1071  1.0235
 4996TIP3   OH214951   3.127   2.691   1.263  0.0718 -0.6520 -0.2995
 4996TIP3    H114952   3.107   2.662   1.352  0.7272  1.3760  0.5726
 4996TIP3    H214953   3.059   2.755   1.243  0.7953  0.0279 -0.6404
 4997TIP3   OH214954   4.475   1.563   5.421  0.5719 -0.1056 -0.3356
 4997TIP3    H114955   4.430   1.610   5.491  0.9301 -1.1785  0.6608
 4997TIP3    H214956   4.457   1.614   5.342  0.3203  1.2514  0.5621
 4998TIP3   OH214957   4.358   1.386   2.978  0.2638 -0.3970 -0.8449
 4998TIP3    H114958   4.300   1.376   2.903 -0.8876 -2.2702  0.1979
 4998TIP3    H214959   4.345   1.476   3.008 -0.0488  0.0406 -2.2431
 4999TIP3   OH214960   2.478   3.345   3.520 -0.0692 -0.2493 -0.3457
 4999TIP3    H114961   2.429   3.295   3.454 -0.0286  0.6863 -1.1139
 4999TIP3    H214962   2.427   3.426   3.531  0.1227 -0.2399  0.5077
 5000TIP3   OH214963   5.279   1.624   2.130 -0.2796  0.3942 -0.0439
 5000TIP3    H114964   5.306   1.563   2.199 -1.7398  1.1816  1.2955
 5000TIP3    H214965   5.353   1.684   2.123  0.9648 -1.1813 -1.0306
 5001TIP3   OH214966   3.089   2.540   5.677  0.3841  0.5055 -0.5488
 5001TIP3    H114967   3.064   2.561   5.767 -1.1085  1.1408 -1.0857
 5001TIP3    H214968   3.164   2.596   5.660  0.2908  0.8425  0.1003
 5002TIP3   OH214969   6.591   4.935   3.888 -0.1499  0.4702  0.2416
 5002TIP3    H114970   6.662   4.871   3.885 -0.3853  0.2173 -0.0080
 5002TIP3    H214971   6.534   4.903   3.958  0.1388  0.8456  0.6581
 5003TIP3   OH214972   2.524   6.046   5.616 -0.9480 -0.5201  0.0505
 5003TIP3    H114973   2.558   5.960   5.642  0.4774 -0.2227 -0.7327
 5003TIP3    H214974   2.458   6.066   5.682 -0.0967 -1.4629  1.2477
 5004TIP3   OH214975   5.890   1.830   5.283 -0.1307 -0.2767  0.1116
 5004TIP3    H114976   5.973   1.817   5.330 -0.9715  0.3172  1.8629
 5004TIP3    H214977   5.876   1.924   5.285 -0.0022 -0.1933 -1.7656
 5005TIP3   OH214978   2.030   3.965   1.626  0.0848  0.3499 -0.6691
 5005TIP3    H114979   1.966   4.036   1.623  0.3694  0.5990 -0.9584
 5005TIP3    H214980   2.108   4.002   1.585  0.0822 -0.2910 -1.2671
 5006TIP3   OH214981   0.845   0.014   5.633  0.2223  0.7923 -0.7389
 5006TIP3    H114982   0.915  -0.035   5.677 -0.0629 -0.5309 -1.6943
 5006TIP3    H214983   0.865   0.106   5.652  0.1199  0.3332  2.1218
 5007TIP3   OH214984   0.627   0.450   1.182  0.8543 -0.1585  0.0100
 5007TIP3    H114985   0.621   0.531   1.131  2.2808  0.4277  0.7106
 5007TIP3    H214986   0.649   0.479   1.271 -0.2785 -1.2367  0.6872
 5008TIP3   OH214987   4.865   4.047   4.788 -0.2944  0.1274 -0.1217
 5008TIP3    H114988   4.776   4.056   4.822 -0.9759  0.2578 -1.8607
 5008TIP3    H214989   4.922   4.065   4.863 -1.7240 -0.3527  1.1139
 5009TIP3   OH214990   6.953   0.754   1.764 -0.2490 -0.2783 -0.2890
 5009TIP3    H114991   7.044   0.779   1.780  0.5966 -2.5447 -1.2516
 5009TIP3    H214992   6.922   0.819   1.701  0.7188  0.4516 -0.0483
 5010TIP3   OH214993   4.050   0.904   1.992 -0.1716  0.0714 -0.2319
 5010TIP3    H114994   4.087   0.977   1.942  0.8613 -0.1170  0.2306
 5010TIP3    H214995   3.996   0.946   2.059  0.0796  0.3963 -0.2307
 5011TIP3   OH214996   4.802   3.810   2.378  0.1851  0.6607 -0.0555
 5011TIP3    H114997   4.777   3.903   2.379 -1.0413  0.3518 -0.2765
 5011TIP3    H214998   4.891   3.809   2.412  0.6556  2.0452 -1.1503
 5012TIP3   OH214999   6.940   4.879   1.693  0.0176  0.2131  0.0088
 5012TIP3    H115000   6.997   4.885   1.770  0.1176  0.0356 -0.0521
 5012TIP3    H215001   7.000   4.879   1.619 -0.0197 -0.6946 -0.0323
 5013TIP3   OH215002   3.165   6.619   3.886 -0.0389  0.3639  0.5963
 5013TIP3    H115003   3.114   6.560   3.831  1.3441 -0.7547  0.4502
 5013TIP3    H215004   3.155   6.585   3.975  1.6515 -0.8401  0.3775
 5014TIP3   OH215005   0.990   5.815   3.428 -0.5737 -0.0624  0.0209
 5014TIP3    H115006   0.933   5.891   3.415  0.1285  0.6493  0.8679
 5014TIP3    H215007   1.078   5.853   3.429  0.0537 -1.2883 -2.5992
 5015TIP3   OH215008   6.756   3.059   2.235  0.0632  0.1741 -0.4503
 5015TIP3    H115009   6.723   3.012   2.312  1.3158  0.3390  0.2234
 5015TIP3    H215010   6.849   3.035   2.230  0.8224  2.6835  0.0567
 5016TIP3   OH215011   1.691   6.670   3.923 -0.1894  0.3820 -0.4228
 5016TIP3    H115012   1.775   6.699   3.889 -0.4222 -0.5796 -1.8953
 5016TIP3    H215013   1.686   6.577   3.900 -1.9893  0.5996 -1.1196
 5017TIP3   OH215014   1.132   1.985   1.738  0.1339 -0.0769  0.8207
 5017TIP3    H115015   1.119   2.080   1.734  2.2278  0.2345 -0.5253
 5017TIP3    H215016   1.101   1.953   1.654 -1.2939 -0.7520  1.5647
 5018TIP3   OH215017   2.993   5.714   0.741  0.5786  0.1262 -0.0199
 5018TIP3    H115018   2.991   5.618   0.747 -3.1521  0.1070  1.3028
 5018TIP3    H215019   2.979   5.732   0.648  2.6218 -0.5259 -0.4942
 5019TIP3   OH215020   5.814   4.422   3.549  0.4189  0.5942 -0.1629
 5019TIP3    H115021   5.800   4.389   3.638  0.4149  2.1386  0.4444
 5019TIP3    H215022   5.893   4.475   3.555 -0.3940  1.9088 -0.7201
 5020TIP3   OH215023   0.864   0.098   0.350  0.6330  0.5202  0.5806
 5020TIP3    H115024   0.955   0.072   0.338  0.3898  0.9285 -3.4655
 5020TIP3    H215025   0.868   0.192   0.370  1.1101  0.3247  1.4257
 5021TIP3   OH215026   3.354   0.888   0.431  0.2458  0.0819 -0.4714
 5021TIP3    H115027   3.271   0.872   0.387 -0.0395  0.5739 -0.1255
 5021TIP3    H215028   3.415   0.826   0.391 -0.1524  0.0996 -1.1156
 5022TIP3   OH215029   6.956   5.690   0.173  0.4014  0.9734  0.1365
 5022TIP3    H115030   6.916   5.635   0.241  1.0819  2.5258  1.8913
 5022TIP3    H215031   7.032   5.639   0.143 -0.6036 -0.2647 -0.3745
 5023TIP3   OH215032   3.426   3.711   4.031  0.3074  0.2691 -0.2718
 5023TIP3    H115033   3.416   3.747   4.119 -1.7747  0.2806 -0.4699
 5023TIP3    H215034   3.514   3.674   4.031  0.0912 -0.4474  2.0800
 5024TIP3   OH215035   1.397   4.911   3.132 -0.3936  0.1475 -0.2517
 5024TIP3    H115036   1.395   4.911   3.227  0.5739 -0.3160 -0.2173
 5024TIP3    H215037   1.490   4.907   3.110 -0.6042  0.2999 -1.2153
 5025TIP3   OH215038   6.588   5.852   4.034  0.2482  0.3531  0.0213
 5025TIP3    H115039   6.633   5.932   4.006  2.0391 -1.0687 -1.4977
 5025TIP3    H215040   6.643   5.816   4.103  0.4350 -0.4269 -0.5146
 5026TIP3   OH215041   2.702   3.891   2.359 -0.2990  0.0521  0.0626
 5026TIP3    H115042   2.623   3.901   2.411 -0.6575 -0.0008 -0.4667
 5026TIP3    H215043   2.761   3.839   2.415 -0.2763  0.8880  0.8328
 5027TIP3   OH215044   4.070   0.716   3.835 -0.5217  0.3797  0.1591
 5027TIP3    H115045   4.156   0.702   3.796 -1.0482  0.8673 -1.2122
 5027TIP3    H215046   4.028   0.631   3.832 -0.2871  0.2563  0.3421
 5028TIP3   OH215047   0.092   1.231   4.050 -0.2738  0.2231 -0.3312
 5028TIP3    H115048   0.131   1.166   4.109  0.7348  1.3956  0.3346
 5028TIP3    H215049   0.005   1.246   4.085 -0.3662 -0.4771 -0.2523
 5029TIP3   OH215050   2.040   3.735   2.979  0.0229  0.5422  0.1430
 5029TIP3    H115051   2.052   3.671   2.909 -1.3570 -1.1458  1.3608
 5029TIP3    H215052   2.054   3.685   3.059 -0.4651  1.9337  1.1355
 5030TIP3   OH215053   5.734   6.391   0.782 -0.0734  0.3125  0.1749
 5030TIP3    H115054   5.751   6.485   0.790  0.9362  0.3122 -1.6405
 5030TIP3    H215055   5.797   6.351   0.842 -0.2578  0.7617  0.6824
 5031TIP3   OH215056   5.668   2.626   4.612  0.0000 -0.5630  0.5543
 5031TIP3    H115057   5.755   2.609   4.575  0.5598  1.0878  1.0187
 5031TIP3    H215058   5.624   2.542   4.609  1.6624 -1.4740  0.4148
 5032TIP3   OH215059   0.440   6.076   2.754  0.1565 -0.0405 -0.1386
 5032TIP3    H115060   0.395   6.123   2.824  0.1082  0.0537 -0.2308
 5032TIP3    H215061   0.369   6.045   2.697  0.2392  0.8118 -0.7257
 5033TIP3   OH215062   2.420   6.615   5.534  0.3340  0.1277 -0.2161
 5033TIP3    H115063   2.432   6.610   5.439  1.8378  1.9376 -0.1906
 5033TIP3    H215064   2.507   6.596   5.570  0.2699  1.4208  0.6808
 5034TIP3   OH215065   0.078   6.190   4.878 -0.2660 -0.3120  0.7612
 5034TIP3    H115066   0.016   6.259   4.856  0.7785  0.5000  0.2408
 5034TIP3    H215067   0.084   6.192   4.973  0.5660  1.0944  0.7135
 5035TIP3   OH215068   6.722   4.774   1.094  0.8298  0.2168  0.7425
 5035TIP3    H115069   6.764   4.859   1.105 -1.9185  1.7324  0.3742
 5035TIP3    H215070   6.654   4.772   1.161 -0.8206 -0.5403 -0.8654
 5036TIP3   OH215071   1.706   2.001   0.250 -0.5486  0.6671  0.3149
 5036TIP3    H115072   1.613   1.982   0.266 -0.4762  0.1060  0.0593
 5036TIP3    H215073   1.747   1.994   0.337 -1.1524  3.4148  0.9342
 5037TIP3   OH215074   1.582   4.520   3.162  0.2652  0.0908 -0.3573
 5037TIP3    H115075   1.611   4.555   3.246  0.2385 -2.5638  0.8690
 5037TIP3    H215076   1.624   4.576   3.096  0.0788  2.3871  1.3870
 5038TIP3   OH215077   2.123   0.241   3.214 -0.0790 -0.4764 -0.1390
 5038TIP3    H115078   2.151   0.291   3.290 -1.1012 -1.0815  0.6566
 5038TIP3    H215079   2.094   0.157   3.249  0.2436 -1.1042 -1.2901
 5039TIP3   OH215080   5.146   2.529   5.819  0.4450 -0.3624  0.2212
 5039TIP3    H115081   5.186   2.468   5.758  0.6890 -0.4089  0.4237
 5039TIP3    H215082   5.207   2.604   5.822  0.9398 -0.7809  1.1363
 5040TIP3   OH215083   7.171   1.724   4.871  0.3916  0.2130 -0.4628
 5040TIP3    H115084   7.213   1.756   4.791  0.6938  0.1324 -0.3408
 5040TIP3    H215085   7.148   1.633   4.852 -0.7449  0.5794 -0.9162
 5041TIP3   OH215086   4.900   0.428   1.315  0.0391  0.3347 -0.1460
 5041TIP3    H115087   4.990   0.394   1.310 -0.0002  0.1859  0.1538
 5041TIP3    H215088   4.854   0.366   1.371 -0.2649  0.3895 -0.3342
 5042TIP3   OH215089   0.620   5.236   2.225  0.0187  0.1608 -0.4065
 5042TIP3    H115090   0.692   5.265   2.169  0.4899  0.9191  0.5544
 5042TIP3    H215091   0.577   5.318   2.251  0.0778 -0.1371  0.6730
 5043TIP3   OH215092   5.305   4.295   0.807 -0.0771  0.4114 -0.4131
 5043TIP3    H115093   5.245   4.222   0.822 -0.8866  0.7944 -1.6297
 5043TIP3    H215094   5.370   4.260   0.745  1.0895 -0.0413  0.9915
 5044TIP3   OH215095   2.331   2.690   1.239 -0.0281 -0.5522  0.1589
 5044TIP3    H115096   2.332   2.745   1.161  1.9674 -0.0478  0.4741
 5044TIP3    H215097   2.355   2.603   1.207  0.8378 -0.3357  0.1823
 5045TIP3   OH215098   1.494   5.175   2.564  0.1333 -0.2379 -0.2398
 5045TIP3    H115099   1.416   5.126   2.589  0.4146 -0.5306  0.0729
 5045TIP3    H215100   1.466   5.228   2.489  0.2412 -2.1269 -1.6982
 5046TIP3   OH215101   0.299   6.139   4.750 -0.1096 -0.6202  0.0231
 5046TIP3    H115102   0.208   6.138   4.781  0.0920  0.2895  0.6996
 5046TIP3    H215103   0.293   6.111   4.658 -0.7844 -2.8470  0.6882
 5047TIP3   OH215104   0.962   5.259   4.783  0.3809  0.3246  0.1111
 5047TIP3    H115105   0.912   5.187   4.822  0.5111  1.2063  1.9901
 5047TIP3    H215106   1.012   5.295   4.856  0.8440  1.8874 -0.9470
 5048TIP3   OH215107   0.383   4.836   0.104  0.0777 -0.0857 -0.2279
 5048TIP3    H115108   0.319   4.779   0.062  1.8678 -3.3284  1.0671
 5048TIP3    H215109   0.336   4.874   0.178 -0.8869 -0.7746 -0.4611
 5049TIP3   OH215110   2.394   2.578   2.403 -0.1075  0.7442 -0.3816
 5049TIP3    H115111   2.413   2.668   2.431  0.7853  1.1740 -2.2151
 5049TIP3    H215112   2.351   2.588   2.318  1.1730 -0.5862 -1.2289
 5050TIP3   OH215113   6.038   2.969   0.501  0.0847 -0.0591  1.0414
 5050TIP3    H115114   6.101   3.020   0.449  0.2529  0.4054  1.6965
 5050TIP3    H215115   6.019   2.893   0.446  0.8641  0.0255  0.6299
 5051TIP3   OH215116   4.271   2.688   4.285 -0.5476 -0.5762 -1.2168
 5051TIP3    H115117   4.351   2.667   4.333 -1.5589  1.2339  1.5230
 5051TIP3    H215118   4.294   2.761   4.229 -0.9012  2.5095  2.2930
 5052TIP3   OH215119   2.864   2.321   1.782 -0.4693 -0.1308 -0.2594
 5052TIP3    H115120   2.950   2.294   1.815 -0.3774  0.1597 -0.2554
 5052TIP3    H215121   2.834   2.387   1.845 -0.5448  0.0169 -0.4499
 5053TIP3   OH215122   0.123   0.057   5.794 -0.5060  0.4534 -0.0745
 5053TIP3    H115123   0.191   0.112   5.755  0.5714 -0.2037  0.8040
 5053TIP3    H215124   0.166  -0.028   5.806 -1.2132  0.2698  1.2990
 5054TIP3   OH215125   1.750   2.007   3.021 -0.1268  0.8820 -0.0049
 5054TIP3    H115126   1.793   2.054   3.092 -0.5620 -0.0103  0.8709
 5054TIP3    H215127   1.819   1.991   2.957  0.7779 -0.2061  1.2032
 5055TIP3   OH215128   2.557   4.476   3.103  0.3364  0.0849  0.0715
 5055TIP3    H115129   2.639   4.438   3.071 -0.0762 -0.2011 -0.6765
 5055TIP3    H215130   2.582   4.523   3.183  1.4550  0.9913 -0.7664
 5056TIP3   OH215131   5.812   3.671   0.885 -0.4932  0.5045 -0.1224
 5056TIP3    H115132   5.803   3.609   0.812  2.1756 -0.0438 -0.0560
 5056TIP3    H215133   5.906   3.682   0.897 -0.8199  0.8888  2.9942
 5057TIP3   OH215134   0.211   5.611   1.533  0.0873  0.2001  0.3550
 5057TIP3    H115135   0.243   5.521   1.534  1.8199  0.7704  2.1546
 5057TIP3    H215136   0.117   5.603   1.515  0.2851 -1.9100  0.0383
 5058TIP3   OH215137   5.281   2.545   1.509  0.1240  0.2076 -0.0620
 5058TIP3    H115138   5.186   2.560   1.514 -0.0604 -0.9260  0.1277
 5058TIP3    H215139   5.297   2.526   1.416 -0.3135 -2.3341  0.3114
 5059TIP3   OH215140   0.898   1.676   4.275  0.1994  0.2744  0.0615
 5059TIP3    H115141   0.844   1.694   4.351 -1.1992  1.0970 -1.0903
 5059TIP3    H215142   0.877   1.586   4.251 -0.2128  0.3934 -0.0245
 5060TIP3   OH215143   6.631   1.275   1.924  0.4074 -0.3928  0.1474
 5060TIP3    H115144   6.600   1.285   1.834 -1.8874 -1.5284  0.7406
 5060TIP3    H215145   6.571   1.329   1.976  0.3911 -1.3813  1.1984
 5061TIP3   OH215146   0.365   6.282   0.828 -0.0945  0.1935  0.2156
 5061TIP3    H115147   0.348   6.204   0.774 -1.1778  1.8699 -2.0257
 5061TIP3    H215148   0.279   6.305   0.864  0.3459 -0.0029  1.4277
 5062TIP3   OH215149   0.246   3.164   3.632 -0.2376  0.5099  0.1191
 5062TIP3    H115150   0.177   3.098   3.629  0.8526 -0.6422 -0.1667
 5062TIP3    H215151   0.276   3.172   3.541  2.2042 -1.4214  0.6586
 5063TIP3   OH215152   2.080   5.960   0.022  0.3629 -0.0731  0.0723
 5063TIP3    H115153   2.135   5.973  -0.056  2.0604  0.5239  1.3073
 5063TIP3    H215154   2.038   6.045   0.037  0.6176  0.0274  0.2235
 5064TIP3   OH215155   5.187   1.330   4.160  0.2236 -0.3279 -0.3397
 5064TIP3    H115156   5.110   1.273   4.161  0.9887 -1.4274 -1.2886
 5064TIP3    H215157   5.261   1.270   4.171  0.9826  0.6291 -0.1524
 5065TIP3   OH215158   3.905   2.195   1.131  0.1053 -0.3543  0.5749
 5065TIP3    H115159   3.873   2.258   1.067  1.6452 -0.1590 -0.0466
 5065TIP3    H215160   3.884   2.234   1.216 -0.0653  0.4041  0.1947
 5066TIP3   OH215161   2.631   6.294   2.244 -0.4529  0.3391 -0.3048
 5066TIP3    H115162   2.559   6.233   2.225  0.9292 -1.6642  0.4557
 5066TIP3    H215163   2.701   6.266   2.186  1.0800 -0.5709  1.8440
 5067TIP3   OH215164   4.572   2.710   4.376 -0.1915 -0.7183 -0.5670
 5067TIP3    H115165   4.632   2.717   4.302  1.1882  2.4756  0.6700
 5067TIP3    H215166   4.629   2.710   4.453 -1.6879 -0.7460  0.5930
 5068TIP3   OH215167   5.088   5.807   3.633  0.0016 -0.3099 -0.5177
 5068TIP3    H115168   5.023   5.876   3.624  0.5348  0.2567 -0.0326
 5068TIP3    H215169   5.044   5.729   3.599 -0.4873  0.3244 -1.3936
 5069TIP3   OH215170   6.614   4.913   5.785 -0.9054  0.3085 -0.0946
 5069TIP3    H115171   6.693   4.947   5.827 -1.5418  1.6873  0.0648
 5069TIP3    H215172   6.578   4.851   5.848  0.6656 -1.2750 -0.6897
 5070TIP3   OH215173   7.153   1.152   1.349  0.2994 -0.1765  0.4771
 5070TIP3    H115174   7.201   1.235   1.342 -1.6812  1.0800  0.7611
 5070TIP3    H215175   7.096   1.152   1.272 -0.8358 -0.4734  1.2846
 5071TIP3   OH215176   6.234   2.957   1.245  0.6275  0.3734 -0.4620
 5071TIP3    H115177   6.296   2.997   1.184  0.6885  0.7266 -0.1710
 5071TIP3    H215178   6.263   2.987   1.332 -0.1000  0.7471 -0.3456
 5072TIP3   OH215179   5.623   3.540   2.659  0.3204 -0.0282 -0.2249
 5072TIP3    H115180   5.628   3.589   2.741 -0.3799  0.7502 -0.6227
 5072TIP3    H215181   5.703   3.488   2.656  1.7182  2.0157 -0.3419
 5073TIP3   OH215182   5.496   3.006   1.964  0.6300 -0.0380 -0.0914
 5073TIP3    H115183   5.413   3.006   2.011  0.6554  0.2576 -0.0452
 5073TIP3    H215184   5.495   3.088   1.914  0.7734 -0.1644 -0.2991
 5074TIP3   OH215185   5.310   4.569   5.795 -0.1459 -0.3478 -0.5073
 5074TIP3    H115186   5.258   4.494   5.769  0.6881 -1.3611  0.6137
 5074TIP3    H215187   5.342   4.547   5.883 -1.4976  2.1526  0.7510
 5075TIP3   OH215188   3.912   4.176   2.724 -0.0629 -0.6748  0.7667
 5075TIP3    H115189   3.845   4.219   2.671  1.7178 -0.0125 -1.0784
 5075TIP3    H215190   3.869   4.097   2.757 -2.3310  0.7105  1.3362
 5076TIP3   OH215191   2.243   2.213   4.361  0.2841  0.4390  0.1794
 5076TIP3    H115192   2.338   2.204   4.355  0.2812  0.7903 -0.4313
 5076TIP3    H215193   2.208   2.141   4.309  0.1619 -1.2661  2.4601
 5077TIP3   OH215194   2.672   2.752   4.307  0.5062  0.6795  0.6732
 5077TIP3    H115195   2.577   2.761   4.314  0.3145 -1.4217  1.7396
 5077TIP3    H215196   2.692   2.775   4.217 -0.7248  2.9981  0.9079
 5078TIP3   OH215197   1.132   6.126   3.685  0.5746  0.2294  0.2509
 5078TIP3    H115198   1.156   6.175   3.763 -2.1973  2.4150 -0.0733
 5078TIP3    H215199   1.050   6.082   3.708  1.0753 -1.2792 -0.6667
 5079TIP3   OH215200   6.505   5.628   2.776  0.5937  0.2743 -0.5081
 5079TIP3    H115201   6.590   5.627   2.820  0.7060  1.5785 -0.6469
 5079TIP3    H215202   6.441   5.621   2.847  0.7493 -3.7444 -0.5559
 5080TIP3   OH215203   2.348   0.934   2.392  0.2260 -0.3229  0.0737
 5080TIP3    H115204   2.414   0.928   2.324 -0.5705 -0.3766 -0.7095
 5080TIP3    H215205   2.397   0.956   2.472  1.1374 -0.0549 -0.5501
 5081TIP3   OH215206   2.636   2.660   5.767 -0.5858 -0.1844  0.7579
 5081TIP3    H115207   2.608   2.685   5.678 -1.0989 -1.1561  0.6333
 5081TIP3    H215208   2.716   2.711   5.782  2.3349 -3.3561 -2.1337
 5082TIP3   OH215209   1.315   1.088   0.886  0.3273 -0.1297  0.4302
 5082TIP3    H115210   1.407   1.074   0.905  0.4086  1.2663  1.1901
 5082TIP3    H215211   1.311   1.176   0.847 -0.9040  0.8176  2.5073
 5083TIP3   OH215212   3.121   1.430   5.917  0.0374 -0.2372  0.2040
 5083TIP3    H115213   3.044   1.486   5.917 -0.4441 -0.8840 -0.3635
 5083TIP3    H215214   3.163   1.445   5.832 -0.2514 -0.9394 -0.0680
 5084TIP3   OH215215   6.053   3.571   2.478 -0.1247  0.4379 -0.3368
 5084TIP3    H115216   6.009   3.530   2.403 -0.3465 -0.1805  0.1227
 5084TIP3    H215217   5.988   3.633   2.512  0.2373  1.2476 -1.0766
 5085TIP3   OH215218   2.135   0.905   3.323  0.2240  0.2613  0.6565
 5085TIP3    H115219   2.184   0.935   3.399 -0.5649 -0.2008  1.3692
 5085TIP3    H215220   2.151   0.811   3.319  1.0200  0.4315 -0.3232
 5086TIP3   OH215221   0.928   4.249   0.671  0.4918  0.4092 -0.3129
 5086TIP3    H115222   0.903   4.159   0.651  0.3705  0.5124 -0.6422
 5086TIP3    H215223   1.021   4.244   0.690  1.0210  0.5300 -2.5568
 5087TIP3   OH215224   3.693   5.565   3.521 -0.4192  0.1039  0.1210
 5087TIP3    H115225   3.762   5.499   3.531 -0.3388 -0.1510 -1.7914
 5087TIP3    H215226   3.617   5.515   3.490 -1.3831  0.4498  1.7885
 5088TIP3   OH215227   5.252   4.656   5.119 -0.7923 -0.0340 -0.1046
 5088TIP3    H115228   5.311   4.732   5.128  1.1769 -1.6537  1.9585
 5088TIP3    H215229   5.200   4.656   5.200 -1.2836 -0.4886 -0.4141
 5089TIP3   OH215230   4.744   5.080   1.307 -0.1874 -0.2720 -0.0201
 5089TIP3    H115231   4.796   5.154   1.274 -0.1350 -1.2018 -2.2311
 5089TIP3    H215232   4.670   5.120   1.351 -1.0908  1.1810 -2.6668
 5090TIP3   OH215233   1.229   4.052   2.317  0.4105 -0.4015  0.4003
 5090TIP3    H115234   1.145   4.040   2.273  0.9690  1.1407 -1.2205
 5090TIP3    H215235   1.211   4.034   2.409 -1.6141 -0.4702  0.0296
 5091TIP3   OH215236   3.064   0.022   1.262  0.1117  0.1096  0.4226
 5091TIP3    H115237   3.093   0.082   1.193  0.4107 -1.1887 -0.6157
 5091TIP3    H215238   2.987   0.065   1.300  0.6466  1.4143  0.1019
 5092TIP3   OH215239   6.264   6.797   1.225  0.0970  0.2354  0.5154
 5092TIP3    H115240   6.174   6.763   1.229  0.1101  0.2084  0.5881
 5092TIP3    H215241   6.279   6.814   1.132  1.1691 -2.8301  0.0095
 5093TIP3   OH215242   0.567   0.915   2.002 -0.0551 -0.4502 -0.4130
 5093TIP3    H115243   0.507   0.988   1.989 -0.6271 -0.4977  1.6259
 5093TIP3    H215244   0.652   0.956   2.016 -0.0278 -0.2714 -1.0859
 5094TIP3   OH215245   5.440   0.888   0.969 -0.3531  0.4921  0.4325
 5094TIP3    H115246   5.434   0.847   1.055 -1.2231 -2.3297 -0.8668
 5094TIP3    H215247   5.528   0.867   0.938 -0.0512  1.4733  0.5954
 5095TIP3   OH215248   3.146   0.861   0.256  0.2237 -0.0676 -0.3280
 5095TIP3    H115249   3.185   0.842   0.171 -2.2528  1.5002 -1.9446
 5095TIP3    H215250   3.070   0.803   0.261  0.6518 -0.5522  1.1251
 5096TIP3   OH215251   2.464   1.684   2.812 -0.2288  0.3331 -0.4816
 5096TIP3    H115252   2.522   1.733   2.870 -2.1330  1.5513  0.5132
 5096TIP3    H215253   2.482   1.592   2.832  0.5289  0.6999  0.6221
 5097TIP3   OH215254   6.138   0.259   5.624 -0.0574  1.3806 -0.2116
 5097TIP3    H115255   6.157   0.352   5.637  0.9993  1.3236 -1.1465
 5097TIP3    H215256   6.075   0.237   5.693 -1.7682  3.2156 -1.0722
 5098TIP3   OH215257   3.176   3.620   5.312  0.0782 -0.2498 -0.3929
 5098TIP3    H115258   3.101   3.651   5.363 -0.0078  0.3305 -0.8628
 5098TIP3    H215259   3.207   3.698   5.265 -0.1200 -0.8689 -1.5640
 5099TIP3   OH215260   6.723   3.790   5.731  0.3087 -0.0314 -0.4176
 5099TIP3    H115261   6.706   3.853   5.801  3.0453  0.5076 -0.1252
 5099TIP3    H215262   6.804   3.746   5.758  0.4584 -1.0818 -2.4173
 5100TIP3   OH215263   3.091   0.919   3.386  0.0262 -0.4173  0.3514
 5100TIP3    H115264   3.093   0.920   3.482 -0.0867 -1.1478  0.3624
 5100TIP3    H215265   3.017   0.862   3.364  0.0860 -0.2950 -0.1701
 5101TIP3   OH215266   3.857   2.975   5.173  0.2426  0.3627 -0.2525
 5101TIP3    H115267   3.946   2.941   5.178 -0.2077 -0.7572  0.8742
 5101TIP3    H215268   3.801   2.898   5.190 -0.8951  1.2050 -0.0740
 5102TIP3   OH215269   2.253   5.470   3.351 -0.2368 -0.1041 -0.2105
 5102TIP3    H115270   2.290   5.540   3.403 -0.1731  0.0707 -0.4918
 5102TIP3    H215271   2.190   5.513   3.293 -1.0950 -0.4228  0.4479
 5103TIP3   OH215272   7.036   5.116   2.620  0.3097 -0.0482 -0.1591
 5103TIP3    H115273   6.980   5.055   2.573  1.2858 -0.7215 -0.4826
 5103TIP3    H215274   6.986   5.197   2.623  0.0020 -0.1252 -1.9361
 5104TIP3   OH215275   0.171   2.965   5.730 -0.1813  0.1289 -0.0793
 5104TIP3    H115276   0.148   2.918   5.650 -1.5658 -0.0810  0.4177
 5104TIP3    H215277   0.168   2.898   5.799  0.4397  0.4209  0.2355
 5105TIP3   OH215278   3.623   5.534   2.756  0.1518 -0.1291 -0.5429
 5105TIP3    H115279   3.561   5.493   2.696 -0.2062 -1.3232  0.5793
 5105TIP3    H215280   3.574   5.605   2.796  0.2344  0.3529 -1.2785
 5106TIP3   OH215281   5.800   6.529   2.965  0.1450  0.6280  0.3495
 5106TIP3    H115282   5.751   6.477   2.901  1.7318 -1.9864  1.0899
 5106TIP3    H215283   5.754   6.613   2.968 -2.4387 -0.5972 -1.1581
 5107TIP3   OH215284   4.880   3.135   5.555 -0.0094  0.4588 -0.2890
 5107TIP3    H115285   4.866   3.041   5.548 -2.0916  0.7637 -0.8739
 5107TIP3    H215286   4.944   3.155   5.488 -0.2100 -0.4209 -0.7591
 5108TIP3   OH215287   6.125   5.441   0.050 -0.3739 -0.1477  0.6056
 5108TIP3    H115288   6.084   5.520   0.085  0.3722 -0.3361  1.9333
 5108TIP3    H215289   6.051   5.385   0.027 -0.8880  0.4885  0.6672
 5109TIP3   OH215290   6.058   3.431   0.225  0.3622  0.1096  0.5144
 5109TIP3    H115291   6.021   3.369   0.288 -0.1567  0.4935  0.5954
 5109TIP3    H215292   6.098   3.376   0.158  0.0246 -0.3137  0.6536
 5110TIP3   OH215293   5.776   4.027   3.964  0.1338  0.9785 -0.1972
 5110TIP3    H115294   5.810   4.078   3.892 -2.3672 -0.4493 -2.5860
 5110TIP3    H215295   5.681   4.023   3.948 -0.2112 -1.3744  1.8349
 5111TIP3   OH215296   4.092   3.027   3.397  0.0449 -1.1506 -0.0166
 5111TIP3    H115297   4.056   3.081   3.467  1.1120  0.5958 -0.7553
 5111TIP3    H215298   4.025   3.026   3.329  0.5570  0.4221 -0.5668
 5112TIP3   OH215299   6.478   5.578   2.097  0.1029  0.0955 -0.4127
 5112TIP3    H115300   6.551   5.521   2.074  0.8885  0.6315  0.6410
 5112TIP3    H215301   6.479   5.581   2.193 -1.5579 -0.1886 -0.3586
 5113TIP3   OH215302   6.734   1.820   2.034  0.6279 -0.2649 -0.1058
 5113TIP3    H115303   6.817   1.775   2.050  1.2370  1.1718  1.0004
 5113TIP3    H215304   6.751   1.878   1.961 -0.2942 -2.0697 -1.8493
 5114TIP3   OH215305   4.634   1.832   1.845  0.1923 -0.5297  0.0750
 5114TIP3    H115306   4.632   1.862   1.754  0.3694 -1.6238 -0.3067
 5114TIP3    H215307   4.726   1.837   1.869 -0.1299  2.1984  1.0779
 5115TIP3   OH215308   0.475   3.621   4.514  0.3210 -0.1907  0.1721
 5115TIP3    H115309   0.440   3.703   4.481 -0.4373 -0.6146 -0.0911
 5115TIP3    H215310   0.534   3.590   4.445 -0.8363 -0.7968 -0.5877
 5116TIP3   OH215311   6.852   1.821   5.826  0.3934  0.4002  0.1743
 5116TIP3    H115312   6.934   1.857   5.861  0.8345  1.8835 -2.2112
 5116TIP3    H215313   6.826   1.882   5.757 -1.0866 -1.6776 -1.2100
 5117TIP3   OH215314   6.433   3.085   1.085  0.1993  0.0118  0.0501
 5117TIP3    H115315   6.465   3.154   1.144 -1.0877 -0.0093  0.8033
 5117TIP3    H215316   6.469   3.108   1.000  2.9204 -0.4726  0.9601
 5118TIP3   OH215317   4.641   0.946   5.075 -0.1863 -0.3681 -0.4111
 5118TIP3    H115318   4.723   0.962   5.027  1.5129 -0.9748  2.0998
 5118TIP3    H215319   4.612   0.861   5.044 -0.2281  0.1252 -1.7828
 5119TIP3   OH215320   6.389   3.619   3.540  0.2740  0.0640  0.2495
 5119TIP3    H115321   6.327   3.555   3.506 -0.1765  0.7966 -0.3394
 5119TIP3    H215322   6.390   3.688   3.474  0.5456  0.7926  1.0048
 5120TIP3   OH215323   2.889   6.463   2.591  0.8712  0.5734  0.0323
 5120TIP3    H115324   2.830   6.537   2.609  0.4519  1.1404 -3.0558
 5120TIP3    H215325   2.837   6.404   2.537  1.6009 -1.4546  1.4344
 5121TIP3   OH215326   4.966   2.829   0.098  0.0296 -0.6048 -0.6959
 5121TIP3    H115327   4.881   2.789   0.078 -1.3196  1.7299 -0.0114
 5121TIP3    H215328   4.944   2.918   0.126  2.8163  0.4831 -1.6797
 5122TIP3   OH215329   5.856   2.209   1.231  0.5444 -0.2707  0.0783
 5122TIP3    H115330   5.936   2.182   1.278 -0.5786 -1.0996  1.5879
 5122TIP3    H215331   5.889   2.263   1.158  2.5947 -2.0605 -0.4302
 5123TIP3   OH215332   3.864   4.635   4.259  0.2589  0.5565  0.1615
 5123TIP3    H115333   3.838   4.672   4.174  1.0022  1.8254  0.4476
 5123TIP3    H215334   3.917   4.704   4.299  0.8319 -0.4483  1.1958
 5124TIP3   OH215335   4.455   2.338   5.799 -0.4822 -0.0260 -0.4896
 5124TIP3    H115336   4.465   2.321   5.892  1.5433 -2.0961 -0.9867
 5124TIP3    H215337   4.376   2.289   5.775 -0.6804  0.0278  0.0383
 5125TIP3   OH215338   2.316   6.435   4.253 -0.5634  0.3090 -0.3026
 5125TIP3    H115339   2.387   6.495   4.275 -1.1559  1.1037 -0.5112
 5125TIP3    H215340   2.239   6.491   4.242 -1.2400 -0.5330 -0.0338
 5126TIP3   OH215341   1.661   0.160   5.825 -0.4970  0.2499 -0.0608
 5126TIP3    H115342   1.640   0.162   5.919 -1.6801 -0.2829 -0.2871
 5126TIP3    H215343   1.724   0.230   5.813 -1.2623  1.1498  0.9292
 5127TIP3   OH215344   2.738   3.010   2.687 -0.1630  0.7402  0.4633
 5127TIP3    H115345   2.794   3.021   2.764 -1.1023 -1.0053  1.4453
 5127TIP3    H215346   2.652   3.039   2.715 -0.5577 -0.1000  0.1677
 5128TIP3   OH215347   5.288   2.556   2.931  0.2293  0.6516  0.3474
 5128TIP3    H115348   5.272   2.468   2.965 -0.1604  0.5040 -0.2029
 5128TIP3    H215349   5.204   2.582   2.894  1.1660 -0.0749 -2.5002
 5129TIP3   OH215350   3.166   0.308   5.659 -0.3612 -0.1583 -0.4229
 5129TIP3    H115351   3.216   0.368   5.714 -1.9521  0.1967  0.6857
 5129TIP3    H215352   3.232   0.249   5.621  0.9365  0.6524  0.5185
 5130TIP3   OH215353   4.104   6.761   2.355 -0.4584 -0.2375 -0.2044
 5130TIP3    H115354   4.022   6.766   2.305  0.0875  0.1044 -1.0859
 5130TIP3    H215355   4.150   6.686   2.318  0.8256  1.1589 -1.6286
 5131TIP3   OH215356   4.215   1.282   5.597  0.6867 -0.0409 -0.6347
 5131TIP3    H115357   4.231   1.315   5.509  3.3317 -0.4726 -0.3929
 5131TIP3    H215358   4.265   1.341   5.654 -0.4964 -0.1322  0.5469
 5132TIP3   OH215359   0.610   5.866   2.917 -0.0150  0.3622  0.2054
 5132TIP3    H115360   0.560   5.787   2.938  1.0892 -0.5637 -0.5244
 5132TIP3    H215361   0.585   5.888   2.827  1.5199 -0.6515 -0.5064
 5133TIP3   OH215362   1.432   1.106   0.095  0.1989 -0.5452  0.4461
 5133TIP3    H115363   1.449   1.128   0.187  1.2917 -0.2059  0.1838
 5133TIP3    H215364   1.457   1.184   0.046 -1.7927 -0.1701 -0.0590
 5134TIP3   OH215365   2.756   0.944   3.805  0.0343 -0.3635 -0.2293
 5134TIP3    H115366   2.755   0.849   3.802 -2.7402 -0.5132  1.3348
 5134TIP3    H215367   2.786   0.965   3.894  0.0033  0.1841 -0.3444
 5135TIP3   OH215368   4.567   5.482   2.473  0.0730 -0.0476  0.0319
 5135TIP3    H115369   4.548   5.410   2.532 -0.8903  0.8018  0.7899
 5135TIP3    H215370   4.641   5.528   2.513 -1.0761  0.9966  1.0684
 5136TIP3   OH215371   3.715   6.531   5.075  0.0423  0.0540 -0.0143
 5136TIP3    H115372   3.808   6.547   5.058  0.4112 -1.2571  0.6342
 5136TIP3    H215373   3.705   6.550   5.168 -0.3804  0.3640 -0.1233
 5137TIP3   OH215374   1.144   4.267   0.376  0.0189 -0.0265  0.2822
 5137TIP3    H115375   1.213   4.273   0.311  0.5890 -1.0004  0.7758
 5137TIP3    H215376   1.188   4.240   0.456 -0.1647  3.9661  1.9524
 5138TIP3   OH215377   7.008   1.286   1.900  0.0239 -0.2815 -0.0023
 5138TIP3    H115378   7.060   1.206   1.897  1.6402  0.7369 -0.8609
 5138TIP3    H215379   7.007   1.316   1.809 -1.7745 -0.0592  0.0675
 5139TIP3   OH215380   6.857   5.561   4.343  0.0964 -0.2365 -0.3518
 5139TIP3    H115381   6.892   5.559   4.432  0.9816  0.8727 -0.6463
 5139TIP3    H215382   6.809   5.644   4.338  0.4166 -0.0772 -1.0160
 5140TIP3   OH215383   5.159   2.294   1.137  0.0955 -0.2685 -0.2447
 5140TIP3    H115384   5.070   2.295   1.101 -0.2929  0.8013  0.6564
 5140TIP3    H215385   5.147   2.304   1.232  1.1889  2.5752 -0.2908
 5141TIP3   OH215386   3.714   0.993   4.361  0.1056 -0.0455  0.4376
 5141TIP3    H115387   3.670   0.914   4.329 -0.1476 -0.0084  0.6897
 5141TIP3    H215388   3.645   1.043   4.404  0.4630 -0.1415  1.1275
 5142TIP3   OH215389   1.638   4.201   3.710  1.0608 -0.0467  0.0975
 5142TIP3    H115390   1.626   4.283   3.757  0.3372 -0.5445  0.8125
 5142TIP3    H215391   1.562   4.148   3.735  2.0992 -1.3645  0.5828
 5143TIP3   OH215392   4.442   2.301   5.499  0.0464 -0.3915  0.1435
 5143TIP3    H115393   4.460   2.305   5.593  2.8580  0.2332 -0.3295
 5143TIP3    H215394   4.462   2.389   5.467 -1.6403 -0.3724 -0.9635
 5144TIP3   OH215395   1.790   5.548   0.745 -0.5424  0.4250 -0.2997
 5144TIP3    H115396   1.792   5.522   0.838 -3.2422 -0.1103 -0.3049
 5144TIP3    H215397   1.782   5.465   0.698 -3.6629  0.7959 -0.6544
 5145TIP3   OH215398   5.840   5.879   3.574  0.2238 -0.5243  0.5576
 5145TIP3    H115399   5.754   5.912   3.548  0.2686 -1.4596 -0.9269
 5145TIP3    H215400   5.879   5.949   3.625 -1.5492 -0.2100  1.5447
 5146TIP3   OH215401   6.729   1.276   5.509 -0.2044  0.1501  0.3490
 5146TIP3    H115402   6.655   1.224   5.479  0.7544 -1.1744  0.1735
 5146TIP3    H215403   6.743   1.248   5.600 -0.6582  1.2855  0.7919
 5147TIP3   OH215404   6.641   5.211   2.404  0.1389 -0.3719  0.1507
 5147TIP3    H115405   6.669   5.156   2.477  4.0605  0.1576 -0.7032
 5147TIP3    H215406   6.598   5.286   2.446  0.5150 -1.0189  1.7748
 5148TIP3   OH215407   2.383   0.723   4.043  0.4319 -0.2076 -0.0228
 5148TIP3    H115408   2.324   0.660   4.000 -0.4958  2.9527 -4.0234
 5148TIP3    H215409   2.471   0.693   4.020  0.0358 -0.6027 -1.0961
 5149TIP3   OH215410   5.018   2.856   3.937 -0.2516 -0.2522 -0.8824
 5149TIP3    H115411   4.997   2.932   3.882  0.7424 -1.1875 -2.6645
 5149TIP3    H215412   5.096   2.883   3.986 -0.2628  0.0838 -1.0434
 5150TIP3   OH215413   2.408   6.221   4.436  0.2981  0.5281 -0.4052
 5150TIP3    H115414   2.426   6.293   4.496  0.5139  2.0090 -2.1568
 5150TIP3    H215415   2.414   6.260   4.349 -1.0971 -1.2765 -1.3837
 5151TIP3   OH215416   6.773   0.154   2.069 -0.1314  0.2691 -0.1138
 5151TIP3    H115417   6.749   0.071   2.109  0.8990  0.4192  0.8514
 5151TIP3    H215418   6.689   0.196   2.048 -0.6632 -1.0190 -0.6798
 5152TIP3   OH215419   3.955   1.090   4.240  0.0982 -0.6287 -0.6696
 5152TIP3    H115420   3.867   1.074   4.274 -0.3348 -0.8893 -1.8692
 5152TIP3    H215421   4.010   1.097   4.318 -0.8468 -1.2527  0.0707
 5153TIP3   OH215422   1.799   5.671   5.468  0.2216  0.0206  0.3480
 5153TIP3    H115423   1.716   5.716   5.451  0.8754  0.9676 -0.3660
 5153TIP3    H215424   1.805   5.669   5.564  0.2550  1.5899  0.3925
 5154TIP3   OH215425   0.856   2.267   5.339 -0.6323 -0.0854  0.7000
 5154TIP3    H115426   0.949   2.281   5.357 -1.1729  2.4092  2.0008
 5154TIP3    H215427   0.815   2.269   5.426 -2.0139 -0.1939  0.0704
 5155TIP3   OH215428   3.477   1.366   3.852  0.3212  0.7123 -0.0717
 5155TIP3    H115429   3.516   1.357   3.939 -0.4373 -1.7000  0.0700
 5155TIP3    H215430   3.543   1.414   3.801  1.7022  0.2790  1.2415
 5156TIP3   OH215431   5.553   5.076   0.957  0.1015 -0.6757  0.2401
 5156TIP3    H115432   5.509   5.057   0.874 -0.7277  1.8691  0.0060
 5156TIP3    H215433   5.526   5.166   0.978  1.4721 -0.7281  2.5266
 5157TIP3   OH215434   0.186   3.291   5.540 -0.2601  0.0114  0.4561
 5157TIP3    H115435   0.188   3.225   5.471 -0.0839  0.3042  0.1776
 5157TIP3    H215436   0.195   3.242   5.621  0.5552 -0.2542  0.2159
 5158TIP3   OH215437   0.353   5.173   4.382  0.2466  0.4548 -0.2148
 5158TIP3    H115438   0.350   5.141   4.472  0.1095 -1.2718 -0.8035
 5158TIP3    H215439   0.299   5.252   4.383  1.5946  1.4227  1.5589
 5159TIP3   OH215440   7.020   0.166   4.936  0.1482  0.2800  0.4299
 5159TIP3    H115441   7.002   0.139   4.846 -0.9497 -3.1591  1.5076
 5159TIP3    H215442   7.096   0.113   4.961 -0.4631  0.0598  1.9286
 5160TIP3   OH215443   1.749   3.173   3.103  0.7239  0.3564  0.0570
 5160TIP3    H115444   1.816   3.139   3.044  0.9361  1.0541 -0.1094
 5160TIP3    H215445   1.701   3.095   3.132  1.5639 -0.1438  0.1333
 5161TIP3   OH215446   5.437   3.680   5.516 -0.0740  0.0762  0.5676
 5161TIP3    H115447   5.377   3.689   5.590 -0.7756 -0.0095  0.0308
 5161TIP3    H215448   5.379   3.665   5.441  0.7039 -2.7513  0.4233
 5162TIP3   OH215449   4.853   3.603   4.118  0.1949 -0.1373 -0.7206
 5162TIP3    H115450   4.793   3.585   4.190 -1.1135  0.9908 -1.4660
 5162TIP3    H215451   4.917   3.665   4.154 -0.5709  0.5761 -0.5728
 5163TIP3   OH215452   0.424   2.496   2.773 -0.0639 -0.3364 -0.6312
 5163TIP3    H115453   0.501   2.458   2.733  0.8505 -0.6421  1.2779
 5163TIP3    H215454   0.459   2.555   2.841 -1.4832 -0.6986  0.4723
 5164TIP3   OH215455   3.566   1.437   2.100  0.3781 -0.3321 -0.3348
 5164TIP3    H115456   3.554   1.531   2.115 -0.5278 -0.6030  0.8748
 5164TIP3    H215457   3.653   1.429   2.063  1.6769  0.7835  2.2318
 5165TIP3   OH215458   0.255   0.038   4.186  0.4080 -0.4785  0.5923
 5165TIP3    H115459   0.267   0.111   4.125  4.6657 -2.5293 -1.4639
 5165TIP3    H215460   0.220  -0.033   4.132  0.3787 -1.2049  1.5356
 5166TIP3   OH215461   4.253   5.249   1.628  0.1394 -0.2176 -0.2715
 5166TIP3    H115462   4.285   5.160   1.644 -0.3550 -0.4077 -0.3497
 5166TIP3    H215463   4.328   5.305   1.650 -0.4156 -0.4654  2.6227
 5167TIP3   OH215464   3.212   1.609   1.443 -0.2477 -0.2766 -0.2086
 5167TIP3    H115465   3.152   1.653   1.503 -0.7214  1.3782 -1.8223
 5167TIP3    H215466   3.237   1.676   1.380  2.4103 -1.2133 -0.2940
 5168TIP3   OH215467   6.622   1.324   2.967 -0.1754  0.3901 -0.0540
 5168TIP3    H115468   6.527   1.317   2.971 -0.2129  0.2339 -0.9750
 5168TIP3    H215469   6.638   1.409   2.926  0.1043  0.8208  0.9221
 5169TIP3   OH215470   6.044   5.898   0.081  0.1955  0.1789 -0.0707
 5169TIP3    H115471   6.043   5.982   0.036 -1.2556 -0.5037 -1.4013
 5169TIP3    H215472   6.111   5.847   0.034 -0.3163 -0.0578 -0.5496
 5170TIP3   OH215473   5.289   6.377   2.114 -0.2772  0.2541  0.1172
 5170TIP3    H115474   5.338   6.459   2.118  0.4403 -0.0571 -1.5743
 5170TIP3    H215475   5.350   6.315   2.075 -1.6134 -0.4563 -0.9115
 5171TIP3   OH215476   5.392   2.765   4.811 -0.8456  0.4131 -0.1352
 5171TIP3    H115477   5.472   2.791   4.857 -1.0667 -0.3019  0.6885
 5171TIP3    H215478   5.326   2.828   4.838 -1.5811 -1.3007  2.4693
 5172TIP3   OH215479   0.018   5.417   5.764 -0.2628 -0.0076  0.4710
 5172TIP3    H115480  -0.011   5.376   5.845  0.4152 -1.0238  0.2239
 5172TIP3    H215481  -0.006   5.355   5.695  1.3643 -0.3324  0.1503
 5173TIP3   OH215482   7.172   2.031   4.319 -0.3505 -0.3106  0.2467
 5173TIP3    H115483   7.176   1.938   4.297 -1.9362 -0.4845  0.5628
 5173TIP3    H215484   7.090   2.061   4.279  0.9881  1.3909 -1.3570
 5174TIP3   OH215485   6.142   6.237   1.860  0.1663 -0.5797  0.5049
 5174TIP3    H115486   6.152   6.261   1.952  0.2050  0.0495  0.3447
 5174TIP3    H215487   6.064   6.285   1.831 -0.8089 -2.0514  0.6254
 5175TIP3   OH215488   3.265   4.215   2.201  0.5058 -0.0048  0.3561
 5175TIP3    H115489   3.292   4.301   2.168  0.4433 -0.2304 -0.2956
 5175TIP3    H215490   3.172   4.209   2.180  0.5312 -0.2662  0.3053
 5176TIP3   OH215491   6.716   1.766   0.517 -0.5686 -0.1006 -0.6932
 5176TIP3    H115492   6.797   1.772   0.466 -0.8004  2.1528 -0.8927
 5176TIP3    H215493   6.730   1.824   0.592 -1.1989 -1.4057  0.4942
 5177TIP3   OH215494   2.589   5.202   1.331 -0.1746  0.0922  0.3529
 5177TIP3    H115495   2.507   5.246   1.351 -2.2317 -1.8166 -2.8882
 5177TIP3    H215496   2.570   5.151   1.252  4.3258 -0.0230 -0.9278
 5178TIP3   OH215497   3.654   5.097   3.908  0.2123  0.6487  0.2339
 5178TIP3    H115498   3.597   5.020   3.906  1.1343 -0.0680  0.7532
 5178TIP3    H215499   3.676   5.113   3.816  0.1958  0.1549  0.1417
 5179TIP3   OH215500   2.837   3.389   1.490  0.3223 -0.0780  0.3966
 5179TIP3    H115501   2.848   3.420   1.400 -2.0093 -0.4526 -0.0700
 5179TIP3    H215502   2.897   3.444   1.542  0.4724  1.2831 -1.1427
 5180TIP3   OH215503   1.623   5.984   0.146 -0.1448 -0.2145 -0.4212
 5180TIP3    H115504   1.565   5.909   0.160 -0.6958  0.3744  0.6593
 5180TIP3    H215505   1.668   5.995   0.230  2.5060 -1.4121 -1.6080
 5181TIP3   OH215506   2.413   5.709   1.597  0.2735 -0.3452 -0.5776
 5181TIP3    H115507   2.370   5.706   1.683 -1.4110 -0.7705 -1.3837
 5181TIP3    H215508   2.428   5.617   1.575  2.0277 -0.1872 -0.1360
 5182TIP3   OH215509   3.920   6.180   0.541  0.3769  0.5090 -0.4506
 5182TIP3    H115510   3.953   6.270   0.541 -3.7614  2.2520  0.2470
 5182TIP3    H215511   3.905   6.161   0.448  1.5036  0.3853 -0.6224
 5183TIP3   OH215512   6.687   3.487   5.670  0.0305  0.5490 -0.1470
 5183TIP3    H115513   6.701   3.581   5.679 -0.4429  0.7345 -1.1804
 5183TIP3    H215514   6.660   3.476   5.579  0.0345 -0.5828 -0.0189
 5184TIP3   OH215515   0.337   4.325   1.423 -0.5653  0.1542  0.0472
 5184TIP3    H115516   0.268   4.260   1.436 -0.2625 -0.0490  0.6589
 5184TIP3    H215517   0.399   4.284   1.364  0.2026 -0.5573  1.3273
 5185TIP3   OH215518   6.855   5.757   4.012 -0.7542  0.0585  0.4158
 5185TIP3    H115519   6.826   5.783   3.925  2.0337  0.3818 -0.5281
 5185TIP3    H215520   6.836   5.663   4.017 -0.6168 -0.0324 -0.6758
 5186TIP3   OH215521   1.949   0.250   3.860 -0.6088 -0.0565 -0.1760
 5186TIP3    H115522   1.872   0.234   3.806 -2.5111 -0.5885  2.4813
 5186TIP3    H215523   2.007   0.177   3.841 -1.9663 -1.1605 -0.2923
 5187TIP3   OH215524   4.560   4.054   1.006 -1.0538  0.3574  0.3653
 5187TIP3    H115525   4.496   4.119   1.033  0.3831  1.9809  0.0534
 5187TIP3    H215526   4.588   4.082   0.919 -0.2613 -0.5701  0.3040
 5188TIP3   OH215527   0.705   1.286   1.437 -0.4054 -0.3449  0.1088
 5188TIP3    H115528   0.794   1.253   1.441  0.1578  0.9054 -1.0873
 5188TIP3    H215529   0.690   1.328   1.522  0.3478 -0.1114  0.1323
 5189TIP3   OH215530   0.111   1.591   3.510 -0.2798  0.1777 -0.1468
 5189TIP3    H115531   0.161   1.665   3.546  2.2429 -0.5508 -1.8619
 5189TIP3    H215532   0.161   1.563   3.433 -1.6412 -2.7409 -0.1159
 5190TIP3   OH215533   3.532   0.690   3.289  0.2648 -0.3815 -0.2891
 5190TIP3    H115534   3.545   0.783   3.269  0.3237 -0.3145  0.0606
 5190TIP3    H215535   3.589   0.673   3.363 -0.1572 -0.5636  0.0004
 5191TIP3   OH215536   1.782   1.814   4.756  0.0274  0.4357  0.2670
 5191TIP3    H115537   1.718   1.881   4.779 -0.6733  0.5194 -1.7169
 5191TIP3    H215538   1.844   1.859   4.698 -0.3607 -0.5409 -0.9581
 5192TIP3   OH215539   1.027   4.013   3.186 -0.7769  0.7573 -0.1018
 5192TIP3    H115540   0.997   4.103   3.173 -2.4095  0.2960  0.1955
 5192TIP3    H215541   1.086   4.018   3.261 -1.5941  1.4580  0.5124
 5193TIP3   OH215542   5.198   6.388   2.767 -0.4016 -0.3712 -0.0748
 5193TIP3    H115543   5.178   6.296   2.750 -1.0241 -0.2206 -0.1713
 5193TIP3    H215544   5.122   6.436   2.735 -0.9287  0.0369  1.6672
 5194TIP3   OH215545   3.776   5.078   5.734  0.0391 -0.1785  0.5474
 5194TIP3    H115546   3.709   5.077   5.665  0.2299  0.4233  0.3397
 5194TIP3    H215547   3.794   4.986   5.752  2.4764 -0.4721 -2.6511
 5195TIP3   OH215548   2.129   1.299   2.963  0.4041 -0.4968  0.1451
 5195TIP3    H115549   2.143   1.247   3.042  0.5739 -0.7515 -0.0535
 5195TIP3    H215550   2.059   1.254   2.916 -1.3893  0.9470  1.2909
 5196TIP3   OH215551   1.999   2.816   0.205  0.0264  0.3834  0.3370
 5196TIP3    H115552   1.983   2.766   0.284 -1.6505  0.4691  0.0881
 5196TIP3    H215553   2.091   2.841   0.210 -0.2951  1.3284  2.8091
 5197TIP3   OH215554   3.165   4.255   5.697  0.1890 -0.2209 -0.4115
 5197TIP3    H115555   3.096   4.270   5.632 -1.3370 -2.6511  0.5280
 5197TIP3    H215556   3.130   4.290   5.779 -0.1655 -1.8354  0.1588
 5198TIP3   OH215557   3.352   5.707   3.979 -0.0567 -0.1697 -0.1706
 5198TIP3    H115558   3.261   5.727   3.957 -0.2532 -0.2354  0.5606
 5198TIP3    H215559   3.404   5.760   3.918 -0.5789  0.6585  0.0935
 5199TIP3   OH215560   6.860   3.000   5.254 -0.2256 -0.8857  0.2195
 5199TIP3    H115561   6.884   3.035   5.340  2.1421 -1.0930 -0.2936
 5199TIP3    H215562   6.881   3.071   5.193 -1.0066 -1.0828 -0.2964
 5200TIP3   OH215563   0.974   2.614   4.383  0.0054 -0.0247 -0.3534
 5200TIP3    H115564   0.893   2.619   4.333  0.6726  1.3760 -1.3487
 5200TIP3    H215565   0.981   2.699   4.427  0.8878 -0.1584 -0.2063
 5201TIP3   OH215566   6.026   1.106   4.585 -0.6947 -0.1067  0.1135
 5201TIP3    H115567   6.082   1.173   4.626 -2.6227  1.5224  0.2581
 5201TIP3    H215568   5.950   1.101   4.643 -0.2903 -3.1002  0.5415
 5202TIP3   OH215569   4.767   6.632   5.505  0.0150  0.1853 -0.4209
 5202TIP3    H115570   4.850   6.600   5.540  0.2014  1.0476 -0.0541
 5202TIP3    H215571   4.724   6.674   5.579 -0.9865 -0.6731 -0.4782
 5203TIP3   OH215572   6.169   4.141   4.081  0.5624 -0.3647  0.0209
 5203TIP3    H115573   6.085   4.158   4.124 -0.0839 -1.4599 -0.7567
 5203TIP3    H215574   6.213   4.226   4.080  0.2861 -0.1216  2.1125
 5204TIP3   OH215575   0.278   6.680   1.912 -0.2386 -0.0693  0.0248
 5204TIP3    H115576   0.236   6.645   1.833 -0.3558  1.6358 -0.7140
 5204TIP3    H215577   0.208   6.682   1.977 -0.4969 -0.1773 -0.2446
 5205TIP3   OH215578   6.969   0.021   0.074  0.2102  0.2617  0.3471
 5205TIP3    H115579   6.991   0.052   0.162  1.4746  0.3128  0.0353
 5205TIP3    H215580   7.045  -0.032   0.048 -0.5773 -0.5486 -0.3345
 5206TIP3   OH215581   0.747   3.872   5.880 -0.0121  0.0597 -0.2261
 5206TIP3    H115582   0.677   3.809   5.900  0.7905 -1.4531 -1.9289
 5206TIP3    H215583   0.727   3.903   5.792  1.0920  0.1167 -0.4662
 5207TIP3   OH215584   0.135   2.325   1.949  0.2120  0.2748 -0.3720
 5207TIP3    H115585   0.150   2.256   2.013  0.6488  0.6915 -0.0106
 5207TIP3    H215586   0.175   2.403   1.988 -2.1781  1.2743  0.2592
 5208TIP3   OH215587   0.435   6.562   2.093 -0.2784 -0.1200 -0.2471
 5208TIP3    H115588   0.396   6.614   2.023 -0.8972  1.3770  1.1177
 5208TIP3    H215589   0.467   6.628   2.155  2.0478 -1.3528 -0.0505
 5209TIP3   OH215590   1.617   5.819   3.453  0.2484  0.3551  0.3449
 5209TIP3    H115591   1.685   5.881   3.479 -0.4134  0.6315  1.4927
 5209TIP3    H215592   1.637   5.740   3.503  0.1685  0.1789  0.0989
 5210TIP3   OH215593   0.621   5.020   4.022  0.1450 -0.0734  0.6176
 5210TIP3    H115594   0.538   5.050   4.058 -0.3350 -0.8427  0.2001
 5210TIP3    H215595   0.609   4.925   4.011  0.3763  0.0618 -1.1990
 5211TIP3   OH215596   2.408   5.904   0.824 -0.0177 -0.0750  0.1601
 5211TIP3    H115597   2.457   5.830   0.859  0.8073 -0.1018 -0.9977
 5211TIP3    H215598   2.394   5.884   0.732 -0.6358  0.7672  0.0502
 5212TIP3   OH215599   3.300   4.068   2.499  0.3818 -0.6462  0.4717
 5212TIP3    H115600   3.310   4.126   2.423 -0.4838 -2.9484 -1.5384
 5212TIP3    H215601   3.210   4.083   2.528 -0.0233 -1.3497 -0.3928
 5213TIP3   OH215602   5.279   5.767   5.312  0.0692  0.1038  0.0271
 5213TIP3    H115603   5.360   5.766   5.261  0.3213 -0.5467  0.4238
 5213TIP3    H215604   5.230   5.690   5.281 -0.6131  0.7470 -0.5388
 5214TIP3   OH215605   4.704   6.184   2.934 -0.0435  0.3249 -0.3667
 5214TIP3    H115606   4.611   6.201   2.922  0.0546  1.5943  0.4340
 5214TIP3    H215607   4.725   6.226   3.018  0.8828 -1.4548  0.3403
 5215TIP3   OH215608   5.788   6.040   4.305 -0.6028  0.0887 -0.1985
 5215TIP3    H115609   5.769   6.048   4.212 -0.5434  0.8576 -0.1504
 5215TIP3    H215610   5.703   6.037   4.347 -0.6388 -0.7631 -0.3044
 5216TIP3   OH215611   4.501   3.763   4.519  0.4750 -0.2704  0.6780
 5216TIP3    H115612   4.452   3.689   4.482 -1.1718 -0.3144  2.7868
 5216TIP3    H215613   4.468   3.839   4.471 -0.3837 -0.5144  0.8595
 5217TIP3   OH215614   1.166   5.625   4.491 -0.0901 -0.6254 -0.4096
 5217TIP3    H115615   1.228   5.637   4.563 -0.2574 -0.6914 -0.2536
 5217TIP3    H215616   1.217   5.645   4.412  0.7283 -2.6524 -0.4583
 5218TIP3   OH215617   0.453   2.424   0.535 -0.3574 -0.1728 -0.2765
 5218TIP3    H115618   0.466   2.435   0.441 -0.9424  0.3113 -0.3009
 5218TIP3    H215619   0.360   2.439   0.549 -0.5598 -1.6721  0.1868
 5219TIP3   OH215620   4.302   3.675   1.838 -0.0717 -0.2247 -0.6593
 5219TIP3    H115621   4.392   3.705   1.827  0.5433 -1.0637  1.6119
 5219TIP3    H215622   4.276   3.706   1.925 -1.6182 -0.8676 -0.8588
 5220TIP3   OH215623   2.552   3.095   0.179  0.1643  0.3295 -0.0162
 5220TIP3    H115624   2.510   3.088   0.094 -0.7989  1.8911  0.3049
 5220TIP3    H215625   2.510   3.170   0.222  1.1412  0.0480  1.5409
 5221TIP3   OH215626   0.251   2.943   4.819 -0.2650 -0.1032 -0.2705
 5221TIP3    H115627   0.246   3.007   4.748  0.9646  1.5874  1.0957
 5221TIP3    H215628   0.265   2.860   4.774 -2.0957  0.4708 -2.1204
 5222TIP3   OH215629   2.598   4.993   3.835 -0.5137  0.0590  0.1393
 5222TIP3    H115630   2.681   4.975   3.792 -0.2834  0.1309  0.5498
 5222TIP3    H215631   2.609   5.079   3.876 -1.0816  0.4539 -0.5109
 5223TIP3   OH215632   2.151   4.107   0.509 -0.0180  0.0237 -0.0178
 5223TIP3    H115633   2.146   4.183   0.450  0.0975 -0.1626 -0.2689
 5223TIP3    H215634   2.116   4.139   0.592  0.3743  0.4560 -0.0194
 5224TIP3   OH215635   4.920   3.975   1.243  0.0582 -0.0670  0.5842
 5224TIP3    H115636   4.834   4.017   1.244  0.0850  0.0287 -0.3189
 5224TIP3    H215637   4.912   3.904   1.179  0.8724  0.4555 -0.1322
 5225TIP3   OH215638   5.663   3.737   2.862  0.0032  0.1196  0.3474
 5225TIP3    H115639   5.689   3.739   2.954 -0.5215  0.9057  0.4952
 5225TIP3    H215640   5.726   3.795   2.818 -1.5191  2.1765  0.7367
 5226TIP3   OH215641   5.239   0.036   2.782 -0.2955  0.1776 -0.1768
 5226TIP3    H115642   5.212   0.086   2.859  0.3539  0.8995 -0.4098
 5226TIP3    H215643   5.324   0.074   2.757 -0.7175  0.2789 -1.5304
 5227TIP3   OH215644   2.047   3.471   4.946 -0.3029 -0.3434  0.2150
 5227TIP3    H115645   2.080   3.436   4.863 -0.9980 -0.5856  0.0351
 5227TIP3    H215646   1.990   3.402   4.980 -1.8534  0.6781 -0.2338
 5228TIP3   OH215647   4.296   6.122   4.241 -0.5835  0.9486  0.3133
 5228TIP3    H115648   4.297   6.118   4.337  1.6026 -0.2247  0.3236
 5228TIP3    H215649   4.259   6.038   4.214 -0.8228  1.1146  0.1212
 5229TIP3   OH215650   6.613   6.563   2.936 -0.3199 -0.1494 -0.0144
 5229TIP3    H115651   6.534   6.603   2.899 -1.7489 -1.9767  0.9095
 5229TIP3    H215652   6.607   6.582   3.030 -0.3590 -1.3642  0.2453
 5230TIP3   OH215653   4.414   6.038   0.638 -0.0744 -0.2803 -0.9103
 5230TIP3    H115654   4.475   5.972   0.605  0.3094  0.4256 -1.6474
 5230TIP3    H215655   4.364   6.064   0.561 -0.0177  0.5006 -0.6882
 5231TIP3   OH215656   6.987   1.511   0.298 -0.2161 -0.2438  0.2436
 5231TIP3    H115657   6.894   1.504   0.276 -0.0624 -1.5880 -0.1043
 5231TIP3    H215658   7.012   1.423   0.326  0.6657  0.3922  1.5795
 5232TIP3   OH215659   4.829   0.850   2.127  0.5033  0.1232  0.3575
 5232TIP3    H115660   4.736   0.830   2.123  0.2520  0.9678  1.4542
 5232TIP3    H215661   4.835   0.941   2.097  0.7722  0.5621  1.7024
 5233TIP3   OH215662   7.063   5.424   3.745 -0.1474 -0.5234  0.3884
 5233TIP3    H115663   7.093   5.334   3.753 -0.9815 -1.0678 -1.9109
 5233TIP3    H215664   7.138   5.471   3.710  0.1354 -0.3858  1.1437
 5234TIP3   OH215665   7.098   4.189   1.447 -0.2848 -0.2427  0.3888
 5234TIP3    H115666   7.059   4.276   1.446  0.7397  0.2213  0.0452
 5234TIP3    H215667   7.128   4.175   1.357 -1.0621 -1.2430  0.2650
 5235TIP3   OH215668   3.876   1.812   2.159 -0.4490 -0.6071 -0.1081
 5235TIP3    H115669   3.797   1.775   2.198 -0.0460 -1.2083  0.1445
 5235TIP3    H215670   3.897   1.753   2.087 -0.1577 -0.5175 -0.0951
 5236TIP3   OH215671   5.582   2.165   5.189  0.5150  0.0770 -0.0059
 5236TIP3    H115672   5.619   2.155   5.101 -1.2054  1.9404 -1.0243
 5236TIP3    H215673   5.489   2.145   5.179  0.6377 -1.8474  1.9177
 5237TIP3   OH215674   0.685   2.027   4.911  0.1219  0.3368  0.1379
 5237TIP3    H115675   0.772   2.063   4.928  0.4501  0.1079 -0.9262
 5237TIP3    H215676   0.624   2.094   4.942  0.7069  1.9604 -1.9302
 5238TIP3   OH215677   2.820   4.939   0.816  0.2524 -0.1673  0.0210
 5238TIP3    H115678   2.893   4.989   0.850 -0.1942 -0.1943  1.0612
 5238TIP3    H215679   2.827   4.854   0.859 -1.1359  0.2676  1.1689
 5239TIP3   OH215680   5.848   1.113   2.192 -0.0113 -0.0373  0.1705
 5239TIP3    H115681   5.848   1.119   2.287  0.0554  0.6290  0.1363
 5239TIP3    H215682   5.853   1.019   2.173  1.3068 -0.1125  0.8210
 5240TIP3   OH215683   5.865   2.635   1.775 -0.1783  0.2335 -0.4475
 5240TIP3    H115684   5.950   2.652   1.734 -0.8430  2.5004 -1.0562
 5240TIP3    H215685   5.824   2.570   1.719  0.4419  0.4771 -1.2029
 5241TIP3   OH215686   5.620   0.029   2.624 -0.1420 -0.1860 -0.0655
 5241TIP3    H115687   5.556  -0.011   2.565  0.0094 -0.4601 -0.0461
 5241TIP3    H215688   5.686   0.067   2.566  1.3118 -2.5715 -0.0785
 5242TIP3   OH215689   3.531   5.414   0.305  0.2666  0.3225 -0.6461
 5242TIP3    H115690   3.489   5.493   0.270 -1.1853  0.6231  1.5088
 5242TIP3    H215691   3.471   5.343   0.283 -1.0259  0.6084  1.5659
 5243TIP3   OH215692   1.435   5.413   1.483 -0.1720  0.4092 -0.1394
 5243TIP3    H115693   1.453   5.319   1.483 -0.9376  0.2551  0.5555
 5243TIP3    H215694   1.360   5.422   1.423  1.8407  1.0066 -2.7741
 5244TIP3   OH215695   0.485   6.510   5.070 -0.1329 -0.2911 -0.0676
 5244TIP3    H115696   0.394   6.517   5.096 -0.3815  0.7728 -1.1477
 5244TIP3    H215697   0.488   6.433   5.014 -0.2757 -0.5454  0.2669
 5245TIP3   OH215698   6.566   1.025   3.131  0.0211 -0.2906  0.1370
 5245TIP3    H115699   6.550   0.991   3.219 -0.1732 -0.4645  0.0337
 5245TIP3    H215700   6.652   1.068   3.137  0.5031 -1.2353  0.1371
 5246TIP3   OH215701   0.383   3.062   5.085  0.3584 -0.4916  0.1439
 5246TIP3    H115702   0.428   3.146   5.086 -0.1988 -0.1866 -0.3342
 5246TIP3    H215703   0.371   3.041   4.992  1.4768 -1.6399  0.2215
 5247TIP3   OH215704  -0.005   2.041   0.557 -1.0338 -0.4412 -0.7694
 5247TIP3    H115705  -0.039   2.129   0.543 -0.1782  0.1769  0.8376
 5247TIP3    H215706   0.069   2.033   0.496  0.3779  0.8611  0.6921
 5248TIP3   OH215707   6.689   3.247   3.349  0.7753  0.3679  0.2915
 5248TIP3    H115708   6.618   3.285   3.399  0.2375 -1.6045  1.1139
 5248TIP3    H215709   6.740   3.197   3.413 -0.3131 -2.7735 -1.0711
 5249TIP3   OH215710   4.331   1.428   0.753  0.5900  0.2064 -0.3329
 5249TIP3    H115711   4.419   1.391   0.758  0.3414 -0.1835  1.7749
 5249TIP3    H215712   4.274   1.352   0.737  0.5014  0.2647 -0.2946
 5250TIP3   OH215713   5.436   4.397   1.070 -0.0334  0.1000  0.5194
 5250TIP3    H115714   5.401   4.415   0.983  1.1838  0.5761  0.0986
 5250TIP3    H215715   5.375   4.335   1.108 -0.5856 -0.1279 -0.6858
 5251TIP3   OH215716   7.075   1.241   0.288  0.0320 -0.2409 -0.5560
 5251TIP3    H115717   7.031   1.215   0.369  0.2063 -1.0630 -0.7247
 5251TIP3    H215718   7.166   1.215   0.300 -0.1308 -1.2731 -1.4011
 5252TIP3   OH215719   6.916   1.972   2.550 -0.0995 -0.0470  0.0767
 5252TIP3    H115720   6.916   1.894   2.604 -1.9190  0.2174  0.5227
 5252TIP3    H215721   6.826   1.980   2.519  0.2537  1.3803 -0.6826
 5253TIP3   OH215722   1.151   4.839   1.301  0.4308 -0.7702 -0.5871
 5253TIP3    H115723   1.099   4.855   1.223  0.2198  0.2118 -0.2552
 5253TIP3    H215724   1.088   4.845   1.373  0.7974 -0.6973 -0.2719
 5254TIP3   OH215725   1.023   3.798   1.553 -0.6145 -0.1287  0.4780
 5254TIP3    H115726   1.082   3.843   1.493 -1.2116  0.9840  0.7069
 5254TIP3    H215727   0.984   3.728   1.501 -0.5436  0.3436 -0.2193
 5255TIP3   OH215728   4.500   1.060   3.841  0.1991  0.2050  0.1245
 5255TIP3    H115729   4.574   1.009   3.873  1.2090 -0.0425 -2.4405
 5255TIP3    H215730   4.518   1.149   3.870  1.4016  0.1079 -0.2793
 5256TIP3   OH215731   1.388   2.189   0.535  0.0157  0.2725  0.3468
 5256TIP3    H115732   1.401   2.266   0.592 -1.5144  0.1127  0.9675
 5256TIP3    H215733   1.472   2.143   0.537  0.8509  1.7343  0.2449
 5257TIP3   OH215734   5.567   2.401   3.943  0.2045 -0.2452  0.2972
 5257TIP3    H115735   5.480   2.433   3.920  0.0158 -1.2535 -0.4498
 5257TIP3    H215736   5.618   2.410   3.863  0.2616 -1.3897  0.1911
 5258TIP3   OH215737   5.304   4.896   2.045 -0.2390 -0.0664  0.2045
 5258TIP3    H115738   5.224   4.945   2.025 -1.3028 -1.6441  0.4125
 5258TIP3    H215739   5.281   4.805   2.029  1.9209 -0.4793 -0.9379
 5259TIP3   OH215740   6.250   4.370   4.735 -0.0334  0.5019 -0.3883
 5259TIP3    H115741   6.279   4.345   4.647  0.8673  0.7925 -0.1855
 5259TIP3    H215742   6.198   4.449   4.721 -1.3598 -0.4183 -0.8310
 5260TIP3   OH215743   0.829   2.331   1.347 -0.4815 -0.7181  0.1424
 5260TIP3    H115744   0.895   2.275   1.389 -1.0070 -0.1813  1.7495
 5260TIP3    H215745   0.793   2.383   1.418 -3.2126 -1.5336 -0.5479
 5261TIP3   OH215746   5.331   1.803   1.893  0.0854 -0.2912  0.1964
 5261TIP3    H115747   5.239   1.803   1.918  0.4008 -0.0570  1.3992
 5261TIP3    H215748   5.356   1.895   1.891  0.3651 -0.3653  0.1602
 5262TIP3   OH215749   6.505   6.313   1.201  0.0997 -0.2441  0.0114
 5262TIP3    H115750   6.444   6.371   1.247 -0.3205 -0.5275 -0.1875
 5262TIP3    H215751   6.583   6.367   1.187 -0.3963  0.3708 -0.4306
 5263TIP3   OH215752   4.604   0.271   5.110 -0.2541  0.0306 -0.2582
 5263TIP3    H115753   4.570   0.319   5.034 -0.4089  2.4554  1.2287
 5263TIP3    H215754   4.568   0.317   5.186 -0.3487 -2.4957  1.3248
 5264TIP3   OH215755   4.120   1.317   0.096 -0.4194  0.4637 -0.7097
 5264TIP3    H115756   4.046   1.264   0.127 -1.4430  1.6872 -0.9702
 5264TIP3    H215757   4.164   1.345   0.176 -0.0747 -0.4488 -0.5580
 5265TIP3   OH215758   2.710   4.488   0.479  0.6225  0.4023  0.8695
 5265TIP3    H115759   2.733   4.532   0.396  0.5555 -0.0114  0.6312
 5265TIP3    H215760   2.788   4.498   0.533  1.1260 -0.3931  0.3127
 5266TIP3   OH215761   3.672   2.641   4.948 -0.0221  0.2708 -0.0200
 5266TIP3    H115762   3.651   2.721   4.900  0.3619  0.8964  0.8362
 5266TIP3    H215763   3.733   2.595   4.890  1.8905  1.8852  0.5793
 5267TIP3   OH215764   4.643   2.735   5.739  0.0349  0.1568  0.0242
 5267TIP3    H115765   4.702   2.661   5.754  0.7401  1.0037  1.5897
 5267TIP3    H215766   4.557   2.694   5.726  0.4783 -0.9608  0.4737
 5268TIP3   OH215767   2.727   4.355   4.678  0.5028  0.3764  0.0138
 5268TIP3    H115768   2.812   4.312   4.668  0.6980  1.0297 -1.4031
 5268TIP3    H215769   2.747   4.449   4.673 -0.3645  0.5243 -1.2420
 5269TIP3   OH215770   1.759   3.441   0.130  0.7397  0.2564 -0.0933
 5269TIP3    H115771   1.738   3.347   0.123 -0.7098  0.6171 -1.0329
 5269TIP3    H215772   1.776   3.454   0.223  0.2355 -0.8165  0.1718
 5270TIP3   OH215773   5.334   6.450   1.192  0.4532 -0.2757 -0.5896
 5270TIP3    H115774   5.257   6.507   1.198  0.7355  0.1591 -1.0489
 5270TIP3    H215775   5.298   6.361   1.196  0.0584 -0.0832  0.6803
 5271TIP3   OH215776   3.669   2.029   5.195  0.4310 -0.1416 -0.5062
 5271TIP3    H115777   3.657   2.091   5.267 -0.2719 -0.6355 -0.1880
 5271TIP3    H215778   3.581   2.012   5.163  0.7179 -0.1311 -1.3123
 5272TIP3   OH215779   2.317   3.898   4.645 -0.2243 -0.6864 -0.1304
 5272TIP3    H115780   2.291   3.989   4.629 -0.5606 -0.8551 -0.5573
 5272TIP3    H215781   2.366   3.873   4.567  1.6479 -0.2301  0.8420
 5273TIP3   OH215782   4.044   5.519   3.083 -0.1434  0.2806 -0.2501
 5273TIP3    H115783   3.978   5.509   3.015 -1.2378  1.4649  0.5852
 5273TIP3    H215784   4.078   5.608   3.072 -0.3651  0.5056  0.7464
 5274TIP3   OH215785   6.529   3.025   1.480  0.2792 -0.0488  0.0684
 5274TIP3    H115786   6.462   3.083   1.517  0.6091  0.4157 -0.0470
 5274TIP3    H215787   6.545   2.960   1.548  0.9778  0.8719  0.8195
 5275TIP3   OH215788   1.675   5.294   3.775  0.1137 -0.0093  0.7807
 5275TIP3    H115789   1.722   5.358   3.829  0.5957  0.8202 -0.5832
 5275TIP3    H215790   1.596   5.339   3.747  0.1337 -0.2374  0.3442
 5276TIP3   OH215791   3.099   5.703   4.308 -0.1719 -0.4133 -0.1466
 5276TIP3    H115792   3.043   5.746   4.243 -0.4862 -0.6547 -0.0432
 5276TIP3    H215793   3.037   5.659   4.367  0.1531 -2.5057 -1.2724
 5277TIP3   OH215794   3.102   4.244   4.360  0.0258  0.1626 -0.4233
 5277TIP3    H115795   3.080   4.203   4.276  0.6862  0.0157 -0.5318
 5277TIP3    H215796   3.047   4.198   4.424  0.5645 -0.7340 -0.5788
 5278TIP3   OH215797   0.333   2.298   2.933 -0.6582  0.3272  0.2195
 5278TIP3    H115798   0.373   2.356   2.868  1.2251 -1.1372 -0.0177
 5278TIP3    H215799   0.358   2.336   3.017  2.3029 -1.0892  0.1059
 5279TIP3   OH215800   2.606   0.272   1.073 -0.1342 -0.5841  0.3415
 5279TIP3    H115801   2.558   0.337   1.125  0.7071 -0.4412  0.9704
 5279TIP3    H215802   2.581   0.188   1.111  0.2043 -0.5021  0.7566
 5280TIP3   OH215803   6.548   3.324   4.476  0.1355 -0.2207  0.2742
 5280TIP3    H115804   6.578   3.414   4.491 -0.7769  0.2937 -0.9057
 5280TIP3    H215805   6.531   3.290   4.564 -1.8691  1.5925  0.6650
 5281TIP3   OH215806   0.080   4.013   3.114  0.1008  0.5075  0.3426
 5281TIP3    H115807  -0.002   3.972   3.144  1.3651 -0.7154  2.4333
 5281TIP3    H215808   0.077   4.008   3.019 -1.5481 -0.9811  0.4322
 5282TIP3   OH215809   2.099   5.527   1.524 -0.3790 -0.2896 -0.1390
 5282TIP3    H115810   2.073   5.560   1.437 -1.8979 -0.6256  0.1594
 5282TIP3    H215811   2.190   5.500   1.513 -0.3309  0.3185 -1.4444
 5283TIP3   OH215812   5.193   1.318   3.883  0.6766 -0.1539 -0.1488
 5283TIP3    H115813   5.218   1.228   3.860  1.8556  0.1402 -0.0879
 5283TIP3    H215814   5.168   1.314   3.975  1.6282 -0.2604  0.1152
 5284TIP3   OH215815   4.062   2.943   0.423  0.0884  0.1060  0.2470
 5284TIP3    H115816   4.049   3.024   0.374 -1.0899 -0.2892 -0.1458
 5284TIP3    H215817   4.115   2.969   0.498 -0.9240  1.4274  0.5662
 5285TIP3   OH215818   0.044   4.799   5.442 -0.2872  0.6555  0.1301
 5285TIP3    H115819  -0.008   4.725   5.410  1.0975 -0.2936 -0.0293
 5285TIP3    H215820   0.131   4.785   5.404  0.5161  1.3273  1.6422
 5286TIP3   OH215821   5.323   2.902   5.454  0.1261  0.0346 -0.2137
 5286TIP3    H115822   5.352   2.981   5.499 -1.8996  1.8094 -1.8222
 5286TIP3    H215823   5.236   2.884   5.491  0.1710 -0.8956 -0.5281
 5287TIP3   OH215824   0.481   3.858   1.860  0.2460  0.5792  0.4355
 5287TIP3    H115825   0.512   3.787   1.915  0.6645  1.6723  1.6618
 5287TIP3    H215826   0.466   3.931   1.921  2.0010  2.2678 -1.0234
 5288TIP3   OH215827   2.515   0.962   3.045 -0.8344 -0.0986  0.1579
 5288TIP3    H115828   2.565   0.946   2.964  0.4303 -0.6721  1.0191
 5288TIP3    H215829   2.427   0.929   3.025 -0.5455 -0.2270 -0.9862
 5289TIP3   OH215830   2.755   5.000   3.523 -0.4330 -0.3457 -0.2836
 5289TIP3    H115831   2.697   5.074   3.509  0.3535  0.4707  0.6591
 5289TIP3    H215832   2.831   5.036   3.569 -0.9534 -2.0793  2.1276
 5290TIP3   OH215833   2.690   5.522   4.620  0.3042  0.0428  0.0400
 5290TIP3    H115834   2.714   5.438   4.581 -2.5931 -1.2617  0.7742
 5290TIP3    H215835   2.734   5.588   4.565  2.4240 -1.8899 -0.7255
 5291TIP3   OH215836   7.061   1.166   1.063 -0.1256 -0.4895 -0.3740
 5291TIP3    H115837   7.039   1.259   1.053  0.3032 -0.4707 -1.2600
 5291TIP3    H215838   7.154   1.161   1.039  0.2523 -0.9206  1.0804
 5292TIP3   OH215839   2.118   3.594   3.208  0.6102 -0.2526 -0.1951
 5292TIP3    H115840   2.190   3.596   3.271 -1.1331  0.0491  1.9133
 5292TIP3    H215841   2.126   3.509   3.165  2.6343  0.0786 -0.6127
 5293TIP3   OH215842   1.921   4.313   1.169  0.2622 -0.1157 -0.1264
 5293TIP3    H115843   1.958   4.338   1.085  0.1671 -0.3595 -0.2440
 5293TIP3    H215844   1.978   4.354   1.234 -1.3831  2.6538 -0.2698
 5294TIP3   OH215845   0.126   5.097   2.525  0.5498 -0.2517  0.0536
 5294TIP3    H115846   0.037   5.106   2.559  0.7989  0.6799  0.4846
 5294TIP3    H215847   0.115   5.060   2.437 -0.4715  2.4360 -1.0410
 5295TIP3   OH215848   5.750   2.298   5.432 -0.4378 -0.1682  0.3949
 5295TIP3    H115849   5.797   2.338   5.506 -0.4533 -0.4203  0.5437
 5295TIP3    H215850   5.678   2.357   5.415 -0.2988  0.0127  0.4316
 5296TIP3   OH215851   3.714   2.791   4.103 -0.1480 -0.2409  0.2776
 5296TIP3    H115852   3.694   2.877   4.065  0.6451 -0.5615 -0.9043
 5296TIP3    H215853   3.664   2.789   4.184  1.0517  2.0111  1.1748
 5297TIP3   OH215854   2.067   5.250   4.996 -0.0986  0.6390 -0.6390
 5297TIP3    H115855   2.088   5.157   4.997  0.3530  0.7059 -1.9179
 5297TIP3    H215856   2.132   5.289   4.937 -0.0257  1.8338  0.1911
 5298TIP3   OH215857   5.056   6.493   4.279  0.2136 -0.1765 -0.0353
 5298TIP3    H115858   5.094   6.502   4.366  1.7446 -0.6104 -0.6371
 5298TIP3    H215859   4.962   6.480   4.296  0.0437  2.3520  1.4092
 5299TIP3   OH215860   5.558   4.845   1.146  0.2576  0.6792 -0.2191
 5299TIP3    H115861   5.568   4.928   1.100 -0.8486  0.5255 -0.7836
 5299TIP3    H215862   5.475   4.809   1.113  0.4448 -0.3915  0.4121
 5300TIP3   OH215863   1.283   3.838   1.958  0.0327 -0.5738 -0.1577
 5300TIP3    H115864   1.258   3.783   1.883 -0.2464 -1.3771  0.5050
 5300TIP3    H215865   1.315   3.919   1.919 -0.6648 -0.7500 -1.1326
 5301TIP3   OH215866   0.652   5.049   5.798  0.1737 -0.8898 -0.6476
 5301TIP3    H115867   0.661   5.132   5.844 -1.1124 -0.2606 -1.4863
 5301TIP3    H215868   0.702   4.987   5.851 -0.3587  0.0268  1.0024
 5302TIP3   OH215869   1.522   2.934   1.300 -0.2366  0.2630  0.2168
 5302TIP3    H115870   1.443   2.905   1.254  0.6189 -1.6091 -0.1536
 5302TIP3    H215871   1.492   2.951   1.390 -1.0394 -0.5407  0.1182
 5303TIP3   OH215872   5.798   1.175   4.760 -0.1448  0.3700 -0.1613
 5303TIP3    H115873   5.827   1.266   4.769  1.0508 -0.0442  0.3915
 5303TIP3    H215874   5.814   1.136   4.846 -0.2815 -0.4604 -0.5060
 5304TIP3   OH215875   6.356   4.951   5.331  0.0785  0.4131 -0.0992
 5304TIP3    H115876   6.437   4.969   5.378 -0.0239  0.2300  0.1462
 5304TIP3    H215877   6.374   4.871   5.281 -0.3639 -0.3496  0.9444
 5305TIP3   OH215878   0.443   5.695   3.402 -0.3940  0.3392  0.3134
 5305TIP3    H115879   0.527   5.683   3.446  0.5206 -0.3487 -1.5116
 5305TIP3    H215880   0.405   5.608   3.398  0.4001  0.0241 -1.7928
 5306TIP3   OH215881   3.862   0.327   5.378 -0.0588  0.5219  0.0933
 5306TIP3    H115882   3.884   0.408   5.423 -1.0488  0.0991  1.3937
 5306TIP3    H215883   3.940   0.272   5.389 -0.0337  0.6756  0.7322
 5307TIP3   OH215884   6.134   3.045   4.803 -0.1142 -0.4535  0.1416
 5307TIP3    H115885   6.103   3.100   4.732 -0.6839 -0.4491  0.3908
 5307TIP3    H215886   6.192   3.102   4.854 -2.5451  0.7157  1.7860
 5308TIP3   OH215887   4.488   5.979   0.041  0.1294 -0.3920  0.3803
 5308TIP3    H115888   4.509   5.955  -0.049  0.5671 -1.3820  0.7364
 5308TIP3    H215889   4.485   6.075   0.040 -0.3367 -0.4014 -0.7831
 5309TIP3   OH215890   3.738   6.423   1.927  0.4796  0.2043  0.6176
 5309TIP3    H115891   3.776   6.503   1.890 -1.7765  2.2792  2.4051
 5309TIP3    H215892   3.690   6.383   1.854 -0.5428  1.9793  0.2606
 5310TIP3   OH215893   1.255   3.438   3.049  0.3834 -0.5572 -0.5524
 5310TIP3    H115894   1.251   3.417   2.956 -0.1080 -0.8847 -0.4591
 5310TIP3    H215895   1.165   3.429   3.080  0.4719 -0.0367 -0.1323
 5311TIP3   OH215896   5.837   5.528   5.564  0.1105  0.3008  0.4252
 5311TIP3    H115897   5.839   5.525   5.660  0.0550  0.8100  0.4482
 5311TIP3    H215898   5.875   5.445   5.536 -0.7989 -0.2811  0.8939
 5312TIP3   OH215899   1.895   3.340   2.119 -0.1883  0.4421  0.3738
 5312TIP3    H115900   1.819   3.386   2.084  0.2002  0.9164  0.1625
 5312TIP3    H215901   1.969   3.374   2.071  0.1861  0.1041  0.7028
 5313TIP3   OH215902   0.046   3.855   4.533  0.6834 -0.2358  0.2958
 5313TIP3    H115903   0.060   3.799   4.609  3.8334  0.5562  0.4378
 5313TIP3    H215904   0.134   3.888   4.511 -0.6569  2.7344 -1.2171
 5314TIP3   OH215905   6.712   6.201   5.044  0.1378 -0.2586 -0.6200
 5314TIP3    H115906   6.764   6.125   5.017  1.6582  0.1414  1.0099
 5314TIP3    H215907   6.775   6.272   5.054 -1.0327  0.8178 -0.5922
 5315TIP3   OH215908   0.820   3.090   5.005 -0.4071  0.3259  0.3512
 5315TIP3    H115909   0.760   3.113   4.934  1.2009  3.8562 -0.1282
 5315TIP3    H215910   0.788   3.139   5.081  0.4727  0.3243  0.7437
 5316TIP3   OH215911   1.848   1.867   0.789 -0.3711  0.2116  1.3474
 5316TIP3    H115912   1.820   1.955   0.814  0.9081  0.6336  1.3849
 5316TIP3    H215913   1.787   1.841   0.720 -0.2980  1.4654  0.7833
 5317TIP3   OH215914   7.073   1.633   0.039  0.3891 -0.1363  0.4859
 5317TIP3    H115915   7.069   1.593   0.126  1.9813 -2.7667 -0.5136
 5317TIP3    H215916   6.985   1.624   0.004 -0.5331  1.8551  2.1178
 5318TIP3   OH215917   5.302   2.083   1.805  0.2257 -0.3256 -0.1050
 5318TIP3    H115918   5.343   2.167   1.788 -0.6115  0.3636  1.0998
 5318TIP3    H215919   5.271   2.053   1.720 -1.3001  1.5906 -0.2974
 5319TIP3   OH215920   7.002   1.255   5.388 -0.3210  0.1437  0.2927
 5319TIP3    H115921   6.913   1.258   5.424 -0.4834  1.4727 -0.1425
 5319TIP3    H215922   7.040   1.175   5.425 -0.9193  0.7231  2.3482
 5320TIP3   OH215923   5.287   2.577   1.232  0.3296  0.1242  0.1712
 5320TIP3    H115924   5.243   2.663   1.228 -1.9042 -0.9885 -2.1285
 5320TIP3    H215925   5.225   2.517   1.191  2.5380 -2.3255  0.1912
 5321TIP3   OH215926   4.477   2.158   2.423  0.0097 -0.7122  0.1948
 5321TIP3    H115927   4.435   2.184   2.341  0.7529  1.6097  0.5052
 5321TIP3    H215928   4.407   2.114   2.472 -0.4128 -2.3223 -1.6780
 5322TIP3   OH215929   5.426   3.426   2.474 -0.0195 -0.3119 -0.3508
 5322TIP3    H115930   5.341   3.404   2.511  0.4233  0.9557  1.5477
 5322TIP3    H215931   5.474   3.469   2.545  2.2390 -1.0081 -1.3431
 5323TIP3   OH215932   1.924   0.911   4.591 -0.0204  0.3061 -0.5140
 5323TIP3    H115933   1.899   0.822   4.615  1.6009  0.1025  0.5932
 5323TIP3    H215934   1.938   0.955   4.674  0.3299  1.2560 -1.0627
 5324TIP3   OH215935   4.804   3.035   3.591  0.1288  0.6539 -0.3777
 5324TIP3    H115936   4.737   3.069   3.650  0.5006  2.1595 -0.7784
 5324TIP3    H215937   4.766   3.043   3.503  0.3468  0.2982 -0.5094
 5325TIP3   OH215938   4.387   3.562   0.929  0.0353 -0.4045  0.7510
 5325TIP3    H115939   4.291   3.559   0.929 -0.0079 -0.3603  3.0408
 5325TIP3    H215940   4.407   3.655   0.937  0.2813 -0.4066  0.1758
 5326TIP3   OH215941   2.031   5.476   4.598  0.3154  0.4139 -0.0943
 5326TIP3    H115942   2.094   5.469   4.669  2.3706  0.5433 -1.7925
 5326TIP3    H215943   2.002   5.567   4.600  0.5930  0.4922  0.3939
 5327TIP3   OH215944   4.999   6.370   3.995 -0.0919 -0.0485  0.0735
 5327TIP3    H115945   5.051   6.290   4.001 -1.0961 -0.7991 -0.9343
 5327TIP3    H215946   4.954   6.363   3.911 -1.5846  0.7265  0.7772
 5328TIP3   OH215947   2.834   5.383   0.031  0.3548 -0.3470 -0.1904
 5328TIP3    H115948   2.785   5.442   0.089 -0.3971 -0.0462 -1.1103
 5328TIP3    H215949   2.846   5.303   0.083 -0.7924 -0.2914  0.1855
 5329TIP3   OH215950   1.723   3.528   4.888  0.2060 -0.8330 -0.1334
 5329TIP3    H115951   1.661   3.501   4.955  0.0650 -1.2311 -0.4175
 5329TIP3    H215952   1.800   3.558   4.936  0.4996 -2.0620  0.2014
 5330TIP3   OH215953   3.658   1.335   1.574  0.5772 -0.1349 -0.3222
 5330TIP3    H115954   3.726   1.271   1.591 -0.8919 -1.2461  1.7702
 5330TIP3    H215955   3.606   1.297   1.503  0.6434 -0.4704 -0.1883
 5331TIP3   OH215956   1.146   3.374   1.290 -0.2647  0.2110  0.1923
 5331TIP3    H115957   1.146   3.298   1.348 -1.4264 -0.0700 -0.1471
 5331TIP3    H215958   1.236   3.380   1.258  0.1914 -0.1233  1.3635
 5332TIP3   OH215959   0.129   2.199   1.376  0.1741 -0.2714 -0.5408
 5332TIP3    H115960   0.069   2.207   1.303  0.3255  2.9653 -0.4825
 5332TIP3    H215961   0.073   2.197   1.454  0.0785 -0.9409 -0.6237
 5333TIP3   OH215962   1.900   4.660   4.403  0.3720 -0.0747  0.0660
 5333TIP3    H115963   1.807   4.683   4.409  0.4518  0.1900  0.2929
 5333TIP3    H215964   1.934   4.714   4.332  0.5274  0.4082  0.5040
 5334TIP3   OH215965   6.113   0.337   4.454  0.4037 -0.3260 -0.0633
 5334TIP3    H115966   6.029   0.358   4.495  0.4479 -1.0152  0.4088
 5334TIP3    H215967   6.121   0.242   4.465  1.0828 -0.3148 -0.4207
 5335TIP3   OH215968   1.049   4.218   4.665 -0.3572 -0.6236  0.4437
 5335TIP3    H115969   1.142   4.238   4.658 -0.5329 -0.2234 -1.3772
 5335TIP3    H215970   1.029   4.169   4.585 -1.8872  0.0967  0.3388
 5336TIP3   OH215971   3.956   1.238   4.590  0.2596  0.2684 -0.2609
 5336TIP3    H115972   4.003   1.320   4.607 -0.2633  0.3360  0.8998
 5336TIP3    H215973   3.864   1.261   4.595  0.0788 -0.0097 -1.8682
 5337TIP3   OH215974   6.295   5.695   5.564  0.5571  0.2099  0.1202
 5337TIP3    H115975   6.223   5.672   5.504  0.7203  1.5374 -0.6279
 5337TIP3    H215976   6.254   5.751   5.630  0.9709  1.4378 -0.6262
 5338TIP3   OH215977   3.940   4.534   1.683  0.3334 -0.4344  0.2699
 5338TIP3    H115978   3.965   4.584   1.760  1.3618  2.5014 -1.8051
 5338TIP3    H215979   4.017   4.481   1.663  0.8730  0.4001  0.0855
 5339TIP3   OH215980   5.953   6.205   0.819 -0.1622  0.0708  0.1730
 5339TIP3    H115981   5.982   6.125   0.863  0.5266  0.0171 -0.3817
 5339TIP3    H215982   5.887   6.175   0.756 -1.0005  0.1243  1.0024
 5340TIP3   OH215983   0.167   1.801   5.327 -0.7318 -0.3143 -0.5009
 5340TIP3    H115984   0.210   1.885   5.346 -2.2659  0.0509  1.8124
 5340TIP3    H215985   0.218   1.737   5.376 -0.5801 -0.4746 -0.8656
 5341TIP3   OH215986   0.506   6.580   0.044 -0.4120  0.6145 -0.2574
 5341TIP3    H115987   0.509   6.534   0.129  0.6243  1.5542  0.2322
 5341TIP3    H215988   0.470   6.666   0.065 -1.1930  0.4785 -0.9749
 5342TIP3   OH215989   4.101   6.535   4.110  0.8359  0.1085  0.0631
 5342TIP3    H115990   4.178   6.480   4.095  1.1944  1.4258 -4.2638
 5342TIP3    H215991   4.031   6.490   4.062  0.1374  1.3792 -0.1390
 5343TIP3   OH215992   5.421   2.576   0.983 -0.0093  0.3381  0.4813
 5343TIP3    H115993   5.375   2.573   1.067  0.7545  0.9827  0.9447
 5343TIP3    H215994   5.466   2.661   0.984  0.0598  0.3213 -0.5582
 5344TIP3   OH215995   3.032   5.436   2.461  0.2488 -0.3893 -0.9303
 5344TIP3    H115996   3.097   5.497   2.426  0.7186 -0.6305 -0.4985
 5344TIP3    H215997   3.080   5.387   2.528 -0.7811  0.5704  0.5878
 5345TIP3   OH215998   0.893   3.149   2.440 -0.7134  0.6756 -0.1102
 5345TIP3    H115999   0.854   3.229   2.477  0.1036  1.8925 -1.7336
 5345TIP3    H216000   0.957   3.182   2.376 -1.0147 -1.3017 -1.4850
 5346TIP3   OH216001   4.001   6.517   2.061  0.1233 -0.4690 -0.1337
 5346TIP3    H116002   3.926   6.504   2.119 -0.0183  0.8831  0.0272
 5346TIP3    H216003   3.990   6.452   1.992 -0.3212 -1.3447  0.7381
 5347TIP3   OH216004   2.283   1.736   1.937 -0.5610 -0.7190 -0.2663
 5347TIP3    H116005   2.279   1.641   1.929  2.3424 -0.9117 -0.7726
 5347TIP3    H216006   2.286   1.752   2.031  0.8290 -1.3217 -0.1848
 5348TIP3   OH216007   6.822   4.063   1.917 -0.3622  0.1002 -0.1979
 5348TIP3    H116008   6.768   3.988   1.941 -0.6480  0.3107 -0.1734
 5348TIP3    H216009   6.894   4.063   1.980 -0.8187  0.3408  0.3208
 5349TIP3   OH216010   4.180   0.968   4.114  0.6693  0.5879 -0.1041
 5349TIP3    H116011   4.106   1.010   4.158  0.8243  1.9062 -1.0416
 5349TIP3    H216012   4.168   0.990   4.022  1.5396 -0.2735 -0.4369
 5350TIP3   OH216013   2.973   6.446   4.659 -0.4015  0.5748 -0.2286
 5350TIP3    H116014   2.958   6.354   4.680 -0.1720  1.1983  3.1829
 5350TIP3    H216015   3.060   6.447   4.619 -1.0760 -0.8017 -1.8660
 5351TIP3   OH216016   0.584   5.143   5.497  0.6686 -0.3578  0.2387
 5351TIP3    H116017   0.612   5.111   5.582  0.6185  0.4508  0.5675
 5351TIP3    H216018   0.649   5.109   5.436  0.1395 -1.8063  0.4336
 5352TIP3   OH216019   0.282   1.157   2.861 -0.0645 -0.0967  0.4257
 5352TIP3    H116020   0.221   1.226   2.886 -0.1693  0.1829 -0.5431
 5352TIP3    H216021   0.357   1.204   2.824  0.1533 -0.4788  0.3784
 5353TIP3   OH216022   3.249   1.044   1.545 -0.0447 -0.2165  0.3716
 5353TIP3    H116023   3.313   1.104   1.507  0.2138 -1.2045 -0.8207
 5353TIP3    H216024   3.287   0.957   1.532 -1.5061 -0.8137 -0.1608
 5354TIP3   OH216025   0.269   6.015   3.881 -0.2886 -0.0334 -0.6889
 5354TIP3    H116026   0.264   6.015   3.785 -0.4099  1.3610 -0.6902
 5354TIP3    H216027   0.178   6.024   3.910 -0.3819 -1.5641 -0.4005
 5355TIP3   OH216028   3.556   5.514   1.881  0.2800 -0.0183  0.1989
 5355TIP3    H116029   3.601   5.496   1.799  0.2542  0.1390  0.1512
 5355TIP3    H216030   3.463   5.506   1.861  0.2755 -3.1108  0.8930
 5356TIP3   OH216031   1.437   4.507   2.765  0.3789  0.1928  0.0846
 5356TIP3    H116032   1.526   4.472   2.772  1.5681  3.0418  0.2410
 5356TIP3    H216033   1.404   4.509   2.855  0.7100  0.4916  0.1987
 5357TIP3   OH216034   1.813   4.054   1.325 -0.5553  0.0027  0.2030
 5357TIP3    H116035   1.737   4.028   1.377 -1.5615 -0.4045 -1.3887
 5357TIP3    H216036   1.854   3.971   1.301 -1.8155 -0.0625 -2.0456
 5358TIP3   OH216037   2.121   0.374   2.413  0.0634 -0.3575 -0.7086
 5358TIP3    H116038   2.090   0.452   2.368  0.4324 -0.0399 -0.4098
 5358TIP3    H216039   2.138   0.311   2.342  0.4788  0.0814 -1.0096
 5359TIP3   OH216040   2.143   2.457   5.377  0.7122  0.0944  0.3928
 5359TIP3    H116041   2.235   2.476   5.398  1.0201  0.0919 -0.8274
 5359TIP3    H216042   2.097   2.539   5.393  1.8294  1.8237 -3.7402
 5360TIP3   OH216043   0.207   0.474   2.820  0.2572 -0.1654  0.1004
 5360TIP3    H116044   0.159   0.557   2.823 -0.4950 -0.6007  0.5248
 5360TIP3    H216045   0.200   0.446   2.729 -2.2004 -1.2729  0.5464
 5361TIP3   OH216046   2.675   4.477   2.571 -0.8875 -0.4116  0.3756
 5361TIP3    H116047   2.596   4.509   2.528  0.1767  0.1867 -1.2248
 5361TIP3    H216048   2.667   4.507   2.662 -2.0937  0.3532  0.0329
 5362TIP3   OH216049   7.079   0.694   4.089 -0.0865 -0.2851 -0.5301
 5362TIP3    H116050   7.026   0.615   4.103  1.1096 -1.2170 -1.0974
 5362TIP3    H216051   7.086   0.733   4.176 -0.0408 -1.2386 -0.0850
 5363TIP3   OH216052   4.569   1.940   4.053  0.8357 -0.1231 -0.0287
 5363TIP3    H116053   4.534   1.964   3.968  1.6642  0.5006 -0.2084
 5363TIP3    H216054   4.534   1.853   4.070  0.5952 -0.2169 -0.9701
 5364TIP3   OH216055   3.135   0.851   5.022 -0.0795 -0.2092  0.0674
 5364TIP3    H116056   3.215   0.876   4.975 -0.4738  0.8504 -0.0849
 5364TIP3    H216057   3.160   0.851   5.114 -0.3430  2.1446  0.2085
 5365TIP3   OH216058   3.170   0.600   3.884 -0.0354 -0.4513 -0.1155
 5365TIP3    H116059   3.131   0.680   3.918  0.8225  1.1555 -2.6473
 5365TIP3    H216060   3.264   0.618   3.882  0.1387 -1.3487 -1.0880
 5366TIP3   OH216061   4.163   3.418   3.398  0.2710  0.1804 -0.0122
 5366TIP3    H116062   4.121   3.357   3.458 -1.0132  1.4487  0.4441
 5366TIP3    H216063   4.097   3.435   3.331  1.0211  0.1980 -0.7611
 5367TIP3   OH216064   4.099   4.676   5.638  0.1548 -0.4116 -0.0409
 5367TIP3    H116065   4.041   4.708   5.707 -0.5412 -1.4266 -0.1342
 5367TIP3    H216066   4.050   4.691   5.557  0.3657 -0.5368 -0.1905
 5368TIP3   OH216067   0.157   1.151   0.660 -0.0904 -0.5608 -0.0948
 5368TIP3    H116068   0.217   1.226   0.662 -1.3385  0.4731 -0.2882
 5368TIP3    H216069   0.155   1.121   0.751  0.5224 -0.4530 -0.0364
 5369TIP3   OH216070   4.427   1.685   4.057 -0.3427 -0.6096  0.3370
 5369TIP3    H116071   4.498   1.647   4.005 -0.2464  2.8064 -2.4896
 5369TIP3    H216072   4.348   1.670   4.005 -1.0251 -0.7917  1.3931
 5370TIP3   OH216073   5.727   4.494   2.668 -0.4335  0.6682 -0.8181
 5370TIP3    H116074   5.697   4.463   2.754  0.7493  1.2918 -0.1633
 5370TIP3    H216075   5.743   4.587   2.680  2.0301  0.3210 -1.0328
 5371TIP3   OH216076   4.610   0.424   2.721 -0.0157 -0.0256 -0.0474
 5371TIP3    H116077   4.661   0.481   2.779 -1.0569 -0.9609  1.8848
 5371TIP3    H216078   4.597   0.344   2.772  1.6269 -2.2091 -2.7471
 5372TIP3   OH216079   4.443   5.818   3.224  0.3510  0.1787  0.8773
 5372TIP3    H116080   4.379   5.888   3.236 -0.7428 -0.7183  0.4565
 5372TIP3    H216081   4.444   5.803   3.130  1.5523  0.5026  0.8295
 5373TIP3   OH216082   3.755   1.462   0.722  0.1907 -0.4128  0.1235
 5373TIP3    H116083   3.684   1.514   0.759  0.0860  0.3442 -1.0590
 5373TIP3    H216084   3.716   1.377   0.704 -0.6290  0.1795 -1.0753
 5374TIP3   OH216085   0.798   2.756   0.135 -0.8351  0.0376 -0.1554
 5374TIP3    H116086   0.718   2.730   0.089 -1.2927  0.4483  0.3801
 5374TIP3    H216087   0.817   2.844   0.103  0.3334 -0.6690 -1.4769
 5375TIP3   OH216088   5.427   5.501   2.097 -0.0065  0.1290 -0.6942
 5375TIP3    H116089   5.480   5.529   2.172  0.1125 -0.2391 -0.6384
 5375TIP3    H216090   5.490   5.493   2.025  0.0163 -0.3117 -0.6267
 5376TIP3   OH216091   2.374   2.703   4.885  0.1176 -0.3940  0.6143
 5376TIP3    H116092   2.390   2.789   4.923 -0.4677 -0.1771  0.3686
 5376TIP3    H216093   2.413   2.707   4.798 -0.6402 -0.1029  0.2886
 5377TIP3   OH216094   0.623   3.925   2.350  0.2143  0.4305 -0.3971
 5377TIP3    H116095   0.547   3.962   2.396 -0.5892  1.6956 -2.5952
 5377TIP3    H216096   0.657   3.858   2.410 -1.5154  1.0993  1.4400
 5378TIP3   OH216097   3.670   1.251   2.377  0.5031  0.7096  0.1566
 5378TIP3    H116098   3.695   1.292   2.295  2.1996 -0.2217  0.1607
 5378TIP3    H216099   3.715   1.302   2.444  0.2814  0.5863  0.4019
 5379TIP3   OH216100   2.614   6.183   1.904  0.2522  0.2097  0.7013
 5379TIP3    H116101   2.695   6.234   1.903 -0.8667  2.1584  2.2601
 5379TIP3    H216102   2.550   6.241   1.944 -1.0070 -2.5961  3.1326
 5380TIP3   OH216103   4.860   1.927   4.040 -0.0272  0.3395  0.2040
 5380TIP3    H116104   4.911   1.849   4.020 -0.6398 -0.1808  0.6112
 5380TIP3    H216105   4.785   1.922   3.981  1.1394  1.9294 -1.5154
 5381TIP3   OH216106   1.792   6.219   5.101  0.0867  0.1796 -0.3931
 5381TIP3    H116107   1.766   6.279   5.031  0.3823 -1.3086 -1.8265
 5381TIP3    H216108   1.713   6.169   5.121 -0.0273  0.6694  0.4497
 5382TIP3   OH216109   6.231   6.417   5.076 -0.2310  0.1975  0.1659
 5382TIP3    H116110   6.320   6.385   5.093 -0.4277 -0.3840  0.1192
 5382TIP3    H216111   6.189   6.347   5.028 -0.9282  0.1798  0.7811
 5383TIP3   OH216112   5.886   6.333   5.744  0.0688  0.5136 -0.3771
 5383TIP3    H116113   5.917   6.247   5.774 -1.3372  0.5693  1.3793
 5383TIP3    H216114   5.959   6.368   5.693  0.6650 -1.7354 -1.1838
 5384TIP3   OH216115   0.082   5.681   2.476 -0.0543 -0.3080 -0.0893
 5384TIP3    H116116   0.031   5.601   2.467 -2.6557  1.3535 -1.2125
 5384TIP3    H216117   0.031   5.735   2.536  0.8433  1.0908 -0.5458
 5385TIP3   OH216118   6.163   0.240   3.827  0.1478  0.1806 -0.7476
 5385TIP3    H116119   6.170   0.328   3.864  2.0494  1.4195 -3.7428
 5385TIP3    H216120   6.069   0.225   3.820 -0.2381  1.2295  1.3149
 5386TIP3   OH216121   4.755   1.371   2.214  0.0598 -0.1136  0.1679
 5386TIP3    H116122   4.829   1.398   2.158  0.4317  0.9727  1.1450
 5386TIP3    H216123   4.677   1.393   2.163  0.3331 -2.6800 -1.5502
 5387TIP3   OH216124   0.561   0.497   4.599 -0.3843 -0.3504 -0.7800
 5387TIP3    H116125   0.607   0.420   4.567  1.6261 -0.2438  1.6066
 5387TIP3    H216126   0.630   0.558   4.625 -1.9184  1.5513 -0.9452
 5388TIP3   OH216127   2.400   4.867   4.667 -0.3782 -0.0388  0.3335
 5388TIP3    H116128   2.337   4.838   4.732 -1.8652  1.4710 -0.3621
 5388TIP3    H216129   2.423   4.956   4.694  0.4674 -0.0945 -0.1586
 5389TIP3   OH216130   3.192   4.722   2.671  0.0472 -0.4424 -0.2863
 5389TIP3    H116131   3.134   4.646   2.677  1.3508 -1.4282  0.4131
 5389TIP3    H216132   3.236   4.713   2.587  0.9798 -1.0767  0.2498
 5390TIP3   OH216133   5.956   5.515   4.126  0.3193 -0.0875 -0.4738
 5390TIP3    H116134   5.921   5.578   4.190  0.1069 -0.8482  0.1649
 5390TIP3    H216135   6.050   5.530   4.127  0.1706  1.0561 -1.2238
 5391TIP3   OH216136   6.270   5.820   3.575 -0.0448  0.2886  0.4872
 5391TIP3    H116137   6.188   5.771   3.590  0.5801 -1.0357 -0.2810
 5391TIP3    H216138   6.272   5.834   3.481  1.7862 -1.9066  0.1201
 5392TIP3   OH216139   4.214   3.784   2.090 -0.5116 -0.2409  0.2214
 5392TIP3    H116140   4.308   3.775   2.077  0.0343 -1.1801  3.6469
 5392TIP3    H216141   4.207   3.843   2.166 -2.7185  0.1687 -0.2476
 5393TIP3   OH216142   0.179   2.562   4.982  0.4474  0.4039 -0.5349
 5393TIP3    H116143   0.093   2.599   4.962  0.8322  0.9037 -1.2914
 5393TIP3    H216144   0.187   2.571   5.077 -0.6225 -0.2853 -0.3587
 5394TIP3   OH216145   4.997   0.316   4.527  0.2837  0.1120  0.1456
 5394TIP3    H116146   5.088   0.337   4.508  0.3042 -0.4098 -0.3517
 5394TIP3    H216147   4.964   0.393   4.573  0.7423  0.6450 -0.4005
 5395TIP3   OH216148   4.898   0.328   3.378 -0.4180  0.4573 -0.3349
 5395TIP3    H116149   4.859   0.414   3.390  2.7388  1.8380  1.4151
 5395TIP3    H216150   4.972   0.327   3.439  0.3294 -3.1137 -1.0647
 5396TIP3   OH216151   6.350   1.291   3.142 -0.3012  0.3776  0.5566
 5396TIP3    H116152   6.324   1.215   3.088  1.4983 -0.3923  0.7184
 5396TIP3    H216153   6.368   1.254   3.228  0.1421  1.0770  0.7694
 5397TIP3   OH216154   6.416   4.381   0.331  0.4407  0.4674 -0.4019
 5397TIP3    H116155   6.473   4.458   0.329  0.5821  0.3528 -0.8832
 5397TIP3    H216156   6.354   4.395   0.260  2.7570 -1.5678 -3.0242
 5398TIP3   OH216157   4.931   4.873   3.900  0.0521 -0.5304  0.3709
 5398TIP3    H116158   4.965   4.808   3.962  1.1890  0.1369  0.4789
 5398TIP3    H216159   5.009   4.918   3.867 -0.7147  1.0555  0.6056
 5399TIP3   OH216160   5.893   6.380   1.887  0.1173 -0.3653 -0.0545
 5399TIP3    H116161   5.925   6.437   1.957  0.4189  1.9771 -1.9834
 5399TIP3    H216162   5.798   6.383   1.896  0.1751 -1.2012  1.0532
 5400TIP3   OH216163   2.924   4.841   4.622  0.3815 -0.0105 -0.6194
 5400TIP3    H116164   2.903   4.933   4.637 -1.9543 -0.2760 -1.7517
 5400TIP3    H216165   2.926   4.802   4.709 -4.6097  0.0548 -0.1543
 5401TIP3   OH216166   1.198   3.817   0.904  0.1074 -0.3574 -0.7926
 5401TIP3    H116167   1.273   3.859   0.946  0.9036 -1.2463 -1.2913
 5401TIP3    H216168   1.122   3.860   0.943  0.8109 -0.7573  1.1397
 5402TIP3   OH216169   3.641   3.478   4.031 -0.1229 -0.4388  0.1663
 5402TIP3    H116170   3.642   3.495   4.125  0.2477  1.1835 -0.1013
 5402TIP3    H216171   3.726   3.508   3.999 -0.7003  0.1983 -0.8512
 5403TIP3   OH216172   3.836   4.694   0.799  0.6742 -0.0313  0.0735
 5403TIP3    H116173   3.787   4.766   0.838 -0.4525 -0.1713 -1.0372
 5403TIP3    H216174   3.921   4.732   0.775 -0.2241  1.1660 -1.2976
 5404TIP3   OH216175   0.801   2.225   2.539  0.2149 -0.3279 -0.6450
 5404TIP3    H116176   0.809   2.257   2.450  1.4234  0.2320 -0.3616
 5404TIP3    H216177   0.840   2.137   2.537  2.4482  0.5654 -0.2479
 5405TIP3   OH216178   1.261   0.542   4.786  0.6330 -0.0293  0.2433
 5405TIP3    H116179   1.251   0.637   4.779  0.4845 -0.1715 -2.0759
 5405TIP3    H216180   1.279   0.527   4.879 -0.8205  2.1130  0.9430
 5406TIP3   OH216181   5.566   6.133   4.124 -0.7118 -0.1715  0.5145
 5406TIP3    H116182   5.573   6.208   4.182 -2.8758  0.6088 -0.1276
 5406TIP3    H216183   5.472   6.116   4.118 -0.4038 -1.6290 -0.9918
 5407TIP3   OH216184   3.990   3.278   3.960 -0.4747 -0.0501 -0.6340
 5407TIP3    H116185   3.948   3.314   4.037 -0.4724 -0.0875 -0.6151
 5407TIP3    H216186   4.059   3.340   3.938  1.1713 -1.2371  0.8576
 5408TIP3   OH216187   2.189   1.608   2.697 -0.4510  0.0239 -0.4183
 5408TIP3    H116188   2.247   1.533   2.681  0.5103  0.6053  0.2109
 5408TIP3    H216189   2.147   1.588   2.781  0.5042  0.5852  0.2157
 5409TIP3   OH216190   2.970   3.755   1.391 -0.7222  0.1629 -0.6646
 5409TIP3    H116191   2.989   3.844   1.362 -1.8187  0.0998 -1.6359
 5409TIP3    H216192   3.041   3.702   1.354  0.2335  0.6755  0.3598
 5410TIP3   OH216193   0.512   0.133   5.720  0.1430 -0.3589 -1.0956
 5410TIP3    H116194   0.442   0.198   5.715  0.5365  0.2381  0.6781
 5410TIP3    H216195   0.579   0.165   5.660 -0.2838  0.0820 -1.3457
 5411TIP3   OH216196   2.442   1.833   3.978 -0.1340  0.1139  0.3764
 5411TIP3    H116197   2.373   1.774   4.008 -0.1144 -0.6720 -1.0610
 5411TIP3    H216198   2.512   1.776   3.948  0.6927  0.9006  0.7301
 5412TIP3   OH216199   7.055   2.714   3.250 -0.0856 -0.0874 -0.0263
 5412TIP3    H116200   7.060   2.674   3.337  1.1053 -1.7933 -0.8186
 5412TIP3    H216201   7.001   2.792   3.262 -0.0464 -0.3497  2.2089
 5413TIP3   OH216202   6.799   2.753   2.704  0.1421 -0.9970 -0.6996
 5413TIP3    H116203   6.754   2.678   2.666 -0.6460 -2.2077  2.3969
 5413TIP3    H216204   6.729   2.809   2.737  0.7397 -1.8803  2.3044
 5414TIP3   OH216205   3.552   3.990   2.489 -0.1617  0.0793 -0.2515
 5414TIP3    H116206   3.462   4.004   2.519  0.1084 -0.0413  0.6274
 5414TIP3    H216207   3.555   4.033   2.403 -0.9631  0.3601 -0.1511
 5415TIP3   OH216208   1.674   1.834   1.289 -0.5320  0.0742  0.2032
 5415TIP3    H116209   1.667   1.814   1.196  0.3954  0.3409  0.0652
 5415TIP3    H216210   1.765   1.818   1.311 -1.1060 -1.7866  1.5173
 5416TIP3   OH216211   5.338   5.031   0.376  0.0096  0.1373  0.1470
 5416TIP3    H116212   5.268   4.988   0.328  1.8055 -0.2082 -2.3564
 5416TIP3    H216213   5.378   4.960   0.427  1.3365 -0.7620 -1.9853
 5417TIP3   OH216214   0.937   5.868   1.641  0.4854  0.6186 -0.0240
 5417TIP3    H116215   0.956   5.796   1.702 -0.4813  0.8903  0.6333
 5417TIP3    H216216   0.987   5.942   1.675  1.1803  0.3656 -0.4797
 5418TIP3   OH216217   1.749   1.169   2.505  0.3610  0.4950  0.1676
 5418TIP3    H116218   1.812   1.181   2.576  1.8642 -0.2492 -0.9909
 5418TIP3    H216219   1.669   1.139   2.548  0.7624  1.4627  1.6747
 5419TIP3   OH216220   1.273   5.117   4.993  0.4924  0.4451  0.1611
 5419TIP3    H116221   1.297   5.042   5.047  2.4917  0.4812 -0.6023
 5419TIP3    H216222   1.310   5.098   4.907 -0.9685  1.2764 -0.6948
 5420TIP3   OH216223   5.993   0.833   3.005 -0.5822 -0.6122 -0.3274
 5420TIP3    H116224   6.031   0.752   3.041 -0.0663 -0.9930 -1.6863
 5420TIP3    H216225   6.011   0.899   3.073  1.6746 -0.9952 -0.4619
 5421TIP3   OH216226   2.635   5.800   5.743 -0.6599 -0.2270  0.2285
 5421TIP3    H116227   2.596   5.763   5.822 -1.3981 -0.9963 -0.4739
 5421TIP3    H216228   2.648   5.725   5.685 -1.4892  0.5099 -0.9439
 5422TIP3   OH216229   2.912   4.768   0.618 -0.2795  0.0399  0.5929
 5422TIP3    H116230   2.885   4.801   0.704  2.3421  1.0596  1.1158
 5422TIP3    H216231   2.926   4.846   0.565  2.5174 -0.2852  0.7134
 5423TIP3   OH216232   6.783   3.992   4.731 -0.1344  0.1908 -0.0220
 5423TIP3    H116233   6.831   3.928   4.678 -0.2631 -1.5946  1.8999
 5423TIP3    H216234   6.839   4.069   4.730  1.6349 -1.0226  0.1639
 5424TIP3   OH216235   4.057   5.318   2.459  0.4866 -0.0021 -0.2371
 5424TIP3    H116236   4.013   5.365   2.530  2.1158  1.0710  0.1004
 5424TIP3    H216237   4.119   5.260   2.504 -1.2086 -2.3199 -0.6573
 5425TIP3   OH216238   5.715   4.250   5.176  0.2825 -0.3136 -0.0196
 5425TIP3    H116239   5.768   4.186   5.224 -0.5386  0.0127  1.3795
 5425TIP3    H216240   5.696   4.318   5.240 -0.7193  0.2323 -0.8642
 5426TIP3   OH216241   0.795   6.580   0.771 -0.2106 -0.1751 -0.5002
 5426TIP3    H116242   0.721   6.560   0.829 -0.1884  1.5921  0.2123
 5426TIP3    H216243   0.841   6.497   0.761 -1.4307 -0.9813  0.2947
 5427TIP3   OH216244   0.524   0.518   5.299  0.2173 -0.3232 -0.4223
 5427TIP3    H116245   0.532   0.612   5.316  0.4877 -0.2726 -0.8132
 5427TIP3    H216246   0.491   0.513   5.209 -0.6916 -0.5897 -0.0799
 5428TIP3   OH216247   5.963   3.406   3.184 -0.0388  0.4223  0.1178
 5428TIP3    H116248   6.042   3.351   3.181  0.6850  1.4402 -0.1053
 5428TIP3    H216249   5.973   3.465   3.109 -0.6461  1.0564  0.5332
 5429TIP3   OH216250   3.288   0.333   4.325  0.2606 -0.8368  0.5729
 5429TIP3    H116251   3.213   0.379   4.289  1.2732  0.0710 -0.4128
 5429TIP3    H216252   3.261   0.241   4.326  1.1096 -1.5941 -5.5298
 5430TIP3   OH216253   3.105   1.457   2.890 -0.0689 -0.3828  0.8916
 5430TIP3    H116254   3.035   1.412   2.937  0.2438 -1.0494  0.7228
 5430TIP3    H216255   3.079   1.452   2.798 -0.3606  0.3645  0.9242
 5431TIP3   OH216256   1.566   4.315   0.916  0.0335 -0.2781  0.3796
 5431TIP3    H116257   1.485   4.344   0.874  0.1030  0.3041  0.6437
 5431TIP3    H216258   1.613   4.396   0.936 -0.6677 -0.4145  2.9590
 5432TIP3   OH216259   4.216   5.003   2.295  0.0386 -0.1852 -0.0928
 5432TIP3    H116260   4.243   5.094   2.310 -0.6859  0.3281 -1.6839
 5432TIP3    H216261   4.181   4.975   2.379  2.2932  0.2285  1.0824
 5433TIP3   OH216262   5.320   4.614   2.780  0.3457 -0.3034  0.2560
 5433TIP3    H116263   5.323   4.592   2.686 -1.6656 -2.3692  0.5824
 5433TIP3    H216264   5.392   4.675   2.792  0.6270  0.1102 -2.6601
 5434TIP3   OH216265   1.354   2.169   4.527 -0.6203  0.0866 -0.1774
 5434TIP3    H116266   1.310   2.126   4.601 -1.1912 -1.7431 -1.5000
 5434TIP3    H216267   1.286   2.177   4.460  0.5506 -0.9689 -1.5433
 5435TIP3   OH216268   7.166   3.663   0.296 -0.0611 -0.2162 -0.3115
 5435TIP3    H116269   7.225   3.612   0.352  0.1071 -0.5037 -0.7509
 5435TIP3    H216270   7.085   3.613   0.295  0.4818 -1.1053 -1.7048
 5436TIP3   OH216271   6.381   5.273   2.254  0.1115  0.5195  1.0948
 5436TIP3    H116272   6.409   5.226   2.175 -1.6308 -0.1380  0.8252
 5436TIP3    H216273   6.458   5.324   2.280  0.6491  1.0166 -1.2326
 5437TIP3   OH216274   1.627   5.321   1.913 -0.1596 -0.3523 -0.1489
 5437TIP3    H116275   1.541   5.300   1.876 -0.3665 -1.8969  1.1220
 5437TIP3    H216276   1.618   5.410   1.945 -0.8023  0.0525 -1.3695
 5438TIP3   OH216277   4.502   5.259   2.015 -0.1140  0.0702  0.0468
 5438TIP3    H116278   4.521   5.240   2.107  0.0597  0.8978  0.1954
 5438TIP3    H216279   4.428   5.320   2.018 -1.9216 -1.9906 -0.4751
 5439TIP3   OH216280   0.041   6.124   4.009  0.0397 -0.3233  0.0065
 5439TIP3    H116281  -0.034   6.067   4.025  0.3618 -0.4352  1.1951
 5439TIP3    H216282   0.003   6.212   4.000 -0.2678 -0.4291  0.2695
 5440TIP3   OH216283   5.502   2.374   0.478 -0.0014  0.3409  0.3826
 5440TIP3    H116284   5.485   2.369   0.572 -1.4893 -0.2104  0.1005
 5440TIP3    H216285   5.418   2.395   0.439  0.4382 -0.1582 -0.8939
 5441TIP3   OH216286   6.702   2.542   4.521 -0.7407 -1.0846 -0.5025
 5441TIP3    H116287   6.681   2.471   4.582 -0.5057 -1.2040 -0.5594
 5441TIP3    H216288   6.796   2.533   4.506  0.1358  1.4749  2.3931
 5442TIP3   OH216289   1.762   1.425   2.157 -0.1807 -0.5396  0.2323
 5442TIP3    H116290   1.782   1.507   2.112  0.4519 -1.5651 -1.4147
 5442TIP3    H216291   1.824   1.422   2.230  0.6929 -0.1828 -0.4886
 5443TIP3   OH216292   5.538   1.203   5.752 -0.6166 -0.7907  0.3521
 5443TIP3    H116293   5.553   1.274   5.690  0.1053 -0.4253  0.9237
 5443TIP3    H216294   5.519   1.247   5.835  1.9982 -1.1727  1.2469
 5444TIP3   OH216295   6.695   6.092   3.954  0.4004 -0.0343  0.1718
 5444TIP3    H116296   6.745   6.170   3.980  1.2734 -0.8427  1.0147
 5444TIP3    H216297   6.742   6.058   3.878  0.1643  0.1236 -0.0448
 5445TIP3   OH216298   5.154   3.678   4.656  0.1640 -0.1225 -0.3497
 5445TIP3    H116299   5.140   3.633   4.573 -0.7083  0.8973 -0.7796
 5445TIP3    H216300   5.073   3.726   4.672  0.4999  0.0885  0.8518
 5446TIP3   OH216301   1.036   5.809   1.984  0.2672  0.3391  0.4325
 5446TIP3    H116302   1.049   5.888   1.931  1.5579 -0.4284 -0.4391
 5446TIP3    H216303   0.946   5.783   1.966  0.8554 -0.2780 -1.9956
 5447TIP3   OH216304   5.683   1.407   5.602  0.3847  0.5813  0.1963
 5447TIP3    H116305   5.702   1.495   5.631 -0.4153  1.1316 -0.8517
 5447TIP3    H216306   5.713   1.404   5.511 -0.4618  0.0973 -0.0843
 5448TIP3   OH216307   3.330   0.255   5.167 -0.7069 -0.6156  0.2213
 5448TIP3    H116308   3.268   0.195   5.210 -2.8855  1.6785  0.5281
 5448TIP3    H216309   3.402   0.263   5.229 -1.2790 -1.4467  1.0345
 5449TIP3   OH216310   5.352   4.665   4.544 -0.1781 -0.1437  0.2707
 5449TIP3    H116311   5.267   4.633   4.513  0.1674  0.8506 -1.8244
 5449TIP3    H216312   5.385   4.593   4.599 -2.0375 -0.8335  0.5858
 5450TIP3   OH216313   5.927   6.486   0.173 -0.2011 -0.2384 -0.5818
 5450TIP3    H116314   6.017   6.470   0.143  0.2005 -0.5361  0.7357
 5450TIP3    H216315   5.935   6.500   0.267 -1.7572 -1.9690 -0.1457
 5451TIP3   OH216316   4.968   0.826   4.129  0.2732  0.2689  0.2575
 5451TIP3    H116317   4.940   0.877   4.205  1.6138 -1.3859  1.9532
 5451TIP3    H216318   4.897   0.763   4.115  0.2107  0.3009  0.4295
 5452TIP3   OH216319   5.925   4.312   2.622 -0.0219 -0.5659  0.3930
 5452TIP3    H116320   5.853   4.357   2.666  0.9306 -0.0457  1.4874
 5452TIP3    H216321   5.952   4.372   2.553  0.3322 -0.0682  0.9539
 5453TIP3   OH216322   5.517   5.371   0.042 -0.0511  0.4457  0.1995
 5453TIP3    H116323   5.502   5.276   0.033  4.8478 -0.5059 -0.7347
 5453TIP3    H216324   5.486   5.391   0.131 -3.4786 -1.3326 -0.4070
 5454TIP3   OH216325   4.262   5.437   0.726 -0.2446  0.1378 -0.0320
 5454TIP3    H116326   4.201   5.424   0.798 -0.9544 -1.7684 -0.9032
 5454TIP3    H216327   4.330   5.495   0.761 -0.6044 -0.6776  2.1160
 5455TIP3   OH216328   2.400   2.029   1.956 -0.1523  0.3599  0.3449
 5455TIP3    H116329   2.327   2.090   1.966  0.5346  1.3132 -0.2691
 5455TIP3    H216330   2.446   2.034   2.040  0.1492  1.0416  0.1513
 5456TIP3   OH216331   4.518   4.070   1.580 -0.3095 -0.2739 -0.9729
 5456TIP3    H116332   4.434   4.042   1.616 -0.9901  2.6051 -0.0417
 5456TIP3    H216333   4.572   4.090   1.657 -0.1794  1.5912 -1.4903
 5457TIP3   OH216334   1.970   5.248   2.028 -0.1088  0.2975  0.7581
 5457TIP3    H116335   1.973   5.225   1.935 -0.6341  0.3949  0.7159
 5457TIP3    H216336   1.983   5.165   2.073  1.9649  0.4839  0.6153
 5458TIP3   OH216337   3.066   5.045   2.258 -0.4224 -0.1392  0.1124
 5458TIP3    H116338   3.122   5.012   2.188  1.2971  0.9906  0.8684
 5458TIP3    H216339   3.071   4.979   2.326 -0.5149 -0.3397 -0.0758
 5459TIP3   OH216340   5.864   6.046   5.067 -0.3281 -0.0862 -0.2334
 5459TIP3    H116341   5.896   5.975   5.123 -0.5485  1.1360  1.5257
 5459TIP3    H216342   5.827   6.002   4.991  0.4510 -1.7957  0.3258
 5460TIP3   OH216343   2.381   2.794   4.312 -0.7491 -0.2718 -0.4727
 5460TIP3    H116344   2.337   2.786   4.227  0.5510  0.4177 -1.2385
 5460TIP3    H216345   2.367   2.708   4.353 -0.8551 -0.8533 -1.6574
 5461TIP3   OH216346   0.183   1.819   1.043  0.1580  0.9737 -0.2507
 5461TIP3    H116347   0.278   1.824   1.050  0.1046  0.3986  1.1202
 5461TIP3    H216348   0.165   1.727   1.024 -0.1061  1.2267 -1.3250
 5462TIP3   OH216349   1.454   5.685   2.578  0.4855 -0.1694  0.8525
 5462TIP3    H116350   1.451   5.652   2.489 -0.2524  1.0666  0.3908
 5462TIP3    H216351   1.450   5.607   2.633  3.6264 -1.1761 -0.1497
 5463TIP3   OH216352   5.943   6.441   4.176 -0.3935 -0.6181 -0.4135
 5463TIP3    H116353   6.022   6.494   4.182 -1.6139  1.3611 -1.0141
 5463TIP3    H216354   5.914   6.430   4.267 -0.8881  0.9970 -0.3568
 5464TIP3   OH216355   3.483   6.756   4.942  0.1531 -0.1924 -0.2756
 5464TIP3    H116356   3.558   6.702   4.920  0.4043  0.5366 -1.2774
 5464TIP3    H216357   3.469   6.811   4.865 -0.5983  0.5964  0.3941
 5465TIP3   OH216358   3.772   5.489   1.133  0.1189 -0.3367  0.2641
 5465TIP3    H116359   3.771   5.400   1.098 -0.2507 -0.6693  1.0946
 5465TIP3    H216360   3.790   5.544   1.058 -0.9465 -1.0035 -0.5086
 5466TIP3   OH216361   2.142   5.419   3.007  0.0661  0.4316 -0.4880
 5466TIP3    H116362   2.049   5.427   2.987 -0.5606 -2.3209  0.8513
 5466TIP3    H216363   2.161   5.491   3.067 -1.5415  0.3000  0.2144
 5467TIP3   OH216364   2.647   3.994   4.640  0.4515  0.0993  0.1440
 5467TIP3    H116365   2.736   4.000   4.677  0.4171 -1.9745  0.6888
 5467TIP3    H216366   2.647   3.911   4.593 -1.1280  0.2196 -0.0937
 5468TIP3   OH216367   4.805   5.298   0.989 -0.0408  0.0154 -0.1055
 5468TIP3    H116368   4.791   5.377   1.041  0.8908 -1.1918  2.1005
 5468TIP3    H216369   4.721   5.282   0.946 -0.9197  0.9712  1.1946
 5469TIP3   OH216370   5.701   3.717   0.308  0.2601 -0.2339  0.2493
 5469TIP3    H116371   5.688   3.811   0.317 -0.5425 -0.4373  1.3812
 5469TIP3    H216372   5.793   3.704   0.330  0.4027  0.2892 -0.0152
 5470TIP3   OH216373   4.278   1.876   5.353  0.2429 -0.1663  0.3858
 5470TIP3    H116374   4.225   1.852   5.429  0.9517 -1.0335  0.6148
 5470TIP3    H216375   4.301   1.967   5.367  1.3724 -0.6466  1.8298
 5471TIP3   OH216376   0.686   3.005   4.566  0.1909  0.0063 -0.3826
 5471TIP3    H116377   0.655   2.916   4.553 -1.7020  0.5732 -0.0607
 5471TIP3    H216378   0.701   3.038   4.477 -2.2398  0.3636 -0.7316
 5472TIP3   OH216379   7.033   3.656   0.014 -0.6578  0.1907 -0.2961
 5472TIP3    H116380   6.988   3.599  -0.048 -0.2871 -1.6078  1.0144
 5472TIP3    H216381   6.972   3.664   0.088  0.8141 -1.8256  1.2547
 5473TIP3   OH216382   6.837   0.035   4.351  0.8207 -0.4454  0.3973
 5473TIP3    H116383   6.749  -0.002   4.363  1.4310 -1.6563  1.3738
 5473TIP3    H216384   6.826   0.129   4.366  0.1628 -0.9111  3.3786
 5474TIP3   OH216385   6.488   5.285   4.777 -0.1004  0.0165 -0.3676
 5474TIP3    H116386   6.535   5.304   4.858 -1.7593  0.5684  0.5160
 5474TIP3    H216387   6.533   5.209   4.739  0.6778 -0.2673  1.0811
 5475TIP3   OH216388   0.383   4.470   5.740  0.1531  0.2082  0.0576
 5475TIP3    H116389   0.406   4.468   5.648  0.5806  0.2921  0.1585
 5475TIP3    H216390   0.402   4.560   5.768  0.4435  0.0685  0.3259
 5476TIP3   OH216391   3.752   5.775   0.322  0.2291  0.4723 -0.2284
 5476TIP3    H116392   3.700   5.772   0.241 -1.9869 -0.5780  1.1246
 5476TIP3    H216393   3.818   5.706   0.310  0.3847  0.7893 -1.3795
 5477TIP3   OH216394   6.329   3.329   2.376 -0.3515  0.3263 -0.2612
 5477TIP3    H116395   6.361   3.244   2.348 -0.8578 -0.3205  1.0452
 5477TIP3    H216396   6.235   3.317   2.388 -0.5422  1.2610 -0.7111
 5478TIP3   OH216397   2.492   5.003   1.055 -0.0979 -0.7622 -0.2923
 5478TIP3    H116398   2.564   4.977   1.113 -0.5618 -2.0938 -0.2674
 5478TIP3    H216399   2.523   5.083   1.012  0.8739 -0.6124  0.6458
 5479TIP3   OH216400   4.083   6.233   3.760 -0.2032 -0.2166  0.2138
 5479TIP3    H116401   3.993   6.261   3.748 -0.0350  1.1277  1.6336
 5479TIP3    H216402   4.134   6.315   3.755  1.1913 -1.1092 -2.2806
 5480TIP3   OH216403   6.779   5.260   0.785 -0.3460 -0.0358 -0.0531
 5480TIP3    H116404   6.754   5.248   0.693  0.0361  0.1563 -0.1856
 5480TIP3    H216405   6.743   5.345   0.809 -0.8668 -0.2989  0.1273
 5481TIP3   OH216406   2.106   4.775   5.832  0.0840 -0.4574  0.3684
 5481TIP3    H116407   2.038   4.843   5.831  1.9531  1.5331  0.0335
 5481TIP3    H216408   2.070   4.704   5.779 -1.3856  0.8850 -0.5230
 5482TIP3   OH216409   2.393   6.349   3.085 -0.0573 -0.0143  0.2757
 5482TIP3    H116410   2.349   6.273   3.047 -2.1377  1.2513 -0.0267
 5482TIP3    H216411   2.465   6.368   3.025 -1.8361  0.5055 -1.8580
 5483TIP3   OH216412   3.556   1.034   2.458  0.4592  0.4089 -0.2745
 5483TIP3    H116413   3.615   0.968   2.422  0.2891  1.3966 -2.4947
 5483TIP3    H216414   3.606   1.115   2.455 -0.0833  0.7825  0.4042
 5484TIP3   OH216415   3.023   4.068   1.379  0.1054 -0.1145  0.3482
 5484TIP3    H116416   3.067   4.079   1.295  2.3629 -0.2684  1.4285
 5484TIP3    H216417   3.090   4.091   1.444 -2.0188  1.5898  2.0983
 5485TIP3   OH216418   5.090   0.656   0.250 -0.0022  0.0927  0.0903
 5485TIP3    H116419   5.134   0.730   0.292  0.6361  0.6807 -1.5262
 5485TIP3    H216420   5.003   0.689   0.229  0.1442  0.2536 -0.2671
 5486TIP3   OH216421   3.106   2.149   4.194  0.3118  0.1739  0.1715
 5486TIP3    H116422   3.071   2.173   4.108 -0.0576 -0.8684  0.0149
 5486TIP3    H216423   3.112   2.054   4.192  0.2332  0.1218  1.3277
 5487TIP3   OH216424   6.713   2.959   4.429  0.8177 -0.3111  0.4331
 5487TIP3    H116425   6.715   2.927   4.339 -0.7033 -1.1917  0.6595
 5487TIP3    H216426   6.792   2.924   4.469  0.2658 -2.0678  0.0845
 5488TIP3   OH216427   0.552   3.275   4.313  0.1511  0.0647  0.9390
 5488TIP3    H116428   0.611   3.277   4.388  1.8172  0.3395 -0.3271
 5488TIP3    H216429   0.542   3.366   4.287  0.6389 -0.1198  0.0545
 5489TIP3   OH216430   6.239   3.462   1.487 -0.1418 -0.1208  0.0566
 5489TIP3    H116431   6.164   3.491   1.539 -1.4551 -0.4963 -1.5501
 5489TIP3    H216432   6.226   3.503   1.401  1.1225 -0.7531 -0.4667
 5490TIP3   OH216433   6.276   5.511   3.971 -0.1116  0.0925 -0.3192
 5490TIP3    H116434   6.363   5.477   3.953 -0.1699 -0.2727  0.0748
 5490TIP3    H216435   6.219   5.465   3.909  0.1352  1.1889 -1.3760
 5491TIP3   OH216436   5.156   1.794   4.731  0.0264  0.2595  0.2952
 5491TIP3    H116437   5.092   1.749   4.786  1.1192 -0.7054  0.8010
 5491TIP3    H216438   5.198   1.857   4.790  0.4770 -0.0438  0.2965
 5492TIP3   OH216439   6.896   2.839   5.008 -0.2908 -0.5804 -0.2267
 5492TIP3    H116440   6.903   2.867   5.099  0.8199 -0.7146 -0.2611
 5492TIP3    H216441   6.825   2.893   4.972 -0.0322  0.2289  0.4382
 5493TIP3   OH216442   6.505   5.602   5.190  0.0041 -0.1587 -0.0021
 5493TIP3    H116443   6.491   5.507   5.184  0.3335 -0.2832  1.0687
 5493TIP3    H216444   6.494   5.633   5.100 -1.1085 -1.0631 -0.1993
 5494TIP3   OH216445   5.168   0.427   2.625  0.0074 -0.1003  0.0996
 5494TIP3    H116446   5.122   0.345   2.605 -0.6918  0.6606 -1.6177
 5494TIP3    H216447   5.236   0.401   2.687 -3.0367 -1.1657  3.3230
 5495TIP3   OH216448   1.135   2.409   5.023 -0.1066 -0.4745  0.2811
 5495TIP3    H116449   1.225   2.390   5.049  0.5961  1.2162 -0.7658
 5495TIP3    H216450   1.101   2.468   5.090 -1.9472 -4.1916  2.9718
 5496TIP3   OH216451   2.106   6.545   4.604  0.0979 -0.8763  0.0882
 5496TIP3    H116452   2.019   6.581   4.623  0.2502 -0.8450  0.7415
 5496TIP3    H216453   2.094   6.494   4.524  0.0714  1.4431 -1.5099
 5497TIP3   OH216454   1.243   3.520   3.550  0.0049  0.7069  0.1795
 5497TIP3    H116455   1.211   3.587   3.490  2.5033  0.7319 -1.2479
 5497TIP3    H216456   1.339   3.525   3.543  0.2897 -2.1621  0.9914
 5498TIP3   OH216457   5.354   6.224   5.403  0.0822  0.1745  0.6468
 5498TIP3    H116458   5.356   6.316   5.378 -1.4520  0.2980  0.8861
 5498TIP3    H216459   5.274   6.215   5.454  0.7441 -1.0791  1.5259
 5499TIP3   OH216460   2.033   3.087   3.086  0.2335  0.0204 -0.5520
 5499TIP3    H116461   2.052   3.041   3.005  0.2643 -0.2940 -0.3668
 5499TIP3    H216462   2.009   3.018   3.148 -1.0526  0.3582 -0.6367
 5500TIP3   OH216463   1.427   1.706   3.992 -0.3001  0.8315 -0.2311
 5500TIP3    H116464   1.398   1.691   3.902  1.6127  2.9281 -1.3037
 5500TIP3    H216465   1.348   1.733   4.039 -1.0615  1.1048 -1.6326
 5501TIP3   OH216466   0.944   0.866   2.275  0.2964  0.2685  0.0797
 5501TIP3    H116467   0.865   0.813   2.285  0.8991 -0.3075  2.1008
 5501TIP3    H216468   0.969   0.889   2.364  3.3119 -0.9179 -0.3531
 5502TIP3   OH216469   4.353   2.299   1.864 -0.2552 -0.6835 -0.1276
 5502TIP3    H116470   4.364   2.271   1.954  0.2264  0.3552  0.1544
 5502TIP3    H216471   4.439   2.331   1.837 -0.4125 -0.9003 -0.9276
 5503TIP3   OH216472   4.917   6.543   3.592  0.0349  0.2720 -0.3862
 5503TIP3    H116473   4.980   6.471   3.585 -0.9355 -0.4907 -1.6202
 5503TIP3    H216474   4.869   6.525   3.673 -0.6352 -0.8442 -1.0155
 5504TIP3   OH216475   5.006   0.529   3.621  0.0422  0.1105  0.2517
 5504TIP3    H116476   4.946   0.512   3.694 -1.1108  1.4362 -0.3483
 5504TIP3    H216477   4.949   0.543   3.546  1.1661  0.2204 -0.6098
 5505TIP3   OH216478   7.164   1.065   1.908  0.1042  0.1988 -0.5203
 5505TIP3    H116479   7.177   0.981   1.862 -1.2564 -0.3080 -0.0395
 5505TIP3    H216480   7.141   1.040   1.997 -0.2169  1.0887 -0.3441
 5506TIP3   OH216481   1.394   0.715   0.249  0.1765  0.3514  0.1083
 5506TIP3    H116482   1.317   0.747   0.202  0.1078  2.2434  1.3790
 5506TIP3    H216483   1.468   0.748   0.198  0.1582 -0.2754 -0.3429
 5507TIP3   OH216484   4.218   5.566   5.683 -0.1241 -0.2105  0.4506
 5507TIP3    H116485   4.196   5.660   5.685  1.7839  0.2546  1.3435
 5507TIP3    H216486   4.213   5.538   5.774  0.8042 -0.6022  0.3897
 5508TIP3   OH216487   3.312   5.883   0.553 -0.3090 -0.0999 -0.0811
 5508TIP3    H116488   3.327   5.914   0.643 -1.3180  1.9632 -0.5763
 5508TIP3    H216489   3.385   5.918   0.503 -0.8914  0.6086 -0.4503
 5509TIP3   OH216490   4.549   4.372   1.043  0.2907 -0.0071 -0.4055
 5509TIP3    H116491   4.554   4.466   1.061  0.7033 -0.3606  1.5686
 5509TIP3    H216492   4.638   4.340   1.054 -0.3352 -1.1460  2.6091
 5510TIP3   OH216493   0.510   1.807   3.029  0.0132  0.3869 -0.4154
 5510TIP3    H116494   0.466   1.891   3.034  0.3121  0.5528 -0.5256
 5510TIP3    H216495   0.450   1.751   2.979 -0.9435  0.0295  1.0641
 5511TIP3   OH216496   1.944   6.131   1.573  0.0093  0.1810  0.6919
 5511TIP3    H116497   1.997   6.106   1.649  0.6092  3.9677  1.6985
 5511TIP3    H216498   1.855   6.106   1.598  0.5443 -1.1687  1.3869
 5512TIP3   OH216499   5.047   5.341   2.664  0.0499  0.4851 -0.4361
 5512TIP3    H116500   5.129   5.296   2.646  0.0992  0.3132  0.1968
 5512TIP3    H216501   5.070   5.409   2.727 -0.2255  0.6825 -0.5465
 5513TIP3   OH216502   3.672   3.893   5.613  0.3904  0.2710  0.6020
 5513TIP3    H116503   3.640   3.805   5.632  1.3668  0.2364  2.2549
 5513TIP3    H216504   3.687   3.933   5.699 -0.5121  2.2494 -0.1089
 5514TIP3   OH216505   2.328   4.753   2.974 -0.3403 -0.1426 -0.5966
 5514TIP3    H116506   2.368   4.754   3.061 -0.5126  2.0115 -0.4761
 5514TIP3    H216507   2.238   4.724   2.989 -1.4543  3.4323  0.5963
 5515TIP3   OH216508   0.494   5.219   0.344 -0.0579 -0.2041  0.2695
 5515TIP3    H116509   0.469   5.149   0.284 -1.0453 -0.0225  0.4596
 5515TIP3    H216510   0.580   5.248   0.312 -0.2784 -0.5338 -0.6593
 5516TIP3   OH216511   1.332   6.530   2.530 -0.7562  0.2388  0.3705
 5516TIP3    H116512   1.369   6.447   2.500 -2.6118 -0.0981 -1.2273
 5516TIP3    H216513   1.351   6.532   2.624 -1.3229 -2.3900  0.6385
 5517TIP3   OH216514   2.637   4.144   5.692  0.2550 -0.1772  0.8437
 5517TIP3    H116515   2.710   4.125   5.634  1.3220  1.7959  1.4536
 5517TIP3    H216516   2.639   4.074   5.758 -0.6913 -2.1847 -1.1198
 5518TIP3   OH216517   0.735   5.387   5.649  0.2848 -0.0447 -0.3903
 5518TIP3    H116518   0.710   5.327   5.719  0.5457  0.1808 -0.1008
 5518TIP3    H216519   0.715   5.474   5.683  1.6201  0.1565 -0.0712
 5519TIP3   OH216520   5.281   5.401   2.518 -0.3988 -0.8097 -0.0409
 5519TIP3    H116521   5.289   5.425   2.610 -0.3039 -0.2869 -0.1818
 5519TIP3    H216522   5.360   5.437   2.477 -0.9158 -0.1800 -0.5017
 5520TIP3   OH216523   5.153   0.096   3.973 -0.0342 -0.0918 -0.2101
 5520TIP3    H116524   5.118   0.143   4.049 -0.4660 -0.8807  0.0859
 5520TIP3    H216525   5.178   0.010   4.008 -0.6786 -0.6314 -1.0511
 5521TIP3   OH216526   6.209   0.392   0.839 -0.2737  0.3752  0.2656
 5521TIP3    H116527   6.115   0.408   0.853  0.1061  2.5435  0.6421
 5521TIP3    H216528   6.214   0.362   0.748 -1.3279  0.1475  0.2603
 5522TIP3   OH216529   2.509   1.805   0.528 -0.0881 -0.8686  0.5272
 5522TIP3    H116530   2.541   1.876   0.583  0.2754 -0.9628  0.4418
 5522TIP3    H216531   2.431   1.773   0.572 -0.0179 -0.6859  0.7838
 5523TIP3   OH216532   3.487   2.084   5.719 -0.0718 -0.1462 -0.3692
 5523TIP3    H116533   3.427   2.057   5.650  1.6098 -1.0783 -1.5279
 5523TIP3    H216534   3.512   2.002   5.762 -0.1002  0.2995  0.5193
 5524TIP3   OH216535   2.547   4.217   4.484  0.3006  0.2234  0.5403
 5524TIP3    H116536   2.601   4.138   4.491  1.0718  0.7136  0.3697
 5524TIP3    H216537   2.459   4.190   4.510  0.2436 -1.0111 -0.8516
 5525TIP3   OH216538   0.623   4.268   5.728 -0.7067  0.0142  0.0740
 5525TIP3    H116539   0.622   4.177   5.700  0.6267  0.1273 -0.4375
 5525TIP3    H216540   0.565   4.272   5.804 -1.6391 -1.0269 -0.5629
 5526TIP3   OH216541   1.961   1.612   0.923 -0.3274  0.5064 -0.1360
 5526TIP3    H116542   1.870   1.640   0.912 -0.4937 -0.2128 -0.5775
 5526TIP3    H216543   1.969   1.532   0.873 -0.2246 -1.0421  2.1861
 5527TIP3   OH216544   1.804   1.290   4.051  0.1069  0.7871  0.0946
 5527TIP3    H116545   1.739   1.356   4.074 -0.6225 -0.3239  1.3114
 5527TIP3    H216546   1.757   1.207   4.053  1.5239 -0.0378  0.9178
 5528TIP3   OH216547   5.181   5.278   5.416  0.0710  0.2452 -0.1616
 5528TIP3    H116548   5.105   5.223   5.435 -0.1117  0.6100  0.2086
 5528TIP3    H216549   5.187   5.280   5.321  0.2703 -0.6595 -0.1686
 5529TIP3   OH216550   1.959   6.764   3.824  0.1458 -0.5524  0.1084
 5529TIP3    H116551   1.944   6.762   3.730 -0.2188  1.8255  0.0506
 5529TIP3    H216552   2.049   6.733   3.835  0.0910 -1.1387 -0.9791
 5530TIP3   OH216553   5.583   0.272   1.160 -0.1000 -0.0081  0.0869
 5530TIP3    H116554   5.654   0.332   1.137  0.0628 -0.1577  0.1963
 5530TIP3    H216555   5.626   0.187   1.166 -0.8132 -0.7477 -3.1328
 5531TIP3   OH216556   4.213   2.199   5.404 -0.0095 -0.3834  0.0948
 5531TIP3    H116557   4.286   2.237   5.453  0.2622 -1.2721  0.4073
 5531TIP3    H216558   4.247   2.190   5.315  0.2485 -0.7322  0.2242
 5532TIP3   OH216559   1.031   0.854   3.107 -0.1653 -0.5317  0.1307
 5532TIP3    H116560   1.000   0.871   3.018 -0.4732  0.0906  0.3494
 5532TIP3    H216561   1.053   0.761   3.108 -0.2241 -0.5546 -0.5761
 5533TIP3   OH216562   0.501   0.659   0.119  0.1195 -0.3830 -0.0849
 5533TIP3    H116563   0.474   0.719   0.050  1.5445 -0.5947 -0.8724
 5533TIP3    H216564   0.422   0.645   0.171 -0.6052  1.0023 -0.7482
 5534TIP3   OH216565   3.704   5.299   2.343 -0.3473 -0.1935 -0.5357
 5534TIP3    H116566   3.701   5.369   2.278 -2.4752  0.4945  0.2209
 5534TIP3    H216567   3.750   5.228   2.300  1.7162  1.5443 -1.4160
 5535TIP3   OH216568   3.242   6.557   5.697  0.5195 -0.1350 -0.3768
 5535TIP3    H116569   3.276   6.632   5.744  0.4325 -0.9758  1.0840
 5535TIP3    H216570   3.203   6.501   5.765 -1.9342 -0.2031 -1.7056
 5536TIP3   OH216571   6.340   2.358   0.316  0.5180  0.1863  0.0581
 5536TIP3    H116572   6.407   2.395   0.374  0.8388  0.5021 -0.5031
 5536TIP3    H216573   6.310   2.279   0.361  0.2425  0.8063  0.9995
 5537TIP3   OH216574   1.954   2.579   2.386 -0.2424 -0.9677  0.2666
 5537TIP3    H116575   2.011   2.526   2.443 -0.3675 -1.0896  0.2787
 5537TIP3    H216576   1.876   2.595   2.438 -0.0715 -0.4970  0.3802
 5538TIP3   OH216577   7.009   6.337   0.457  0.7037  0.4500  0.1995
 5538TIP3    H116578   6.983   6.245   0.468 -2.7105  0.9308 -2.2666
 5538TIP3    H216579   7.066   6.337   0.381  0.4295  0.4215 -0.0055
 5539TIP3   OH216580   3.729   3.963   2.816 -0.4025  0.0214  0.3053
 5539TIP3    H116581   3.661   3.951   2.750 -0.5724  0.1735  0.4505
 5539TIP3    H216582   3.686   3.946   2.899 -0.0648 -0.6599  0.3457
 5540TIP3   OH216583   5.171   4.105   3.496  0.1671  0.3706  0.0526
 5540TIP3    H116584   5.158   4.187   3.543  1.1690  0.2978  0.4775
 5540TIP3    H216585   5.239   4.124   3.432  2.0133 -0.6606  1.6071
 5541TIP3   OH216586   3.992   2.412   2.353 -0.5731 -0.1328 -1.0031
 5541TIP3    H116587   3.909   2.435   2.395 -0.5221  1.4758 -1.7100
 5541TIP3    H216588   4.054   2.402   2.426 -1.1961 -0.5851 -0.5243
 5542TIP3   OH216589   2.458   2.402   3.844  0.2738  0.1114 -0.3144
 5542TIP3    H116590   2.434   2.312   3.821  1.7490 -0.3221 -0.2895
 5542TIP3    H216591   2.446   2.407   3.938  0.9743 -0.3282 -0.1950
 5543TIP3   OH216592   3.636   6.153   1.108 -0.0646  0.0727  0.5034
 5543TIP3    H116593   3.589   6.189   1.033  0.5884 -1.6623 -0.8047
 5543TIP3    H216594   3.571   6.098   1.152  0.9653 -3.9896 -2.4591
 5544TIP3   OH216595   6.833   6.053   1.644  0.1514 -0.0781  0.4779
 5544TIP3    H116596   6.762   6.117   1.635  0.4334  0.6515  2.8912
 5544TIP3    H216597   6.894   6.075   1.574 -1.3818  0.0620 -0.8753
 5545TIP3   OH216598   2.736   2.987   3.708  0.1766 -0.1192  0.3200
 5545TIP3    H116599   2.828   2.961   3.715  0.4748  0.5634 -0.7154
 5545TIP3    H216600   2.723   3.004   3.614 -0.9607 -0.0431  0.4701
 5546TIP3   OH216601   1.699   5.249   2.165 -0.0195  0.1526  0.0819
 5546TIP3    H116602   1.785   5.286   2.185  0.4666 -0.3182 -1.0301
 5546TIP3    H216603   1.680   5.280   2.076 -0.9761  0.1953  0.2874
 5547TIP3   OH216604   5.996   0.851   0.848 -0.2892 -0.0947  0.0489
 5547TIP3    H116605   6.004   0.760   0.819  1.1569  0.0959 -0.2391
 5547TIP3    H216606   6.026   0.850   0.939 -0.6724  0.0344  0.1790
 5548TIP3   OH216607   3.664   1.879   1.615  0.2396  0.3150 -0.1835
 5548TIP3    H116608   3.621   1.803   1.575  0.5744  1.0057 -1.9792
 5548TIP3    H216609   3.735   1.901   1.554 -0.4140  2.6104 -0.2167
 5549TIP3   OH216610   6.513   1.170   5.399 -0.2805 -0.3983  0.2125
 5549TIP3    H116611   6.492   1.128   5.482  0.9252 -0.2913  0.5944
 5549TIP3    H216612   6.435   1.158   5.345 -0.3981 -2.0650  0.7185
 5550TIP3   OH216613   5.045   4.585   2.442 -0.1301  0.3742  0.5320
 5550TIP3    H116614   5.039   4.494   2.470 -0.7153  0.3218  0.2596
 5550TIP3    H216615   5.131   4.593   2.402  0.0766  0.0420  0.9121
 5551TIP3   OH216616   0.247   6.595   0.813  0.1454 -0.2294  0.2006
 5551TIP3    H116617   0.228   6.532   0.743 -0.1939  0.8276 -0.6807
 5551TIP3    H216618   0.164   6.640   0.827  0.8381  1.3424 -0.5322
 5552TIP3   OH216619   4.714   0.109   2.193  0.4483  0.2943 -0.7330
 5552TIP3    H116620   4.713   0.148   2.105  1.4092  2.4055  0.1264
 5552TIP3    H216621   4.640   0.150   2.238  1.4221  1.0782  0.1744
 5553TIP3   OH216622   6.938   1.922   3.629 -0.5404  0.1834 -0.1284
 5553TIP3    H116623   6.983   1.839   3.646 -1.1828 -0.0918  0.2241
 5553TIP3    H216624   6.846   1.899   3.621 -0.6358  0.7604 -0.7889
 5554TIP3   OH216625   5.153   4.123   0.026  0.4371 -0.5140 -0.1757
 5554TIP3    H116626   5.187   4.187  -0.037  1.8453  1.0665  2.0326
 5554TIP3    H216627   5.231   4.083   0.064 -0.1505  0.6694  2.5412
 5555TIP3   OH216628   3.154   4.935   3.543  0.0136  0.0854  0.1445
 5555TIP3    H116629   3.213   4.959   3.614 -1.6351  1.4585  1.1165
 5555TIP3    H216630   3.171   5.000   3.475  0.5414 -0.3359 -0.1371
 5556TIP3   OH216631   1.779   6.786   3.316  0.0354 -0.1356  0.2107
 5556TIP3    H116632   1.720   6.858   3.293  0.7472 -0.1605 -1.9151
 5556TIP3    H216633   1.727   6.707   3.298 -0.7462 -0.2366  2.5422
 5557TIP3   OH216634   3.723   6.727   4.817  0.2138  0.1307 -0.4024
 5557TIP3    H116635   3.765   6.798   4.865  0.1534  1.4353 -2.1694
 5557TIP3    H216636   3.792   6.661   4.807  0.5171  0.2823  0.5414
 5558TIP3   OH216637   6.335   6.016   2.519 -0.0704  0.1119 -0.7974
 5558TIP3    H116638   6.375   5.936   2.486  0.4206 -0.0276  0.0997
 5558TIP3    H216639   6.405   6.082   2.515 -0.0547  0.1354 -0.2171
 5559TIP3   OH216640   0.762   1.562   4.735 -0.1100 -0.1314 -0.0833
 5559TIP3    H116641   0.694   1.511   4.778  1.5435 -0.7144  1.9882
 5559TIP3    H216642   0.717   1.605   4.662 -2.4055 -1.4100  0.4850
 5560TIP3   OH216643   1.016   4.413   3.830  0.5990  0.0882  0.5059
 5560TIP3    H116644   0.981   4.475   3.894  0.6795  0.1363  0.5032
 5560TIP3    H216645   0.941   4.359   3.806  0.5302  0.1785  0.5156
 5561TIP3   OH216646   5.521   1.590   3.400 -0.4820  0.0059  1.1947
 5561TIP3    H116647   5.471   1.535   3.340  3.3438 -0.6002 -1.8651
 5561TIP3    H216648   5.552   1.663   3.346  1.0608  0.8503  3.0842
 5562TIP3   OH216649   4.827   2.253   4.971 -0.7547 -0.4766 -0.3273
 5562TIP3    H116650   4.912   2.219   4.945 -0.4884  0.1770 -0.3213
 5562TIP3    H216651   4.787   2.282   4.889 -0.9093 -0.6272 -0.3075
 5563TIP3   OH216652   2.199   2.676   0.989  0.0745  0.4429  0.5271
 5563TIP3    H116653   2.251   2.622   0.930 -0.3576  0.9698 -0.3562
 5563TIP3    H216654   2.111   2.676   0.950 -0.3525  0.3308  1.4787
 5564TIP3   OH216655   2.808   1.419   0.882 -0.2659  0.1371 -0.3542
 5564TIP3    H116656   2.731   1.443   0.832  0.0837 -1.6902 -1.8768
 5564TIP3    H216657   2.832   1.498   0.930 -0.9792  1.8140 -2.6169
 5565TIP3   OH216658   1.533   4.431   4.797  0.3529 -0.1856  0.2871
 5565TIP3    H116659   1.561   4.436   4.888  0.6292  0.9236  0.1548
 5565TIP3    H216660   1.591   4.491   4.751 -0.0543 -0.4286 -0.5540
 5566TIP3   OH216661   2.679   0.095   4.707 -0.4003 -0.3157 -0.1194
 5566TIP3    H116662   2.741   0.025   4.727  0.4227  0.3508 -0.2723
 5566TIP3    H216663   2.595   0.051   4.697  0.3634 -1.5015 -1.7566
 5567TIP3   OH216664   5.758   6.562   5.491  0.0559  0.0292  0.1692
 5567TIP3    H116665   5.781   6.486   5.545 -0.0819 -0.5958 -0.6408
 5567TIP3    H216666   5.689   6.530   5.433 -1.4038  1.3066  1.1214
 5568TIP3   OH216667   6.893   5.588   3.540  0.0828 -0.1510  0.0557
 5568TIP3    H116668   6.873   5.542   3.621  2.4033  0.1500  0.8683
 5568TIP3    H216669   6.843   5.669   3.545 -1.2426 -0.9491  0.2744
 5569TIP3   OH216670   3.634   1.555   5.529 -0.0408  0.2040 -0.0482
 5569TIP3    H116671   3.541   1.541   5.510  0.1473  0.2158 -1.0221
 5569TIP3    H216672   3.677   1.553   5.443  0.7901  0.7315  0.3405
 5570TIP3   OH216673   1.650   4.220   2.165 -0.0509 -0.2036 -0.4572
 5570TIP3    H116674   1.571   4.167   2.158 -0.5603  0.4660 -0.0389
 5570TIP3    H216675   1.716   4.174   2.115 -0.8174 -0.5827 -1.1272
 5571TIP3   OH216676   4.614   4.230   3.394 -0.5225 -0.2543  0.1561
 5571TIP3    H116677   4.679   4.288   3.434 -1.4409 -0.0804  1.4480
 5571TIP3    H216678   4.627   4.146   3.436 -0.9466 -0.2913  0.2154
 5572TIP3   OH216679   3.465   3.790   4.299  0.7320 -0.4422 -0.5534
 5572TIP3    H116680   3.494   3.881   4.292 -1.7982  0.3989 -1.3308
 5572TIP3    H216681   3.484   3.765   4.389  0.2087  1.3596  0.0889
 5573TIP3   OH216682   1.439   1.422   2.396  0.4690  1.1583 -0.2691
 5573TIP3    H116683   1.414   1.512   2.416 -0.4168  1.1780 -1.3736
 5573TIP3    H216684   1.473   1.426   2.306 -0.5943  0.2224 -0.7285
 5574TIP3   OH216685   0.732   0.811   0.821 -0.0594 -0.6378  0.1280
 5574TIP3    H116686   0.791   0.873   0.864 -0.3022 -0.8305  0.7492
 5574TIP3    H216687   0.672   0.867   0.771  0.6548 -0.4413 -0.5381
 5575TIP3   OH216688   4.048   0.894   1.596  0.5019  0.2930 -0.8855
 5575TIP3    H116689   3.999   0.963   1.639  0.2216  0.1239 -0.9290
 5575TIP3    H216690   3.981   0.833   1.564  0.5939  1.1396 -2.8422
 5576TIP3   OH216691   4.868   3.752   1.976 -0.6812  0.2534  0.1064
 5576TIP3    H116692   4.912   3.753   1.891  1.9499  0.0856  1.3585
 5576TIP3    H216693   4.937   3.729   2.038 -2.3567  1.0324  2.3889
 5577TIP3   OH216694   4.307   2.576   5.216  0.0686  0.4750 -0.2931
 5577TIP3    H116695   4.251   2.648   5.186  0.5290  1.2283  0.6324
 5577TIP3    H216696   4.274   2.499   5.168  0.0037  1.4058 -1.8042
 5578TIP3   OH216697   3.762   0.809   1.249 -0.1318  0.2820 -0.3338
 5578TIP3    H116698   3.780   0.776   1.338 -2.0278 -0.7042 -0.2465
 5578TIP3    H216699   3.764   0.731   1.194 -1.5049  0.4737 -0.6948
 5579TIP3   OH216700   6.221   6.498   0.883 -0.0036 -0.3638  0.4408
 5579TIP3    H116701   6.204   6.473   0.792  1.8081 -0.8221  0.1949
 5579TIP3    H216702   6.283   6.433   0.914  1.2841  1.1891  1.2359
 5580TIP3   OH216703   0.845   0.604   2.347 -0.0790 -0.2627 -0.8276
 5580TIP3    H116704   0.833   0.558   2.264  0.0210 -0.4910 -0.7174
 5580TIP3    H216705   0.875   0.536   2.407  1.1046  0.1638 -0.9264
 5581TIP3   OH216706   0.593   6.556   1.172 -0.1772 -0.9293  0.4646
 5581TIP3    H116707   0.501   6.562   1.149 -0.2094 -0.2383  0.7559
 5581TIP3    H216708   0.616   6.643   1.204  1.5241  0.0638 -2.9827
 5582TIP3   OH216709   6.405   3.246   0.765  0.7745 -0.2667 -0.3099
 5582TIP3    H116710   6.327   3.268   0.713  0.6591 -0.3947 -0.1901
 5582TIP3    H216711   6.419   3.153   0.748 -0.3959 -0.7935  1.3925
 5583TIP3   OH216712   6.006   0.232   1.166 -0.3545 -0.5337  0.4978
 5583TIP3    H116713   5.933   0.214   1.107  1.3623 -1.6143 -1.4011
 5583TIP3    H216714   6.046   0.312   1.131  0.7648 -1.2562  0.0962
 5584TIP3   OH216715   4.387   5.527   3.299 -0.0251  0.2311  0.4360
 5584TIP3    H116716   4.404   5.618   3.274 -1.4479  0.8059  1.3937
 5584TIP3    H216717   4.291   5.519   3.293  0.1935 -1.8740 -1.7642
 5585TIP3   OH216718   6.247   0.062   0.809  0.0172 -0.3340  0.0051
 5585TIP3    H116719   6.328   0.109   0.789  0.1953 -1.2757 -1.6179
 5585TIP3    H216720   6.272   0.002   0.880  0.6442 -0.3522 -0.2230
 5586TIP3   OH216721   1.440   5.132   0.382 -0.4011 -0.1195  0.0471
 5586TIP3    H116722   1.460   5.046   0.344  2.1227  0.5580 -0.3301
 5586TIP3    H216723   1.477   5.195   0.320 -1.7338  1.2688  0.5922
 5587TIP3   OH216724   2.858   2.909   2.460 -0.6043  0.2946  0.4261
 5587TIP3    H116725   2.939   2.907   2.511  0.2906  2.0796 -0.8160
 5587TIP3    H216726   2.797   2.959   2.514  0.3825  2.3024 -0.2125
 5588TIP3   OH216727   1.051   0.078   1.039  0.4677  0.0609  0.2798
 5588TIP3    H116728   1.106   0.148   1.005 -0.6964  0.9728  0.2220
 5588TIP3    H216729   0.968   0.121   1.062  0.6677 -0.7675  2.8609
 5589TIP3   OH216730   4.172   3.635   5.433 -0.1279  0.1000  0.2127
 5589TIP3    H116731   4.211   3.722   5.445  0.9181 -0.5697  2.0347
 5589TIP3    H216732   4.089   3.652   5.388  0.4676  1.9446 -0.2662
 5590TIP3   OH216733   1.732   4.060   2.458  0.3828 -0.1681 -0.0608
 5590TIP3    H116734   1.818   4.034   2.423  0.0083 -0.4942 -0.7513
 5590TIP3    H216735   1.673   4.053   2.383 -0.0653  0.9838  0.1729
 5591TIP3   OH216736   5.625   0.372   2.227 -0.2802  0.1136 -0.2858
 5591TIP3    H116737   5.691   0.376   2.296 -0.1056  0.0077 -0.4432
 5591TIP3    H216738   5.593   0.461   2.218 -1.3187 -0.1132  0.8977
 5592TIP3   OH216739   5.037   4.879   3.455 -0.0461  0.9398 -0.3658
 5592TIP3    H116740   5.088   4.878   3.374 -0.0241 -0.1230 -0.3455
 5592TIP3    H216741   4.951   4.914   3.429  0.0671  0.9155 -0.7738
 5593TIP3   OH216742   0.381   6.228   4.178 -0.5095  0.1823 -0.0133
 5593TIP3    H116743   0.404   6.297   4.116 -1.8192  0.3101 -0.3839
 5593TIP3    H216744   0.462   6.211   4.227  0.6709 -0.1445 -1.9660
 5594TIP3   OH216745   3.377   4.861   5.421 -0.3120 -0.3524  0.2857
 5594TIP3    H116746   3.420   4.851   5.336  0.0162  1.2758  0.2136
 5594TIP3    H216747   3.371   4.773   5.456  2.3432 -0.7602 -0.0704
 5595TIP3   OH216748   5.080   4.875   0.273  0.5501 -0.1941 -0.3946
 5595TIP3    H116749   5.062   4.795   0.322 -0.2933  0.5474  0.5384
 5595TIP3    H216750   4.993   4.911   0.253  0.9245  1.0966  0.2157
 5596TIP3   OH216751   4.688   2.371   2.774  0.3490 -0.0891  0.1666
 5596TIP3    H116752   4.650   2.299   2.825 -0.4567  0.8264  0.8829
 5596TIP3    H216753   4.782   2.350   2.770  0.1721 -1.0272  0.6034
 5597TIP3   OH216754   0.884   3.186   3.236 -0.1204  0.6482  0.1376
 5597TIP3    H116755   0.857   3.111   3.183  2.6678 -0.3831  0.0070
 5597TIP3    H216756   0.874   3.156   3.327 -0.7655  0.8246  0.1302
 5598TIP3   OH216757   1.348   4.383   1.129  0.5126 -0.1928 -0.3766
 5598TIP3    H116758   1.443   4.386   1.138  0.5124 -0.7724 -0.1793
 5598TIP3    H216759   1.321   4.475   1.136  1.0944  0.0251 -0.8966
 5599TIP3   OH216760   0.438   1.121   4.600  0.3017 -0.3373  0.2793
 5599TIP3    H116761   0.352   1.100   4.637 -0.3674 -0.1782 -1.1146
 5599TIP3    H216762   0.450   1.214   4.618  0.5052 -0.5118  1.0811
 5600TIP3   OH216763   0.056   4.375   2.685 -0.2162  0.2904  0.2108
 5600TIP3    H116764   0.057   4.470   2.696  0.0326  0.3091  0.0502
 5600TIP3    H216765   0.140   4.346   2.722 -0.7184  0.0247  1.1608
 5601TIP3   OH216766   3.692   1.350   0.172 -0.0044  0.1502  0.2858
 5601TIP3    H116767   3.747   1.320   0.099  0.5162  1.4070  0.1372
 5601TIP3    H216768   3.625   1.404   0.130  0.3930  1.0091  0.7287
 5602TIP3   OH216769   0.843   6.657   2.455  0.0729 -0.7102 -0.0493
 5602TIP3    H116770   0.826   6.750   2.469 -1.0376 -1.2469  2.8989
 5602TIP3    H216771   0.933   6.644   2.487  0.3344 -0.6041 -0.7376
 5603TIP3   OH216772   3.017   4.414   5.854 -0.1058 -0.1344 -0.1004
 5603TIP3    H116773   2.940   4.431   5.800  1.4957  0.4965 -2.3222
 5603TIP3    H216774   3.023   4.491   5.910 -0.3216  0.4707 -0.8816
 5604TIP3   OH216775   4.385   3.504   5.325  0.3461  0.1767  0.7020
 5604TIP3    H116776   4.347   3.498   5.238 -0.0257  0.0339  0.8718
 5604TIP3    H216777   4.316   3.544   5.379 -0.0605 -1.2802  1.2981
 5605TIP3   OH216778   1.861   1.798   2.386 -0.1197  0.2700  0.4413
 5605TIP3    H116779   1.901   1.725   2.432 -0.5207 -0.8982 -0.9597
 5605TIP3    H216780   1.773   1.805   2.422 -0.5851 -0.9294 -0.4080
 5606TIP3   OH216781   4.296   5.043   2.774 -0.5045  0.0806 -0.3551
 5606TIP3    H116782   4.274   4.966   2.722 -0.4312  0.1864 -0.5423
 5606TIP3    H216783   4.229   5.045   2.843 -0.4508 -0.2036 -0.2910
 5607TIP3   OH216784   0.103   3.169   0.368 -0.2964  0.0975 -0.0388
 5607TIP3    H116785   0.043   3.242   0.354  0.8516  1.2055  0.6433
 5607TIP3    H216786   0.073   3.129   0.450 -0.3930  0.3416  0.0455
 5608TIP3   OH216787   6.194   5.077   2.504 -0.4109  0.1007 -0.6251
 5608TIP3    H116788   6.264   5.013   2.514 -0.8955 -0.1846  1.1172
 5608TIP3    H216789   6.127   5.031   2.454 -1.5401 -1.4801  2.1471
 5609TIP3   OH216790   3.104   1.174   5.683  0.5051 -0.0138  0.5050
 5609TIP3    H116791   3.090   1.232   5.608  0.6313 -1.8775 -1.0525
 5609TIP3    H216792   3.199   1.173   5.696  0.4105  1.1922  1.4817
 5610TIP3   OH216793   1.511   6.523   0.167 -0.0713 -0.1204  0.2887
 5610TIP3    H116794   1.561   6.603   0.154 -0.4833  0.2386  0.8869
 5610TIP3    H216795   1.443   6.547   0.230 -0.0116 -1.0185  0.7046
 5611TIP3   OH216796   6.968   4.623   1.181 -0.2170 -0.4200  0.4171
 5611TIP3    H116797   6.909   4.667   1.120 -0.6458 -2.1851 -0.4858
 5611TIP3    H216798   6.926   4.634   1.266 -1.1263 -0.4435 -0.0170
 5612TIP3   OH216799   5.621   2.963   5.622 -0.1866  0.0104 -0.1554
 5612TIP3    H116800   5.690   3.026   5.643  0.1695  0.2243 -1.8612
 5612TIP3    H216801   5.540   3.009   5.644  0.0813  0.9926 -1.1191
 5613TIP3   OH216802   5.062   3.190   5.360 -0.0781 -0.0738  0.3782
 5613TIP3    H116803   5.031   3.237   5.282 -1.0148 -0.1794  0.6665
 5613TIP3    H216804   5.116   3.253   5.407  2.1020 -0.5881 -1.2840
 5614TIP3   OH216805   6.708   5.781   2.614 -0.4484  0.4851 -0.1753
 5614TIP3    H116806   6.680   5.747   2.699 -1.9332  0.1721 -0.7695
 5614TIP3    H216807   6.741   5.869   2.633  0.2373  0.0198  0.8688
 5615TIP3   OH216808   3.095   3.768   1.890 -0.2489 -0.2145 -0.1568
 5615TIP3    H116809   3.028   3.806   1.834 -0.5738  1.5073  1.2979
 5615TIP3    H216810   3.156   3.840   1.908  1.0630 -1.2970 -0.0500
 5616TIP3   OH216811   4.743   5.524   1.135 -0.1711  0.3917  0.1093
 5616TIP3    H116812   4.744   5.602   1.079 -0.0636  0.2357 -0.1091
 5616TIP3    H216813   4.802   5.545   1.207  1.6536 -0.3196 -1.0976
 5617TIP3   OH216814   1.738   0.220   3.690 -0.0475  0.6595  0.1145
 5617TIP3    H116815   1.691   0.158   3.634  0.7452  1.4806 -1.5194
 5617TIP3    H216816   1.686   0.300   3.686  0.8288  1.2020 -0.7360
 5618TIP3   OH216817   1.114   1.568   2.764  0.2131 -0.1849  0.1247
 5618TIP3    H116818   1.146   1.618   2.689  0.2291  1.6407  1.2852
 5618TIP3    H216819   1.108   1.478   2.732 -0.9744  0.7153 -2.4174
 5619TIP3   OH216820   4.790   2.530   0.579  0.4855  0.4345  0.0473
 5619TIP3    H116821   4.805   2.518   0.485 -1.7915 -0.1693 -0.3088
 5619TIP3    H216822   4.799   2.624   0.593  1.3636  0.4737 -0.6555
 5620TIP3   OH216823   6.192   1.824   1.243  0.0058 -0.0665 -0.7020
 5620TIP3    H116824   6.203   1.877   1.164  1.3322  1.1691  0.2581
 5620TIP3    H216825   6.256   1.754   1.234  0.1093  0.0338 -0.7429
 5621TIP3   OH216826   2.820   3.133   0.225  0.1231 -0.1873 -0.5040
 5621TIP3    H116827   2.726   3.116   0.228  0.1763 -0.3895  0.3778
 5621TIP3    H216828   2.832   3.193   0.151 -0.8603  0.8134  0.1171
 5622TIP3   OH216829   2.889   3.255   3.216  0.1098  0.5772  0.4410
 5622TIP3    H116830   2.884   3.351   3.217 -0.0411  0.5634  0.9840
 5622TIP3    H216831   2.979   3.237   3.191 -0.1090  0.8513 -0.6289
 5623TIP3   OH216832   1.336   6.735   0.656  0.9603 -0.0739 -0.0649
 5623TIP3    H116833   1.425   6.720   0.624  1.1250 -2.8353  1.3411
 5623TIP3    H216834   1.348   6.772   0.743  0.5634  3.6970 -1.4478
 5624TIP3   OH216835   1.496   1.705   2.207 -0.1397 -0.1830  0.1660
 5624TIP3    H116836   1.405   1.726   2.227  0.5262  0.4179  3.0359
 5624TIP3    H216837   1.545   1.785   2.228  1.2828 -1.2174  0.9764
 5625TIP3   OH216838   0.549   4.520   4.362 -0.6802 -0.1446 -0.0110
 5625TIP3    H116839   0.636   4.493   4.332 -0.1583  0.2845  1.0465
 5625TIP3    H216840   0.513   4.443   4.406  0.7005  0.6800  2.7791
 5626TIP3   OH216841   3.514   6.171   4.675 -0.1174  0.3958  0.3735
 5626TIP3    H116842   3.489   6.262   4.691 -1.3308  0.5169 -1.9382
 5626TIP3    H216843   3.473   6.148   4.592  2.1242 -1.5228 -0.3147
 5627TIP3   OH216844   4.919   1.973   4.836 -0.2429  0.1872 -0.0075
 5627TIP3    H116845   4.955   1.915   4.903 -0.9549  1.5779  1.6701
 5627TIP3    H216846   4.973   2.052   4.841 -0.0268  0.1459 -1.4062
 5628TIP3   OH216847   3.965   1.857   0.704 -0.3076  0.1974 -0.0442
 5628TIP3    H116848   3.908   1.872   0.780  0.5097  0.8531  0.4592
 5628TIP3    H216849   4.037   1.918   0.716  0.0721 -0.0121 -1.1241
 5629TIP3   OH216850   5.490   4.290   5.643 -0.6556  0.2484 -0.0243
 5629TIP3    H116851   5.478   4.258   5.554 -1.7309  1.0944 -0.2073
 5629TIP3    H216852   5.410   4.340   5.661 -1.2822 -1.3178  2.0364
 5630TIP3   OH216853   5.286   0.934   4.882 -0.0012  0.5573  0.3785
 5630TIP3    H116854   5.212   0.991   4.900 -0.7138 -0.6036  1.2328
 5630TIP3    H216855   5.306   0.892   4.965 -0.2657 -1.3130 -0.4476
 5631TIP3   OH216856   3.694   3.206   5.276  0.0039 -0.9831 -0.1484
 5631TIP3    H116857   3.728   3.127   5.234  2.1109 -1.5465  2.3752
 5631TIP3    H216858   3.761   3.272   5.261 -0.7302 -0.2735 -0.3761
 5632TIP3   OH216859   1.501   1.854   2.885 -0.3966  0.2202 -0.1887
 5632TIP3    H116860   1.453   1.906   2.820  2.2395  0.3834 -2.1741
 5632TIP3    H216861   1.580   1.906   2.903  0.2222 -1.0988  1.1129
 5633TIP3   OH216862   0.654   2.603   0.408 -0.5728  0.3572  0.1836
 5633TIP3    H116863   0.636   2.566   0.494 -1.6748  1.4361  0.4437
 5633TIP3    H216864   0.749   2.597   0.398 -0.6093 -1.6679  0.5754
 5634TIP3   OH216865   6.456   3.686   3.257  0.5247  0.3215  0.0926
 5634TIP3    H116866   6.494   3.685   3.170  1.4148 -0.2155  0.4674
 5634TIP3    H216867   6.362   3.675   3.243  0.6142  0.6681 -0.8077
 5635TIP3   OH216868   5.156   2.056   2.033  0.0570  0.1182  0.0194
 5635TIP3    H116869   5.191   2.066   1.945  0.2602  0.9794  0.1816
 5635TIP3    H216870   5.094   1.984   2.027 -0.4393  0.6140 -0.9768
 5636TIP3   OH216871   3.305   6.317   0.674 -0.2357 -0.2572 -0.3938
 5636TIP3    H116872   3.241   6.386   0.692 -1.6313 -0.7357 -2.9694
 5636TIP3    H216873   3.256   6.251   0.625  2.1974 -0.6700 -2.4989
 5637TIP3   OH216874   6.515   5.840   5.713  0.6444  0.1096 -0.1681
 5637TIP3    H116875   6.590   5.892   5.685  0.6417 -0.7244 -1.8085
 5637TIP3    H216876   6.493   5.786   5.638 -0.7967 -0.6140  0.7225
 5638TIP3   OH216877   4.151   3.387   4.507  0.1127 -0.3301  0.2253
 5638TIP3    H116878   4.123   3.448   4.439 -0.4931  0.0000  0.7624
 5638TIP3    H216879   4.126   3.301   4.474  2.0125 -0.4410 -1.0656
 5639TIP3   OH216880   0.350   3.980   4.058 -0.0807  0.1779  0.3597
 5639TIP3    H116881   0.311   3.982   4.145  0.6220 -0.1849  0.6957
 5639TIP3    H216882   0.444   3.974   4.075  0.0208 -0.6636 -0.4172
 5640TIP3   OH216883   1.329   5.848   5.241  0.3714  0.5326  0.2423
 5640TIP3    H116884   1.299   5.861   5.151 -0.6958  0.6714  0.6036
 5640TIP3    H216885   1.276   5.908   5.293  0.3372 -0.1993  1.0717
 5641TIP3   OH216886   3.126   1.506   1.021 -0.1292 -0.6816 -0.2134
 5641TIP3    H116887   3.214   1.544   1.025  0.2784 -1.6345  0.1734
 5641TIP3    H216888   3.075   1.557   1.085  0.5784 -1.1713  0.7756
 5642TIP3   OH216889   6.926   3.516   1.056  0.0448  0.2647 -0.1445
 5642TIP3    H116890   6.988   3.584   1.030 -0.1071  0.4689  0.0252
 5642TIP3    H216891   6.941   3.504   1.150 -0.6647  0.8265  0.0492
 5643TIP3   OH216892   3.953   2.069   5.789 -0.1425  0.3151  0.1953
 5643TIP3    H116893   3.879   2.081   5.847 -0.0835  0.7155  0.1909
 5643TIP3    H216894   3.985   1.981   5.809 -1.1744 -0.2253 -0.4485
 5644TIP3   OH216895   5.500   3.951   3.966 -0.2264 -0.7178  0.7885
 5644TIP3    H116896   5.508   3.861   3.997 -0.5170 -1.2844 -0.6819
 5644TIP3    H216897   5.431   3.947   3.899  1.0940  0.1933 -0.7026
 5645TIP3   OH216898   0.109   4.108   0.990  0.9176 -0.1923 -0.3378
 5645TIP3    H116899   0.201   4.120   1.013  1.1103 -1.4302 -0.3983
 5645TIP3    H216900   0.104   4.019   0.955 -0.1233  0.1996 -1.2555
 5646TIP3   OH216901   3.114   4.290   3.612 -0.1360  0.8406 -0.7802
 5646TIP3    H116902   3.049   4.289   3.542  1.2266 -1.2526 -2.1315
 5646TIP3    H216903   3.191   4.331   3.573  0.1546  1.1006  0.0286
 5647TIP3   OH216904   4.469   4.808   2.906  0.3209  0.4348  0.0810
 5647TIP3    H116905   4.470   4.903   2.907  1.4130  0.4354  0.2276
 5647TIP3    H216906   4.440   4.783   2.994  0.0834  0.6276  0.0577
 5648TIP3   OH216907   3.435   5.765   1.932  0.1535  0.5760 -0.3851
 5648TIP3    H116908   3.458   5.813   1.852 -2.5162  1.1491 -0.8943
 5648TIP3    H216909   3.480   5.681   1.923  1.1368  1.1999 -1.7396
 5649TIP3   OH216910   2.549   3.715   5.408 -0.6318  0.2941 -0.3794
 5649TIP3    H116911   2.574   3.622   5.403 -1.7303 -0.0152 -0.4915
 5649TIP3    H216912   2.610   3.759   5.349 -0.1929 -0.3793 -0.4460
 5650TIP3   OH216913   2.866   1.506   4.335 -0.0962 -0.3988  0.6230
 5650TIP3    H116914   2.841   1.418   4.364  1.0748 -1.1424 -0.5491
 5650TIP3    H216915   2.913   1.492   4.253  0.4093  1.3019  0.5899
 5651TIP3   OH216916   1.044   6.298   1.100  0.3405  0.4554 -0.0825
 5651TIP3    H116917   0.959   6.262   1.077  0.5045 -0.3811  0.5509
 5651TIP3    H216918   1.077   6.240   1.169  2.2536 -0.3731 -1.6072
 5652TIP3   OH216919   1.600   1.504   4.064  0.4130 -0.1631  0.0603
 5652TIP3    H116920   1.573   1.595   4.074 -1.5899 -0.6748 -0.2665
 5652TIP3    H216921   1.569   1.479   3.977  0.6864 -1.2444  0.2552
 5653TIP3   OH216922   5.965   0.817   0.196  0.1032 -0.0029 -0.2101
 5653TIP3    H116923   5.902   0.783   0.260  0.3192 -0.1222 -0.0583
 5653TIP3    H216924   5.978   0.908   0.222 -1.5953  0.6388 -1.5029
 5654TIP3   OH216925   1.266   3.179   2.096  0.2114  0.0477 -0.1330
 5654TIP3    H116926   1.350   3.181   2.142  0.3640  0.7338 -0.4354
 5654TIP3    H216927   1.204   3.217   2.158  0.1522 -0.2889  0.0193
 5655TIP3   OH216928   6.787   6.535   5.583 -0.3010 -0.2440  0.0200
 5655TIP3    H116929   6.773   6.526   5.677 -0.6828 -1.9391 -0.1630
 5655TIP3    H216930   6.800   6.446   5.552  0.3111  0.3286 -1.4745
 5656TIP3   OH216931   3.874   5.655   4.769  0.5147  0.0141 -0.7216
 5656TIP3    H116932   3.914   5.742   4.761 -0.1329  0.4320  0.3391
 5656TIP3    H216933   3.944   5.594   4.747  1.1582  0.7882 -0.8679
 5657TIP3   OH216934   5.930   0.257   2.699  0.4734  0.1375 -0.4521
 5657TIP3    H116935   5.955   0.302   2.780 -0.4090  1.0336 -0.6473
 5657TIP3    H216936   5.945   0.165   2.717 -0.3196  0.2521  0.9788
 5658TIP3   OH216937   7.033   5.547   2.833  0.4594 -0.0052  0.1898
 5658TIP3    H116938   7.099   5.597   2.882  1.0798 -0.1904 -0.4423
 5658TIP3    H216939   7.023   5.466   2.882  0.6544  0.0543  0.3292
 5659TIP3   OH216940   0.445   1.362   3.072 -0.8910 -0.6504 -0.2804
 5659TIP3    H116941   0.366   1.399   3.033 -1.6589  0.5543  2.1622
 5659TIP3    H216942   0.432   1.373   3.167  0.7087 -3.5358  0.3887
 5660TIP3   OH216943   4.621   4.053   4.926 -0.1615 -0.0041  0.4731
 5660TIP3    H116944   4.628   4.017   5.014 -2.4613  3.7192  2.4442
 5660TIP3    H216945   4.548   4.005   4.886 -0.2568 -0.5323  1.2637
 5661TIP3   OH216946   5.864   2.126   5.248 -0.0613 -0.0825 -0.2305
 5661TIP3    H116947   5.894   2.204   5.294 -0.1640 -0.7788  1.0436
 5661TIP3    H216948   5.769   2.134   5.247 -0.0405  0.1955 -0.8302
 5662TIP3   OH216949   0.593   1.780   2.315  0.1913  0.7795 -0.2741
 5662TIP3    H116950   0.560   1.851   2.370 -0.1532  0.9374 -0.6856
 5662TIP3    H216951   0.536   1.780   2.238 -0.0355 -0.1689 -0.1172
 5663TIP3   OH216952   4.741   3.282   4.706  0.5545  0.3651  0.4073
 5663TIP3    H116953   4.724   3.295   4.799 -0.8106 -1.0271  0.4031
 5663TIP3    H216954   4.696   3.355   4.663  2.4275  1.8520  0.8723
 5664TIP3   OH216955   6.907   4.986   2.398  0.4158  0.0647  1.0632
 5664TIP3    H116956   6.984   4.929   2.389 -1.6720 -2.9205  0.3847
 5664TIP3    H216957   6.914   5.048   2.326  0.0832 -3.0830 -1.9746
 5665TIP3   OH216958   3.832   6.291   5.265  0.3842  0.1865 -0.4891
 5665TIP3    H116959   3.834   6.299   5.170  0.1649 -1.3082 -0.6406
 5665TIP3    H216960   3.887   6.363   5.296 -0.8812  1.7444 -1.6517
 5666TIP3   OH216961   0.401   6.528   4.393  0.5061  0.1854  0.6065
 5666TIP3    H116962   0.442   6.509   4.308 -1.5109  0.7889 -0.5685
 5666TIP3    H216963   0.335   6.459   4.403 -0.2714  0.9710  0.9647
 5667TIP3   OH216964   2.523   3.419   2.593  0.0535 -0.5920 -0.0754
 5667TIP3    H116965   2.603   3.394   2.547 -0.1884  0.4828 -1.1243
 5667TIP3    H216966   2.548   3.423   2.685  1.7801  1.8186 -0.5755
 5668TIP3   OH216967   0.613   5.212   4.890  0.2480  0.0434 -0.0451
 5668TIP3    H116968   0.641   5.147   4.826 -1.4281 -1.4334  0.6388
 5668TIP3    H216969   0.627   5.296   4.846  0.4498 -0.8557 -1.7872
 5669TIP3   OH216970   6.647   0.375   2.523 -0.0122  0.3270 -0.7871
 5669TIP3    H116971   6.678   0.286   2.506 -0.8442 -0.0237 -0.5242
 5669TIP3    H216972   6.557   0.363   2.552  0.0741  1.2176 -0.1260
 5670TIP3   OH216973   1.780   0.207   4.461  0.0804  0.0175  0.4652
 5670TIP3    H116974   1.839   0.251   4.522 -0.5348 -0.1212  1.1784
 5670TIP3    H216975   1.702   0.263   4.458  0.0149 -0.0944 -0.0187
 5671TIP3   OH216976   6.528   4.332   3.925 -0.2822  0.1033 -0.0057
 5671TIP3    H116977   6.499   4.256   3.875  0.5453 -0.1286 -0.1436
 5671TIP3    H216978   6.612   4.306   3.963 -0.6867  0.4196  1.1807
 5672TIP3   OH216979   5.655   6.097   3.630  0.0611  0.6488 -0.1574
 5672TIP3    H116980   5.730   6.145   3.665 -0.2899  1.0015  0.1191
 5672TIP3    H216981   5.584   6.113   3.693  0.0052 -0.4531  0.0867
 5673TIP3   OH216982   4.137   4.791   4.047  0.0635  0.2445  0.1289
 5673TIP3    H116983   4.080   4.863   4.020 -0.3437 -0.5103 -1.0750
 5673TIP3    H216984   4.205   4.833   4.099  0.2338  1.6035 -1.1386
 5674TIP3   OH216985   0.938   3.454   4.145 -0.3142 -0.2175 -0.2016
 5674TIP3    H116986   0.925   3.470   4.238  0.2215 -0.5452 -0.0639
 5674TIP3    H216987   0.970   3.537   4.110 -2.1174  0.4267 -0.4366
 5675TIP3   OH216988   3.881   5.525   1.909 -0.5487 -0.3445  0.2212
 5675TIP3    H116989   3.891   5.617   1.883 -1.6722  0.2495  1.7771
 5675TIP3    H216990   3.926   5.476   1.840  0.5701  1.3913 -0.3439
 5676TIP3   OH216991   1.927   6.112   4.410 -0.1029 -0.1523  0.4899
 5676TIP3    H116992   2.007   6.142   4.368  0.6027 -1.5494  0.7960
 5676TIP3    H216993   1.950   6.102   4.502 -1.0008  0.6450  0.8234
 5677TIP3   OH216994   6.958   1.522   2.024 -0.5918  0.4668  0.4717
 5677TIP3    H116995   6.966   1.592   1.959  0.0712 -0.1730 -0.1566
 5677TIP3    H216996   6.987   1.443   1.978 -1.8360 -0.3329  1.0013
 5678TIP3   OH216997   4.665   4.423   3.182  0.3403 -0.4741  0.3966
 5678TIP3    H116998   4.603   4.375   3.236  0.4864 -1.3812 -0.2310
 5678TIP3    H216999   4.660   4.513   3.214  2.7932 -1.4519  4.2235
 5679TIP3   OH217000   4.336   5.899   3.836 -0.2082 -0.7585 -0.2557
 5679TIP3    H117001   4.253   5.925   3.875 -0.3246  0.9850 -1.5882
 5679TIP3    H217002   4.348   5.958   3.762  3.1859  0.4531  1.0434
 5680TIP3   OH217003   0.550   4.460   0.708  0.3370  0.2314 -0.5013
 5680TIP3    H117004   0.494   4.512   0.765  1.0492  0.0032  0.4211
 5680TIP3    H217005   0.504   4.376   0.699  0.1020  0.3576 -0.4831
 5681TIP3   OH217006   1.268   6.035   4.155 -0.3218 -0.2838  0.2101
 5681TIP3    H117007   1.220   6.057   4.234  2.1624 -0.5124  1.8971
 5681TIP3    H217008   1.314   5.953   4.177  1.5794  0.4236 -0.8904
 5682TIP3   OH217009   1.140   0.507   0.196  0.6738  0.0412  0.2459
 5682TIP3    H117010   1.196   0.558   0.137  1.8923 -0.6372  0.7882
 5682TIP3    H217011   1.152   0.416   0.169  0.8962 -0.2351  1.2259
 5683TIP3   OH217012   2.641   0.675   2.020  0.2346  0.6730 -0.6608
 5683TIP3    H117013   2.730   0.707   2.005  0.4239 -0.0046 -1.0058
 5683TIP3    H217014   2.651   0.581   2.030 -0.1882  0.8010  1.3653
 5684TIP3   OH217015   5.734   5.014   5.543  0.0038 -0.0544  0.2468
 5684TIP3    H117016   5.668   5.059   5.491 -0.0612 -0.4769 -0.0469
 5684TIP3    H217017   5.737   4.925   5.506  0.8114 -0.0122  0.1830
 5685TIP3   OH217018   1.024   6.607   4.900 -0.5954  0.5860  0.2452
 5685TIP3    H117019   0.948   6.665   4.904 -0.0708  1.5053 -1.4985
 5685TIP3    H217020   0.997   6.535   4.844 -1.0531 -0.5921  1.9281
 5686TIP3   OH217021   2.171   6.238   2.839 -0.4615  0.7532  0.1117
 5686TIP3    H117022   2.161   6.314   2.781 -0.2284  0.8164  0.1556
 5686TIP3    H217023   2.179   6.164   2.779  0.7139  0.9282  0.0451
 5687TIP3   OH217024   2.316   0.814   4.900  0.5485  0.1593 -0.5043
 5687TIP3    H117025   2.409   0.832   4.886  0.5712  0.2939 -0.1591
 5687TIP3    H217026   2.297   0.743   4.838  0.4724  1.2531 -1.7935
 5688TIP3   OH217027   4.580   0.390   4.628 -0.3970 -0.0385  0.0245
 5688TIP3    H117028   4.665   0.433   4.628  0.3056 -1.3203 -1.6568
 5688TIP3    H217029   4.518   0.460   4.605  0.4123  0.5844 -0.3129
 5689TIP3   OH217030   3.186   5.691   0.939 -0.0969  0.2868 -0.9387
 5689TIP3    H117031   3.180   5.751   1.014 -0.1449  1.6320 -1.9745
 5689TIP3    H217032   3.103   5.704   0.892 -0.6733 -1.5855 -0.4887
 5690TIP3   OH217033   2.920   2.227   3.976 -0.0275 -0.2112  0.2243
 5690TIP3    H117034   2.901   2.316   3.947 -0.6440 -0.2240  0.5659
 5690TIP3    H217035   2.920   2.176   3.895 -1.7354 -0.2450  0.1981
 5691TIP3   OH217036   4.490   0.982   0.412  0.4082 -0.0673 -0.2415
 5691TIP3    H117037   4.423   1.044   0.383  0.6806 -0.2922 -1.4360
 5691TIP3    H217038   4.563   1.036   0.439 -1.0634  0.3146  3.5450
 5692TIP3   OH217039   0.351   1.211   2.245  0.3743  0.3909 -0.4627
 5692TIP3    H117040   0.360   1.265   2.166  1.7531 -0.0410 -0.6253
 5692TIP3    H217041   0.312   1.129   2.213  1.9942 -0.2293 -0.9229
 5693TIP3   OH217042   1.579   0.732   1.850  0.1254 -0.7756  0.1310
 5693TIP3    H117043   1.647   0.757   1.913 -0.2768 -0.1226  0.3104
 5693TIP3    H217044   1.547   0.815   1.815  0.0863 -1.1186 -0.6663
 5694TIP3   OH217045   4.394   2.270   5.152 -0.3446  0.2241 -0.1955
 5694TIP3    H117046   4.465   2.334   5.164 -1.4374  1.3074  0.7960
 5694TIP3    H217047   4.408   2.234   5.065  1.3326  0.5183 -0.0786
 5695TIP3   OH217048   2.871   3.057   4.579 -0.2172 -0.5331 -0.2001
 5695TIP3    H117049   2.809   3.086   4.512 -0.5494 -1.4947 -0.3239
 5695TIP3    H217050   2.906   2.974   4.545  1.8441  0.4128 -0.5804
 5696TIP3   OH217051   3.267   2.212   0.669 -0.2370 -0.3116  0.2120
 5696TIP3    H117052   3.352   2.198   0.710 -0.6665 -1.1754  0.8413
 5696TIP3    H217053   3.266   2.153   0.594  0.0228  0.2962 -0.2860
 5697TIP3   OH217054   5.903   3.077   3.025 -0.2479 -0.1459 -0.6684
 5697TIP3    H117055   5.829   3.056   3.082  1.5954  0.5085  2.2269
 5697TIP3    H217056   5.958   2.998   3.028  0.5422  0.3960 -0.3038
 5698TIP3   OH217057   6.281   2.679   1.195 -0.8585  0.4635  0.4183
 5698TIP3    H117058   6.257   2.746   1.259 -1.3392  0.4236  0.2816
 5698TIP3    H217059   6.269   2.596   1.242  2.1258  0.4813  1.4400
 5699TIP3   OH217060   0.893   6.370   1.337 -0.6624  0.0166  0.1920
 5699TIP3    H117061   0.872   6.359   1.430  0.7091 -0.9588  0.4234
 5699TIP3    H217062   0.916   6.282   1.307 -0.2012  0.4709 -0.8301
 5700TIP3   OH217063   1.284   0.370   5.608  0.2290  0.2324  0.1912
 5700TIP3    H117064   1.311   0.338   5.694 -1.6219 -0.6928  0.4728
 5700TIP3    H217065   1.347   0.331   5.547  1.1982  0.4110  1.0616
 5701TIP3   OH217066   6.017   3.634   4.028  0.5897 -0.3272 -0.0880
 5701TIP3    H117067   5.923   3.650   4.037  0.8500  1.7833 -0.5265
 5701TIP3    H217068   6.054   3.719   4.005  2.2988 -1.6207 -2.6021
 5702TIP3   OH217069   2.170   5.147   5.336  0.1811  0.0988  0.2890
 5702TIP3    H117070   2.236   5.143   5.267 -0.7231 -0.2168 -0.5652
 5702TIP3    H217071   2.218   5.124   5.416  0.5892 -2.8352 -0.6858
 5703TIP3   OH217072   3.242   4.160   1.541  0.1851  0.8604 -0.5579
 5703TIP3    H117073   3.197   4.243   1.526 -0.6990  0.6652  0.7532
 5703TIP3    H217074   3.271   4.165   1.632  0.0634 -0.2730 -0.4400
 5704TIP3   OH217075   5.850   4.065   0.698  0.7934  0.0362 -0.3035
 5704TIP3    H117076   5.799   4.136   0.658  0.5404 -1.4989 -2.8806
 5704TIP3    H217077   5.796   4.035   0.772 -0.3999  0.6979 -0.8863
 5705TIP3   OH217078   5.692   5.814   4.116  0.5287  0.0338 -0.5258
 5705TIP3    H117079   5.728   5.752   4.180 -0.9669 -0.3769 -0.0539
 5705TIP3    H217080   5.598   5.814   4.133  0.4505  2.1948 -0.7359
 5706TIP3   OH217081   1.495   4.784   2.652 -0.6779  0.1382 -0.4034
 5706TIP3    H117082   1.464   4.734   2.727  0.3661  2.1394  1.4835
 5706TIP3    H217083   1.577   4.742   2.627 -0.8039 -0.2682 -0.1400
 5707TIP3   OH217084   0.436   2.434   3.143 -0.2054 -0.0077  0.0731
 5707TIP3    H117085   0.499   2.490   3.097 -1.9086  1.0924 -0.9906
 5707TIP3    H217086   0.398   2.491   3.210 -1.2633 -0.1577 -0.3887
 5708TIP3   OH217087   6.461   5.661   0.142  0.4452 -0.1527 -0.1587
 5708TIP3    H117088   6.478   5.568   0.126  0.2749 -0.1644 -0.2659
 5708TIP3    H217089   6.514   5.681   0.219  1.2994 -0.0822 -0.7476
 5709TIP3   OH217090   6.949   2.814   4.530 -0.2153 -0.2973  0.1082
 5709TIP3    H117091   6.996   2.735   4.505 -1.0755 -0.1100 -2.4001
 5709TIP3    H217092   7.016   2.882   4.534  0.0626 -0.4232 -1.5325
 5710TIP3   OH217093   4.893   1.968   0.703  0.2431 -0.2641 -0.1872
 5710TIP3    H117094   4.970   1.984   0.758  0.9107 -1.5213 -0.7197
 5710TIP3    H217095   4.864   1.880   0.726  0.1325 -0.5523 -1.3438
 5711TIP3   OH217096   0.620   2.869   5.686 -0.1076 -0.1321 -0.1544
 5711TIP3    H117097   0.594   2.791   5.734  0.5118 -0.4939 -0.3967
 5711TIP3    H217098   0.701   2.897   5.727 -0.2013  0.2485 -0.2229
 5712TIP3   OH217099   2.408   3.085   2.164  0.3786 -0.0915 -0.4673
 5712TIP3    H117100   2.458   3.131   2.096 -0.9187  0.9003 -0.7875
 5712TIP3    H217101   2.464   3.087   2.241  0.8541  0.9996 -0.8191
 5713TIP3   OH217102   6.059   1.740   0.522  0.4411 -0.2932  0.0459
 5713TIP3    H117103   6.145   1.700   0.534  1.2636  1.0525 -1.1025
 5713TIP3    H217104   5.997   1.669   0.542  1.8219 -1.8190 -0.8598
 5714TIP3   OH217105   5.198   4.657   3.166 -0.4287  0.4437 -0.3150
 5714TIP3    H117106   5.105   4.635   3.177 -0.5089 -0.3172 -2.0970
 5714TIP3    H217107   5.199   4.753   3.159 -0.6890  0.7242  2.5361
 5715TIP3   OH217108   5.133   4.075   4.696  0.2201 -0.5763  0.4393
 5715TIP3    H117109   5.124   4.166   4.668  1.0220 -0.9524 -1.1794
 5715TIP3    H217110   5.049   4.034   4.671 -0.3436 -0.1882  1.6445
 5716TIP3   OH217111   4.288   4.404   3.053 -0.6607 -0.6318  0.1986
 5716TIP3    H117112   4.319   4.343   3.120 -0.4561  0.1389  0.8171
 5716TIP3    H217113   4.236   4.349   2.993  2.3203 -2.1181 -1.2546
 5717TIP3   OH217114   2.994   0.887   2.210 -0.0090 -0.5920 -0.5228
 5717TIP3    H117115   2.996   0.887   2.306 -0.4897 -0.1665 -0.5117
 5717TIP3    H217116   3.069   0.940   2.185 -0.3376 -0.0433 -0.3666
 5718TIP3   OH217117   3.085   1.158   0.317  0.0479 -0.3969 -0.4804
 5718TIP3    H117118   3.086   1.068   0.350 -0.7061 -0.5908 -0.9539
 5718TIP3    H217119   2.998   1.168   0.279  0.4098  0.2782 -1.1480
 5719TIP3   OH217120   5.813   0.864   3.753  0.3176 -0.2259 -0.3378
 5719TIP3    H117121   5.838   0.785   3.706 -0.2114 -1.8542  1.9537
 5719TIP3    H217122   5.851   0.854   3.840  0.6931  2.3261 -0.1279
 5720TIP3   OH217123   3.249   3.043   2.324  0.0306 -0.2526  0.9044
 5720TIP3    H117124   3.309   3.103   2.280 -1.8168 -1.0419 -3.1693
 5720TIP3    H217125   3.283   2.956   2.306 -1.1788 -0.6317  0.3124
 5721TIP3   OH217126   5.725   0.030   5.859 -0.2130 -0.3325 -0.2811
 5721TIP3    H117127   5.806   0.045   5.908  0.8318  2.7327 -2.5915
 5721TIP3    H217128   5.732   0.089   5.783 -4.6389  0.1364 -0.5801
 5722TIP3   OH217129   6.648   2.881   3.421  0.1739 -0.2918 -0.0128
 5722TIP3    H117130   6.698   2.962   3.409  0.4933 -0.3392  0.8997
 5722TIP3    H217131   6.688   2.840   3.497 -1.0223 -0.5260  0.5048
 5723TIP3   OH217132   2.527   5.140   4.396  0.0971 -0.4271  0.4226
 5723TIP3    H117133   2.455   5.169   4.340 -0.3386  1.6471  1.9247
 5723TIP3    H217134   2.570   5.071   4.346 -0.5616  0.9493 -2.2495
 5724TIP3   OH217135   2.295   5.848   0.185  0.2119  0.0806  0.1184
 5724TIP3    H117136   2.244   5.896   0.121  0.4511  0.8592  0.5028
 5724TIP3    H217137   2.240   5.847   0.264 -0.3203 -1.3403 -0.2353
 5725TIP3   OH217138   3.767   2.971   3.756  0.0982 -0.4115  0.1744
 5725TIP3    H117139   3.773   3.062   3.726  0.5849 -0.2100  0.8516
 5725TIP3    H217140   3.753   2.978   3.851 -0.8247 -1.0355  0.0964
 5726TIP3   OH217141   1.849   0.786   2.943 -0.0205  0.0006  0.1352
 5726TIP3    H117142   1.809   0.824   3.022  2.4212  1.7722  0.6528
 5726TIP3    H217143   1.942   0.807   2.952  0.4297 -0.3072 -2.9202
 5727TIP3   OH217144   7.082   0.660   3.825 -0.0251  0.0607 -0.2674
 5727TIP3    H117145   7.175   0.650   3.807 -0.2634 -1.9546 -0.6240
 5727TIP3    H217146   7.077   0.681   3.918  0.7609 -0.4986 -0.0906
 5728TIP3   OH217147   6.204   6.622   4.661 -0.1962 -0.0039  0.0696
 5728TIP3    H117148   6.148   6.547   4.641 -0.3225  0.4967 -1.6442
 5728TIP3    H217149   6.175   6.691   4.601 -1.4509  2.1678  2.9759
 5729TIP3   OH217150   5.697   5.721   1.244  0.0936 -0.9965  0.0083
 5729TIP3    H117151   5.752   5.676   1.179  1.2345 -0.6469  0.7085
 5729TIP3    H217152   5.759   5.757   1.308 -0.6159  2.6468 -1.1189
 5730TIP3   OH217153   0.405   3.739   5.551  0.1184  0.4120 -0.3842
 5730TIP3    H117154   0.418   3.734   5.457  0.2693  0.4439 -0.3653
 5730TIP3    H217155   0.375   3.651   5.576  0.1596  0.3793 -0.4494
 5731TIP3   OH217156   2.234   4.744   1.797  0.0270 -0.0447 -0.1117
 5731TIP3    H117157   2.191   4.809   1.853 -0.6151 -1.8489  1.5845
 5731TIP3    H217158   2.166   4.716   1.736  0.1191  0.3654 -0.4104
 5732TIP3   OH217159   3.582   2.436   4.156 -0.6223  0.0737 -0.2878
 5732TIP3    H117160   3.667   2.395   4.171 -0.1243  1.0133 -0.4554
 5732TIP3    H217161   3.527   2.366   4.121  0.5647 -0.1707 -1.7893
 5733TIP3   OH217162   6.944   0.357   5.185  0.0519  0.0788 -0.3249
 5733TIP3    H117163   6.912   0.290   5.244 -1.0730  0.3574 -0.6010
 5733TIP3    H217164   6.984   0.423   5.242 -0.0037 -0.2017  0.0361
 5734TIP3   OH217165   4.733   2.972   3.919 -0.1406  0.3019  0.1661
 5734TIP3    H117166   4.742   3.046   3.979  0.6851 -0.7347  1.3779
 5734TIP3    H217167   4.801   2.910   3.948 -0.4253 -0.6764 -1.1845
 5735TIP3   OH217168   1.252   4.489   3.201  0.0222  0.3573 -0.0026
 5735TIP3    H117169   1.346   4.507   3.204 -0.2853  1.9797  1.6925
 5735TIP3    H217170   1.243   4.403   3.243  0.4933  1.8621  3.5380
 5736TIP3   OH217171   1.264   6.228   2.324  0.0582 -0.3293 -0.1025
 5736TIP3    H117172   1.293   6.301   2.268  0.0121 -0.3184 -0.1123
 5736TIP3    H217173   1.177   6.254   2.352  0.4578  0.1153  0.7574
 5737TIP3   OH217174   1.588   1.511   4.408  0.5407  0.4461 -0.1078
 5737TIP3    H117175   1.602   1.559   4.490  1.4525 -0.7016  0.4489
 5737TIP3    H217176   1.670   1.520   4.360  0.6874 -0.4133 -0.0468
 5738TIP3   OH217177   3.924   4.661   2.167  1.0134 -0.5230  0.2961
 5738TIP3    H117178   3.985   4.587   2.160  1.1881 -0.4297  0.8222
 5738TIP3    H217179   3.977   4.737   2.144  1.4961 -0.2572  2.1346
 5739TIP3   OH217180   5.966   1.142   0.813 -0.3816  0.1805  0.5397
 5739TIP3    H117181   5.874   1.149   0.840 -0.1550  1.3559  1.1274
 5739TIP3    H217182   5.982   1.049   0.803 -1.6279 -0.0406  0.4808
 5740TIP3   OH217183   6.108   0.805   1.676  0.0951 -0.2851  0.1171
 5740TIP3    H117184   6.183   0.837   1.627  0.0536  1.1284  0.9303
 5740TIP3    H217185   6.143   0.735   1.732  0.9743  0.8416  1.0117
 5741TIP3   OH217186   5.168   5.104   4.493  0.8417  0.7915  0.2424
 5741TIP3    H117187   5.102   5.095   4.424  0.1079 -0.1181  1.0467
 5741TIP3    H217188   5.202   5.193   4.482  1.2847  0.4242 -1.7701
 5742TIP3   OH217189   5.910   5.587   0.977  0.3121 -0.2518 -0.3043
 5742TIP3    H117190   5.816   5.592   0.989  0.4200 -0.7574  0.8251
 5742TIP3    H217191   5.927   5.496   0.956  0.6946 -0.4900  0.9622
 5743TIP3   OH217192   2.348   4.835   4.954 -0.2404  0.0880  0.8697
 5743TIP3    H117193   2.323   4.915   5.000 -1.5199  0.1166  0.1611
 5743TIP3    H217194   2.285   4.769   4.984 -1.7107  0.3316 -1.4793
 5744TIP3   OH217195   3.060   4.225   5.206 -0.3691  0.3989  0.1310
 5744TIP3    H117196   3.044   4.295   5.269  1.6475 -0.8056  2.1797
 5744TIP3    H217197   3.102   4.268   5.132 -3.9437  2.0658 -1.1810
 5745TIP3   OH217198   3.736   3.172   5.719  0.2668  0.1982 -0.2075
 5745TIP3    H117199   3.831   3.173   5.730  0.1729 -2.1052  1.7876
 5745TIP3    H217200   3.715   3.081   5.696 -1.3690  1.0052 -2.2776
 5746TIP3   OH217201   0.467   5.448   5.435 -0.1168 -0.0318  0.6602
 5746TIP3    H117202   0.510   5.447   5.349 -0.0251 -0.1363  0.7079
 5746TIP3    H217203   0.501   5.371   5.480 -1.9630 -1.3861 -0.1003
 5747TIP3   OH217204   4.962   4.466   1.659  0.1815 -0.3331 -0.0315
 5747TIP3    H117205   5.014   4.545   1.645 -1.3831  0.3915 -2.4427
 5747TIP3    H217206   5.026   4.396   1.666  1.6283  1.0712  2.2294
 5748TIP3   OH217207   6.908   1.699   4.672 -0.6308 -0.4542  0.2950
 5748TIP3    H117208   6.930   1.659   4.588 -0.7059  0.4944 -0.1958
 5748TIP3    H217209   6.954   1.783   4.672  0.0506 -0.8035  1.5743
 5749TIP3   OH217210   7.234   4.479   4.314 -0.1519  0.5222  0.0942
 5749TIP3    H117211   7.202   4.447   4.229  0.6205 -0.8953  0.2897
 5749TIP3    H217212   7.155   4.502   4.363 -0.7629 -0.7943 -0.2218
 5750TIP3   OH217213   0.425   5.393   3.369 -0.7414 -0.5182  0.1712
 5750TIP3    H117214   0.510   5.411   3.328 -0.2326  0.0682  1.4349
 5750TIP3    H217215   0.445   5.330   3.439 -0.9874  1.0568  1.7233
 5751TIP3   OH217216   6.886   5.899   4.846 -0.0283 -0.4820  0.2699
 5751TIP3    H117217   6.824   5.929   4.780 -1.1263 -0.7892  1.1230
 5751TIP3    H217218   6.970   5.933   4.818 -0.5240 -0.3420 -1.1061
 5752TIP3   OH217219   7.077   0.790   5.427 -0.7410 -0.5070  0.3301
 5752TIP3    H117220   7.134   0.714   5.419  0.0743 -0.0754  1.6426
 5752TIP3    H217221   6.989   0.756   5.419 -0.3510 -1.1528 -2.1424
 5753TIP3   OH217222   6.424   6.030   0.184 -0.0029 -0.2794 -0.0614
 5753TIP3    H117223   6.438   5.987   0.268  0.9776  1.4075  0.6866
 5753TIP3    H217224   6.477   6.110   0.189 -1.2702  0.7140 -1.6062
 5754TIP3   OH217225   2.412   2.762   3.114  0.2419  0.6188 -0.0178
 5754TIP3    H117226   2.318   2.746   3.117  0.5671 -1.6182 -0.6974
 5754TIP3    H217227   2.421   2.843   3.063 -1.2730  0.7281 -0.1487
 5755TIP3   OH217228   0.207   4.665   4.250  0.5717 -0.2304 -0.8793
 5755TIP3    H117229   0.139   4.598   4.259  1.0566 -0.7006 -0.6873
 5755TIP3    H217230   0.161   4.748   4.266  0.2844 -0.6329  0.4760
 5756TIP3   OH217231   0.975   1.865   4.562  0.1056 -0.4120 -0.1870
 5756TIP3    H117232   1.037   1.869   4.489  0.1383  0.2074 -0.1312
 5756TIP3    H217233   0.893   1.838   4.521  0.3773 -1.1261 -0.2793
 5757TIP3   OH217234   2.355   2.854   3.462  0.5833 -0.6614 -0.0281
 5757TIP3    H117235   2.267   2.815   3.452  0.7282 -0.7071 -1.3280
 5757TIP3    H217236   2.348   2.940   3.420  1.2351 -0.7934 -0.4187
 5758TIP3   OH217237   3.125   6.533   0.702  0.0622  0.0857 -0.2372
 5758TIP3    H117238   3.055   6.469   0.713  0.7395 -0.6372 -0.0182
 5758TIP3    H217239   3.090   6.614   0.739 -0.7660 -0.1852 -0.4136
 5759TIP3   OH217240   4.394   6.530   2.984 -0.1656  0.0634 -0.1415
 5759TIP3    H117241   4.468   6.591   2.978 -0.8207  0.8467 -0.4730
 5759TIP3    H217242   4.317   6.585   2.969 -0.9142 -0.4909  1.4021
 5760TIP3   OH217243   5.175   1.615   4.275  0.3745 -0.6715  0.3898
 5760TIP3    H117244   5.181   1.521   4.257 -0.9622 -0.3719 -1.9344
 5760TIP3    H217245   5.096   1.643   4.229  1.5255  1.8678 -0.1496
 5761TIP3   OH217246   2.130   2.949   5.307 -0.1064  0.0759 -0.1143
 5761TIP3    H117247   2.175   3.017   5.256  1.0633 -0.4652  0.1422
 5761TIP3    H217248   2.181   2.870   5.290 -1.5682 -0.8009 -0.5722
 5762TIP3   OH217249   5.180   6.788   2.023 -0.2131 -0.1966  0.9976
 5762TIP3    H117250   5.164   6.851   2.094 -0.8317  0.0041  0.6948
 5762TIP3    H217251   5.092   6.760   1.996  0.0505 -1.4093  1.3109
 5763TIP3   OH217252   3.345   3.519   5.850  0.5011 -0.1394  0.1106
 5763TIP3    H117253   3.352   3.497   5.757  0.0245  0.7835 -0.1623
 5763TIP3    H217254   3.334   3.435   5.894  0.3854 -0.5622 -0.7060
 5764TIP3   OH217255   5.329   4.908   5.478 -0.1278  0.2390  0.0172
 5764TIP3    H117256   5.360   4.833   5.528 -1.3898 -1.0150 -1.0114
 5764TIP3    H217257   5.283   4.962   5.542 -0.1942 -0.4472  0.5638
 5765TIP3   OH217258   5.297   6.166   1.867 -0.1879 -0.2534  0.1073
 5765TIP3    H117259   5.391   6.152   1.882 -0.4959 -0.4386  2.1618
 5765TIP3    H217260   5.259   6.078   1.867 -0.4771 -0.1311  0.2896
 5766TIP3   OH217261   1.013   5.766   0.338 -0.2034 -0.0951 -0.1063
 5766TIP3    H117262   1.046   5.694   0.391  0.8550 -0.5272 -1.3132
 5766TIP3    H217263   1.087   5.826   0.329 -0.0691 -0.4600 -1.7904
 5767TIP3   OH217264   6.734   4.176   4.021  0.2881  0.1280  0.2637
 5767TIP3    H117265   6.794   4.166   4.096 -0.1846 -1.0981  0.4987
 5767TIP3    H217266   6.702   4.087   4.004 -0.2931  0.5338 -0.8380
 5768TIP3   OH217267   1.856   3.864   2.293  0.9470 -0.6237  0.0859
 5768TIP3    H117268   1.830   3.783   2.250  0.5728 -1.6867  2.1857
 5768TIP3    H217269   1.917   3.836   2.362 -0.1947  0.6904  1.7127
 5769TIP3   OH217270   4.249   5.160   0.832  0.0123  0.1294 -0.0378
 5769TIP3    H117271   4.332   5.195   0.799 -0.4449  0.2447 -1.1169
 5769TIP3    H217272   4.254   5.066   0.813 -0.5223  0.2937 -1.0968
 5770TIP3   OH217273   6.974   5.980   2.860  0.1657 -0.1709 -0.5235
 5770TIP3    H117274   7.001   6.012   2.946 -0.2482  0.5374 -0.6496
 5770TIP3    H217275   6.960   6.059   2.808 -0.7600 -0.5460 -0.8732
 5771TIP3   OH217276   1.513   3.618   1.156  0.4066 -0.2788  0.6985
 5771TIP3    H117277   1.558   3.551   1.104 -0.7852 -1.5582  1.2454
 5771TIP3    H217278   1.459   3.568   1.217 -2.1051  1.1513 -0.2258
 5772TIP3   OH217279   4.065   1.777   3.496  0.2906 -0.1678  0.2180
 5772TIP3    H117280   4.001   1.769   3.567  0.0560 -0.6452 -0.0468
 5772TIP3    H217281   4.038   1.712   3.431  0.1405  0.6725 -0.5917
 5773TIP3   OH217282   7.177   5.156   4.249 -0.1455 -0.7542  0.2983
 5773TIP3    H117283   7.160   5.243   4.211 -0.3019 -0.4642  1.0254
 5773TIP3    H217284   7.090   5.122   4.269 -0.0594 -0.8980  0.4279
 5774TIP3   OH217285   7.061   6.282   5.309  0.2399  0.3270 -0.0647
 5774TIP3    H117286   7.106   6.250   5.231 -1.0192 -2.1474  0.1331
 5774TIP3    H217287   7.106   6.238   5.382 -0.1007  0.7933  0.4353
 5775TIP3   OH217288   6.840   0.307   0.338 -0.2357 -0.4687  0.4705
 5775TIP3    H117289   6.785   0.240   0.298 -0.3669  0.4876 -1.0447
 5775TIP3    H217290   6.848   0.375   0.271 -0.9377  1.5205  2.2738
 5776TIP3   OH217291   3.343   2.387   5.761  0.1686  0.3057 -0.3294
 5776TIP3    H117292   3.317   2.400   5.852  1.6458  1.5863 -0.0314
 5776TIP3    H217293   3.301   2.458   5.713 -0.4403 -0.2446 -0.6254
 5777TIP3   OH217294   0.838   1.246   1.737  0.0865  0.7043  0.0695
 5777TIP3    H117295   0.928   1.215   1.724 -0.4280 -0.8003 -0.1540
 5777TIP3    H217296   0.836   1.278   1.827  0.7122  0.1951  0.2717
 5778TIP3   OH217297   0.971   2.348   0.190 -0.0764 -0.1669  0.1362
 5778TIP3    H117298   1.003   2.425   0.142 -0.7877  0.9142  1.3012
 5778TIP3    H217299   1.036   2.335   0.259 -0.9215  0.6159  1.1120
 5779TIP3   OH217300   3.882   1.070   5.714 -0.6331  0.0711  0.0853
 5779TIP3    H117301   3.965   1.081   5.761 -0.7888  0.5121  0.2606
 5779TIP3    H217302   3.891   1.128   5.638 -0.9338  0.4145  0.3102
 5780TIP3   OH217303   4.720   6.412   2.353  0.1238 -0.7394  0.1785
 5780TIP3    H117304   4.690   6.338   2.301 -1.9039  0.5136 -0.5293
 5780TIP3    H217305   4.656   6.481   2.337  2.8260  1.8403 -0.6294
 5781TIP3   OH217306   4.906   3.090   0.168 -0.0520  0.8525 -0.1036
 5781TIP3    H117307   4.828   3.064   0.119  0.4967  0.8392 -1.0010
 5781TIP3    H217308   4.875   3.103   0.257 -0.7007 -1.1093  0.0033
 5782TIP3   OH217309   4.247   5.978   1.098 -0.2239  0.0991  0.2241
 5782TIP3    H117310   4.202   6.044   1.151  3.2971  2.5814  0.5123
 5782TIP3    H217311   4.236   6.009   1.008  1.5151  1.3298  0.3664
 5783TIP3   OH217312   6.183   5.121   4.404 -0.4342 -0.0178  0.2658
 5783TIP3    H117313   6.157   5.052   4.343 -1.4892  1.8252 -1.5083
 5783TIP3    H217314   6.106   5.137   4.458 -0.2018 -0.1916  0.6562
 5784TIP3   OH217315   5.965   0.287   5.861 -0.0962 -0.1519  0.1454
 5784TIP3    H117316   5.972   0.264   5.954 -0.1591  0.2674  0.2536
 5784TIP3    H217317   5.882   0.334   5.853  1.7875  3.6794  0.7150
 5785TIP3   OH217318   0.601   4.108   3.549  0.1769 -0.1282  0.0256
 5785TIP3    H117319   0.618   4.183   3.606 -2.5476 -0.6425  1.7242
 5785TIP3    H217320   0.596   4.145   3.461  0.7918  1.3425  0.5748
 5786TIP3   OH217321   7.033   3.962   2.779  0.3725 -0.1588 -0.1424
 5786TIP3    H117322   6.987   3.923   2.854 -0.7768 -0.7802 -1.1319
 5786TIP3    H217323   6.997   3.917   2.703  2.4990 -0.5025 -1.0173
 5787TIP3   OH217324   1.434   2.956   2.873 -0.0665  0.7311  0.3590
 5787TIP3    H117325   1.486   2.949   2.793  1.0020  1.5168  0.9509
 5787TIP3    H217326   1.499   2.969   2.942 -0.9112 -0.6089  1.4626
 5788TIP3   OH217327   5.775   1.096   3.267  0.1006  0.6571  0.0917
 5788TIP3    H117328   5.868   1.075   3.280  0.4632  2.2865  0.4813
 5788TIP3    H217329   5.729   1.015   3.285  1.3172  0.3166  1.9732
 5789TIP3   OH217330   3.698   1.840   0.101 -0.4906  0.7451 -0.2397
 5789TIP3    H117331   3.713   1.825   0.008 -0.5063 -0.4627 -0.0632
 5789TIP3    H217332   3.605   1.862   0.108 -0.3657  1.4060 -0.5590
 5790TIP3   OH217333   4.409   1.067   5.580  0.4170  0.1906  0.0126
 5790TIP3    H117334   4.362   0.984   5.580  0.6433  0.0621  0.2849
 5790TIP3    H217335   4.344   1.132   5.555  0.0859  0.0194  0.4286
 5791TIP3   OH217336   5.957   4.473   0.749  0.1677 -0.1329 -0.1374
 5791TIP3    H117337   6.004   4.418   0.686 -1.8919 -0.6224 -1.3089
 5791TIP3    H217338   5.943   4.417   0.825  0.1920 -0.4384 -0.3578
 5792TIP3   OH217339   2.561   5.217   0.258  0.0216 -0.3084 -0.1854
 5792TIP3    H117340   2.554   5.303   0.216  4.5031 -0.1873 -1.1568
 5792TIP3    H217341   2.549   5.235   0.352 -0.5426  1.0955 -0.5030
 5793TIP3   OH217342   6.388   1.624   3.802 -0.7347  0.3684 -0.2159
 5793TIP3    H117343   6.382   1.717   3.824  1.3035  0.5929 -0.3938
 5793TIP3    H217344   6.405   1.623   3.708 -0.8538 -0.1879 -0.2339
 5794TIP3   OH217345   0.762   3.038   2.782 -0.0767 -0.2154 -0.6159
 5794TIP3    H117346   0.852   3.065   2.764  0.4841 -1.2177  0.5773
 5794TIP3    H217347   0.736   3.089   2.858 -0.2458 -0.4858 -0.4904
 5795TIP3   OH217348   0.815   3.239   0.153 -0.1780  0.2545 -0.8636
 5795TIP3    H117349   0.847   3.161   0.107  1.3162 -0.5619  1.3569
 5795TIP3    H217350   0.837   3.312   0.095  1.7259 -0.6963 -1.4332
 5796TIP3   OH217351   3.492   1.646   2.440 -0.5551  0.9002 -0.6150
 5796TIP3    H117352   3.403   1.680   2.433  0.0240  2.4140 -0.9585
 5796TIP3    H217353   3.531   1.662   2.354 -0.0237  0.0199 -0.5496
 5797TIP3   OH217354   0.997   2.642   5.394 -0.1937  0.9312 -0.0557
 5797TIP3    H117355   0.971   2.572   5.334  2.2741 -0.6151  0.5201
 5797TIP3    H217356   1.079   2.676   5.359  1.1361  0.2297  2.1322
 5798TIP3   OH217357   0.525   3.568   1.681  0.5915 -0.2831 -0.5071
 5798TIP3    H117358   0.518   3.501   1.749  0.8732  1.4951  1.3943
 5798TIP3    H217359   0.594   3.627   1.713 -0.2823  1.4134 -1.6202
 5799TIP3   OH217360   4.549   2.559   3.798  0.3158 -0.3841 -0.0289
 5799TIP3    H117361   4.504   2.607   3.867  1.3464 -0.5754  0.7946
 5799TIP3    H217362   4.551   2.469   3.828 -2.2254 -1.1827 -1.8791
 5800TIP3   OH217363   0.649   4.003   3.848  0.7375 -0.3354 -0.1476
 5800TIP3    H117364   0.589   3.971   3.780 -0.9519 -0.2957  1.2548
 5800TIP3    H217365   0.732   3.957   3.830  0.1536 -0.8014 -1.8275
 5801TIP3   OH217366   0.588   0.680   4.978  0.4720 -0.4334  0.0038
 5801TIP3    H117367   0.559   0.711   5.064  1.2027  1.7124 -0.4730
 5801TIP3    H217368   0.682   0.698   4.976  0.4682 -0.4612 -1.2345
 5802TIP3   OH217369   6.400   1.436   2.089 -0.0310  0.7034 -0.1600
 5802TIP3    H117370   6.455   1.512   2.109  2.7251 -0.4247 -2.5585
 5802TIP3    H217371   6.427   1.369   2.151  1.4025  0.1709 -1.2958
 5803TIP3   OH217372   2.388   0.402   1.537  0.2323  0.3567  0.4430
 5803TIP3    H117373   2.385   0.450   1.620 -1.7182  1.6762 -0.3145
 5803TIP3    H217374   2.329   0.328   1.551  0.5464  0.1165  0.4974
 5804TIP3   OH217375   7.017   2.431   1.615 -0.1340  0.5116  0.1554
 5804TIP3    H117376   6.979   2.468   1.695  0.9783  0.0682  0.9146
 5804TIP3    H217377   7.111   2.426   1.633  0.0082 -0.6152 -0.7669
 5805TIP3   OH217378   6.442   3.194   3.808  0.0730  0.2574  0.0179
 5805TIP3    H117379   6.465   3.281   3.838  0.6335 -0.0890  0.6222
 5805TIP3    H217380   6.354   3.203   3.772 -0.2853  0.8688  1.0185
 5806TIP3   OH217381   5.607   3.174   4.067  0.0310  0.6249  0.0434
 5806TIP3    H117382   5.665   3.135   4.002 -0.3486  1.8793 -1.1059
 5806TIP3    H217383   5.547   3.104   4.091  2.0923 -0.7618  1.4310
 5807TIP3   OH217384   3.198   6.752   2.044 -0.4329 -0.1672  0.3324
 5807TIP3    H117385   3.257   6.707   2.104  0.5068  0.2250 -0.2855
 5807TIP3    H217386   3.167   6.828   2.094 -0.5750 -0.4745  0.7193
 5808TIP3   OH217387   5.651   4.572   4.642  0.6894 -0.1451 -0.6458
 5808TIP3    H117388   5.740   4.595   4.616  1.1031 -0.4559  0.4200
 5808TIP3    H217389   5.660   4.540   4.732 -0.3402 -1.2154 -0.8951
 5809TIP3   OH217390   4.412   1.329   4.500  0.0048 -0.2174  0.7408
 5809TIP3    H117391   4.439   1.412   4.540  0.5031 -0.4379  0.8712
 5809TIP3    H217392   4.430   1.263   4.567  1.3679 -0.6602 -0.0172
 5810TIP3   OH217393   1.811   6.530   5.443  0.1319 -0.0917 -0.0836
 5810TIP3    H117394   1.779   6.547   5.531 -0.1345  0.3053 -0.2517
 5810TIP3    H217395   1.895   6.577   5.439  0.4663 -0.6628  0.1728
 5811TIP3   OH217396   1.118   3.125   3.065  0.0690 -0.0612  0.0022
 5811TIP3    H117397   1.045   3.170   3.107  1.3836  1.0400  1.2007
 5811TIP3    H217398   1.140   3.180   2.990 -0.3595 -0.4365 -0.4071
 5812TIP3   OH217399   2.287   1.689   0.680  0.2239 -0.2852  0.2135
 5812TIP3    H117400   2.285   1.607   0.730 -2.2310 -0.8853 -0.6842
 5812TIP3    H217401   2.237   1.751   0.733 -1.9243 -0.7698 -1.1204
 5813TIP3   OH217402   5.236   4.989   3.291 -0.0188 -0.3017 -0.1571
 5813TIP3    H117403   5.321   4.944   3.290 -0.0150 -0.3254  0.7467
 5813TIP3    H217404   5.211   4.994   3.199  1.3728  0.4738 -0.5309
 5814TIP3   OH217405   4.357   4.615   4.585 -0.3575  1.1401 -0.3422
 5814TIP3    H117406   4.343   4.532   4.630 -1.4999  1.3015 -0.3820
 5814TIP3    H217407   4.270   4.644   4.559  0.1994  1.3031 -2.2150
 5815TIP3   OH217408   3.159   1.822   3.439  0.4127 -0.0718  0.1034
 5815TIP3    H117409   3.245   1.814   3.397  0.2482 -2.5344  0.1085
 5815TIP3    H217410   3.162   1.908   3.481  3.2654 -0.4356  0.9093
 5816TIP3   OH217411   6.959   5.858   2.348 -0.0668 -0.6333 -0.1896
 5816TIP3    H117412   6.868   5.847   2.320  0.1484 -1.4825 -0.5663
 5816TIP3    H217413   6.954   5.865   2.444 -0.4658 -1.3440 -0.1599
 5817TIP3   OH217414   5.222   3.826   3.502 -0.0773 -0.1375  0.1936
 5817TIP3    H117415   5.142   3.791   3.540  0.4905  0.7455  2.3443
 5817TIP3    H217416   5.206   3.921   3.496  0.2291 -0.1358 -0.8974
 5818TIP3   OH217417   3.168   3.426   3.843  0.3104 -0.1369 -0.6336
 5818TIP3    H117418   3.244   3.470   3.806  0.8584  0.8521  1.5306
 5818TIP3    H217419   3.095   3.485   3.826  0.4297 -0.0191 -0.7349
 5819TIP3   OH217420   1.451   3.601   3.784  0.2266  0.3231 -0.0506
 5819TIP3    H117421   1.380   3.666   3.780 -0.6682 -0.6020  0.2353
 5819TIP3    H217422   1.432   3.549   3.862  0.5953 -0.6382 -0.5843
 5820TIP3   OH217423   3.499   2.674   1.852  0.1099 -0.2252  0.0367
 5820TIP3    H117424   3.467   2.706   1.767  1.3272 -0.5391 -0.5585
 5820TIP3    H217425   3.425   2.625   1.888 -1.2339  1.8032  0.2349
 5821TIP3   OH217426   3.446   6.647   3.902 -0.3053  0.3028  0.1641
 5821TIP3    H117427   3.364   6.621   3.859  0.4984 -0.3823 -0.9955
 5821TIP3    H217428   3.499   6.685   3.832  0.4201  0.6355  0.8787
 5822TIP3   OH217429   5.497   1.162   1.079  0.2547  0.0287 -0.1046
 5822TIP3    H117430   5.452   1.077   1.077 -1.6569  0.8097  2.8861
 5822TIP3    H217431   5.429   1.225   1.054  0.7177  0.9327  0.8435
 5823TIP3   OH217432   0.122   4.497   4.693 -0.3579 -0.0545 -0.3594
 5823TIP3    H117433   0.046   4.477   4.748  0.2180 -1.0642  0.0873
 5823TIP3    H217434   0.120   4.431   4.624  0.2912 -0.2988 -0.1542
 5824TIP3   OH217435   3.743   5.967   4.976  0.3379 -0.4547 -0.0129
 5824TIP3    H117436   3.680   5.896   4.964  2.2588 -2.3574  0.5495
 5824TIP3    H217437   3.765   5.964   5.070  0.7539  0.6413 -0.0600
 5825TIP3   OH217438   1.686   3.390   0.769 -0.7230 -0.2782  0.2426
 5825TIP3    H117439   1.669   3.352   0.683  0.6057 -0.3143 -0.0199
 5825TIP3    H217440   1.781   3.384   0.780 -0.7220  0.9904  1.1237
 5826TIP3   OH217441   4.967   5.374   4.358 -0.1573  0.1094 -0.2910
 5826TIP3    H117442   4.905   5.313   4.318  0.1843 -1.5599  1.5545
 5826TIP3    H217443   4.929   5.393   4.444  1.0366  0.4417  0.1788
 5827TIP3   OH217444   2.683   3.952   2.089 -0.3737  0.4877  0.0433
 5827TIP3    H117445   2.637   3.941   2.172 -0.2658 -0.4013  0.0006
 5827TIP3    H217446   2.775   3.942   2.111 -0.3045  0.8288 -0.0932
 5828TIP3   OH217447   6.298   1.596   4.063 -0.1304  0.1211  0.1573
 5828TIP3    H117448   6.279   1.678   4.108 -0.6761 -0.2380  0.5937
 5828TIP3    H217449   6.375   1.616   4.009 -0.8372  1.1778 -0.4884
 5829TIP3   OH217450   0.556   4.133   4.714  0.0843 -0.5971 -0.3095
 5829TIP3    H117451   0.650   4.152   4.724  0.2286 -0.9020 -0.9974
 5829TIP3    H217452   0.539   4.063   4.777  0.4283 -0.8659 -0.5125
 5830TIP3   OH217453   0.726   2.124   3.287  0.2001 -0.1449 -0.4286
 5830TIP3    H117454   0.738   2.218   3.279  0.6751  0.2101  2.9109
 5830TIP3    H217455   0.636   2.108   3.259  0.3043  1.1515 -1.6042
 5831TIP3   OH217456   6.330   3.166   2.019  0.3170 -0.6196  0.2993
 5831TIP3    H117457   6.257   3.183   2.078  2.5594  1.3705  2.7156
 5831TIP3    H217458   6.378   3.094   2.060 -0.3607 -2.1561 -1.4565
 5832TIP3   OH217459   4.693   1.040   4.473 -0.8567  0.4231  0.1305
 5832TIP3    H117460   4.715   0.998   4.556 -0.5595 -0.3315 -0.3182
 5832TIP3    H217461   4.759   1.008   4.412 -1.6032  0.2515 -0.6034
 5833TIP3   OH217462   5.052   4.203   1.131  0.3480  0.2779 -0.2791
 5833TIP3    H117463   5.136   4.161   1.117 -0.2027 -1.0414  0.1909
 5833TIP3    H217464   5.001   4.139   1.182 -0.9646  0.9919 -0.6370
 5834TIP3   OH217465   1.823   0.410   5.626 -0.2231  0.3849 -0.1547
 5834TIP3    H117466   1.863   0.450   5.548 -0.4861  1.1578  0.0935
 5834TIP3    H217467   1.812   0.483   5.687 -0.2814 -0.1651  0.4989
 5835TIP3   OH217468   2.018   0.357   2.988 -0.6751 -0.2579  0.6470
 5835TIP3    H117469   1.998   0.270   2.954 -1.1644  0.0907  0.0320
 5835TIP3    H217470   2.066   0.340   3.070 -2.9891 -1.1578  1.9171
 5836TIP3   OH217471   7.061   0.557   2.791 -0.1630 -0.6448  0.2856
 5836TIP3    H117472   7.083   0.500   2.718  0.5026 -1.1417  0.8592
 5836TIP3    H217473   6.997   0.508   2.843 -0.3196 -0.4667  0.2635
 5837TIP3   OH217474   1.787   0.917   3.837 -0.1795 -0.5202  0.0527
 5837TIP3    H117475   1.872   0.950   3.868 -0.6367 -0.1959  1.0032
 5837TIP3    H217476   1.723   0.976   3.877 -0.7993  0.3806 -2.1232
 5838TIP3   OH217477   6.419   4.767   4.105  0.0368 -0.1535 -0.4827
 5838TIP3    H117478   6.393   4.807   4.188  1.8929 -0.6070  0.3706
 5838TIP3    H217479   6.338   4.730   4.070 -0.8061  0.0931  1.0939
 5839TIP3   OH217480   2.211   0.499   5.059  0.0827  0.0877  0.1566
 5839TIP3    H117481   2.241   0.481   5.148  2.3930  0.0721 -0.5554
 5839TIP3    H217482   2.237   0.589   5.043 -0.5652  0.1751 -0.4175
 5840TIP3   OH217483   4.831   1.842   0.086 -0.3778  0.2813 -0.0549
 5840TIP3    H117484   4.846   1.871   0.176 -2.2127 -2.1442  1.1474
 5840TIP3    H217485   4.912   1.798   0.061  0.6481  2.1187 -0.1703
 5841TIP3   OH217486   2.779   4.351   3.030 -0.1939 -0.5887 -0.2578
 5841TIP3    H117487   2.754   4.281   2.970 -0.1611 -0.3499 -0.5553
 5841TIP3    H217488   2.860   4.387   2.992  2.8773 -3.7520  2.5867
 5842TIP3   OH217489   1.110   4.680   2.166  0.1438 -0.2244  0.2468
 5842TIP3    H117490   1.019   4.695   2.140  0.6388  0.1968 -1.3710
 5842TIP3    H217491   1.108   4.599   2.216 -0.9443 -0.9985 -0.9875
 5843TIP3   OH217492   3.683   3.632   0.768  0.3422  0.2194  0.1406
 5843TIP3    H117493   3.623   3.707   0.774  1.3146  0.9104  2.6933
 5843TIP3    H217494   3.634   3.565   0.721 -0.3643  2.6091 -2.7970
 5844TIP3   OH217495   1.351   1.367   4.383 -0.1286 -0.2504  0.2663
 5844TIP3    H117496   1.424   1.422   4.409 -0.0685 -0.1478 -0.1142
 5844TIP3    H217497   1.328   1.397   4.295 -1.5835  0.7389  0.9281
 5845TIP3   OH217498   0.020   6.795   3.254  0.2735  0.4671  0.5381
 5845TIP3    H117499  -0.052   6.770   3.195  0.6406 -0.4450  0.4513
 5845TIP3    H217500   0.085   6.835   3.196  0.0694  0.7977  0.5341
 5846TIP3   OH217501  -0.013   4.741   0.810 -0.5290 -0.1908  0.2965
 5846TIP3    H117502  -0.048   4.688   0.881 -0.5512 -0.4161  0.1215
 5846TIP3    H217503   0.074   4.766   0.839 -0.2107 -0.9799  0.0586
 5847TIP3   OH217504   0.235   3.594   1.715 -0.4687 -0.0840  0.0391
 5847TIP3    H117505   0.197   3.644   1.643 -0.0877  2.9470  1.7506
 5847TIP3    H217506   0.327   3.584   1.693 -0.8425 -1.4636 -1.0137
 5848TIP3   OH217507   4.754   5.070   1.766  0.2409 -0.1219 -0.6631
 5848TIP3    H117508   4.663   5.051   1.744  0.1306  0.3918 -0.6815
 5848TIP3    H217509   4.758   5.166   1.767  0.7528 -0.1425 -0.5444
 5849TIP3   OH217510   5.322   1.623   5.234 -0.0497  0.7142 -0.2832
 5849TIP3    H117511   5.307   1.716   5.248 -1.7049  0.3579  0.5988
 5849TIP3    H217512   5.364   1.592   5.314  0.7428  0.7482 -0.6831
 5850TIP3   OH217513   4.497   0.120   4.041 -0.2315 -0.2444  0.5185
 5850TIP3    H117514   4.519   0.126   4.134  1.1389  0.9486  0.1464
 5850TIP3    H217515   4.401   0.125   4.039 -0.2416  0.6081  1.8147
 5851TIP3   OH217516   3.871   2.297   3.413 -0.8567 -0.0294  0.4028
 5851TIP3    H117517   3.829   2.213   3.433  0.0251 -0.2958  1.2173
 5851TIP3    H217518   3.944   2.273   3.355 -1.9488  0.4613 -1.2451
 5852TIP3   OH217519   2.091   5.703   2.187 -0.0817  0.2243 -0.2101
 5852TIP3    H117520   2.166   5.693   2.130 -1.4504  1.8505 -2.4502
 5852TIP3    H217521   2.051   5.616   2.190 -1.5021  0.5808 -4.1157
 5853TIP3   OH217522   4.323   0.057   0.346 -0.3321  0.3480  0.0832
 5853TIP3    H117523   4.400   0.023   0.302 -1.0360 -0.5330 -0.5101
 5853TIP3    H217524   4.342   0.048   0.439 -0.4639 -1.6990 -0.0412
 5854TIP3   OH217525   2.079   6.274   3.246  0.3157  0.3525  0.3225
 5854TIP3    H117526   2.169   6.297   3.270  0.5346 -0.9630  0.8841
 5854TIP3    H217527   2.026   6.344   3.283  1.0585  0.8541  0.4793
 5855TIP3   OH217528   5.376   5.615   1.804 -0.1065  0.6559  0.2614
 5855TIP3    H117529   5.435   5.646   1.736 -0.8070 -0.3199 -0.8321
 5855TIP3    H217530   5.430   5.558   1.858 -0.5874 -2.8051 -2.5389
 5856TIP3   OH217531   5.888   1.430   4.853  0.4578 -0.3208  0.1086
 5856TIP3    H117532   5.976   1.449   4.886  1.1113 -1.3533 -0.9734
 5856TIP3    H217533   5.829   1.471   4.917  1.7054 -0.1967  1.2185
 5857TIP3   OH217534   1.525   5.236   3.164  0.6832  0.1834 -0.3390
 5857TIP3    H117535   1.589   5.174   3.130  3.9175  3.3282 -0.5938
 5857TIP3    H217536   1.464   5.250   3.092  0.3904 -1.9317 -0.5589
 5858TIP3   OH217537   0.539   2.325   1.586 -0.0161 -0.6445  0.1985
 5858TIP3    H117538   0.601   2.331   1.659 -0.2026  1.1892  0.2594
 5858TIP3    H217539   0.566   2.246   1.538  0.2899 -1.7378  2.0567
 5859TIP3   OH217540   6.222   1.298   0.343  0.3591  0.0962 -0.0450
 5859TIP3    H117541   6.263   1.334   0.264 -1.2880 -0.3554 -1.1405
 5859TIP3    H217542   6.135   1.337   0.345  0.7310  0.9376  2.1785
 5860TIP3   OH217543   2.345   1.088   4.961 -0.7498  0.7572  0.6364
 5860TIP3    H117544   2.323   1.006   4.917 -0.4815  1.1290 -0.2218
 5860TIP3    H217545   2.381   1.062   5.045  1.2741 -0.1281 -0.4336
 5861TIP3   OH217546   2.980   4.811   2.020 -0.4229  0.5370 -0.3927
 5861TIP3    H117547   2.915   4.809   2.090 -0.8117  0.8304 -0.7416
 5861TIP3    H217548   3.056   4.765   2.057 -1.2504 -0.9016 -0.4003
 5862TIP3   OH217549   5.671   6.801   3.174  0.0035  0.4295 -0.0862
 5862TIP3    H117550   5.700   6.732   3.234  0.7401  0.5953 -0.2404
 5862TIP3    H217551   5.587   6.770   3.141  0.1575 -0.2302  0.1195
 5863TIP3   OH217552   2.705   1.762   0.809  0.2027  0.3113  0.3858
 5863TIP3    H117553   2.625   1.713   0.792  0.6976 -0.0475 -1.0950
 5863TIP3    H217554   2.768   1.729   0.745  1.7200  0.2183  1.8501
 5864TIP3   OH217555   2.223   0.937   1.008 -0.0176  0.4063  0.0490
 5864TIP3    H117556   2.241   0.995   1.083 -0.4414  0.0241  0.4576
 5864TIP3    H217557   2.239   0.849   1.042  0.3028  0.2610 -0.4731
 5865TIP3   OH217558   3.436   2.235   4.078  0.0067  0.4562  0.3242
 5865TIP3    H117559   3.443   2.173   4.005  0.1441  0.9767 -0.1129
 5865TIP3    H217560   3.342   2.246   4.091 -0.0464  1.4115 -0.6988
 5866TIP3   OH217561   0.693   5.793   2.263 -0.2964  0.0192  0.2390
 5866TIP3    H117562   0.721   5.880   2.291 -0.2168  0.2720 -0.5783
 5866TIP3    H217563   0.625   5.767   2.325  1.3248 -0.3671  1.9168
 5867TIP3   OH217564   4.429   0.331   1.216 -0.1678  0.6914  0.6381
 5867TIP3    H117565   4.412   0.417   1.178  0.7319  0.1168 -1.1667
 5867TIP3    H217566   4.489   0.289   1.156  1.0373 -0.4654  2.5349
 5868TIP3   OH217567   4.375   0.618   2.040 -0.1668 -0.8953  0.6832
 5868TIP3    H117568   4.409   0.544   1.989 -0.1568 -0.3598 -0.0957
 5868TIP3    H217569   4.281   0.619   2.022  0.1521  0.7344 -1.2738
 5869TIP3   OH217570   2.810   5.848   4.722  0.6021 -0.2230 -0.1715
 5869TIP3    H117571   2.856   5.922   4.762  0.1198 -0.2753  0.5056
 5869TIP3    H217572   2.754   5.814   4.792 -0.4651 -0.1594 -0.9543
 5870TIP3   OH217573   5.390   0.648   3.658  0.0043 -0.1147  1.1487
 5870TIP3    H117574   5.355   0.733   3.630 -0.0884 -0.0131  1.5722
 5870TIP3    H217575   5.399   0.656   3.753  1.5768  0.0255  1.0217
 5871TIP3   OH217576   0.690   5.939   1.500 -0.3820  0.2024  0.2716
 5871TIP3    H117577   0.779   5.920   1.530  0.1888 -2.5033 -2.5056
 5871TIP3    H217578   0.633   5.890   1.560  0.3410 -1.1152 -0.0697
 5872TIP3   OH217579   0.745   2.838   3.437  0.3311 -0.7274  0.1533
 5872TIP3    H117580   0.696   2.790   3.371  0.2429 -0.3333 -0.0721
 5872TIP3    H217581   0.694   2.917   3.452  1.0314 -0.1767 -0.2909
 5873TIP3   OH217582   6.153   2.869  -0.007 -0.0728 -0.9573 -0.3639
 5873TIP3    H117583   6.174   2.962  -0.003 -0.1641 -0.9705  0.7598
 5873TIP3    H217584   6.059   2.864   0.011  0.1863 -1.3429  1.0329
 5874TIP3   OH217585   4.471   3.759   2.353  0.0616 -0.1517  0.2935
 5874TIP3    H117586   4.550   3.727   2.396 -0.2639 -1.4005 -0.0068
 5874TIP3    H217587   4.449   3.839   2.401  0.3462 -0.8928  1.7298
 5875TIP3   OH217588   6.493   5.815   2.438 -0.0715  0.3584 -0.5958
 5875TIP3    H117589   6.558   5.825   2.368  0.5091  0.5611 -0.0332
 5875TIP3    H217590   6.544   5.815   2.519 -0.6486 -0.7961 -0.2069
 5876TIP3   OH217591   6.024   5.199   1.258 -0.3886 -0.0639 -0.2372
 5876TIP3    H117592   6.038   5.288   1.290  1.3885  0.4678 -2.2305
 5876TIP3    H217593   6.003   5.210   1.165  1.9662 -1.7278 -1.0756
 5877TIP3   OH217594   1.252   5.926   3.393  0.0340 -0.3984  0.5794
 5877TIP3    H117595   1.208   6.009   3.412 -0.4706 -0.8683  1.5732
 5877TIP3    H217596   1.339   5.951   3.362 -0.9835  0.5801 -1.7386
 5878TIP3   OH217597   6.694   6.579   4.694 -0.5406 -0.0967  0.0847
 5878TIP3    H117598   6.696   6.606   4.786  1.7178 -1.3997  0.5051
 5878TIP3    H217599   6.677   6.485   4.697 -3.4970  0.2788 -1.0788
 5879TIP3   OH217600   3.354   6.693   0.041  0.2849  0.0791 -0.8310
 5879TIP3    H117601   3.308   6.731  -0.035  2.0072 -0.2336 -2.0915
 5879TIP3    H217602   3.287   6.689   0.109 -1.2917  0.5722 -2.2584
 5880TIP3   OH217603   5.115   5.059   2.600  0.3928  0.8969  0.2176
 5880TIP3    H117604   5.145   5.036   2.512  0.1419  3.4160 -0.6127
 5880TIP3    H217605   5.071   4.980   2.631  0.0005  0.0891 -2.1517
 5881TIP3   OH217606   1.544   6.140   2.074  0.4962  0.2077 -0.7856
 5881TIP3    H117607   1.635   6.121   2.051  0.3574 -1.5375 -0.0450
 5881TIP3    H217608   1.532   6.101   2.161 -0.2738  2.6229  0.2811
 5882TIP3   OH217609   6.244   5.563   3.225  0.0496 -0.6140  0.2082
 5882TIP3    H117610   6.198   5.491   3.267  0.6538 -0.3546  1.3668
 5882TIP3    H217611   6.314   5.521   3.175 -0.1222 -0.8768  0.1859
 5883TIP3   OH217612   6.640   0.463   3.486 -0.1700 -0.0328 -0.5825
 5883TIP3    H117613   6.606   0.425   3.405 -0.0250  0.5484 -0.9206
 5883TIP3    H217614   6.622   0.557   3.478 -1.4437 -0.1321  0.6895
 5884TIP3   OH217615   1.478   2.475   3.644  0.0344  0.2772 -0.2609
 5884TIP3    H117616   1.546   2.437   3.589 -0.9485  0.8690 -1.9364
 5884TIP3    H217617   1.402   2.418   3.632 -0.1604  0.3209  0.6376
 5885TIP3   OH217618   1.682   4.824   0.116  0.2018 -0.3560  0.9579
 5885TIP3    H117619   1.711   4.915   0.109 -0.9229 -0.0026  0.5606
 5885TIP3    H217620   1.688   4.791   0.026  0.0949 -0.5041  1.0062
 5886TIP3   OH217621   1.627   4.969   2.182  0.2674  0.1230  0.1593
 5886TIP3    H117622   1.667   5.043   2.228 -0.5194 -0.0450  1.1729
 5886TIP3    H217623   1.548   5.006   2.143  0.2339 -0.0350  0.0782
 5887TIP3   OH217624   0.926   1.846   4.837  0.0667  0.6246 -0.1678
 5887TIP3    H117625   0.963   1.862   4.750  1.2429  1.1087  0.4074
 5887TIP3    H217626   0.967   1.911   4.894  0.5924 -0.7482  1.0894
 5888TIP3   OH217627   6.159   1.423   2.838 -0.1904 -0.1341 -0.0983
 5888TIP3    H117628   6.169   1.328   2.842 -0.2269 -0.1102  0.8363
 5888TIP3    H217629   6.069   1.439   2.865 -0.3013  0.1462 -0.6214
 5889TIP3   OH217630   3.222   3.913   2.292 -0.3829  0.7982 -0.4224
 5889TIP3    H117631   3.262   3.939   2.375  0.2521 -0.5330 -0.2722
 5889TIP3    H217632   3.135   3.882   2.316  0.2953 -0.9320  0.0147
 5890TIP3   OH217633   5.258   5.108   4.173  0.4761  0.6478  0.2949
 5890TIP3    H117634   5.234   5.200   4.161 -0.0641  0.4103 -0.5374
 5890TIP3    H217635   5.175   5.065   4.195 -0.0050 -0.2045 -2.6916
 5891TIP3   OH217636   6.119   1.506   1.200 -0.2140 -0.3672  0.6356
 5891TIP3    H117637   6.212   1.498   1.220  0.3921  3.4852  0.1416
 5891TIP3    H217638   6.110   1.468   1.113  0.7851 -1.1139  0.8353
 5892TIP3   OH217639   5.584   5.599   4.857  0.4809 -0.1246 -0.1504
 5892TIP3    H117640   5.489   5.605   4.871  0.4843  1.8005 -0.6853
 5892TIP3    H217641   5.593   5.576   4.765  0.5466 -1.6798  0.2254
 5893TIP3   OH217642   6.673   4.627   4.143  0.5166  0.1953 -0.2149
 5893TIP3    H117643   6.703   4.627   4.052  0.6116  0.3435 -0.1840
 5893TIP3    H217644   6.578   4.643   4.137  0.5195  0.1838 -0.2885
 5894TIP3   OH217645   6.688   6.040   5.662 -0.1064  0.4792 -0.2224
 5894TIP3    H117646   6.771   6.057   5.706 -0.2092  0.4972 -0.0342
 5894TIP3    H217647   6.706   6.055   5.570  0.2355 -0.0171 -0.2444
 5895TIP3   OH217648   6.260   2.858   0.770  0.3772  0.6077  0.0624
 5895TIP3    H117649   6.179   2.888   0.812  0.8987  0.7448  1.0139
 5895TIP3    H217650   6.305   2.810   0.839  0.2382 -1.1293 -1.0098
 5896TIP3   OH217651   0.133   2.861   5.456 -0.1936 -0.6362 -0.1929
 5896TIP3    H117652   0.185   2.793   5.498 -1.0457 -1.6627 -0.7365
 5896TIP3    H217653   0.098   2.819   5.378 -1.7952  0.0140  0.1326
 5897TIP3   OH217654   0.633   0.030   0.205 -0.2365 -0.1793  0.0569
 5897TIP3    H117655   0.634   0.067   0.117  0.9816 -0.7348 -0.1964
 5897TIP3    H217656   0.714   0.062   0.245  0.0932 -1.3181  0.3448
 5898TIP3   OH217657   3.756   4.670   1.471  0.0219  0.4394 -0.1934
 5898TIP3    H117658   3.799   4.596   1.513 -0.1174 -0.0259 -0.8581
 5898TIP3    H217659   3.735   4.729   1.543  0.8473  0.2047  0.2544
 5899TIP3   OH217660   0.883   2.022   3.562 -0.1799  0.0486  0.0687
 5899TIP3    H117661   0.850   1.987   3.479  0.3074  1.2789 -0.6793
 5899TIP3    H217662   0.866   2.115   3.557 -0.8648  0.0405  1.7322
 5900TIP3   OH217663   3.546   6.572   0.956  0.4023 -0.2224  0.2499
 5900TIP3    H117664   3.485   6.641   0.932  1.2375  0.7855  0.9328
 5900TIP3    H217665   3.604   6.563   0.880  0.2713 -0.2118  0.1476
 5901TIP3   OH217666   5.844   0.423   4.496 -0.3191 -0.6684  0.1379
 5901TIP3    H117667   5.759   0.378   4.492  0.2496 -1.7782  0.2974
 5901TIP3    H217668   5.837   0.478   4.574 -1.7745  1.1500 -1.1689
 5902TIP3   OH217669   1.486   1.248   5.167  0.3926 -0.3767 -0.6032
 5902TIP3    H117670   1.564   1.295   5.138  1.4603 -1.8844 -0.2857
 5902TIP3    H217671   1.414   1.308   5.148  1.6211  1.1249 -0.7735
 5903TIP3   OH217672   6.517   3.278   1.250 -0.0169  0.0686 -0.2375
 5903TIP3    H117673   6.507   3.278   1.345  0.8337  0.4180 -0.1377
 5903TIP3    H217674   6.523   3.371   1.227  0.6396 -0.0431 -0.5315
 5904TIP3   OH217675   1.356   4.209   2.109 -0.3017  0.2136 -0.6990
 5904TIP3    H117676   1.280   4.156   2.132  0.8048 -0.9407  0.4687
 5904TIP3    H217677   1.363   4.273   2.181  1.0679 -1.1086  0.4259
 5905TIP3   OH217678   4.977   1.170   4.129  0.6328  0.6480  0.2769
 5905TIP3    H117679   4.883   1.179   4.147  0.6184 -1.0477  1.2182
 5905TIP3    H217680   4.981   1.144   4.037  0.3555  2.8891 -0.4524
 5906TIP3   OH217681   6.447   5.151   5.829  0.5426 -0.0330  0.1758
 5906TIP3    H117682   6.367   5.105   5.854  0.3453  1.3464  2.3231
 5906TIP3    H217683   6.495   5.088   5.774 -1.7884 -1.0386 -0.8241
 5907TIP3   OH217684   4.893   0.443   5.627 -0.0804  0.1018 -0.6648
 5907TIP3    H117685   4.856   0.479   5.709 -0.6035  3.8647 -2.3272
 5907TIP3    H217686   4.817   0.406   5.581 -0.0924 -0.4305 -0.2309
 5908TIP3   OH217687   4.867   1.056   3.399 -0.2199  0.3396  0.5689
 5908TIP3    H117688   4.840   1.031   3.310  2.6753  0.3044 -0.4292
 5908TIP3    H217689   4.861   1.151   3.400 -0.7372  0.3115  0.5261
 5909TIP3   OH217690   6.281   4.399   3.646  0.0156 -0.4809 -0.6772
 5909TIP3    H117691   6.200   4.378   3.692 -0.1338  1.0080 -0.2111
 5909TIP3    H217692   6.264   4.374   3.555 -1.2481  0.4961 -0.7280
 5910TIP3   OH217693   4.274   0.248   1.680 -0.1186  0.7153 -0.5005
 5910TIP3    H117694   4.221   0.288   1.748  0.0810  1.0646 -0.5494
 5910TIP3    H217695   4.279   0.313   1.610 -0.8222  0.1291 -1.1114
 5911TIP3   OH217696   5.536   1.863   4.541  0.0001  0.0360 -0.7212
 5911TIP3    H117697   5.442   1.847   4.544  0.1772 -0.9829 -0.2245
 5911TIP3    H217698   5.571   1.791   4.489  0.2502  1.8153 -3.1829
 5912TIP3   OH217699   3.585   4.576   1.770  0.1840  0.2420  0.2712
 5912TIP3    H117700   3.628   4.494   1.745 -0.6144  0.0268 -0.4341
 5912TIP3    H217701   3.654   4.642   1.767 -0.1874  0.8230 -5.1949
 5913TIP3   OH217702   6.167   3.919   5.178  0.2304  0.1505 -0.5828
 5913TIP3    H117703   6.136   4.009   5.183 -0.5583 -0.1504  0.2000
 5913TIP3    H217704   6.229   3.919   5.105 -0.0950  1.2214 -0.8784
 5914TIP3   OH217705   2.453   6.536   0.798 -0.2005  0.1773  0.1024
 5914TIP3    H117706   2.533   6.545   0.851  0.2406  0.3019 -0.5692
 5914TIP3    H217707   2.457   6.609   0.736  0.3623 -1.1209 -1.4787
 5915TIP3   OH217708   3.077   6.507   4.119 -0.3633 -0.2941 -0.3189
 5915TIP3    H117709   3.035   6.528   4.202  1.0279 -1.1880  0.6597
 5915TIP3    H217710   3.097   6.414   4.124  0.9513 -0.0887 -1.0674
 5916TIP3   OH217711   2.047   0.597   1.155  0.0274  0.5309  0.1490
 5916TIP3    H117712   2.130   0.639   1.130  1.2593 -1.3238  0.9526
 5916TIP3    H217713   2.031   0.627   1.245  0.2990  0.2170  0.3052
 5917TIP3   OH217714   3.411   3.616   3.757  0.0909  0.0454 -0.0564
 5917TIP3    H117715   3.490   3.667   3.739 -0.1597  1.3371  2.0986
 5917TIP3    H217716   3.399   3.624   3.852 -2.1823 -0.8149 -0.2143
 5918TIP3   OH217717   3.315   6.326   2.814 -0.0117 -0.4612  0.6153
 5918TIP3    H117718   3.338   6.296   2.902  0.5401 -0.9603  0.3060
 5918TIP3    H217719   3.373   6.400   2.797  0.4386 -0.8680  0.3636
 5919TIP3   OH217720   4.865   0.283   5.023  0.1339  0.2486  0.3755
 5919TIP3    H117721   4.853   0.204   4.971  2.9391 -0.3982  0.5557
 5919TIP3    H217722   4.778   0.302   5.059 -0.9241 -1.8455 -0.8909
 5920TIP3   OH217723   6.551   0.479   5.167 -0.1842 -0.4091 -0.5595
 5920TIP3    H117724   6.481   0.508   5.224 -0.7843 -1.5592 -0.6715
 5920TIP3    H217725   6.588   0.402   5.211  1.7458  0.7981  0.0445
 5921TIP3   OH217726   3.407   1.974   3.339  0.5821  0.4965 -0.4656
 5921TIP3    H117727   3.465   1.906   3.374  0.2965  0.5175  0.0627
 5921TIP3    H217728   3.383   1.943   3.252  1.4209  0.5118 -0.7082
 5922TIP3   OH217729   4.930   5.792   0.292 -0.1750 -0.1431 -0.1091
 5922TIP3    H117730   4.973   5.840   0.222  0.0160 -1.1111 -0.6843
 5922TIP3    H217731   4.857   5.747   0.249  0.5779 -1.6036  0.0648
 5923TIP3   OH217732   0.858   0.770   5.550  0.1631  0.5939  0.4103
 5923TIP3    H117733   0.948   0.801   5.545 -0.1498  1.8001  1.7031
 5923TIP3    H217734   0.808   0.846   5.579 -1.3990  0.1360 -0.9169
 5924TIP3   OH217735   3.789   4.207   3.932  0.0428 -0.0332  0.2048
 5924TIP3    H117736   3.763   4.250   3.851 -0.4526 -1.2286 -0.2900
 5924TIP3    H217737   3.733   4.129   3.937  1.2866 -0.9264  0.7686
 5925TIP3   OH217738   0.484   2.430   5.026  0.2967 -0.0525  0.3698
 5925TIP3    H117739   0.449   2.496   5.086  0.5695 -0.2554  0.7554
 5925TIP3    H217740   0.564   2.399   5.068  0.1502 -0.6551  0.2074
 5926TIP3   OH217741   5.691   2.524   4.984 -0.5829  0.4795 -0.4409
 5926TIP3    H117742   5.678   2.457   4.917  0.1761  1.2914 -1.4269
 5926TIP3    H217743   5.782   2.552   4.974  0.1892 -0.7531  2.2584
 5927TIP3   OH217744   5.665   0.038   0.943  0.2057 -0.2735 -0.0943
 5927TIP3    H117745   5.645   0.003   1.030 -0.9695 -2.1249 -1.0339
 5927TIP3    H217746   5.723   0.112   0.960 -0.7835  0.0631  2.3190
 5928TIP3   OH217747   6.264   0.147   5.881 -0.8647  0.0522  0.2257
 5928TIP3    H117748   6.350   0.167   5.844 -0.1969  0.1472  1.7878
 5928TIP3    H217749   6.212   0.226   5.864  0.2418  1.1946  1.8224
 5929TIP3   OH217750   3.034   5.174   2.955 -0.1794  0.3011  0.0257
 5929TIP3    H117751   3.075   5.256   2.927 -1.0233  0.6605 -0.1920
 5929TIP3    H217752   2.980   5.198   3.030 -0.0613 -0.1469  0.2554
 5930TIP3   OH217753   5.586   6.531   0.614  0.9651 -0.6953 -0.0684
 5930TIP3    H117754   5.644   6.456   0.627  1.5143 -0.6420 -1.8794
 5930TIP3    H217755   5.568   6.531   0.520 -2.8507 -1.3263  0.4987
 5931TIP3   OH217756   3.621   1.262   0.419  0.8824  0.0783 -0.2474
 5931TIP3    H117757   3.539   1.235   0.378  0.7430  0.7523 -0.4300
 5931TIP3    H217758   3.675   1.295   0.347  2.3209 -2.6508 -0.5334
 5932TIP3   OH217759   1.941   5.579   1.917  0.3622 -0.5904 -0.0020
 5932TIP3    H117760   1.962   5.651   1.977 -0.8903  0.4981 -0.8122
 5932TIP3    H217761   1.854   5.550   1.944  0.2481 -0.8068 -0.5951
 5933TIP3   OH217762   3.818   2.581   0.660 -0.2719 -0.0346  0.6276
 5933TIP3    H117763   3.807   2.667   0.618 -0.4122  0.6062  1.9386
 5933TIP3    H217764   3.913   2.570   0.668 -0.2045 -0.5685 -0.6288
 5934TIP3   OH217765   2.002   2.309   0.949  0.9589 -0.2027 -0.5155
 5934TIP3    H117766   1.958   2.238   0.902  0.2169 -0.2720  0.2477
 5934TIP3    H217767   2.095   2.289   0.943  0.7803 -0.9921 -0.6986
 5935TIP3   OH217768   5.963   2.979   5.585  0.5694  0.1459 -0.2002
 5935TIP3    H117769   6.013   2.989   5.504  1.0274  0.2548  0.0906
 5935TIP3    H217770   5.882   3.027   5.570  0.8695  0.5920 -0.4134
 5936TIP3   OH217771   6.117   4.528   3.217  0.2320  0.4784 -0.6406
 5936TIP3    H117772   6.154   4.449   3.256 -0.9926  0.6316  0.9196
 5936TIP3    H217773   6.193   4.579   3.190  1.0633 -0.8074 -0.8709
 5937TIP3   OH217774   0.380   5.986   2.468 -0.5506  0.9612  0.1404
 5937TIP3    H117775   0.331   6.060   2.433 -0.5139 -0.2363 -2.6944
 5937TIP3    H217776   0.364   5.915   2.406  4.4256  0.3325 -0.8454
 5938TIP3   OH217777   1.879   0.595   0.336  0.6246 -0.1525  0.1908
 5938TIP3    H117778   1.956   0.598   0.392  0.2041  0.0883  0.7609
 5938TIP3    H217779   1.846   0.685   0.334 -0.7944 -0.5886  1.5988
 5939TIP3   OH217780   3.406   2.665   4.699 -0.0236 -0.1049 -0.1102
 5939TIP3    H117781   3.390   2.608   4.774 -1.2429  1.7922  1.1499
 5939TIP3    H217782   3.321   2.672   4.656  0.6208 -1.0175 -1.6079
 5940TIP3   OH217783   1.676   2.315   5.215 -0.5308  0.2577 -0.3174
 5940TIP3    H117784   1.718   2.308   5.129  0.9358  0.1895  0.3823
 5940TIP3    H217785   1.704   2.237   5.263  0.4258  1.3453  0.9579
 5941TIP3   OH217786   0.201   6.178   2.389 -0.1237 -0.2785  0.2101
 5941TIP3    H117787   0.107   6.172   2.408  0.1313 -0.1566  1.6328
 5941TIP3    H217788   0.206   6.224   2.305 -1.2918  1.1967  0.8967
 5942TIP3   OH217789   2.440   2.784   1.473  0.3555 -0.2489  0.5065
 5942TIP3    H117790   2.364   2.843   1.465  0.8352  0.2118 -1.0984
 5942TIP3    H217791   2.438   2.732   1.393  0.0913 -2.3057  1.7888
 5943TIP3   OH217792   3.532   3.023   1.157 -0.6056  0.2765  0.1280
 5943TIP3    H117793   3.494   2.954   1.211 -0.5046 -0.1683 -0.3612
 5943TIP3    H217794   3.621   3.034   1.191 -0.8570  0.6726  0.6712
 5944TIP3   OH217795   6.458   1.780   5.344  0.8045  0.3863 -0.1277
 5944TIP3    H117796   6.402   1.814   5.275  1.3879 -0.3230 -0.9728
 5944TIP3    H217797   6.399   1.726   5.398  0.4341  0.5950 -0.3204
 5945TIP3   OH217798   1.085   0.047   1.774  0.1476  0.0294  0.9330
 5945TIP3    H117799   1.161   0.057   1.716 -0.8555  2.2507 -0.0842
 5945TIP3    H217800   1.121   0.056   1.862  1.2291 -0.1612  0.5264
 5946TIP3   OH217801   6.579   0.451   5.693  0.5950 -0.7183 -0.4293
 5946TIP3    H117802   6.527   0.490   5.622  1.8410 -1.1965 -1.6699
 5946TIP3    H217803   6.534   0.370   5.714 -2.5690  1.6045  2.8318
 5947TIP3   OH217804   4.068   1.303   2.511 -0.1492  0.0557 -0.3258
 5947TIP3    H117805   4.037   1.378   2.459 -0.4866 -0.7951 -1.4049
 5947TIP3    H217806   4.085   1.235   2.446 -0.1168 -0.8983  0.6584
 5948TIP3   OH217807   7.052   2.671   3.546  0.3519  0.3694  0.1255
 5948TIP3    H117808   7.104   2.592   3.563  1.2722  0.8457 -0.4170
 5948TIP3    H217809   7.037   2.709   3.632  2.1097  0.9714  0.2024
 5949TIP3   OH217810   3.464   1.730   4.700  0.5171 -0.2771  0.3935
 5949TIP3    H117811   3.472   1.718   4.795  2.0520 -0.3775  0.2658
 5949TIP3    H217812   3.373   1.759   4.688  0.1166 -0.8330  1.8239
 5950TIP3   OH217813   0.444  -0.001   2.845  0.0833 -0.6151 -0.5185
 5950TIP3    H117814   0.406   0.062   2.906  1.3694  0.0154 -0.3296
 5950TIP3    H217815   0.426   0.035   2.759  0.1510 -0.3900 -0.4380
 5951TIP3   OH217816   3.308   6.016   0.779  0.3983 -0.2748 -0.3644
 5951TIP3    H117817   3.217   5.988   0.790  0.7586 -0.9707  1.0921
 5951TIP3    H217818   3.353   5.981   0.856  1.7607  0.6568 -0.7112
 5952TIP3   OH217819   4.189   1.017   1.399  0.4987 -0.1945 -0.6375
 5952TIP3    H117820   4.221   0.957   1.331  0.9894 -0.7884  0.1003
 5952TIP3    H217821   4.180   0.962   1.477  0.0996  0.5118 -0.1775
 5953TIP3   OH217822   4.429   4.163   0.263 -0.2466  0.0924  0.3499
 5953TIP3    H117823   4.477   4.127   0.338  0.7611 -0.2131 -0.4222
 5953TIP3    H217824   4.337   4.148   0.284  0.0390 -0.3924  1.3187
 5954TIP3   OH217825   0.087   6.127   1.261  0.1537 -0.2285  0.1306
 5954TIP3    H117826   0.061   6.071   1.334  1.2990 -0.8419  0.0967
 5954TIP3    H217827   0.007   6.172   1.235 -0.5481 -0.9992  0.9019
 5955TIP3   OH217828   6.329   2.425   2.747  0.3555  0.2505  0.0419
 5955TIP3    H117829   6.293   2.473   2.822  0.2995 -1.7442  1.3501
 5955TIP3    H217830   6.255   2.377   2.711  0.3115  1.4112 -1.5646
 5956TIP3   OH217831   1.525   0.360   4.420 -0.0103  0.7024 -0.1323
 5956TIP3    H117832   1.506   0.315   4.337  1.2261 -2.6573  1.2259
 5956TIP3    H217833   1.446   0.348   4.472  0.7692 -1.3855  0.7191
 5957TIP3   OH217834   5.575   2.633   0.546 -0.3025  0.0551 -0.0424
 5957TIP3    H117835   5.618   2.651   0.462 -1.1174 -0.3907 -0.5654
 5957TIP3    H217836   5.577   2.537   0.554  0.8124  0.1304  1.0227
 5958TIP3   OH217837   1.866   3.630   5.109 -0.3711  0.3117 -0.0765
 5958TIP3    H117838   1.952   3.655   5.075  0.1982 -1.2436  0.1358
 5958TIP3    H217839   1.827   3.712   5.138  1.6494  0.9059  1.1782
 5959TIP3   OH217840   4.548   1.179   4.293  0.1712  0.1509  0.1278
 5959TIP3    H117841   4.484   1.230   4.342 -0.4454  0.0326 -0.5514
 5959TIP3    H217842   4.598   1.132   4.361  0.2743  1.0889  0.7117
 5960TIP3   OH217843   4.363   6.008   1.407  0.3797 -0.0224  0.1650
 5960TIP3    H117844   4.429   5.996   1.338  0.0165 -1.0126 -0.0279
 5960TIP3    H217845   4.414   6.017   1.487  0.8062  1.0756 -0.2149
 5961TIP3   OH217846   0.770   6.100   1.999  0.2352 -0.1892  0.0621
 5961TIP3    H117847   0.713   6.129   2.070  1.1290  1.3835  0.1720
 5961TIP3    H217848   0.723   6.026   1.960 -2.7149  1.9956 -0.9037
 5962TIP3   OH217849   5.372   0.695   1.923 -0.1990  0.4584 -0.7137
 5962TIP3    H117850   5.307   0.758   1.952 -0.6340 -0.7284  1.1150
 5962TIP3    H217851   5.337   0.610   1.950  0.0993 -0.6739 -3.5822
 5963TIP3   OH217852   2.516   3.156   3.295  0.4096 -0.5668 -0.6215
 5963TIP3    H117853   2.574   3.098   3.345  0.0728 -1.3933 -1.1724
 5963TIP3    H217854   2.428   3.120   3.309  0.3995 -1.3847 -2.5400
 5964TIP3   OH217855   0.060   4.895   4.186 -0.0004  0.1386  0.6928
 5964TIP3    H117856   0.011   4.867   4.264  0.5322  1.2123  1.4379
 5964TIP3    H217857   0.051   4.991   4.185  1.0019  0.2411  0.1071
 5965TIP3   OH217858   3.730   2.051   1.962 -0.0164 -0.4898 -0.0858
 5965TIP3    H117859   3.711   1.958   1.971  1.5555 -0.9145 -0.8059
 5965TIP3    H217860   3.816   2.062   2.003 -1.3575  1.2284  2.5769
 5966TIP3   OH217861   6.333   4.736   4.669 -0.3819  0.3582 -0.1918
 5966TIP3    H117862   6.256   4.681   4.653 -1.2654  1.0478  1.4492
 5966TIP3    H217863   6.299   4.825   4.671  1.1241  1.1766 -3.4550
 5967TIP3   OH217864   3.931   6.778   4.156  0.3769  0.6409 -0.2880
 5967TIP3    H117865   3.960   6.865   4.184 -0.3249  1.3592 -1.6606
 5967TIP3    H217866   4.006   6.740   4.112  1.1726 -0.1031  1.5977
 5968TIP3   OH217867   6.773   6.707   3.590  0.5409  0.0290 -0.1420
 5968TIP3    H117868   6.699   6.658   3.627  0.6554  0.1596  0.2571
 5968TIP3    H217869   6.808   6.648   3.523 -1.0228  0.6837 -1.6012
 5969TIP3   OH217870   1.371   5.850   1.632  0.0092  0.0200 -0.5929
 5969TIP3    H117871   1.456   5.842   1.588  0.8778 -1.4180  1.2078
 5969TIP3    H217872   1.334   5.761   1.628 -0.6853  0.2723  0.0521
 5970TIP3   OH217873   1.843   2.373   4.875  0.2712 -1.1635 -0.1658
 5970TIP3    H117874   1.756   2.338   4.855 -0.5588  0.2287  0.8118
 5970TIP3    H217875   1.898   2.346   4.802 -1.3580 -0.7336 -1.6056
 5971TIP3   OH217876   3.971   5.016   3.851  0.1140 -0.3507  0.3124
 5971TIP3    H117877   3.889   4.978   3.820 -0.3640  0.7383  0.1941
 5971TIP3    H217878   3.958   5.028   3.945  0.3212 -0.6169  0.3763
 5972TIP3   OH217879   2.167   1.458   2.384 -0.3520  0.1926 -0.4134
 5972TIP3    H117880   2.199   1.417   2.465  1.5912  0.4220 -1.0087
 5972TIP3    H217881   2.081   1.492   2.407  0.7549  1.6086  2.0560
 5973TIP3   OH217882   0.412   2.347   1.915 -0.2441 -0.1532 -0.0389
 5973TIP3    H117883   0.457   2.431   1.914  0.9199 -0.7188  1.4298
 5973TIP3    H217884   0.406   2.324   2.008 -1.3123 -1.2945 -0.3640
 5974TIP3   OH217885   2.978   2.846   5.364 -0.2718 -0.1826  0.0266
 5974TIP3    H117886   2.937   2.874   5.446 -0.8901 -1.4301  0.1618
 5974TIP3    H217887   2.921   2.778   5.330 -0.0783  0.3816 -1.5231
 5975TIP3   OH217888   6.588   3.896   1.709 -0.1409 -0.3174  0.1999
 5975TIP3    H117889   6.644   3.849   1.771  1.3364 -0.2680 -1.0176
 5975TIP3    H217890   6.531   3.829   1.673  2.0042 -1.3304 -1.5876
 5976TIP3   OH217891   7.052   4.274   3.156  0.3035  0.5265  0.2477
 5976TIP3    H117892   7.108   4.235   3.088 -1.9276  1.7083 -2.4337
 5976TIP3    H217893   7.055   4.368   3.139 -0.5007  0.8346  1.6624
 5977TIP3   OH217894   4.770   0.037   1.326 -0.5903  0.6263  0.2845
 5977TIP3    H117895   4.736  -0.046   1.360  1.0830 -0.9323 -1.5773
 5977TIP3    H217896   4.861   0.040   1.356  0.3663  0.0895 -2.3165
 5978TIP3   OH217897   5.485   3.358   5.648  0.1768  0.1925 -0.4769
 5978TIP3    H117898   5.514   3.358   5.557  0.5353  1.6612 -0.3940
 5978TIP3    H217899   5.566   3.364   5.699 -0.0954  1.6226 -0.1589
 5979TIP3   OH217900   6.034   6.372   2.929  0.8547  0.2665 -0.2445
 5979TIP3    H117901   5.948   6.413   2.942  1.0501  0.0350  2.4014
 5979TIP3    H217902   6.024   6.283   2.963  2.0091  0.0813 -0.3446
 5980TIP3   OH217903   5.621   2.130   5.639 -0.3047  0.0640 -0.4001
 5980TIP3    H117904   5.607   2.039   5.612 -0.1843 -0.1745  0.3089
 5980TIP3    H217905   5.690   2.162   5.581  0.9283 -0.8654  0.4887
 5981TIP3   OH217906   1.799   3.830   2.685  0.5611  0.4240 -0.2327
 5981TIP3    H117907   1.778   3.921   2.704  1.4317  0.3953  0.9616
 5981TIP3    H217908   1.743   3.807   2.610  1.1399  2.2505 -1.2718
 5982TIP3   OH217909   3.828   0.418   5.850  0.0804 -0.2714 -0.2207
 5982TIP3    H117910   3.798   0.327   5.846 -0.1470 -0.1801 -0.7169
 5982TIP3    H217911   3.851   0.432   5.942  0.0279 -0.8012 -0.1235
 5983TIP3   OH217912   3.563   1.719   2.172  0.6465 -0.0510  0.2684
 5983TIP3    H117913   3.530   1.741   2.085 -0.6712  0.5291  0.8854
 5983TIP3    H217914   3.529   1.789   2.228  2.3735  0.1762  1.0846
 5984TIP3   OH217915   3.568   5.140   3.071  0.3110 -0.2862 -0.0184
 5984TIP3    H117916   3.487   5.136   3.021  1.1181  0.2246 -1.4158
 5984TIP3    H217917   3.579   5.234   3.091  1.9466  0.0755 -2.2774
 5985TIP3   OH217918   6.733   0.309   3.980 -0.3647  0.6942 -0.2183
 5985TIP3    H117919   6.803   0.272   3.926  0.1251  2.0246 -0.5306
 5985TIP3    H217920   6.659   0.320   3.921  0.3241  2.6028 -0.7941
 5986TIP3   OH217921   2.805   6.620   4.035  0.2338  0.1761 -0.0319
 5986TIP3    H117922   2.755   6.554   3.987  1.1696 -0.2538 -0.4409
 5986TIP3    H217923   2.896   6.600   4.016  0.6763 -0.3069  2.3003
 5987TIP3   OH217924   4.314   3.469   3.635  0.4755  0.0818 -0.4519
 5987TIP3    H117925   4.263   3.445   3.558 -1.9013  1.5320  0.5613
 5987TIP3    H217926   4.327   3.564   3.627 -1.1722  0.5606  1.5988
 5988TIP3   OH217927   4.720   0.174   3.821  0.4051  0.1045  0.5870
 5988TIP3    H117928   4.645   0.156   3.878 -1.1488  0.9841 -1.0735
 5988TIP3    H217929   4.706   0.119   3.744  0.5975  1.4225 -0.4288
 5989TIP3   OH217930   3.924   3.882   3.333 -0.3597 -0.0228 -0.2101
 5989TIP3    H117931   3.998   3.822   3.327 -0.7696 -0.6556  0.8041
 5989TIP3    H217932   3.849   3.831   3.300 -0.4725  0.3739 -0.5725
 5990TIP3   OH217933   0.732   2.441   0.015 -0.3284  0.0148 -0.6286
 5990TIP3    H117934   0.732   2.512   0.079  1.1258  0.8628 -1.5232
 5990TIP3    H217935   0.716   2.362   0.067 -0.1206  0.7727  0.6389
 5991TIP3   OH217936   6.788   5.905   3.773  0.3498  0.2810 -0.4874
 5991TIP3    H117937   6.764   5.848   3.700  1.3644 -0.0593 -0.5788
 5991TIP3    H217938   6.857   5.962   3.736 -0.6675  1.6136 -0.4173
 5992TIP3   OH217939   6.493   5.888   5.351  0.1543  0.8713 -0.0017
 5992TIP3    H117940   6.526   5.800   5.335 -2.3351 -0.1416 -0.1095
 5992TIP3    H217941   6.475   5.924   5.264 -1.8269  0.1748  0.0701
 5993TIP3   OH217942   6.399   4.655   3.723 -0.1432  0.0811  0.2777
 5993TIP3    H117943   6.341   4.579   3.733 -0.6896  0.4489 -0.0271
 5993TIP3    H217944   6.419   4.657   3.629  1.0800 -0.5469  0.4997
 5994TIP3   OH217945   3.864   2.465   3.793 -0.4025 -0.1284  0.3198
 5994TIP3    H117946   3.787   2.485   3.846 -0.9862 -0.6943 -0.2943
 5994TIP3    H217947   3.896   2.551   3.765 -1.0747  0.0944  0.2168
 5995TIP3   OH217948   2.049   3.649   0.114  0.7934 -1.1381  0.0876
 5995TIP3    H117949   2.133   3.603   0.117  1.4796 -0.0805 -1.5546
 5995TIP3    H217950   1.990   3.588   0.070  1.2566 -1.0992 -0.5982
 5996TIP3   OH217951   4.884   3.475   0.926  0.3757 -0.4078  0.4321
 5996TIP3    H117952   4.970   3.451   0.889  0.1798 -1.5984  0.7353
 5996TIP3    H217953   4.899   3.482   1.020  0.1524 -0.5603  0.4795
 5997TIP3   OH217954   2.793   0.237   2.879  0.2423  0.1431  0.1234
 5997TIP3    H117955   2.792   0.191   2.795 -1.0590 -1.0185  0.7243
 5997TIP3    H217956   2.721   0.299   2.873 -0.0470 -0.1521  0.4691
 5998TIP3   OH217957   3.892   5.387   3.564  0.6990 -0.0289 -1.1452
 5998TIP3    H117958   3.901   5.342   3.480  1.6432 -2.8226  0.3378
 5998TIP3    H217959   3.981   5.388   3.600  0.2123  0.5684  0.1000
 5999TIP3   OH217960   5.807   0.955   5.422  0.0381  0.9205 -0.5374
 5999TIP3    H117961   5.790   0.990   5.509  0.5392 -0.3132  0.0867
 5999TIP3    H217962   5.847   1.027   5.374 -0.0176  1.5445  0.3371
 6000TIP3   OH217963   5.195   2.896   4.166  0.0315  0.5758  0.0315
 6000TIP3    H117964   5.279   2.922   4.127  0.3085 -0.4841 -0.1025
 6000TIP3    H217965   5.214   2.813   4.210 -0.8372  0.5790  0.4299
 6001TIP3   OH217966   3.030   0.875   1.309  0.1447  0.3926  0.0662
 6001TIP3    H117967   3.108   0.918   1.275 -0.3132  1.5072  0.3794
 6001TIP3    H217968   2.986   0.840   1.232  1.5069 -1.2611 -0.0205
 6002TIP3   OH217969   0.770   4.882   4.476  0.0341  0.5182 -0.5477
 6002TIP3    H117970   0.675   4.868   4.470 -0.7165  3.0960  2.4695
 6002TIP3    H217971   0.795   4.913   4.388 -1.6783 -1.0324 -1.6611
 6003TIP3   OH217972   4.951   3.123   3.834 -0.8526  0.2411  0.0475
 6003TIP3    H117973   4.970   3.206   3.877 -0.1617  0.8187 -1.2980
 6003TIP3    H217974   4.860   3.130   3.807 -0.6550  0.7677 -0.4895
 6004TIP3   OH217975   4.429   5.342   0.295 -0.0575  0.8264  0.0346
 6004TIP3    H117976   4.427   5.283   0.220  0.0761  1.3905 -0.4175
 6004TIP3    H217977   4.368   5.302   0.358 -1.0873  0.9530 -0.8384
 6005TIP3   OH217978   2.681   5.965   3.218 -0.5705  0.0698  0.2214
 6005TIP3    H117979   2.657   5.888   3.270  0.0257  0.4050  1.0037
 6005TIP3    H217980   2.658   5.940   3.128 -1.3286 -0.6365  0.5884
 6006TIP3   OH217981   1.610   3.190   3.388  0.1060  0.4487  0.2178
 6006TIP3    H117982   1.523   3.157   3.409  0.3439 -0.8386 -0.7509
 6006TIP3    H217983   1.663   3.170   3.465 -0.9590  3.6008  1.9926
 6007TIP3   OH217984   3.665   6.289   2.870  0.3058  0.7320 -0.1813
 6007TIP3    H117985   3.727   6.347   2.915  1.6146 -1.5524  1.1372
 6007TIP3    H217986   3.719   6.236   2.812 -0.1194 -2.1480  1.8796
 6008TIP3   OH217987   6.867   4.567   3.301 -0.0172  0.4405  0.2172
 6008TIP3    H117988   6.798   4.508   3.331 -0.0969  0.1307 -0.5669
 6008TIP3    H217989   6.939   4.552   3.363 -0.6085  0.6922  0.9782
 6009TIP3   OH217990   2.676   0.234   3.554 -0.2961 -0.9617  0.6091
 6009TIP3    H117991   2.672   0.282   3.472  3.1384 -0.3658  0.6182
 6009TIP3    H217992   2.682   0.142   3.528  3.2128 -0.6680 -0.1349
 6010TIP3   OH217993   6.075   0.030   4.039  0.4431  0.2461  0.6744
 6010TIP3    H117994   6.154   0.027   4.093  0.2977  2.0350  1.0495
 6010TIP3    H217995   6.100  -0.016   3.959  2.0132  1.0476  0.6498
 6011TIP3   OH217996   2.519   2.309   2.716  0.1268  0.1332 -0.0731
 6011TIP3    H117997   2.595   2.348   2.761  0.2422  0.1234 -0.2593
 6011TIP3    H217998   2.515   2.355   2.632  0.0474 -0.0059 -0.1458
 6012TIP3   OH217999   6.667   3.909   5.493 -0.0726  0.6562 -0.1624
 6012TIP3    H118000   6.669   3.868   5.580 -0.7496  1.9137  0.4777
 6012TIP3    H218001   6.574   3.915   5.472  0.0313  1.4606 -0.4256
 6013TIP3   OH218002   7.065   5.490   4.863  0.3323  0.2490 -0.3236
 6013TIP3    H118003   6.988   5.436   4.883 -0.2780  0.7497 -1.2424
 6013TIP3    H218004   7.125   5.431   4.817  1.7274 -0.9037  2.6806
 6014TIP3   OH218005   4.273   5.551   5.413  0.2789 -0.4366  0.1501
 6014TIP3    H118006   4.299   5.462   5.388  0.3169 -1.1426  2.4527
 6014TIP3    H218007   4.263   5.547   5.508  0.8044  2.1742  0.3981
 6015TIP3   OH218008   2.327   4.318   3.165  0.0328  0.2213 -0.2692
 6015TIP3    H118009   2.258   4.361   3.214  0.3731  0.5633 -0.0850
 6015TIP3    H218010   2.386   4.389   3.140 -0.3316  0.1141 -1.5090
 6016TIP3   OH218011   6.125   5.732   5.826  0.1233 -0.3739  0.5432
 6016TIP3    H118012   6.061   5.778   5.880 -0.5450  0.1885 -0.6964
 6016TIP3    H218013   6.160   5.663   5.883 -2.1526 -1.2141  1.0169
 6017TIP3   OH218014   6.136   1.493   1.947 -0.0995 -0.8835 -0.1833
 6017TIP3    H118015   6.060   1.516   1.999 -0.1056  0.7511 -0.8614
 6017TIP3    H218016   6.207   1.482   2.011 -0.0599  1.2714  0.2181
 6018TIP3   OH218017   5.871   2.655   2.185 -0.4833 -0.0893 -0.1542
 6018TIP3    H118018   5.859   2.731   2.242  0.2090  0.6992 -1.0079
 6018TIP3    H218019   5.804   2.666   2.117 -0.6486 -0.4661 -0.0509
 6019TIP3   OH218020   3.245   3.880   4.539  0.3912  0.0654  0.9690
 6019TIP3    H118021   3.182   3.925   4.482 -0.9352 -0.5369  1.8941
 6019TIP3    H218022   3.222   3.788   4.531  1.1013 -0.1574  1.4252
 6020TIP3   OH218023   0.188   5.328   2.617  0.4857 -0.0657  0.2487
 6020TIP3    H118024   0.178   5.235   2.600 -0.5055 -0.4389  2.5755
 6020TIP3    H218025   0.122   5.370   2.562  1.8924 -0.5299 -1.9347
 6021TIP3   OH218026   7.162   4.983   2.818  0.9452  0.5233 -0.1214
 6021TIP3    H118027   7.216   5.058   2.843  0.4310  0.5449  1.0024
 6021TIP3    H218028   7.118   5.011   2.738 -0.4590  2.0797  1.1096
 6022TIP3   OH218029   3.567   3.028   1.560 -0.0549 -0.0817 -0.0009
 6022TIP3    H118030   3.490   3.083   1.569 -0.1721 -0.0615 -1.0855
 6022TIP3    H218031   3.614   3.039   1.643 -0.9989  0.2232  0.5001
 6023TIP3   OH218032   2.521   0.982   2.631  0.1588 -0.0974  0.4579
 6023TIP3    H118033   2.576   1.060   2.623 -1.6774  1.2679  0.4322
 6023TIP3    H218034   2.564   0.929   2.698  2.0002  0.4220 -0.2575
 6024TIP3   OH218035   4.876   5.810   5.461  0.3976 -0.9430 -0.5296
 6024TIP3    H118036   4.919   5.882   5.416 -1.0422 -0.2917 -0.9196
 6024TIP3    H218037   4.814   5.852   5.520  1.5296 -1.8081  1.3743
 6025TIP3   OH218038   2.282   6.607   1.819 -0.2266  0.3284  0.3422
 6025TIP3    H118039   2.315   6.626   1.907 -1.0789  2.2098  0.3170
 6025TIP3    H218040   2.348   6.643   1.760 -0.0953 -0.1038  0.2232
 6026TIP3   OH218041   0.586   3.536   4.242  0.6675 -0.0167 -0.5748
 6026TIP3    H118042   0.549   3.595   4.176 -0.8378  1.4241  1.4511
 6026TIP3    H218043   0.657   3.585   4.282  0.2696 -0.0692  0.2209
 6027TIP3   OH218044   2.550   5.515   3.049  0.0727  0.4599 -0.0121
 6027TIP3    H118045   2.632   5.558   3.025 -0.3599  1.0181 -0.5032
 6027TIP3    H218046   2.570   5.472   3.132  1.1444 -0.2316 -0.6089
 6028TIP3   OH218047   1.041   4.985   2.588  0.2330 -0.1870  0.0198
 6028TIP3    H118048   0.985   4.919   2.548  1.3901  0.4098 -2.8464
 6028TIP3    H218049   0.998   5.068   2.568  1.4045  0.1904 -1.0968
 6029TIP3   OH218050   6.741   3.111   1.317 -0.1408 -0.5887  0.0191
 6029TIP3    H118051   6.694   3.037   1.354 -0.3421 -0.1558  0.6281
 6029TIP3    H218052   6.674   3.166   1.278 -0.1522  0.0433  0.9123
 6030TIP3   OH218053   6.395   0.668   0.569 -0.3914  0.7844  0.0390
 6030TIP3    H118054   6.325   0.733   0.572 -2.2329 -1.0732 -0.2115
 6030TIP3    H218055   6.367   0.606   0.501  0.9844 -0.5693  0.6442
 6031TIP3   OH218056   4.294   4.392   0.430  0.1382 -0.0173 -0.7625
 6031TIP3    H118057   4.375   4.382   0.480 -0.4870 -0.2818  0.2037
 6031TIP3    H218058   4.231   4.429   0.492 -0.6963 -0.5008 -1.3021
 6032TIP3   OH218059   2.123   0.025   3.803 -0.3373 -0.0899  0.2924
 6032TIP3    H118060   2.212   0.048   3.776  0.7719 -2.3989  1.6564
 6032TIP3    H218061   2.085  -0.016   3.726  0.7737 -1.4547  0.4119
 6033TIP3   OH218062   4.818   1.948   5.628 -0.1675  0.2323 -0.4397
 6033TIP3    H118063   4.763   2.015   5.587  0.4262  1.3358  0.5105
 6033TIP3    H218064   4.899   1.993   5.649  0.2103 -0.7664  0.3095
 6034TIP3   OH218065   3.004   5.448   0.829 -0.3578 -0.5306  0.1862
 6034TIP3    H118066   3.048   5.416   0.909 -0.2492 -0.8223  0.0134
 6034TIP3    H218067   2.915   5.468   0.857 -0.1687 -0.1202  0.5001
 6035TIP3   OH218068   2.154   2.470   1.176 -0.7575 -0.2129 -0.3690
 6035TIP3    H118069   2.102   2.417   1.116 -0.3248 -0.4830 -0.5068
 6035TIP3    H218070   2.174   2.549   1.127 -0.5266 -0.3711 -0.5320
 6036TIP3   OH218071   2.931   3.597   5.451 -0.7337 -0.1088 -0.0517
 6036TIP3    H118072   2.975   3.527   5.498 -0.6429 -0.1066 -0.1318
 6036TIP3    H218073   2.856   3.555   5.409  0.0359 -0.4263 -1.1525
 6037TIP3   OH218074   1.561   0.642   3.329 -0.0567 -0.0016  0.2793
 6037TIP3    H118075   1.537   0.605   3.244  0.1568 -1.0979  0.6783
 6037TIP3    H218076   1.645   0.685   3.312 -0.5517  0.7517 -0.3090
 6038TIP3   OH218077   5.096   5.620   1.787 -0.8078  0.1309  0.1728
 6038TIP3    H118078   5.191   5.609   1.783 -0.9829 -1.2873 -2.0357
 6038TIP3    H218079   5.064   5.535   1.819 -1.3397  0.8606  1.6835
 6039TIP3   OH218080   6.823   5.169   4.733 -0.3577 -0.5586  0.3660
 6039TIP3    H118081   6.822   5.245   4.675  3.4704 -0.9301 -0.4560
 6039TIP3    H218082   6.812   5.206   4.821 -1.0926  0.6161 -0.1992
 6040TIP3   OH218083   3.340   4.214   5.483  0.0604 -0.3177 -0.0633
 6040TIP3    H118084   3.430   4.200   5.514  0.1012 -0.2137 -0.1318
 6040TIP3    H218085   3.288   4.218   5.562 -0.0373 -1.4045 -0.0656
 6041TIP3   OH218086   7.101   0.474   5.597 -0.1146 -0.0121  0.3235
 6041TIP3    H118087   7.101   0.385   5.633 -0.3307  0.7013  2.1459
 6041TIP3    H218088   7.009   0.500   5.595  0.0137  0.4779  0.6102
 6042TIP3   OH218089   0.417   1.791   5.075  0.2549 -0.0703 -0.1225
 6042TIP3    H118090   0.365   1.812   5.153 -0.7017  1.4427 -1.1074
 6042TIP3    H218091   0.390   1.856   5.010  0.7945 -1.4819 -1.8362
 6043TIP3   OH218092   0.292   6.149   1.863 -0.0939  0.0304 -0.6408
 6043TIP3    H118093   0.284   6.136   1.957 -0.5237  2.2180 -0.3419
 6043TIP3    H218094   0.203   6.138   1.829 -0.3914  1.6181 -0.4356
 6044TIP3   OH218095   5.772   6.179   2.630  0.4096 -0.0376  0.0057
 6044TIP3    H118096   5.724   6.245   2.679  1.7954  0.9123  0.1159
 6044TIP3    H218097   5.707   6.143   2.569 -0.4985  1.0253  0.3136
 6045TIP3   OH218098   5.585   4.751   2.452  0.7434  0.2614  0.1974
 6045TIP3    H118099   5.507   4.807   2.446  0.1904 -0.5687 -0.6800
 6045TIP3    H218100   5.631   4.765   2.370  0.8103 -0.2543  0.1435
 6046TIP3   OH218101   2.723   2.521   0.527  0.2651 -0.4604  0.6022
 6046TIP3    H118102   2.666   2.445   0.514 -0.5330  0.3186 -0.7062
 6046TIP3    H218103   2.693   2.559   0.609 -1.9404  0.5764 -0.6008
 6047TIP3   OH218104   0.998   4.767   4.599  0.0642  0.4125  0.1714
 6047TIP3    H118105   0.966   4.726   4.680  1.2239 -0.1922  0.3403
 6047TIP3    H218106   0.919   4.798   4.556 -0.7851 -1.1569  0.5067
 6048TIP3   OH218107   0.263   3.642   2.009 -0.5451  0.4588  0.0474
 6048TIP3    H118108   0.349   3.681   2.027 -0.7533  1.8395 -1.7560
 6048TIP3    H218109   0.248   3.658   1.916 -2.2223 -0.8805  0.0410
 6049TIP3   OH218110   0.954   3.472   4.437 -0.2614 -0.5006  0.4590
 6049TIP3    H118111   0.939   3.566   4.431  0.9600 -0.3934 -1.5652
 6049TIP3    H218112   1.047   3.464   4.459  0.0508 -1.2159 -1.0115
 6050TIP3   OH218113   2.057   5.441   3.728  0.0779  0.7121 -0.3096
 6050TIP3    H118114   1.973   5.432   3.774 -1.0220  1.2008 -2.1019
 6050TIP3    H218115   2.060   5.366   3.670  1.5070  0.0287  0.6212
 6051TIP3   OH218116   4.146   0.036   3.625  0.0402  0.3964 -0.1263
 6051TIP3    H118117   4.176   0.041   3.534  1.0475 -0.2443  0.1410
 6051TIP3    H218118   4.063   0.082   3.626 -2.2445 -3.1671 -2.3131
 6052TIP3   OH218119   6.342   3.208   5.425 -0.5040  0.6195  0.4194
 6052TIP3    H118120   6.310   3.290   5.462 -0.5127  1.6949 -1.8234
 6052TIP3    H218121   6.421   3.233   5.377 -0.1402 -0.8094  0.2368
 6053TIP3   OH218122   7.189   5.260   3.214 -0.0886  0.2096  0.1432
 6053TIP3    H118123   7.151   5.301   3.292  0.5485  2.3662 -0.6088
 6053TIP3    H218124   7.283   5.279   3.220  0.3847 -1.8363  0.0957
 6054TIP3   OH218125   3.914   6.444   3.940 -0.1267  0.5275  0.9630
 6054TIP3    H118126   3.900   6.360   3.897  0.1293  1.1127 -0.3021
 6054TIP3    H218127   3.826   6.481   3.949 -0.4113 -0.4459  2.8211
 6055TIP3   OH218128   0.098   2.472   0.784 -0.4079 -0.7370  0.1290
 6055TIP3    H118129   0.191   2.495   0.789 -0.7048  0.3289  1.4697
 6055TIP3    H218130   0.096   2.377   0.792  0.5499 -0.7372  0.5231
 6056TIP3   OH218131   0.110   4.426   3.044 -0.5262 -0.1835 -0.3395
 6056TIP3    H118132   0.173   4.377   3.097  0.1529  0.0727 -0.9037
 6056TIP3    H218133   0.045   4.457   3.107 -0.0362 -0.3590  0.2621
 6057TIP3   OH218134   3.033   1.023   4.288  0.6032  0.1404  0.6452
 6057TIP3    H118135   3.127   1.004   4.294  0.9164  1.1176 -0.5683
 6057TIP3    H218136   3.016   1.029   4.194 -0.7360 -0.2498  0.8448
 6058TIP3   OH218137   2.851   1.654   3.000  0.4195  0.2048 -0.1207
 6058TIP3    H118138   2.782   1.599   3.037  0.9327  0.9385  2.0669
 6058TIP3    H218139   2.901   1.685   3.076  3.6276 -0.8481 -1.6137
 6059TIP3   OH218140   1.803   0.281   3.266 -0.0142  0.5738 -0.1357
 6059TIP3    H118141   1.833   0.372   3.258  1.7772 -0.0393 -0.9079
 6059TIP3    H218142   1.880   0.233   3.298 -0.3459 -0.9858 -1.5394
 6060TIP3   OH218143   5.478   6.581   4.343  0.2015 -0.0974  0.1004
 6060TIP3    H118144   5.444   6.633   4.271  1.2168 -0.7182 -0.8609
 6060TIP3    H218145   5.533   6.642   4.393 -0.9623  0.4791  0.7042
 6061TIP3   OH218146   1.645   2.939   0.397  0.3103  0.5873  0.5118
 6061TIP3    H118147   1.626   2.846   0.408  0.1952  0.5074 -0.3642
 6061TIP3    H218148   1.704   2.943   0.323 -0.8285  1.3352 -0.3827
 6062TIP3   OH218149   6.805   5.807   5.894  0.4392 -0.3501 -0.1000
 6062TIP3    H118150   6.854   5.844   5.820 -1.1679 -0.0333 -1.0415
 6062TIP3    H218151   6.794   5.715   5.871  0.6143 -0.4291  0.1292
 6063TIP3   OH218152   1.018   1.384   0.722  0.4174 -0.3905 -0.3925
 6063TIP3    H118153   1.031   1.479   0.723  0.4897 -0.3956 -0.6252
 6063TIP3    H218154   1.010   1.363   0.629  1.1064 -0.7031 -0.3911
 6064TIP3   OH218155   2.198   4.198   2.591  0.0467  0.6223 -0.2120
 6064TIP3    H118156   2.180   4.256   2.665 -4.1750  0.1942 -0.6716
 6064TIP3    H218157   2.203   4.111   2.630 -2.6215  0.3389 -0.2935
 6065TIP3   OH218158   3.201   5.264   5.881 -0.1806 -0.0886  0.3162
 6065TIP3    H118159   3.137   5.242   5.814  1.8699 -0.0870 -1.7615
 6065TIP3    H218160   3.217   5.357   5.871 -1.0148  0.2714  1.9508
 6066TIP3   OH218161   6.162   1.136   1.821 -0.4405  0.1782  0.2548
 6066TIP3    H118162   6.113   1.071   1.770  1.4770 -0.5502 -0.7873
 6066TIP3    H218163   6.105   1.212   1.824 -1.5479 -0.5528 -1.0625
 6067TIP3   OH218164   2.758   3.015   0.597 -0.4104  0.3169 -0.4228
 6067TIP3    H118165   2.819   3.087   0.582 -0.2074  0.5316  1.2714
 6067TIP3    H218166   2.713   3.004   0.513  0.6860  1.3397 -1.1731
 6068TIP3   OH218167   5.756   0.290   1.970  0.0686 -0.2092  0.1501
 6068TIP3    H118168   5.765   0.296   2.065  2.7929  2.8851 -0.1499
 6068TIP3    H218169   5.664   0.314   1.954 -0.4937 -0.9685  1.9707
 6069TIP3   OH218170   3.841   0.981   1.062  0.2462 -0.3365  0.2294
 6069TIP3    H118171   3.932   0.951   1.052  0.2552 -0.3158  0.2494
 6069TIP3    H218172   3.804   0.921   1.127  0.1937 -0.4579  0.0871
 6070TIP3   OH218173   1.965   5.508   0.249 -0.5785  0.0321 -0.1414
 6070TIP3    H118174   1.903   5.481   0.182  0.7236 -0.7016 -1.1058
 6070TIP3    H218175   1.993   5.595   0.222  1.3875 -0.9905 -1.7420
 6071TIP3   OH218176   2.197   0.688   3.815  0.0415 -0.6283 -0.1439
 6071TIP3    H118177   2.144   0.612   3.839  0.3169  0.0133  2.8793
 6071TIP3    H218178   2.170   0.757   3.876  1.7638  0.8452 -0.9504
 6072TIP3   OH218179   5.254   0.482   2.019 -0.2155  0.5399  0.0407
 6072TIP3    H118180   5.166   0.512   2.041 -1.0348 -1.2152 -0.6511
 6072TIP3    H218181   5.255   0.389   2.042  0.8732  0.1022 -1.5496
 6073TIP3   OH218182   6.683   2.080   3.349 -0.0363  0.1110  0.0315
 6073TIP3    H118183   6.645   2.037   3.273  1.5163  1.7905 -1.7876
 6073TIP3    H218184   6.778   2.069   3.338  0.2425  0.6726  1.5689
 6074TIP3   OH218185   2.337   0.640   5.765 -0.2361  0.7079 -0.1578
 6074TIP3    H118186   2.419   0.617   5.722  0.0188 -1.2050  1.2588
 6074TIP3    H218187   2.331   0.735   5.754  2.5193  1.0146  0.3044
 6075TIP3   OH218188   1.732   0.590   0.630 -0.2269  0.4323 -0.3012
 6075TIP3    H118189   1.639   0.568   0.630 -0.6616  1.9277  1.9004
 6075TIP3    H218190   1.776   0.511   0.598 -2.1763 -0.7038 -0.2972
 6076TIP3   OH218191   2.587   2.801   1.858  0.2917  0.1594  0.4065
 6076TIP3    H118192   2.655   2.868   1.855  0.0742  0.3958  0.6880
 6076TIP3    H218193   2.587   2.772   1.949  1.6250 -1.5158 -0.0572
 6077TIP3   OH218194   1.011   0.521   5.811 -0.5024  0.0134 -0.4148
 6077TIP3    H118195   1.059   0.556   5.736  0.5803  0.0983  0.2931
 6077TIP3    H218196   1.002   0.427   5.792 -1.8647  0.3301 -1.4917
 6078TIP3   OH218197   5.563   1.990   2.514 -0.0213 -0.0211  0.2165
 6078TIP3    H118198   5.522   1.992   2.427  1.1275  1.4245 -0.3261
 6078TIP3    H218199   5.568   1.897   2.536 -0.2796 -0.4175 -1.2876
 6079TIP3   OH218200   6.132   4.199   2.435 -0.3453 -0.3780  0.0271
 6079TIP3    H118201   6.195   4.126   2.439 -0.1489 -0.1637  1.2185
 6079TIP3    H218202   6.047   4.159   2.452 -0.7739 -0.8721 -2.7773
 6080TIP3   OH218203   7.015   1.954   4.637 -0.3526 -0.2689  0.3455
 6080TIP3    H118204   6.988   2.023   4.698 -0.1515  2.1038 -2.0835
 6080TIP3    H218205   7.111   1.950   4.646 -0.4437 -1.0024  1.1888
 6081TIP3   OH218206   4.969   0.714   5.130  0.3304  0.0423  0.2586
 6081TIP3    H118207   5.065   0.706   5.127  0.4499  0.8481  1.2441
 6081TIP3    H218208   4.942   0.652   5.198  0.1135 -0.3974 -0.2214
 6082TIP3   OH218209   5.747   1.104   4.258  0.0938  0.0209 -0.1730
 6082TIP3    H118210   5.716   1.146   4.178  0.3550 -0.6601 -0.6478
 6082TIP3    H218211   5.670   1.098   4.314 -0.3983 -0.6817 -0.9022
 6083TIP3   OH218212   1.694   5.297   4.713  0.0370  0.3385 -0.1152
 6083TIP3    H118213   1.655   5.291   4.626 -0.6182  3.5552 -0.1948
 6083TIP3    H218214   1.621   5.320   4.771  0.8071  0.3401  0.8921
 6084TIP3   OH218215   1.074   4.312   2.640 -0.2260 -0.2180 -0.5506
 6084TIP3    H118216   1.040   4.396   2.611  1.4530  0.4315 -0.7303
 6084TIP3    H218217   1.168   4.317   2.623  0.1443 -1.5210  0.9314
 6085TIP3   OH218218   3.663   1.959   3.746 -0.5456 -0.2254 -0.0242
 6085TIP3    H118219   3.660   2.051   3.723 -0.2774 -0.6532 -1.9492
 6085TIP3    H218220   3.689   1.957   3.838 -0.3404  1.5877 -0.0243
 6086TIP3   OH218221   0.166   3.233   3.084 -0.1811 -0.5623  0.1751
 6086TIP3    H118222   0.094   3.182   3.047  0.3384  0.1530 -1.9580
 6086TIP3    H218223   0.189   3.187   3.165 -2.2100 -1.4904  0.2862
 6087TIP3   OH218224   4.030   1.508   2.288  0.2005  0.1162 -0.4229
 6087TIP3    H118225   4.021   1.563   2.366  1.4032 -1.7519  1.1051
 6087TIP3    H218226   4.088   1.557   2.230  0.0782  1.0929  0.2654
 6088TIP3   OH218227   5.774   6.385   4.952  0.2731 -0.2624 -0.1279
 6088TIP3    H118228   5.805   6.328   4.882 -1.2102 -2.2497  0.7340
 6088TIP3    H218229   5.849   6.395   5.010  0.7475 -0.8130 -0.6354
 6089TIP3   OH218230   4.922   3.506   1.211  0.1110  0.4088  0.6906
 6089TIP3    H118231   4.831   3.528   1.229 -1.1815 -2.6813 -1.2639
 6089TIP3    H218232   4.953   3.463   1.290 -1.0845 -1.0152  0.4193
 6090TIP3   OH218233   3.700   2.904   0.955  0.4248 -0.5364 -0.3379
 6090TIP3    H118234   3.756   2.962   1.007  0.8418  0.4539 -1.8217
 6090TIP3    H218235   3.658   2.962   0.892  1.5050 -1.9466 -2.4432
 6091TIP3   OH218236   7.100   3.862   3.249 -0.9841  0.1771  0.4115
 6091TIP3    H118237   7.028   3.799   3.251 -1.0482  0.1325 -1.4465
 6091TIP3    H218238   7.173   3.816   3.290 -0.7207 -1.5911 -1.8349
 6092TIP3   OH218239   4.688   1.392   5.357 -0.3362  0.0732  0.1794
 6092TIP3    H118240   4.692   1.361   5.447 -0.7418  0.1242  0.2146
 6092TIP3    H218241   4.625   1.464   5.359  0.4918  0.8224  0.0790
 6093TIP3   OH218242   4.910   1.492   5.208  0.1607 -0.1359  0.3429
 6093TIP3    H118243   4.922   1.585   5.228 -0.5396  0.4437 -1.6459
 6093TIP3    H218244   4.847   1.461   5.273 -0.1464  0.9729  0.6010
 6094TIP3   OH218245   7.180   2.807   4.174  0.3889 -1.0239  0.0752
 6094TIP3    H118246   7.116   2.744   4.140 -0.1530 -1.3957  1.7075
 6094TIP3    H218247   7.263   2.760   4.174 -0.0193 -1.7824  1.3087
 6095TIP3   OH218248   1.475   0.061   5.663  0.0693 -0.5485  0.0058
 6095TIP3    H118249   1.539   0.109   5.715 -0.2039  0.6614 -0.7473
 6095TIP3    H218250   1.460  -0.020   5.712  2.2895 -0.9469  0.1057
 6096TIP3   OH218251   6.331   4.338   3.102 -0.1960  0.8716  0.1456
 6096TIP3    H118252   6.422   4.366   3.112 -0.5627  1.9524  0.6852
 6096TIP3    H218253   6.317   4.333   3.008 -0.0091  2.2458  0.0274
 6097TIP3   OH218254   0.358   4.567   1.744 -0.2572  0.1569  0.5217
 6097TIP3    H118255   0.334   4.489   1.794 -1.5874  0.6378  0.6880
 6097TIP3    H218256   0.333   4.640   1.801  2.3378  0.7514  1.0179
 6098TIP3   OH218257   4.635   6.453   0.559  0.1560 -0.3329 -0.4455
 6098TIP3    H118258   4.619   6.400   0.482 -0.2057 -0.7948 -0.0545
 6098TIP3    H218259   4.643   6.543   0.525  1.4487 -0.7074 -1.1858
 6099TIP3   OH218260   7.059   2.201   3.074  0.0917 -0.2356  0.5503
 6099TIP3    H118261   7.055   2.241   3.161  2.9303  0.1513  0.5758
 6099TIP3    H218262   7.110   2.262   3.021 -1.2042 -0.6629 -1.3356
 6100TIP3   OH218263   2.842   4.029   5.529  0.4560 -0.4221 -0.1452
 6100TIP3    H118264   2.901   3.968   5.573 -1.5436 -1.6878  0.9204
 6100TIP3    H218265   2.803   3.977   5.459  0.6699  0.4342 -0.9134
 6101TIP3   OH218266   2.849   6.533   0.232  0.0460  0.7083  0.6713
 6101TIP3    H118267   2.837   6.480   0.153 -0.2965  0.4958  0.8624
 6101TIP3    H218268   2.777   6.596   0.230 -1.8395 -1.2326  2.3537
 6102TIP3   OH218269   5.447   6.439   3.885  0.1366 -0.2489  0.0889
 6102TIP3    H118270   5.387   6.444   3.959 -0.3065 -0.0592 -0.2782
 6102TIP3    H218271   5.392   6.416   3.811  0.3247  1.0910 -0.4824
 6103TIP3   OH218272   6.706   5.510   0.113 -0.2800  0.9091 -0.3111
 6103TIP3    H118273   6.793   5.474   0.093 -0.0297  1.8891 -1.0606
 6103TIP3    H218274   6.689   5.481   0.203  1.0628  1.1518  0.0486
 6104TIP3   OH218275   2.634   1.555   1.957 -0.3257  0.4703  0.4773
 6104TIP3    H118276   2.728   1.543   1.943 -0.6059  0.1620 -1.2988
 6104TIP3    H218277   2.608   1.623   1.895 -1.6111 -0.8057 -0.4562
 6105TIP3   OH218278   2.510   1.199   4.041 -0.3786 -0.0440  0.4046
 6105TIP3    H118279   2.425   1.192   3.996 -0.9972 -0.2632  1.5574
 6105TIP3    H218280   2.493   1.257   4.115  1.5248  3.4147 -1.6255
 6106TIP3   OH218281   7.130   4.026   5.664 -0.8246 -0.3223 -0.0636
 6106TIP3    H118282   7.078   3.999   5.739  0.1049 -1.7321  0.1117
 6106TIP3    H218283   7.066   4.051   5.597 -1.6919 -1.0800  0.4757
 6107TIP3   OH218284   4.118   2.656   3.880 -0.2088 -0.3677  0.1371
 6107TIP3    H118285   4.068   2.699   3.810  0.5575  1.5626  0.7096
 6107TIP3    H218286   4.073   2.683   3.961  3.0845  3.7663  0.9369
 6108TIP3   OH218287   4.136   0.371   5.793 -0.3790  0.2720  0.3642
 6108TIP3    H118288   4.189   0.424   5.852 -1.2624  0.0187  1.4226
 6108TIP3    H218289   4.051   0.363   5.837 -0.5271 -1.3617 -0.1303
 6109TIP3   OH218290   2.126   4.785   2.456 -0.2456  0.1587 -0.1882
 6109TIP3    H118291   2.116   4.722   2.384 -1.9613 -0.8878  0.8907
 6109TIP3    H218292   2.049   4.841   2.450 -2.5621 -2.2916  2.9107
 6110TIP3   OH218293   1.877   4.513   3.419 -0.0400  0.1508  0.6112
 6110TIP3    H118294   1.848   4.578   3.355 -1.5130 -1.3295 -0.2658
 6110TIP3    H218295   1.836   4.541   3.501 -1.2667 -0.0283  0.0859
 6111TIP3   OH218296   5.306   4.770   0.986  0.0500  0.1438 -0.1691
 6111TIP3    H118297   5.257   4.833   0.934  1.1261  0.7393 -0.4985
 6111TIP3    H218298   5.302   4.689   0.936  2.3077  1.0650 -2.0359
 6112TIP3   OH218299   1.488   5.663   3.233 -1.0390 -0.8335  0.3416
 6112TIP3    H118300   1.528   5.709   3.307 -1.6104 -1.1285  0.8346
 6112TIP3    H218301   1.557   5.605   3.201 -0.1789  0.5817 -0.5099
 6113TIP3   OH218302   4.278   4.035   5.860 -0.3418 -0.0446 -0.1760
 6113TIP3    H118303   4.357   4.036   5.913 -0.5648  0.5011  0.1569
 6113TIP3    H218304   4.260   4.127   5.841 -1.2280 -0.1143  0.2529
 6114TIP3   OH218305   4.505   4.787   0.562  0.5941 -0.0380  0.5454
 6114TIP3    H118306   4.504   4.849   0.635  1.1867  0.9421 -0.2563
 6114TIP3    H218307   4.417   4.794   0.524  1.2127  1.7166 -0.6641
 6115TIP3   OH218308   7.008   4.469   1.543  0.1991  0.3095 -0.2081
 6115TIP3    H118309   6.915   4.447   1.536 -0.1999  1.7936  0.1242
 6115TIP3    H218310   7.025   4.527   1.468  0.3989  1.4659  0.7013
 6116TIP3   OH218311   5.177   0.538   2.979  0.0181  0.1797  0.0827
 6116TIP3    H118312   5.087   0.506   2.975  0.3507 -1.0222  1.4326
 6116TIP3    H218313   5.171   0.621   3.028 -0.3726  0.2170 -0.0237
 6117TIP3   OH218314   3.981   1.746   2.416 -0.0472  0.1610  0.5667
 6117TIP3    H118315   3.972   1.804   2.341  0.0718  2.1456  2.0241
 6117TIP3    H218316   4.066   1.768   2.454  1.7501 -3.5271 -0.8230
 6118TIP3   OH218317   0.453   3.025   3.929  0.1268  0.3569 -0.2648
 6118TIP3    H118318   0.486   3.032   3.839 -0.6092  2.2081 -0.4397
 6118TIP3    H218319   0.510   3.082   3.980 -0.6997  0.9142  0.0495
 6119TIP3   OH218320   4.602   0.648   1.012 -0.7191  0.5017  0.1359
 6119TIP3    H118321   4.581   0.589   0.940 -2.1828  0.2792  0.6976
 6119TIP3    H218322   4.689   0.681   0.992 -0.0614 -1.4724 -0.4451
 6120TIP3   OH218323   1.039   2.793   5.666 -0.3553 -0.0169 -0.6124
 6120TIP3    H118324   1.019   2.785   5.572 -0.5031 -0.7220 -0.5239
 6120TIP3    H218325   1.127   2.831   5.668 -1.3144  2.4360 -1.0107
 6121TIP3   OH218326   1.931   0.746   1.883 -0.1534  0.4132  0.1832
 6121TIP3    H118327   2.000   0.718   1.943  0.2264 -1.3498 -1.0125
 6121TIP3    H218328   1.863   0.781   1.940  0.3989 -0.7274  1.6142
 6122TIP3   OH218329   2.638   0.720  -0.026 -0.1563 -0.1956 -0.6142
 6122TIP3    H118330   2.668   0.659   0.041  0.1232 -1.4070 -1.7828
 6122TIP3    H218331   2.603   0.795   0.022  0.4062 -0.8453  0.8524
 6123TIP3   OH218332   2.037   4.198   5.754 -0.2939  0.0645 -0.0667
 6123TIP3    H118333   2.121   4.244   5.747 -0.9780  1.0832 -2.0230
 6123TIP3    H218334   1.996   4.236   5.832 -0.0880  1.5128 -0.6358
 6124TIP3   OH218335   6.092   3.448   5.466  0.5752  0.4756 -0.3972
 6124TIP3    H118336   6.178   3.488   5.457  0.9758  0.1827  1.6550
 6124TIP3    H218337   6.094   3.404   5.551 -1.2343 -0.4711 -0.7781
 6125TIP3   OH218338   2.007   1.993   2.262  0.0185 -0.3349 -0.1126
 6125TIP3    H118339   2.080   1.998   2.323  1.4924 -0.8993 -1.7431
 6125TIP3    H218340   1.953   1.922   2.295  0.5976 -0.4058  0.7107
 6126TIP3   OH218341   4.688   0.182   2.843  0.4061  0.1094  0.1814
 6126TIP3    H118342   4.665   0.151   2.930  3.7190 -0.0843  1.1264
 6126TIP3    H218343   4.667   0.109   2.785 -1.5139  0.1206  0.7895
 6127TIP3   OH218344   2.186   2.908   2.406 -0.2486  0.3659 -0.2810
 6127TIP3    H118345   2.123   2.978   2.390 -0.6694  0.0553  0.0142
 6127TIP3    H218346   2.235   2.936   2.483 -2.1060 -0.8005  1.4196
 6128TIP3   OH218347   0.167   3.054   0.997  0.2349  0.3268  0.0411
 6128TIP3    H118348   0.169   3.078   1.090 -1.0109 -0.4746  0.2875
 6128TIP3    H218349   0.076   3.034   0.979  0.3377  1.1398 -1.5526
 6129TIP3   OH218350   1.758   4.620   5.240  0.8166 -0.1479 -0.0814
 6129TIP3    H118351   1.814   4.657   5.309 -0.3051  0.1705  0.6800
 6129TIP3    H218352   1.690   4.573   5.287  0.8572 -1.1747 -1.0158
 6130TIP3   OH218353   3.629   3.253   2.782  0.4098 -0.3158 -0.0228
 6130TIP3    H118354   3.643   3.231   2.690  0.5175 -0.4986  0.0368
 6130TIP3    H218355   3.578   3.179   2.817  1.4507 -0.8676  0.3736
 6131TIP3   OH218356   5.315   2.783   2.663 -0.2048  0.2509 -0.4677
 6131TIP3    H118357   5.234   2.833   2.674  0.3293  1.4177 -1.6254
 6131TIP3    H218358   5.381   2.835   2.710  0.1832  0.1771 -0.9287
 6132TIP3   OH218359   6.000   4.021   2.930  0.0444 -0.1906 -0.0799
 6132TIP3    H118360   6.034   4.110   2.930 -1.3475  0.4212 -2.1922
 6132TIP3    H218361   5.947   4.015   3.010  0.0292  0.9384  0.0048
 6133TIP3   OH218362   4.305   3.248   5.546 -0.2539 -0.0063 -0.2580
 6133TIP3    H118363   4.327   3.198   5.467 -0.3691  1.0718 -0.9975
 6133TIP3    H218364   4.370   3.220   5.610  0.3079 -0.3686 -0.9601
 6134TIP3   OH218365   1.339   1.640   3.741  0.3791 -0.1185  0.5075
 6134TIP3    H118366   1.350   1.647   3.647 -0.1807  0.6445  0.4845
 6134TIP3    H218367   1.245   1.624   3.753  0.0278  2.0197  1.0007
 6135TIP3   OH218368   4.214   1.653   3.906 -0.0235 -0.8627 -0.2616
 6135TIP3    H118369   4.225   1.587   3.837  0.5142 -0.2833 -0.7465
 6135TIP3    H218370   4.186   1.732   3.859  0.2640 -0.4882  0.1865
 6136TIP3   OH218371   4.476   3.198   0.103 -0.2375  0.0179  0.3190
 6136TIP3    H118372   4.469   3.281   0.150 -1.3470  0.0374  0.1469
 6136TIP3    H218373   4.537   3.217   0.031  0.5301  0.3106  1.0290
 6137TIP3   OH218374   1.582   5.239   4.460  0.4352 -0.0489 -0.5703
 6137TIP3    H118375   1.531   5.320   4.462 -1.9454 -1.3408  3.7554
 6137TIP3    H218376   1.519   5.172   4.435  0.7154 -1.2762  1.7617
 6138TIP3   OH218377   5.595   0.279   4.506 -0.1660 -0.1011  0.6989
 6138TIP3    H118378   5.559   0.211   4.563 -1.9962 -0.7449 -1.1047
 6138TIP3    H218379   5.526   0.344   4.500  0.4696  0.5407  0.1559
 6139TIP3   OH218380   3.365   0.934   1.983  0.0816  0.4766  0.4282
 6139TIP3    H118381   3.415   0.897   1.911 -2.0117 -1.0707 -0.3518
 6139TIP3    H218382   3.404   0.894   2.062 -0.8500 -2.0230 -0.2667
 6140TIP3   OH218383   6.074   2.667   5.466 -0.5335 -0.5486 -1.2149
 6140TIP3    H118384   6.009   2.700   5.529 -0.2555 -0.3393 -1.0336
 6140TIP3    H218385   6.046   2.704   5.382 -0.2671  0.1051 -1.0260
 6141TIP3   OH218386   1.095   4.898   0.335  0.1444 -0.5925  0.4752
 6141TIP3    H118387   1.014   4.848   0.323  0.3018 -1.2047  1.8202
 6141TIP3    H218388   1.156   4.836   0.376 -0.1157  1.0173  3.6052
 6142TIP3   OH218389   5.568   4.993   1.579 -0.6428 -0.8098 -0.8492
 6142TIP3    H118390   5.663   4.982   1.573 -0.3291  1.2552 -0.3294
 6142TIP3    H218391   5.535   4.962   1.495  0.6259 -0.2957 -1.5586
 6143TIP3   OH218392   2.895   5.180   1.013 -0.4369 -0.1218 -0.5829
 6143TIP3    H118393   2.918   5.152   1.102 -0.1958 -1.2691 -0.9943
 6143TIP3    H218394   2.802   5.160   1.005 -1.5422  3.5901  0.7266
 6144TIP3   OH218395   1.526   4.115   2.986  0.0706  0.5003  0.0467
 6144TIP3    H118396   1.610   4.095   3.027 -0.2419  2.1081  1.6114
 6144TIP3    H218397   1.535   4.206   2.957  0.0643 -0.3760 -3.0557
 6145TIP3   OH218398   5.943   1.960   0.649 -0.0203  0.0054 -0.3982
 6145TIP3    H118399   6.021   2.015   0.651  0.0059  0.0653 -1.8697
 6145TIP3    H218400   5.968   1.887   0.592 -1.4015  0.6390 -1.8752
 6146TIP3   OH218401   2.461   1.308   1.199 -0.6266  1.0457  0.1315
 6146TIP3    H118402   2.529   1.278   1.139 -0.9515  0.1784  0.1816
 6146TIP3    H218403   2.500   1.302   1.286 -1.6976 -2.5131  0.5276
 6147TIP3   OH218404   3.946   5.138   0.799 -0.3833  0.1586 -0.3579
 6147TIP3    H118405   4.035   5.173   0.789 -0.2293 -0.6753 -2.3326
 6147TIP3    H218406   3.898   5.174   0.724 -1.3907 -0.3805  0.0145
 6148TIP3   OH218407   5.386  -0.004   4.618 -0.1680 -0.0376 -0.1295
 6148TIP3    H118408   5.478  -0.014   4.645 -0.0293  0.6944 -0.3075
 6148TIP3    H218409   5.343   0.034   4.695 -0.6175 -1.5860  0.4225
 6149TIP3   OH218410   6.497   0.474   1.490 -0.2537  0.2450  0.7405
 6149TIP3    H118411   6.497   0.546   1.554 -2.5134 -0.3830  1.5559
 6149TIP3    H218412   6.542   0.403   1.535  1.9528  1.0499 -0.0522
 6150TIP3   OH218413   5.133   0.793   0.559 -0.1373  0.1437  0.0589
 6150TIP3    H118414   5.196   0.795   0.631 -0.5658 -0.3727  0.4517
 6150TIP3    H218415   5.178   0.839   0.487 -0.3557  2.2069  1.1765
 6151TIP3   OH218416   4.272   6.603   2.181  0.0812 -0.0240 -0.1716
 6151TIP3    H118417   4.356   6.569   2.149  0.8982  0.5602  1.2107
 6151TIP3    H218418   4.213   6.598   2.106  0.6539 -2.7063 -0.5510
 6152TIP3   OH218419   1.752   1.857   4.448 -0.0960  0.2039 -0.1252
 6152TIP3    H118420   1.658   1.846   4.462  0.0328  0.2964  0.8494
 6152TIP3    H218421   1.783   1.769   4.429 -0.6009  0.3778 -1.9714
 6153TIP3   OH218422   2.103   6.270   0.713 -0.1516  0.1788 -0.2090
 6153TIP3    H118423   2.116   6.364   0.724  1.2347 -0.1818  1.6942
 6153TIP3    H218424   2.070   6.241   0.798 -2.6408 -0.7764 -1.4141
 6154TIP3   OH218425   1.832   3.855   4.858  0.0310  0.7065  0.0769
 6154TIP3    H118426   1.773   3.839   4.932  1.2714  1.7812  1.3696
 6154TIP3    H218427   1.775   3.881   4.786 -1.1011  1.3784  1.1780
 6155TIP3   OH218428   4.585   1.369   0.192 -0.1013 -0.2321  0.2739
 6155TIP3    H118429   4.512   1.359   0.131  0.2900  0.1606 -0.2658
 6155TIP3    H218430   4.549   1.343   0.277 -1.0181  0.4755  0.1089
 6156TIP3   OH218431   5.027   4.741   5.559  0.4741  0.2793  0.3494
 6156TIP3    H118432   5.023   4.811   5.623  1.5754 -0.6557  1.4965
 6156TIP3    H218433   4.987   4.666   5.602  0.7151 -0.2178 -0.2640
 6157TIP3   OH218434   1.436   1.406   1.592 -0.4315  0.3797 -0.0710
 6157TIP3    H118435   1.486   1.469   1.540  1.4083 -1.4167 -0.6122
 6157TIP3    H218436   1.382   1.460   1.649  0.4536  2.4332 -1.0508
 6158TIP3   OH218437   3.674   3.591   0.428 -0.2343  0.5665  0.1741
 6158TIP3    H118438   3.658   3.666   0.485 -1.0619  0.1860  0.4519
 6158TIP3    H218439   3.659   3.623   0.339 -0.7988  0.6753  0.3083
 6159TIP3   OH218440   0.084   3.423   2.090 -0.0123 -0.0244  0.2035
 6159TIP3    H118441   0.117   3.504   2.051  0.0466 -0.2974 -0.3323
 6159TIP3    H218442   0.067   3.366   2.014  2.8027 -1.6387  0.6319
 6160TIP3   OH218443   3.027   5.043   1.886 -0.1190  0.3697  0.3767
 6160TIP3    H118444   2.992   4.970   1.937 -1.3742 -0.3846 -1.4244
 6160TIP3    H218445   3.120   5.046   1.907  0.1194 -2.2295  0.0088
 6161TIP3   OH218446   3.768   6.780   3.222 -0.1446 -0.4907 -0.6258
 6161TIP3    H118447   3.676   6.803   3.207 -0.1044  0.2029  0.0836
 6161TIP3    H218448   3.772   6.763   3.316  0.2596 -1.4909 -0.8145
 6162TIP3   OH218449   5.075   2.289   1.393  0.4373  0.2074  0.4248
 6162TIP3    H118450   5.111   2.302   1.481  1.9672 -0.5017 -0.0724
 6162TIP3    H218451   5.044   2.198   1.394 -1.0249  0.6833  0.7139
 6163TIP3   OH218452   1.390   2.500   1.816  0.3011 -0.0559 -0.2165
 6163TIP3    H118453   1.436   2.556   1.754  0.6254 -0.9622 -0.8108
 6163TIP3    H218454   1.379   2.417   1.770 -1.6995  0.0350 -0.0079
 6164TIP3   OH218455   5.535   2.989   5.271  0.1922  0.2170  0.0532
 6164TIP3    H118456   5.498   2.941   5.345 -0.4413  2.3059  1.1674
 6164TIP3    H218457   5.620   3.021   5.302  0.6783 -0.2858 -0.7229
 6165TIP3   OH218458   0.627   1.761   0.687 -0.2071  0.1188 -0.4042
 6165TIP3    H118459   0.562   1.832   0.692 -1.1356 -0.6007 -1.6402
 6165TIP3    H218460   0.705   1.797   0.728 -0.9156  1.5601 -0.2504
 6166TIP3   OH218461   3.470   2.080   4.612 -0.2194 -0.5309  0.9778
 6166TIP3    H118462   3.505   2.018   4.676 -0.9650 -1.3804  0.5785
 6166TIP3    H218463   3.469   2.032   4.529 -0.2597  0.2080  0.5331
 6167TIP3   OH218464   4.710   6.248   4.692  1.0276  0.1458 -0.2893
 6167TIP3    H118465   4.636   6.260   4.632  0.3399  1.3934  0.7682
 6167TIP3    H218466   4.669   6.221   4.775  1.8084  0.2738  0.1440
 6168TIP3   OH218467   1.771   4.762   0.618 -0.0152 -0.0247  0.1560
 6168TIP3    H118468   1.703   4.829   0.626 -1.5540 -1.1693 -2.2436
 6168TIP3    H218469   1.782   4.728   0.706 -0.2526  2.3359  1.1622
 6169TIP3   OH218470   3.222   4.276   4.601  0.1488  0.2165  0.4529
 6169TIP3    H118471   3.150   4.301   4.544 -0.6861  0.0966  1.4310
 6169TIP3    H218472   3.279   4.223   4.545 -0.6976  0.0087 -0.2367
 6170TIP3   OH218473   3.799   6.212   3.827  0.4312 -0.3922  1.0113
 6170TIP3    H118474   3.734   6.282   3.818  0.7685 -0.0422  1.2735
 6170TIP3    H218475   3.763   6.154   3.893 -1.2682 -2.0825 -1.2329
 6171TIP3   OH218476   1.916   4.922   0.306 -0.1488 -0.0340  0.0197
 6171TIP3    H118477   1.893   4.961   0.222 -1.7211 -0.1802  0.3652
 6171TIP3    H218478   2.011   4.912   0.302 -0.3461 -2.0830 -2.6424
 6172TIP3   OH218479   5.312   1.546   1.814  0.3696 -0.1087 -0.3892
 6172TIP3    H118480   5.300   1.639   1.833 -0.1105  0.1284 -1.7062
 6172TIP3    H218481   5.403   1.540   1.784  0.3238 -0.0042 -0.5555
 6173TIP3   OH218482   3.159   1.428   0.192 -0.3003 -0.2770  0.3351
 6173TIP3    H118483   3.122   1.455   0.108  2.1701 -0.5731 -0.9518
 6173TIP3    H218484   3.171   1.510   0.241 -0.9698 -0.0070  0.0487
 6174TIP3   OH218485   1.009   2.351   4.421 -0.3361  0.0547 -0.0679
 6174TIP3    H118486   0.976   2.319   4.337  0.9485 -0.2595 -0.4770
 6174TIP3    H218487   1.011   2.446   4.412  0.3358 -0.0018 -0.6245
 6175TIP3   OH218488   2.264   6.816   3.583  0.0990  0.0309  0.0881
 6175TIP3    H118489   2.178   6.833   3.545 -0.3797 -0.1993  1.0440
 6175TIP3    H218490   2.297   6.740   3.534 -0.8115 -0.7072  0.5840
 6176TIP3   OH218491   6.780   5.507   5.857 -0.4524 -0.7991 -0.0110
 6176TIP3    H118492   6.688   5.494   5.835 -0.3300  1.2976 -2.1676
 6176TIP3    H218493   6.829   5.471   5.783  0.3531 -0.1821  0.1984
 6177TIP3   OH218494   4.743   3.202   4.108  0.3247 -0.0154 -0.1484
 6177TIP3    H118495   4.668   3.244   4.067  0.5549  0.4063 -0.1409
 6177TIP3    H218496   4.724   3.206   4.202  0.5224  0.4179 -0.1243
 6178TIP3   OH218497   7.162   3.519   2.735 -0.0826  0.6559  0.4846
 6178TIP3    H118498   7.109   3.447   2.770 -0.5493  1.5575  1.7201
 6178TIP3    H218499   7.202   3.559   2.812  1.7129  0.5563 -0.3506
 6179TIP3   OH218500   4.277   5.021   5.248 -0.1226 -0.1831 -0.0039
 6179TIP3    H118501   4.356   5.075   5.250 -1.6798  2.2260  1.0774
 6179TIP3    H218502   4.287   4.963   5.323  0.9490 -0.4602 -0.3346
 6180TIP3   OH218503   4.228   2.290   4.759 -0.1825 -0.0815  0.0222
 6180TIP3    H118504   4.172   2.337   4.821 -1.0418  0.7725 -1.3344
 6180TIP3    H218505   4.301   2.258   4.811 -1.1202  0.1788  1.5475
 6181TIP3   OH218506   0.850   5.576   4.550 -0.1566  0.1039 -0.1295
 6181TIP3    H118507   0.790   5.608   4.482  0.2501  1.3349  0.0738
 6181TIP3    H218508   0.800   5.583   4.631 -1.1987 -2.7748 -0.3806
 6182TIP3   OH218509   3.623   5.324   5.734 -0.5214  0.0653  0.2889
 6182TIP3    H118510   3.533   5.293   5.730 -1.1004  1.7345 -0.4998
 6182TIP3    H218511   3.676   5.244   5.734 -1.9137 -0.9256 -1.2449
 6183TIP3   OH218512   2.237   5.280   4.463  0.2359  0.4767 -0.1293
 6183TIP3    H118513   2.267   5.360   4.505  0.6832  0.9213 -1.2449
 6183TIP3    H218514   2.262   5.291   4.371  1.2714 -1.3953 -0.1228
 6184TIP3   OH218515   6.514   3.894   1.050  0.0936  0.1724 -0.3846
 6184TIP3    H118516   6.552   3.856   1.129  1.2023  1.1422 -0.4160
 6184TIP3    H218517   6.493   3.984   1.075 -0.1553  0.2917 -1.0086
 6185TIP3   OH218518   6.178   0.133   3.565 -0.0248 -0.1489  0.2282
 6185TIP3    H118519   6.195   0.152   3.657 -1.8848 -2.0282  1.0370
 6185TIP3    H218520   6.122   0.204   3.536 -1.4551 -0.8006  1.2947
 6186TIP3   OH218521   6.216   6.356   3.764 -0.3192 -0.9910 -0.5007
 6186TIP3    H118522   6.135   6.334   3.811  0.0449 -0.5579  0.3603
 6186TIP3    H218523   6.186   6.389   3.679 -1.2877  2.1748  0.9087
 6187TIP3   OH218524   5.338   0.113   4.888 -0.1023  0.5515  0.0416
 6187TIP3    H118525   5.411   0.092   4.947  1.1796  0.4498 -1.5299
 6187TIP3    H218526   5.264   0.128   4.947  1.1621  0.6337  1.6867
 6188TIP3   OH218527   3.637   1.364   5.718 -0.2893 -0.0989 -0.8710
 6188TIP3    H118528   3.640   1.429   5.648  2.2822 -0.4875 -1.2263
 6188TIP3    H218529   3.592   1.289   5.680 -0.6581  0.4109 -1.4490
 6189TIP3   OH218530   6.279   3.673   5.568  1.0208  0.0298 -0.1102
 6189TIP3    H118531   6.315   3.758   5.547  0.8707  0.3998  1.0377
 6189TIP3    H218532   6.192   3.673   5.529  1.0053  0.4170 -0.0768
 6190TIP3   OH218533   0.939   5.851   4.371  0.2477  0.4424 -0.2601
 6190TIP3    H118534   0.918   5.857   4.464 -2.8180  0.8769 -0.8828
 6190TIP3    H218535   1.017   5.794   4.368  0.2104  0.1100  2.5096
 6191TIP3   OH218536   3.653   3.658   1.664 -0.0992  0.1336 -0.2323
 6191TIP3    H118537   3.637   3.586   1.603  0.5017 -0.0099 -0.2189
 6191TIP3    H218538   3.739   3.641   1.701  1.2719  2.2252 -2.1686
 6192TIP3   OH218539   6.653   5.514   1.575  0.1399 -0.4768  0.2622
 6192TIP3    H118540   6.649   5.429   1.619 -2.8866 -0.0627  1.0280
 6192TIP3    H218541   6.743   5.544   1.589  0.4080 -2.1317  2.8319
 6193TIP3   OH218542   6.806   1.981   5.605 -0.4573 -0.1196  0.3035
 6193TIP3    H118543   6.797   2.067   5.647 -1.6994  0.4193 -1.0021
 6193TIP3    H218544   6.744   1.982   5.533  0.8867 -1.4187 -0.9425
 6194TIP3   OH218545   4.297   1.797   4.833  0.1789 -0.1635 -0.0773
 6194TIP3    H118546   4.246   1.720   4.855 -2.5413  1.1492 -1.3368
 6194TIP3    H218547   4.323   1.833   4.918 -1.0524 -0.8626  0.6244
 6195TIP3   OH218548   0.871   5.752   2.866 -0.2011  0.1798  0.1583
 6195TIP3    H118549   0.853   5.667   2.905 -0.5080  0.0048 -0.3510
 6195TIP3    H218550   0.787   5.798   2.870 -0.6840 -0.4445 -1.7572
 6196TIP3   OH218551   1.502   6.773   5.507  0.0149 -0.1713  0.5107
 6196TIP3    H118552   1.503   6.679   5.488  0.5416 -0.2236  0.7953
 6196TIP3    H218553   1.476   6.814   5.424 -1.8559 -0.6627  0.7931
 6197TIP3   OH218554   0.339   6.802   3.406 -0.5185 -0.1387  0.6402
 6197TIP3    H118555   0.282   6.760   3.343  0.4278  1.5636 -1.4694
 6197TIP3    H218556   0.408   6.842   3.353 -0.7140  3.0316  2.5336
 6198TIP3   OH218557   2.648   5.043   2.446  0.1308  0.1638  0.7570
 6198TIP3    H118558   2.600   5.062   2.526  1.3739  0.5482  1.4457
 6198TIP3    H218559   2.660   4.948   2.447 -1.8538 -0.1308 -0.1807
 6199TIP3   OH218560   1.945   5.735   0.589 -0.2740 -0.4028  0.2902
 6199TIP3    H118561   1.928   5.641   0.599  1.1456 -0.6546  0.5680
 6199TIP3    H218562   1.914   5.773   0.671  0.8016 -0.9045  0.9571
 6200TIP3   OH218563   4.863   4.047   0.518  0.1742 -0.6538 -0.0749
 6200TIP3    H118564   4.929   4.039   0.449 -0.9196 -0.7324 -1.1404
 6200TIP3    H218565   4.828   3.959   0.528 -0.1582 -0.5033  0.0826
 6201TIP3   OH218566   6.543   4.685   2.107 -0.3849  0.2466  0.4706
 6201TIP3    H118567   6.564   4.622   2.038 -4.3067 -2.1851  1.1700
 6201TIP3    H218568   6.545   4.770   2.063 -0.4338 -0.9644 -2.0754
 6202TIP3   OH218569   1.188   5.256   4.125  0.3316 -0.2780  0.2268
 6202TIP3    H118570   1.201   5.186   4.189  0.5237 -1.1440 -0.7237
 6202TIP3    H218571   1.251   5.237   4.056 -0.1920  0.3566 -0.4387
 6203TIP3   OH218572   2.887   2.311   3.374 -0.2132 -0.1209 -0.2704
 6203TIP3    H118573   2.872   2.312   3.469  0.0910  0.5442 -0.2250
 6203TIP3    H218574   2.810   2.266   3.338 -0.3889 -0.2664  0.2818
 6204TIP3   OH218575   1.134   2.045   4.104  0.2968  0.0174  0.0601
 6204TIP3    H118576   1.177   2.006   4.028 -0.3993 -0.6376 -0.0226
 6204TIP3    H218577   1.040   2.034   4.086  0.0814  1.5678  0.1427
 6205TIP3   OH218578   7.120   3.391   4.293  0.5329  0.2106 -0.1573
 6205TIP3    H118579   7.081   3.458   4.349  1.5524  0.5211  0.1987
 6205TIP3    H218580   7.049   3.328   4.278  0.4041 -0.2174  1.9982
 6206TIP3   OH218581   2.708   2.092   5.335 -0.1502 -0.2279  0.0096
 6206TIP3    H118582   2.712   2.179   5.296 -2.6652  0.6301  1.4139
 6206TIP3    H218583   2.628   2.054   5.299 -1.0386 -0.4796  2.1159
 6207TIP3   OH218584   3.053   2.596   1.536  0.0393 -0.2756  0.1448
 6207TIP3    H118585   2.962   2.582   1.512 -0.3192 -1.7336  2.0976
 6207TIP3    H218586   3.061   2.690   1.550 -1.7634 -0.3450  1.9979
 6208TIP3   OH218587   2.925   0.820   4.463 -0.5453 -0.4816 -0.0557
 6208TIP3    H118588   2.947   0.875   4.388  1.4129  0.6400  1.2386
 6208TIP3    H218589   2.837   0.788   4.445 -1.0433  1.6096 -1.7590
 6209TIP3   OH218590   4.455   1.453   2.613 -0.2284 -0.4068 -0.1594
 6209TIP3    H118591   4.494   1.379   2.566 -0.8683 -1.0848  0.3710
 6209TIP3    H218592   4.434   1.516   2.544 -0.9676 -1.3068 -0.7830
 6210TIP3   OH218593   3.341   5.345   3.697  0.3109 -0.1092 -0.3420
 6210TIP3    H118594   3.376   5.356   3.786  1.4299 -0.5978 -0.7033
 6210TIP3    H218595   3.256   5.303   3.710  0.1457  0.4729  0.5333
 6211TIP3   OH218596   5.825   1.985   3.004  0.4576  0.1160 -0.1433
 6211TIP3    H118597   5.784   1.911   2.960  0.3374  0.1710 -0.1234
 6211TIP3    H218598   5.866   1.947   3.082 -0.5807  0.2402  0.4862
 6212TIP3   OH218599   7.128   5.820   2.666  0.0572 -0.9895  0.1459
 6212TIP3    H118600   7.035   5.820   2.686  0.0072  0.7601  0.0994
 6212TIP3    H218601   7.169   5.858   2.744  0.5918 -0.6442 -0.2933
 6213TIP3   OH218602   5.930   3.794   2.607  0.1740 -0.4043  0.1428
 6213TIP3    H118603   5.926   3.881   2.646 -0.7397 -0.5300  0.3665
 6213TIP3    H218604   5.926   3.809   2.513 -1.5953 -0.2471  0.2078
 6214TIP3   OH218605   2.778   2.568   4.457 -0.6493  0.5468  0.3144
 6214TIP3    H118606   2.726   2.619   4.395  0.5390  0.1732 -1.0396
 6214TIP3    H218607   2.809   2.632   4.520  0.0169  1.3750 -0.8130
 6215TIP3   OH218608   1.178   3.997   3.416 -0.4467  0.2089 -0.1405
 6215TIP3    H118609   1.260   4.005   3.464  0.4285  1.9475 -1.8078
 6215TIP3    H218610   1.126   4.073   3.445  0.1934  1.4292 -1.9957
 6216TIP3   OH218611   2.479   4.532   2.840 -0.1321 -0.2819  0.1664
 6216TIP3    H118612   2.561   4.581   2.829 -0.0943 -0.5813 -1.0371
 6216TIP3    H218613   2.482   4.501   2.931  1.6249 -1.2251 -0.1603
 6217TIP3   OH218614   7.100   3.743   5.608  0.3502 -0.0468 -0.5470
 6217TIP3    H118615   7.149   3.817   5.644 -0.0399  0.4271 -0.9722
 6217TIP3    H218616   7.164   3.672   5.605  0.2712 -0.2593  1.5279
 6218TIP3   OH218617   5.021   2.869   4.652 -0.4556 -0.4466 -0.1165
 6218TIP3    H118618   5.106   2.850   4.612 -1.1617 -1.5068 -1.2060
 6218TIP3    H218619   5.029   2.838   4.742 -0.0962 -1.7867 -0.5813
 6219TIP3   OH218620   3.053   5.566   5.687  0.2303 -0.6915  0.1409
 6219TIP3    H118621   3.082   5.503   5.622  0.2184  1.2666 -1.8990
 6219TIP3    H218622   3.132   5.614   5.711 -0.0978 -0.0048 -0.0922
 6220TIP3   OH218623   3.529   3.179   4.678 -0.0704  0.1529 -0.0298
 6220TIP3    H118624   3.489   3.195   4.593 -0.1675  0.6944  0.1112
 6220TIP3    H218625   3.491   3.246   4.735 -0.9774 -1.0154  0.7568
 6221TIP3   OH218626   3.167   2.511   0.382 -0.1154 -0.4926  0.7568
 6221TIP3    H118627   3.143   2.548   0.467  1.5349  2.4960  0.0470
 6221TIP3    H218628   3.227   2.440   0.403  0.1108  0.0717  2.1009
 6222TIP3   OH218629   1.188   1.212   1.180  0.0748  0.2752  0.2692
 6222TIP3    H118630   1.147   1.248   1.102 -0.2449  0.0125  0.3146
 6222TIP3    H218631   1.281   1.236   1.171  0.0616  0.1620 -0.2421
 6223TIP3   OH218632   6.692   1.031   1.355  0.5721 -0.6388 -0.4280
 6223TIP3    H118633   6.656   1.118   1.370  1.7199 -0.2868  0.4421
 6223TIP3    H218634   6.735   1.037   1.270 -0.8192 -0.8767 -1.1713
 6224TIP3   OH218635   1.654   2.129   0.565 -0.3241  0.5136 -0.1026
 6224TIP3    H118636   1.727   2.175   0.605 -0.6482  1.1700 -0.2641
 6224TIP3    H218637   1.689   2.042   0.544  0.9632  1.4102 -1.9112
 6225TIP3   OH218638   0.215   2.866   1.592 -0.1415  0.2627  0.6752
 6225TIP3    H118639   0.221   2.797   1.526 -1.0834 -0.8883  1.7686
 6225TIP3    H218640   0.148   2.926   1.558  1.1201  1.0371 -0.5785
 6226TIP3   OH218641   6.494   5.923   0.417  0.0267  0.1530  0.5386
 6226TIP3    H118642   6.536   5.846   0.456 -0.5373 -0.7762 -0.6138
 6226TIP3    H218643   6.442   5.960   0.489 -1.8163 -2.1236  0.5155
 6227TIP3   OH218644   3.219   0.058   1.893 -0.4044 -0.1367 -0.0293
 6227TIP3    H118645   3.306   0.099   1.887 -0.3229 -0.4917 -1.3435
 6227TIP3    H218646   3.233  -0.018   1.950  0.1597 -0.2284 -0.2790
 6228TIP3   OH218647   0.374   4.114   1.049  0.2197 -0.1412  0.1423
 6228TIP3    H118648   0.360   4.069   1.132 -1.7523  0.8754  0.4381
 6228TIP3    H218649   0.405   4.201   1.073  0.8083 -0.2363 -0.2533
 6229TIP3   OH218650   0.418   6.292   0.435 -0.6082 -0.2237  0.2248
 6229TIP3    H118651   0.344   6.328   0.484 -2.2701 -2.4325 -0.4788
 6229TIP3    H218652   0.378   6.255   0.356  1.5919  0.5069 -1.3196
 6230TIP3   OH218653   7.111   3.237   2.199 -0.2037 -0.6999  0.7448
 6230TIP3    H118654   7.166   3.311   2.173  1.1983 -1.4603  1.4309
 6230TIP3    H218655   7.028   3.277   2.225 -0.3549  0.3882 -1.2580
 6231TIP3   OH218656   0.093   1.194   4.355 -0.0786 -0.4891  0.3205
 6231TIP3    H118657   0.118   1.216   4.445 -1.1337 -2.1789  1.0777
 6231TIP3    H218658   0.139   1.112   4.338 -0.4082 -0.5198 -0.4445
 6232TIP3   OH218659   2.757   4.035   1.486  0.3670 -0.1035  0.0085
 6232TIP3    H118660   2.835   4.041   1.432  0.5947 -0.9998  0.2150
 6232TIP3    H218661   2.716   3.952   1.460 -1.1583  0.8915 -0.9433
 6233TIP3   OH218662   6.221   6.431   0.152  0.2205  0.1278  0.2097
 6233TIP3    H118663   6.261   6.402   0.070 -0.5848 -0.4333  0.0019
 6233TIP3    H218664   6.247   6.365   0.216 -0.1162 -0.0745  0.1407
 6234TIP3   OH218665   3.022   6.594   5.533 -0.4211 -0.3070 -0.1689
 6234TIP3    H118666   3.085   6.563   5.598 -0.9879 -1.4866 -0.1569
 6234TIP3    H218667   3.064   6.579   5.449  1.4732  3.7044 -0.1488
 6235TIP3   OH218668   0.206   0.295   1.375 -0.9192 -0.4012 -0.0438
 6235TIP3    H118669   0.247   0.346   1.305 -1.4637 -0.8556 -0.7052
 6235TIP3    H218670   0.269   0.226   1.394 -1.0029 -0.6009 -0.4764
 6236TIP3   OH218671   3.251   2.861   4.925 -0.5238  0.2090 -0.2718
 6236TIP3    H118672   3.287   2.782   4.965 -0.2766 -0.2136 -1.2921
 6236TIP3    H218673   3.278   2.932   4.983  1.0862 -0.2193 -0.4473
 6237TIP3   OH218674   6.777   3.359   4.016 -0.2430 -0.0538  0.1038
 6237TIP3    H118675   6.690   3.395   4.000 -0.0764 -0.0647 -0.8535
 6237TIP3    H218676   6.825   3.374   3.935  1.5155  2.3721  1.4413
 6238TIP3   OH218677   5.443   4.925   5.838  0.4451  0.2827  0.1874
 6238TIP3    H118678   5.496   4.898   5.764 -0.7523 -0.3097 -0.4820
 6238TIP3    H218679   5.449   5.020   5.839  1.0928  0.2505 -0.1856
 6239TIP3   OH218680   0.745   4.635   0.662  0.6885 -0.2585 -0.1266
 6239TIP3    H118681   0.758   4.638   0.757 -0.2635  1.3163  0.0088
 6239TIP3    H218682   0.682   4.565   0.648 -0.4859  0.6004  0.6414
 6240TIP3   OH218683   1.075   4.262   2.105 -0.1315  0.2431  0.0671
 6240TIP3    H118684   1.082   4.333   2.169 -0.3068  2.2186 -1.9638
 6240TIP3    H218685   1.059   4.307   2.022 -2.0337 -2.2846 -1.0649
 6241TIP3   OH218686   3.539   5.585   0.057 -0.0349  0.2350  0.5464
 6241TIP3    H118687   3.606   5.648   0.033 -1.6463  1.3672 -1.1535
 6241TIP3    H218688   3.562   5.505   0.009  1.1284 -0.0205  1.4855
 6242TIP3   OH218689   5.652   2.308   4.820  0.0517 -0.0471 -0.0174
 6242TIP3    H118690   5.651   2.282   4.728 -2.1590 -0.3426  0.0547
 6242TIP3    H218691   5.675   2.228   4.867  2.6403  0.4152 -0.3162
 6243TIP3   OH218692   1.275   2.883   3.119 -0.1241 -0.2373  0.3844
 6243TIP3    H118693   1.225   2.964   3.108 -1.9767 -1.4556 -0.6226
 6243TIP3    H218694   1.357   2.899   3.071  0.6043  1.8482  2.1747
 6244TIP3   OH218695   0.763   3.736   3.107  0.2087 -0.7477  0.0577
 6244TIP3    H118696   0.813   3.724   3.188  0.0877  1.1876  0.4642
 6244TIP3    H218697   0.730   3.648   3.086  0.0773 -1.2680  2.2056
 6245TIP3   OH218698   7.100   4.050   0.767 -0.5120  0.3085  0.2008
 6245TIP3    H118699   7.057   3.995   0.702  0.7675 -1.0297  0.4437
 6245TIP3    H218700   7.066   4.138   0.751 -1.9087 -0.3901 -0.7948
 6246TIP3   OH218701   0.845   0.833   0.075 -0.3717 -0.0355 -0.2757
 6246TIP3    H118702   0.774   0.894   0.093  1.6085  2.8285 -1.4675
 6246TIP3    H218703   0.836   0.811  -0.018 -1.0208 -1.6025  0.1197
 6247TIP3   OH218704   0.226   6.623   1.368 -0.1958  0.3907 -0.4368
 6247TIP3    H118705   0.225   6.538   1.323  0.3335 -1.3771  2.6107
 6247TIP3    H218706   0.146   6.624   1.419  0.7771  0.7433  1.1485
 6248TIP3   OH218707   7.098   2.388   5.104 -0.2582  0.5184 -0.3149
 6248TIP3    H118708   7.188   2.366   5.129 -0.6264 -0.2116  0.4255
 6248TIP3    H218709   7.102   2.481   5.081  0.4228  0.8872  1.1179
 6249TIP3   OH218710   5.699   1.239   5.333  0.2060 -0.3208  0.5624
 6249TIP3    H118711   5.666   1.229   5.244 -1.1865 -1.1053  1.1475
 6249TIP3    H218712   5.795   1.236   5.323  0.0617 -1.0902 -0.8222
 6250TIP3   OH218713   1.091   5.872   2.967 -0.6281  0.2592  0.6343
 6250TIP3    H118714   1.011   5.826   2.943 -0.0812 -0.5725  0.3472
 6250TIP3    H218715   1.063   5.961   2.987 -1.5673  0.0770  0.1785
 6251TIP3   OH218716   2.446   3.864   5.627 -0.4060 -0.0297  0.0213
 6251TIP3    H118717   2.479   3.814   5.553  0.0122  1.5867 -0.9474
 6251TIP3    H218718   2.519   3.868   5.688 -0.4946 -0.7180  0.1757
 6252TIP3   OH218719   4.206   6.526   4.862  0.1608  0.5141  0.5500
 6252TIP3    H118720   4.283   6.517   4.918  0.8035 -0.8469 -0.5001
 6252TIP3    H218721   4.136   6.481   4.910  0.7042 -0.6378  0.3028
 6253TIP3   OH218722   1.116   0.020   0.603  0.6062 -0.2912 -0.5525
 6253TIP3    H118723   1.118   0.015   0.507  0.2457  1.9553 -0.7348
 6253TIP3    H218724   1.208   0.033   0.628  0.6607 -0.5448 -0.6215
 6254TIP3   OH218725   0.122   0.583   5.677  0.7809  0.4981  0.3025
 6254TIP3    H118726   0.028   0.568   5.665  0.7862 -0.0742  0.8958
 6254TIP3    H218727   0.164   0.538   5.604  0.6563 -0.2702  0.7000
 6255TIP3   OH218728   6.359   2.332   5.661  0.0381 -0.0969 -0.7537
 6255TIP3    H118729   6.386   2.250   5.701 -1.7598  0.0789  0.9414
 6255TIP3    H218730   6.279   2.311   5.614 -0.0851  0.5600 -0.8439
 6256TIP3   OH218731   3.461   1.259   5.466 -0.4845  0.1755  0.1078
 6256TIP3    H118732   3.429   1.280   5.378 -0.2879 -0.8933 -0.2351
 6256TIP3    H218733   3.523   1.187   5.452 -1.5863 -1.0525  1.2600
 6257TIP3   OH218734   2.291   0.896   1.595 -0.2723 -0.2813 -0.5130
 6257TIP3    H118735   2.371   0.907   1.646 -1.1366  0.7214  0.7184
 6257TIP3    H218736   2.319   0.898   1.504  1.2074 -0.9795 -0.1046
 6258TIP3   OH218737   4.532   6.072   1.969  0.2452  0.2153 -0.2103
 6258TIP3    H118738   4.448   6.066   1.924 -0.8841 -0.1215  1.8567
 6258TIP3    H218739   4.563   5.982   1.975  0.1163  0.1929  0.1583
 6259TIP3   OH218740   3.854   0.127   5.068 -0.1778 -0.2517  0.7924
 6259TIP3    H118741   3.833   0.220   5.054 -3.3284 -0.8788  0.6949
 6259TIP3    H218742   3.921   0.108   5.003 -1.0665  1.4416 -0.7220
 6260TIP3   OH218743   4.160   1.262   3.603 -0.2960 -0.5254  0.5473
 6260TIP3    H118744   4.213   1.189   3.635  1.4239  0.5664  0.2670
 6260TIP3    H218745   4.173   1.261   3.508  1.5684  1.4709  0.7256
 6261TIP3   OH218746   5.026   1.055   3.627  0.3122 -0.2067  0.7276
 6261TIP3    H118747   5.107   1.100   3.603  0.4148  0.0804  1.5652
 6261TIP3    H218748   4.978   1.045   3.545  1.0928 -0.1673  0.2633
 6262TIP3   OH218749   4.888   3.309   3.435  0.2562 -0.1743  0.1935
 6262TIP3    H118750   4.800   3.335   3.461  0.1937  0.2453 -0.4097
 6262TIP3    H218751   4.885   3.214   3.432  0.0255 -0.1917  0.8557
 6263TIP3   OH218752   1.774   2.797   2.582  0.2944 -0.3599  0.3702
 6263TIP3    H118753   1.699   2.739   2.594 -0.3743  0.4976  0.5248
 6263TIP3    H218754   1.845   2.757   2.632  0.1831 -1.6071 -0.4376
 6264TIP3   OH218755   0.745   3.723   1.739 -0.2323 -0.0126 -0.5028
 6264TIP3    H118756   0.708   3.800   1.695  0.7981  0.1271 -1.1641
 6264TIP3    H218757   0.717   3.731   1.830 -0.2516  1.0756 -0.5938
 6265TIP3   OH218758   4.367   1.593   2.382  0.3293  0.2965 -0.2539
 6265TIP3    H118759   4.420   1.528   2.335 -2.6008 -1.9627 -0.7539
 6265TIP3    H218760   4.326   1.644   2.312 -2.1768 -1.5098 -0.2397
 6266TIP3   OH218761   3.122   6.126   2.818  0.1138 -0.8137 -0.2661
 6266TIP3    H118762   3.179   6.199   2.796  0.3772 -1.6469 -2.6821
 6266TIP3    H218763   3.180   6.061   2.859  0.2511 -0.4185  0.1699
 6267TIP3   OH218764   3.933   3.104   4.649  0.3955  0.1681 -0.2232
 6267TIP3    H118765   3.936   3.042   4.722  1.0892  1.3704  0.8066
 6267TIP3    H218766   3.880   3.177   4.682  2.7193  1.8394  0.0416
 6268TIP3   OH218767   5.963   5.756   0.715  0.2430  0.5174  0.2465
 6268TIP3    H118768   5.951   5.691   0.785  0.8327 -1.1596 -1.1320
 6268TIP3    H218769   6.033   5.721   0.662 -0.3500  1.6231 -1.3328
 6269TIP3   OH218770   1.233   5.198   2.380  0.0653 -0.2895  0.5068
 6269TIP3    H118771   1.301   5.255   2.346  2.4843 -1.5527  2.8229
 6269TIP3    H218772   1.180   5.254   2.437  0.1900  0.3628 -0.0145
 6270TIP3   OH218773   3.147   1.194   4.808 -0.5276  0.0369 -0.0693
 6270TIP3    H118774   3.159   1.162   4.719 -0.1950 -0.3189  0.1037
 6270TIP3    H218775   3.057   1.171   4.830 -0.3261 -0.6790  0.0142
 6271TIP3   OH218776   1.847   1.202   0.888  0.8739 -0.1798 -0.5389
 6271TIP3    H118777   1.758   1.225   0.861  0.9750 -1.0250 -1.6944
 6271TIP3    H218778   1.841   1.189   0.983  0.2190  1.6925 -0.2854
 6272TIP3   OH218779   1.883   6.531   0.138  0.0346  0.5423  0.2798
 6272TIP3    H118780   1.975   6.510   0.121  0.2717  0.8644  1.1291
 6272TIP3    H218781   1.871   6.619   0.101  0.7843  1.6193  2.4244
 6273TIP3   OH218782   4.665   3.431   3.536 -0.0503 -0.8304 -0.5125
 6273TIP3    H118783   4.669   3.524   3.558  3.5954 -0.6259 -1.3019
 6273TIP3    H218784   4.628   3.428   3.449  2.3245  0.3036 -1.6642
 6274TIP3   OH218785   4.190   1.967   4.344 -0.3184 -0.4365 -0.0489
 6274TIP3    H118786   4.260   1.903   4.330 -0.2275 -0.1441 -1.0224
 6274TIP3    H218787   4.211   2.007   4.429 -0.6979 -2.0742  0.8572
 6275TIP3   OH218788   6.663   6.655   3.216  0.5518 -0.0862 -0.2502
 6275TIP3    H118789   6.728   6.723   3.238  0.4668 -0.5530  1.5997
 6275TIP3    H218790   6.583   6.684   3.260  0.1116 -0.6518 -0.6738
 6276TIP3   OH218791   6.213   1.157   2.788  0.2512  0.0217  0.5906
 6276TIP3    H118792   6.296   1.172   2.742  2.0681 -1.4077  3.1318
 6276TIP3    H218793   6.215   1.064   2.810 -2.5574 -0.2829 -0.1109
 6277TIP3   OH218794   6.417   6.415   4.733 -0.1804  0.5947 -0.4938
 6277TIP3    H118795   6.487   6.373   4.683 -0.4979  0.0114 -0.4536
 6277TIP3    H218796   6.352   6.439   4.666 -0.9103 -0.7854 -0.3020
 6278TIP3   OH218797   6.339   4.939   1.595 -0.1205 -0.4503 -0.1184
 6278TIP3    H118798   6.286   5.015   1.574  1.5197  0.7015 -0.2207
 6278TIP3    H218799   6.354   4.895   1.511  0.9415  0.4798 -0.4311
 6279TIP3   OH218800   4.328   4.843   0.853 -0.1510 -0.6784 -0.1186
 6279TIP3    H118801   4.308   4.868   0.944 -1.0053 -2.0113  0.0892
 6279TIP3    H218802   4.414   4.880   0.837 -0.0457 -0.2868  1.1894
 6280TIP3   OH218803   5.422   2.335   4.966  0.2108 -0.0505  0.2580
 6280TIP3    H118804   5.426   2.240   4.955  0.1867  0.1456 -1.9561
 6280TIP3    H218805   5.474   2.370   4.894 -0.0026  1.6342  0.8708
 6281TIP3   OH218806   3.846   6.333   3.349  0.3948  0.3510  0.0849
 6281TIP3    H118807   3.753   6.340   3.372  0.1037 -0.2207 -0.8518
 6281TIP3    H218808   3.872   6.247   3.380  0.9234  0.9301  1.3265
 6282TIP3   OH218809   5.485   5.638   2.948 -0.0831 -0.6628  0.3409
 6282TIP3    H118810   5.507   5.648   3.040 -0.1639  1.3168  0.1975
 6282TIP3    H218811   5.511   5.721   2.908 -0.7693 -1.1730 -1.2717
 6283TIP3   OH218812   2.294   1.786   5.118 -0.2074  0.5090  0.2965
 6283TIP3    H118813   2.358   1.719   5.096  1.8530  2.7600 -1.1245
 6283TIP3    H218814   2.346   1.867   5.126 -2.8423  2.4801 -1.0128
 6284TIP3   OH218815   0.595   3.089   3.418  0.0572  0.3179 -0.4539
 6284TIP3    H118816   0.647   3.167   3.439  0.1970  0.3131 -0.7806
 6284TIP3    H218817   0.586   3.091   3.323 -0.9582  0.5894 -0.3656
 6285TIP3   OH218818   1.365   6.201   1.878 -0.0406 -0.3808  0.4268
 6285TIP3    H118819   1.423   6.174   1.807  1.6381  1.9679  0.7941
 6285TIP3    H218820   1.414   6.181   1.958  0.3040  1.5633  0.7458
 6286TIP3   OH218821   3.434   6.036   3.904  0.0416 -0.3512 -0.3276
 6286TIP3    H118822   3.519   6.064   3.937 -0.4602  0.8235  0.0138
 6286TIP3    H218823   3.445   6.034   3.809  0.4503 -0.1933 -0.2848
 6287TIP3   OH218824   5.920   4.531   1.283 -0.1659  0.2201 -0.2068
 6287TIP3    H118825   5.968   4.614   1.284  1.5642 -0.7267 -0.3984
 6287TIP3    H218826   5.857   4.541   1.212  1.0759  0.8325 -1.2730
 6288TIP3   OH218827   7.016   5.736   1.330 -0.6645 -0.5757  0.5392
 6288TIP3    H118828   7.077   5.678   1.284  1.2696  1.2848  0.5816
 6288TIP3    H218829   6.942   5.745   1.270  2.0478  2.3142 -2.8500
 6289TIP3   OH218830   7.018   4.201   4.144  0.0235  0.5678 -0.7788
 6289TIP3    H118831   7.098   4.230   4.101 -1.0888  0.0761 -3.3938
 6289TIP3    H218832   7.037   4.111   4.171  0.4423  0.5619 -1.0865
 6290TIP3   OH218833   4.515   6.251   0.038 -0.3260  0.1503  0.4696
 6290TIP3    H118834   4.481   6.312   0.104 -3.6688 -0.9680  0.0150
 6290TIP3    H218835   4.501   6.297  -0.046 -1.4915 -0.5983  0.2273
 6291TIP3   OH218836   0.443   0.587   3.781  0.0653  0.5394  0.2859
 6291TIP3    H118837   0.425   0.659   3.720 -1.0610  0.3607  0.3960
 6291TIP3    H218838   0.472   0.515   3.725  0.7524  0.9204  0.1345
 6292TIP3   OH218839   1.829   4.140   1.605  0.0485  0.4214 -0.0919
 6292TIP3    H118840   1.781   4.202   1.551 -2.0497 -0.0291  1.1644
 6292TIP3    H218841   1.770   4.118   1.677  0.8240 -2.7534 -0.2599
 6293TIP3   OH218842   3.999   6.710   4.655 -0.3660  0.0731  0.3928
 6293TIP3    H118843   3.955   6.668   4.581 -0.5628 -0.4111  0.7789
 6293TIP3    H218844   4.044   6.638   4.699 -0.9440  0.2287  1.2341
 6294TIP3   OH218845   2.489   5.721  -0.015  0.1215  0.3254 -0.1818
 6294TIP3    H118846   2.436   5.754   0.058 -1.3287 -2.1904  0.0205
 6294TIP3    H218847   2.446   5.640  -0.040  2.3424 -0.4031 -1.8988
 6295TIP3   OH218848   3.243   1.692   0.678  0.2510  0.0937  0.0070
 6295TIP3    H118849   3.204   1.777   0.700  1.6671  0.5965  0.6515
 6295TIP3    H218850   3.195   1.630   0.732 -1.5201  0.2991 -1.2354
 6296TIP3   OH218851   5.669   0.472   4.755  0.0755 -0.1626  0.4583
 6296TIP3    H118852   5.720   0.440   4.829  0.2373  1.0426  0.8979
 6296TIP3    H218853   5.611   0.400   4.732  1.8852 -1.5659 -0.0044
 6297TIP3   OH218854   0.808   2.034   0.406  0.2679 -0.2499 -0.3069
 6297TIP3    H118855   0.832   2.017   0.497 -1.0776 -0.4972  0.0261
 6297TIP3    H218856   0.891   2.034   0.359  0.8209 -2.4967  0.5388
 6298TIP3   OH218857   2.075   5.217   3.529  0.2071 -0.8137  0.9994
 6298TIP3    H118858   2.076   5.171   3.445 -0.4058  0.5753  0.1988
 6298TIP3    H218859   2.164   5.205   3.563  0.3630 -1.6892  0.3321
 6299TIP3   OH218860   3.388   5.332   5.179  0.7001 -0.2535 -0.5257
 6299TIP3    H118861   3.344   5.334   5.094 -0.2820  2.9199 -0.0882
 6299TIP3    H218862   3.481   5.326   5.157  0.4003 -1.0427 -1.7194
 6300TIP3   OH218863   0.526   3.113   2.000  0.0550  0.2090 -0.3019
 6300TIP3    H118864   0.448   3.167   1.993 -1.0484 -1.3069 -0.2991
 6300TIP3    H218865   0.539   3.100   2.094 -0.6243 -0.7695 -0.3214
 6301TIP3   OH218866   7.225   3.059   2.807  0.2708  0.1873 -0.4110
 6301TIP3    H118867   7.228   3.095   2.718  0.1514 -0.4660 -0.6827
 6301TIP3    H218868   7.152   2.997   2.805  0.6510 -0.2703 -0.0193
 6302TIP3   OH218869   6.570   0.518   3.063  0.6419 -0.3038  0.1193
 6302TIP3    H118870   6.574   0.429   3.028  1.8372 -0.9825  1.8378
 6302TIP3    H218871   6.662   0.543   3.075  0.3587  1.5391 -1.1257
 6303TIP3   OH218872   6.141   5.337   3.786  0.0330 -0.6081 -0.3171
 6303TIP3    H118873   6.121   5.256   3.833 -1.6714 -0.9844 -1.5895
 6303TIP3    H218874   6.056   5.380   3.777  0.7945  0.8997 -0.4502
 6304TIP3   OH218875   6.525   4.569   2.351 -0.1891  0.0063  0.1224
 6304TIP3    H118876   6.617   4.565   2.378 -0.0199 -1.2272 -0.5524
 6304TIP3    H218877   6.529   4.603   2.262 -0.2039 -1.7392 -0.5831
 6305TIP3   OH218878   6.080   3.731   5.378  0.8405 -0.0221 -0.1927
 6305TIP3    H118879   6.023   3.677   5.322 -2.6886  1.3337  1.8012
 6305TIP3    H218880   6.090   3.812   5.329  0.8446 -0.1674 -0.4385
 6306TIP3   OH218881   2.869   1.052   3.124  0.0722 -0.2774 -0.3395
 6306TIP3    H118882   2.783   1.055   3.165  0.3506  2.9042  0.2588
 6306TIP3    H218883   2.870   0.969   3.077 -2.6118 -1.2322  1.0839
 6307TIP3   OH218884   0.500   0.491   2.921  0.0660 -0.1304  0.1985
 6307TIP3    H118885   0.407   0.470   2.912  0.2753 -0.3773 -1.7406
 6307TIP3    H218886   0.507   0.528   3.009 -1.6244 -1.2871  0.8762
 6308TIP3   OH218887   3.462   6.038   5.398  0.2182 -0.0712  0.1869
 6308TIP3    H118888   3.407   6.076   5.467 -0.3334 -0.5326  0.0023
 6308TIP3    H218889   3.426   6.073   5.317  0.3830 -0.1381  0.0853
 6309TIP3   OH218890   2.355   6.767   0.064 -0.0111 -0.1875 -0.0056
 6309TIP3    H118891   2.390   6.851   0.095 -1.1329  0.7066 -1.0615
 6309TIP3    H218892   2.423   6.733   0.005 -0.1194  0.6729 -0.6511
 6310TIP3   OH218893   6.968   0.141   3.369  0.6459 -0.1559  0.5207
 6310TIP3    H118894   7.054   0.124   3.330  0.1375 -1.1799 -0.2123
 6310TIP3    H218895   6.935   0.054   3.393 -0.4680  0.1447  0.1617
 6311TIP3   OH218896   6.079   1.155   4.294  0.2249  0.0376  0.0870
 6311TIP3    H118897   6.065   1.134   4.386  0.5195 -1.3398 -0.1554
 6311TIP3    H218898   6.018   1.097   4.247  1.2820 -0.5136 -0.6437
 6312TIP3   OH218899   6.566   0.956   1.719  0.3781 -0.3057  0.3027
 6312TIP3    H118900   6.531   0.932   1.805 -4.4950  1.8191 -0.7967
 6312TIP3    H218901   6.525   0.895   1.658  2.5674 -0.8022 -0.7846
 6313TIP3   OH218902   6.443   3.659   0.358  0.4261  0.1353  0.4516
 6313TIP3    H118903   6.495   3.634   0.434  1.1630 -0.1772 -0.1433
 6313TIP3    H218904   6.457   3.588   0.295 -0.2572  0.3374  0.0656
 6314TIP3   OH218905   1.654   5.013   1.239  0.1615  0.0874 -0.0865
 6314TIP3    H118906   1.724   4.952   1.262 -0.2950  0.2881  2.0876
 6314TIP3    H218907   1.578   4.983   1.290 -0.4122  1.7084  0.0748
 6315TIP3   OH218908   1.734   0.861   2.026 -0.1115 -0.0133 -0.8138
 6315TIP3    H118909   1.676   0.935   2.006  1.0858  1.0418 -0.5399
 6315TIP3    H218910   1.724   0.848   2.120  0.4770  0.5297 -0.6675
 6316TIP3   OH218911   1.741   4.310   5.309  0.1053 -0.4642  0.6988
 6316TIP3    H118912   1.816   4.334   5.363 -0.3155  0.4303  0.8917
 6316TIP3    H218913   1.667   4.310   5.369 -0.8501  3.0860 -0.2648
 6317TIP3   OH218914   6.667   4.300   4.604  0.0307  0.5954 -0.5534
 6317TIP3    H118915   6.601   4.232   4.620 -0.7745  1.5196  0.2085
 6317TIP3    H218916   6.631   4.352   4.532  0.7485  0.1153 -1.2844
 6318TIP3   OH218917   0.965   2.668   3.975 -0.3440 -0.3270 -0.0520
 6318TIP3    H118918   0.942   2.644   3.885  1.0492  0.0989 -0.5509
 6318TIP3    H218919   0.936   2.759   3.983 -1.0780 -0.5764  0.1612
 6319TIP3   OH218920   4.477   0.519   5.762  0.0484 -0.1718  0.0406
 6319TIP3    H118921   4.554   0.490   5.810  0.8623  1.5526 -0.1418
 6319TIP3    H218922   4.435   0.439   5.732  2.1194 -1.1302 -0.4214
 6320TIP3   OH218923   3.553   6.130   1.424 -0.2763 -0.0876 -0.2497
 6320TIP3    H118924   3.647   6.147   1.437  0.0181 -2.2857  1.1369
 6320TIP3    H218925   3.548   6.035   1.413 -2.5583 -0.3788  2.3117
 6321TIP3   OH218926   5.399   1.441   1.067  0.1313  0.1936  0.4672
 6321TIP3    H118927   5.400   1.433   1.162  1.9617  0.5876  0.5138
 6321TIP3    H218928   5.380   1.534   1.050  0.0894  0.1807  0.4407
 6322TIP3   OH218929   3.577   3.937   5.002  0.0688 -0.3120 -0.3332
 6322TIP3    H118930   3.645   4.002   4.983  0.6423 -0.6158  0.6083
 6322TIP3    H218931   3.620   3.852   4.991  0.1763 -0.5060  1.2974
 6323TIP3   OH218932   4.517   2.806   2.178  0.4146 -0.0772  0.1408
 6323TIP3    H118933   4.582   2.765   2.235 -1.1671 -0.0462  2.0700
 6323TIP3    H218934   4.487   2.735   2.121  0.1032 -0.8314  1.2002
 6324TIP3   OH218935   5.769   3.333   2.108  0.8066 -0.0985  0.2899
 6324TIP3    H118936   5.724   3.250   2.093  1.2532 -0.3602  0.3618
 6324TIP3    H218937   5.714   3.399   2.066  0.2373 -0.3791  0.5922
 6325TIP3   OH218938   2.148   5.701   3.633 -0.0673  0.0456 -0.0375
 6325TIP3    H118939   2.154   5.763   3.707  0.0406 -1.0474  0.8891
 6325TIP3    H218940   2.100   5.627   3.668  1.3642 -1.1870 -0.5790
 6326TIP3   OH218941   5.708   6.163   3.055  0.1682  0.1257  0.5068
 6326TIP3    H118942   5.704   6.076   3.016 -2.0773  1.3100 -2.2904
 6326TIP3    H218943   5.616   6.189   3.065  0.6944  1.2198  3.8221
 6327TIP3   OH218944   3.330   0.928   3.645 -0.8147  0.1459 -0.2748
 6327TIP3    H118945   3.262   0.863   3.663 -0.8535  0.4811  0.8808
 6327TIP3    H218946   3.412   0.878   3.649 -0.9362 -0.1015 -0.8349
 6328TIP3   OH218947   4.716   6.773   2.669 -0.1435  0.5454  0.1502
 6328TIP3    H118948   4.746   6.683   2.678  4.1390  1.2891 -3.2844
 6328TIP3    H218949   4.764   6.821   2.737  0.6762  0.6851 -0.5046
 6329TIP3   OH218950   5.801   2.429   1.600  0.2167  0.0846 -0.0362
 6329TIP3    H118951   5.755   2.354   1.639 -0.0643  0.5501  0.5374
 6329TIP3    H218952   5.780   2.424   1.507 -0.3528 -0.1572  0.1022
 6330TIP3   OH218953   5.642   5.644   5.240 -0.7351 -0.3998 -0.4931
 6330TIP3    H118954   5.667   5.552   5.234  1.1103 -0.0147  0.5433
 6330TIP3    H218955   5.614   5.656   5.331  3.1964  0.8871  0.7779
 6331TIP3   OH218956   2.958   0.457   5.469 -0.6710  0.1092  0.3532
 6331TIP3    H118957   3.000   0.496   5.546 -0.6280  0.7849 -0.0028
 6331TIP3    H218958   2.871   0.432   5.499 -0.0228 -1.3543  1.1112
 6332TIP3   OH218959   5.887   3.744   3.370  0.4464  0.5227  0.3101
 6332TIP3    H118960   5.927   3.809   3.312  0.4694  1.4052  1.2804
 6332TIP3    H218961   5.956   3.724   3.434  0.5721 -0.7650 -0.1837
 6333TIP3   OH218962   0.658   2.525   2.992  0.0377 -0.0011  0.3881
 6333TIP3    H118963   0.679   2.474   2.913 -0.8064  1.7319 -1.0451
 6333TIP3    H218964   0.743   2.553   3.025  0.3691  0.4506 -0.7794
 6334TIP3   OH218965   3.932   3.181   3.120 -0.2895 -0.2540  0.3527
 6334TIP3    H118966   3.884   3.201   3.200  0.1139  0.0247  0.5265
 6334TIP3    H218967   3.910   3.252   3.060 -1.7138 -1.1939 -0.2890
 6335TIP3   OH218968   1.734   5.628   2.339 -0.2346 -0.2195  0.1425
 6335TIP3    H118969   1.639   5.639   2.346 -0.0894  0.6121  0.8573
 6335TIP3    H218970   1.760   5.588   2.422  0.3288  1.6754  0.9293
 6336TIP3   OH218971   2.864   3.810   2.946 -0.0573  0.7205 -0.3493
 6336TIP3    H118972   2.802   3.843   2.881  1.1298 -0.0109 -1.9307
 6336TIP3    H218973   2.928   3.761   2.895  2.2883  2.0998  1.1043
 6337TIP3   OH218974   1.215   3.203   4.764 -0.3795  0.8969  0.0107
 6337TIP3    H118975   1.238   3.287   4.725  1.2820  0.3841 -0.1793
 6337TIP3    H218976   1.150   3.166   4.703 -1.8833  2.4224  0.6154
 6338TIP3   OH218977   0.056   1.086   5.806 -0.3982 -0.1573  0.6848
 6338TIP3    H118978   0.116   1.012   5.807 -0.9414 -0.6066  0.8552
 6338TIP3    H218979  -0.009   1.062   5.739 -0.7661  0.0074  0.9856
 6339TIP3   OH218980   2.212   4.097   1.445 -0.1074 -0.2984  0.5564
 6339TIP3    H118981   2.202   4.033   1.374  0.3135 -1.8179  1.8041
 6339TIP3    H218982   2.307   4.106   1.456 -0.1697 -0.1365  0.9661
 6340TIP3   OH218983   0.282   6.661   4.593  0.7228  0.3185 -0.1949
 6340TIP3    H118984   0.341   6.681   4.665  0.5692  1.6913 -0.4078
 6340TIP3    H218985   0.333   6.605   4.534  0.9649 -0.5155  0.7867
 6341TIP3   OH218986   1.509   6.325   3.127  0.7782 -0.3888 -0.3353
 6341TIP3    H118987   1.466   6.287   3.051  1.2274 -0.1950 -0.6856
 6341TIP3    H218988   1.582   6.266   3.145  0.7720 -0.3417 -0.1516
 6342TIP3   OH218989   6.949   4.763   0.168 -0.0174 -0.1450  0.2412
 6342TIP3    H118990   7.004   4.806   0.234  1.0427 -0.2902 -0.5296
 6342TIP3    H218991   6.994   4.680   0.151 -0.8008 -0.5286  0.0284
 6343TIP3   OH218992   1.191   2.666   3.537  0.3418 -0.6038 -0.6085
 6343TIP3    H118993   1.249   2.643   3.465  1.7606  0.1757  0.2287
 6343TIP3    H218994   1.103   2.640   3.507  1.0787 -1.6328 -1.9912
 6344TIP3   OH218995   3.459   3.718   5.626 -0.4942 -0.2569 -0.0097
 6344TIP3    H118996   3.386   3.762   5.582 -0.0139 -0.9539 -1.5602
 6344TIP3    H218997   3.445   3.625   5.610  1.5438 -0.3395 -1.7425
 6345TIP3   OH218998   1.476   1.661   0.944 -0.1097 -0.0047 -0.2118
 6345TIP3    H118999   1.401   1.626   0.992 -0.0596  0.5590  0.2857
 6345TIP3    H219000   1.442   1.682   0.858  0.1436 -2.4741 -0.9877
 6346TIP3   OH219001   5.478   4.682   3.501 -0.2083 -0.2192  0.1667
 6346TIP3    H119002   5.430   4.635   3.432 -0.4136 -0.5424  0.5281
 6346TIP3    H219003   5.549   4.725   3.454 -1.4452  1.1321 -0.5469
 6347TIP3   OH219004   7.153   6.526   2.733 -0.1313 -0.0536 -0.3290
 6347TIP3    H119005   7.202   6.447   2.754  1.6145  0.9062 -0.5764
 6347TIP3    H219006   7.111   6.507   2.649 -0.6702 -1.0880  0.1544
 6348TIP3   OH219007   4.422   5.702   1.709  0.3070  0.4875 -0.0664
 6348TIP3    H119008   4.354   5.675   1.770 -0.7351  0.8482 -1.0166
 6348TIP3    H219009   4.425   5.797   1.717  1.6784  0.3769  0.9458
 6349TIP3   OH219010   0.067   2.116   4.770 -0.4580  0.2984 -0.2805
 6349TIP3    H119011   0.147   2.070   4.746  0.3070  1.5011 -0.1206
 6349TIP3    H219012   0.078   2.204   4.734 -1.8401  0.4056 -0.5113
 6350TIP3   OH219013   2.558   6.635   1.179 -0.0089 -0.2546 -0.1740
 6350TIP3    H119014   2.595   6.625   1.091  1.1768  3.5111 -0.2648
 6350TIP3    H219015   2.466   6.609   1.169  0.2500 -0.5408 -2.3471
 6351TIP3   OH219016   0.299   3.028   0.763  0.1945  0.0031 -0.3837
 6351TIP3    H119017   0.246   2.957   0.728 -0.3774  0.3766 -0.2963
 6351TIP3    H219018   0.256   3.052   0.846 -0.1182  0.9999 -0.8126
 6352TIP3   OH219019   1.466   6.619   3.208  0.8042 -0.1425 -0.4325
 6352TIP3    H119020   1.410   6.638   3.133  0.0499 -1.1862 -0.1607
 6352TIP3    H219021   1.459   6.524   3.219  1.9153 -0.1648  0.1706
 6353TIP3   OH219022   6.168   5.093   2.898  0.0239 -0.0516  0.1623
 6353TIP3    H119023   6.177   5.019   2.837 -0.8296 -0.2392  0.2604
 6353TIP3    H219024   6.085   5.078   2.942 -0.1942  1.0074  0.1319
 6354TIP3   OH219025   0.739   5.647   4.023  0.4544  0.6958  0.6738
 6354TIP3    H119026   0.755   5.706   4.096 -1.3174  0.9899  0.8636
 6354TIP3    H219027   0.723   5.704   3.948 -0.4335  0.4601  0.6713
 6355TIP3   OH219028   1.309   3.969   1.675  0.1366  0.1357 -0.2532
 6355TIP3    H119029   1.300   3.963   1.580  2.9048  0.9468 -0.6299
 6355TIP3    H219030   1.291   3.880   1.706  0.4598 -0.4385 -1.6580
 6356TIP3   OH219031   4.480   1.639   0.297 -0.6592 -0.8316  0.3615
 6356TIP3    H119032   4.474   1.592   0.381 -0.3230 -0.2332  0.7318
 6356TIP3    H219033   4.390   1.659   0.274 -0.6877  0.5793  1.5149
 6357TIP3   OH219034   1.709   2.833   5.555  0.2177 -0.9117 -0.1746
 6357TIP3    H119035   1.631   2.843   5.500  0.1876 -0.7610 -0.1053
 6357TIP3    H219036   1.773   2.893   5.517 -0.8808  1.8342  1.9312
 6358TIP3   OH219037   1.428   2.281   1.303 -0.3126 -0.2705 -0.1806
 6358TIP3    H119038   1.505   2.255   1.353 -1.7256 -2.6912  0.9855
 6358TIP3    H219039   1.387   2.349   1.356  0.2667  0.0007 -0.0749
 6359TIP3   OH219040   5.926   3.573   0.615  0.2647  0.0203 -0.0137
 6359TIP3    H119041   5.921   3.589   0.521 -0.3035  0.0650  0.0235
 6359TIP3    H219042   5.961   3.654   0.652  1.1243 -0.2304 -0.2528
 6360TIP3   OH219043   2.472   6.437   4.839 -0.1512  0.3466  0.2035
 6360TIP3    H119044   2.500   6.528   4.847  0.3741  0.3154 -1.0573
 6360TIP3    H219045   2.502   6.410   4.752 -1.1448 -0.7343  0.1694
 6361TIP3   OH219046   5.051   5.795   2.335  0.0841 -0.7305  0.4582
 6361TIP3    H119047   5.055   5.856   2.262  0.2624  0.0612  1.1131
 6361TIP3    H219048   5.033   5.850   2.412 -0.4413 -1.5775  0.9666
 6362TIP3   OH219049   6.180   1.561   5.196  0.4502 -0.3026  0.2354
 6362TIP3    H119050   6.265   1.588   5.161 -0.0318 -1.6228 -2.1478
 6362TIP3    H219051   6.164   1.622   5.268  2.4890  1.2594 -0.5286
 6363TIP3   OH219052   1.522   3.586   0.273 -0.3266 -0.1700  0.3639
 6363TIP3    H119053   1.505   3.566   0.181  2.1854 -0.3375 -0.1206
 6363TIP3    H219054   1.504   3.680   0.280 -1.4027 -0.3249 -0.0431
 6364TIP3   OH219055   0.655   5.676   0.998  0.1394 -0.0151  0.5423
 6364TIP3    H119056   0.578   5.619   1.006 -0.8915  1.2722  0.2255
 6364TIP3    H219057   0.620   5.765   1.010  0.7928  1.0000 -3.6811
 6365TIP3   OH219058   2.743   6.618   1.798 -0.1955  0.1605  0.2464
 6365TIP3    H119059   2.754   6.684   1.867  0.7727  0.0018  0.2501
 6365TIP3    H219060   2.801   6.647   1.728  0.0823 -0.5849  0.1661
 6366TIP3   OH219061   5.564   6.690   3.779  1.0067 -0.1907  0.1553
 6366TIP3    H119062   5.647   6.686   3.827  0.5318 -1.1373  0.9341
 6366TIP3    H219063   5.514   6.616   3.812 -0.1653  0.3855 -0.2855
 6367TIP3   OH219064   0.997   3.546   5.782 -0.2724 -0.1673  0.4518
 6367TIP3    H119065   1.030   3.544   5.871 -0.5238  0.5534  0.5690
 6367TIP3    H219066   1.042   3.619   5.741  0.6257 -1.1295 -0.3406
 6368TIP3   OH219067   1.732   2.082   1.144 -0.4123 -0.1785  0.1119
 6368TIP3    H119068   1.808   2.087   1.201 -0.9337  0.3887  0.7780
 6368TIP3    H219069   1.668   2.031   1.194 -1.2005  1.0822  0.4458
 6369TIP3   OH219070   2.712   4.985   4.260 -0.2174 -0.0446 -0.2988
 6369TIP3    H119071   2.796   5.004   4.217  0.4350  1.2553  1.4324
 6369TIP3    H219072   2.729   4.908   4.313 -0.0892  0.2331  0.0706
 6370TIP3   OH219073   1.337   5.484   0.607  0.5625 -0.1295 -0.4180
 6370TIP3    H119074   1.315   5.470   0.515  1.1508  0.8293 -0.7196
 6370TIP3    H219075   1.398   5.558   0.606 -0.4103  0.7426  0.8418
 6371TIP3   OH219076   0.609   0.651   5.853  0.1289  0.3681 -0.0900
 6371TIP3    H119077   0.555   0.721   5.816 -1.5031 -0.4824  0.5767
 6371TIP3    H219078   0.692   0.694   5.873 -0.4157  1.8368 -0.7723
 6372TIP3   OH219079   5.835   5.603   4.973  0.0092 -0.2687  0.1251
 6372TIP3    H119080   5.823   5.673   5.037 -0.1201 -1.6189  1.6790
 6372TIP3    H219081   5.753   5.602   4.924 -0.2534  0.2501  0.5370
 6373TIP3   OH219082   6.674   1.577   2.765  0.0783 -0.0029 -0.2970
 6373TIP3    H119083   6.640   1.583   2.675 -1.7800  1.3505  0.4387
 6373TIP3    H219084   6.739   1.506   2.761  1.3840  1.2023 -3.0877
 6374TIP3   OH219085   3.882   0.680   1.464 -0.3731  0.4494 -0.0405
 6374TIP3    H119086   3.811   0.616   1.461  0.7211 -0.7975 -0.1241
 6374TIP3    H219087   3.955   0.637   1.420  1.2270  0.6485  2.2478
 6375TIP3   OH219088   5.955   4.695   1.069 -0.3116 -0.2447  0.2091
 6375TIP3    H119089   6.031   4.644   1.040 -0.2804  0.5083 -1.1651
 6375TIP3    H219090   5.986   4.742   1.147  0.1838 -1.0269  0.4903
 6376TIP3   OH219091   4.805   5.130   4.405 -0.7109  0.4632  0.7369
 6376TIP3    H119092   4.768   5.086   4.482 -0.3306  0.9438  1.1954
 6376TIP3    H219093   4.746   5.106   4.333 -0.1938 -1.2820  0.8509
 6377TIP3   OH219094   6.498   5.582   4.382 -0.0780  0.1354 -0.2637
 6377TIP3    H119095   6.432   5.520   4.352 -1.7446  2.2958 -1.3696
 6377TIP3    H219096   6.560   5.588   4.309  0.5617 -0.8216  0.1886
 6378TIP3   OH219097   4.083   5.534   2.727 -0.3603  0.0914  0.2163
 6378TIP3    H119098   4.165   5.485   2.724 -0.7699 -0.6362  0.5951
 6378TIP3    H219099   4.023   5.477   2.775 -1.0538  0.6677  0.0485
 6379TIP3   OH219100   5.713   3.407   2.921 -0.0536  0.0277  0.1439
 6379TIP3    H119101   5.799   3.417   2.880  0.5698  1.2068  1.6699
 6379TIP3    H219102   5.730   3.413   3.015 -1.5939 -1.4338  0.5712
 6380TIP3   OH219103   2.049   5.055   4.407 -0.1486  0.1767 -0.7614
 6380TIP3    H119104   2.126   5.106   4.384  1.0570 -1.4701 -0.5505
 6380TIP3    H219105   2.004   5.107   4.474  1.2711  0.7549 -0.2372
 6381TIP3   OH219106   3.684   0.086   2.661 -0.4993  0.7031  0.7097
 6381TIP3    H119107   3.684   0.028   2.738 -0.5631 -0.2040  0.0406
 6381TIP3    H219108   3.774   0.120   2.657 -0.0752 -0.3994  0.3522
 6382TIP3   OH219109   2.385   1.217   1.605 -0.0743 -0.1350  0.0276
 6382TIP3    H119110   2.375   1.196   1.698 -1.0478  0.0260 -0.0266
 6382TIP3    H219111   2.299   1.199   1.568  0.7492 -1.8748 -1.1851
 6383TIP3   OH219112   1.005   5.043   5.744  0.3099  0.0829 -0.0883
 6383TIP3    H119113   0.982   4.975   5.681 -0.9611 -0.2664  0.7115
 6383TIP3    H219114   0.986   5.126   5.699  0.0049 -0.1464 -0.3795
 6384TIP3   OH219115   6.362   0.021   4.954  0.8228 -0.0021 -0.2536
 6384TIP3    H119116   6.412   0.068   4.887 -0.9461  1.1005 -0.8790
 6384TIP3    H219117   6.333   0.090   5.015 -1.6098 -0.2413 -1.0482
 6385TIP3   OH219118   3.849   1.589   3.101 -0.2447  0.0571 -0.0071
 6385TIP3    H119119   3.806   1.644   3.036 -1.3516 -1.0767 -0.2499
 6385TIP3    H219120   3.873   1.509   3.054 -1.5413 -1.0093  1.0578
 6386TIP3   OH219121   2.093   6.468   3.622  0.7116  0.0549  0.0755
 6386TIP3    H119122   2.023   6.499   3.564 -0.5716 -0.6996  1.1533
 6386TIP3    H219123   2.153   6.420   3.565  0.7553  1.3276 -0.9917
 6387TIP3   OH219124   3.955   3.391   4.212  0.2752 -0.0270 -0.0049
 6387TIP3    H119125   3.882   3.428   4.261 -0.4086  0.1200 -1.1087
 6387TIP3    H219126   4.031   3.442   4.240 -0.1361  0.2077  0.7121
 6388TIP3   OH219127   5.843   5.104   0.721 -0.3998  0.2864  0.1697
 6388TIP3    H119128   5.792   5.023   0.717  2.3310 -1.7315  2.1311
 6388TIP3    H219129   5.896   5.103   0.642  0.7064 -0.7497  0.8731
 6389TIP3   OH219130   1.717   5.073   0.449 -0.5715 -0.7107  0.3836
 6389TIP3    H119131   1.777   5.146   0.461 -0.2656 -1.3854  4.0221
 6389TIP3    H219132   1.769   5.006   0.405  1.0845 -0.8501  2.4136
 6390TIP3   OH219133   2.374   2.940   0.924 -0.2125 -0.1955 -0.0266
 6390TIP3    H119134   2.350   2.930   0.832 -0.6233 -1.6265  0.2193
 6390TIP3    H219135   2.458   2.895   0.933  0.1842  0.5600  0.1578
 6391TIP3   OH219136   1.280   1.101   0.540  0.4980  0.1392 -0.1231
 6391TIP3    H119137   1.326   1.018   0.555 -0.3534 -0.5167 -1.0534
 6391TIP3    H219138   1.226   1.114   0.618  1.4113  0.3610  0.4878
 6392TIP3   OH219139   4.751   4.012   3.471 -0.0352  0.5580 -0.1842
 6392TIP3    H119140   4.743   3.917   3.465  0.8274  0.5634 -1.8252
 6392TIP3    H219141   4.804   4.037   3.395  1.5594  2.1309  1.3447
 6393TIP3   OH219142   2.792   5.740   4.482  0.1247  0.2424  0.3760
 6393TIP3    H119143   2.829   5.793   4.411  1.0692 -2.1978 -1.1261
 6393TIP3    H219144   2.794   5.796   4.559 -0.3226  2.8047 -1.3739
 6394TIP3   OH219145   6.748   5.496   0.875  0.2319 -0.3920  0.3178
 6394TIP3    H119146   6.822   5.494   0.936 -0.2018  1.4662  0.9883
 6394TIP3    H219147   6.763   5.575   0.823 -1.5231  0.3163  0.8152
 6395TIP3   OH219148   1.914   1.696   2.121 -0.0189 -0.5860 -0.3016
 6395TIP3    H119149   1.985   1.649   2.164  0.2046 -1.1707 -1.2795
 6395TIP3    H219150   1.879   1.754   2.189  1.1615 -0.5338  0.2938
 6396TIP3   OH219151   2.934   3.930   0.528 -0.4988  0.5362  0.4317
 6396TIP3    H119152   2.904   3.861   0.470 -2.8122  0.2833  1.7971
 6396TIP3    H219153   2.857   3.985   0.542  0.6781  2.0686  1.2053
 6397TIP3   OH219154   6.435   3.063   2.275  0.2531 -0.3341 -0.4163
 6397TIP3    H119155   6.405   2.973   2.260  0.9269 -0.3486 -1.8699
 6397TIP3    H219156   6.511   3.053   2.334 -0.7358 -0.5380  0.8686
 6398TIP3   OH219157   1.680   5.164   4.104  0.2107 -0.3717  0.4445
 6398TIP3    H119158   1.632   5.083   4.085  0.7263 -1.0809  2.0137
 6398TIP3    H219159   1.758   5.159   4.049  0.7305 -1.4374  1.2404
 6399TIP3   OH219160   1.006   5.225   2.067  0.4288  0.0988 -0.6305
 6399TIP3    H119161   0.992   5.158   2.134 -1.6308 -1.9661 -2.8803
 6399TIP3    H219162   1.099   5.243   2.070  0.5796 -0.6536  2.0341
 6400TIP3   OH219163   3.238   3.876   3.892 -0.5864 -0.0121  0.7725
 6400TIP3    H119164   3.187   3.863   3.971 -0.1789  1.0853  1.2366
 6400TIP3    H219165   3.318   3.826   3.906 -0.9234 -0.6016  0.6321
 6401TIP3   OH219166   1.026   1.543   2.079 -0.0621  0.0348  0.5012
 6401TIP3    H119167   0.967   1.576   2.147  1.3478  1.6356  1.0108
 6401TIP3    H219168   1.040   1.618   2.022  1.3126 -0.3664  0.2808
 6402TIP3   OH219169   3.215   3.007   1.284 -0.4357  0.0511  0.6115
 6402TIP3    H119170   3.129   2.987   1.247  0.9369 -2.5693 -1.4635
 6402TIP3    H219171   3.208   3.099   1.311 -3.3663  0.4318 -0.9819
 6403TIP3   OH219172   0.626   3.668   1.974 -0.5554 -0.1069 -0.3386
 6403TIP3    H119173   0.699   3.708   2.021  0.8854 -1.6571 -1.1519
 6403TIP3    H219174   0.629   3.576   2.000 -0.6955 -0.6809 -2.2141
 6404TIP3   OH219175   3.889   1.732   0.939  0.0969  0.7456  0.1371
 6404TIP3    H119176   3.878   1.802   1.004  0.9448 -0.6200  1.8340
 6404TIP3    H219177   3.977   1.697   0.956 -0.4262 -0.9350 -0.4414
 6405TIP3   OH219178   3.682   6.069   4.029 -0.1466 -0.5969 -0.1359
 6405TIP3    H119179   3.654   5.992   4.079  1.0780 -0.6842  0.4527
 6405TIP3    H219180   3.669   6.143   4.089  1.8096 -0.7613  0.5573
 6406TIP3   OH219181   5.231   3.018   4.863 -0.0603  0.3235  0.0708
 6406TIP3    H119182   5.170   2.961   4.911 -0.5067  0.9063  0.2093
 6406TIP3    H219183   5.174   3.078   4.815  0.3887 -0.2360 -1.1910
 6407TIP3   OH219184   0.859   3.746   0.648  0.0245 -0.0645 -0.0312
 6407TIP3    H119185   0.833   3.747   0.740  1.5521  2.6955  0.4610
 6407TIP3    H219186   0.941   3.698   0.646 -1.7131 -3.3332 -0.6494
 6408TIP3   OH219187   0.661   5.552   3.511  0.4148 -0.5505 -0.0641
 6408TIP3    H119188   0.672   5.493   3.436 -2.9967 -1.2204 -0.2003
 6408TIP3    H219189   0.683   5.498   3.587 -0.7221 -1.4131 -0.3217
 6409TIP3   OH219190   5.491   0.661   4.654  0.4674 -0.0447 -0.6603
 6409TIP3    H119191   5.549   0.607   4.707 -0.7394 -0.2192  0.5559
 6409TIP3    H219192   5.450   0.600   4.593  0.9650 -0.0531 -0.9907
 6410TIP3   OH219193   0.371   4.279   4.152 -0.6963 -0.4646  0.4156
 6410TIP3    H119194   0.443   4.252   4.096 -0.8190 -0.1341  0.1010
 6410TIP3    H219195   0.412   4.302   4.235 -0.4115 -0.0590  0.1661
 6411TIP3   OH219196   5.587   6.328   4.322  0.2318  0.0835 -0.8198
 6411TIP3    H119197   5.681   6.343   4.326  0.3094 -0.5331  1.9455
 6411TIP3    H219198   5.548   6.415   4.316  0.9631  0.6672  1.6671
 6412TIP3   OH219199   5.399   4.917   4.601  0.3888  0.3919 -0.3225
 6412TIP3    H119200   5.328   4.964   4.558 -0.1549 -0.0459  0.0843
 6412TIP3    H219201   5.380   4.824   4.587 -1.0205  0.1009  2.6033
 6413TIP3   OH219202   2.591   0.111   5.333  0.1736 -0.0383  0.5919
 6413TIP3    H119203   2.504   0.117   5.374 -0.2459 -0.1816 -0.2546
 6413TIP3    H219204   2.625   0.200   5.336 -1.6971  0.9645 -2.6475
 6414TIP3   OH219205   2.640   2.581   3.752 -0.3865  0.4324 -0.0765
 6414TIP3    H119206   2.571   2.529   3.793 -0.9642  1.1638 -0.0939
 6414TIP3    H219207   2.711   2.582   3.817 -0.0637 -0.9519 -0.3668
 6415TIP3   OH219208   6.521   3.519   2.705 -0.1932 -0.5785  0.2356
 6415TIP3    H119209   6.442   3.506   2.758 -0.9526 -1.3002 -1.0038
 6415TIP3    H219210   6.488   3.552   2.621  0.7790 -1.2952 -0.4520
 6416TIP3   OH219211   7.155   6.680   3.591  0.2864  0.5044 -0.3865
 6416TIP3    H119212   7.188   6.709   3.505 -1.3996  0.3564 -1.1107
 6416TIP3    H219213   7.219   6.715   3.653  1.3001  1.0208 -1.6542
 6417TIP3   OH219214   5.549   5.989   0.852  0.2694  0.1688  0.1795
 6417TIP3    H119215   5.569   5.908   0.804  1.0267 -0.2705  1.1975
 6417TIP3    H219216   5.455   6.002   0.840 -0.1159 -1.5699  1.0384
 6418TIP3   OH219217   2.993   6.488   3.676  0.5005  0.1741  0.1498
 6418TIP3    H119218   2.989   6.444   3.591  0.7149 -1.4043  0.9124
 6418TIP3    H219219   2.902   6.502   3.701  0.4397  1.3933 -0.6838
 6419TIP3   OH219220   5.341   2.034   4.812 -0.4426 -0.2931  0.1878
 6419TIP3    H119221   5.336   1.968   4.881 -1.1976 -2.1898 -1.5633
 6419TIP3    H219222   5.426   2.021   4.771 -0.6842 -0.3624 -0.3096
 6420TIP3   OH219223   3.627   6.460   3.540  0.0492  0.8180  0.2815
 6420TIP3    H119224   3.673   6.532   3.497  0.2560  1.2090  1.1390
 6420TIP3    H219225   3.551   6.501   3.581  0.7829  0.7474  1.7391
 6421TIP3   OH219226   4.032   6.165   1.690 -0.0160 -0.1779  0.1342
 6421TIP3    H119227   3.959   6.103   1.690 -0.6341  0.4891 -1.6557
 6421TIP3    H219228   4.047   6.185   1.598  1.1433  1.2155  0.5843
 6422TIP3   OH219229   6.523   3.560   1.170  0.0025 -0.3234  0.3527
 6422TIP3    H119230   6.593   3.625   1.164  0.2385 -0.5978  0.1061
 6422TIP3    H219231   6.496   3.545   1.080 -0.9615  0.4070  0.5059
 6423TIP3   OH219232   0.981   0.757   4.454 -0.2864 -0.3924  0.1846
 6423TIP3    H119233   1.009   0.834   4.503 -0.6372  0.0205 -0.2514
 6423TIP3    H219234   1.048   0.746   4.386 -0.0885 -0.6410  0.4177
 6424TIP3   OH219235   2.259   1.638   1.412 -0.0833 -0.3791 -0.4294
 6424TIP3    H119236   2.295   1.621   1.499 -1.5859  1.8597  0.7236
 6424TIP3    H219237   2.177   1.588   1.411 -1.2652  1.4434  0.4449
 6425TIP3   OH219238   3.402   6.346   2.500  0.3283  0.9936  0.2075
 6425TIP3    H119239   3.405   6.412   2.569  2.0866  1.1075  0.0774
 6425TIP3    H219240   3.328   6.370   2.445 -0.0360  1.9029  1.0786
 6426TIP3   OH219241   3.697   3.705   2.451 -0.5478 -0.3778  0.2032
 6426TIP3    H119242   3.646   3.783   2.433 -0.7818 -0.5320  0.1971
 6426TIP3    H219243   3.764   3.704   2.383 -0.2549  0.0682  0.4811
 6427TIP3   OH219244   1.177   2.167   5.360 -0.1135 -0.1911 -0.3272
 6427TIP3    H119245   1.224   2.215   5.291 -0.4346 -0.1132 -0.4946
 6427TIP3    H219246   1.246   2.132   5.416  0.1551 -0.3506 -0.7520
 6428TIP3   OH219247   6.787   2.857   3.652 -0.3175  0.1214 -0.4119
 6428TIP3    H119248   6.717   2.818   3.705 -0.0918 -0.4847 -0.5511
 6428TIP3    H219249   6.867   2.837   3.700 -0.2164  0.6183 -0.3695
 6429TIP3   OH219250   5.951   4.932   0.476  0.6843 -0.8435 -0.7664
 6429TIP3    H119251   5.982   4.844   0.454  1.2766 -1.1934  1.2563
 6429TIP3    H219252   5.856   4.923   0.481  0.2901 -0.3717 -4.4270
 6430TIP3   OH219253   7.090   4.476   1.810 -0.2052 -0.1840 -0.4842
 6430TIP3    H119254   7.171   4.426   1.822 -0.4672 -0.6498 -0.6419
 6430TIP3    H219255   7.065   4.459   1.719 -0.7418 -0.4230 -0.2917
 6431TIP3   OH219256   1.378   6.600   1.161 -0.1041  0.2918  0.3127
 6431TIP3    H119257   1.412   6.510   1.153 -0.1757  0.2500  0.4724
 6431TIP3    H219258   1.434   6.640   1.228 -1.4427 -0.3050  1.8673
 6432TIP3   OH219259   3.277   2.566   3.031  0.4966  0.0079  0.0889
 6432TIP3    H119260   3.195   2.609   3.005  1.6544  1.6989 -0.9266
 6432TIP3    H219261   3.280   2.578   3.126 -0.2853  0.1986  0.1000
 6433TIP3   OH219262   0.956   5.709   3.728 -0.0889 -0.8363 -0.3904
 6433TIP3    H119263   1.036   5.760   3.744  0.0999 -0.5200 -2.1658
 6433TIP3    H219264   0.944   5.712   3.633 -1.2234 -2.4023 -0.3349
 6434TIP3   OH219265   5.599   1.826   4.943 -0.4852 -0.2229 -0.1898
 6434TIP3    H119266   5.692   1.803   4.935 -0.1768 -0.2885  2.7223
 6434TIP3    H219267   5.554   1.761   4.889  0.9756 -2.1540  0.7904
 6435TIP3   OH219268   2.023   4.313   5.111 -0.3518  0.2038  0.2555
 6435TIP3    H119269   1.982   4.391   5.074  1.4407  1.0837  0.0045
 6435TIP3    H219270   1.961   4.242   5.093 -2.2857  1.6364  1.0042
 6436TIP3   OH219271   4.337   5.147   5.603  0.1024  0.1670  0.0922
 6436TIP3    H119272   4.270   5.205   5.565  0.3319 -0.6515 -1.6518
 6436TIP3    H219273   4.291   5.100   5.673 -1.0252 -0.0266 -0.7500
 6437TIP3   OH219274   6.971   3.832   1.364 -0.5096  0.9425  0.4432
 6437TIP3    H119275   7.057   3.848   1.325 -0.3658  3.4815  1.6159
 6437TIP3    H219276   6.988   3.770   1.435  0.2521  0.9997  0.3221
 6438TIP3   OH219277   2.440   4.536   0.389  0.3244  0.2460  0.4105
 6438TIP3    H119278   2.385   4.597   0.438 -1.1945 -1.0091  0.3479
 6438TIP3    H219279   2.526   4.544   0.430 -0.1087  1.5813  1.1449
 6439TIP3   OH219280   4.898   0.960   4.967  0.4829  0.1946 -0.0224
 6439TIP3    H119281   4.971   1.020   4.985  0.6368 -0.2751  0.9610
 6439TIP3    H219282   4.923   0.878   5.010  0.3832 -0.6716 -1.5505
 6440TIP3   OH219283   5.105   6.157   0.907 -0.1445 -0.5992  0.1910
 6440TIP3    H119284   5.168   6.149   0.979 -0.4208 -0.9579  0.3933
 6440TIP3    H219285   5.041   6.221   0.938  0.5629  0.4188 -0.3464
 6441TIP3   OH219286   6.130   5.487   4.370  0.4713  0.2722  0.2044
 6441TIP3    H119287   6.121   5.509   4.462  0.2814 -2.1097  0.8297
 6441TIP3    H219288   6.040   5.481   4.337  0.4975 -0.1191  0.1998
 6442TIP3   OH219289   6.846   2.150   1.108  0.1491  0.0528 -0.2640
 6442TIP3    H119290   6.932   2.189   1.119  0.0690  0.0505  0.4038
 6442TIP3    H219291   6.843   2.079   1.172 -0.1036 -0.3746 -0.7409
 6443TIP3   OH219292   3.165   2.088   3.535  0.0537 -0.1713 -0.1100
 6443TIP3    H119293   3.252   2.088   3.575  1.0072  0.3822 -2.0157
 6443TIP3    H219294   3.155   2.177   3.501 -0.6538 -0.6058 -1.0933
 6444TIP3   OH219295   5.758   5.315   0.913 -0.1627 -0.0388 -0.2023
 6444TIP3    H119296   5.769   5.220   0.917 -0.8028 -0.2467 -2.3151
 6444TIP3    H219297   5.682   5.332   0.968 -0.1713 -0.7755  0.0277
 6445TIP3   OH219298   4.309   6.038   5.801  0.2559 -0.2620  0.1448
 6445TIP3    H119299   4.390   6.065   5.843  0.1706 -1.3906  1.0857
 6445TIP3    H219300   4.336   5.986   5.726  0.4556 -2.0547  1.3963
 6446TIP3   OH219301   3.930   1.248   5.489 -0.4582  0.6994 -0.0391
 6446TIP3    H119302   4.008   1.293   5.522 -1.8630  1.4557  2.5925
 6446TIP3    H219303   3.964   1.179   5.433  2.1238  0.8498  1.1911
 6447TIP3   OH219304   1.233   2.696   2.456  0.7626  0.2994  0.5166
 6447TIP3    H119305   1.253   2.786   2.431 -1.9399  0.0387 -3.4278
 6447TIP3    H219306   1.283   2.642   2.395  0.8316 -0.8508  1.5348
 6448TIP3   OH219307   2.079   1.652   1.677  0.2632  0.4574 -0.0581
 6448TIP3    H119308   2.056   1.613   1.761  3.0624 -0.4727  0.3929
 6448TIP3    H219309   2.048   1.743   1.684 -2.4895 -0.4400  0.5869
 6449TIP3   OH219310   3.766   0.318   1.078  0.3076  0.2556 -0.2293
 6449TIP3    H119311   3.793   0.304   1.168 -0.7255 -0.6277 -0.0340
 6449TIP3    H219312   3.671   0.329   1.082 -0.0289 -1.6550 -1.3488
 6450TIP3   OH219313   4.277   4.335   5.786  0.3072  0.0172  0.0621
 6450TIP3    H119314   4.372   4.331   5.786  0.4600  0.7281 -3.6745
 6450TIP3    H219315   4.256   4.405   5.848  2.1862  0.1452  0.6140
 6451TIP3   OH219316   0.097   6.378   0.071  0.3653  0.2817 -0.0298
 6451TIP3    H119317   0.187   6.358   0.044  0.8146  0.5862  1.1535
 6451TIP3    H219318   0.055   6.293   0.078  1.2703 -0.0811  1.6535
 6452TIP3   OH219319   1.498   6.034   3.316 -0.0623 -0.4867 -0.2304
 6452TIP3    H119320   1.536   5.956   3.358  0.3874  0.4554  1.1962
 6452TIP3    H219321   1.574   6.085   3.287 -0.3684 -1.2075 -2.4531
 6453TIP3   OH219322   4.012   5.945   4.354 -0.0961 -0.4358  0.2611
 6453TIP3    H119323   3.980   6.031   4.326 -1.3394 -0.9307  0.0800
 6453TIP3    H219324   4.100   5.961   4.386 -0.4058  0.9484  0.4680
 6454TIP3   OH219325   4.218   5.185   1.104  0.1320 -0.6485  0.1854
 6454TIP3    H119326   4.225   5.172   1.010 -1.3543 -0.6351  0.0613
 6454TIP3    H219327   4.265   5.268   1.120 -2.3834  1.1423 -1.0597
 6455TIP3   OH219328   6.630   5.084   2.647  0.3358 -0.5267 -0.5991
 6455TIP3    H119329   6.545   5.059   2.684 -0.5653  0.6481 -1.7861
 6455TIP3    H219330   6.662   5.004   2.605  0.8421 -1.5679  1.6071
 6456TIP3   OH219331   4.125   0.729   0.236  0.4044 -0.2652  0.2315
 6456TIP3    H119332   4.141   0.783   0.313  2.7027 -2.7833  1.6851
 6456TIP3    H219333   4.060   0.665   0.265 -0.6161  0.2840 -0.7646
 6457TIP3   OH219334   0.357   4.193   0.571 -0.3405 -0.4357 -0.1538
 6457TIP3    H119335   0.385   4.235   0.490 -0.8327  1.2523  0.5185
 6457TIP3    H219336   0.282   4.139   0.545 -0.3263 -0.1286 -0.8618
 6458TIP3   OH219337   1.943   6.141   2.475 -0.5446 -0.3426  0.3104
 6458TIP3    H119338   2.017   6.092   2.439  0.1549  1.1912 -0.4503
 6458TIP3    H219339   1.981   6.226   2.500 -1.8098  0.0220  1.0784
 6459TIP3   OH219340   4.977   3.864   0.912  0.2154  0.3032 -0.1267
 6459TIP3    H119341   4.885   3.847   0.934  0.1474  0.3607 -0.3662
 6459TIP3    H219342   5.026   3.810   0.974 -0.0074 -1.5750 -1.5236
 6460TIP3   OH219343   0.110   3.915   4.228  0.4488  0.6180 -0.3872
 6460TIP3    H119344   0.101   3.862   4.308 -0.1677  1.5490  0.1755
 6460TIP3    H219345   0.084   3.855   4.157 -0.3371  0.1782  0.2443
 6461TIP3   OH219346   0.229   3.743   3.076 -0.2405 -0.6004  0.2206
 6461TIP3    H119347   0.226   3.752   3.172 -1.7699 -1.6465  0.3150
 6461TIP3    H219348   0.173   3.813   3.043  1.3137  0.5744 -0.0148
 6462TIP3   OH219349   4.991   0.012   0.284 -0.1179  0.6574  0.1361
 6462TIP3    H119350   4.931   0.067   0.335  0.7619  1.5096  0.2760
 6462TIP3    H219351   4.936  -0.060   0.252 -0.9749  0.8276  1.1668
 6463TIP3   OH219352   3.243   4.723   4.759 -0.5376 -0.4995 -0.4725
 6463TIP3    H119353   3.181   4.741   4.689 -0.6855 -1.1856 -0.5185
 6463TIP3    H219354   3.282   4.639   4.737  0.7691  0.1420 -0.6915
 6464TIP3   OH219355   2.674   5.961   2.412 -0.4357 -0.4969 -0.0543
 6464TIP3    H119356   2.718   5.880   2.439  0.6268  0.6099  1.7522
 6464TIP3    H219357   2.710   5.979   2.325  2.3687  0.0495  1.1156
 6465TIP3   OH219358   3.420   4.121   3.638 -0.0151  0.4982 -0.1600
 6465TIP3    H119359   3.407   4.138   3.545 -0.4833  1.0510 -0.0038
 6465TIP3    H219360   3.381   4.035   3.653  0.6875  0.0922 -0.6052
 6466TIP3   OH219361   5.327   3.305   3.960 -0.2524 -0.2172  0.5122
 6466TIP3    H119362   5.330   3.219   4.002 -1.6732 -0.3369  0.4221
 6466TIP3    H219363   5.394   3.356   4.005  1.0987 -1.5523  0.1099
 6467TIP3   OH219364   0.715   3.359   2.544  0.1567 -0.0111  0.3043
 6467TIP3    H119365   0.645   3.383   2.484  1.5618  1.4256 -0.8604
 6467TIP3    H219366   0.772   3.436   2.547  1.4751 -0.9667  1.5279
 6468TIP3   OH219367   2.314   6.509   1.126 -0.4300 -0.9078  0.5182
 6468TIP3    H119368   2.264   6.580   1.086  0.1872 -0.4929  0.4635
 6468TIP3    H219369   2.302   6.434   1.068 -0.9490 -0.7988  0.4871
 6469TIP3   OH219370   0.143   1.140   0.005 -0.1394 -0.0688 -0.3711
 6469TIP3    H119371   0.087   1.083   0.059 -0.3644  1.4010  1.0049
 6469TIP3    H219372   0.225   1.146   0.054 -0.0127  0.5497 -0.6549
 6470TIP3   OH219373   0.031   6.099   2.176  0.6116  0.6710  0.0698
 6470TIP3    H119374   0.084   6.022   2.154  0.7834  0.7778  0.1044
 6470TIP3    H219375  -0.054   6.082   2.136  0.6855  0.5161 -0.0231
 6471TIP3   OH219376   1.197   5.591   2.317 -0.0558  0.0853 -0.0149
 6471TIP3    H119377   1.107   5.618   2.299 -0.8712 -1.1275  1.9555
 6471TIP3    H219378   1.189   5.518   2.377  2.2499 -0.6609 -0.4970
 6472TIP3   OH219379   6.775   3.788   1.968 -0.4117  0.0465 -0.2208
 6472TIP3    H119380   6.715   3.718   1.996  0.6834 -0.2803  1.4481
 6472TIP3    H219381   6.832   3.746   1.903 -0.1702 -0.4332  0.2988
 6473TIP3   OH219382   6.937   6.007   3.362 -0.7333 -0.3998  0.4085
 6473TIP3    H119383   6.855   6.049   3.389 -0.8410 -0.0931 -0.3569
 6473TIP3    H219384   6.971   6.065   3.294  0.5196 -0.1045  1.2527
 6474TIP3   OH219385   1.909   5.101   2.840  0.0217 -0.1531 -0.3975
 6474TIP3    H119386   1.971   5.032   2.816  0.7902  0.1189  0.6998
 6474TIP3    H219387   1.866   5.067   2.919 -1.4096 -0.4229 -1.2527
 6475TIP3   OH219388   6.879   3.660   0.571 -0.3060 -0.5556  0.0541
 6475TIP3    H119389   6.972   3.667   0.591  0.1764 -1.5214 -1.7019
 6475TIP3    H219390   6.836   3.666   0.657  1.3913 -0.7512  0.9677
 6476TIP3   OH219391   3.846   3.812   4.318  0.0636  0.0228 -0.4581
 6476TIP3    H119392   3.819   3.898   4.351  0.6321 -0.1011  0.3449
 6476TIP3    H219393   3.805   3.806   4.232 -0.7104  0.7337 -0.1597
 6477TIP3   OH219394   3.453   1.693   1.911  0.0302 -0.3298 -0.0922
 6477TIP3    H119395   3.541   1.725   1.891 -0.1704 -0.8743 -2.0035
 6477TIP3    H219396   3.448   1.607   1.868 -1.2644 -0.5446  0.4295
 6478TIP3   OH219397   3.423   1.033   5.103 -0.0315  0.4396 -0.2326
 6478TIP3    H119398   3.369   0.978   5.160  0.5686 -0.8140 -0.8372
 6478TIP3    H219399   3.407   1.122   5.134  0.3023 -0.1980  1.9242
 6479TIP3   OH219400   0.366   2.569   0.901  0.2510  0.0452 -0.6945
 6479TIP3    H119401   0.326   2.655   0.911 -0.5739 -0.5486  1.6921
 6479TIP3    H219402   0.446   2.573   0.953 -0.8650 -1.2263  1.2046
 6480TIP3   OH219403   2.854   5.110   2.680  0.3421  0.0714 -0.1183
 6480TIP3    H119404   2.913   5.099   2.755  1.1962 -0.5574 -0.8599
 6480TIP3    H219405   2.902   5.168   2.620 -0.2932  0.4964 -0.2253
 6481TIP3   OH219406   3.400   4.479   0.422  0.2642  0.2615 -0.6687
 6481TIP3    H119407   3.383   4.475   0.328 -1.0096 -1.5318 -0.4153
 6481TIP3    H219408   3.388   4.389   0.452 -0.8956  1.0584  1.4662
 6482TIP3   OH219409   4.582   4.854   3.238 -0.3703  0.1107  0.2409
 6482TIP3    H119410   4.539   4.892   3.315 -1.4045  0.1062 -0.3213
 6482TIP3    H219411   4.528   4.779   3.215  0.5058 -0.4850  0.1095
 6483TIP3   OH219412   4.537   4.517   0.645  0.3175 -0.6637  0.2615
 6483TIP3    H119413   4.608   4.471   0.601 -0.9429 -0.4218 -2.2147
 6483TIP3    H219414   4.545   4.608   0.615 -0.7846 -0.5581  0.2188
 6484TIP3   OH219415   3.889   2.149   0.098 -0.6174 -0.4055 -0.4204
 6484TIP3    H119416   3.937   2.231   0.094  1.5107 -1.6190 -1.5201
 6484TIP3    H219417   3.893   2.114   0.009 -1.7327 -1.5727 -0.0459
 6485TIP3   OH219418   6.230   2.512   2.971 -0.1520 -0.1184 -0.2514
 6485TIP3    H119419   6.189   2.464   3.043  0.2786 -0.8335 -0.4735
 6485TIP3    H219420   6.280   2.581   3.014 -0.5369 -0.0478  0.0920
 6486TIP3   OH219421   5.762   3.176   5.707  0.7224 -0.0706  0.1469
 6486TIP3    H119422   5.707   3.158   5.784  0.3604  1.0484  0.1625
 6486TIP3    H219423   5.809   3.256   5.728  0.2948  0.4984 -0.9629
 6487TIP3   OH219424   4.656   3.936   5.401 -0.1973  0.3008 -0.1813
 6487TIP3    H119425   4.734   3.888   5.429 -0.2902  0.7533  0.9374
 6487TIP3    H219426   4.684   3.985   5.324  0.8317  0.9631  0.5840
 6488TIP3   OH219427   6.047   3.617   0.001 -0.2202 -0.0943  0.7743
 6488TIP3    H119428   5.966   3.575  -0.026  1.2846 -1.7137 -1.6209
 6488TIP3    H219429   6.083   3.558   0.067  0.0803 -0.6057  0.1635
 6489TIP3   OH219430   6.237   1.733   2.431  0.0202 -0.5178 -0.2274
 6489TIP3    H119431   6.240   1.649   2.386  1.1776 -0.0747 -1.0543
 6489TIP3    H219432   6.312   1.731   2.490 -0.8836 -0.6783  0.9470
 6490TIP3   OH219433   6.861   6.654   5.052  0.4516  0.4564  0.3941
 6490TIP3    H119434   6.852   6.564   5.083 -1.2548  0.3623 -0.2562
 6490TIP3    H219435   6.789   6.701   5.094  0.9361  1.3747  0.2151
 6491TIP3   OH219436   1.832   0.146   2.248 -0.0641 -0.1878  0.1020
 6491TIP3    H119437   1.803   0.211   2.312 -1.4308 -0.9113  0.2447
 6491TIP3    H219438   1.772   0.154   2.175  0.1627 -0.8310 -0.1692
 6492TIP3   OH219439   2.090   6.267   1.384 -0.3708  0.4025  0.2159
 6492TIP3    H119440   2.035   6.198   1.421 -0.7010 -0.6430 -2.0645
 6492TIP3    H219441   2.121   6.316   1.460  0.2863 -2.5515  2.0229
 6493TIP3   OH219442   0.325   3.611   4.133 -0.0022  0.3198 -0.0788
 6493TIP3    H119443   0.230   3.613   4.135  0.0016  0.4591 -0.0308
 6493TIP3    H219444   0.350   3.571   4.216 -0.0365 -0.3543 -0.3866
 6494TIP3   OH219445   4.747   5.945   1.731 -0.1650  0.0294 -0.0295
 6494TIP3    H119446   4.808   5.872   1.723 -1.2589 -1.1721  2.0759
 6494TIP3    H219447   4.798   6.021   1.700  2.4413 -0.9016  1.6401
 6495TIP3   OH219448   6.821   6.458   2.776  0.0620  0.1400 -0.1798
 6495TIP3    H119449   6.769   6.518   2.829  1.8112  1.0418  0.6207
 6495TIP3    H219450   6.870   6.516   2.717  2.3725 -0.3389  1.1288
 6496TIP3   OH219451   0.859  -0.007   4.481  0.1648  0.3990  0.1170
 6496TIP3    H119452   0.876   0.079   4.519 -2.1295  0.2705  1.6312
 6496TIP3    H219453   0.933  -0.023   4.422  0.7836  3.2513  0.0133
 6497TIP3   OH219454   0.034   1.205   5.251 -0.0608 -0.1997  0.1684
 6497TIP3    H119455  -0.045   1.172   5.208 -0.7195  1.7483 -0.1935
 6497TIP3    H219456   0.023   1.300   5.251  1.3759  0.0007  1.8870
 6498TIP3   OH219457   5.964   6.406   3.907 -0.4722  0.2185 -0.3447
 6498TIP3    H119458   5.872   6.422   3.885  0.1704  2.6957 -1.6553
 6498TIP3    H219459   5.968   6.416   4.002 -1.3877  1.3310 -0.3938
 6499TIP3   OH219460   0.093   5.862   1.095  0.1670 -0.0710 -0.1592
 6499TIP3    H119461   0.159   5.812   1.144 -0.5880  1.1599  2.2554
 6499TIP3    H219462   0.102   5.952   1.126 -0.8947  0.6516 -1.7788
 6500TIP3   OH219463   0.408   2.462   2.482 -0.1271 -0.4300  0.0188
 6500TIP3    H119464   0.409   2.518   2.404 -0.6199 -0.2136  0.1667
 6500TIP3    H219465   0.486   2.489   2.531 -0.0462 -0.2760 -0.1912
 6501TIP3   OH219466   1.398   4.054   3.709 -0.0222  0.1342 -0.5049
 6501TIP3    H119467   1.356   4.001   3.777 -0.0989  0.3373 -0.3938
 6501TIP3    H219468   1.400   3.997   3.632 -1.1856  0.3787 -0.7378
 6502TIP3   OH219469   0.107   3.490   0.494 -0.5692  0.0164  0.1571
 6502TIP3    H119470   0.183   3.455   0.447  0.6827  0.8663  1.4441
 6502TIP3    H219471   0.104   3.438   0.575 -0.3737  1.0248  0.8293
 6503TIP3   OH219472   5.737   3.303   2.390 -0.0221  0.0893 -0.3393
 6503TIP3    H119473   5.787   3.278   2.312  0.4476 -2.3761  0.6499
 6503TIP3    H219474   5.699   3.221   2.421 -2.1624  1.3929  0.7209
 6504TIP3   OH219475   5.287   0.713   5.712  0.1358  0.0090  0.3317
 6504TIP3    H119476   5.329   0.794   5.740  0.4538 -0.4630  1.2555
 6504TIP3    H219477   5.323   0.646   5.769  0.1623 -0.8594 -0.6718
 6505TIP3   OH219478   3.915   0.205   0.825 -0.4548 -0.3854 -0.1462
 6505TIP3    H119479   3.886   0.227   0.914  2.0233  1.5051  0.3068
 6505TIP3    H219480   3.964   0.124   0.836 -0.5770 -0.4240  0.1296
 6506TIP3   OH219481   2.049   3.567   2.057  0.5105  0.0760  0.1029
 6506TIP3    H119482   2.115   3.576   2.125 -0.0171  2.3291  0.3989
 6506TIP3    H219483   2.085   3.613   1.982 -0.6708  1.3640  0.2791
 6507TIP3   OH219484   5.531   3.543   0.771 -0.4366 -0.3362 -0.3884
 6507TIP3    H119485   5.604   3.482   0.759  2.1925  2.8265 -2.4585
 6507TIP3    H219486   5.523   3.587   0.686 -2.8415  1.4750  0.6639
 6508TIP3   OH219487   0.342   5.086   4.100 -0.6391 -0.8435 -0.2545
 6508TIP3    H119488   0.335   5.097   4.195  0.3727 -0.6394 -0.1961
 6508TIP3    H219489   0.266   5.132   4.065 -0.0830  0.6253  0.3702
 6509TIP3   OH219490   7.178   5.692   4.432 -0.7899 -0.7774  0.2236
 6509TIP3    H119491   7.145   5.697   4.342  0.3415 -0.7232 -0.2120
 6509TIP3    H219492   7.106   5.722   4.487 -1.1022  0.3339 -0.7620
 6510TIP3   OH219493   5.625   2.078   4.682 -0.3726 -0.3033  0.2468
 6510TIP3    H119494   5.606   2.002   4.627  0.4606 -0.2520 -0.1323
 6510TIP3    H219495   5.708   2.056   4.725 -0.2164  0.3093  0.2683
 6511TIP3   OH219496   6.573   1.590   1.517  0.6263  0.4425  0.3119
 6511TIP3    H119497   6.562   1.685   1.523  0.8841  0.5720 -0.8991
 6511TIP3    H219498   6.634   1.568   1.587  0.5280  1.1640  0.6315
 6512TIP3   OH219499   6.114   6.093   2.406  0.1191 -0.1010 -0.2543
 6512TIP3    H119500   6.201   6.074   2.440  0.5135 -1.8872 -2.0478
 6512TIP3    H219501   6.056   6.088   2.482  1.3361 -0.8365  0.6511
 6513TIP3   OH219502   1.493   5.591   0.941  0.2273  0.4897  0.2285
 6513TIP3    H119503   1.496   5.499   0.912 -1.3024  0.2858  0.6165
 6513TIP3    H219504   1.448   5.587   1.026 -0.5075  1.6609 -0.0875
 6514TIP3   OH219505   6.476   5.449   0.895  0.0324 -0.2782  0.0759
 6514TIP3    H119506   6.433   5.515   0.840  0.0035 -0.3926 -0.0412
 6514TIP3    H219507   6.566   5.480   0.903 -0.5171  1.0186  1.9717
 6515TIP3   OH219508   7.011   3.699   5.155 -0.0521  0.2469  0.2723
 6515TIP3    H119509   6.968   3.740   5.231  0.4300  1.9788 -0.3492
 6515TIP3    H219510   6.948   3.709   5.084  0.2724  0.3287 -0.0023
 6516TIP3   OH219511   5.069   0.132   3.462  0.2148  0.0293 -0.3596
 6516TIP3    H119512   5.150   0.184   3.457  1.3657 -1.3687  1.9463
 6516TIP3    H219513   5.042   0.140   3.553 -1.9841 -0.0231 -0.9560
 6517TIP3   OH219514   6.395   5.348   1.468  0.1439 -0.1377  0.2739
 6517TIP3    H119515   6.431   5.259   1.458  1.7220  0.4697  0.3529
 6517TIP3    H219516   6.461   5.395   1.518 -0.6990  1.0835  0.2668
 6518TIP3   OH219517   2.279   1.668   3.290 -0.4165 -0.0946  0.1931
 6518TIP3    H119518   2.330   1.594   3.323  1.7229  1.0532 -0.3485
 6518TIP3    H219519   2.237   1.705   3.367  2.6377  1.1594  1.4426
 6519TIP3   OH219520   0.474   1.808   1.032  0.3273 -0.0621 -0.2114
 6519TIP3    H119521   0.475   1.904   1.027 -0.5769  0.1185  2.1910
 6519TIP3    H219522   0.527   1.787   1.109  1.9835 -1.6454 -1.6780
 6520TIP3   OH219523   1.739   2.119   5.418 -0.0436  0.0126  0.5932
 6520TIP3    H119524   1.698   2.033   5.408  0.4218 -0.0437 -1.2580
 6520TIP3    H219525   1.747   2.131   5.513 -0.3346 -1.8667  0.8984
 6521TIP3   OH219526   0.657   3.172   4.040  0.2690  0.2024  0.3093
 6521TIP3    H119527   0.614   3.154   4.124 -0.6329 -1.0400 -0.3952
 6521TIP3    H219528   0.750   3.175   4.062 -0.0493  1.7716  1.6530
 6522TIP3   OH219529   6.913   6.529   2.177 -0.1423  0.1162 -0.3600
 6522TIP3    H119530   6.832   6.538   2.126 -0.4390 -0.3251  0.0266
 6522TIP3    H219531   6.953   6.450   2.143 -0.0401  0.1512 -0.3205
 6523TIP3   OH219532   6.716   6.392   3.218  0.1468 -0.1254 -0.2247
 6523TIP3    H119533   6.631   6.347   3.218  0.0080  0.1094 -1.3747
 6523TIP3    H219534   6.694   6.485   3.227  0.3582 -0.1487  0.6503
 6524TIP3   OH219535   5.207   5.298   0.645  0.9556  0.0002  0.5959
 6524TIP3    H119536   5.180   5.335   0.561  2.4054 -0.1545  0.0408
 6524TIP3    H219537   5.129   5.250   0.675  0.5828 -0.4246 -0.9338
 6525TIP3   OH219538   1.145   6.543   0.626 -0.4545 -0.1991  0.9121
 6525TIP3    H119539   1.205   6.613   0.651 -0.6601  0.2470  0.1696
 6525TIP3    H219540   1.121   6.501   0.709 -0.0512  0.3746  1.3227
 6526TIP3   OH219541   1.475   3.220   1.730  0.3451 -0.2887 -0.1483
 6526TIP3    H119542   1.555   3.203   1.779  1.2064 -0.0872 -1.4314
 6526TIP3    H219543   1.417   3.264   1.792  1.1592 -0.5977  0.8476
 6527TIP3   OH219544   7.173   3.207   5.291 -0.2232  0.1581 -0.8282
 6527TIP3    H119545   7.149   3.215   5.198  0.7714  4.0445 -0.9465
 6527TIP3    H219546   7.250   3.150   5.291  0.0139  0.4124 -2.4912
 6528TIP3   OH219547   3.788   5.827   3.851 -0.3439 -0.7906 -0.0569
 6528TIP3    H119548   3.865   5.772   3.839  0.3225  0.3948 -1.4177
 6528TIP3    H219549   3.821   5.906   3.895 -0.5136  0.2368 -1.6865
 6529TIP3   OH219550   6.777   4.419   1.938  0.7405  0.0774 -0.1484
 6529TIP3    H119551   6.705   4.472   1.905  0.0674 -1.2330 -0.8692
 6529TIP3    H219552   6.741   4.330   1.945  2.1915 -0.5596 -0.2282
 6530TIP3   OH219553   6.641   1.534   4.001 -0.4050  0.4353 -0.4857
 6530TIP3    H119554   6.642   1.474   3.926  2.7447  1.0949 -1.1117
 6530TIP3    H219555   6.615   1.618   3.964  0.0697  0.5168 -0.6470
 6531TIP3   OH219556   2.563   3.294   1.496 -0.5329 -0.5022 -0.2460
 6531TIP3    H119557   2.641   3.340   1.465 -1.5693  1.0380 -0.6700
 6531TIP3    H219558   2.548   3.226   1.429  0.3708 -0.7446 -0.2112
 6532TIP3   OH219559   6.144   2.009   2.123 -0.1775 -0.2086 -0.3795
 6532TIP3    H119560   6.203   1.934   2.117 -0.9783 -0.7494 -1.5744
 6532TIP3    H219561   6.062   1.980   2.084 -1.4181  0.4048  1.5806
 6533TIP3   OH219562   7.233   1.840   2.559  0.2268  0.3621 -0.4980
 6533TIP3    H119563   7.196   1.928   2.554  1.1730  0.8235  0.3673
 6533TIP3    H219564   7.212   1.810   2.647  0.8993  0.1782 -0.3955
 6534TIP3   OH219565   3.754   4.928   2.184 -0.2143  0.1433  0.5205
 6534TIP3    H119566   3.807   4.998   2.222  0.3107 -0.0482  0.1499
 6534TIP3    H219567   3.794   4.911   2.099 -0.5767 -0.3416  0.4429
 6535TIP3   OH219568   7.041   4.450   5.548  0.4098  0.5793 -0.3207
 6535TIP3    H119569   7.077   4.518   5.490 -1.5764  2.3627  0.4060
 6535TIP3    H219570   6.966   4.414   5.500  1.4654 -1.2183 -0.7160
 6536TIP3   OH219571   5.521   5.140   4.268 -0.0780  0.1864 -0.3363
 6536TIP3    H119572   5.593   5.124   4.207 -0.0753  0.0346 -0.2936
 6536TIP3    H219573   5.444   5.107   4.222 -0.1931  0.7696 -0.5752
 6537TIP3   OH219574   3.348   1.791   1.291  0.2938 -0.1324  0.0409
 6537TIP3    H119575   3.341   1.882   1.260 -1.2222 -0.6649 -1.2954
 6537TIP3    H219576   3.389   1.745   1.218 -2.0956 -1.1558 -0.7403
 6538TIP3   OH219577   0.459   5.514   5.169 -0.3680  0.3064  0.3606
 6538TIP3    H119578   0.374   5.542   5.204 -0.3572  2.5781 -1.2090
 6538TIP3    H219579   0.465   5.557   5.084  1.7691 -0.9511 -0.1888
 6539TIP3   OH219580   2.247   0.019   2.472  0.4706 -0.1344  0.5617
 6539TIP3    H119581   2.255   0.003   2.566  1.1174 -0.3056  0.4806
 6539TIP3    H219582   2.265   0.112   2.461 -1.0500  0.2164  0.7663
 6540TIP3   OH219583   3.765   3.128   0.580 -0.1705 -0.2439 -0.0993
 6540TIP3    H119584   3.835   3.181   0.618  1.7346 -1.9020 -1.1092
 6540TIP3    H219585   3.760   3.157   0.488  0.0114 -0.9347 -0.3311
 6541TIP3   OH219586   4.232   1.633   0.179  0.0991  1.1618  0.0532
 6541TIP3    H119587   4.145   1.671   0.179 -0.3015  0.3151 -0.9747
 6541TIP3    H219588   4.225   1.557   0.236 -1.1822 -1.5884 -3.3827
 6542TIP3   OH219589   6.796   4.845   2.162 -0.0064  0.4044  0.3512
 6542TIP3    H119590   6.843   4.811   2.238  1.6769  0.2154 -0.7308
 6542TIP3    H219591   6.725   4.897   2.199  0.8580  0.4449  2.0487
 6543TIP3   OH219592   2.839   5.049   4.890 -0.3538  0.0770 -0.3892
 6543TIP3    H119593   2.912   5.077   4.945 -1.0867 -0.7237  1.0368
 6543TIP3    H219594   2.870   5.063   4.800  0.9785  1.1409  0.1995
 6544TIP3   OH219595   2.545   2.199   4.583 -0.3311 -0.3878 -0.0130
 6544TIP3    H119596   2.529   2.146   4.505  0.0645 -1.0645  0.3593
 6544TIP3    H219597   2.533   2.138   4.657 -1.0062  0.3131  0.4774
 6545TIP3   OH219598   6.202   1.031   0.425 -1.0533 -0.1625 -0.2017
 6545TIP3    H119599   6.232   1.120   0.413 -0.0688 -0.0419  2.5560
 6545TIP3    H219600   6.110   1.033   0.398 -0.8424  1.4836 -0.8905
 6546TIP3   OH219601   6.801   2.051   5.145 -0.3432  0.1291  0.3058
 6546TIP3    H119602   6.753   2.118   5.193 -2.0857  0.9788 -2.4028
 6546TIP3    H219603   6.830   2.094   5.065  1.4373 -1.5084 -0.0151
 6547TIP3   OH219604   3.119   1.397   1.598  0.3361 -0.5419 -0.1789
 6547TIP3    H119605   3.175   1.393   1.675  1.2470 -1.2800 -0.8624
 6547TIP3    H219606   3.137   1.484   1.561 -1.2949  0.4742  1.2811
 6548TIP3   OH219607   0.623   0.382   4.032 -0.8783  0.0491  0.0310
 6548TIP3    H119608   0.706   0.431   4.038  0.5979 -2.1754 -0.7686
 6548TIP3    H219609   0.563   0.429   4.090  1.0981  1.4588  1.0626
 6549TIP3   OH219610   3.844   0.753   1.872 -0.5337  0.0888  0.1745
 6549TIP3    H119611   3.916   0.812   1.896 -0.4359  0.6650 -1.4075
 6549TIP3    H219612   3.885   0.687   1.816 -1.2305  0.4800 -0.8265
 6550TIP3   OH219613   1.735   0.365   2.384 -0.1525  0.3676 -0.4909
 6550TIP3    H119614   1.642   0.388   2.389 -0.2869 -0.2074 -0.2707
 6550TIP3    H219615   1.743   0.287   2.438  0.3564  0.0890 -0.9656
 6551TIP3   OH219616   2.238   1.881   3.736 -0.0083 -0.5109 -0.9524
 6551TIP3    H119617   2.293   1.943   3.785 -0.6334 -0.5565 -0.1939
 6551TIP3    H219618   2.259   1.900   3.644 -0.8474  1.4857 -0.7964
 6552TIP3   OH219619   4.393   2.794   1.750  0.0442 -0.2534  0.1276
 6552TIP3    H119620   4.323   2.854   1.777  1.1094  1.3438 -0.5498
 6552TIP3    H219621   4.398   2.804   1.655 -0.2070 -1.9744 -0.1088
 6553TIP3   OH219622   0.839   4.002   0.549 -0.8443  0.0364  0.5475
 6553TIP3    H119623   0.898   3.997   0.474 -1.6190  0.0156 -0.0726
 6553TIP3    H219624   0.844   3.916   0.590  0.9911  0.6134  1.6364
 6554TIP3   OH219625   5.265   6.032   2.429 -0.3285 -0.2893 -0.7108
 6554TIP3    H119626   5.233   6.023   2.339  1.2796  0.0375 -1.3606
 6554TIP3    H219627   5.230   6.117   2.458 -2.3514 -1.1982 -0.3276
 6555TIP3   OH219628   3.335   6.224   1.598 -0.7014  0.5368  0.4746
 6555TIP3    H119629   3.291   6.290   1.651  1.2968  1.9254  0.5247
 6555TIP3    H219630   3.352   6.267   1.515  2.2433  0.8209  1.1212
 6556TIP3   OH219631   3.670   6.532   5.351 -0.4077  0.1628  0.0428
 6556TIP3    H119632   3.643   6.450   5.393 -1.4591  0.4267 -0.0697
 6556TIP3    H219633   3.636   6.601   5.410  1.7229  0.5424  0.9048
 6557TIP3   OH219634   1.265   3.906   3.923  0.0843  0.0082 -0.3033
 6557TIP3    H119635   1.214   3.969   3.975 -0.6325 -0.5880 -0.2691
 6557TIP3    H219636   1.200   3.848   3.885  0.7958 -1.7860  1.0471
 6558TIP3   OH219637   0.650   5.700   4.395 -0.9018  0.1576 -0.2270
 6558TIP3    H119638   0.649   5.794   4.376  0.7381  0.5159  1.2680
 6558TIP3    H219639   0.557   5.676   4.402 -1.3986  1.2771 -2.2658
 6559TIP3   OH219640   6.085   4.690   0.311 -0.4300  0.1401 -0.0531
 6559TIP3    H119641   6.089   4.607   0.264 -0.6575 -0.8880  1.6441
 6559TIP3    H219642   6.114   4.756   0.248  0.6164 -1.3447 -1.1802
 6560TIP3   OH219643   7.073   3.433   5.135 -0.4161  0.1437 -0.1741
 6560TIP3    H119644   7.119   3.404   5.214 -0.6906 -0.0838 -0.0982
 6560TIP3    H219645   7.047   3.523   5.154 -1.2869 -0.2025  0.3593
 6561TIP3   OH219646   3.543   5.894   2.184  0.2434  0.0982  0.3989
 6561TIP3    H119647   3.510   5.870   2.097 -1.0833  2.1581  0.2730
 6561TIP3    H219648   3.638   5.902   2.173  0.1270  0.0074 -0.7562
 6562TIP3   OH219649   6.562   2.101   0.599 -0.3440 -0.5611  0.1393
 6562TIP3    H119650   6.508   2.032   0.560 -1.9473  1.6373 -1.7691
 6562TIP3    H219651   6.515   2.124   0.680 -0.7420 -0.5295 -0.0984
 6563TIP3   OH219652   6.397   2.460   4.702  0.1691 -0.0962 -0.0918
 6563TIP3    H119653   6.449   2.391   4.660 -1.9308 -1.0944 -1.1943
 6563TIP3    H219654   6.461   2.509   4.755  2.2677 -1.0050 -1.6451
 6564TIP3   OH219655   6.778   1.609   0.864 -0.3075  0.1527  0.4896
 6564TIP3    H119656   6.841   1.681   0.870  0.2710 -0.4547  2.6204
 6564TIP3    H219657   6.692   1.651   0.878 -0.2283  0.7291 -0.6457
 6565TIP3   OH219658   4.513   2.689   4.056 -0.1133  0.3510 -0.3073
 6565TIP3    H119659   4.594   2.713   4.101 -1.2975  0.4156  1.9494
 6565TIP3    H219660   4.476   2.772   4.027  0.2992  0.3838 -0.7393
 6566TIP3   OH219661   1.060   5.188   1.212 -0.0150 -0.0176 -0.0838
 6566TIP3    H119662   1.005   5.266   1.218 -0.7220 -0.6284  3.1554
 6566TIP3    H219663   0.999   5.118   1.187  0.1488  0.0278 -0.6254
 6567TIP3   OH219664   6.390   1.477   4.859  0.3247 -0.1294 -0.1782
 6567TIP3    H119665   6.395   1.562   4.815 -0.7920 -0.1563 -0.3860
 6567TIP3    H219666   6.465   1.476   4.919 -0.5343  1.6493  0.9783
 6568TIP3   OH219667   0.301   2.208   0.535  0.6777  0.4403  0.5840
 6568TIP3    H119668   0.371   2.273   0.550  0.0478  0.9994  1.1615
 6568TIP3    H219669   0.273   2.224   0.445  1.8313 -0.3276  0.0684
 6569TIP3   OH219670   3.138   5.877   1.897 -0.6441  0.2693  0.0309
 6569TIP3    H119671   3.230   5.902   1.894 -0.2022 -1.2009  0.4162
 6569TIP3    H219672   3.127   5.818   1.822 -1.2432  0.3045  0.0847
 6570TIP3   OH219673   6.435   0.884   5.858  0.4911  0.2955 -0.2226
 6570TIP3    H119674   6.348   0.883   5.896  0.6492 -1.2839  0.1796
 6570TIP3    H219675   6.426   0.837   5.775  1.0252 -0.2813  0.0333
 6571TIP3   OH219676   7.213   5.912   5.641 -0.2488  0.1906 -0.7897
 6571TIP3    H119677   7.160   5.840   5.675  0.7728 -0.1321  0.1843
 6571TIP3    H219678   7.234   5.965   5.718  0.1189  0.7876 -1.2933
 6572TIP3   OH219679   0.296   6.584   5.865 -0.1947  0.1357 -0.4520
 6572TIP3    H119680   0.284   6.521   5.936 -1.0873  1.7490  0.8997
 6572TIP3    H219681   0.391   6.585   5.850  0.4407  1.8094  2.7892
 6573TIP3   OH219682   1.819   5.850   4.854 -0.9553  0.1752 -0.0547
 6573TIP3    H119683   1.848   5.940   4.868 -0.5530 -0.1369  1.3319
 6573TIP3    H219684   1.808   5.815   4.943 -1.1204 -1.1283 -0.5715
 6574TIP3   OH219685   3.851   0.454   0.722 -0.3039  0.0249  0.1838
 6574TIP3    H119686   3.758   0.433   0.727 -0.2550 -0.4961 -0.7105
 6574TIP3    H219687   3.894   0.386   0.774 -0.4983  1.1243  1.8522
 6575TIP3   OH219688   7.054   6.281   1.681  0.5106 -0.1723 -0.0028
 6575TIP3    H119689   7.034   6.222   1.609  0.8416  0.6918 -0.8211
 6575TIP3    H219690   6.975   6.335   1.690  1.5349  1.7473 -1.7615
 6576TIP3   OH219691   5.910   1.665   1.265  0.8522  0.0857 -0.1499
 6576TIP3    H119692   5.989   1.618   1.239  0.3817 -1.4431  1.0236
 6576TIP3    H219693   5.838   1.611   1.233  0.2307  1.7503 -1.7220
 6577TIP3   OH219694   4.327   1.031   3.617 -0.2770  0.4333  0.1360
 6577TIP3    H119695   4.395   1.028   3.684  2.1492  0.8705 -2.1270
 6577TIP3    H219696   4.313   0.939   3.593  0.7569  0.4221 -0.4905
 6578TIP3   OH219697   5.797   3.116   3.882 -1.1108 -0.2904  0.3986
 6578TIP3    H119698   5.822   3.190   3.825 -2.4807  0.0954  0.2748
 6578TIP3    H219699   5.850   3.128   3.961 -0.8324  0.4451  0.1107
 6579TIP3   OH219700   1.350   6.471   3.437  0.0436  0.5684  0.2776
 6579TIP3    H119701   1.323   6.401   3.497 -0.8171  1.1460  0.5769
 6579TIP3    H219702   1.441   6.449   3.414  0.0762 -0.1616  1.0633
 6580TIP3   OH219703   4.190   3.071   1.363 -0.3811  0.0797 -0.3487
 6580TIP3    H119704   4.201   3.021   1.281  1.4064  0.0837 -0.1380
 6580TIP3    H219705   4.266   3.128   1.367 -1.0921  0.9915  0.7179
 6581TIP3   OH219706   1.030   1.284   2.420  0.3183  0.0236 -0.3104
 6581TIP3    H119707   0.983   1.248   2.495 -0.4631  1.4298 -0.0988
 6581TIP3    H219708   0.983   1.251   2.344 -0.6427  0.8891 -0.1121
 6582TIP3   OH219709   6.820   3.724   0.291  0.5331  0.7007  0.2690
 6582TIP3    H119710   6.785   3.644   0.254  0.7615  0.5056  0.4749
 6582TIP3    H219711   6.851   3.699   0.378  0.2448  1.0938  0.4885
 6583TIP3   OH219712   6.188   3.880   4.573 -0.2461 -0.3573  0.7065
 6583TIP3    H119713   6.156   3.938   4.504  0.7849  0.0453  0.5472
 6583TIP3    H219714   6.141   3.798   4.559  0.6798 -0.6288 -1.1322
 6584TIP3   OH219715   2.371   5.444   2.841 -0.5029  0.3017  0.7370
 6584TIP3    H119716   2.303   5.401   2.893 -0.9145 -0.3035 -0.2700
 6584TIP3    H219717   2.432   5.480   2.906 -2.5880  2.2747  1.7481
 6585TIP3   OH219718   3.993   4.476   4.583 -0.1197 -0.4478  0.0149
 6585TIP3    H119719   4.024   4.562   4.555  1.3573 -0.8831  0.2030
 6585TIP3    H219720   3.958   4.490   4.671 -0.0133 -0.0122 -0.0116
 6586TIP3   OH219721   4.808   1.743   4.790  0.3842  0.0777 -0.7896
 6586TIP3    H119722   4.842   1.699   4.711  1.5276 -0.6470  0.0673
 6586TIP3    H219723   4.849   1.829   4.788  0.0644  0.2231 -1.2141
 6587TIP3   OH219724   5.340   5.824   1.468  0.2171 -0.6722 -0.1232
 6587TIP3    H119725   5.358   5.791   1.380  2.3673  1.7894 -0.7660
 6587TIP3    H219726   5.410   5.787   1.522  1.2771  0.8511 -0.3727
 6588TIP3   OH219727   3.257   0.357   0.886  0.4107 -0.4353 -0.1004
 6588TIP3    H119728   3.263   0.298   0.810 -1.4335  0.4193 -0.9709
 6588TIP3    H219729   3.284   0.442   0.852 -0.7966  0.0340  0.0832
 6589TIP3   OH219730   7.134   6.382   4.068  0.2214 -0.1180  0.4007
 6589TIP3    H119731   7.172   6.423   4.145 -2.4431 -0.2231  1.8893
 6589TIP3    H219732   7.131   6.451   4.002  0.8574  0.4987  1.0108
 6590TIP3   OH219733   2.564   2.384   5.578 -0.2539  0.2471 -0.0835
 6590TIP3    H119734   2.574   2.301   5.531 -1.8837 -0.1266  0.1865
 6590TIP3    H219735   2.653   2.418   5.584  0.2301 -0.5834 -1.8051
 6591TIP3   OH219736   1.659   5.429   5.554  0.2567  0.0926 -0.7283
 6591TIP3    H119737   1.752   5.405   5.560  0.3537  0.5742 -0.2856
 6591TIP3    H219738   1.642   5.478   5.634 -0.4285 -0.1446 -0.7235
 6592TIP3   OH219739   5.382   1.500   3.641 -0.2809 -0.1108  0.1209
 6592TIP3    H119740   5.422   1.543   3.565  0.6812 -2.3918 -0.7481
 6592TIP3    H219741   5.390   1.407   3.623 -3.4093 -0.7381  1.3312
 6593TIP3   OH219742   5.181   3.332   4.952 -0.0496 -0.2956  0.4048
 6593TIP3    H119743   5.120   3.326   5.026  0.4479 -1.7935  0.7322
 6593TIP3    H219744   5.259   3.372   4.990  0.5789 -1.9728  1.0040
 6594TIP3   OH219745   6.825   2.702   1.612  0.0217  0.7496 -0.1163
 6594TIP3    H119746   6.860   2.670   1.695 -0.6871 -1.0548 -0.4904
 6594TIP3    H219747   6.903   2.720   1.559  0.4399 -0.1288  0.1926
 6595TIP3   OH219748   2.700   6.314   5.235 -0.4653 -0.3704  0.1964
 6595TIP3    H119749   2.794   6.312   5.219 -0.6585 -0.4308 -1.0071
 6595TIP3    H219750   2.661   6.276   5.156 -1.5001 -0.3745  0.6913
 6596TIP3   OH219751   5.344   1.011   1.880 -0.2004  0.0664 -0.1833
 6596TIP3    H119752   5.416   1.073   1.875  0.8982 -1.2275 -1.4102
 6596TIP3    H219753   5.350   0.974   1.969 -0.3604  1.0815  0.2646
 6597TIP3   OH219754   1.856   2.602   4.446 -0.3391  0.1241 -0.0644
 6597TIP3    H119755   1.943   2.631   4.471  0.1871 -1.4762  0.0495
 6597TIP3    H219756   1.850   2.621   4.353 -0.8475  2.5231  0.3903
 6598TIP3   OH219757   5.422   2.620   0.080 -0.0988 -0.1731  0.1459
 6598TIP3    H119758   5.484   2.606   0.152  0.0801 -0.0713  0.0142
 6598TIP3    H219759   5.338   2.636   0.123 -0.4546 -2.1692  0.3161
 6599TIP3   OH219760   0.849   0.792   3.597  0.2754  0.0766  0.0148
 6599TIP3    H119761   0.827   0.810   3.506 -1.5916 -2.1596 -0.0689
 6599TIP3    H219762   0.785   0.842   3.648  0.2358  0.0033  0.0378
 6600TIP3   OH219763   5.874   4.962   2.610  0.2688 -0.1361  0.5576
 6600TIP3    H119764   5.829   4.886   2.646 -1.6718  1.0068  0.7065
 6600TIP3    H219765   5.914   4.930   2.529 -1.9431 -0.9739 -0.2875
 6601TIP3   OH219766   4.326   2.340   1.044  0.1398  0.0526 -0.3111
 6601TIP3    H119767   4.321   2.377   0.956  1.0385  0.7173 -0.1041
 6601TIP3    H219768   4.263   2.392   1.095 -1.1774 -1.0400 -0.7709
 6602TIP3   OH219769   6.318   3.711   2.924  0.1222 -0.0009  0.8934
 6602TIP3    H119770   6.321   3.616   2.932  0.1362 -0.1850 -0.8384
 6602TIP3    H219771   6.234   3.729   2.882 -0.5115  0.8944  2.4600
 6603TIP3   OH219772   2.095   1.121   4.461  0.0420  0.3346  0.3155
 6603TIP3    H119773   2.038   1.053   4.496  0.9123 -0.5807  0.0030
 6603TIP3    H219774   2.123   1.171   4.538  0.1371 -0.2479  0.6649
 6604TIP3   OH219775   4.997   2.794   1.471 -0.1455 -0.3488 -0.5216
 6604TIP3    H119776   4.994   2.700   1.490  0.9864 -0.5128 -1.0971
 6604TIP3    H219777   4.944   2.803   1.391  1.4831 -0.8462 -1.7050
 6605TIP3   OH219778   3.135   3.374   1.872  0.0981 -0.1510 -0.4187
 6605TIP3    H119779   3.226   3.375   1.843  0.0585 -0.0788 -0.5414
 6605TIP3    H219780   3.135   3.430   1.950  0.3894 -1.1295  0.2965
 6606TIP3   OH219781   6.897   3.360   1.316  0.3884 -0.2494  0.2450
 6606TIP3    H119782   6.969   3.337   1.376 -1.3438  0.1153  2.6231
 6606TIP3    H219783   6.853   3.276   1.299 -0.1752 -0.1228  1.0016
 6607TIP3   OH219784   4.913   1.359   0.596  0.5625 -0.3173 -0.5910
 6607TIP3    H119785   4.888   1.278   0.642 -0.9758  1.5367  2.1072
 6607TIP3    H219786   4.833   1.411   0.594  1.9779  2.0067 -0.2975
 6608TIP3   OH219787   2.450   5.266   4.976  0.5508  0.0260  0.5664
 6608TIP3    H119788   2.537   5.276   4.937  1.0747 -1.9763  1.0594
 6608TIP3    H219789   2.391   5.305   4.913  1.7338  0.6087 -0.2218
 6609TIP3   OH219790   5.696   3.550   3.365  0.8290  0.2053 -0.4039
 6609TIP3    H119791   5.765   3.616   3.367 -0.1879  1.3043 -0.1042
 6609TIP3    H219792   5.740   3.470   3.337  2.3738  0.6709  0.5495
 6610TIP3   OH219793   1.763   1.975   1.967 -0.7173  0.3379 -0.0227
 6610TIP3    H119794   1.732   1.969   2.057 -1.8122  1.5790 -0.2661
 6610TIP3    H219795   1.814   2.056   1.965  0.7761 -0.5877 -0.1344
 6611TIP3   OH219796   0.741   1.400   5.268 -0.1768  0.1312 -0.2740
 6611TIP3    H119797   0.796   1.474   5.296 -0.4573  0.6433 -1.0326
 6611TIP3    H219798   0.663   1.441   5.230  0.4592 -0.4589 -2.4013
 6612TIP3   OH219799   3.023   5.726   3.568 -0.2389 -0.0395  0.0502
 6612TIP3    H119800   2.941   5.772   3.588 -0.7913 -0.0586 -2.0243
 6612TIP3    H219801   2.997   5.634   3.559  0.0628 -0.0854 -0.3485
 6613TIP3   OH219802   4.110   0.868   0.469 -0.8321 -0.1846 -0.5484
 6613TIP3    H119803   4.169   0.929   0.425  0.9203 -1.5837 -0.2444
 6613TIP3    H219804   4.122   0.885   0.562  0.3224 -1.5186 -0.4233
 6614TIP3   OH219805   7.128   1.679   5.502 -0.9868  0.3405 -0.5428
 6614TIP3    H119806   7.148   1.751   5.563 -0.1495 -0.2176 -0.1327
 6614TIP3    H219807   7.139   1.717   5.415 -1.9163  1.0728 -0.3600
 6615TIP3   OH219808   2.985   1.231   0.981 -0.0097  0.2123  0.0505
 6615TIP3    H119809   2.941   1.311   0.953 -0.7167 -0.8320 -2.0509
 6615TIP3    H219810   3.078   1.251   0.974 -0.0882 -0.1776 -4.1215
 6616TIP3   OH219811   0.187   1.544   1.219  0.6070  0.3265 -0.0751
 6616TIP3    H119812   0.246   1.563   1.292  0.5451  0.0489  0.0457
 6616TIP3    H219813   0.100   1.567   1.252  0.4874 -0.4971  0.1922
 6617TIP3   OH219814   0.533   3.984   1.602 -0.4467 -0.4534 -0.1394
 6617TIP3    H119815   0.526   3.925   1.677 -2.9689  0.5719  0.5083
 6617TIP3    H219816   0.518   3.928   1.526 -0.6859 -1.0023  0.3079
 6618TIP3   OH219817   3.206   2.721   2.530  0.0905 -0.0703 -0.2992
 6618TIP3    H119818   3.150   2.794   2.555  1.9510  1.0830  0.7086
 6618TIP3    H219819   3.170   2.646   2.577  0.0226  0.8701  1.2230
 6619TIP3   OH219820   5.654   5.360   5.098  0.0528 -0.0784 -0.0704
 6619TIP3    H119821   5.613   5.387   5.016  0.4510  1.0385  0.0896
 6619TIP3    H219822   5.581   5.356   5.160 -0.3933 -1.7625 -0.6454
 6620TIP3   OH219823   6.548   2.516   3.358  0.2806 -0.2621 -0.2879
 6620TIP3    H119824   6.638   2.522   3.326  0.6456 -0.8116  0.5933
 6620TIP3    H219825   6.542   2.428   3.394 -0.9590 -0.6256 -1.3269
 6621TIP3   OH219826   4.041   4.320   0.808  0.2221  0.3319 -0.4552
 6621TIP3    H119827   4.125   4.338   0.850  0.7353  0.2657 -1.4292
 6621TIP3    H219828   3.977   4.331   0.878  1.1626 -1.2291  0.7164
 6622TIP3   OH219829   5.139   6.541   5.295 -0.8077 -0.1463  0.1432
 6622TIP3    H119830   5.230   6.526   5.270 -0.8179 -0.6063  0.3829
 6622TIP3    H219831   5.141   6.552   5.390 -0.8577  0.9747  0.0319
 6623TIP3   OH219832   2.988   0.182   4.718 -0.3644 -0.1310  0.3134
 6623TIP3    H119833   2.950   0.258   4.762 -2.1629 -0.8289  0.0869
 6623TIP3    H219834   3.058   0.217   4.664 -0.6308  1.2550  0.8234
 6624TIP3   OH219835   0.442   1.372   5.446  0.0667 -0.4588  0.3916
 6624TIP3    H119836   0.361   1.405   5.485  0.1441  1.0504 -0.6253
 6624TIP3    H219837   0.479   1.448   5.401  1.2058 -1.5239 -0.5405
 6625TIP3   OH219838   2.409   1.815   0.273 -0.2835  0.1995  0.2712
 6625TIP3    H119839   2.397   1.721   0.258  1.2937 -0.1083  0.7960
 6625TIP3    H219840   2.456   1.820   0.356  1.3616  1.3494 -0.6861
 6626TIP3   OH219841   2.364   0.700   2.007  0.6835 -0.1762 -0.5408
 6626TIP3    H119842   2.459   0.691   2.012  0.8184 -0.2760 -2.4738
 6626TIP3    H219843   2.350   0.787   1.968 -0.0501  0.0970  0.2898
 6627TIP3   OH219844   0.560   2.231   3.665  0.1751 -0.2358  0.0923
 6627TIP3    H119845   0.512   2.175   3.605  1.0930 -0.6291 -0.2833
 6627TIP3    H219846   0.492   2.280   3.712 -0.5684 -0.4759 -0.7230
 6628TIP3   OH219847   3.983   3.996   2.482  0.8097  0.5532 -0.8953
 6628TIP3    H119848   3.994   4.033   2.570 -2.9223  0.4004 -0.2013
 6628TIP3    H219849   3.987   3.901   2.496 -0.8005  0.4897 -0.6070
 6629TIP3   OH219850   1.634   6.791   4.463 -0.5431 -0.0677 -0.0890
 6629TIP3    H119851   1.683   6.738   4.400  0.5993  1.8226 -0.8666
 6629TIP3    H219852   1.683   6.873   4.469 -2.8632  1.3902  0.1606
 6630TIP3   OH219853   4.285   3.504   5.665  0.0463  0.2697  0.0937
 6630TIP3    H119854   4.304   3.422   5.620  0.8377  0.8419 -0.6450
 6630TIP3    H219855   4.238   3.556   5.601 -1.4718 -0.0101  0.9371
 6631TIP3   OH219856   2.486   5.422   5.828 -0.5449 -0.0803 -0.6485
 6631TIP3    H119857   2.448   5.362   5.892  0.4046 -2.0593 -1.8335
 6631TIP3    H219858   2.415   5.482   5.806 -1.7472 -1.1569  0.1291
 6632TIP3   OH219859   0.280   3.209   4.112  0.6129 -0.2784 -0.2842
 6632TIP3    H119860   0.194   3.188   4.149  0.5992  1.6722  0.9176
 6632TIP3    H219861   0.341   3.197   4.185  0.9359  1.1815 -0.2836
 6633TIP3   OH219862   2.597   2.359   3.131  0.2043  0.1777  0.2237
 6633TIP3    H119863   2.508   2.367   3.095 -0.0748  0.4907  0.9734
 6633TIP3    H219864   2.592   2.399   3.218  1.4248  1.5491 -0.2891
 6634TIP3   OH219865   6.140   0.712   1.365  0.4323  0.1103 -0.2609
 6634TIP3    H119866   6.168   0.658   1.291 -0.4882  0.2733 -0.7462
 6634TIP3    H219867   6.156   0.657   1.442  0.4888 -0.4456 -0.6608
 6635TIP3   OH219868   4.204   2.653   2.766 -0.4390 -0.2462  0.3791
 6635TIP3    H119869   4.251   2.722   2.718 -2.1976  0.2587 -0.7302
 6635TIP3    H219870   4.216   2.676   2.858  1.9189 -0.4838  0.1924
 6636TIP3   OH219871   6.724   0.120   2.454 -0.5965  0.3915  0.2137
 6636TIP3    H119872   6.771   0.051   2.500  0.0863  0.2892 -0.5996
 6636TIP3    H219873   6.656   0.074   2.405 -0.5098  0.3592  0.1232
 6637TIP3   OH219874   5.587   1.000   3.875 -0.4258 -0.3458  0.0830
 6637TIP3    H119875   5.653   1.069   3.878 -0.4348 -0.3386  0.1120
 6637TIP3    H219876   5.634   0.925   3.838 -0.8104  0.1053 -1.3619
 6638TIP3   OH219877   5.764   5.179   3.864  0.2963 -0.4567  0.6620
 6638TIP3    H119878   5.702   5.220   3.804 -1.7136 -1.1913  2.1305
 6638TIP3    H219879   5.826   5.133   3.807 -0.9244 -0.2838 -0.8588
 6639TIP3   OH219880   4.050   3.198   1.744  0.1291  0.5843 -0.0934
 6639TIP3    H119881   4.100   3.277   1.768 -0.8231  0.9888  0.6089
 6639TIP3    H219882   4.094   3.127   1.792  1.5425  0.5047 -1.4229
 6640TIP3   OH219883   2.907   0.822   1.063 -0.4315 -0.6697 -0.1783
 6640TIP3    H119884   2.893   0.729   1.042 -0.4140 -0.3959 -1.5217
 6640TIP3    H219885   2.986   0.845   1.014 -0.0191 -0.1213  0.7332
 6641TIP3   OH219886   1.573   2.591   1.185  0.2893 -0.4091  0.7190
 6641TIP3    H119887   1.484   2.625   1.191  0.7727  0.8025  1.2213
 6641TIP3    H219888   1.583   2.536   1.263  0.1166 -0.2285  0.8682
 6642TIP3   OH219889   6.181   5.464   2.202  0.0936 -0.1805 -0.1082
 6642TIP3    H119890   6.116   5.429   2.263  0.2579  0.0435  0.1918
 6642TIP3    H219891   6.253   5.402   2.205 -0.0341 -0.3428 -0.3208
 6643TIP3   OH219892   0.726   4.499   5.708 -0.4152  0.4711 -0.8093
 6643TIP3    H119893   0.698   4.409   5.721 -0.8151  0.5931 -0.8214
 6643TIP3    H219894   0.703   4.519   5.617 -0.0129  0.4731 -0.9103
 6644TIP3   OH219895   0.655   3.555   5.435 -0.8020 -0.7583 -0.2821
 6644TIP3    H119896   0.715   3.483   5.453  1.5016  0.9272 -0.7302
 6644TIP3    H219897   0.711   3.625   5.400 -3.1568  0.6790 -1.4458
 6645TIP3   OH219898   2.652   5.965   0.650  0.0704 -0.2346  0.0902
 6645TIP3    H119899   2.594   6.041   0.653 -1.9110 -1.6727  0.1555
 6645TIP3    H219900   2.593   5.891   0.635  1.8088 -1.8854  1.0326
 6646TIP3   OH219901   3.985   2.067   2.126 -0.2089 -0.2638 -0.6528
 6646TIP3    H119902   3.935   1.993   2.161  1.1149 -0.7424  0.3135
 6646TIP3    H219903   4.044   2.091   2.198  0.5903  0.6097 -1.5809
 6647TIP3   OH219904   2.240   3.384   1.788  0.7838  0.1150 -0.2842
 6647TIP3    H119905   2.312   3.437   1.754  0.6007 -0.9515 -2.4897
 6647TIP3    H219906   2.265   3.365   1.878  2.1527  1.6520 -0.2938
 6648TIP3   OH219907   5.401   3.692   5.007  0.0192  0.3104  0.2974
 6648TIP3    H119908   5.370   3.721   4.921  2.0155 -1.8807 -1.2858
 6648TIP3    H219909   5.396   3.596   5.004  3.8600 -0.0729  0.9957
 6649TIP3   OH219910   0.199   2.948   3.844  0.8327 -0.1128 -0.2110
 6649TIP3    H119911   0.167   2.958   3.755  1.7820 -0.7754 -0.6379
 6649TIP3    H219912   0.275   3.006   3.849  0.6556  0.0843  0.2334
 6650TIP3   OH219913   4.815   4.579   1.881 -0.1330 -0.1175  0.4940
 6650TIP3    H119914   4.852   4.561   1.794  0.8065 -3.4731  1.4708
 6650TIP3    H219915   4.721   4.564   1.871 -0.4400  1.9685 -0.4252
 6651TIP3   OH219916   4.443   2.525   4.603 -0.8127 -0.4544  0.6769
 6651TIP3    H119917   4.444   2.620   4.591  2.3970 -0.5942 -1.0308
 6651TIP3    H219918   4.356   2.507   4.641 -1.3360  3.1581  1.5791
 6652TIP3   OH219919   5.128   0.920   0.079 -0.7972 -0.2078  0.4391
 6652TIP3    H119920   5.066   0.966   0.135 -2.3520 -1.7785  0.0829
 6652TIP3    H219921   5.147   0.982   0.009 -1.9582  0.3178  0.5709
 6653TIP3   OH219922   4.682   1.003   3.591 -0.1210  0.1046  0.0785
 6653TIP3    H119923   4.711   1.000   3.682  0.0595 -0.0604  0.0146
 6653TIP3    H219924   4.760   1.024   3.541 -0.2443  0.3152 -0.0283
 6654TIP3   OH219925   5.666   5.982   3.918  0.2313  0.0592  0.0086
 6654TIP3    H119926   5.695   5.910   3.974 -0.3084  0.0576  0.2984
 6654TIP3    H219927   5.663   6.058   3.976  2.1516  0.6474 -0.6136
 6655TIP3   OH219928   2.368   0.316   3.643  0.2500 -0.3254 -0.6282
 6655TIP3    H119929   2.410   0.241   3.600  1.8621  0.6064 -0.7663
 6655TIP3    H219930   2.310   0.352   3.577  0.6531 -0.5339 -1.1048
 6656TIP3   OH219931   3.666   3.741   3.713  0.4630  0.3487 -0.0996
 6656TIP3    H119932   3.714   3.660   3.698  0.0534 -0.1905  1.3760
 6656TIP3    H219933   3.704   3.803   3.650 -0.0403 -1.2598 -2.0886
 6657TIP3   OH219934   5.487   2.480   1.930  0.3531 -0.0952  0.4260
 6657TIP3    H119935   5.500   2.438   2.015 -0.1605  0.9985  1.0560
 6657TIP3    H219936   5.440   2.414   1.878 -0.6712 -0.2134  1.4799
 6658TIP3   OH219937   6.765   2.303   0.136 -0.5098 -0.2720  0.2032
 6658TIP3    H119938   6.804   2.233   0.083  0.6077  0.9193 -0.5872
 6658TIP3    H219939   6.673   2.279   0.143 -0.1962 -1.7053 -0.2388
 6659TIP3   OH219940   4.606   1.819   1.269  0.3943 -0.7266 -0.7137
 6659TIP3    H119941   4.645   1.852   1.350  0.7925 -0.2704 -1.0811
 6659TIP3    H219942   4.524   1.868   1.261 -0.8658 -2.5077  0.6537
 6660TIP3   OH219943   2.216   5.618   0.966 -0.1260  0.5754  0.2639
 6660TIP3    H119944   2.296   5.669   0.975  0.2696 -0.2382  1.8350
 6660TIP3    H219945   2.209   5.570   1.049 -0.9704 -1.1942 -0.7614
 6661TIP3   OH219946   5.253   5.287   2.200  0.0179  0.1610  0.2275
 6661TIP3    H119947   5.327   5.249   2.247  0.1387 -0.5741 -0.5271
 6661TIP3    H219948   5.290   5.360   2.151 -0.1249  0.9865  1.3164
 6662TIP3   OH219949   2.855   4.803   5.245  0.1860 -0.1116 -0.0585
 6662TIP3    H119950   2.894   4.717   5.232  1.1961  0.1174  1.2238
 6662TIP3    H219951   2.762   4.785   5.260  0.4271 -1.0112  0.4354
 6663TIP3   OH219952   3.871   6.254   4.980 -0.3943 -0.2093 -0.0489
 6663TIP3    H119953   3.841   6.300   4.902  0.5554  0.5581  0.0187
 6663TIP3    H219954   3.804   6.188   4.996 -0.9993  0.1370 -1.0523
 6664TIP3   OH219955   3.094   0.387   2.504  0.1232  0.0688  0.3804
 6664TIP3    H119956   3.075   0.427   2.420  0.2503  0.9484  0.7565
 6664TIP3    H219957   3.034   0.313   2.510  0.0678  0.0465 -0.4462
 6665TIP3   OH219958   2.821   1.122   1.632  0.5480  0.7750  0.2504
 6665TIP3    H119959   2.833   1.028   1.619  1.2689  1.0597 -1.3985
 6665TIP3    H219960   2.887   1.163   1.575 -1.1873  2.2990 -0.7745
 6666TIP3   OH219961   6.364   4.843   5.638 -0.2296  0.2155 -0.0458
 6666TIP3    H119962   6.446   4.864   5.593  0.6817  1.0032  1.8879
 6666TIP3    H219963   6.387   4.769   5.695 -0.7804  0.6316  0.7227
 6667TIP3   OH219964   1.668   0.482   4.759  0.1794 -0.5553 -0.1483
 6667TIP3    H119965   1.632   0.395   4.741  2.9182 -1.4948 -1.8105
 6667TIP3    H219966   1.688   0.482   4.852 -2.1125 -0.7040  0.3969
 6668TIP3   OH219967   0.058   3.149   0.673  0.5563  0.0549  0.9182
 6668TIP3    H119968   0.151   3.163   0.692  1.6143 -1.8280 -2.1104
 6668TIP3    H219969   0.034   3.074   0.728  0.8832  0.3683  1.4996
 6669TIP3   OH219970   1.607   0.481   3.534 -0.0195  0.4329 -0.1002
 6669TIP3    H119971   1.610   0.558   3.477 -1.7368  1.6514  1.3267
 6669TIP3    H219972   1.577   0.410   3.476  0.6793  1.0330 -1.2427
 6670TIP3   OH219973   6.836   6.439   1.691 -0.3778  0.5631 -0.1289
 6670TIP3    H119974   6.848   6.452   1.597 -0.5927 -0.0416 -0.2478
 6670TIP3    H219975   6.831   6.527   1.727 -0.0892  0.8010 -0.6584
 6671TIP3   OH219976   4.563   1.007   2.477  0.4602 -0.2644  0.0124
 6671TIP3    H119977   4.505   0.932   2.461 -1.5012  1.2361 -0.2104
 6671TIP3    H219978   4.622   1.007   2.401  1.3934 -2.3200  0.6571
 6672TIP3   OH219979   2.807   4.810   1.820 -0.0264 -0.1643  0.7290
 6672TIP3    H119980   2.871   4.803   1.891 -1.0111 -0.4402  1.6273
 6672TIP3    H219981   2.738   4.865   1.856  0.2011  1.0556 -0.6248
 6673TIP3   OH219982   7.004   6.677   1.307  0.2948  0.4650  0.3465
 6673TIP3    H119983   6.947   6.754   1.305  0.4283  0.5746  0.8052
 6673TIP3    H219984   7.075   6.701   1.366 -0.3096 -0.4627  1.4927
 6674TIP3   OH219985   4.613   3.921   3.088  0.1281 -0.3041 -0.1341
 6674TIP3    H119986   4.658   3.921   3.003  1.4414 -1.9582  0.5004
 6674TIP3    H219987   4.679   3.888   3.149 -0.5008  1.7078  1.7312
 6675TIP3   OH219988   6.415   5.514   1.160  0.0817  0.0040  0.7711
 6675TIP3    H119989   6.341   5.574   1.159  0.3565  0.3544 -0.2136
 6675TIP3    H219990   6.414   5.474   1.073 -0.1457 -1.5015  1.4414
 6676TIP3   OH219991   5.084   2.013   5.737  0.0729 -0.9122  0.8851
 6676TIP3    H119992   5.166   1.965   5.732  0.9196  0.6054 -0.7318
 6676TIP3    H219993   5.096   2.074   5.810  1.1355  0.5273 -0.4285
 6677TIP3   OH219994   2.133   5.560   2.712 -0.9286  0.6364 -0.1145
 6677TIP3    H119995   2.209   5.536   2.765 -0.7251  0.6372 -0.4075
 6677TIP3    H219996   2.060   5.514   2.753 -0.3895 -1.3826 -1.2856
 6678TIP3   OH219997   0.819   5.080   1.243  0.0841  0.1337  0.1980
 6678TIP3    H119998   0.794   5.107   1.154  0.8788 -0.3859 -0.1947
 6678TIP3    H219999   0.770   4.999   1.258  0.6966 -0.3014 -0.1473
 6679TIP3   OH220000   5.518   0.332   5.620  0.4931  0.4301  0.0215
 6679TIP3    H120001   5.543   0.376   5.539 -1.5001  2.0196  0.1784
 6679TIP3    H220002   5.500   0.242   5.595  0.9750  0.6261 -1.0755
 6680TIP3   OH220003   5.705   5.008   4.637  0.7882 -0.7560 -0.2228
 6680TIP3    H120004   5.746   4.944   4.578  2.1843 -1.4466  1.4204
 6680TIP3    H220005   5.642   4.957   4.688  2.4506 -1.0736  1.6319
 6681TIP3   OH220006   4.297   6.459   1.926 -0.2004 -0.4427  0.2527
 6681TIP3    H120007   4.265   6.369   1.932 -1.1512 -0.1149  0.2731
 6681TIP3    H220008   4.225   6.508   1.888  0.5194  0.2135 -0.3087
 6682TIP3   OH220009   2.094   2.341   3.715  0.3896 -1.1262 -0.2094
 6682TIP3    H120010   2.007   2.331   3.676 -0.3326  2.0593  0.3462
 6682TIP3    H220011   2.086   2.417   3.773  3.3615 -1.2127  0.4671
 6683TIP3   OH220012   2.626   6.648   3.043  0.3659 -0.2443  0.3504
 6683TIP3    H120013   2.622   6.581   2.974 -0.0136  1.8703 -1.8189
 6683TIP3    H220014   2.720   6.655   3.063  0.2752 -2.6950  2.0611
 6684TIP3   OH220015   1.942   5.716   3.971 -0.1599 -0.1982 -0.1917
 6684TIP3    H120016   1.993   5.728   4.051 -0.6106 -0.4269  0.1367
 6684TIP3    H220017   1.989   5.766   3.905  1.4445 -1.7748 -0.3021
 6685TIP3   OH220018   4.972   3.453   1.893 -0.2274 -0.1941  0.0720
 6685TIP3    H120019   4.990   3.363   1.866 -0.2205 -0.2164  0.1502
 6685TIP3    H220020   5.057   3.497   1.888 -0.4405  0.1180 -1.1248
 6686TIP3   OH220021   5.122   3.280   3.272 -0.3396  0.1500  0.2424
 6686TIP3    H120022   5.200   3.268   3.326 -0.7511  0.1555  0.8575
 6686TIP3    H220023   5.053   3.301   3.335 -0.3232  2.6844 -0.4921
 6687TIP3   OH220024   0.038   2.506   0.286  0.4469 -0.5244 -0.1770
 6687TIP3    H120025   0.098   2.485   0.214 -0.0786 -3.9012  0.2336
 6687TIP3    H220026  -0.049   2.491   0.249  0.0441  0.0553  0.5193
 6688TIP3   OH220027   4.947   3.436   2.177  0.1781 -0.3167 -0.2672
 6688TIP3    H120028   4.986   3.379   2.243  1.0483  2.1022  1.4308
 6688TIP3    H220029   5.004   3.428   2.101  0.6029 -1.2421  0.1387
 6689TIP3   OH220030   2.009   6.224   0.965  0.5545  0.4022 -0.2742
 6689TIP3    H120031   2.080   6.287   0.976  0.8695 -0.2323  1.6676
 6689TIP3    H220032   2.044   6.142   1.000 -1.2867  0.2057  1.2689
 6690TIP3   OH220033   0.754   6.158   4.504 -0.2478  0.2664  0.4376
 6690TIP3    H120034   0.809   6.236   4.493 -0.4739  0.1113 -2.2244
 6690TIP3    H220035   0.692   6.162   4.432 -0.5106 -2.2126  0.4636
 6691TIP3   OH220036   3.628   6.725   2.362  0.6475 -0.1503 -0.1671
 6691TIP3    H120037   3.598   6.670   2.289 -0.4278 -0.1395  0.2528
 6691TIP3    H220038   3.634   6.813   2.324 -3.1327  0.5611  0.4379
 6692TIP3   OH220039   6.408   6.003   1.187  0.0480 -0.4944 -0.1626
 6692TIP3    H120040   6.317   6.033   1.185 -0.0919 -0.9229 -0.2622
 6692TIP3    H220041   6.459   6.082   1.206 -0.1574  0.1950 -2.1719
 6693TIP3   OH220042   0.490   5.202   3.088 -0.3326 -0.1517 -0.2633
 6693TIP3    H120043   0.556   5.208   3.157  1.1843 -1.2362 -1.5440
 6693TIP3    H220044   0.540   5.196   3.007 -2.0005 -1.0986 -1.2979
 6694TIP3   OH220045   2.553   5.790   4.964 -0.5445 -0.4214 -0.2674
 6694TIP3    H120046   2.471   5.804   4.918 -0.0810 -0.7577 -1.2108
 6694TIP3    H220047   2.536   5.823   5.053 -1.2799  0.7057 -0.8016
 6695TIP3   OH220048   1.831   6.002   3.575 -0.2768  0.2330  0.6295
 6695TIP3    H120049   1.919   6.039   3.565  0.7533 -1.8029  1.5692
 6695TIP3    H220050   1.822   5.988   3.669 -1.5465  0.2225  0.5192
 6696TIP3   OH220051   2.289   5.131   0.215 -0.0047  0.7050 -0.2761
 6696TIP3    H120052   2.377   5.147   0.182 -0.1267 -0.7963 -1.4575
 6696TIP3    H220053   2.239   5.208   0.189  0.4412  0.5456 -1.6875
 6697TIP3   OH220054   3.571   5.465   1.603  0.3371 -0.4257  0.3254
 6697TIP3    H120055   3.489   5.451   1.556  0.3727  0.9937 -0.2269
 6697TIP3    H220056   3.634   5.407   1.560  0.0144 -0.2577 -0.3799
 6698TIP3   OH220057   3.163   3.675   0.819 -0.1103 -0.4128  0.2335
 6698TIP3    H120058   3.099   3.742   0.794  0.9446  0.0691 -1.2827
 6698TIP3    H220059   3.181   3.628   0.738  0.0950 -1.7587  1.0276
 6699TIP3   OH220060   4.906   0.427   1.028  0.0224 -0.0134  0.0291
 6699TIP3    H120061   4.822   0.389   1.005  0.3360 -0.5199 -0.3037
 6699TIP3    H220062   4.898   0.453   1.120 -0.2754 -0.6552  0.1840
 6700TIP3   OH220063   0.628   6.253   4.296 -0.3113 -0.0829 -0.4065
 6700TIP3    H120064   0.622   6.348   4.296 -0.1486 -0.0733 -0.3495
 6700TIP3    H220065   0.687   6.232   4.223 -1.4565 -0.2065 -1.3246
 6701TIP3   OH220066   5.995   0.018   1.365  0.2073 -0.5195  0.5949
 6701TIP3    H120067   6.001   0.051   1.275  0.0926  1.0687  1.1354
 6701TIP3    H220068   6.079  -0.024   1.381  0.3605 -0.5124 -0.1396
 6702TIP3   OH220069   7.046   6.449   2.493  0.0250 -0.2605 -0.1235
 6702TIP3    H120070   6.959   6.479   2.468  0.0763 -0.6845 -0.8306
 6702TIP3    H220071   7.084   6.415   2.412  1.5657  1.5894 -0.2659
 6703TIP3   OH220072   5.340   5.726   0.963  1.0524  0.0061 -0.0198
 6703TIP3    H120073   5.376   5.786   0.897  1.4440 -1.1484 -0.8938
 6703TIP3    H220074   5.287   5.664   0.913 -1.0815  0.8220  1.0917
 6704TIP3   OH220075   2.417   5.681   5.426 -0.1380  0.2763 -0.1951
 6704TIP3    H120076   2.389   5.726   5.506 -0.5849 -1.3508  0.6044
 6704TIP3    H220077   2.363   5.602   5.422  1.0098 -0.5082 -1.2301
 6705TIP3   OH220078   3.687   3.409   1.482  0.4593 -0.2397  0.0202
 6705TIP3    H120079   3.606   3.373   1.445  1.7684 -1.9093 -1.4048
 6705TIP3    H220080   3.740   3.332   1.503  2.7701  0.7973 -1.6524
 6706TIP3   OH220081   1.630   3.031   0.869 -0.6023  0.3092 -0.3122
 6706TIP3    H120082   1.725   3.038   0.866 -0.4190 -1.3314  0.5938
 6706TIP3    H220083   1.603   3.099   0.932 -0.1050  1.1132 -0.9485
 6707TIP3   OH220084   5.808   0.318   3.256  0.6401 -0.0386 -0.2651
 6707TIP3    H120085   5.758   0.359   3.326  0.3488  0.5656 -0.8193
 6707TIP3    H220086   5.741   0.289   3.193  0.9936  2.3512 -1.8844
 6708TIP3   OH220087   0.615   1.148   0.945  0.5636 -0.5506 -0.5760
 6708TIP3    H120088   0.697   1.135   0.898  0.1376 -0.6462 -1.2986
 6708TIP3    H220089   0.575   1.061   0.949 -1.1954  0.0047 -3.4087
 6709TIP3   OH220090   3.957   1.264   1.692 -0.2486  0.6435  0.1242
 6709TIP3    H120091   4.025   1.312   1.645  0.1921 -0.6626 -0.6462
 6709TIP3    H220092   3.930   1.196   1.630  0.2600 -1.0638  1.7023
 6710TIP3   OH220093   1.297   2.295   2.461 -0.3088 -0.0722 -0.1988
 6710TIP3    H120094   1.232   2.302   2.531  0.3778 -1.2713  0.5722
 6710TIP3    H220095   1.262   2.350   2.391 -0.9638  1.2335  1.1025
 6711TIP3   OH220096   4.024   4.793   0.223  0.0042  0.7627  0.0328
 6711TIP3    H120097   4.118   4.776   0.219  0.2671  1.8336  1.0385
 6711TIP3    H220098   4.017   4.878   0.266 -1.4740  0.0765  1.2540
 6712TIP3   OH220099   2.421   2.136   1.093 -0.3281  0.0541  0.2268
 6712TIP3    H120100   2.405   2.042   1.099  1.9789 -0.4655 -0.7702
 6712TIP3    H220101   2.461   2.160   1.176  0.0311 -0.0729  0.0928
 6713TIP3   OH220102   7.055   4.088   2.095 -0.2964  0.0861  0.0455
 6713TIP3    H120103   7.133   4.074   2.149 -0.0713 -2.1416 -0.7490
 6713TIP3    H220104   7.050   4.183   2.083  1.8174  0.3299  0.7805
 6714TIP3   OH220105   3.076   5.378   1.091  0.0588 -0.3075  0.0881
 6714TIP3    H120106   3.102   5.305   1.147  3.0990 -0.5898 -1.4960
 6714TIP3    H220107   3.134   5.450   1.116 -0.3604  0.3870 -0.8608
 6715TIP3   OH220108   2.052   4.482   4.233  0.1252 -0.0848  0.1700
 6715TIP3    H120109   1.987   4.422   4.196 -0.4698  0.5903  0.0918
 6715TIP3    H220110   2.004   4.530   4.299 -0.3648  2.6173 -1.9715
 6716TIP3   OH220111   2.841   2.538   1.945 -0.4841  0.3941  0.0649
 6716TIP3    H120112   2.870   2.627   1.964  0.1260  0.3339 -0.5103
 6716TIP3    H220113   2.894   2.483   2.002 -0.4645  0.3697  0.0236
 6717TIP3   OH220114   6.033   4.307   3.752  0.6313  0.1319 -0.2138
 6717TIP3    H120115   5.973   4.328   3.823  0.0035  0.3964 -0.8100
 6717TIP3    H220116   6.103   4.256   3.793 -0.2021 -0.5205  0.4240
 6718TIP3   OH220117   6.619   5.880   1.689  0.1555  0.1955 -0.1127
 6718TIP3    H120118   6.574   5.895   1.606 -1.6145 -0.4039  0.6817
 6718TIP3    H220119   6.705   5.920   1.678  0.4666 -1.0096 -2.6769
 6719TIP3   OH220120   0.618   5.234   1.681 -0.1135 -0.0825  0.3458
 6719TIP3    H120121   0.556   5.273   1.620 -2.0966 -1.6643  1.2209
 6719TIP3    H220122   0.575   5.238   1.766  1.8330  0.4833  1.3631
 6720TIP3   OH220123   2.205   4.290   4.916 -0.5665  0.5534 -0.2446
 6720TIP3    H120124   2.131   4.292   4.977 -1.1280  1.3375 -0.9359
 6720TIP3    H220125   2.166   4.302   4.830  0.4701  2.3754 -0.5067
 6721TIP3   OH220126   4.584   3.647   3.730 -0.8686 -0.4903  0.7114
 6721TIP3    H120127   4.516   3.691   3.678 -0.8991 -2.1983 -0.7725
 6721TIP3    H220128   4.544   3.564   3.755  0.1045 -0.8058  1.2380
 6722TIP3   OH220129   3.460   4.305   1.347  0.1353 -0.6583  0.1757
 6722TIP3    H120130   3.461   4.216   1.313  1.5778 -0.6932  0.2682
 6722TIP3    H220131   3.432   4.295   1.438 -2.5584 -0.6803 -0.5627
 6723TIP3   OH220132   0.240   5.790   2.290 -0.1120 -0.9185 -0.2096
 6723TIP3    H120133   0.159   5.764   2.334 -0.3382  0.8081  0.4997
 6723TIP3    H220134   0.210   5.831   2.209 -0.0998  0.7779  0.5805
 6724TIP3   OH220135   1.021   4.486   0.967  0.2248 -0.1651 -0.0214
 6724TIP3    H120136   1.026   4.507   1.060 -0.5272 -0.8572  0.1899
 6724TIP3    H220137   1.036   4.391   0.963  2.1244  0.1265 -0.8036
 6725TIP3   OH220138   3.757   2.025   0.305 -0.0769  0.4837  0.3069
 6725TIP3    H120139   3.802   2.085   0.245 -0.0733  0.9505  0.7653
 6725TIP3    H220140   3.742   1.946   0.253 -1.9444  1.5986 -0.9948
 6726TIP3   OH220141   3.046   6.213   1.373  0.7543 -0.6081  0.2073
 6726TIP3    H120142   3.000   6.276   1.428 -0.6994 -1.5503  0.1324
 6726TIP3    H220143   3.062   6.260   1.291 -0.0349 -0.2333  0.2587
 6727TIP3   OH220144   5.414   0.637   2.700 -0.0233 -0.3051  0.0530
 6727TIP3    H120145   5.445   0.713   2.749 -0.5936  0.5848 -0.9150
 6727TIP3    H220146   5.329   0.664   2.665  0.3117 -0.9383 -1.3230
 6728TIP3   OH220147   5.492   4.155   4.709 -0.1980 -0.4675 -0.0123
 6728TIP3    H120148   5.456   4.070   4.683  0.1446 -0.5545 -0.2021
 6728TIP3    H220149   5.546   4.182   4.635  0.0472 -0.2876  0.2323
 6729TIP3   OH220150   0.113   4.497   3.590  0.0711  0.4221 -0.1133
 6729TIP3    H120151   0.189   4.463   3.543  0.0893  0.5606 -0.1838
 6729TIP3    H220152   0.103   4.439   3.665  0.2966  0.4548 -0.0600
 6730TIP3   OH220153   0.412   1.714   0.304  0.2029 -0.7793  0.0687
 6730TIP3    H120154   0.481   1.780   0.316 -0.3892 -0.2259  0.4714
 6730TIP3    H220155   0.362   1.746   0.229  0.4862 -1.2795 -0.3426
 6731TIP3   OH220156   0.559   3.373   3.711 -0.7179 -0.4434  0.2325
 6731TIP3    H120157   0.608   3.409   3.784 -0.8880  0.3921 -0.0528
 6731TIP3    H220158   0.473   3.352   3.747 -0.2787 -1.5919  0.6528
 6732TIP3   OH220159   1.121   3.439   1.762  0.3333 -0.0203 -0.2115
 6732TIP3    H120160   1.026   3.444   1.765  0.2995  0.4878 -1.4378
 6732TIP3    H220161   1.140   3.351   1.732  0.2137  0.1651 -0.8429
 6733TIP3   OH220162   6.241   2.497   3.645 -0.2147 -0.2470 -0.0079
 6733TIP3    H120163   6.226   2.453   3.728 -2.1995 -0.3050 -0.3643
 6733TIP3    H220164   6.189   2.448   3.581  1.4813 -0.3838 -1.3797
 6734TIP3   OH220165   4.985   5.079   0.993 -0.1898  0.1163 -0.0717
 6734TIP3    H120166   4.954   5.169   1.002  0.3608  0.3386 -0.3547
 6734TIP3    H220167   5.007   5.053   1.083 -0.7792  0.1009  0.0724
 6735TIP3   OH220168   4.971   3.349   4.043 -0.0025 -0.2067 -0.2945
 6735TIP3    H120169   5.025   3.314   4.114 -0.4495  1.5413  0.9882
 6735TIP3    H220170   4.893   3.295   4.043 -0.1791  0.0279  0.8597
 6736TIP3   OH220171   3.122   6.523   1.353  0.0584  0.1830 -0.6945
 6736TIP3    H120172   3.082   6.523   1.439  0.8487  0.6410 -0.3147
 6736TIP3    H220173   3.216   6.519   1.370  0.2138 -0.0753 -1.5422
 6737TIP3   OH220174   6.296   4.710   0.519 -0.3906 -0.2385 -0.3316
 6737TIP3    H120175   6.229   4.686   0.456 -0.4376 -0.4691 -0.1938
 6737TIP3    H220176   6.274   4.661   0.598 -0.4453  0.1942 -0.0741
 6738TIP3   OH220177   7.129   1.928   0.120  0.0874 -0.3181 -0.0293
 6738TIP3    H120178   7.042   1.964   0.104 -0.2114 -0.2307  1.6093
 6738TIP3    H220179   7.127   1.840   0.081 -0.3366  0.1167 -1.0047
 6739TIP3   OH220180   2.060   0.111   1.315  0.8653  1.0125 -0.1785
 6739TIP3    H120181   2.026   0.127   1.403 -0.5021  0.2541 -0.5292
 6739TIP3    H220182   2.013   0.173   1.259 -0.6051 -0.5597 -0.7818
 6740TIP3   OH220183   5.720   5.037   5.213 -0.3610 -0.6891  0.2932
 6740TIP3    H120184   5.644   5.066   5.263  0.1896  0.1808  0.6324
 6740TIP3    H220185   5.780   5.111   5.214  0.1450 -1.0686 -0.6844
 6741TIP3   OH220186   2.138   0.163   4.429  0.1100 -0.3135  0.2680
 6741TIP3    H120187   2.074   0.097   4.456  0.3854 -0.4562  0.5711
 6741TIP3    H220188   2.117   0.180   4.337  0.0693 -0.8650  0.1709
 6742TIP3   OH220189   6.846   1.041   5.062 -0.3224 -0.0434 -0.1324
 6742TIP3    H120190   6.839   1.136   5.075 -0.1715 -0.1403  0.6796
 6742TIP3    H220191   6.895   1.032   4.980 -1.0519  0.5760 -0.6595
 6743TIP3   OH220192   0.623   6.648   4.511  0.1164 -0.4726  0.1585
 6743TIP3    H120193   0.575   6.635   4.592 -1.1728 -0.8652 -0.6425
 6743TIP3    H220194   0.556   6.645   4.442  1.1959 -0.3362 -0.9358
 6744TIP3   OH220195   5.396   6.285   5.898 -0.1467 -0.0351  0.1726
 6744TIP3    H120196   5.382   6.194   5.927 -0.8916 -0.2769 -0.8838
 6744TIP3    H220197   5.464   6.278   5.831 -0.5621  0.1114 -0.2697
 6745TIP3   OH220198   5.914   2.504   0.596 -0.3372  0.5723  0.5191
 6745TIP3    H120199   5.840   2.489   0.655  0.2296  0.2130  1.1464
 6745TIP3    H220200   5.916   2.427   0.540 -1.3297  1.2444 -0.4873
 6746TIP3   OH220201   3.045   3.319   4.920  0.0918 -0.0924 -1.1709
 6746TIP3    H120202   3.082   3.345   5.004  0.1704 -0.3348 -1.1323
 6746TIP3    H220203   3.108   3.256   4.884  0.2817  0.3281 -1.6024
 6747TIP3   OH220204   4.418   2.085   1.683 -0.2564 -0.2684 -0.3417
 6747TIP3    H120205   4.405   2.114   1.773  0.1562  1.1893 -0.7240
 6747TIP3    H220206   4.342   2.120   1.636 -0.7076 -1.4105 -0.4932
 6748TIP3   OH220207   1.061   0.676   4.040 -0.8668  0.0352 -0.7137
 6748TIP3    H120208   1.113   0.730   4.099 -0.6186 -0.3581 -0.5766
 6748TIP3    H220209   1.118   0.660   3.965 -0.6168 -0.7957 -0.3512
 6749TIP3   OH220210   2.007   1.536   4.464  0.5525  0.1535 -0.1737
 6749TIP3    H120211   1.918   1.555   4.435  0.3433  0.3596  0.5842
 6749TIP3    H220212   2.037   1.467   4.405  1.1281  2.3315 -2.6423
 6750TIP3   OH220213   4.114   0.345   1.176  0.1416  0.0202 -0.6313
 6750TIP3    H120214   4.183   0.293   1.134  1.8262  1.3462  0.3918
 6750TIP3    H220215   4.060   0.280   1.221  0.6769 -1.0476 -1.4640
 6751TIP3   OH220216   0.901   2.903   2.298 -0.0360 -1.0559  0.5351
 6751TIP3    H120217   0.879   2.954   2.376 -0.8201 -2.1472  1.0488
 6751TIP3    H220218   0.929   2.968   2.234 -1.5327  0.0792  0.9834
 6752TIP3   OH220219   3.892   1.010   4.833  0.1858 -0.4481 -0.5484
 6752TIP3    H120220   3.808   1.052   4.851  0.8973 -0.1982  2.7730
 6752TIP3    H220221   3.954   1.055   4.890  1.9584 -2.6776 -0.5988
 6753TIP3   OH220222   3.732   1.585   4.959 -0.4765 -0.0915 -0.3607
 6753TIP3    H120223   3.706   1.495   4.978  1.1637 -0.5285 -0.0278
 6753TIP3    H220224   3.742   1.588   4.864 -0.8593 -0.1444 -0.4074
 6754TIP3   OH220225   0.670   0.586   1.599 -0.0193 -0.2662 -0.0584
 6754TIP3    H120226   0.729   0.660   1.585 -0.7839  0.6674  1.3669
 6754TIP3    H220227   0.680   0.532   1.521  1.2617  0.8600 -0.7139
 6755TIP3   OH220228   3.534   3.257   4.243 -0.1101  0.4455 -0.6173
 6755TIP3    H120229   3.500   3.262   4.333 -0.7434 -2.3002 -0.6188
 6755TIP3    H220230   3.629   3.255   4.254 -0.1467  1.0886 -0.0978
 6756TIP3   OH220231   3.945   3.447   3.003  0.9832 -0.0580 -0.0672
 6756TIP3    H120232   3.994   3.412   2.928 -0.3772 -0.9569 -0.5717
 6756TIP3    H220233   3.928   3.538   2.980  1.5251 -0.0205 -0.3462
 6757TIP3   OH220234   6.166   0.960   5.774 -0.3032  0.5617 -0.0282
 6757TIP3    H120235   6.151   0.876   5.730  0.2362  0.3701  0.1458
 6757TIP3    H220236   6.120   1.024   5.719  0.0010  0.2709 -0.6382
 6758TIP3   OH220237   4.326   0.611   1.035 -0.0612 -0.1333 -0.2473
 6758TIP3    H120238   4.328   0.622   0.940  0.3497 -2.8336 -0.6476
 6758TIP3    H220239   4.413   0.636   1.065  0.3296 -0.7550 -0.8306
 6759TIP3   OH220240   3.411   2.139   5.192  0.0240  0.1795 -0.1777
 6759TIP3    H120241   3.334   2.107   5.144  0.7036 -0.7718 -0.6700
 6759TIP3    H220242   3.457   2.194   5.129  0.6689 -0.6904 -0.4910
 6760TIP3   OH220243   2.833   4.415   0.766 -0.0899 -0.5005 -0.0170
 6760TIP3    H120244   2.817   4.492   0.820  1.0571 -1.0389  1.1191
 6760TIP3    H220245   2.926   4.398   0.775 -0.1282 -1.4130 -1.1101
 6761TIP3   OH220246   3.232   5.279   1.296  0.0257  0.2773  0.3960
 6761TIP3    H120247   3.305   5.337   1.274  0.4593 -0.5670 -0.4257
 6761TIP3    H220248   3.245   5.201   1.243 -1.7808  0.3258 -0.1913
 6762TIP3   OH220249   0.908   1.870   1.160 -0.1058 -0.5838  0.5636
 6762TIP3    H120250   0.860   1.790   1.137 -2.0547  0.8841 -0.8302
 6762TIP3    H220251   1.000   1.846   1.151 -0.6557 -1.9985 -2.4680
 6763TIP3   OH220252   6.611   1.543   5.023  0.0163 -0.4442  0.1855
 6763TIP3    H120253   6.635   1.636   5.024  1.3182 -0.7631 -0.0045
 6763TIP3    H220254   6.616   1.515   5.114 -1.0865 -0.1711  0.3448
 6764TIP3   OH220255   2.202   6.647   4.872  0.2558 -0.2185 -0.6446
 6764TIP3    H120256   2.168   6.562   4.846  2.1087 -1.3609  0.4330
 6764TIP3    H220257   2.245   6.681   4.793  1.1495 -1.1820 -0.5990
 6765TIP3   OH220258   2.541   0.546   4.221  0.2422  0.3737 -0.1186
 6765TIP3    H120259   2.455   0.503   4.218 -0.1339  0.9280  1.7502
 6765TIP3    H220260   2.594   0.494   4.161 -1.2776 -0.2326 -1.0154
 6766TIP3   OH220261   5.999   0.530   4.693 -0.0023  0.0288 -0.1914
 6766TIP3    H120262   5.962   0.483   4.768 -0.7084 -0.4436 -0.8283
 6766TIP3    H220263   6.087   0.493   4.683 -0.3428 -0.7362 -0.3319
 6767TIP3   OH220264   3.148   5.034   5.677 -0.4586 -0.0447  0.3975
 6767TIP3    H120265   3.237   5.021   5.711 -0.4674  1.9410  1.3602
 6767TIP3    H220266   3.161   5.059   5.585 -0.3391 -3.8362 -0.7772
 6768TIP3   OH220267   6.981   2.032   3.387 -0.3613  0.6473  0.0797
 6768TIP3    H120268   6.982   2.021   3.482  1.0178  0.0334  0.0263
 6768TIP3    H220269   7.018   1.950   3.353  2.2629  2.0632 -0.7884
 6769TIP3   OH220270   4.358   3.875   5.399 -0.4560 -0.0144 -0.4202
 6769TIP3    H120271   4.432   3.924   5.433 -0.5702  0.4021 -0.7554
 6769TIP3    H220272   4.329   3.926   5.323 -0.3574 -0.7887 -0.9850
 6770TIP3   OH220273   1.166   2.925   0.946  0.1351  0.0129 -0.2973
 6770TIP3    H120274   1.145   2.988   0.877 -0.0645  0.5552  0.2627
 6770TIP3    H220275   1.190   2.845   0.898  2.0288  0.9941 -1.0473
 6771TIP3   OH220276   3.915   6.091   2.332  0.3907  0.0720 -0.4419
 6771TIP3    H120277   3.856   6.098   2.408  0.0285 -1.8099 -0.4863
 6771TIP3    H220278   3.875   6.148   2.266  2.0648  3.7913  1.4681
 6772TIP3   OH220279   4.832   3.998   5.764 -0.5387  0.2062 -0.7367
 6772TIP3    H120280   4.899   4.057   5.799  0.1351 -1.1593  0.4122
 6772TIP3    H220281   4.879   3.942   5.703 -0.2068 -1.7409  1.1689
 6773TIP3   OH220282   5.476   6.426   2.463  0.1697  0.1247 -0.9371
 6773TIP3    H120283   5.449   6.455   2.550  0.2486  0.3750 -0.9948
 6773TIP3    H220284   5.405   6.370   2.433 -0.4271  1.0019 -1.2014
 6774TIP3   OH220285   3.847   2.150   0.534  0.3329 -0.0568 -0.5436
 6774TIP3    H120286   3.821   2.121   0.446  0.1451  1.3937 -0.9932
 6774TIP3    H220287   3.940   2.169   0.526  0.8443 -2.0953  0.1966
 6775TIP3   OH220288   6.115   1.866   5.458  0.4047 -0.0726 -0.2497
 6775TIP3    H120289   6.104   1.896   5.549 -0.8935  0.4435 -0.5493
 6775TIP3    H220290   6.170   1.789   5.465 -0.4924 -0.6355  1.0991
 6776TIP3   OH220291   6.736   5.019   1.264 -0.2559  0.4870 -0.2926
 6776TIP3    H120292   6.649   5.037   1.300 -0.0367 -1.3389  1.3440
 6776TIP3    H220293   6.793   5.081   1.307 -0.0705 -1.3883  2.4099
 6777TIP3   OH220294   5.035   0.201   2.687  0.5564  0.1730  0.2741
 6777TIP3    H120295   4.977   0.127   2.668 -0.0301  1.6624 -5.5523
 6777TIP3    H220296   5.121   0.161   2.702 -0.2266 -1.8104 -0.1911
 6778TIP3   OH220297   6.686   4.842   2.505 -0.0189 -0.4257  0.4144
 6778TIP3    H120298   6.722   4.755   2.518 -0.3113 -0.2811  2.5265
 6778TIP3    H220299   6.760   4.895   2.476  0.4478 -1.0816  0.4029
 6779TIP3   OH220300   2.746   0.256   2.370  0.1051  0.0815  0.2558
 6779TIP3    H120301   2.800   0.219   2.441 -2.4190  0.7576  2.7195
 6779TIP3    H220302   2.809   0.302   2.314  2.5093 -2.3267  0.7425
 6780TIP3   OH220303   1.518   3.127   4.544  0.6139 -0.1143 -0.4590
 6780TIP3    H120304   1.605   3.112   4.507  1.3572 -0.4836  1.3424
 6780TIP3    H220305   1.518   3.220   4.569  0.7891 -0.3054  0.2631
 6781TIP3   OH220306   5.400   3.588   1.016 -0.0879  1.0324 -0.0447
 6781TIP3    H120307   5.438   3.569   0.930  0.1743 -1.5407  0.5559
 6781TIP3    H220308   5.473   3.625   1.066  0.1434  1.2155 -0.5107
 6782TIP3   OH220309   5.088   2.168   4.909  0.6216 -0.6005  0.3776
 6782TIP3    H120310   5.169   2.143   4.865  0.5780 -0.2858  0.1080
 6782TIP3    H220311   5.116   2.202   4.994  0.7825 -0.4262  0.2571
 6783TIP3   OH220312   0.285   2.849   2.065 -0.3425  0.3091 -0.5498
 6783TIP3    H120313   0.242   2.909   2.126  0.0591 -2.3778  2.6842
 6783TIP3    H220314   0.377   2.874   2.067 -0.3780  0.4165 -0.2671
 6784TIP3   OH220315   3.772   5.045   3.259  0.0491 -0.3322  0.0486
 6784TIP3    H120316   3.683   5.047   3.225  0.8442  1.6067 -2.2297
 6784TIP3    H220317   3.795   5.138   3.270  1.8008 -0.7884  0.5732
 6785TIP3   OH220318   2.503   5.991   1.190  0.3788  0.5381 -0.3337
 6785TIP3    H120319   2.483   5.911   1.142 -1.9323  0.7080  0.2251
 6785TIP3    H220320   2.473   5.974   1.280  0.8491  1.6460  0.0568
 6786TIP3   OH220321   4.679   1.597   5.038  0.4157 -0.1254  0.0589
 6786TIP3    H120322   4.690   1.647   5.119 -0.2970  0.6202 -0.2833
 6786TIP3    H220323   4.722   1.650   4.971 -0.0361 -0.1381 -0.2489
 6787TIP3   OH220324   6.945   3.717   2.958  0.1906 -0.1832  0.0111
 6787TIP3    H120325   6.905   3.680   2.879 -0.5455 -1.5198  0.9727
 6787TIP3    H220326   7.033   3.679   2.960  0.8665  1.2264 -1.0597
 6788TIP3   OH220327   0.746   3.977   5.390 -0.1514  0.3052  0.2088
 6788TIP3    H120328   0.664   3.929   5.384  0.6988 -1.1184 -0.4746
 6788TIP3    H220329   0.812   3.917   5.356  1.2971  1.1365  1.4219
 6789TIP3   OH220330   3.013   2.760   4.824  0.0047  0.3251  0.1652
 6789TIP3    H120331   3.085   2.807   4.866 -0.1889  0.9101 -0.1424
 6789TIP3    H220332   3.055   2.709   4.755  0.0604  1.1462 -0.4168
 6790TIP3   OH220333   4.926   4.381   4.330  0.0189  0.0830  0.1954
 6790TIP3    H120334   4.836   4.371   4.299  0.4747 -0.9797 -0.9068
 6790TIP3    H220335   4.919   4.433   4.410 -1.5960 -0.2541  0.3065
 6791TIP3   OH220336   1.431   5.542   5.772  0.2000 -0.3317  0.0856
 6791TIP3    H120337   1.357   5.536   5.833 -1.6011 -1.7995 -2.0481
 6791TIP3    H220338   1.434   5.634   5.748  0.3797  0.1089  1.6784
 6792TIP3   OH220339   2.798   0.969   2.022  0.1003  0.1220  1.0268
 6792TIP3    H120340   2.875   0.940   2.072  1.1359 -0.0242 -0.5841
 6792TIP3    H220341   2.830   1.040   1.967  0.1894 -2.4591 -2.5980
 6793TIP3   OH220342   3.496   5.876   0.942  0.0024 -0.1162 -0.0450
 6793TIP3    H120343   3.538   5.851   1.025  0.6685 -1.6563 -0.8091
 6793TIP3    H220344   3.446   5.798   0.917 -0.9845  0.6886 -0.6082
 6794TIP3   OH220345   5.081   6.076   3.928  0.5602 -0.2462  0.0423
 6794TIP3    H120346   5.049   5.985   3.927  0.7182 -0.2981 -0.9237
 6794TIP3    H220347   5.055   6.111   3.843 -0.8857  1.1190  0.9897
 6795TIP3   OH220348   1.165   0.933   1.050 -0.0535 -0.2635 -0.2800
 6795TIP3    H120349   1.155   0.989   1.127 -0.6079 -0.4009 -0.2425
 6795TIP3    H220350   1.227   0.980   0.994 -0.1067  0.1317 -0.0166
 6796TIP3   OH220351   2.855   3.145   2.907 -0.1625  0.0628  0.6872
 6796TIP3    H120352   2.925   3.095   2.949 -0.5096 -0.7835  0.2592
 6796TIP3    H220353   2.780   3.135   2.964 -0.8405 -1.6702 -0.4369
 6797TIP3   OH220354   2.369   3.415   1.333 -0.2953  0.5823 -0.1692
 6797TIP3    H120355   2.307   3.478   1.370 -0.6043  1.3286 -1.8812
 6797TIP3    H220356   2.430   3.397   1.405  1.0219  4.3889 -0.1032
 6798TIP3   OH220357   4.658   4.347   1.791  0.4474 -0.5056  0.2478
 6798TIP3    H120358   4.673   4.371   1.699 -1.3766 -1.9078 -0.4951
 6798TIP3    H220359   4.688   4.257   1.797  2.1087  0.0867  1.5316
 6799TIP3   OH220360   5.691   6.327   3.817 -0.6335 -0.7591  0.3055
 6799TIP3    H120361   5.673   6.384   3.742  2.0475  0.6115  0.5567
 6799TIP3    H220362   5.623   6.349   3.881 -0.4035  1.3468 -0.0819
 6800TIP3   OH220363   3.390   5.089   2.863  0.3842 -0.3677 -0.6649
 6800TIP3    H120364   3.394   4.995   2.844 -0.0933 -1.0831  2.3181
 6800TIP3    H220365   3.433   5.130   2.788  3.1430 -3.1152 -0.7829
 6801TIP3   OH220366   3.192   5.834   1.203  0.0983 -0.1954  0.3280
 6801TIP3    H120367   3.185   5.865   1.293 -0.3000 -1.1918  0.6493
 6801TIP3    H220368   3.193   5.915   1.150 -0.3185  0.3808  1.1727
 6802TIP3   OH220369   6.131   1.717   3.083  0.4420  0.0933 -0.3197
 6802TIP3    H120370   6.103   1.638   3.128  0.4180 -0.2982 -1.0187
 6802TIP3    H220371   6.068   1.728   3.012  1.9661 -0.7465 -1.8564
 6803TIP3   OH220372   0.634   2.277   1.129 -0.0651 -0.0497  0.6002
 6803TIP3    H120373   0.706   2.293   1.189  1.2948 -3.2307  0.0124
 6803TIP3    H220374   0.616   2.362   1.089  3.3704  0.8773  0.7643
 6804TIP3   OH220375   4.601   3.758   1.766 -0.1793 -0.0590 -0.5782
 6804TIP3    H120376   4.678   3.809   1.793 -1.1416  1.2683 -0.1923
 6804TIP3    H220377   4.603   3.681   1.822  0.4848  0.3159 -0.0618
 6805TIP3   OH220378   6.888   4.914   0.753  0.0603 -0.9052 -0.1568
 6805TIP3    H120379   6.802   4.941   0.786  1.0196  0.6625  1.2197
 6805TIP3    H220380   6.949   4.938   0.823  1.7122 -1.3627 -1.3784
 6806TIP3   OH220381   6.773   0.753   0.631  0.0849  0.0541  0.0619
 6806TIP3    H120382   6.685   0.776   0.661 -0.7347 -0.6926 -1.6682
 6806TIP3    H220383   6.831   0.784   0.701 -1.5212  0.7648  1.1268
 6807TIP3   OH220384   3.869   0.024   3.946  0.6232  0.0098 -0.0539
 6807TIP3    H120385   3.959  -0.002   3.924 -0.2168 -2.6540 -0.6328
 6807TIP3    H220386   3.870   0.037   4.041  1.3346 -1.3396  0.1422
 6808TIP3   OH220387   3.710   5.166   3.632 -0.4020 -0.2092 -0.4428
 6808TIP3    H120388   3.763   5.245   3.647  0.4178 -0.7763 -0.2868
 6808TIP3    H220389   3.627   5.199   3.597 -0.9302  0.9053  1.6779
 6809TIP3   OH220390   0.725   5.504   5.361 -0.1434  0.3294  0.2460
 6809TIP3    H120391   0.678   5.533   5.440 -2.5956 -2.2887 -0.0963
 6809TIP3    H220392   0.794   5.448   5.395 -0.4538  0.1408  0.5822
 6810TIP3   OH220393   7.065   1.461   2.550 -0.1470 -0.5796  0.2347
 6810TIP3    H120394   7.020   1.448   2.466 -0.1396  0.2630  0.0924
 6810TIP3    H220395   7.077   1.373   2.584  0.6357 -1.0112 -1.0642
 6811TIP3   OH220396   5.084   6.345   0.554  0.2460  0.4133 -0.1091
 6811TIP3    H120397   5.046   6.269   0.596 -3.3663  0.2462 -3.2203
 6811TIP3    H220398   5.171   6.354   0.594 -0.8870 -2.5890  3.5078
 6812TIP3   OH220399   4.908   1.069   5.490  0.2104 -0.1608 -0.2483
 6812TIP3    H120400   4.945   1.106   5.410  0.6425 -2.1087 -0.9976
 6812TIP3    H220401   4.818   1.102   5.491  0.6671  1.1545 -0.6919
 6813TIP3   OH220402   2.600   6.266   3.296 -0.0895  0.2926  0.5323
 6813TIP3    H120403   2.576   6.175   3.276  2.7162 -0.3453 -0.5191
 6813TIP3    H220404   2.520   6.316   3.281 -1.3615 -1.8346 -0.2265
 6814TIP3   OH220405   3.173   1.831   0.155  0.4325 -0.1281 -0.2641
 6814TIP3    H120406   3.197   1.752   0.202 -0.0657 -1.0543 -1.5110
 6814TIP3    H220407   3.105   1.872   0.210  0.9270 -0.3784  0.5444
 6815TIP3   OH220408   6.854   2.144   2.868 -0.0531  0.2920  0.4507
 6815TIP3    H120409   6.851   2.239   2.851  0.6435  0.2879  0.2936
 6815TIP3    H220410   6.885   2.138   2.959  1.3260  0.1887 -0.0072
 6816TIP3   OH220411   6.247   3.837   4.118 -0.5266 -0.0596 -0.0381
 6816TIP3    H120412   6.172   3.877   4.075 -1.5160  1.1101  2.5856
 6816TIP3    H220413   6.209   3.774   4.179  0.5207  0.9353  1.7245
 6817TIP3   OH220414   5.418   2.352   2.229 -0.2251  0.0315 -0.0627
 6817TIP3    H120415   5.330   2.366   2.194 -1.0090 -1.3722  1.2055
 6817TIP3    H220416   5.429   2.421   2.294 -0.5235  0.0473 -0.0269
 6818TIP3   OH220417   1.798   3.100   2.825  0.2336 -1.1741 -0.2395
 6818TIP3    H120418   1.884   3.140   2.828 -0.4745  0.3818  0.7488
 6818TIP3    H220419   1.741   3.168   2.790 -1.1683 -0.8898  2.3261
 6819TIP3   OH220420   3.143   0.614   4.217 -0.3432  0.0659  0.1524
 6819TIP3    H120421   3.167   0.674   4.147 -1.0210 -0.5834 -0.6507
 6819TIP3    H220422   3.146   0.667   4.297 -1.1561  1.2287 -0.5669
 6820TIP3   OH220423   2.212   6.630   3.830  0.0561  0.8209  0.2507
 6820TIP3    H120424   2.254   6.705   3.788  0.7524 -0.0870 -0.7334
 6820TIP3    H220425   2.183   6.574   3.757  1.5986 -0.9572  0.9063
 6821TIP3   OH220426   2.968   6.659   1.588  0.0909 -0.4680  0.3106
 6821TIP3    H120427   2.963   6.722   1.517  0.1445 -0.7313  0.0714
 6821TIP3    H220428   3.013   6.705   1.659 -2.1509  0.6648  1.0976
 6822TIP3   OH220429   0.305   4.060   2.116  0.4500  0.1920 -0.4977
 6822TIP3    H120430   0.358   3.990   2.153  0.7282  0.1821 -0.9024
 6822TIP3    H220431   0.368   4.124   2.084  0.2650 -0.2584 -1.8358
 6823TIP3   OH220432   2.043   5.411   5.597  0.3873 -0.6816  0.2041
 6823TIP3    H120433   2.117   5.438   5.541 -0.7223  0.0112 -0.9910
 6823TIP3    H220434   2.025   5.321   5.571 -1.2301  0.1712 -1.9038
 6824TIP3   OH220435   1.039   2.631   1.064 -0.0152 -0.5611 -0.1852
 6824TIP3    H120436   1.127   2.596   1.058  0.7631  1.2458  0.1841
 6824TIP3    H220437   1.017   2.627   1.157  0.3226  0.4585 -0.0526
 6825TIP3   OH220438   2.901   0.063   5.040  0.1994  0.3181  0.6552
 6825TIP3    H120439   2.872   0.149   5.009  1.0499  0.3719 -0.0186
 6825TIP3    H220440   2.958   0.083   5.114  2.6471  0.5604 -1.1615
 6826TIP3   OH220441   2.780   6.386   1.946 -0.0552 -0.1130 -0.0459
 6826TIP3    H120442   2.760   6.470   1.903  1.7744  0.2427 -0.2922
 6826TIP3    H220443   2.876   6.384   1.950  0.0072 -2.7476 -1.1579
 6827TIP3   OH220444   6.429   1.803   2.595  0.0115  0.5903 -0.1526
 6827TIP3    H120445   6.391   1.854   2.667 -1.4869 -0.8779  0.1604
 6827TIP3    H220446   6.463   1.724   2.637 -2.8538 -1.3539 -1.1883
 6828TIP3   OH220447   0.405   4.485   5.441  0.1974  0.0887  0.5589
 6828TIP3    H120448   0.327   4.462   5.390  0.4980 -0.7035  0.4293
 6828TIP3    H220449   0.450   4.401   5.454  2.4140  0.8305 -1.6609
 6829TIP3   OH220450   2.905   5.131   4.630 -1.1701  0.5721  0.1531
 6829TIP3    H120451   2.983   5.186   4.621  0.0750 -1.1847 -0.1203
 6829TIP3    H220452   2.837   5.178   4.581  0.0821  1.4322 -0.8260
 6830TIP3   OH220453   1.907   3.902   5.449 -0.2967 -0.0939 -0.1162
 6830TIP3    H120454   1.814   3.897   5.473 -0.1420 -1.3629  0.2724
 6830TIP3    H220455   1.952   3.919   5.532 -0.0624 -0.9443 -0.0635
 6831TIP3   OH220456   4.118   3.757   1.174 -0.2610  0.2202 -0.0115
 6831TIP3    H120457   4.185   3.802   1.225 -0.4335  0.8414 -0.3177
 6831TIP3    H220458   4.162   3.680   1.139  0.9594  1.7168 -1.9935
 6832TIP3   OH220459   0.498   2.268   4.355 -0.2131  0.0544  0.4205
 6832TIP3    H120460   0.586   2.251   4.388 -0.1956  0.4668  0.5885
 6832TIP3    H220461   0.484   2.201   4.288  0.0789 -0.2480  0.6651
 6833TIP3   OH220462   5.131   5.893   1.055  0.1487  0.3567  0.0766
 6833TIP3    H120463   5.192   5.827   1.022 -1.0120 -1.1610  0.8689
 6833TIP3    H220464   5.187   5.963   1.089  1.4029  0.3800 -1.8384
 6834TIP3   OH220465   1.500   2.622   5.676 -0.5673 -0.1388  0.3111
 6834TIP3    H120466   1.593   2.613   5.697 -0.2338  3.3001  0.9986
 6834TIP3    H220467   1.499   2.659   5.588 -1.4287 -1.8836 -0.4568
 6835TIP3   OH220468   3.486   4.612   0.198 -0.1888 -0.2755  0.9178
 6835TIP3    H120469   3.521   4.644   0.282 -0.0394 -0.4311  0.9154
 6835TIP3    H220470   3.563   4.579   0.151  0.2919  2.7319 -0.6449
 6836TIP3   OH220471   4.711   0.238   2.491  0.5255  0.4595 -0.2418
 6836TIP3    H120472   4.717   0.297   2.566  0.3552  1.6917 -1.1635
 6836TIP3    H220473   4.659   0.164   2.523  2.4518 -0.2244  1.5485
 6837TIP3   OH220474   5.403   3.222   4.257 -0.1968 -0.3446 -0.8312
 6837TIP3    H120475   5.467   3.163   4.297 -0.6508 -0.4815 -0.2995
 6837TIP3    H220476   5.439   3.310   4.271 -0.1393 -0.4191 -0.5194
 6838TIP3   OH220477   2.397   5.824   0.552 -0.4606  0.1838  0.2229
 6838TIP3    H120478   2.305   5.824   0.524 -0.7092 -0.7745  0.9667
 6838TIP3    H220479   2.447   5.819   0.471 -1.0416  1.1736 -0.2178
 6839TIP3   OH220480   3.260   0.086   4.867 -0.3951  0.1801  0.0787
 6839TIP3    H120481   3.224   0.012   4.916  1.3105  0.1821  1.4600
 6839TIP3    H220482   3.255   0.060   4.775  2.5034 -2.9065  0.5939
 6840TIP3   OH220483   3.094   2.185   5.779  0.3596  0.3235 -0.4463
 6840TIP3    H120484   3.167   2.247   5.786 -0.3267  1.0891  0.0611
 6840TIP3    H220485   3.107   2.126   5.853  0.7745  0.1088 -0.6839
 6841TIP3   OH220486   5.588   0.177   4.229  0.0176  0.2210 -0.2477
 6841TIP3    H120487   5.588   0.182   4.324 -1.9821  1.1120 -0.2579
 6841TIP3    H220488   5.681   0.168   4.206  0.5913  0.5452  1.7313
 6842TIP3   OH220489   2.738   4.117   1.160  0.2339 -0.3764 -0.2217
 6842TIP3    H120490   2.775   4.157   1.239 -1.5787 -1.7598  1.4118
 6842TIP3    H220491   2.781   4.164   1.088  1.2342  1.6254  1.5477
 6843TIP3   OH220492   4.320   1.453   5.767  0.9371  0.5982 -0.9415
 6843TIP3    H120493   4.338   1.538   5.726  1.9673  0.3094 -1.1051
 6843TIP3    H220494   4.345   1.466   5.859  0.9253  0.5248 -0.9285
 6844TIP3   OH220495   6.497   0.055   0.543 -0.2640  0.0132 -0.3193
 6844TIP3    H120496   6.518   0.029   0.453  1.2608 -0.6112  0.1971
 6844TIP3    H220497   6.449  -0.020   0.578 -1.6849  0.6264 -0.8665
 6845TIP3   OH220498   0.958   4.973   3.098  0.1621  0.9789  0.0680
 6845TIP3    H120499   1.042   4.994   3.059  0.8433 -0.0788  0.8951
 6845TIP3    H220500   0.978   4.906   3.164 -1.0432  2.0836  1.6240
 6846TIP3   OH220501   3.293   2.837   3.798 -0.5796 -0.1744 -0.3751
 6846TIP3    H120502   3.235   2.882   3.859  0.9047 -0.9312  1.7018
 6846TIP3    H220503   3.367   2.896   3.787 -0.2871 -0.5614 -0.5174
 6847TIP3   OH220504   4.826   3.247   1.340  0.2372  0.2555  0.4394
 6847TIP3    H120505   4.827   3.296   1.422 -0.8792 -0.9186  1.1757
 6847TIP3    H220506   4.817   3.156   1.366  2.9611 -0.5028 -0.8609
 6848TIP3   OH220507   7.140   3.440   1.469 -1.0206 -0.2233 -0.3202
 6848TIP3    H120508   7.129   3.487   1.386  0.9967  1.7724  0.4367
 6848TIP3    H220509   7.114   3.503   1.536  1.0799 -0.3516  0.7012
 6849TIP3   OH220510   6.586   4.499   3.556 -0.1183  0.2800 -0.4576
 6849TIP3    H120511   6.600   4.407   3.532  1.5999  0.2637  0.4493
 6849TIP3    H220512   6.534   4.495   3.637 -0.6302  0.1464 -0.7867
 6850TIP3   OH220513   3.398   4.941   5.746  0.4252 -0.3647  0.1486
 6850TIP3    H120514   3.457   4.947   5.821  0.7822 -0.9332 -0.0786
 6850TIP3    H220515   3.354   4.857   5.758  0.1007 -0.2176 -0.0059
 6851TIP3   OH220516   7.111   2.287   0.447  0.5964  0.8290  0.7513
 6851TIP3    H120517   7.139   2.275   0.357  1.8197  1.7154  0.9694
 6851TIP3    H220518   7.017   2.301   0.442  0.3824 -0.7968 -0.2029
 6852TIP3   OH220519   3.410   0.892   5.632  0.0641  0.4553 -0.0156
 6852TIP3    H120520   3.484   0.934   5.676 -0.3151  0.9037  0.2068
 6852TIP3    H220521   3.450   0.829   5.572  0.6150  0.4604  0.3362
 6853TIP3   OH220522   0.364   3.306   1.435 -0.5008  0.6789  0.8159
 6853TIP3    H120523   0.411   3.227   1.406  0.2715  0.4009  2.7078
 6853TIP3    H220524   0.276   3.275   1.454 -1.0730  0.8955 -1.2525
 6854TIP3   OH220525   2.267   2.577   3.619  0.0974  0.2347 -0.3046
 6854TIP3    H120526   2.207   2.567   3.693  0.9344  1.4069  0.5812
 6854TIP3    H220527   2.313   2.493   3.613  0.5961  0.3878  1.0579
 6855TIP3   OH220528   0.222   3.110   5.328 -0.0398  0.0133  0.1228
 6855TIP3    H120529   0.303   3.102   5.278 -0.0967 -0.7092  0.1428
 6855TIP3    H220530   0.214   3.028   5.376 -0.6471  0.1840  0.3341
 6856TIP3   OH220531   1.684   2.383   4.530  0.0727 -0.0263  0.6017
 6856TIP3    H120532   1.731   2.318   4.582 -0.0713 -0.6724 -0.0559
 6856TIP3    H220533   1.747   2.453   4.516  0.4937 -0.3931  0.6338
 6857TIP3   OH220534   4.980   4.665   1.166 -0.1637  0.4498 -0.0086
 6857TIP3    H120535   4.973   4.734   1.232 -1.8437  2.8010 -2.4282
 6857TIP3    H220536   4.978   4.712   1.082 -1.8294 -2.5530 -1.8077
 6858TIP3   OH220537   4.294   4.518   5.275 -0.7835 -0.0387  0.1253
 6858TIP3    H120538   4.251   4.473   5.348  2.1477 -3.5095 -0.0144
 6858TIP3    H220539   4.253   4.482   5.197 -1.3944  0.9244 -0.0202
 6859TIP3   OH220540   2.563   4.902   5.530  0.0688  0.2633 -0.2099
 6859TIP3    H120541   2.652   4.869   5.540 -0.2586 -1.2436 -1.7128
 6859TIP3    H220542   2.545   4.948   5.611  1.3543 -1.4830  1.1466
 6860TIP3   OH220543   5.003   6.776   4.454 -0.0290 -0.3754  0.7249
 6860TIP3    H120544   4.994   6.782   4.359 -0.6956 -1.3456  0.7165
 6860TIP3    H220545   5.068   6.707   4.468  1.1250  0.7179  0.9654
 6861TIP3   OH220546   5.104   0.644   1.228  0.1769  0.1176  0.2083
 6861TIP3    H120547   5.169   0.608   1.167 -0.2407 -0.2142 -0.0472
 6861TIP3    H220548   5.066   0.567   1.270 -0.2247  0.2958  0.1758
 6862TIP3   OH220549   4.694   0.933   3.982 -0.7711  0.6664 -0.2024
 6862TIP3    H120550   4.695   0.941   4.077 -1.3390 -1.2998  0.0089
 6862TIP3    H220551   4.787   0.939   3.956 -0.7160  2.5657  0.2913
 6863TIP3   OH220552   5.773   2.888   1.721 -0.0083 -0.0022 -0.4046
 6863TIP3    H120553   5.802   2.799   1.743  1.3001  0.7041  0.9107
 6863TIP3    H220554   5.679   2.887   1.736  0.2840 -0.6158  1.7248
 6864TIP3   OH220555   6.942   4.430   4.922 -0.2267 -0.0876 -0.4415
 6864TIP3    H120556   6.929   4.485   4.999 -2.6462  1.4110 -1.7810
 6864TIP3    H220557   6.889   4.352   4.939  0.4021 -0.4154  0.0126
 6865TIP3   OH220558   3.036   0.150   0.748  0.0652  0.3621  0.4369
 6865TIP3    H120559   2.961   0.183   0.799 -0.5000  0.7331 -0.5987
 6865TIP3    H220560   3.008   0.064   0.717 -0.3046  0.8753 -0.6936
 6866TIP3   OH220561   5.844   5.504   3.480 -0.1490  0.3193  0.5805
 6866TIP3    H120562   5.889   5.421   3.497  0.0313  0.0793 -0.8955
 6866TIP3    H220563   5.901   5.571   3.517  0.0880 -0.1707  1.1087
 6867TIP3   OH220564   4.113   6.788   3.401 -0.7171  0.1525  0.2396
 6867TIP3    H120565   4.128   6.820   3.490  0.4025  0.1561  0.0626
 6867TIP3    H220566   4.121   6.693   3.408 -0.4691  0.1647  0.1106
 6868TIP3   OH220567   0.484   4.834   3.252 -0.3971  0.0891 -0.2761
 6868TIP3    H120568   0.554   4.783   3.213 -0.3543  1.0564 -1.5529
 6868TIP3    H220569   0.497   4.923   3.217 -1.6290  0.5162  0.2862
 6869TIP3   OH220570   3.248   0.081   1.468 -0.1418  0.2900 -0.4986
 6869TIP3    H120571   3.191   0.025   1.521  0.5275 -0.3076 -0.4019
 6869TIP3    H220572   3.201   0.090   1.385 -0.1096 -0.6900 -0.6359
 6870TIP3   OH220573   6.630   2.599   0.335  0.0917 -0.0599  0.3853
 6870TIP3    H120574   6.649   2.591   0.428  1.7915  1.2788  0.2069
 6870TIP3    H220575   6.703   2.650   0.300 -2.0396  2.2326 -1.1066
 6871TIP3   OH220576   1.118   5.771   4.888  0.1166 -0.2473  0.0144
 6871TIP3    H120577   1.154   5.836   4.947 -1.8345  1.3612 -0.4349
 6871TIP3    H220578   1.109   5.692   4.941  3.1726 -0.4650  0.3942
 6872TIP3   OH220579   6.785   1.894   4.438 -0.0646  0.6766  0.1589
 6872TIP3    H120580   6.851   1.907   4.506  1.8410 -1.0710 -1.2516
 6872TIP3    H220581   6.714   1.848   4.483  1.3454 -0.8494  0.9507
 6873TIP3   OH220582   4.094   3.112   4.432 -0.1240 -0.5628  0.3415
 6873TIP3    H120583   4.175   3.087   4.477 -1.0488 -0.1879  2.3250
 6873TIP3    H220584   4.025   3.096   4.497 -1.6431 -0.7173 -1.2334
 6874TIP3   OH220585   2.717   1.907   1.112  0.0099  0.3011 -0.5270
 6874TIP3    H120586   2.627   1.873   1.112 -0.0289  0.3298 -1.9788
 6874TIP3    H220587   2.707   2.002   1.110  0.0556  0.3002 -0.9802
 6875TIP3   OH220588   6.522   1.318   3.510  0.1824 -0.2188 -0.4009
 6875TIP3    H120589   6.554   1.345   3.424  0.1163  1.2496  0.0100
 6875TIP3    H220590   6.428   1.306   3.499 -0.0153  1.0658 -0.3053
 6876TIP3   OH220591   5.086   5.413   3.309  0.1177 -0.0452 -0.4664
 6876TIP3    H120592   5.026   5.477   3.346 -2.1540 -1.4192 -1.5617
 6876TIP3    H220593   5.087   5.342   3.373  2.0882  0.6921  0.4105
 6877TIP3   OH220594   5.190   5.666   2.066  0.2902 -0.1376 -0.0340
 6877TIP3    H120595   5.103   5.625   2.059  0.6716 -0.7881 -1.2292
 6877TIP3    H220596   5.250   5.592   2.075  0.9603  0.1379 -1.8471
 6878TIP3   OH220597   4.420   4.222   5.443  0.4476  0.4570  0.2245
 6878TIP3    H120598   4.346   4.172   5.478 -0.6842  0.9886 -1.3165
 6878TIP3    H220599   4.481   4.229   5.517 -1.1255  0.2023  1.6059
 6879TIP3   OH220600   5.133   5.356   4.687 -0.0388 -0.3539  0.7995
 6879TIP3    H120601   5.045   5.385   4.663 -0.8867 -1.5248  2.3654
 6879TIP3    H220602   5.180   5.351   4.603 -0.8632  2.0596  0.1144
 6880TIP3   OH220603   3.742   4.789   4.066 -0.2393  0.5244 -0.0264
 6880TIP3    H120604   3.793   4.868   4.083 -0.2641  0.8805 -1.4887
 6880TIP3    H220605   3.661   4.819   4.026 -0.4369 -0.2096 -0.2059
 6881TIP3   OH220606   4.694   5.004   4.175 -0.2394  0.2529 -0.2308
 6881TIP3    H120607   4.735   5.078   4.130  1.2568  0.4614  1.3704
 6881TIP3    H220608   4.738   4.927   4.139 -0.4945  0.2697 -0.5816
 6882TIP3   OH220609   3.700   3.718   3.283 -0.0787 -0.1048 -0.0311
 6882TIP3    H120610   3.722   3.639   3.333  4.3062 -1.3914 -3.3844
 6882TIP3    H220611   3.628   3.690   3.226  0.1786 -1.1354  0.1237
 6883TIP3   OH220612   7.112   2.246   1.198  0.0792 -0.0521 -0.8170
 6883TIP3    H120613   7.087   2.316   1.258 -0.8716 -0.9433 -0.1414
 6883TIP3    H220614   7.130   2.290   1.116 -0.5237  0.9891 -0.4051
 6884TIP3   OH220615   2.598   5.181   2.916  0.0108  0.1487  0.1770
 6884TIP3    H120616   2.659   5.195   2.989  0.8143  1.0656 -0.6499
 6884TIP3    H220617   2.532   5.121   2.952  0.0434  1.0388  1.8494
 6885TIP3   OH220618   2.684   6.597   3.591  0.1773  0.5349 -0.7007
 6885TIP3    H120619   2.626   6.640   3.527 -0.1172  1.8520  0.4040
 6885TIP3    H220620   2.757   6.658   3.602 -0.5417  1.1141  1.3494
 6886TIP3   OH220621   3.552   0.180   4.365  0.0673  0.2521 -0.6596
 6886TIP3    H120622   3.527   0.121   4.436 -1.4417 -0.1387 -1.4851
 6886TIP3    H220623   3.493   0.254   4.374  0.7679  0.8244 -0.7171
 6887TIP3   OH220624   0.503   6.667   3.636  0.3010  0.1526  0.0851
 6887TIP3    H120625   0.472   6.711   3.557 -1.4216  0.1618  0.7208
 6887TIP3    H220626   0.570   6.606   3.605  0.6368  1.1266 -1.1796
 6888TIP3   OH220627   6.781   2.604   2.291 -0.1594 -0.0894  0.5307
 6888TIP3    H120628   6.728   2.585   2.213 -0.5909  2.5032  0.0972
 6888TIP3    H220629   6.871   2.585   2.264 -0.3402  0.4452 -0.4891
 6889TIP3   OH220630   0.222   4.865   5.659  0.6741  0.7722  0.0393
 6889TIP3    H120631   0.166   4.813   5.602  0.5783  0.3079  0.5540
 6889TIP3    H220632   0.239   4.945   5.609 -0.4624  0.9287 -0.1208
 6890TIP3   OH220633   5.814   2.001   0.236 -0.5724 -0.2396 -0.5283
 6890TIP3    H120634   5.802   1.917   0.193 -2.1355 -0.9277  1.1154
 6890TIP3    H220635   5.777   1.989   0.324  1.8858  1.2362  0.8468
 6891TIP3   OH220636   7.108   2.991   4.364  0.3245  0.2500 -0.2985
 6891TIP3    H120637   7.146   2.935   4.296  1.5003  1.7151 -0.9124
 6891TIP3    H220638   7.023   3.017   4.330  0.1046 -0.5259 -0.3526
 6892TIP3   OH220639   5.616   5.967   4.863 -0.2259 -0.3205  0.3333
 6892TIP3    H120640   5.559   5.906   4.910  0.0984 -1.6920 -0.9397
 6892TIP3    H220641   5.560   6.004   4.795 -0.1296 -0.0790  0.3859
 6893TIP3   OH220642   2.316   6.078   3.769 -0.5219 -0.0938  0.0829
 6893TIP3    H120643   2.335   6.138   3.696 -0.3996 -0.4542 -0.1851
 6893TIP3    H220644   2.369   6.110   3.841 -1.0928  0.6319  0.1990
 6894TIP3   OH220645   2.925   0.929   2.800  0.1882  0.2213  0.3336
 6894TIP3    H120646   3.002   0.980   2.825  1.2286 -1.8648  1.5917
 6894TIP3    H220647   2.960   0.858   2.747 -0.7227 -1.2259  1.6077
 6895TIP3   OH220648   3.570   0.578   2.732 -0.3679 -0.6217 -0.0231
 6895TIP3    H120649   3.611   0.505   2.778 -0.1186 -0.6756 -0.3204
 6895TIP3    H220650   3.530   0.538   2.655  0.2534 -0.3733 -0.4854
 6896TIP3   OH220651   3.464   4.604   5.793  0.7109  0.1732  0.4665
 6896TIP3    H120652   3.497   4.641   5.711  2.6317 -2.1503  0.1098
 6896TIP3    H220653   3.369   4.607   5.784  0.8680  1.1986 -1.2327
 6897TIP3   OH220654   0.465   5.642   4.066  0.0156  0.0026  0.2875
 6897TIP3    H120655   0.441   5.558   4.027  1.0724  0.5074 -1.5961
 6897TIP3    H220656   0.539   5.672   4.014 -0.6986  2.3954  0.5305
 6898TIP3   OH220657   5.893   5.322   0.283 -0.0729  0.6501 -0.0546
 6898TIP3    H120658   5.852   5.248   0.238  1.6915  0.2893 -1.1757
 6898TIP3    H220659   5.865   5.399   0.234 -2.0930  0.8268  1.2465
 6899TIP3   OH220660   1.015   6.524   1.766  0.2715 -0.3893  0.1993
 6899TIP3    H120661   0.941   6.572   1.729  0.1728 -0.6714  0.0260
 6899TIP3    H220662   1.069   6.500   1.690  1.7240  1.7063  0.4725
 6900TIP3   OH220663   5.115   6.337   1.764 -0.0207 -0.2190  0.1145
 6900TIP3    H120664   5.155   6.421   1.786  0.1188  0.1851 -1.5675
 6900TIP3    H220665   5.179   6.272   1.793  1.5324  0.3984 -1.7528
 6901TIP3   OH220666   6.126   5.206   5.712 -0.1342  0.5190 -0.0634
 6901TIP3    H120667   6.130   5.115   5.683 -0.6327 -0.0571  1.5433
 6901TIP3    H220668   6.056   5.244   5.660  0.5086  0.1845 -1.2165
 6902TIP3   OH220669   4.894   5.411   5.303  0.3195 -0.1958  0.2598
 6902TIP3    H120670   4.890   5.434   5.396  0.2839 -2.2187  0.7990
 6902TIP3    H220671   4.942   5.328   5.300 -1.2801 -1.1500 -1.3347
 6903TIP3   OH220672   4.902   0.721   5.491 -0.4812 -0.4331 -0.4287
 6903TIP3    H120673   4.860   0.786   5.436  0.2764  0.3817 -0.0790
 6903TIP3    H220674   4.847   0.716   5.569 -1.3982 -1.3825 -1.1018
 6904TIP3   OH220675   0.833   6.500   3.136 -0.1198 -0.0001  0.1248
 6904TIP3    H120676   0.775   6.572   3.112 -2.0097 -1.4589  0.0755
 6904TIP3    H220677   0.921   6.535   3.125 -0.9280  2.8556  1.7680
 6905TIP3   OH220678   4.983   4.480   2.050  0.3281  0.1906 -0.3726
 6905TIP3    H120679   4.932   4.498   2.130  0.3860 -2.5702  0.3932
 6905TIP3    H220680   4.932   4.522   1.980 -1.6976 -0.3625  0.6760
 6906TIP3   OH220681   6.248   4.196   5.861  0.2823 -0.0094 -0.3227
 6906TIP3    H120682   6.264   4.101   5.862 -1.4827 -0.3448  1.7332
 6906TIP3    H220683   6.331   4.234   5.890  0.4721 -1.0666  0.5913
 6907TIP3   OH220684   6.946   3.877   4.524  0.3133 -0.1012  0.4129
 6907TIP3    H120685   6.881   3.835   4.467 -0.7374 -1.7439  2.6595
 6907TIP3    H220686   7.028   3.831   4.504 -0.0631 -0.7310  0.2880
 6908TIP3   OH220687   4.809   3.868   0.069 -0.3728 -0.3806  0.0232
 6908TIP3    H120688   4.883   3.846   0.013 -0.5283  0.2132 -0.4220
 6908TIP3    H220689   4.784   3.956   0.043  0.9058  0.8262  2.4595
 6909TIP3   OH220690   6.610   4.721   1.343  0.1565  0.3444  0.2254
 6909TIP3    H120691   6.594   4.626   1.344  1.2199  0.1021 -1.1112
 6909TIP3    H220692   6.526   4.760   1.364 -0.3235 -0.9009  0.7429
 6910TIP3   OH220693   2.730   1.110   5.145  0.4142  0.3909  0.3182
 6910TIP3    H120694   2.752   1.200   5.172 -1.1831  0.4416  1.6292
 6910TIP3    H220695   2.692   1.119   5.058  0.7773  0.9192  0.2124
 6911TIP3   OH220696   3.047   4.428   0.953 -0.1763 -0.3708  0.0244
 6911TIP3    H120697   3.037   4.439   1.048 -0.8910 -1.4132  0.0886
 6911TIP3    H220698   3.135   4.461   0.934 -0.8995  2.1294  0.6485
 6912TIP3   OH220699   4.376   2.846   0.135 -0.0043  0.0183  0.4675
 6912TIP3    H120700   4.341   2.896   0.062 -0.0481 -1.4426 -0.5399
 6912TIP3    H220701   4.411   2.913   0.195  0.2614  1.2378 -0.9840
 6913TIP3   OH220702   2.465   4.735   0.569 -0.1243 -0.3361  0.8633
 6913TIP3    H120703   2.414   4.798   0.620 -2.1093 -1.0704 -0.1043
 6913TIP3    H220704   2.522   4.788   0.514 -1.0213  0.6019  0.8168
 6914TIP3   OH220705   5.633   5.616   0.948  0.3510  0.0676 -0.4283
 6914TIP3    H120706   5.588   5.655   0.873  0.1375 -0.5459 -0.6184
 6914TIP3    H220707   5.580   5.540   0.971  0.2287  0.4281  0.5516
 6915TIP3   OH220708   3.970   4.889   1.544 -0.0585  0.2770 -0.1681
 6915TIP3    H120709   3.935   4.814   1.496  1.2226 -0.0131 -0.7007
 6915TIP3    H220710   3.995   4.854   1.629 -0.6855  0.4038  0.0745
 6916TIP3   OH220711   0.197   5.384   4.352 -0.0795  0.3082  1.0156
 6916TIP3    H120712   0.170   5.459   4.299 -0.7984 -1.1612 -0.8171
 6916TIP3    H220713   0.115   5.346   4.383  0.1127 -1.0794 -0.0936
 6917TIP3   OH220714   5.572   3.939   5.587  0.4900 -0.0357 -0.3075
 6917TIP3    H120715   5.539   3.853   5.614  0.4247  0.0848  0.0067
 6917TIP3    H220716   5.510   3.969   5.521  0.5353 -0.2479 -0.4461
 6918TIP3   OH220717   3.065   1.610   3.635 -0.2740 -0.8093  0.3343
 6918TIP3    H120718   3.103   1.675   3.577  0.1372 -0.7066  0.7176
 6918TIP3    H220719   3.108   1.528   3.612 -1.1630 -1.0684 -0.5095
 6919TIP3   OH220720   2.424   2.084   5.687  0.0020  0.3538 -0.3276
 6919TIP3    H120721   2.426   2.165   5.737 -1.9899  0.5680 -0.5108
 6919TIP3    H220722   2.494   2.030   5.725  0.9895  1.9290  0.1540
 6920TIP3   OH220723   0.440   0.459   2.438  0.4214 -0.2119 -0.0501
 6920TIP3    H120724   0.398   0.459   2.352  1.1317  1.3259 -0.4354
 6920TIP3    H220725   0.531   0.438   2.420  0.6603  0.5246  0.2624
 6921TIP3   OH220726   0.261   0.664   3.115 -0.6595  0.1067  0.0492
 6921TIP3    H120727   0.182   0.623   3.079  0.1044 -0.2828 -1.2456
 6921TIP3    H220728   0.267   0.748   3.070  0.2347 -0.3219 -0.6559
 6922TIP3   OH220729   7.186   6.329   2.273 -0.3860 -0.8890 -0.4243
 6922TIP3    H120730   7.207   6.241   2.244 -2.1550 -0.7948 -2.1853
 6922TIP3    H220731   7.186   6.382   2.193 -3.0077 -0.0851 -0.0130
 6923TIP3   OH220732   0.026   5.084   5.458  0.1901  0.9535 -0.2271
 6923TIP3    H120733   0.027   4.990   5.440 -0.5731  0.6838  0.9949
 6923TIP3    H220734   0.111   5.102   5.496  1.4486  1.3472 -3.0114
 6924TIP3   OH220735   5.101   1.539   4.526  0.0501  0.0147  0.0262
 6924TIP3    H120736   5.143   1.606   4.581  2.4279 -0.8287 -0.6249
 6924TIP3    H220737   5.125   1.564   4.437  2.1214 -2.3099 -0.1667
 6925TIP3   OH220738   7.141   0.912   1.480 -0.3496  0.2877 -0.0103
 6925TIP3    H120739   7.142   0.987   1.420 -1.3406  0.6424  0.3846
 6925TIP3    H220740   7.051   0.881   1.477  0.1268 -1.1075 -0.4038
 6926TIP3   OH220741   3.708   1.653   1.252  0.2631  0.2953  0.4180
 6926TIP3    H120742   3.711   1.586   1.184 -0.6559 -0.3279  0.9562
 6926TIP3    H220743   3.776   1.627   1.314  0.7389  0.5620  0.0141
 6927TIP3   OH220744   5.215   6.307   3.311  0.2786 -0.2543  0.1781
 6927TIP3    H120745   5.135   6.255   3.317 -0.5195  0.8236 -0.6441
 6927TIP3    H220746   5.251   6.285   3.225  1.1585 -1.1010  0.7397
 6928TIP3   OH220747   3.365   5.004   1.508  0.5742 -0.5133  0.0412
 6928TIP3    H120748   3.375   4.958   1.424  1.2761 -0.6590  0.1984
 6928TIP3    H220749   3.352   4.934   1.572 -1.6801 -0.3410 -0.1502
 6929TIP3   OH220750   4.713   2.020   5.214  0.5678  0.4137  0.3970
 6929TIP3    H120751   4.727   2.114   5.200 -1.7336  0.6522 -0.7618
 6929TIP3    H220752   4.657   2.016   5.291 -0.7504  0.1535 -0.5344
 6930TIP3   OH220753   1.972   1.261   0.518  0.8187 -0.2164 -0.2266
 6930TIP3    H120754   1.901   1.298   0.466  0.2462  0.7239  1.1369
 6930TIP3    H220755   1.947   1.170   0.533 -0.5919  0.3378  0.9856
 6931TIP3   OH220756   2.362   1.645   1.667 -0.3279 -0.1229  0.3810
 6931TIP3    H120757   2.277   1.672   1.701  0.0655 -1.0281  2.2091
 6931TIP3    H220758   2.425   1.703   1.711  0.2353 -1.6572  1.7155
 6932TIP3   OH220759   5.195   4.327   5.724  0.2623  0.4500  0.2094
 6932TIP3    H120760   5.136   4.284   5.662 -1.0153  1.4466  0.6717
 6932TIP3    H220761   5.251   4.257   5.757  0.7051 -0.1590 -1.7519
 6933TIP3   OH220762   4.863   5.187   2.456 -0.2409  0.0340  0.0690
 6933TIP3    H120763   4.902   5.101   2.438 -0.2202 -0.1129  0.7966
 6933TIP3    H220764   4.913   5.221   2.530 -1.1407  0.0800  0.6690
 6934TIP3   OH220765   1.356   0.708   5.245 -0.3538  0.2792 -0.0527
 6934TIP3    H120766   1.398   0.692   5.329 -0.1464 -1.8595 -0.5194
 6934TIP3    H220767   1.391   0.792   5.216  0.9394  0.1830  1.1534
 6935TIP3   OH220768   4.049   2.219   2.657  0.2696  0.5050  0.4190
 6935TIP3    H120769   3.964   2.183   2.683  0.3674 -0.2293 -0.2244
 6935TIP3    H220770   4.059   2.298   2.710 -0.8868  0.6947  0.3887
 6936TIP3   OH220771   1.568   6.197   5.467 -0.3050  0.2679 -0.1551
 6936TIP3    H120772   1.663   6.196   5.454 -0.3934  1.8142 -1.1777
 6936TIP3    H220773   1.552   6.131   5.534  1.6691  0.9836  1.0994
 6937TIP3   OH220774   0.051   4.286   5.039  0.2857  0.7167  0.1042
 6937TIP3    H120775   0.017   4.206   4.998 -2.2630  0.9927  1.4425
 6937TIP3    H220776   0.046   4.351   4.970 -1.1135  0.5002 -0.0381
 6938TIP3   OH220777   1.983   2.188   3.423  0.1330 -0.1512 -0.4415
 6938TIP3    H120778   2.073   2.157   3.418  1.6639  2.7220  3.4935
 6938TIP3    H220779   1.942   2.131   3.487  0.1904  0.4153  0.1137
 6939TIP3   OH220780   6.837   3.810   2.523  0.0654 -0.3868 -0.4933
 6939TIP3    H120781   6.862   3.781   2.435  2.2900  2.4485 -0.9516
 6939TIP3    H220782   6.790   3.892   2.508 -0.5802 -0.4790  0.9395
 6940TIP3   OH220783   0.441   5.992   3.365  0.4454  0.3506 -0.2377
 6940TIP3    H120784   0.360   6.039   3.380  0.2454  1.0307 -2.8395
 6940TIP3    H220785   0.414   5.902   3.346  0.0011  0.9473 -2.8977
 6941TIP3   OH220786   5.551   6.732   2.823 -0.1612 -0.8481 -0.6021
 6941TIP3    H120787   5.460   6.757   2.838  0.3640  0.3587  0.9164
 6941TIP3    H220788   5.546   6.645   2.784 -1.9746 -0.3725 -1.5676
 6942TIP3   OH220789   0.689   4.095   4.390 -0.0514 -0.0485  0.8547
 6942TIP3    H120790   0.674   4.033   4.318  0.5568 -1.5106  1.9267
 6942TIP3    H220791   0.698   4.180   4.347 -1.2214 -0.6319 -0.6514
 6943TIP3   OH220792   1.077   5.080   4.444 -0.1021  0.2818  0.5339
 6943TIP3    H120793   1.104   5.050   4.531  1.3047 -0.1640 -0.0309
 6943TIP3    H220794   1.065   5.174   4.454  0.9981  0.3850  0.9933
 6944TIP3   OH220795   2.223   4.465   0.652  0.3593 -0.0918  0.8535
 6944TIP3    H120796   2.214   4.554   0.618 -0.4561 -0.6007 -0.3301
 6944TIP3    H220797   2.316   4.455   0.671  1.1113 -0.1578 -2.4320
 6945TIP3   OH220798   6.178   2.369   2.051 -0.2008 -0.5409  0.0162
 6945TIP3    H120799   6.238   2.317   1.997 -0.6642 -2.7274  1.5015
 6945TIP3    H220800   6.095   2.321   2.049 -1.3986  1.4168 -0.4272
 6946TIP3   OH220801   6.394   2.271   0.846 -0.2995 -0.1720 -0.3120
 6946TIP3    H120802   6.334   2.325   0.793 -0.6323  1.7108  1.8201
 6946TIP3    H220803   6.346   2.257   0.928  0.5439 -2.2678 -0.1190
 6947TIP3   OH220804   3.978   5.172   1.575 -0.0031 -0.0229 -0.0949
 6947TIP3    H120805   4.064   5.204   1.605  0.1795  0.3280 -0.9676
 6947TIP3    H220806   3.988   5.076   1.575 -0.0111 -0.0382  0.9432
 6948TIP3   OH220807   0.053   6.419   1.998  0.7830  0.0723 -0.3197
 6948TIP3    H120808   0.044   6.513   2.011 -2.8200 -0.0919 -0.6284
 6948TIP3    H220809  -0.015   6.397   1.933  1.0282 -2.8329  0.2613
 6949TIP3   OH220810   6.619   2.582   4.851  0.0400  0.6280  0.2117
 6949TIP3    H120811   6.637   2.668   4.814  1.3939  0.4119  0.3158
 6949TIP3    H220812   6.688   2.569   4.916 -0.7096 -0.1383  0.8859
 6950TIP3   OH220813   5.422   1.849   0.805 -0.0680  0.2663 -0.1221
 6950TIP3    H120814   5.505   1.809   0.783 -0.7386 -1.1169 -0.2144
 6950TIP3    H220815   5.412   1.837   0.899 -0.6678 -0.5852 -0.2836
 6951TIP3   OH220816   3.289   6.517   4.336  0.0166 -0.1142 -0.0849
 6951TIP3    H120817   3.297   6.585   4.269  0.8562 -0.0187  0.1031
 6951TIP3    H220818   3.369   6.466   4.328  0.4736  0.3198  1.2969
 6952TIP3   OH220819   5.062   2.313   4.337 -0.1947  0.2764  0.5265
 6952TIP3    H120820   4.982   2.364   4.324  0.2755  0.8425 -0.2418
 6952TIP3    H220821   5.044   2.230   4.294 -0.2978  0.4805  0.1659
 6953TIP3   OH220822   0.864   2.318   1.980 -0.6926  0.3898 -0.3992
 6953TIP3    H120823   0.780   2.298   2.021 -0.4236 -0.6846 -0.3602
 6953TIP3    H220824   0.919   2.348   2.052 -0.8624  0.5375 -0.3288
 6954TIP3   OH220825   4.034   3.663   3.534  0.5449  0.0915 -0.4179
 6954TIP3    H120826   4.052   3.752   3.565 -1.3765  0.2138  0.4490
 6954TIP3    H220827   4.085   3.656   3.453 -1.0444  2.8657 -1.8080
 6955TIP3   OH220828   4.998   3.378   5.164  0.6969  0.3783  0.6635
 6955TIP3    H120829   4.911   3.365   5.125  1.5635 -1.7308 -0.7583
 6955TIP3    H220830   5.004   3.473   5.176 -0.5145  0.9812 -2.4172
 6956TIP3   OH220831   2.259   2.458   0.780 -0.1311  0.3199 -0.1589
 6956TIP3    H120832   2.320   2.436   0.709 -0.4270  2.9004 -1.3211
 6956TIP3    H220833   2.271   2.388   0.844  1.8222 -0.8893 -1.7196
 6957TIP3   OH220834   0.861   2.915   3.135 -0.2480 -0.5860  0.4172
 6957TIP3    H120835   0.920   2.879   3.202  1.2047 -1.7446 -1.3597
 6957TIP3    H220836   0.779   2.869   3.148  0.0410 -0.8707  1.3254
 6958TIP3   OH220837   2.848   1.119   1.244  0.4169  0.6725  0.1710
 6958TIP3    H120838   2.890   1.180   1.183  1.0863 -0.3878 -0.4655
 6958TIP3    H220839   2.908   1.115   1.319  1.1740 -0.3457 -0.4571
 6959TIP3   OH220840   0.801   4.756   3.734 -0.1710  0.6109 -0.5408
 6959TIP3    H120841   0.889   4.742   3.699  0.2726  1.4051  0.2066
 6959TIP3    H220842   0.815   4.791   3.822 -1.2506 -0.5857  0.1448
 6960TIP3   OH220843   4.781   4.036   5.167  0.3170 -0.2087 -0.1453
 6960TIP3    H120844   4.836   3.961   5.147  0.9595  0.5738 -1.4423
 6960TIP3    H220845   4.840   4.099   5.208 -0.3135 -0.5553  1.3706
 6961TIP3   OH220846   3.470   3.281   3.877 -0.0481  0.1575 -0.4434
 6961TIP3    H120847   3.522   3.359   3.856 -0.4584  0.3759 -0.6729
 6961TIP3    H220848   3.439   3.297   3.966  1.3029 -0.5520  0.1847
 6962TIP3   OH220849   4.727   6.629   3.406 -0.3075 -0.3005  0.3625
 6962TIP3    H120850   4.809   6.603   3.449  1.3972  1.0931 -1.8512
 6962TIP3    H220851   4.725   6.725   3.414 -1.1223 -0.2163 -0.6117
 6963TIP3   OH220852   2.949   6.695   0.852 -0.1858  0.9429  0.4298
 6963TIP3    H120853   2.958   6.760   0.782  1.8145  1.0986  0.7710
 6963TIP3    H220854   2.996   6.734   0.926 -1.1219  0.1952  1.4384
 6964TIP3   OH220855   4.041   3.561   1.899 -0.6547 -0.2601 -0.4335
 6964TIP3    H120856   4.000   3.556   1.813 -0.0805 -1.8265 -0.6345
 6964TIP3    H220857   4.135   3.561   1.881 -0.5256  0.6928  0.1501
 6965TIP3   OH220858   6.160   4.774   4.974  0.1197 -0.3254 -0.1182
 6965TIP3    H120859   6.206   4.854   4.948 -0.7624  0.1294 -0.2905
 6965TIP3    H220860   6.072   4.784   4.939  0.0299 -1.4299 -0.2364
 6966TIP3   OH220861   1.573   4.536   4.487  0.0112  0.2685  0.4808
 6966TIP3    H120862   1.505   4.548   4.554 -0.1157 -1.7283  0.7697
 6966TIP3    H220863   1.524   4.523   4.406  0.0329 -0.9097  0.6442
 6967TIP3   OH220864   4.319   6.622   0.788  0.2407  0.7225 -0.1664
 6967TIP3    H120865   4.362   6.536   0.794  0.8277  1.1324  2.0668
 6967TIP3    H220866   4.380   6.683   0.830 -0.7338  2.0336 -0.5928
 6968TIP3   OH220867   2.874   4.683   0.896  0.2083 -0.4783  0.3694
 6968TIP3    H120868   2.872   4.698   0.991 -0.2396 -1.6290  0.5551
 6968TIP3    H220869   2.966   4.667   0.876  0.3778  0.2670  0.5165
 6969TIP3   OH220870   0.142   1.392   2.924 -0.0229  0.5616  0.1297
 6969TIP3    H120871   0.094   1.427   2.999 -0.0438  1.4187 -0.2768
 6969TIP3    H220872   0.162   1.469   2.871 -0.9329 -0.1498 -1.2914
 6970TIP3   OH220873   4.729   2.797   2.771 -0.3520  0.2927  0.8965
 6970TIP3    H120874   4.690   2.840   2.695  0.8320  0.6207  0.4539
 6970TIP3    H220875   4.818   2.773   2.742 -0.3409 -0.7501  1.7536
 6971TIP3   OH220876   1.122   3.723   3.360 -0.2011 -0.1679 -0.4550
 6971TIP3    H120877   1.046   3.723   3.419 -0.2208 -0.0884 -0.4808
 6971TIP3    H220878   1.143   3.815   3.347  0.0493 -0.1930 -0.2544
 6972TIP3   OH220879   3.442   4.111   4.117 -0.3611  0.0425 -0.2559
 6972TIP3    H120880   3.494   4.062   4.180 -0.8287 -0.5112 -0.2901
 6972TIP3    H220881   3.484   4.094   4.033 -1.2139 -1.2919 -0.4349
 6973TIP3   OH220882   1.826   5.562   3.349 -0.1725 -0.4057 -0.2065
 6973TIP3    H120883   1.758   5.564   3.416 -0.1248 -1.5933 -0.0865
 6973TIP3    H220884   1.887   5.630   3.374  0.5441 -1.6846  1.7467
 6974TIP3   OH220885   6.744   2.322   1.854 -0.7528  0.1315  0.5451
 6974TIP3    H120886   6.674   2.386   1.870  0.1799  1.2674  0.2047
 6974TIP3    H220887   6.750   2.273   1.936 -2.2460 -0.3114  0.4291
 6975TIP3   OH220888   0.450   4.234   1.661 -0.6350 -0.4026 -0.3120
 6975TIP3    H120889   0.470   4.146   1.627  1.4249  0.2544 -0.9270
 6975TIP3    H220890   0.386   4.269   1.599  1.3666 -0.0979 -2.3327
 6976TIP3   OH220891   0.545   2.822   4.964 -0.5554 -0.7802  0.1216
 6976TIP3    H120892   0.534   2.905   4.917 -1.6230 -1.4061 -0.8046
 6976TIP3    H220893   0.526   2.844   5.055  0.3385  0.2226  0.0858
 6977TIP3   OH220894   3.639   6.231   5.463 -0.0192 -0.3935 -0.4676
 6977TIP3    H120895   3.700   6.254   5.393  0.2474 -2.0577 -0.8370
 6977TIP3    H220896   3.581   6.166   5.423 -0.8845 -0.1791  0.4108
 6978TIP3   OH220897   0.035   0.204   3.797 -0.1005 -0.1225  0.1267
 6978TIP3    H120898   0.116   0.253   3.780  0.6326 -1.0222  0.9687
 6978TIP3    H220899   0.046   0.123   3.748  0.4585 -1.1635  1.8838
 6979TIP3   OH220900   2.058   0.946   1.712  0.0354 -0.2501  0.0446
 6979TIP3    H120901   2.153   0.950   1.704  0.1640 -0.9738  0.9217
 6979TIP3    H220902   2.036   0.856   1.688 -0.2472 -0.5270  1.2441
 6980TIP3   OH220903   2.787   4.057   4.380 -0.2817 -0.0611  0.5138
 6980TIP3    H120904   2.799   4.097   4.294  0.3956 -0.4111  0.4386
 6980TIP3    H220905   2.782   3.963   4.362  0.0541 -0.1491  0.8746
 6981TIP3   OH220906   3.762   1.705   5.745  0.2923  0.5216 -0.5789
 6981TIP3    H120907   3.718   1.641   5.689  1.0926 -0.5442 -0.0362
 6981TIP3    H220908   3.800   1.769   5.685 -0.2308  0.2916 -1.1574
 6982TIP3   OH220909   1.660   5.482   0.445  0.3836  0.1826 -0.1290
 6982TIP3    H120910   1.691   5.458   0.358 -0.1694 -1.5083  0.0990
 6982TIP3    H220911   1.582   5.536   0.429 -0.1886 -0.7922 -0.7016
 6983TIP3   OH220912   6.947   5.407   0.083  0.2980  0.6330  0.5518
 6983TIP3    H120913   7.030   5.450   0.063  1.0017  0.2422  2.4245
 6983TIP3    H220914   6.969   5.314   0.092 -0.3253  0.5280  1.0877
 6984TIP3   OH220915   2.425   6.096   2.255  0.4206 -0.0729 -0.7623
 6984TIP3    H120916   2.395   6.043   2.328 -1.2035 -1.0808 -2.1103
 6984TIP3    H220917   2.472   6.035   2.198 -0.7576  0.0609 -1.9248
 6985TIP3   OH220918   0.904   4.995   4.258 -0.4814 -0.3385  0.3071
 6985TIP3    H120919   0.961   5.026   4.328  0.0499 -0.7504  0.0621
 6985TIP3    H220920   0.882   5.074   4.208 -0.6399 -0.0853  0.7695
 6986TIP3   OH220921   1.712   6.483   0.570  0.7064 -0.4497 -0.0166
 6986TIP3    H120922   1.700   6.425   0.495 -1.7382  1.2636 -1.0677
 6986TIP3    H220923   1.654   6.448   0.638  0.6602 -0.3033  0.0201
 6987TIP3   OH220924   0.413   2.855   4.135 -0.5203  0.1817  0.7227
 6987TIP3    H120925   0.507   2.857   4.150 -0.2621 -2.0714 -0.1709
 6987TIP3    H220926   0.397   2.923   4.069  0.5258  0.3383  0.6146
 6988TIP3   OH220927   1.605   4.456   4.216  0.2229  0.3452 -0.0158
 6988TIP3    H120928   1.683   4.403   4.201  0.0316 -0.4620  1.5740
 6988TIP3    H220929   1.638   4.545   4.225  0.6436  0.4096 -1.9150
 6989TIP3   OH220930   5.171   1.301   2.449  0.2679  0.2625  0.3049
 6989TIP3    H120931   5.112   1.373   2.467 -2.3789 -1.6425 -0.1352
 6989TIP3    H220932   5.190   1.264   2.535 -0.7991 -0.2650  0.3318
 6990TIP3   OH220933   2.349   0.555   1.752 -0.3278  0.2546 -0.2428
 6990TIP3    H120934   2.256   0.568   1.733 -0.3071 -0.8424 -1.2684
 6990TIP3    H220935   2.355   0.555   1.847 -1.0027  2.6152 -0.1390
 6991TIP3   OH220936   2.326   3.611   4.727  0.4134  0.6636  0.5965
 6991TIP3    H120937   2.386   3.654   4.667 -1.0885  1.6076 -0.3084
 6991TIP3    H220938   2.241   3.613   4.682 -0.1313 -1.5237  1.3691
 6992TIP3   OH220939   0.530   5.149   1.932 -0.2209 -0.1574  0.3189
 6992TIP3    H120940   0.494   5.128   2.018  1.5340 -0.8676  0.9394
 6992TIP3    H220941   0.527   5.067   1.884 -0.3382  0.0102  0.0387
 6993TIP3   OH220942   0.012   2.554   4.028 -0.3091  0.0085  0.5078
 6993TIP3    H120943  -0.030   2.468   4.026 -3.1178  1.2735  0.9448
 6993TIP3    H220944   0.082   2.545   4.093 -0.5008 -1.9521  0.4988
 6994TIP3   OH220945   2.314   3.285   2.776  0.1285  0.0103  0.0070
 6994TIP3    H120946   2.375   3.283   2.702 -0.7165  1.8622 -0.8216
 6994TIP3    H220947   2.329   3.203   2.823  3.0983  0.2961 -0.2679
 6995TIP3   OH220948   5.010   4.430   2.819  0.5336  0.3701  0.2090
 6995TIP3    H120949   4.947   4.423   2.890  0.5610 -1.0004  0.1392
 6995TIP3    H220950   5.057   4.512   2.835 -0.1882  0.6084  1.1517
 6996TIP3   OH220951   4.574   3.068   4.706 -0.1460  0.3990  0.0021
 6996TIP3    H120952   4.630   3.131   4.662 -0.8558  0.9460 -0.1445
 6996TIP3    H220953   4.603   3.070   4.797 -0.8882  1.8149  0.2509
 6997TIP3   OH220954   6.548   0.637   1.713 -0.0178 -0.3600 -0.5359
 6997TIP3    H120955   6.640   0.632   1.689  0.0746  0.0435 -0.2736
 6997TIP3    H220956   6.544   0.598   1.801  0.2244  1.3278  0.2650
 6998TIP3   OH220957   1.252   0.295   2.511 -0.1239  0.7018 -0.1318
 6998TIP3    H120958   1.169   0.282   2.557 -1.4351 -1.2333 -2.7664
 6998TIP3    H220959   1.300   0.212   2.523  0.1510  0.7250 -0.9893
 6999TIP3   OH220960   2.180   6.502   0.849 -0.0604  0.2440  0.4579
 6999TIP3    H120961   2.273   6.483   0.836 -0.0506  0.7626 -0.2622
 6999TIP3    H220962   2.163   6.579   0.794 -0.6395  0.8759  1.4866
 7000TIP3   OH220963   2.765   1.268   4.424 -0.0920 -0.2004 -0.3839
 7000TIP3    H120964   2.829   1.225   4.480 -0.4542  0.2394  0.3792
 7000TIP3    H220965   2.681   1.252   4.466 -0.4508 -0.4616 -1.1846
 7001TIP3   OH220966   6.781   5.193   5.604 -0.2174  0.0713  0.1025
 7001TIP3    H120967   6.782   5.181   5.698 -0.6756 -0.7094  0.0147
 7001TIP3    H220968   6.690   5.212   5.583  0.0645  1.3344 -0.0645
 7002TIP3   OH220969   5.425   6.626   5.547  0.3257 -0.1701 -0.2892
 7002TIP3    H120970   5.381   6.701   5.507 -0.8795 -0.1561  0.9792
 7002TIP3    H220971   5.511   6.659   5.573  0.4818  0.2674 -1.3322
 7003TIP3   OH220972   4.884   5.118   3.033  0.4643  0.0457  0.3599
 7003TIP3    H120973   4.964   5.170   3.025  2.1238 -2.3955  0.0413
 7003TIP3    H220974   4.876   5.073   2.949 -0.2682 -1.0515  0.9904
 7004TIP3   OH220975   7.136   6.268   3.783  0.1257 -0.1440 -0.2464
 7004TIP3    H120976   7.193   6.206   3.829  0.2741  0.1637 -0.0069
 7004TIP3    H220977   7.196   6.334   3.748  0.0200 -0.4098 -0.9437
 7005TIP3   OH220978   7.045   1.521   0.670 -0.7428  0.0608 -0.1575
 7005TIP3    H120979   7.116   1.556   0.723 -0.8867  2.4075 -1.3898
 7005TIP3    H220980   7.087   1.490   0.590 -0.7460 -1.8022  0.5118
 7006TIP3   OH220981   4.245   0.858   1.787  0.4761  0.5517 -0.1844
 7006TIP3    H120982   4.169   0.854   1.730 -1.5758  0.7345  2.3532
 7006TIP3    H220983   4.259   0.951   1.803 -0.1782  0.4532  1.0622
 7007TIP3   OH220984   3.341   0.946   2.970  0.1448  0.0221  0.1261
 7007TIP3    H120985   3.340   1.017   2.906 -1.7740  0.7069  0.8135
 7007TIP3    H220986   3.390   0.982   3.045 -0.1946  0.3664  0.1889
 7008TIP3   OH220987   0.664   0.770   2.633  0.0887  0.2407 -0.2162
 7008TIP3    H120988   0.645   0.786   2.540  0.2437  2.1636  0.0581
 7008TIP3    H220989   0.597   0.707   2.660  0.8184 -1.4043 -1.9235
 7009TIP3   OH220990   2.195   2.512   4.054 -0.0625 -0.4806 -0.0470
 7009TIP3    H120991   2.269   2.460   4.084 -0.5183  0.2655  2.6584
 7009TIP3    H220992   2.122   2.450   4.048  0.2646 -0.8178 -0.5671
 7010TIP3   OH220993   2.628   5.749   3.376 -0.4433  0.6368 -0.2206
 7010TIP3    H120994   2.550   5.729   3.427 -1.5109 -1.2410 -2.4100
 7010TIP3    H220995   2.682   5.671   3.382  1.0681  1.7107  0.8140
 7011TIP3   OH220996   1.035   4.567   1.733 -0.2766  0.9524 -0.2014
 7011TIP3    H120997   1.085   4.557   1.814  0.9405  1.1074 -0.9099
 7011TIP3    H220998   1.051   4.658   1.706  1.9613  0.0558 -2.2528
 7012TIP3   OH220999   3.130   2.759   1.792 -0.4792  0.2602  0.2272
 7012TIP3    H121000   3.081   2.714   1.723 -0.8276  0.6577  0.2118
 7012TIP3    H221001   3.145   2.847   1.758 -1.0609  0.6030  0.8428
 7013TIP3   OH221002   4.760   2.136   0.545 -0.1640  0.1249  0.0097
 7013TIP3    H121003   4.720   2.082   0.478 -0.4511  1.0787 -0.6115
 7013TIP3    H221004   4.793   2.074   0.610 -0.0719 -0.7999 -0.9016
 7014TIP3   OH221005   5.714   0.141   1.754 -0.0169 -0.0732  0.2673
 7014TIP3    H121006   5.631   0.177   1.722 -0.0913  0.4792  1.0471
 7014TIP3    H221007   5.733   0.191   1.834 -0.0221 -1.6394  1.3005
 7015TIP3   OH221008   1.691   2.279   5.813 -0.0767  0.0386 -0.1372
 7015TIP3    H121009   1.652   2.292   5.899 -0.3086 -0.0546 -0.2288
 7015TIP3    H221010   1.717   2.187   5.811  0.8958  0.2888  0.2310
 7016TIP3   OH221011   5.081   1.173   0.252  0.2984 -0.6002  0.5288
 7016TIP3    H121012   5.065   1.223   0.172 -1.0328 -2.0060 -0.1319
 7016TIP3    H221013   5.163   1.209   0.286  0.2873  0.8329 -0.8214
 7017TIP3   OH221014   5.245   0.483   2.351 -0.1115  0.2641  0.8241
 7017TIP3    H121015   5.325   0.533   2.337 -0.5231  0.5954 -0.4201
 7017TIP3    H221016   5.229   0.489   2.445  1.7162 -0.4199  1.2074
 7018TIP3   OH221017   0.563   1.029   4.359 -0.0330 -0.0146  0.4876
 7018TIP3    H121018   0.517   1.067   4.285  1.0876  1.2922  0.4250
 7018TIP3    H221019   0.536   1.081   4.434 -0.5639 -0.8358  0.8757
 7019TIP3   OH221020   0.957   0.995   0.547 -0.1688 -0.1805 -0.1238
 7019TIP3    H121021   0.921   1.024   0.631 -0.5725 -0.1305 -0.3150
 7019TIP3    H221022   0.975   1.076   0.499 -1.4865 -0.2284 -0.7399
 7020TIP3   OH221023   5.928   4.187   1.496 -0.2013  0.1310 -0.3350
 7020TIP3    H121024   5.891   4.269   1.528  0.7587 -0.3782  2.3182
 7020TIP3    H221025   5.925   4.128   1.571  3.7386 -0.6410 -0.5560
 7021TIP3   OH221026   3.204   6.440   1.725 -0.6950 -0.1791 -0.1511
 7021TIP3    H121027   3.269   6.502   1.758 -0.5157 -1.3099  1.8400
 7021TIP3    H221028   3.140   6.433   1.796 -1.2648 -1.4644 -0.7574
 7022TIP3   OH221029   2.077   3.741   4.922 -0.2196  0.5226 -0.0123
 7022TIP3    H121030   2.068   3.652   4.889 -0.6464  0.4022  0.4210
 7022TIP3    H221031   1.995   3.784   4.899 -1.2640 -0.0573  2.3654
 7023TIP3   OH221032   3.846   5.728   3.319  0.2498 -0.0322  0.1952
 7023TIP3    H121033   3.788   5.672   3.371  0.7137 -0.3416  0.3829
 7023TIP3    H221034   3.792   5.756   3.245 -0.0484 -0.5571  0.2135
 7024TIP3   OH221035   0.475   5.702   2.363 -0.2698 -0.0293  0.0891
 7024TIP3    H121036   0.506   5.624   2.317  0.4985  0.6054 -0.4965
 7024TIP3    H221037   0.388   5.719   2.325  0.2233  0.3094 -0.9512
 7025TIP3   OH221038   1.357   3.036   1.585 -0.3087  0.2352  0.3297
 7025TIP3    H121039   1.387   3.104   1.646 -0.1485  0.3522  0.1216
 7025TIP3    H221040   1.400   2.956   1.617  1.2399  0.6144 -0.6791
 7026TIP3   OH221041   6.623   2.076   1.409  0.0758  0.0151 -0.3359
 7026TIP3    H121042   6.663   2.157   1.378  0.1528 -0.2440 -0.9155
 7026TIP3    H221043   6.680   2.007   1.377 -0.2645 -0.2978 -0.2781
 7027TIP3   OH221044   5.990   2.046   5.863  0.3438 -0.0085  0.3457
 7027TIP3    H121045   6.036   2.040   5.779 -1.0464  1.9408 -0.6282
 7027TIP3    H221046   6.029   2.121   5.906 -1.6637  1.5628 -0.4173
 7028TIP3   OH221047   5.135   4.063   5.527  0.6571 -0.0319 -0.0832
 7028TIP3    H121048   5.144   3.993   5.592  0.7173  1.3694  1.4931
 7028TIP3    H221049   5.224   4.080   5.497  1.1956  1.6414  2.1367
 7029TIP3   OH221050   1.310   1.330   0.786 -0.5046  0.2236 -0.1114
 7029TIP3    H121051   1.385   1.355   0.732 -0.4164  0.0688 -0.0627
 7029TIP3    H221052   1.262   1.411   0.800  0.4106  0.6145  1.0102
 7030TIP3   OH221053   0.755   3.580   1.270  0.8927 -0.4385 -0.1214
 7030TIP3    H121054   0.805   3.653   1.233  0.1546  0.5001  0.7104
 7030TIP3    H221055   0.804   3.555   1.349 -0.0716  0.6821  0.8650
 7031TIP3   OH221056   5.971   3.548   2.963  0.2143  0.8441  0.2387
 7031TIP3    H121057   5.985   3.510   2.876 -0.7287 -0.2096  0.5175
 7031TIP3    H221058   6.004   3.637   2.957  0.0222  0.8312 -1.2465
 7032TIP3   OH221059   2.249   2.974   0.173  0.1245  0.4875 -0.0566
 7032TIP3    H121060   2.290   3.025   0.103 -1.1216 -0.2167 -1.3520
 7032TIP3    H221061   2.204   3.040   0.226  0.9737  1.0185  0.0265
 7033TIP3   OH221062   4.043   4.037   3.934 -0.1400 -0.0903 -0.4617
 7033TIP3    H121063   4.128   4.057   3.896 -0.9341 -0.1792 -2.4180
 7033TIP3    H221064   3.998   4.121   3.936  0.1677  0.0635  1.1214
 7034TIP3   OH221065   3.570   2.509   2.661 -0.0327 -0.2462 -0.1724
 7034TIP3    H121066   3.585   2.423   2.700 -1.9656 -0.7991 -0.5374
 7034TIP3    H221067   3.514   2.555   2.723  0.1927  0.3990 -0.4315
 7035TIP3   OH221068   2.066   3.735   1.833 -0.2276  0.0794 -0.7583
 7035TIP3    H121069   2.049   3.782   1.751  2.4319  0.6759 -1.0685
 7035TIP3    H221070   2.135   3.786   1.876 -0.9957 -0.6544  1.5056
 7036TIP3   OH221071   4.351   5.489  -0.004 -0.0211 -0.1676  0.1222
 7036TIP3    H121072   4.428   5.447  -0.041 -0.5747 -1.0971 -0.0021
 7036TIP3    H221073   4.385   5.541   0.069  0.8103  0.0445 -0.4032
 7037TIP3   OH221074   0.703   2.807   1.559  0.0794 -0.1402 -0.0072
 7037TIP3    H121075   0.750   2.879   1.518  0.0357 -0.0768  0.0542
 7037TIP3    H221076   0.613   2.838   1.567 -0.1375 -0.5406 -0.8042
 7038TIP3   OH221077   6.063   6.188   5.301 -0.9014  0.0155 -0.1655
 7038TIP3    H121078   6.082   6.094   5.308 -0.3605  0.0940 -0.4893
 7038TIP3    H221079   6.113   6.217   5.224 -0.1931  0.7907  0.5662
 7039TIP3   OH221080   7.101   5.764   3.364  0.4088  0.2101 -0.9506
 7039TIP3    H121081   7.056   5.848   3.367 -0.8313 -0.4615 -0.1102
 7039TIP3    H221082   7.041   5.702   3.406  2.4331 -0.5802  0.9957
 7040TIP3   OH221083   0.976   0.242   0.689  0.1716 -0.3722  0.2050
 7040TIP3    H121084   0.972   0.304   0.616 -4.4615 -0.2947  0.2399
 7040TIP3    H221085   1.022   0.166   0.654 -0.1569  0.4227 -2.1291
 7041TIP3   OH221086   5.206   1.868   0.628 -0.6384  0.5302  0.0037
 7041TIP3    H121087   5.280   1.832   0.677 -0.6162  0.3839 -0.1382
 7041TIP3    H221088   5.176   1.942   0.682  0.5989  1.5914 -0.6954
 7042TIP3   OH221089   6.090   4.504   5.501  0.5653 -0.2324  0.0149
 7042TIP3    H121090   6.047   4.565   5.442 -0.3464 -1.1047 -0.2544
 7042TIP3    H221091   6.078   4.418   5.459  1.1594 -0.6908  0.7544
 7043TIP3   OH221092   2.888   0.082   4.479 -0.4845 -0.1019 -0.5773
 7043TIP3    H121093   2.930   0.108   4.560  0.4005  1.1975 -1.4171
 7043TIP3    H221094   2.798   0.113   4.487 -0.0722  1.1325 -0.5758
 7044TIP3   OH221095   2.390   2.702   1.730  0.1078  0.2359  0.0486
 7044TIP3    H121096   2.460   2.744   1.779  0.2172  0.8263 -0.5986
 7044TIP3    H221097   2.385   2.751   1.648 -1.5031  0.6220  0.3468
 7045TIP3   OH221098   1.196   1.579   0.977  0.5748  0.4318 -0.3450
 7045TIP3    H121099   1.159   1.628   0.903  0.3378 -2.2142 -2.1457
 7045TIP3    H221100   1.120   1.538   1.019  0.9115  0.0111 -0.1372
 7046TIP3   OH221101   4.160   4.762   3.748 -0.3267 -0.1679 -0.5265
 7046TIP3    H121102   4.137   4.854   3.734 -0.8788  0.0381  1.3612
 7046TIP3    H221103   4.245   4.764   3.791 -0.1059 -0.5668 -0.9370
 7047TIP3   OH221104   4.173   6.018   3.581 -0.0814  0.0305 -0.3327
 7047TIP3    H121105   4.121   6.030   3.502  1.3907  1.4622 -1.1328
 7047TIP3    H221106   4.131   6.075   3.646  0.2686  0.9184 -0.8713
 7048TIP3   OH221107   0.347   4.381   3.175 -0.2635 -0.6873 -0.6209
 7048TIP3    H121108   0.343   4.410   3.266  0.0662 -1.5582 -0.3104
 7048TIP3    H221109   0.399   4.448   3.131  0.8815 -1.0190  0.1667
 7049TIP3   OH221110   5.395   5.592   3.588 -0.5199  0.2761 -0.4993
 7049TIP3    H121111   5.469   5.617   3.532  0.2455  1.5015  1.0016
 7049TIP3    H221112   5.371   5.504   3.557 -0.0863  0.8547 -2.6766
 7050TIP3   OH221113   0.659   2.219   2.153 -0.6327 -0.1212  0.4863
 7050TIP3    H121114   0.569   2.247   2.133 -1.0532 -1.1943  0.7732
 7050TIP3    H221115   0.669   2.136   2.106  0.3740  0.2111  0.0921
 7051TIP3   OH221116   0.998   2.962   0.441  0.4607  0.5678 -0.5322
 7051TIP3    H121117   0.913   2.954   0.484  0.1580  1.3093 -0.9739
 7051TIP3    H221118   1.046   2.885   0.469  0.6128  1.4663  1.8496
 7052TIP3   OH221119   3.395   6.216   5.782  0.0719 -0.3070  0.2060
 7052TIP3    H121120   3.414   6.301   5.822  2.7053 -0.1266 -1.1811
 7052TIP3    H221121   3.383   6.156   5.855 -1.3024  1.0964  1.2065
 7053TIP3   OH221122   1.885   1.965   0.463 -0.0165 -0.1297  0.6039
 7053TIP3    H121123   1.917   1.884   0.503  0.0955 -0.7458 -0.6652
 7053TIP3    H221124   1.963   2.005   0.424 -0.2382  0.0627  0.3533
 7054TIP3   OH221125   4.336   1.658   3.014  1.0752 -0.0267  0.3874
 7054TIP3    H121126   4.418   1.698   2.985  1.2164 -0.3460  0.3389
 7054TIP3    H221127   4.271   1.686   2.950  1.5670 -1.4944 -0.8152
 7055TIP3   OH221128   0.602   3.006   2.528  0.0679  0.4280  0.1740
 7055TIP3    H121129   0.515   2.993   2.566 -0.4774 -0.6488 -1.3589
 7055TIP3    H221130   0.660   3.013   2.604 -0.9101 -2.1022  1.2862
 7056TIP3   OH221131   6.564   0.647   2.668 -0.4800  0.4278  0.1497
 7056TIP3    H121132   6.635   0.672   2.608 -1.3502  2.7636 -0.0253
 7056TIP3    H221133   6.577   0.554   2.683  0.9209  0.1599 -2.1581
 7057TIP3   OH221134   4.361   2.897   1.505 -0.8280  0.4733  0.5823
 7057TIP3    H121135   4.384   2.976   1.456  0.6543  0.4162  1.1364
 7057TIP3    H221136   4.301   2.850   1.447 -0.7412  1.4013 -0.2972
 7058TIP3   OH221137   6.472   4.113   4.697  0.0310 -0.0592 -0.2603
 7058TIP3    H121138   6.407   4.067   4.750 -0.1453 -0.0414 -0.4602
 7058TIP3    H221139   6.421   4.154   4.627  0.0847  1.0748  0.3462
 7059TIP3   OH221140   4.209   1.170   0.627 -0.2449 -0.0099 -0.4487
 7059TIP3    H121141   4.180   1.192   0.538  0.0831 -0.7509 -0.7503
 7059TIP3    H221142   4.128   1.149   0.674 -0.7132  2.9526  0.2150
 7060TIP3   OH221143   1.079   1.565   5.170  0.6263 -0.2047  0.3979
 7060TIP3    H121144   1.025   1.552   5.092  0.0967 -1.8399  0.9934
 7060TIP3    H221145   1.017   1.572   5.242  1.1548 -0.3947  0.8808
 7061TIP3   OH221146   0.158   2.602   1.976  0.6262  0.3456 -0.1192
 7061TIP3    H121147   0.089   2.592   1.911 -0.6922  1.0513  1.1108
 7061TIP3    H221148   0.167   2.697   1.987  0.8930  0.2403  0.6469
 7062TIP3   OH221149   6.067   3.739   2.085  0.0605  0.2706 -0.2196
 7062TIP3    H121150   5.983   3.748   2.040  0.5710 -0.9917 -1.4936
 7062TIP3    H221151   6.132   3.756   2.017  0.8494 -1.6987 -0.0206
 7063TIP3   OH221152   1.038   2.787   4.795 -0.1122 -0.3407 -0.2433
 7063TIP3    H121153   0.952   2.789   4.839  0.8044 -1.0860  1.6987
 7063TIP3    H221154   1.054   2.694   4.780  1.7655 -0.5892  2.5199
 7064TIP3   OH221155   5.392   2.556   2.411  0.1719 -0.9958 -0.4296
 7064TIP3    H121156   5.311   2.510   2.433 -0.4277  0.0532 -0.4121
 7064TIP3    H221157   5.432   2.575   2.495  0.4315 -1.4815 -0.4372
 7065TIP3   OH221158   4.680   5.214   0.593 -0.5507  0.1069  0.1827
 7065TIP3    H121159   4.770   5.189   0.616 -0.3723 -0.2896 -0.8649
 7065TIP3    H221160   4.689   5.301   0.554 -0.3534 -0.6364 -1.5172
 7066TIP3   OH221161   1.703   6.462   1.092  0.3363  0.8879 -0.6717
 7066TIP3    H121162   1.796   6.482   1.084  0.7860 -1.1685 -1.1558
 7066TIP3    H221163   1.688   6.391   1.030 -1.1591 -0.0458  0.6712
 7067TIP3   OH221164   0.788   5.009   3.573  0.2858 -0.3404 -0.3295
 7067TIP3    H121165   0.718   4.945   3.587  2.3087 -2.0099  3.9127
 7067TIP3    H221166   0.854   4.961   3.523 -0.2599  0.2633 -1.6935
 7068TIP3   OH221167   1.641   3.195   0.577  0.6311  0.2015  0.6621
 7068TIP3    H121168   1.563   3.171   0.628 -0.8876  0.9206 -1.2328
 7068TIP3    H221169   1.708   3.133   0.607 -1.6119 -2.8569 -0.1204
 7069TIP3   OH221170   2.029   4.106   3.715 -0.3239 -0.9659 -0.4332
 7069TIP3    H121171   1.982   4.044   3.659  0.2073 -1.0998 -0.7376
 7069TIP3    H221172   2.077   4.051   3.777 -0.1685 -0.8436 -0.4447
 7070TIP3   OH221173   3.845   5.383   0.754  0.4445 -0.0715 -0.4102
 7070TIP3    H121174   3.760   5.352   0.785  1.4075 -3.0048 -0.3284
 7070TIP3    H221175   3.837   5.385   0.659  0.1212  0.1899 -0.3787
 7071TIP3   OH221176   4.292   5.541   2.376 -0.1437  0.5785 -0.2404
 7071TIP3    H121177   4.229   5.469   2.369 -0.3195  0.5738  1.0245
 7071TIP3    H221178   4.368   5.503   2.420  0.6697  0.6510 -1.5255
 7072TIP3   OH221179   6.694   3.272   0.329 -0.0464 -0.1200 -0.9477
 7072TIP3    H121180   6.771   3.289   0.383 -0.5241 -0.4321 -0.1353
 7072TIP3    H221181   6.699   3.336   0.258  1.1079 -0.3313 -1.0774
 7073TIP3   OH221182   1.003   1.610   3.490  0.6198 -0.1282  0.1165
 7073TIP3    H121183   0.975   1.668   3.420  1.6468  0.7315  0.4108
 7073TIP3    H221184   1.046   1.537   3.446  0.0795 -0.2634 -0.2010
 7074TIP3   OH221185   1.020   4.842   1.064  0.0917 -0.6812  0.3030
 7074TIP3    H121186   1.050   4.811   0.978  2.1166 -3.4883  1.8585
 7074TIP3    H221187   0.927   4.820   1.067 -0.1452 -0.0480 -1.3195
 7075TIP3   OH221188   5.249   6.788   0.420  0.1538  0.4368  0.4462
 7075TIP3    H121189   5.184   6.776   0.351  0.5498  2.2396 -0.2925
 7075TIP3    H221190   5.332   6.762   0.380  0.6213  2.8512 -0.3414
 7076TIP3   OH221191   0.771   3.225   0.858  0.0722  0.3011  0.0006
 7076TIP3    H121192   0.789   3.225   0.764  1.1667 -2.2787  0.1233
 7076TIP3    H221193   0.675   3.227   0.864 -0.0003  0.7029 -1.1578
 7077TIP3   OH221194   2.597   3.783   1.411 -0.6073 -0.1949  0.4179
 7077TIP3    H121195   2.625   3.719   1.345 -1.8476 -0.9041  0.5525
 7077TIP3    H221196   2.522   3.827   1.371 -0.3805  0.4927  0.7293
 7078TIP3   OH221197   4.678   4.442   0.405  0.2150 -0.6238 -0.4813
 7078TIP3    H121198   4.654   4.439   0.312 -3.7157  2.4340  0.1708
 7078TIP3    H221199   4.730   4.522   0.413  0.4095 -0.7951 -0.0486
 7079TIP3   OH221200   6.348   3.588   4.699 -0.1178  0.1857 -0.2377
 7079TIP3    H121201   6.354   3.683   4.698 -0.4119  0.2131 -1.5123
 7079TIP3    H221202   6.258   3.569   4.672  0.2725 -0.4547 -1.1682
 7080TIP3   OH221203   4.061   0.386   1.834  0.3641  0.6447  0.3438
 7080TIP3    H121204   4.086   0.472   1.868 -1.3796  1.7806 -1.0807
 7080TIP3    H221205   3.991   0.356   1.892  1.1299  0.0418  0.9810
 7081TIP3   OH221206   0.124   2.053   2.841  0.1580 -0.7407 -0.4504
 7081TIP3    H121207   0.073   2.120   2.797  1.1715  0.0319 -0.4896
 7081TIP3    H221208   0.082   2.042   2.926 -0.2711 -0.3726 -0.6125
 7082TIP3   OH221209   4.664   0.098   3.105  0.6001 -0.4550 -0.1995
 7082TIP3    H121210   4.669   0.011   3.065 -0.9202 -0.2246 -0.9473
 7082TIP3    H221211   4.574   0.105   3.136  0.6538  0.9313 -0.3133
 7083TIP3   OH221212   3.059   3.303   2.325 -0.3886  0.0479  0.2839
 7083TIP3    H121213   3.072   3.338   2.414  1.3490  1.9556 -0.6328
 7083TIP3    H221214   3.131   3.242   2.312 -0.0509  0.5401 -0.1677
 7084TIP3   OH221215   1.666   1.691   1.901 -0.2068 -0.2654  0.2206
 7084TIP3    H121216   1.586   1.710   1.852 -0.2148  0.6287  0.5559
 7084TIP3    H221217   1.692   1.775   1.938  0.3906 -0.7193  0.8679
 7085TIP3   OH221218   6.155   5.417   0.429  0.5358 -0.3390  0.4025
 7085TIP3    H121219   6.102   5.352   0.476 -0.1531 -0.0992 -0.0324
 7085TIP3    H221220   6.098   5.447   0.358  1.5938 -0.7929 -0.6792
 7086TIP3   OH221221   2.601   4.302   5.453 -0.1725  0.1412 -0.2256
 7086TIP3    H121222   2.583   4.394   5.476  0.0597  0.5423 -1.5667
 7086TIP3    H221223   2.568   4.252   5.528 -1.9304  1.2095 -0.2286
 7087TIP3   OH221224   1.214   2.223   4.300 -0.3053 -0.4685 -0.4185
 7087TIP3    H121225   1.161   2.179   4.232  0.3913 -1.4006 -0.3868
 7087TIP3    H221226   1.150   2.267   4.355 -0.9159 -0.0046 -1.4681
 7088TIP3   OH221227   0.083   3.930   2.833  0.2098  0.0102 -0.0423
 7088TIP3    H121228   0.124   3.922   2.747 -0.6466  0.9593 -0.5429
 7088TIP3    H221229  -0.010   3.941   2.815 -0.0188 -0.0738  1.0238
 7089TIP3   OH221230   2.095   2.224   0.476 -0.0164  0.2836 -0.1533
 7089TIP3    H121231   2.177   2.176   0.490 -0.5464 -0.6347 -0.1702
 7089TIP3    H221232   2.106   2.266   0.391  0.4035  0.1042 -0.1900
 7090TIP3   OH221233   5.955   3.771   3.660  0.7899  0.6568  0.2318
 7090TIP3    H121234   6.049   3.772   3.676  1.0786 -0.3521 -1.1532
 7090TIP3    H221235   5.929   3.863   3.659  1.3259  0.9084  2.7421
 7091TIP3   OH221236   6.590   6.182   2.165  0.0571 -0.1042 -0.2962
 7091TIP3    H121237   6.638   6.160   2.084 -0.9872 -0.6563 -0.7823
 7091TIP3    H221238   6.500   6.196   2.136 -0.7929 -2.3411  1.0194
 7092TIP3   OH221239   4.592   1.318   2.441 -0.1168  0.3745  0.0044
 7092TIP3    H121240   4.641   1.355   2.368  0.4018  0.5326  0.4272
 7092TIP3    H221241   4.612   1.224   2.437  0.2857  0.4513  0.2267
 7093TIP3   OH221242   3.266   1.386   3.687  0.0292 -0.1738  0.3000
 7093TIP3    H121243   3.274   1.329   3.611 -0.4426  3.0951 -2.4863
 7093TIP3    H221244   3.323   1.347   3.753  2.1366 -2.1553 -2.4470
 7094TIP3   OH221245   5.389   2.757   2.234 -0.0151 -0.1492 -0.5908
 7094TIP3    H121246   5.442   2.809   2.294  1.8200 -0.1840 -2.0948
 7094TIP3    H221247   5.365   2.679   2.284  0.5385  0.3146  0.4242
 7095TIP3   OH221248   0.846   4.849   4.002  0.5462 -0.2192 -0.5646
 7095TIP3    H121249   0.813   4.932   4.037 -0.3943  0.2512 -2.3958
 7095TIP3    H221250   0.940   4.862   3.993  0.6696 -0.0158  0.7835
 7096TIP3   OH221251   6.322   4.187   1.361 -0.0628  0.2033  0.0151
 7096TIP3    H121252   6.340   4.206   1.453  2.4801  1.1618 -0.5919
 7096TIP3    H221253   6.379   4.113   1.340 -0.5775  0.0231 -0.7993
 7097TIP3   OH221254   0.482   2.817   5.256 -0.0084 -0.2536 -0.0690
 7097TIP3    H121255   0.565   2.813   5.302 -1.7116 -1.4713  3.2518
 7097TIP3    H221256   0.440   2.896   5.290 -1.0002 -0.7608 -0.0767
 7098TIP3   OH221257   0.635   2.749   2.810  0.2050 -0.4459  0.4045
 7098TIP3    H121258   0.678   2.832   2.789 -1.2813  0.0089 -1.0217
 7098TIP3    H221259   0.545   2.761   2.782  0.4069 -3.2698 -1.9597
 7099TIP3   OH221260   2.418   1.531   0.251  0.6574  1.1044  0.0320
 7099TIP3    H121261   2.355   1.478   0.299  1.5855 -0.4713 -0.4247
 7099TIP3    H221262   2.407   1.504   0.160  1.2943  1.5466 -0.1827
 7100TIP3   OH221263   2.307   1.075   4.284  0.2486  0.1515  0.5615
 7100TIP3    H121264   2.252   1.091   4.360  2.2103 -0.5214  2.2279
 7100TIP3    H221265   2.324   0.981   4.286  2.6778  0.5352  1.0659
 7101TIP3   OH221266   4.443   6.263   2.931  0.4340  0.5786  0.0138
 7101TIP3    H121267   4.405   6.349   2.949 -0.3903  0.3191 -0.4034
 7101TIP3    H221268   4.430   6.250   2.837 -0.2326 -0.3525  0.2146
 7102TIP3   OH221269   7.213   2.679   5.220  0.3148  0.0877  0.2692
 7102TIP3    H121270   7.284   2.729   5.179  0.3103 -0.3219 -0.2441
 7102TIP3    H221271   7.143   2.679   5.156 -0.1527  0.4763  0.7711
 7103TIP3   OH221272   3.175   4.725   5.055  0.4666 -0.1998  0.6664
 7103TIP3    H121273   3.159   4.727   4.961  0.5392  0.3127  0.6637
 7103TIP3    H221274   3.259   4.678   5.064 -0.3850 -1.8031  0.6050
 7104TIP3   OH221275   1.261   1.525   1.297  0.0509 -0.2477 -0.1889
 7104TIP3    H121276   1.250   1.564   1.210  2.3480 -0.0523 -0.4535
 7104TIP3    H221277   1.356   1.518   1.309 -0.1656  0.2016  2.5282
 7105TIP3   OH221278   6.947   2.967   3.238 -0.1427 -0.1185  0.3394
 7105TIP3    H121279   6.854   2.946   3.232 -0.3150  0.5297  0.7301
 7105TIP3    H221280   6.954   3.055   3.202  0.1819  0.2104  1.2047
 7106TIP3   OH221281   5.171   1.630   2.724  0.0006 -0.0475 -0.3407
 7106TIP3    H121282   5.085   1.673   2.723 -0.2308 -0.5057 -0.6972
 7106TIP3    H221283   5.172   1.579   2.805  0.0297  0.1408 -0.2222
 7107TIP3   OH221284   6.361   0.639   4.180 -0.1982 -0.0808  0.3196
 7107TIP3    H121285   6.374   0.734   4.174 -1.2832 -0.0180 -2.6934
 7107TIP3    H221286   6.299   0.628   4.253 -2.5164  1.8909 -1.1964
 7108TIP3   OH221287   3.320   1.363   2.504 -0.4725  0.1473  0.1958
 7108TIP3    H121288   3.228   1.381   2.523 -0.5352 -0.9264  1.0456
 7108TIP3    H221289   3.324   1.267   2.498  1.0775 -0.1147  3.2072
 7109TIP3   OH221290   6.540   3.486   0.834 -0.0736  0.1637 -0.4298
 7109TIP3    H121291   6.623   3.441   0.849  0.2752  0.5943 -1.0281
 7109TIP3    H221292   6.476   3.415   0.823  0.5668 -0.2250 -1.9507
 7110TIP3   OH221293   2.105   2.909   4.919  0.3673  0.3731  0.1443
 7110TIP3    H121294   2.145   2.990   4.888  0.5059  0.4521  0.5256
 7110TIP3    H221295   2.041   2.887   4.852  0.1874  0.9072  0.1364
 7111TIP3   OH221296   0.333   5.541   0.235  0.8571  0.1935 -0.1938
 7111TIP3    H121297   0.331   5.584   0.321  2.1088 -0.3603  0.1304
 7111TIP3    H221298   0.417   5.567   0.197  1.2417 -1.2460 -0.3678
 7112TIP3   OH221299   2.446   2.122   4.974  0.3944 -0.1753  0.2565
 7112TIP3    H121300   2.521   2.176   4.952 -1.2274  1.5474 -1.4205
 7112TIP3    H221301   2.429   2.070   4.895  1.1037 -2.2648  1.3806
 7113TIP3   OH221302   5.817   3.985   3.159  0.4893  0.0807 -0.1806
 7113TIP3    H121303   5.819   4.048   3.230  1.4786 -0.5998  0.4080
 7113TIP3    H221304   5.743   4.013   3.104 -2.4002 -1.1600  2.7381
 7114TIP3   OH221305   4.533   5.685   5.307 -0.5232 -0.3633  0.1268
 7114TIP3    H121306   4.593   5.674   5.381 -0.3071 -0.8440 -0.1192
 7114TIP3    H221307   4.460   5.626   5.326 -0.9224  0.2086  0.4178
 7115TIP3   OH221308   1.998   1.889   3.926  0.4858 -0.4420 -0.5863
 7115TIP3    H121309   2.055   1.965   3.910  1.1100 -0.6003  0.7438
 7115TIP3    H221310   2.037   1.818   3.875  0.2389 -0.0323 -1.3643
 7116TIP3   OH221311   4.825   1.301   3.541  0.3366 -0.2486 -0.0637
 7116TIP3    H121312   4.917   1.323   3.557  0.2578  1.2165 -1.4448
 7116TIP3    H221313   4.789   1.287   3.629  1.4500  0.9321  0.6171
 7117TIP3   OH221314   0.793   6.004   2.424  0.2471 -0.0130 -0.3340
 7117TIP3    H121315   0.887   5.997   2.444  0.2291 -1.9682 -0.6754
 7117TIP3    H221316   0.749   5.967   2.500 -0.2169  0.3509 -0.4201
 7118TIP3   OH221317   6.947   0.609   3.566 -0.3113 -0.1605 -0.2215
 7118TIP3    H121318   6.972   0.642   3.652 -2.5489  2.8190 -0.5488
 7118TIP3    H221319   6.953   0.514   3.574  1.5568  0.0757  2.5112
 7119TIP3   OH221320   6.419   2.992   3.502 -0.0752 -0.4596  0.8332
 7119TIP3    H121321   6.499   2.947   3.473  0.6560 -0.0368  2.1266
 7119TIP3    H221322   6.435   3.013   3.594 -1.1979  0.6939  0.7943
 7120TIP3   OH221323   6.179   1.879   0.294 -0.5872  0.0183  0.1754
 7120TIP3    H121324   6.161   1.802   0.241  0.1030  0.2696 -0.4446
 7120TIP3    H221325   6.136   1.862   0.377 -1.3032 -0.5862 -0.3082
 7121TIP3   OH221326   2.979   1.063   4.007 -0.2639 -0.0503  0.3655
 7121TIP3    H121327   3.038   1.122   3.960 -0.6901  0.9398  1.0727
 7121TIP3    H221328   2.908   1.118   4.038 -0.6517 -0.9254  1.0822
 7122TIP3   OH221329   1.497   3.730   4.378 -0.8042  0.0433 -0.0977
 7122TIP3    H121330   1.470   3.739   4.286  1.7147  2.4291 -0.7690
 7122TIP3    H221331   1.428   3.773   4.428 -1.9009 -0.7158 -0.9348
 7123TIP3   OH221332   5.789   5.225   4.829 -0.1778 -0.4113  0.0676
 7123TIP3    H121333   5.698   5.256   4.836  0.2837  0.7485  1.4625
 7123TIP3    H221334   5.781   5.131   4.813 -1.6309 -0.5760  1.4995
 7124TIP3   OH221335   1.499   3.315   1.478  0.2198 -0.1570  0.5159
 7124TIP3    H121336   1.487   3.280   1.566  1.1996  3.1193  2.1169
 7124TIP3    H221337   1.571   3.264   1.440 -0.4231 -1.8161  1.4420
 7125TIP3   OH221338   3.112   2.583   0.676  0.2095  0.1832 -0.3008
 7125TIP3    H121339   3.184   2.580   0.740  0.2112 -0.3865 -0.3227
 7125TIP3    H221340   3.056   2.655   0.706 -0.2368 -0.5980  0.8359
 7126TIP3   OH221341   4.264   0.608   0.756 -0.0191  0.0726  0.1745
 7126TIP3    H121342   4.218   0.552   0.694  2.3798 -3.4727  1.2632
 7126TIP3    H221343   4.330   0.653   0.704 -1.8333  1.8660 -0.6826
 7127TIP3   OH221344   1.472   5.012   0.836 -0.3956 -0.3985 -0.0802
 7127TIP3    H121345   1.377   5.000   0.843 -0.0587 -2.4808  2.4093
 7127TIP3    H221346   1.499   4.949   0.769 -0.7797  0.4812 -1.0847
 7128TIP3   OH221347   6.891   0.335   4.426  0.3658 -0.2077  0.0826
 7128TIP3    H121348   6.801   0.358   4.405  0.1688 -0.5033  0.5615
 7128TIP3    H221349   6.941   0.359   4.349  0.2500  2.1440  0.6720
 7129TIP3   OH221350   2.935   4.545   5.213  0.0568 -0.5920 -0.1875
 7129TIP3    H121351   2.865   4.492   5.175  0.0642  0.2513 -1.4270
 7129TIP3    H221352   2.987   4.574   5.138  0.5245  0.4797  0.5253
 7130TIP3   OH221353   2.619   3.708   3.509  0.2690  0.3084 -0.1942
 7130TIP3    H121354   2.684   3.692   3.441 -0.4308  0.4423 -0.9031
 7130TIP3    H221355   2.632   3.800   3.533  1.2810 -0.0360  0.6937
 7131TIP3   OH221356   2.034   0.948   3.945  0.5244 -0.5956  0.6279
 7131TIP3    H121357   2.016   0.952   4.039  2.0012  1.3840  0.9009
 7131TIP3    H221358   2.125   0.978   3.937  0.9514 -2.1891 -1.3216
 7132TIP3   OH221359   1.660   2.454   1.432  0.1838 -0.1494 -0.1777
 7132TIP3    H121360   1.734   2.406   1.396  1.8098  2.0099  0.1198
 7132TIP3    H221361   1.630   2.400   1.505  1.1273 -1.3108 -0.6143
 7133TIP3   OH221362   3.684   4.113   1.694 -0.0793 -0.2392 -0.1347
 7133TIP3    H121363   3.716   4.066   1.771 -1.3813  1.2580  1.4135
 7133TIP3    H221364   3.657   4.044   1.634  1.7144 -1.4682  0.3701
 7134TIP3   OH221365   2.904   0.016   3.002 -0.0452  0.1489  0.0697
 7134TIP3    H121366   2.846   0.086   2.975  1.6431  1.5239 -0.1580
 7134TIP3    H221367   2.960   0.000   2.926  0.2014 -0.8089  0.4337
 7135TIP3   OH221368   5.117   0.342   4.175 -0.4869 -0.1551  0.2818
 7135TIP3    H121369   5.120   0.421   4.228  0.9415  0.1813 -0.2655
 7135TIP3    H221370   5.024   0.324   4.164 -0.8492  1.7301 -0.0194
 7136TIP3   OH221371   1.313   1.440   5.073  0.5120  0.0768  0.2773
 7136TIP3    H121372   1.370   1.506   5.032  0.7710 -1.0422 -1.2555
 7136TIP3    H221373   1.243   1.491   5.113  1.2824  1.3389  0.0811
 7137TIP3   OH221374   6.256   4.476   1.396 -0.2120  0.1026  0.7733
 7137TIP3    H121375   6.343   4.445   1.372 -0.1314  1.0612 -0.2728
 7137TIP3    H221376   6.196   4.416   1.351 -0.0704  0.2853  0.3300
 7138TIP3   OH221377   6.009   4.743   1.939 -0.1151  0.2108 -0.0279
 7138TIP3    H121378   6.085   4.707   1.985 -0.0458 -0.3990 -0.6055
 7138TIP3    H221379   5.936   4.687   1.964 -0.7238  1.6486  1.6874
 7139TIP3   OH221380   0.734   3.860   4.614 -0.7014 -0.4044 -0.2143
 7139TIP3    H121381   0.658   3.835   4.666 -2.2263  0.8597 -1.7059
 7139TIP3    H221382   0.725   3.955   4.602  1.6596 -0.0274  0.3433
 7140TIP3   OH221383   6.534   1.194   4.083 -0.9065 -0.2188  0.3663
 7140TIP3    H121384   6.465   1.183   4.148 -2.9605 -1.0084 -1.8091
 7140TIP3    H221385   6.494   1.249   4.015  1.4921  1.4364  0.1549
 7141TIP3   OH221386   4.826   3.987   2.088  0.1019  0.1548 -0.2361
 7141TIP3    H121387   4.917   4.001   2.111  0.8434 -0.8950 -2.2822
 7141TIP3    H221388   4.822   3.895   2.063 -1.2841  0.4569 -1.2179
 7142TIP3   OH221389   3.940   4.995   4.142  0.0460 -0.0052  0.0552
 7142TIP3    H121390   3.886   4.976   4.219 -2.6513  0.5563 -1.5546
 7142TIP3    H221391   3.950   5.090   4.143  0.7842 -0.0803  0.1780
 7143TIP3   OH221392   6.277   5.612   1.888  0.1023  0.1133  0.0655
 7143TIP3    H121393   6.338   5.582   1.956  1.3196  0.8433 -0.6902
 7143TIP3    H221394   6.328   5.612   1.807 -1.7972 -2.4712 -1.2575
 7144TIP3   OH221395   3.297   0.183   2.768 -0.6985  0.8334  0.0529
 7144TIP3    H121396   3.283   0.278   2.767  0.3143  0.9965 -0.7029
 7144TIP3    H221397   3.343   0.166   2.686 -1.2401 -0.3784 -0.0089
 7145TIP3   OH221398   5.656   5.915   0.435 -0.0517 -0.0084  0.4309
 7145TIP3    H121399   5.712   5.911   0.357  0.6642  1.0440  0.8669
 7145TIP3    H221400   5.708   5.964   0.499 -1.2061  0.3943  1.0848
 7146TIP3   OH221401   5.846   6.590   2.341  0.1329  0.0286 -0.0085
 7146TIP3    H121402   5.775   6.646   2.309 -0.5963 -0.5067  0.6118
 7146TIP3    H221403   5.808   6.502   2.342  0.1990 -0.0356  1.9635
 7147TIP3   OH221404   5.745   4.365   4.289 -0.1517  1.0004  0.3988
 7147TIP3    H121405   5.661   4.346   4.332 -1.2199 -0.4218 -2.0858
 7147TIP3    H221406   5.725   4.436   4.228  0.7635  1.4246  0.5747
 7148TIP3   OH221407   6.795   3.969   0.445 -0.5757 -0.0298  0.0667
 7148TIP3    H121408   6.807   3.888   0.397  1.1638 -0.2332  0.7733
 7148TIP3    H221409   6.792   4.037   0.378 -0.1045 -0.4967 -0.4328
 7149TIP3   OH221410   0.730   4.450   2.930 -0.1349  0.2176  0.2812
 7149TIP3    H121411   0.664   4.440   2.999 -1.2355  0.6144 -0.6695
 7149TIP3    H221412   0.793   4.513   2.965 -0.5413  0.2196  1.0214
 7150TIP3   OH221413   1.057   2.214   1.447  0.0293 -0.0979  0.2219
 7150TIP3    H121414   1.141   2.256   1.462 -0.7079  1.3986  0.3456
 7150TIP3    H221415   1.079   2.129   1.409  1.6499 -0.5910  2.1158
 7151TIP3   OH221416   1.649   6.769   0.856 -0.3461  0.4928 -0.3512
 7151TIP3    H121417   1.730   6.720   0.872  0.8448  2.2598 -0.6091
 7151TIP3    H221418   1.638   6.767   0.761  0.8793  2.3636 -0.5937
 7152TIP3   OH221419   1.479   6.503   5.522  0.2951  0.2882 -0.4756
 7152TIP3    H121420   1.528   6.485   5.602 -0.3786 -1.8314 -0.4816
 7152TIP3    H221421   1.522   6.450   5.455 -0.9322 -0.2500 -0.8593
 7153TIP3   OH221422   7.028   2.839   0.376  0.1229  0.9420  0.1543
 7153TIP3    H121423   7.122   2.821   0.370 -0.1008 -0.1904 -0.1392
 7153TIP3    H221424   6.987   2.764   0.333 -0.9633  0.7940  1.3976
 7154TIP3   OH221425   5.037   6.106   3.353  0.2613 -0.6718 -0.2735
 7154TIP3    H121426   5.102   6.055   3.305  1.2720  0.3915 -0.0954
 7154TIP3    H221427   4.962   6.048   3.362  0.8046 -1.5854 -1.3818
 7155TIP3   OH221428   5.205   4.220   1.419  0.1786  0.5683 -0.2931
 7155TIP3    H121429   5.201   4.299   1.364 -1.6045  1.4386  0.9504
 7155TIP3    H221430   5.184   4.148   1.360 -1.6014  1.4725 -0.8435
 7156TIP3   OH221431   2.400   2.747   5.637  0.1244 -0.2391  0.0938
 7156TIP3    H121432   2.475   2.770   5.583 -1.7623  1.5805 -1.9372
 7156TIP3    H221433   2.388   2.823   5.694 -1.4937  0.5415 -1.2175
 7157TIP3   OH221434   0.200   0.389   3.268  0.3640 -0.1131 -0.3802
 7157TIP3    H121435   0.154   0.391   3.352  0.3490 -1.0651 -0.3556
 7157TIP3    H221436   0.199   0.480   3.238 -0.3501  0.1016  0.2577
 7158TIP3   OH221437   5.268   2.838   3.532 -0.0322  0.2664  0.3582
 7158TIP3    H121438   5.308   2.774   3.472 -0.9924  0.6217 -0.6991
 7158TIP3    H221439   5.174   2.820   3.526 -0.4759  2.7260 -1.1249
 7159TIP3   OH221440   2.806   0.166   0.938 -0.0778  0.2672 -0.0690
 7159TIP3    H121441   2.729   0.141   0.887  0.5655  0.0188 -0.9394
 7159TIP3    H221442   2.777   0.240   0.991 -0.5553  1.0636 -1.3944
 7160TIP3   OH221443   0.194   5.100   1.552  0.0966  0.2096 -0.1802
 7160TIP3    H121444   0.111   5.141   1.576  1.0023  2.3051 -0.4205
 7160TIP3    H221445   0.211   5.037   1.622 -0.6500  1.3227  1.0660
 7161TIP3   OH221446   6.034   2.534   5.900  0.3104  0.1471  0.8269
 7161TIP3    H121447   6.108   2.502   5.849 -0.5434  0.4393 -0.6396
 7161TIP3    H221448   5.999   2.607   5.850 -0.4477  0.5707  1.9312
 7162TIP3   OH221449   2.214   5.375   0.139  0.5441  0.2529 -0.7046
 7162TIP3    H121450   2.235   5.425   0.060 -2.3495  1.8600 -0.6037
 7162TIP3    H221451   2.160   5.435   0.191 -0.5682 -1.9808  0.8518
 7163TIP3   OH221452   5.018   4.874   2.016 -0.1556  0.0333  0.1905
 7163TIP3    H121453   4.972   4.864   1.933 -0.5487  1.0523  0.2628
 7163TIP3    H221454   5.043   4.967   2.019 -0.6577  0.1568  1.4498
 7164TIP3   OH221455   5.112   1.987   1.567 -0.4831 -0.0308 -0.2675
 7164TIP3    H121456   5.051   1.949   1.504  0.5372  0.3867 -1.5426
 7164TIP3    H221457   5.198   1.964   1.534  0.0904  0.7420  0.6429
 7165TIP3   OH221458   5.868   5.542   3.856  0.6086  0.1665  0.4228
 7165TIP3    H121459   5.925   5.514   3.927  0.0322  0.3336  0.9594
 7165TIP3    H221460   5.880   5.636   3.850  1.0328  0.0866 -0.0408
 7166TIP3   OH221461   4.516   0.471   0.776 -0.1104 -0.2327  0.3148
 7166TIP3    H121462   4.557   0.410   0.838 -0.6346 -1.8171 -0.8245
 7166TIP3    H221463   4.426   0.439   0.767 -0.5279  0.9715 -0.0113
 7167TIP3   OH221464   1.364   1.018   2.197  0.5475 -0.0573 -0.1464
 7167TIP3    H121465   1.352   0.935   2.243 -0.4234 -1.2355 -2.4035
 7167TIP3    H221466   1.329   1.084   2.258 -0.7673 -1.5381  0.7850
 7168TIP3   OH221467   6.731   5.977   4.607 -0.0367  0.0912  0.3097
 7168TIP3    H121468   6.769   6.018   4.529  1.6097 -1.6564  0.1078
 7168TIP3    H221469   6.657   5.926   4.574  0.2625 -0.1345 -0.0114
 7169TIP3   OH221470   0.214   5.612   5.252  0.5125  0.4389  0.3729
 7169TIP3    H121471   0.120   5.596   5.262  0.4396  0.9861  0.6478
 7169TIP3    H221472   0.223   5.651   5.165  0.5125  0.1999  0.2649
 7170TIP3   OH221473   3.865   4.401   0.538 -0.1222  0.1933  0.5566
 7170TIP3    H121474   3.861   4.327   0.478 -0.6738  1.6277 -1.2887
 7170TIP3    H221475   3.941   4.452   0.508 -0.6165  1.1225  0.8356
 7171TIP3   OH221476   2.444   1.197   2.252 -0.1943  0.6072  0.2241
 7171TIP3    H121477   2.514   1.138   2.225  0.0674  0.1909  1.6979
 7171TIP3    H221478   2.462   1.279   2.206  0.0722 -0.1073 -0.9941
 7172TIP3   OH221479   6.066   4.302   1.285  0.6328  0.3054 -0.6416
 7172TIP3    H121480   6.012   4.381   1.280  1.0709  0.5113 -2.6622
 7172TIP3    H221481   6.021   4.247   1.350  0.4192  2.2451  0.9605
 7173TIP3   OH221482   0.910   5.467   3.884  0.0903  0.1943 -0.6754
 7173TIP3    H121483   0.836   5.494   3.938  0.1702  1.4669 -1.1793
 7173TIP3    H221484   0.944   5.548   3.846  0.0898 -0.6308 -2.5736
 7174TIP3   OH221485   3.023   4.817   2.402 -0.1164  0.2263  0.3661
 7174TIP3    H121486   2.930   4.832   2.385 -0.4101  0.9480  2.3439
 7174TIP3    H221487   3.046   4.743   2.347 -1.7778  0.2481 -0.4091
 7175TIP3   OH221488   7.031   3.271   1.781 -0.1374  0.0517  0.0159
 7175TIP3    H121489   7.009   3.182   1.808 -0.5733 -0.6938 -2.5728
 7175TIP3    H221490   7.120   3.284   1.813 -0.4690 -0.8727  1.3952
 7176TIP3   OH221491   4.537   6.244   2.630 -0.3325  0.5297  0.1145
 7176TIP3    H121492   4.498   6.329   2.648 -1.2266  0.4766 -1.3653
 7176TIP3    H221493   4.478   6.203   2.566  1.2779 -0.2208 -0.9856
 7177TIP3   OH221494   6.203   5.869   1.542 -0.4101 -0.0054  0.0057
 7177TIP3    H121495   6.192   5.961   1.519  1.5917 -0.2978 -2.6305
 7177TIP3    H221496   6.282   5.867   1.596  0.7524 -0.2811 -1.6119
 7178TIP3   OH221497   0.125   1.479   2.536 -0.4456 -0.1420  0.4486
 7178TIP3    H121498   0.032   1.501   2.532 -0.5455 -0.7157 -1.5683
 7178TIP3    H221499   0.155   1.486   2.445  2.0052  2.0716  1.2983
 7179TIP3   OH221500   3.671   2.299   2.328 -0.0825 -0.1780 -0.1467
 7179TIP3    H121501   3.677   2.355   2.250 -1.8625 -0.5107 -0.5688
 7179TIP3    H221502   3.680   2.360   2.401 -1.8471  0.7102 -0.6054
 7180TIP3   OH221503   5.767   4.703   5.913  0.8141 -0.1386  0.2493
 7180TIP3    H121504   5.815   4.783   5.934  0.9573  0.2514 -1.4071
 7180TIP3    H221505   5.795   4.681   5.824 -1.7165 -0.1405 -0.6356
 7181TIP3   OH221506   5.611   6.463   3.585  0.0879  0.1063  0.2801
 7181TIP3    H121507   5.517   6.462   3.604 -0.4275 -1.5830 -1.8783
 7181TIP3    H221508   5.625   6.543   3.535  0.1232  1.1024  1.8349
 7182TIP3   OH221509   4.527   4.711   1.739  0.1144 -0.2743 -0.0807
 7182TIP3    H121510   4.500   4.799   1.713  1.1607  0.3795  0.9517
 7182TIP3    H221511   4.511   4.708   1.834  0.4664 -1.0531 -0.0363
 7183TIP3   OH221512   0.969   5.098   5.085 -0.2996 -0.3683 -0.1426
 7183TIP3    H121513   1.040   5.139   5.035 -0.9076  0.2643 -0.4925
 7183TIP3    H221514   1.010   5.020   5.124  0.1226 -1.0323 -1.8437
 7184TIP3   OH221515   5.924   2.020   2.433 -0.0984 -0.5638  0.5387
 7184TIP3    H121516   5.974   1.981   2.505 -0.9461 -1.2244  0.7909
 7184TIP3    H221517   5.942   1.963   2.358  1.8312  0.8587 -0.1678
 7185TIP3   OH221518   2.144  -0.001   2.744  0.0149  0.4178  0.4751
 7185TIP3    H121519   2.161   0.086   2.709  0.5842  0.4271  0.7694
 7185TIP3    H221520   2.068   0.010   2.801 -1.2148  0.3225 -1.0725
 7186TIP3   OH221521   3.926   2.194   5.535  0.3022 -0.0903  0.0535
 7186TIP3    H121522   3.974   2.143   5.600  0.4325 -0.3938 -0.2731
 7186TIP3    H221523   3.993   2.217   5.469  0.1605  0.1588 -0.0072
 7187TIP3   OH221524   3.412   4.807   2.867  0.7537  0.0733 -0.2165
 7187TIP3    H121525   3.389   4.770   2.952 -0.6541  1.7975  0.2334
 7187TIP3    H221526   3.342   4.778   2.808 -0.2390  1.6836  0.0893
 7188TIP3   OH221527   0.366   4.483   2.310  0.5734 -0.5607 -0.4705
 7188TIP3    H121528   0.336   4.402   2.269 -0.9525  0.3380 -1.1749
 7188TIP3    H221529   0.461   4.470   2.320  0.5684 -1.8914 -1.7788
 7189TIP3   OH221530   3.339   2.591   0.025 -0.4355 -0.5165 -0.0707
 7189TIP3    H121531   3.380   2.541   0.095  1.0465  0.0445 -0.4861
 7189TIP3    H221532   3.407   2.654  -0.002 -1.3642  0.0205 -1.2400
 7190TIP3   OH221533   3.835   5.357   4.961 -0.2773  0.1440  0.8041
 7190TIP3    H121534   3.928   5.375   4.950 -0.2678  0.6062  1.5572
 7190TIP3    H221535   3.812   5.302   4.886  0.8096 -0.7502  1.0981
 7191TIP3   OH221536   6.494   2.366   3.693 -0.2128 -0.1294 -0.1187
 7191TIP3    H121537   6.499   2.304   3.620  0.9122 -0.4828  0.2202
 7191TIP3    H221538   6.418   2.420   3.675 -1.5918 -1.9743 -0.1501
 7192TIP3   OH221539   5.427   2.961   3.985  0.3288 -0.1734 -0.2820
 7192TIP3    H121540   5.473   2.891   3.939 -1.1394 -1.6616  0.4305
 7192TIP3    H221541   5.349   2.977   3.932  0.0761  0.1165  0.1756
 7193TIP3   OH221542   4.362   5.929   5.561 -0.4498 -0.5474 -0.1375
 7193TIP3    H121543   4.379   6.014   5.521 -2.8330 -0.6531 -1.5555
 7193TIP3    H221544   4.423   5.869   5.518  0.8535  0.2964  0.4648
 7194TIP3   OH221545   1.425   3.651   5.520  0.2427 -0.9257  0.8313
 7194TIP3    H121546   1.404   3.568   5.478  1.7158 -1.0833  0.3456
 7194TIP3    H221547   1.471   3.701   5.453  1.0458 -0.4649  1.7046
 7195TIP3   OH221548   5.339   3.143   2.739 -0.3124  0.3235 -0.1091
 7195TIP3    H121549   5.412   3.081   2.743 -0.0079  0.6613 -0.2615
 7195TIP3    H221550   5.361   3.209   2.805 -1.3769 -0.5108  1.1010
 7196TIP3   OH221551   2.341   6.435   5.173 -0.1091  0.2422 -0.2908
 7196TIP3    H121552   2.271   6.445   5.108  0.5010 -1.9114 -1.3806
 7196TIP3    H221553   2.347   6.340   5.187  0.5349  0.5568  2.1314
 7197TIP3   OH221554   5.560   5.669   5.728 -0.0229 -0.1143  0.0726
 7197TIP3    H121555   5.643   5.648   5.770  0.6800 -0.7441 -1.5298
 7197TIP3    H221556   5.529   5.748   5.773  1.0057 -0.3588  1.2649
 7198TIP3   OH221557   3.588   4.756   3.399 -0.2738  0.4405 -0.4374
 7198TIP3    H121558   3.678   4.786   3.396  0.3041 -1.1816 -0.4662
 7198TIP3    H221559   3.539   4.820   3.347  0.4967  2.3942  1.1471
 7199TIP3   OH221560   5.379   3.852   1.767 -0.2087  0.3074 -0.1033
 7199TIP3    H121561   5.345   3.880   1.682 -3.0700 -1.4042  0.3427
 7199TIP3    H221562   5.359   3.926   1.825 -2.8088 -0.3709 -0.0051
 7200TIP3   OH221563   5.839   2.847   2.711 -0.2368 -0.4590  0.0043
 7200TIP3    H121564   5.777   2.777   2.692  1.6919 -2.0022 -1.0474
 7200TIP3    H221565   5.911   2.804   2.756  1.0963  0.7849 -0.8462
 7201TIP3   OH221566   5.738   2.436   4.157 -0.4542  0.2270 -0.3264
 7201TIP3    H121567   5.684   2.410   4.082 -0.8953  1.5533 -0.5105
 7201TIP3    H221568   5.679   2.431   4.232  0.1171 -1.5586  0.0366
 7202TIP3   OH221569   1.123   1.668   4.076 -0.5027  0.6751  0.0411
 7202TIP3    H121570   1.033   1.649   4.103 -0.7230  0.7539 -0.6117
 7202TIP3    H221571   1.114   1.733   4.006  0.0089  0.0556 -0.6189
 7203TIP3   OH221572   6.092   1.271   1.047  0.1017  0.2254  0.0841
 7203TIP3    H121573   6.054   1.233   0.968  0.3298 -1.6578  0.8346
 7203TIP3    H221574   6.162   1.211   1.072  0.5579  1.1996  1.2940
 7204TIP3   OH221575   0.375   2.033   2.998  0.0396  0.0644 -0.2880
 7204TIP3    H121576   0.310   1.984   2.947  0.2356 -0.6343  0.1277
 7204TIP3    H221577   0.377   2.120   2.957 -0.4288 -0.2212 -0.9267
 7205TIP3   OH221578   0.484   0.492   3.523  0.2266 -0.1984  0.4881
 7205TIP3    H121579   0.579   0.502   3.530  0.5322 -1.9288 -0.6390
 7205TIP3    H221580   0.456   0.564   3.467  1.1981 -0.9454 -1.0039
 7206TIP3   OH221581   5.262   3.485   0.698 -0.4380 -0.1790  0.4570
 7206TIP3    H121582   5.294   3.435   0.623 -0.5026  0.2083  0.1710
 7206TIP3    H221583   5.339   3.529   0.732 -0.8090  1.6139 -0.8803
 7207TIP3   OH221584   3.263   2.634   3.305  0.8160 -0.0841  0.0198
 7207TIP3    H121585   3.180   2.680   3.294 -0.5510 -2.7632 -1.7484
 7207TIP3    H221586   3.295   2.662   3.391 -2.2479  0.5134  1.0563
 7208TIP3   OH221587   6.728   3.934   0.828  0.1936  0.0098  0.0689
 7208TIP3    H121588   6.714   4.012   0.774 -0.4499 -1.2002 -1.5763
 7208TIP3    H221589   6.644   3.918   0.870  0.6000  0.7475  1.2253
 7209TIP3   OH221590   1.571   1.601   1.414  0.2746  0.4662  0.6289
 7209TIP3    H121591   1.577   1.694   1.394 -0.4082 -0.0514 -2.4466
 7209TIP3    H221592   1.654   1.564   1.384  0.2464 -0.0189  1.1289
 7210TIP3   OH221593   5.269   5.004   1.394  0.4513 -0.6775  0.2920
 7210TIP3    H121594   5.277   4.917   1.355 -0.6547 -0.5304 -0.3140
 7210TIP3    H221595   5.225   4.989   1.478 -0.5490 -0.6303 -0.2100
 7211TIP3   OH221596   4.823   3.801   4.397  0.5190  0.1216  0.7361
 7211TIP3    H121597   4.755   3.762   4.453  0.0697 -1.6756 -0.9735
 7211TIP3    H221598   4.777   3.871   4.349 -0.2856 -1.3442 -0.7082
 7212TIP3   OH221599   3.894   3.346   4.771  0.2769  0.2180 -0.3021
 7212TIP3    H121600   3.885   3.278   4.837  0.0775 -0.3070 -0.8546
 7212TIP3    H221601   3.988   3.358   4.761  0.3161  1.4143  1.1715
 7213TIP3   OH221602   2.667   0.254   3.842 -0.4229  0.4141  0.1669
 7213TIP3    H121603   2.682   0.166   3.876 -2.1347 -0.0694 -0.2568
 7213TIP3    H221604   2.690   0.248   3.749 -1.5386  0.1092 -0.1046
 7214TIP3   OH221605   2.551   3.543   0.431 -0.3356 -0.0717 -0.3410
 7214TIP3    H121606   2.549   3.630   0.393  1.1011 -0.2077 -0.8046
 7214TIP3    H221607   2.624   3.499   0.386 -0.9241 -1.4445  0.0016
 7215TIP3   OH221608   3.418   1.899   0.047  0.3070  0.0731 -0.2012
 7215TIP3    H121609   3.430   1.829  -0.017  1.1147  0.9623 -1.0645
 7215TIP3    H221610   3.331   1.885   0.083 -0.9324  0.5450 -2.7825
 7216TIP3   OH221611   5.497   5.739   0.725  0.1440  0.2305 -0.1790
 7216TIP3    H121612   5.473   5.660   0.676 -0.5557  0.6185 -0.4746
 7216TIP3    H221613   5.451   5.810   0.680  2.4336  1.1459 -1.2560
 7217TIP3   OH221614   2.649   3.932   0.661  0.2562 -1.0041  0.1088
 7217TIP3    H121615   2.665   3.838   0.669  0.3872 -0.9102  1.0434
 7217TIP3    H221616   2.625   3.960   0.750  1.1980  0.0185  0.0604
 7218TIP3   OH221617   3.285   0.016   0.831 -0.2568  0.1456 -0.6439
 7218TIP3    H121618   3.262  -0.074   0.805 -0.0047  0.1870 -1.0281
 7218TIP3    H221619   3.201   0.060   0.842 -0.3835  0.1083 -1.3624
 7219TIP3   OH221620   4.673   1.157   0.548  0.7605 -0.1104  0.4853
 7219TIP3    H121621   4.688   1.136   0.640  0.1739  0.7173  0.7824
 7219TIP3    H221622   4.745   1.114   0.501  0.6914 -1.1004  1.2529
 7220TIP3   OH221623   0.562   5.261   1.340  0.4011 -0.5590 -0.0800
 7220TIP3    H121624   0.550   5.286   1.248  0.7462  1.9783  0.4947
 7220TIP3    H221625   0.654   5.282   1.359 -0.3364  1.5688  1.5139
 7221TIP3   OH221626   5.380   3.226   5.256 -0.4354 -0.1609 -0.4083
 7221TIP3    H121627   5.289   3.200   5.252 -1.0447  1.6721  0.3516
 7221TIP3    H221628   5.429   3.144   5.267 -2.1668 -0.9996  1.6879
 7222TIP3   OH221629   6.498   4.681   4.871 -0.5346  0.0023  0.1919
 7222TIP3    H121630   6.576   4.680   4.816  1.6142  2.3765  2.9234
 7222TIP3    H221631   6.426   4.696   4.810  1.1722 -1.2435 -2.3192
 7223TIP3   OH221632   2.200   3.524   5.283 -0.5450  0.8677  0.2596
 7223TIP3    H121633   2.165   3.610   5.307 -0.6512  1.4100 -1.6551
 7223TIP3    H221634   2.150   3.498   5.206  1.3104  0.3608 -0.8442
 7224TIP3   OH221635   4.686   5.419   0.400 -0.1605 -0.2693  0.1422
 7224TIP3    H121636   4.728   5.465   0.327 -1.5032 -0.5096 -0.8209
 7224TIP3    H221637   4.596   5.406   0.371 -1.0220  0.5211  2.2564
 7225TIP3   OH221638   2.393   0.208   4.987 -0.4964  0.2608 -0.1995
 7225TIP3    H121639   2.470   0.161   5.021 -1.2252 -0.5636  0.3543
 7225TIP3    H221640   2.410   0.300   5.009  0.1041  0.0264  0.3520
 7226TIP3   OH221641   6.286   3.563   5.049 -0.3554 -0.2881  0.1193
 7226TIP3    H121642   6.236   3.623   4.994  1.1879  1.8400  0.8829
 7226TIP3    H221643   6.254   3.476   5.026 -0.7061  0.5816 -3.1358
 7227TIP3   OH221644   0.640   1.160   3.108 -0.3731 -0.4618  0.2994
 7227TIP3    H121645   0.718   1.214   3.110 -0.1220 -0.8491  1.6293
 7227TIP3    H221646   0.575   1.214   3.063 -0.4022  1.3505  2.3375
 7228TIP3   OH221647   4.656   2.920   1.490 -0.2611 -0.0852 -0.1954
 7228TIP3    H121648   4.698   2.837   1.465  0.5092  0.2083  0.0701
 7228TIP3    H221649   4.568   2.895   1.519  0.4389 -1.0236  1.2797
 7229TIP3   OH221650   2.387   1.806   4.419  0.1393 -0.1811  0.6451
 7229TIP3    H121651   2.436   1.798   4.500  0.5825 -0.9735  0.3163
 7229TIP3    H221652   2.434   1.750   4.357 -0.1658  0.4417 -0.1705
 7230TIP3   OH221653   0.459   3.114   1.279  0.2676 -0.4340 -0.4249
 7230TIP3    H121654   0.542   3.154   1.254  0.0780 -0.6698 -1.5091
 7230TIP3    H221655   0.477   3.020   1.279  0.1437 -0.4564 -0.1255
 7231TIP3   OH221656   0.215   2.737   4.268  0.0308 -0.0920  0.2967
 7231TIP3    H121657   0.280   2.763   4.203  1.6071  0.8882  2.1356
 7231TIP3    H221658   0.261   2.745   4.352 -2.1686 -0.3936  1.6121
 7232TIP3   OH221659   4.995   6.588   0.651  0.2964 -0.2562 -0.1764
 7232TIP3    H121660   5.062   6.539   0.605  0.5755 -0.0440  0.0002
 7232TIP3    H221661   4.940   6.522   0.692  0.1103 -0.4468 -0.7145
 7233TIP3   OH221662   2.711   4.102   0.468  0.1272  0.2478  0.3287
 7233TIP3    H121663   2.671   4.047   0.536  2.3449  1.0796  2.4551
 7233TIP3    H221664   2.640   4.160   0.440 -0.7212  0.4090  2.5451
 7234TIP3   OH221665   3.194   2.122   1.547  0.4251  0.8883 -0.4017
 7234TIP3    H121666   3.107   2.091   1.523  1.4238 -0.3116 -2.8464
 7234TIP3    H221667   3.239   2.045   1.580  1.0391  1.1108 -0.6951
 7235TIP3   OH221668   0.131   2.854   0.631 -0.4808  0.0056  0.6240
 7235TIP3    H121669   0.046   2.814   0.647  0.0101 -0.7156  1.5647
 7235TIP3    H221670   0.165   2.808   0.554 -0.6779 -0.1438  0.6246
 7236TIP3   OH221671   2.613   3.200   3.038  0.1090  0.2082  0.1514
 7236TIP3    H121672   2.547   3.140   3.004 -0.6554  1.0526  0.0958
 7236TIP3    H221673   2.592   3.207   3.132  0.0851  0.5125  0.1245
 7237TIP3   OH221674   5.722   1.348   1.229  0.4414 -0.1226  0.3414
 7237TIP3    H121675   5.705   1.437   1.199  0.1081 -0.6142 -0.9554
 7237TIP3    H221676   5.644   1.299   1.206  2.2302 -1.7165 -2.9155
 7238TIP3   OH221677   6.980   5.696   4.633  0.6127 -0.4701  0.3521
 7238TIP3    H121678   6.949   5.787   4.628  1.4325 -0.2354 -1.0087
 7238TIP3    H221679   7.036   5.694   4.711  1.6293  0.5575 -0.3132
 7239TIP3   OH221680   2.087  -0.009   4.110 -0.6816  0.1377 -0.2503
 7239TIP3    H121681   2.083  -0.018   4.015  1.2696 -0.3610 -0.3325
 7239TIP3    H221682   2.129   0.076   4.124  1.7865 -1.0411  0.0436
 7240TIP3   OH221683   1.766   0.419   1.459  0.0278 -0.4275 -0.1433
 7240TIP3    H121684   1.737   0.328   1.470 -1.5492  0.0676  0.1874
 7240TIP3    H221685   1.723   0.466   1.531 -0.2292  0.7897 -1.0615
 7241TIP3   OH221686   3.542   3.826   1.166 -1.0862  0.2179  0.2882
 7241TIP3    H121687   3.547   3.793   1.077  1.4236  0.1197  0.3882
 7241TIP3    H221688   3.526   3.747   1.219 -2.0160  0.2009  0.0076
 7242TIP3   OH221689   1.601   6.019   5.128  0.0357 -0.5427 -0.2734
 7242TIP3    H121690   1.555   5.975   5.056  0.4532  0.0657 -0.9316
 7242TIP3    H221691   1.534   6.074   5.169  0.4734  1.8421 -2.4240
 7243TIP3   OH221692   5.979   2.698   0.411 -0.0179 -0.5718  0.6626
 7243TIP3    H121693   6.001   2.642   0.336  2.0564  0.1300  0.6878
 7243TIP3    H221694   5.980   2.640   0.486  0.4136 -0.8076  0.4738
 7244TIP3   OH221695   5.655   0.948   1.679 -0.1947 -0.1884  0.1604
 7244TIP3    H121696   5.656   0.977   1.588 -0.2946 -0.3359  0.1121
 7244TIP3    H221697   5.627   1.025   1.728  0.8076  0.1809  0.1710
 7245TIP3   OH221698   5.891   2.891   3.709  0.5425  0.0466  0.3378
 7245TIP3    H121699   5.957   2.848   3.762  0.0000  0.0012  0.9834
 7245TIP3    H221700   5.854   2.959   3.766  1.0929  1.0988 -0.5210
 7246TIP3   OH221701   6.525   6.334   3.747  0.3123 -0.2933  0.0477
 7246TIP3    H121702   6.498   6.426   3.741  1.1928 -0.1045 -1.6437
 7246TIP3    H221703   6.619   6.336   3.728  0.7430 -1.3649  1.8397
 7247TIP3   OH221704   6.999   4.091   3.369 -0.6388  0.0688  0.1160
 7247TIP3    H121705   6.995   4.158   3.302 -0.2614 -1.4510 -1.4910
 7247TIP3    H221706   7.060   4.026   3.335 -1.7770 -1.6116  1.0949
 7248TIP3   OH221707   5.105   0.585   3.982 -0.2825 -0.0113  0.0010
 7248TIP3    H121708   5.089   0.499   4.020 -1.2823  0.3825  0.5019
 7248TIP3    H221709   5.072   0.647   4.047  0.0608  0.7481 -0.5235
 7249TIP3   OH221710   5.388   5.829   4.617  0.1564  0.0645  0.1963
 7249TIP3    H121711   5.368   5.915   4.653  2.7296  0.0889  1.8270
 7249TIP3    H221712   5.366   5.768   4.688  1.8096 -0.2290  0.4978
 7250TIP3   OH221713   0.894   1.679   1.409 -0.2854 -0.0248 -0.5198
 7250TIP3    H121714   0.864   1.649   1.323  2.3104 -3.3978 -0.4724
 7250TIP3    H221715   0.962   1.616   1.433 -1.7176 -0.0271  4.5650
 7251TIP3   OH221716   5.463   0.139   2.216  0.3197 -0.5916  0.0308
 7251TIP3    H121717   5.520   0.215   2.230  0.8607 -0.3334 -2.9956
 7251TIP3    H221718   5.374   0.175   2.215  0.4005 -0.3563  0.6536
 7252TIP3   OH221719   4.691   5.223   2.836  0.1227  0.0279 -0.8132
 7252TIP3    H121720   4.783   5.247   2.821  0.4399 -0.0920  0.7296
 7252TIP3    H221721   4.685   5.210   2.931 -1.2842 -0.8515 -0.9927
 7253TIP3   OH221722   1.934   0.513   3.194 -0.8227  0.0686  0.4720
 7253TIP3    H121723   2.028   0.516   3.213 -0.6822 -0.8022 -0.0353
 7253TIP3    H221724   1.928   0.464   3.112 -1.7316 -0.0081  0.5765
 7254TIP3   OH221725   6.675   0.753   4.706 -0.0695  0.4801  0.7095
 7254TIP3    H121726   6.656   0.739   4.799  1.3292  2.8640  1.4517
 7254TIP3    H221727   6.762   0.715   4.694  0.1410  0.9782  0.6304
 7255TIP3   OH221728   0.530   5.458   4.718  0.0814  0.2205 -0.6697
 7255TIP3    H121729   0.441   5.422   4.724  0.5053 -0.7093  0.4638
 7255TIP3    H221730   0.557   5.440   4.628 -0.1617 -1.3141 -0.4712
 7256TIP3   OH221731   1.173   6.812   5.530 -0.0539 -1.2110 -0.1225
 7256TIP3    H121732   1.194   6.814   5.436 -0.6290  0.1374 -0.2424
 7256TIP3    H221733   1.227   6.741   5.565 -1.0940 -2.8995 -1.7613
 7257TIP3   OH221734   3.053   5.017   3.922  0.2976 -0.0996 -0.2810
 7257TIP3    H121735   3.110   5.036   3.996  1.2986 -1.6686 -0.6166
 7257TIP3    H221736   3.021   4.928   3.938  0.3002 -0.3565 -1.5896
 7258TIP3   OH221737   1.939   0.911   1.040  0.6867 -0.2191 -0.4582
 7258TIP3    H121738   1.891   0.956   1.109  1.4778  1.4852 -0.9826
 7258TIP3    H221739   2.031   0.933   1.055  1.0667 -1.3503 -0.9704
 7259TIP3   OH221740   3.017   3.813   5.593  0.8976 -0.7116 -0.2950
 7259TIP3    H121741   2.982   3.834   5.679  1.0449  0.8263 -0.5847
 7259TIP3    H221742   2.960   3.743   5.560  0.4093 -0.8196  0.7398
 7260TIP3   OH221743   3.175   6.479   2.516 -1.0613 -0.0277 -0.5092
 7260TIP3    H121744   3.162   6.561   2.467 -0.8301 -0.7405 -1.8113
 7260TIP3    H221745   3.148   6.500   2.605 -0.3271  1.6874 -0.6422
 7261TIP3   OH221746   6.341   5.882   4.622  0.0877 -0.5937 -0.1277
 7261TIP3    H121747   6.259   5.850   4.660  0.0539  1.2598  1.5324
 7261TIP3    H221748   6.316   5.916   4.536 -0.6314 -1.1613 -0.1529
 7262TIP3   OH221749   5.178   1.174   0.646 -0.0197 -0.4579 -0.3243
 7262TIP3    H121750   5.146   1.260   0.672 -0.7907 -0.3904 -1.4146
 7262TIP3    H221751   5.135   1.113   0.706 -0.1590 -0.1556 -0.1149
 7263TIP3   OH221752   6.752   2.983   0.510  0.6840  0.3515  0.2234
 7263TIP3    H121753   6.831   3.021   0.548  1.5999 -0.7858 -0.4893
 7263TIP3    H221754   6.784   2.928   0.438 -0.9511  2.3122 -2.1629
 7264TIP3   OH221755   3.715   4.239   4.232  0.1425 -0.1407 -0.3562
 7264TIP3    H121756   3.719   4.307   4.299 -4.2337 -0.4487  0.4654
 7264TIP3    H221757   3.669   4.280   4.159  2.8465 -0.5184 -2.4279
 7265TIP3   OH221758   5.176   2.821   1.196 -0.2880 -0.1770 -0.1520
 7265TIP3    H121759   5.123   2.859   1.127  1.3149  1.2093 -0.6862
 7265TIP3    H221760   5.154   2.872   1.274 -0.9692 -0.7302  0.0249
 7266TIP3   OH221761   0.193   0.555   4.903  0.6555 -0.2013  0.9218
 7266TIP3    H121762   0.179   0.624   4.968 -0.0158 -0.7075  1.3336
 7266TIP3    H221763   0.269   0.507   4.935  1.7802  0.9630  0.0806
 7267TIP3   OH221764   5.196   4.646   1.983  0.1802 -0.0997 -0.2168
 7267TIP3    H121765   5.134   4.576   2.006 -0.0622  0.4000  0.6912
 7267TIP3    H221766   5.140   4.718   1.953  0.4176 -0.2065 -0.9336
 7268TIP3   OH221767   5.378   2.944   4.403  0.1535  0.5031 -0.4518
 7268TIP3    H121768   5.324   3.023   4.395  1.3967  1.3584 -0.6812
 7268TIP3    H221769   5.317   2.876   4.430 -1.0796  1.3836 -0.9375
 7269TIP3   OH221770   5.398   4.025   5.391 -0.1279  0.4464 -0.2454
 7269TIP3    H121771   5.409   3.955   5.326  1.2682  0.0662  0.3549
 7269TIP3    H221772   5.401   4.106   5.341 -3.3429  0.1317 -1.1744
 7270TIP3   OH221773   2.736   1.755   4.382  0.1129 -0.3659  0.6876
 7270TIP3    H121774   2.793   1.679   4.368  0.5580  0.2886 -1.2936
 7270TIP3    H221775   2.662   1.741   4.324  1.2548  1.7036 -1.4651
 7271TIP3   OH221776   6.363   1.198   0.767 -0.0196  0.2772 -0.3389
 7271TIP3    H121777   6.390   1.282   0.803 -1.8373  0.6338  0.3098
 7271TIP3    H221778   6.274   1.185   0.801  0.1048 -1.7624 -0.6765
 7272TIP3   OH221779   4.782   2.091   2.953  0.4690  0.4272 -0.0824
 7272TIP3    H121780   4.815   2.145   3.025  1.1394  0.4009 -0.3677
 7272TIP3    H221781   4.748   2.013   2.997 -0.5970  1.1038  0.3375
 7273TIP3   OH221782   1.193   0.880   4.216 -0.0224 -0.2077  0.1171
 7273TIP3    H121783   1.202   0.971   4.245  1.2286 -0.1494 -0.3926
 7273TIP3    H221784   1.235   0.829   4.285 -0.9897 -0.4375  0.5494
 7274TIP3   OH221785   7.092   4.977   0.932  0.2647  0.2787  0.1564
 7274TIP3    H121786   7.130   4.948   1.015 -1.6477 -1.1740  0.5840
 7274TIP3    H221787   7.148   4.938   0.865  2.4828  2.3288  0.6295
 7275TIP3   OH221788   4.868   0.831   0.591  0.0858 -0.0255 -0.2366
 7275TIP3    H121789   4.961   0.812   0.602 -0.1841 -2.5211 -1.5820
 7275TIP3    H221790   4.860   0.860   0.500 -0.5641 -0.6991 -0.4017
 7276TIP3   OH221791   3.287   2.021   1.150  0.0213 -0.0328  0.4884
 7276TIP3    H121792   3.348   2.095   1.146 -1.0015  0.8213  0.3508
 7276TIP3    H221793   3.201   2.059   1.132 -0.5769 -1.2054  0.7467
 7277TIP3   OH221794   4.420   5.617   0.214 -0.3935  0.1066 -0.3406
 7277TIP3    H121795   4.433   5.536   0.264 -2.2175  0.6864  1.2146
 7277TIP3    H221796   4.497   5.670   0.234  0.2385 -0.7714 -0.4079
 7278TIP3   OH221797   0.239   5.409   1.777  0.4514  0.0195 -0.1685
 7278TIP3    H121798   0.317   5.404   1.721  1.7351  0.4285  1.4831
 7278TIP3    H221799   0.242   5.329   1.829  0.6843  0.7587  1.0031
 7279TIP3   OH221800   1.746   4.436   5.731 -0.4724 -0.1090 -0.5579
 7279TIP3    H121801   1.679   4.488   5.775 -0.0470 -0.7417  0.9125
 7279TIP3    H221802   1.739   4.349   5.772  2.0979  0.1489  0.6392
 7280TIP3   OH221803   5.987   4.793   3.545 -0.1733 -0.3896 -0.2992
 7280TIP3    H121804   6.044   4.799   3.622  0.2224 -0.4241 -0.5902
 7280TIP3    H221805   6.043   4.816   3.471 -0.9587  1.2922 -0.4174
 7281TIP3   OH221806   3.022   1.923   2.495 -0.1468 -0.1698  0.0348
 7281TIP3    H121807   2.940   1.873   2.496 -1.7954  2.3560  0.2466
 7281TIP3    H221808   3.047   1.931   2.587 -1.5693  1.8267  0.3201
 7282TIP3   OH221809   4.560   0.821   2.093 -0.5510 -0.2713  0.2147
 7282TIP3    H121810   4.491   0.755   2.096 -1.4528  0.5849 -0.8505
 7282TIP3    H221811   4.515   0.904   2.105  0.3565  0.2730 -0.0208
 7283TIP3   OH221812   6.043   6.174   4.513 -0.1578 -0.4466  0.0840
 7283TIP3    H121813   6.135   6.194   4.498 -0.1151 -0.5235  0.2475
 7283TIP3    H221814   6.041   6.079   4.525 -0.0583 -0.2895  1.5550
 7284TIP3   OH221815   0.386   1.661   2.822 -0.4007 -0.3271 -0.5186
 7284TIP3    H121816   0.291   1.658   2.811 -0.4905 -1.5502  0.4277
 7284TIP3    H221817   0.420   1.674   2.734 -1.4724  1.3451 -0.7336
 7285TIP3   OH221818   2.213   0.254   2.652  0.4746  0.0150  0.0339
 7285TIP3    H121819   2.166   0.271   2.570  1.9267  2.4979 -0.3893
 7285TIP3    H221820   2.263   0.335   2.668  0.7256 -0.6268  3.0499
 7286TIP3   OH221821   5.473   1.737   2.705  0.2880 -0.1879 -0.1478
 7286TIP3    H121822   5.432   1.718   2.789  0.3153 -2.2739 -0.5463
 7286TIP3    H221823   5.402   1.768   2.649 -0.3723 -1.6613 -0.1826
 7287TIP3   OH221824   2.917   0.735   3.076  0.4119 -0.2796 -0.2890
 7287TIP3    H121825   2.851   0.706   3.012 -0.4093 -0.2542  0.5319
 7287TIP3    H221826   2.867   0.759   3.153  0.9111  4.0607 -1.0791
 7288TIP3   OH221827   0.712   1.076   5.087  0.0956  0.0021  0.0064
 7288TIP3    H121828   0.764   0.996   5.090  0.9637  0.5090 -0.9889
 7288TIP3    H221829   0.630   1.050   5.045 -0.6140 -0.8528  1.8005
 7289TIP3   OH221830   6.842   1.057   1.741  0.4064 -0.7312  0.4355
 7289TIP3    H121831   6.858   1.013   1.824 -0.1872  1.1823  1.6171
 7289TIP3    H221832   6.749   1.042   1.722  0.1431  0.1507  0.9620
 7290TIP3   OH221833   6.797   4.501   0.407 -0.2430  0.1633  0.2447
 7290TIP3    H121834   6.707   4.532   0.390  0.8053  2.6407 -1.5104
 7290TIP3    H221835   6.848   4.582   0.414  1.8817 -1.1915  1.1860
 7291TIP3   OH221836   7.199   4.732   1.856  0.4259  0.0544 -0.7948
 7291TIP3    H121837   7.221   4.768   1.770 -3.1302 -0.4772 -2.1040
 7291TIP3    H221838   7.144   4.656   1.836 -0.8557  0.1443  1.9471
 7292TIP3   OH221839   4.202   4.278   2.466 -0.1616  0.2237  0.4739
 7292TIP3    H121840   4.285   4.307   2.430  0.2177 -0.7654  0.5227
 7292TIP3    H221841   4.226   4.232   2.547 -0.8969  1.3944  1.3858
 7293TIP3   OH221842   2.829   6.077   2.204 -0.3868 -0.3055 -0.5235
 7293TIP3    H121843   2.909   6.078   2.257 -0.6640 -0.5026 -0.0936
 7293TIP3    H221844   2.861   6.070   2.114  0.1022  0.5483 -0.4251
 7294TIP3   OH221845   3.485   4.826   5.183 -0.2411  0.2956 -0.3531
 7294TIP3    H121846   3.478   4.750   5.126  0.0890  0.3250 -0.4319
 7294TIP3    H221847   3.527   4.893   5.129  2.6799 -0.5248  0.7515
 7295TIP3   OH221848   6.886   5.221   1.372  0.1165  0.3925 -0.0124
 7295TIP3    H121849   6.974   5.213   1.337  0.2052 -1.7673  0.5563
 7295TIP3    H221850   6.839   5.274   1.308  1.0023 -1.0603 -1.9577
 7296TIP3   OH221851   6.880   0.367   2.269  0.0263 -0.4624  0.1720
 7296TIP3    H121852   6.931   0.357   2.349  1.5654  0.5267 -0.6330
 7296TIP3    H221853   6.810   0.302   2.277  0.8795 -1.2482  1.7326
 7297TIP3   OH221854   6.614   5.081   5.138  0.5119 -0.1763 -0.1033
 7297TIP3    H121855   6.662   5.030   5.072  0.3114 -1.3391  0.6240
 7297TIP3    H221856   6.661   5.064   5.219 -0.8642 -0.9695  0.5441
 7298TIP3   OH221857   4.279   0.542   0.079  0.7092  0.3993 -0.3159
 7298TIP3    H121858   4.273   0.475   0.147  0.3504  2.3377  1.6606
 7298TIP3    H221859   4.265   0.625   0.125 -1.1353  1.7297 -2.9767
 7299TIP3   OH221860   4.565   3.477   5.766 -0.3275  0.8448  0.4183
 7299TIP3    H121861   4.539   3.568   5.753 -1.1313  0.7758  1.4045
 7299TIP3    H221862   4.488   3.426   5.740  0.3972  0.3878 -0.9138
 7300TIP3   OH221863   0.983   6.128   0.124  0.1189  0.1704  0.4265
 7300TIP3    H121864   1.029   6.095   0.201 -1.6468  0.0080  1.4517
 7300TIP3    H221865   1.050   6.176   0.076  1.3468  0.0025  1.8842
 7301TIP3   OH221866   0.996   1.237   0.379  0.5169  0.4566  0.3232
 7301TIP3    H121867   1.071   1.185   0.350 -0.5933 -0.7802 -0.4369
 7301TIP3    H221868   1.005   1.321   0.333  1.1106  0.1024 -0.2174
 7302TIP3   OH221869   6.997   6.159   1.407  0.9767  0.1320  0.4282
 7302TIP3    H121870   6.927   6.097   1.383  0.0737  0.4818  2.0022
 7302TIP3    H221871   7.040   6.179   1.324  0.9914 -2.2036 -0.2164
 7303TIP3   OH221872   1.432   0.928   3.340  0.7029 -0.0529 -0.3050
 7303TIP3    H121873   1.455   0.966   3.425 -0.3218 -1.2219  0.5224
 7303TIP3    H221874   1.459   0.836   3.346 -0.2299 -0.3812 -0.8845
 7304TIP3   OH221875   5.734   2.726   0.871 -0.5300 -0.1627 -0.4916
 7304TIP3    H121876   5.790   2.682   0.935  0.1412 -1.4196 -1.8850
 7304TIP3    H221877   5.670   2.774   0.924  1.4383  0.8075  1.1403
 7305TIP3   OH221878   0.799   5.392   1.040 -0.2195 -0.1324  0.1789
 7305TIP3    H121879   0.779   5.449   0.966  0.9349 -0.1371 -0.1565
 7305TIP3    H221880   0.801   5.304   1.003  2.6146  0.0533 -0.3326
 7306TIP3   OH221881   3.003   0.419   0.184 -0.1242 -0.3854 -0.1812
 7306TIP3    H121882   3.083   0.460   0.151 -0.0926 -0.8702 -0.7186
 7306TIP3    H221883   2.947   0.492   0.210 -0.5624  0.0936 -2.2583
 7307TIP3   OH221884   4.744   2.491   0.852 -0.2587 -0.0897 -0.0110
 7307TIP3    H121885   4.676   2.428   0.828 -1.4945  1.0912  0.2538
 7307TIP3    H221886   4.787   2.513   0.769 -0.5243 -0.4948 -0.2565
 7308TIP3   OH221887   6.117   6.114   1.467  0.2508 -0.0332 -0.8679
 7308TIP3    H121888   6.025   6.088   1.473  0.0541  0.5100 -1.3762
 7308TIP3    H221889   6.132   6.128   1.373  1.5507 -2.5435 -1.1121
 7309TIP3   OH221890   5.826   4.776   5.442 -0.0764 -0.1577  0.2124
 7309TIP3    H121891   5.903   4.829   5.459  0.0826 -0.2485 -0.2184
 7309TIP3    H221892   5.822   4.769   5.347 -1.6383  1.3547  0.1208
 7310TIP3   OH221893   5.531   0.020   3.117  0.4338 -0.5171  0.0270
 7310TIP3    H121894   5.557   0.112   3.128 -0.5667 -0.1849 -0.2088
 7310TIP3    H221895   5.573  -0.007   3.036 -0.5892  0.2673 -0.7987
 7311TIP3   OH221896   4.739   5.887   4.902 -0.1401  0.7098  0.3270
 7311TIP3    H121897   4.716   5.978   4.922 -0.8387  0.4993  0.4927
 7311TIP3    H221898   4.830   5.879   4.933  0.3647  1.6901 -0.7985
 7312TIP3   OH221899   5.569   4.575   3.855 -0.2411 -1.0418  0.2684
 7312TIP3    H121900   5.554   4.529   3.772  2.1562  0.5433 -1.1475
 7312TIP3    H221901   5.617   4.654   3.830 -2.6297  1.3807  2.8022
 7313TIP3   OH221902   1.696   3.803   0.099  0.2325  0.5499 -0.1769
 7313TIP3    H121903   1.685   3.862   0.024  0.1850  0.1642 -0.4806
 7313TIP3    H221904   1.725   3.721   0.060  2.9005  1.0976  0.4533
 7314TIP3   OH221905   6.633   2.717   4.042 -0.0887  0.1314  0.3789
 7314TIP3    H121906   6.576   2.664   3.985 -0.6669 -0.8405  1.8156
 7314TIP3    H221907   6.572   2.769   4.094  0.3606 -0.1755  1.2253
 7315TIP3   OH221908   4.302   4.729   0.192  0.2425 -0.3145 -0.6007
 7315TIP3    H121909   4.329   4.666   0.125 -0.5135 -0.9900 -0.2881
 7315TIP3    H221910   4.372   4.795   0.193  2.0156 -2.1159  0.3620
 7316TIP3   OH221911   1.964   0.522   0.872  0.0796  0.4500  0.4678
 7316TIP3    H121912   2.058   0.521   0.892 -0.3263  0.9282  2.7359
 7316TIP3    H221913   1.925   0.567   0.947 -1.8537  1.3826 -1.0296
 7317TIP3   OH221914   2.993   5.612   4.898 -0.0544  0.0890  0.0683
 7317TIP3    H121915   2.900   5.635   4.897  0.2904  1.7611 -2.5051
 7317TIP3    H221916   2.996   5.522   4.866 -0.7610  0.3081 -0.6525
 7318TIP3   OH221917   4.150   1.126   2.277 -0.1103  0.0231  0.4525
 7318TIP3    H121918   4.079   1.139   2.215  2.2791  0.7156 -2.3749
 7318TIP3    H221919   4.183   1.038   2.257 -0.1663 -0.3173  1.7702
 7319TIP3   OH221920   2.301   2.990   1.199 -0.0169  0.3739  0.2571
 7319TIP3    H121921   2.326   2.963   1.111 -0.6836 -2.7409  0.8796
 7319TIP3    H221922   2.211   3.020   1.191  0.0482  0.4561 -0.1796
 7320TIP3   OH221923   0.605   6.476   3.312  0.0522 -0.1861 -0.5482
 7320TIP3    H121924   0.686   6.473   3.262  0.8077  0.3667  0.5927
 7320TIP3    H221925   0.632   6.504   3.400 -1.3455 -0.2000 -0.0861
 7321TIP3   OH221926   5.214   0.799   3.056  0.4146  0.2179 -0.3321
 7321TIP3    H121927   5.180   0.886   3.038  0.1188  0.1885  0.0572
 7321TIP3    H221928   5.303   0.813   3.089  1.3548  0.2197 -2.6708
 7322TIP3   OH221929   6.504   5.905   1.439 -0.4268  0.4691  0.4991
 7322TIP3    H121930   6.501   5.818   1.399  0.5533  0.7085 -0.1212
 7322TIP3    H221931   6.462   5.962   1.375  1.3322  0.8883 -0.3480
 7323TIP3   OH221932   0.111   3.742   3.339  0.4218 -0.1775 -0.0100
 7323TIP3    H121933   0.132   3.652   3.364 -1.1090 -0.5182  0.1297
 7323TIP3    H221934   0.172   3.796   3.390  0.6423 -1.0838  0.7057
 7324TIP3   OH221935   1.432   0.981   5.133 -0.5415 -0.5871 -0.2333
 7324TIP3    H121936   1.469   0.970   5.046  0.9883 -1.4669  0.4941
 7324TIP3    H221937   1.444   1.074   5.153 -2.5746  0.0409 -1.6431
 7325TIP3   OH221938   0.917   4.219   5.838 -0.1465  0.0866  0.6444
 7325TIP3    H121939   0.932   4.282   5.767  1.4500  0.8224  1.5726
 7325TIP3    H221940   0.916   4.134   5.793 -0.3293  0.6169 -0.3978
 7326TIP3   OH221941   3.976   6.562   5.030 -0.0015  0.1021  0.1835
 7326TIP3    H121942   3.978   6.654   5.007  0.3531  0.1067  0.2237
 7326TIP3    H221943   4.034   6.555   5.106  0.9117 -0.3366 -0.5230
 7327TIP3   OH221944   1.455   5.756   4.943  0.4189  0.1193  0.0525
 7327TIP3    H121945   1.421   5.761   4.853  1.4573  0.5014 -0.3389
 7327TIP3    H221946   1.515   5.681   4.941  0.5643  0.2269  0.3839
 7328TIP3   OH221947  -0.017   5.108   4.528  0.5537 -0.0337  0.1698
 7328TIP3    H121948  -0.024   5.112   4.432  0.7324 -1.7525  0.0555
 7328TIP3    H221949   0.052   5.044   4.544 -0.1440 -0.4852  1.4627
 7329TIP3   OH221950   1.428   4.313   4.354 -0.5175 -0.8664 -0.1764
 7329TIP3    H121951   1.407   4.238   4.299 -0.5766 -0.7716 -0.2818
 7329TIP3    H221952   1.481   4.370   4.298  0.9200 -1.5873  0.3918
 7330TIP3   OH221953   2.622   3.442   2.839  0.0931  0.6766  0.4441
 7330TIP3    H121954   2.634   3.359   2.886  0.3293 -1.7030 -3.3591
 7330TIP3    H221955   2.708   3.484   2.843  0.4586 -0.0817  1.0279
 7331TIP3   OH221956   6.145   0.514   1.546  0.4072 -0.2481 -0.0546
 7331TIP3    H121957   6.114   0.424   1.558  0.4183 -0.4934 -1.5853
 7331TIP3    H221958   6.214   0.525   1.610  0.4858 -1.3787  0.0745
 7332TIP3   OH221959   4.494   1.096   2.148 -0.0489  0.2524  0.2238
 7332TIP3    H121960   4.448   1.180   2.154 -2.2119 -0.7127 -1.6438
 7332TIP3    H221961   4.587   1.119   2.158 -0.6480  2.7221  0.6956
 7333TIP3   OH221962   6.900   0.915   4.244  0.0937 -0.2941 -0.0417
 7333TIP3    H121963   6.913   0.969   4.166  1.2140  0.4016  0.6092
 7333TIP3    H221964   6.985   0.872   4.258 -0.3352 -1.0391  0.3364
 7334TIP3   OH221965   0.229   4.766   0.929 -0.2677  0.8103 -0.4401
 7334TIP3    H121966   0.291   4.835   0.905  0.3161  1.3822  2.3383
 7334TIP3    H221967   0.212   4.780   1.022 -0.7644 -2.3182  0.0559
 7335TIP3   OH221968   0.108   4.221   4.110 -0.4178  0.0683 -0.3078
 7335TIP3    H121969   0.195   4.252   4.134 -0.0916  0.0869 -1.4275
 7335TIP3    H221970   0.102   4.133   4.147  0.1232  0.0297 -0.3078
 7336TIP3   OH221971   2.019   3.353   0.477 -0.3644 -0.2181  0.5009
 7336TIP3    H121972   1.933   3.320   0.452  0.0458 -1.6299  0.8603
 7336TIP3    H221973   2.009   3.448   0.476 -1.9745 -0.3519  0.7126
 7337TIP3   OH221974   4.243   5.573   1.283 -0.3259 -0.2917  0.1552
 7337TIP3    H121975   4.214   5.653   1.327  0.0566  0.2066 -0.4739
 7337TIP3    H221976   4.221   5.587   1.191  0.2974 -0.6500 -0.0530
 7338TIP3   OH221977   5.864   4.422   1.681  0.2117 -0.4249 -0.3518
 7338TIP3    H121978   5.794   4.391   1.738  1.0924 -3.1029 -0.5874
 7338TIP3    H221979   5.821   4.480   1.618 -1.2944  0.0908  1.1099
 7339TIP3   OH221980   1.317   2.243   3.528 -0.2041  0.1614 -1.2172
 7339TIP3    H121981   1.270   2.165   3.553 -1.7213  1.4483  0.1437
 7339TIP3    H221982   1.289   2.261   3.438 -0.8524 -0.1446 -1.0776
 7340TIP3   OH221983   3.062   5.466   1.430 -0.0499  0.0070 -0.4391
 7340TIP3    H121984   3.126   5.468   1.359 -0.6633  2.6961 -1.0138
 7340TIP3    H221985   2.977   5.479   1.387 -0.6827 -0.4789  0.6089
 7341TIP3   OH221986   6.257   0.946   4.241 -0.0524 -0.5121  0.3325
 7341TIP3    H121987   6.215   1.022   4.280 -0.1064 -0.4664  0.1882
 7341TIP3    H221988   6.243   0.956   4.147  1.0195 -0.0610  0.2089
 7342TIP3   OH221989   1.294   1.654   2.503  0.3279  0.4294  0.0376
 7342TIP3    H121990   1.269   1.746   2.515 -0.0145  0.5024 -1.1274
 7342TIP3    H221991   1.216   1.612   2.468 -0.6552 -1.0918  3.5852
 7343TIP3   OH221992   6.523   0.916   2.328  0.3404 -0.5874 -0.5012
 7343TIP3    H121993   6.545   0.872   2.246 -0.9532 -1.0692 -0.6250
 7343TIP3    H221994   6.454   0.978   2.304 -0.8684 -1.5285  0.3852
 7344TIP3   OH221995   6.808   4.334   1.309 -0.6535 -0.5154 -0.2424
 7344TIP3    H121996   6.791   4.240   1.302 -1.0779 -0.5222  0.7008
 7344TIP3    H221997   6.797   4.353   1.402 -1.4067  0.6245 -0.5479
 7345TIP3   OH221998   1.980   6.536   0.614 -0.4454  0.1393  0.6082
 7345TIP3    H121999   1.979   6.629   0.636  2.4116  0.4696 -0.2002
 7345TIP3    H222000   1.891   6.517   0.586 -1.0707  2.6901  0.6068
 7346TIP3   OH222001   4.890   3.580   2.858  0.1223 -0.2462  0.0946
 7346TIP3    H122002   4.888   3.671   2.890  0.8905  0.0758 -0.7478
 7346TIP3    H222003   4.979   3.550   2.875 -0.1750 -0.9130  0.5242
 7347TIP3   OH222004   0.029   0.839   1.761  0.3104  0.0141 -1.1222
 7347TIP3    H122005   0.069   0.751   1.757 -0.1387 -0.2156 -0.5989
 7347TIP3    H222006   0.019   0.864   1.669 -1.1953 -1.2421 -1.3455
 7348TIP3   OH222007   3.135   1.845   5.233  0.5251  0.3583  0.0178
 7348TIP3    H122008   3.158   1.900   5.158 -2.4108 -0.0616 -1.3500
 7348TIP3    H222009   3.075   1.899   5.285 -1.0421 -0.8677 -0.4304
 7349TIP3   OH222010   5.795   2.468   2.430  0.7621 -0.1251  0.1239
 7349TIP3    H122011   5.767   2.503   2.346  0.4542  0.9761  0.6679
 7349TIP3    H222012   5.855   2.397   2.407  1.7183  1.0077 -1.0232
 7350TIP3   OH222013   6.576   3.595   1.977  0.2911 -0.1413  0.4431
 7350TIP3    H122014   6.494   3.572   2.022  0.2696  0.5678  0.7804
 7350TIP3    H222015   6.626   3.514   1.975 -0.9716 -0.9231 -0.9561
 7351TIP3   OH222016   1.356   3.415   5.368  0.7843  0.4890 -0.3804
 7351TIP3    H122017   1.371   3.320   5.361  0.2525  0.3416  0.4248
 7351TIP3    H222018   1.344   3.443   5.277 -0.5212 -0.4620 -0.5327
 7352TIP3   OH222019   2.222   6.548   5.826 -0.3038  0.1517 -0.6052
 7352TIP3    H122020   2.152   6.610   5.807 -0.4317  0.6314  1.2387
 7352TIP3    H222021   2.293   6.601   5.862  0.9290 -0.3627 -2.1905
 7353TIP3   OH222022   0.281   0.050   5.029 -0.4052  0.1206  0.2139
 7353TIP3    H122023   0.366   0.025   5.066 -1.1834  0.0010  2.0431
 7353TIP3    H222024   0.274  -0.003   4.949 -0.0535 -2.2430  1.6337
 7354TIP3   OH222025   7.182   2.374   2.495 -0.1534 -0.0277  0.0840
 7354TIP3    H122026   7.132   2.405   2.570 -0.1662 -1.2477  0.6102
 7354TIP3    H222027   7.274   2.379   2.523 -0.1197  0.0437 -0.0341
 7355TIP3   OH222028   4.857   6.294   4.466  0.0143 -0.4762 -0.0954
 7355TIP3    H122029   4.834   6.254   4.550 -0.7939 -1.0462 -0.5818
 7355TIP3    H222030   4.839   6.387   4.479  0.7880 -0.4145  0.6595
 7356TIP3   OH222031   5.396   2.437   0.745 -0.1319  0.4860  0.2555
 7356TIP3    H122032   5.405   2.490   0.824 -0.2770 -0.4592  0.9260
 7356TIP3    H222033   5.347   2.360   0.773  0.6617 -0.3389 -0.5210
 7357TIP3   OH222034   2.240   1.316   5.395 -0.0974 -0.2463  0.3836
 7357TIP3    H122035   2.225   1.245   5.457 -0.2663 -0.3979  0.1708
 7357TIP3    H222036   2.261   1.392   5.450  1.3507 -0.7558  0.5607
 7358TIP3   OH222037   3.458   4.773   0.870 -0.3356  0.4767  0.0278
 7358TIP3    H122038   3.490   4.733   0.789 -0.1569 -0.6451  0.6259
 7358TIP3    H222039   3.511   4.852   0.880  0.1006  0.2743 -0.5964
 7359TIP3   OH222040   7.141   1.476   5.296  0.1096 -0.3836 -0.2334
 7359TIP3    H122041   7.081   1.406   5.322 -2.0010  0.6161 -2.0811
 7359TIP3    H222042   7.119   1.549   5.355 -0.0764 -0.2053 -0.5233
 7360TIP3   OH222043   4.370   3.608   3.313  0.2158 -0.0891 -0.1956
 7360TIP3    H122044   4.440   3.572   3.259  0.7895 -0.6529  0.8995
 7360TIP3    H222045   4.327   3.531   3.351 -1.9816  0.1463 -1.9845
 7361TIP3   OH222046   1.050   2.301   2.686  0.1188 -0.3241  0.2817
 7361TIP3    H122047   0.997   2.278   2.762 -1.3008 -0.5762 -0.7344
 7361TIP3    H222048   0.993   2.282   2.611  0.9426  1.2810 -0.8041
 7362TIP3   OH222049   1.968   2.316   4.312 -0.9456  0.0974 -0.4728
 7362TIP3    H122050   1.918   2.234   4.307  0.1084 -0.5457 -0.9380
 7362TIP3    H222051   2.056   2.288   4.337 -0.7344  1.1733  0.0408
 7363TIP3   OH222052   1.437   5.437   2.665 -0.1913  0.0157  0.2125
 7363TIP3    H122053   1.446   5.445   2.760 -2.3081 -2.3340  0.7288
 7363TIP3    H222054   1.491   5.362   2.642  0.2945  0.5609 -0.4537
 7364TIP3   OH222055   0.762   4.586   0.966 -0.5712  0.0312  0.3546
 7364TIP3    H122056   0.851   4.567   0.936 -0.8803  0.4323 -0.8446
 7364TIP3    H222057   0.715   4.504   0.956 -0.7516  0.2395 -0.5804
 7365TIP3   OH222058   6.190   0.831   3.365  0.1734 -0.2416 -0.8975
 7365TIP3    H122059   6.266   0.795   3.318  0.8326 -0.5349  0.3544
 7365TIP3    H222060   6.127   0.760   3.366  1.1409 -1.1368  0.8221
 7366TIP3   OH222061   5.997   1.828   1.862 -0.3643  0.1014 -0.2476
 7366TIP3    H122062   5.993   1.893   1.791 -2.3871 -0.2336 -0.5194
 7366TIP3    H222063   6.012   1.745   1.817 -1.8000 -0.1322 -0.3408
 7367TIP3   OH222064   5.969   2.217   1.830 -0.0324 -0.6073 -0.4072
 7367TIP3    H122065   5.895   2.277   1.817  1.3014  1.3281  0.4413
 7367TIP3    H222066   5.978   2.211   1.925  0.2850 -1.6745 -0.4870
 7368TIP3   OH222067   4.981   0.557   2.151  0.7892 -0.2739  0.4242
 7368TIP3    H122068   4.900   0.524   2.188 -0.3586  0.6537 -1.1552
 7368TIP3    H222069   5.000   0.636   2.201 -0.0450  0.2582 -0.0799
 7369TIP3   OH222070   2.172   6.757   0.281  0.1363  0.1915  0.0661
 7369TIP3    H122071   2.204   6.686   0.338  2.1509  1.7623  1.0108
 7369TIP3    H222072   2.218   6.743   0.198 -2.0769 -1.5310 -0.9847
 7370TIP3   OH222073   2.559   4.698   1.192 -0.4689  0.2417  0.3904
 7370TIP3    H122074   2.595   4.618   1.155  0.0445 -0.0674  1.5330
 7370TIP3    H222075   2.617   4.720   1.265 -1.6647  0.6066  1.2737
 7371TIP3   OH222076   4.675   3.705   0.264 -0.1930  0.1437  0.2330
 7371TIP3    H122077   4.711   3.747   0.186  1.3681 -0.5309  0.5588
 7371TIP3    H222078   4.680   3.772   0.333 -1.0895  0.5667 -0.0926
 7372TIP3   OH222079   4.423   3.205   1.633  0.0471 -0.2324  0.3211
 7372TIP3    H122080   4.428   3.185   1.540  0.3798 -2.2380  0.7315
 7372TIP3    H222081   4.510   3.237   1.656  0.4970 -1.3771  0.2685
 7373TIP3   OH222082   3.402   5.414   3.951  0.0898  0.5983  0.9156
 7373TIP3    H122083   3.314   5.389   3.982 -0.5718  1.1546 -0.4454
 7373TIP3    H222084   3.408   5.507   3.971 -1.4987  1.7151 -2.9794
 7374TIP3   OH222085   5.169   2.311   2.673 -0.5566  0.6584  0.5365
 7374TIP3    H122086   5.078   2.329   2.697 -0.2929  2.3614  0.3980
 7374TIP3    H222087   5.209   2.280   2.754 -1.4895 -1.1506  0.3435
 7375TIP3   OH222088   2.879   3.508   4.104 -0.4774 -0.1321 -0.0371
 7375TIP3    H122089   2.887   3.413   4.108 -0.2413 -0.0745  1.5969
 7375TIP3    H222090   2.921   3.539   4.185 -2.3462  1.2213  0.4954
 7376TIP3   OH222091   0.610   5.888   2.608  0.5572 -0.3778  0.2482
 7376TIP3    H122092   0.592   5.796   2.625 -0.3870 -0.6685 -1.9604
 7376TIP3    H222093   0.529   5.922   2.571  0.6827  1.5382  1.5864
 7377TIP3   OH222094   6.832   0.592   4.042 -0.2025 -0.0968 -0.0275
 7377TIP3    H122095   6.780   0.621   4.117  0.1352 -1.3773  0.7156
 7377TIP3    H222096   6.788   0.514   4.009  0.2688 -0.1849 -0.4824
 7378TIP3   OH222097   2.556   5.670   2.203  0.2196  0.0652  0.0061
 7378TIP3    H122098   2.555   5.641   2.294  1.0438 -0.1055 -0.0324
 7378TIP3    H222099   2.575   5.764   2.208 -2.7105  0.7427  0.1453
 7379TIP3   OH222100   3.871   6.175   0.907 -0.1208 -0.0713  0.3516
 7379TIP3    H122101   3.890   6.092   0.864  0.3730  0.8260 -1.2622
 7379TIP3    H222102   3.786   6.162   0.948 -1.9021 -0.2953 -3.0298
 7380TIP3   OH222103   5.181   4.634   3.902  1.1723  0.1453  0.0580
 7380TIP3    H122104   5.199   4.656   3.810  0.2333  1.9314  0.2476
 7380TIP3    H222105   5.259   4.663   3.949  0.9363  0.8821  0.0107
 7381TIP3   OH222106   5.504   6.129   3.387  0.1760 -0.1112 -0.1203
 7381TIP3    H122107   5.427   6.177   3.416  1.5106  1.7252  0.5675
 7381TIP3    H222108   5.558   6.120   3.466  0.3452 -2.0749 -0.4043
 7382TIP3   OH222109   0.386   2.372   3.816 -0.0024 -0.7721 -0.2050
 7382TIP3    H122110   0.351   2.357   3.904 -3.0646 -0.7024 -1.3034
 7382TIP3    H222111   0.410   2.465   3.815  1.0319 -1.0018  0.8130
 7383TIP3   OH222112   1.982   3.927   5.755 -0.2309 -0.0759  0.3663
 7383TIP3    H122113   2.060   3.896   5.800 -0.3650  1.0286  1.4218
 7383TIP3    H222114   1.996   4.021   5.745 -0.8493 -0.0762 -0.6213
 7384TIP3   OH222115   5.635   0.102   3.934  0.1155 -0.2115 -0.2702
 7384TIP3    H122116   5.593   0.017   3.922  0.2935 -0.2318 -0.7772
 7384TIP3    H222117   5.601   0.134   4.017 -1.6510  0.1755 -1.0926
 7385TIP3   OH222118   0.955   5.687   2.217  0.5425  0.2858  0.0506
 7385TIP3    H122119   0.958   5.768   2.164  1.7951  1.1862  1.4327
 7385TIP3    H222120   0.869   5.690   2.259  0.4077  0.6695 -0.2402
 7386TIP3   OH222121   3.851   5.893   3.585  0.0650 -0.2685  0.2102
 7386TIP3    H122122   3.915   5.821   3.588 -1.6181 -1.9126 -0.7748
 7386TIP3    H222123   3.810   5.893   3.671  1.1828  0.6378  0.7663
 7387TIP3   OH222124   1.274   6.450   2.175  0.2321  0.2558 -0.3648
 7387TIP3    H122125   1.213   6.431   2.103 -0.8125 -2.6876  1.1038
 7387TIP3    H222126   1.238   6.528   2.217 -2.4033 -1.1257  0.1659
 7388TIP3   OH222127   3.161   2.345   3.409  0.5740  0.0145  0.3126
 7388TIP3    H122128   3.066   2.350   3.397  0.5108 -0.2341  0.6733
 7388TIP3    H222129   3.194   2.430   3.381  0.1290  0.5004  1.2187
 7389TIP3   OH222130   3.966   6.621   0.647  0.3266  0.3206 -0.7247
 7389TIP3    H122131   4.023   6.589   0.717 -0.3286 -0.0938 -0.3727
 7389TIP3    H222132   3.981   6.561   0.574 -0.5267 -0.5276 -0.2336
 7390TIP3   OH222133   2.216   0.712   2.426  1.1367 -0.0574 -0.1013
 7390TIP3    H122134   2.285   0.651   2.401  1.7935  0.0291  1.3963
 7390TIP3    H222135   2.248   0.797   2.397  0.8838 -0.2303 -0.9003
 7391TIP3   OH222136   3.637   1.346   4.069 -0.8986 -0.3621  0.7207
 7391TIP3    H122137   3.637   1.365   4.163 -0.7681 -1.3190  0.9211
 7391TIP3    H222138   3.730   1.345   4.045 -0.8760 -1.2020  0.8158
 7392TIP3   OH222139   2.004   5.086   1.177 -0.5278 -0.4462 -0.4188
 7392TIP3    H122140   1.946   5.157   1.151  0.3368  1.2404  1.9005
 7392TIP3    H222141   2.085   5.102   1.130 -0.7957 -0.7493 -0.9880
 7393TIP3   OH222142   3.008   2.605   5.108 -0.2076 -0.0088  0.1574
 7393TIP3    H122143   2.923   2.612   5.152  0.0756 -0.2653  0.7522
 7393TIP3    H222144   2.996   2.651   5.025  0.1003  3.0385  1.6805
 7394TIP3   OH222145   3.650   5.011   1.401  0.3369 -0.0455 -0.2229
 7394TIP3    H122146   3.658   4.987   1.494 -0.3889 -1.0398 -0.4016
 7394TIP3    H222147   3.579   4.956   1.368  0.3792  0.5223 -1.3003
 7395TIP3   OH222148   2.819   6.607   2.156 -0.2224 -0.2671  0.4289
 7395TIP3    H122149   2.876   6.581   2.229  0.6311  0.8617  0.1934
 7395TIP3    H222150   2.824   6.534   2.094  0.4649 -0.4475  0.6926
 7396TIP3   OH222151   6.996   5.240   5.050 -0.1862 -0.4310  0.1295
 7396TIP3    H122152   7.040   5.157   5.031 -0.3036 -0.2963 -0.7635
 7396TIP3    H222153   6.942   5.221   5.127 -0.7548 -1.3819 -0.4794
 7397TIP3   OH222154   4.609   5.782   2.039  0.0670 -0.0648 -0.3969
 7397TIP3    H122155   4.679   5.746   1.985 -0.5368 -1.2283 -0.4379
 7397TIP3    H222156   4.590   5.714   2.103  1.0477  1.4491  1.5944
 7398TIP3   OH222157   2.650   2.492   2.295 -0.0088  0.0851 -0.0570
 7398TIP3    H122158   2.572   2.459   2.339  0.5893 -0.5915  0.5330
 7398TIP3    H222159   2.622   2.508   2.205 -0.8446 -0.0567  0.1709
 7399TIP3   OH222160   0.996   1.379   1.011  0.4109  0.0113  0.0403
 7399TIP3    H122161   0.906   1.366   1.040  0.6308 -0.5270  0.5147
 7399TIP3    H222162   0.993   1.370   0.916 -0.1229  0.5563 -0.0000
 7400TIP3   OH222163   4.035   5.116   2.807 -0.0172 -0.1494 -0.1491
 7400TIP3    H122164   4.008   5.057   2.737 -0.4165 -0.5515  0.3320
 7400TIP3    H222165   3.959   5.120   2.865  0.6915 -0.7290  0.8587
 7401TIP3   OH222166   3.430   5.130   0.496  0.4087  0.5898 -0.5731
 7401TIP3    H122167   3.409   5.126   0.402  1.0452  0.2297 -0.7054
 7401TIP3    H222168   3.382   5.206   0.528 -0.2210  0.4104 -1.0873
 7402TIP3   OH222169   2.658   0.428   5.815 -0.2165 -0.0529 -0.6900
 7402TIP3    H122170   2.677   0.360   5.751  0.1703 -0.4175 -0.1983
 7402TIP3    H222171   2.715   0.408   5.889 -1.2417 -0.1160  0.0994
 7403TIP3   OH222172   3.918   2.196   5.047 -0.4610 -0.6308 -0.3312
 7403TIP3    H122173   3.869   2.248   5.111 -0.0420 -0.0650 -0.4662
 7403TIP3    H222174   3.922   2.109   5.087  1.8675  0.2395  1.6465
 7404TIP3   OH222175   2.829   2.194   0.521 -0.6580  0.2097 -0.3472
 7404TIP3    H122176   2.912   2.220   0.561 -1.2181  0.2742  0.8109
 7404TIP3    H222177   2.823   2.100   0.537 -0.4309  0.0558 -1.1495
 7405TIP3   OH222178   0.132   3.228   5.817 -0.2268  0.6651  0.5161
 7405TIP3    H122179   0.194   3.254   5.885  0.2196 -0.7694  0.6910
 7405TIP3    H222180   0.134   3.133   5.819 -2.1432  0.5855  0.2443
 7406TIP3   OH222181   5.550   5.123   2.785 -0.2878  0.2675 -0.5549
 7406TIP3    H122182   5.587   5.086   2.866  1.3543 -0.6308 -1.6588
 7406TIP3    H222183   5.578   5.215   2.786 -0.4074  0.3048 -0.0477
 7407TIP3   OH222184   2.460   5.739   1.044  0.4605 -0.2491 -0.6084
 7407TIP3    H122185   2.527   5.754   0.977 -0.6973  1.3953 -1.4834
 7407TIP3    H222186   2.498   5.673   1.102  2.1564 -0.5566 -1.9796
 7408TIP3   OH222187   4.101   5.228   5.257  0.0593 -0.6037  0.1955
 7408TIP3    H122188   4.007   5.220   5.275 -0.5052  0.6567 -1.9238
 7408TIP3    H222189   4.130   5.138   5.242 -1.5482 -0.7863 -2.3626
 7409TIP3   OH222190   6.133   1.089   5.536 -0.0622 -0.0547  0.3665
 7409TIP3    H122191   6.184   1.023   5.489 -0.0108 -0.6289  1.2006
 7409TIP3    H222192   6.069   1.120   5.471 -1.0703 -2.0047  0.3271
 7410TIP3   OH222193   0.576   5.184   2.797  0.0760 -0.2091  0.1087
 7410TIP3    H122194   0.553   5.123   2.727 -0.2154  0.0046  0.0148
 7410TIP3    H222195   0.515   5.257   2.786 -0.3738 -0.4387  0.9487
 7411TIP3   OH222196   6.398   0.666   3.215 -0.3274 -0.3411  0.5163
 7411TIP3    H122197   6.457   0.691   3.286  0.1284 -1.6135  0.6038
 7411TIP3    H222198   6.447   0.601   3.165 -1.6509 -1.4351  0.5815
 7412TIP3   OH222199   2.956   6.638   3.371  0.1106  0.2439  0.2515
 7412TIP3    H122200   2.926   6.660   3.283 -1.5255 -0.5317  0.5799
 7412TIP3    H222201   2.934   6.545   3.382  0.6721  0.2220  1.3178
 7413TIP3   OH222202   3.761   1.015   0.157  0.8289  0.1665 -0.6589
 7413TIP3    H122203   3.773   0.924   0.128 -0.8293 -1.0357  2.0674
 7413TIP3    H222204   3.682   1.044   0.112  1.7792  0.5778 -2.1225
 7414TIP3   OH222205   2.661   3.349   5.013  0.2443 -0.1463  0.2718
 7414TIP3    H122206   2.722   3.356   5.087  0.7600  0.8934 -0.2348
 7414TIP3    H222207   2.717   3.322   4.940  0.0083  0.2973 -0.0750
 7415TIP3   OH222208   5.046   4.665   0.732 -0.2208  0.5088  0.4150
 7415TIP3    H122209   5.021   4.586   0.685 -2.2164  0.9377  0.6593
 7415TIP3    H222210   5.140   4.656   0.746  0.3473  0.0072 -2.9096
 7416TIP3   OH222211   2.518   4.884   4.079  0.4921 -0.3162  0.4987
 7416TIP3    H122212   2.543   4.923   3.995 -2.9041  2.4361  0.5744
 7416TIP3    H222213   2.577   4.925   4.142 -0.5730  2.0315  0.0798
 7417TIP3   OH222214   6.100   4.468   5.042  0.0681  0.0090  0.1165
 7417TIP3    H122215   6.049   4.416   4.980 -0.8073  1.2087 -0.1857
 7417TIP3    H222216   6.160   4.519   4.988  0.7445 -0.4725  0.3952
 7418TIP3   OH222217   7.127   0.521   5.336  0.3795  0.1857 -0.0413
 7418TIP3    H122218   7.134   0.473   5.419 -0.1696  3.0957  1.8152
 7418TIP3    H222219   7.213   0.509   5.294  0.8408 -0.9339  1.1374
 7419TIP3   OH222220   2.517   4.505   1.475 -0.3154 -0.2463 -0.5197
 7419TIP3    H122221   2.570   4.574   1.513  0.8806 -1.5661  0.3043
 7419TIP3    H222222   2.428   4.525   1.502  0.2782 -0.1840  1.5282
 7420TIP3   OH222223   1.730   6.355   0.296 -0.0417  0.0347 -0.1406
 7420TIP3    H122224   1.801   6.413   0.271  0.6913 -1.3382 -1.3929
 7420TIP3    H222225   1.656   6.382   0.242 -0.1478  0.7271  0.3412
 7421TIP3   OH222226   0.247   5.068   3.053 -0.5483  0.0572  0.0750
 7421TIP3    H122227   0.331   5.112   3.060 -0.5481  0.1098 -0.2377
 7421TIP3    H222228   0.204   5.110   2.979 -0.7605 -0.1140  0.1000
 7422TIP3   OH222229   0.251   2.562   2.262  0.4835  0.0291  0.3408
 7422TIP3    H122230   0.191   2.608   2.321 -0.3912  0.2187 -0.6633
 7422TIP3    H222231   0.270   2.626   2.193  1.9845  0.0289  0.7121
 7423TIP3   OH222232   2.159   3.609   4.337  0.2283 -0.2785  0.1435
 7423TIP3    H122233   2.193   3.694   4.308 -0.0418 -0.1794  0.1134
 7423TIP3    H222234   2.066   3.610   4.312 -0.0106 -0.1964  0.9793
 7424TIP3   OH222235   4.833   6.225   1.400 -0.3808  0.3592 -0.2112
 7424TIP3    H122236   4.872   6.151   1.446 -0.9216  0.7962  0.9774
 7424TIP3    H222237   4.859   6.301   1.451 -0.3079  0.9508 -1.1042
 7425TIP3   OH222238   1.637   5.817   1.852 -0.1282 -0.6462  0.7431
 7425TIP3    H122239   1.672   5.877   1.918 -0.0842  0.9044 -0.6332
 7425TIP3    H222240   1.709   5.806   1.789 -1.9392  2.8110 -2.2826
 7426TIP3   OH222241   4.388   1.953   5.054  0.1833  0.0398  0.0935
 7426TIP3    H122242   4.319   1.921   5.112  0.2710  1.0504  0.7916
 7426TIP3    H222243   4.446   2.003   5.112  1.4036 -0.6236 -0.5044
 7427TIP3   OH222244   4.950   2.269   0.359 -0.4590  0.2904 -0.2631
 7427TIP3    H122245   4.887   2.198   0.374  1.2488 -1.4474 -0.9500
 7427TIP3    H222246   5.021   2.228   0.310  1.4963  2.0296  0.9834
 7428TIP3   OH222247   6.628   2.479   0.821 -0.1450  0.2116 -0.4578
 7428TIP3    H122248   6.667   2.545   0.878  0.1034 -0.8199  0.6207
 7428TIP3    H222249   6.584   2.419   0.881 -0.6654 -0.4088 -1.4302
 7429TIP3   OH222250   7.118   0.468   4.955 -0.4254 -0.2391  0.4038
 7429TIP3    H122251   7.210   0.468   4.980 -0.2669 -2.9301  0.1817
 7429TIP3    H222252   7.116   0.515   4.871  0.6056  0.4902  0.7704
 7430TIP3   OH222253   1.420   0.011   4.246  0.0714 -0.6592 -0.1077
 7430TIP3    H122254   1.515   0.003   4.260  0.1516 -1.6018 -1.0847
 7430TIP3    H222255   1.407   0.102   4.220  0.7909 -0.6859 -0.5878
 7431TIP3   OH222256   0.027   5.237   2.283 -0.0047 -0.2120  0.3242
 7431TIP3    H122257   0.069   5.153   2.265  0.8343 -0.6474  3.6374
 7431TIP3    H222258   0.087   5.302   2.247  0.5975 -0.9796 -0.0818
 7432TIP3   OH222259   2.192   5.094   4.737 -0.6330  0.5055  0.8550
 7432TIP3    H122260   2.158   5.159   4.676 -1.9992 -1.8202 -1.0505
 7432TIP3    H222261   2.286   5.092   4.721 -0.4963  2.2411  1.2665
 7433TIP3   OH222262   0.945   4.652   2.549 -0.0926 -0.1841  0.4839
 7433TIP3    H122263   0.903   4.594   2.613  0.5098 -0.6950  0.4267
 7433TIP3    H222264   1.024   4.682   2.593  1.8478 -2.7704 -0.9677
 7434TIP3   OH222265   4.186   1.667   2.091 -0.0536 -0.3223  0.1218
 7434TIP3    H122266   4.206   1.760   2.101  1.3025 -0.4788 -0.8158
 7434TIP3    H222267   4.124   1.663   2.019 -0.0373 -0.1514  0.0981
 7435TIP3   OH222268   2.505   2.810   2.370  0.4737 -0.2257 -0.0986
 7435TIP3    H122269   2.558   2.890   2.374  0.5910 -0.2789 -0.4974
 7435TIP3    H222270   2.510   2.784   2.278 -0.6531  0.0496 -0.2530
 7436TIP3   OH222271   3.473   1.479   1.729  0.0859  0.7102  0.0857
 7436TIP3    H122272   3.541   1.442   1.672 -1.9598  0.1716 -2.1826
 7436TIP3    H222273   3.412   1.407   1.745 -2.4849  2.2038 -2.0777
 7437TIP3   OH222274   2.448   6.448   3.929  0.0474 -0.2974  0.0144
 7437TIP3    H122275   2.420   6.481   3.843  1.4138  0.0739 -0.3144
 7437TIP3    H222276   2.468   6.527   3.980  3.1814 -0.4719 -0.7228
 7438TIP3   OH222277   6.628   4.995   3.043 -0.3609 -0.4555 -0.2973
 7438TIP3    H122278   6.686   4.920   3.056 -0.7625 -0.8545 -0.7323
 7438TIP3    H222279   6.578   4.972   2.965 -0.5343  0.2437 -0.3940
 7439TIP3   OH222280   3.405   4.225   0.551 -0.1101 -0.2598 -0.0407
 7439TIP3    H122281   3.325   4.188   0.513 -0.6949 -0.8914  1.6612
 7439TIP3    H222282   3.373   4.280   0.623  0.9105  1.2821 -0.7096
 7440TIP3   OH222283   4.614   1.689   0.029 -0.2287  0.2929 -0.1930
 7440TIP3    H122284   4.530   1.734   0.020 -0.5809 -0.3649 -0.2601
 7440TIP3    H222285   4.678   1.760   0.044 -1.2548  0.6656  3.6164
 7441TIP3   OH222286   2.642   2.709   0.697  0.2546 -0.3419  0.1628
 7441TIP3    H122287   2.672   2.792   0.659 -0.5831 -0.5038 -0.8746
 7441TIP3    H222288   2.598   2.735   0.778  0.3610  0.1956  0.0509
 7442TIP3   OH222289   0.517   5.920   1.790 -0.5606  0.3585  1.0185
 7442TIP3    H122290   0.542   6.009   1.766  0.0063 -0.0101  0.1944
 7442TIP3    H222291   0.473   5.929   1.875 -0.7912  1.4570  0.7967
 7443TIP3   OH222292   4.192   2.013   0.723  0.2119  0.6421 -0.2342
 7443TIP3    H122293   4.169   2.102   0.748 -0.0233  0.1994  1.2428
 7443TIP3    H222294   4.271   2.022   0.671  0.6530  1.6578  0.5854
 7444TIP3   OH222295   7.028   6.733   4.844  0.1434 -0.4969 -0.1326
 7444TIP3    H122296   7.100   6.690   4.890 -0.4188 -2.2188 -0.7942
 7444TIP3    H222297   6.957   6.736   4.908  0.8849  1.6447  0.6840
 7445TIP3   OH222298   2.004   2.042   2.918 -0.2546  0.0939 -0.2037
 7445TIP3    H122299   2.063   2.085   2.856 -0.4161  2.5854  1.2321
 7445TIP3    H222300   2.061   1.989   2.972  0.3126  0.3919 -0.5025
 7446TIP3   OH222301   2.249   2.775   4.062  0.0215  0.0773  0.2441
 7446TIP3    H122302   2.251   2.811   3.974  0.1695  0.2112  0.3039
 7446TIP3    H222303   2.233   2.681   4.049 -0.0941  0.1195  0.0823
 7447TIP3   OH222304   5.761   0.238   5.243  0.1121  0.4973 -0.2625
 7447TIP3    H122305   5.804   0.273   5.165 -0.4281  1.1856 -0.2611
 7447TIP3    H222306   5.673   0.275   5.241  0.3657  1.2862  1.1493
 7448TIP3   OH222307   3.309   3.136   1.607  1.0362  0.1274 -0.0000
 7448TIP3    H122308   3.314   3.231   1.613 -1.0005  0.3125 -0.2924
 7448TIP3    H222309   3.226   3.114   1.651  1.8979 -1.6070  0.8317
 7449TIP3   OH222310   5.554   4.943   2.185  0.0603 -0.2533 -0.4354
 7449TIP3    H122311   5.575   5.031   2.152  0.8180  0.5193  1.8775
 7449TIP3    H222312   5.462   4.931   2.164  0.1643  0.7153 -1.5801
 7450TIP3   OH222313   4.310   0.862   5.313  0.1072  0.2289  0.2319
 7450TIP3    H122314   4.345   0.782   5.275  0.4506  0.5133 -0.0524
 7450TIP3    H222315   4.329   0.930   5.249  0.5175  0.6772  0.8199
 7451TIP3   OH222316   4.039   4.123   1.269  0.0805  0.2179 -0.1266
 7451TIP3    H122317   4.075   4.174   1.342  0.1310 -1.6412  1.2225
 7451TIP3    H222318   3.949   4.154   1.260  0.6961  1.9283 -0.7032
 7452TIP3   OH222319   6.886   6.231   2.392  0.1935  0.5417  0.1930
 7452TIP3    H122320   6.815   6.288   2.363 -0.2287 -0.8629 -1.7430
 7452TIP3    H222321   6.964   6.266   2.348  0.3823  0.9859  0.8628
 7453TIP3   OH222322   4.879   5.339   2.136  0.6227 -0.0351 -0.0282
 7453TIP3    H122323   4.833   5.255   2.134 -0.7628  0.6178  1.8887
 7453TIP3    H222324   4.918   5.344   2.223  0.6940  1.3011 -0.1098
 7454TIP3   OH222325   4.634   4.539   2.181 -0.0928 -0.0462  0.4485
 7454TIP3    H122326   4.636   4.581   2.095  0.6971 -2.2655 -0.6995
 7454TIP3    H222327   4.699   4.587   2.232 -2.0145  2.6391  0.5604
 7455TIP3   OH222328   0.107   2.309   4.556 -0.4799  0.4595 -0.9170
 7455TIP3    H122329   0.201   2.291   4.564 -0.8821 -1.0002  2.3355
 7455TIP3    H222330   0.102   2.398   4.522  2.0419  0.1970 -2.1771
 7456TIP3   OH222331   1.142   4.148   5.341 -0.2285 -0.6356  0.0944
 7456TIP3    H122332   1.163   4.131   5.433 -0.7420  0.1083  0.3566
 7456TIP3    H222333   1.189   4.228   5.320  0.5283 -1.2343 -0.5350
 7457TIP3   OH222334   6.086   2.415   5.334  0.4236 -0.1963 -0.1513
 7457TIP3    H122335   6.077   2.496   5.383  0.8618 -0.3552  0.1953
 7457TIP3    H222336   6.074   2.441   5.242 -0.6715  0.0510  0.0531
 7458TIP3   OH222337   2.813   6.056   4.904  0.6308 -0.4340  0.0912
 7458TIP3    H122338   2.887   6.055   4.964  0.6898  0.6709  0.0508
 7458TIP3    H222339   2.751   6.117   4.943 -0.5624 -1.8326  0.4575
 7459TIP3   OH222340   2.732   5.305   4.476  0.1463  0.3317  0.0279
 7459TIP3    H122341   2.779   5.300   4.393 -0.5889  1.6146 -0.4984
 7459TIP3    H222342   2.645   5.272   4.456  0.3943 -0.7372  0.6634
 7460TIP3   OH222343   5.615   1.200   2.073  0.2097  0.4747 -0.6693
 7460TIP3    H122344   5.632   1.234   1.985  1.5973  1.1273 -0.1789
 7460TIP3    H222345   5.699   1.166   2.103 -0.2631  0.1748  0.3781
 7461TIP3   OH222346   0.502   3.184   0.868 -0.2328 -0.0823  0.5810
 7461TIP3    H122347   0.452   3.256   0.908  1.1858  1.9333 -1.0267
 7461TIP3    H222348   0.442   3.147   0.803 -0.5362  0.5471  0.4932
 7462TIP3   OH222349   5.797   1.937   1.316 -1.1143  0.2270 -0.0089
 7462TIP3    H122350   5.853   2.015   1.323 -0.5806 -0.2658  1.6620
 7462TIP3    H222351   5.856   1.864   1.334 -1.8960 -0.4612 -0.2026
 7463TIP3   OH222352   3.282   6.393   3.342 -0.3313  0.1541  0.0696
 7463TIP3    H122353   3.234   6.310   3.343 -0.1647  0.0255 -0.9829
 7463TIP3    H222354   3.276   6.423   3.251  0.5448  0.7364  0.1865
 7464TIP3   OH222355   6.641   2.444   1.565  0.2214 -0.4500  1.2819
 7464TIP3    H122356   6.704   2.516   1.562  0.0051 -0.3040 -0.1581
 7464TIP3    H222357   6.661   2.399   1.647  1.6857  0.0526  1.2335
 7465TIP3   OH222358   1.240   2.661   4.312 -0.1367  0.1549  0.0465
 7465TIP3    H122359   1.150   2.657   4.342 -0.2132  3.4174  0.6016
 7465TIP3    H222360   1.278   2.577   4.337 -3.1702 -1.6354 -0.9347
 7466TIP3   OH222361   3.702   2.615   3.182 -0.2088 -0.2269  0.2646
 7466TIP3    H122362   3.625   2.581   3.228 -0.6934  1.5809  0.8768
 7466TIP3    H222363   3.740   2.539   3.139 -2.1741 -1.2363  0.1885
 7467TIP3   OH222364   2.446   5.389   5.222  0.2130 -0.3730  0.3452
 7467TIP3    H122365   2.514   5.455   5.231  0.6843 -0.9767  1.4777
 7467TIP3    H222366   2.461   5.349   5.137  1.3103 -0.5193  0.5929
 7468TIP3   OH222367   0.174   4.662   5.066  0.0063  0.1561  0.4594
 7468TIP3    H122368   0.192   4.689   5.156 -0.8153 -0.0297  0.6868
 7468TIP3    H222369   0.255   4.620   5.037  0.1716 -0.0606  1.2198
 7469TIP3   OH222370   4.044   6.429   1.783  0.0998  0.4856  0.4510
 7469TIP3    H122371   4.012   6.491   1.717  1.2313  1.4341  0.7430
 7469TIP3    H222372   4.016   6.343   1.751  3.9303  0.3248 -3.5926
 7470TIP3   OH222373   6.502   2.987   0.660  0.5764  0.0820 -0.2781
 7470TIP3    H122374   6.421   2.936   0.671  2.1774 -2.4690  0.6803
 7470TIP3    H222375   6.552   2.939   0.594  1.3115  1.6753 -0.9345
 7471TIP3   OH222376   6.499   3.742   1.455 -0.2431 -0.2983 -0.7029
 7471TIP3    H122377   6.563   3.683   1.415 -2.4036 -2.2056 -1.5758
 7471TIP3    H222378   6.467   3.694   1.532 -0.9905  0.3718 -0.5825
 7472TIP3   OH222379   4.255   4.770   1.887  0.4526 -0.2973 -0.4974
 7472TIP3    H122380   4.284   4.679   1.879  0.2963 -0.3895 -0.0095
 7472TIP3    H222381   4.264   4.791   1.979  0.1818  0.0812 -0.5525
 7473TIP3   OH222382   4.868   5.986   0.992 -0.0726 -0.0369 -0.0025
 7473TIP3    H122383   4.958   5.955   1.006  0.1680  0.9562  0.7529
 7473TIP3    H222384   4.871   6.079   1.014 -0.8925  0.4297 -1.6533
 7474TIP3   OH222385   2.757   1.461   5.484 -0.3317  0.1296 -0.5966
 7474TIP3    H122386   2.705   1.526   5.530  0.0491  0.1698 -0.2207
 7474TIP3    H222387   2.746   1.381   5.535 -0.6460 -0.0585 -0.9514
 7475TIP3   OH222388   0.491   6.471   4.125  0.2813 -0.2039 -0.3142
 7475TIP3    H122389   0.494   6.489   4.031 -0.4159  0.0447 -0.2955
 7475TIP3    H222390   0.579   6.489   4.156  1.1736 -2.4728 -1.2968
 7476TIP3   OH222391   5.529   0.492   3.414 -0.6364 -0.5356  0.3370
 7476TIP3    H122392   5.492   0.539   3.488 -1.4889  0.7188 -0.8466
 7476TIP3    H222393   5.473   0.514   3.340 -0.0203 -2.0327 -0.6324
 7477TIP3   OH222394   1.107   5.378   1.771  0.4738 -0.2464  0.0701
 7477TIP3    H122395   1.147   5.364   1.685  1.1895  0.6579  0.2439
 7477TIP3    H222396   1.015   5.396   1.752  0.2778 -1.5777 -0.3869
 7478TIP3   OH222397   6.156   1.684   3.458 -0.8838  0.1734  0.0625
 7478TIP3    H122398   6.092   1.613   3.465  0.6284 -1.3216 -0.5459
 7478TIP3    H222399   6.137   1.741   3.532 -2.0733 -0.9362  0.6520
 7479TIP3   OH222400   3.624   0.356   2.201 -0.1007 -0.8015  0.7221
 7479TIP3    H122401   3.589   0.411   2.131 -1.1401 -0.2509  1.6435
 7479TIP3    H222402   3.697   0.310   2.161  0.2570  0.6069 -0.3190
 7480TIP3   OH222403   3.887   2.525   0.290 -0.2440  0.1438  0.4497
 7480TIP3    H122404   3.945   2.494   0.359 -1.1101 -0.3679  0.9632
 7480TIP3    H222405   3.922   2.487   0.209  0.1384 -0.1403  0.7469
 7481TIP3   OH222406   3.082   2.938   2.985 -0.2664 -0.0061  0.3267
 7481TIP3    H122407   3.052   2.948   3.075  1.5044 -0.2653  0.9859
 7481TIP3    H222408   3.146   3.008   2.973 -1.6758  1.0978 -1.3200
 7482TIP3   OH222409   3.527   4.112   2.248  0.0947  0.4557 -0.3079
 7482TIP3    H122410   3.587   4.139   2.179 -0.1360  1.4440 -0.1354
 7482TIP3    H222411   3.443   4.150   2.224 -0.8186 -1.9173 -1.1967
 7483TIP3   OH222412   2.433   0.393   1.278 -0.4854 -0.0064 -0.8218
 7483TIP3    H122413   2.404   0.411   1.367 -0.4666  0.9060 -0.9876
 7483TIP3    H222414   2.352   0.376   1.229 -0.6260  0.8863 -0.9237
 7484TIP3   OH222415   1.542   1.881   5.029 -0.1058  0.2085  0.1435
 7484TIP3    H122416   1.602   1.822   5.075  0.1971 -0.2906 -0.8668
 7484TIP3    H222417   1.482   1.912   5.097  0.6754 -0.0669  0.9778
 7485TIP3   OH222418   3.775   0.683   2.124 -0.7138 -0.0569 -0.1545
 7485TIP3    H122419   3.819   0.700   2.042 -0.8057  1.6934  0.1321
 7485TIP3    H222420   3.695   0.636   2.099 -1.4807  1.7339 -1.2440
 7486TIP3   OH222421   1.996   1.559   5.261  0.2106  0.1091  0.1581
 7486TIP3    H122422   1.988   1.474   5.304  1.8556  0.3932  1.0609
 7486TIP3    H222423   1.909   1.573   5.221 -0.1134 -1.9485  0.0162
 7487TIP3   OH222424   7.118   3.689   4.378  0.0454  0.3436  0.3734
 7487TIP3    H122425   7.064   3.630   4.430 -0.2089  0.2974  0.0538
 7487TIP3    H222426   7.190   3.713   4.437 -0.8466  1.1922  1.1555
 7488TIP3   OH222427   2.817   6.192   0.272  0.1800 -0.2469  0.0123
 7488TIP3    H122428   2.782   6.204   0.184  2.6248  2.1660 -0.7616
 7488TIP3    H222429   2.766   6.251   0.327  0.3437  0.1989 -0.3085
 7489TIP3   OH222430   3.039   0.354   4.166 -0.3494 -0.1354 -0.6374
 7489TIP3    H122431   3.036   0.330   4.074  1.6830  2.6549 -1.5521
 7489TIP3    H222432   3.062   0.447   4.166 -1.0723  0.1704  2.6889
 7490TIP3   OH222433   2.209   1.570   4.710 -0.1348  0.0369  0.0276
 7490TIP3    H122434   2.133   1.563   4.767 -0.7971 -0.6291 -0.9250
 7490TIP3    H222435   2.173   1.588   4.623  0.7814 -0.4479 -0.4634
 7491TIP3   OH222436   4.293   4.682   1.212 -0.5898 -0.3864 -0.5136
 7491TIP3    H122437   4.221   4.624   1.190  0.4029 -1.2827 -1.5005
 7491TIP3    H222438   4.261   4.770   1.189 -1.4091 -0.7601 -0.8229
 7492TIP3   OH222439   4.062   2.382   0.090 -0.4160  0.0538  0.0389
 7492TIP3    H122440   4.142   2.414   0.132 -0.4957 -0.1032  0.3116
 7492TIP3    H222441   4.072   2.408  -0.002 -0.1806  0.2828  0.1260
 7493TIP3   OH222442   4.462   3.103   5.704 -0.5927 -0.0792  0.4711
 7493TIP3    H122443   4.488   3.134   5.790  0.3712 -0.9579  0.5178
 7493TIP3    H222444   4.409   3.025   5.721 -0.6291 -0.0975  0.2844
 7494TIP3   OH222445   6.963   0.241   0.598  0.4640  0.2016  0.2663
 7494TIP3    H122446   6.988   0.322   0.642  2.4759  0.6294 -1.5382
 7494TIP3    H222447   6.915   0.269   0.520  0.3891 -0.3668  0.0998
 7495TIP3   OH222448   2.743   4.532   3.587  0.1713 -0.1204 -0.0460
 7495TIP3    H122449   2.726   4.569   3.674 -0.8419 -0.7592  0.0385
 7495TIP3    H222450   2.822   4.578   3.557  1.1225 -0.5694  1.6106
 7496TIP3   OH222451   1.342   4.793   1.053  0.1637 -0.2632 -0.3004
 7496TIP3    H122452   1.258   4.807   1.096 -0.2904 -1.9939 -0.5436
 7496TIP3    H222453   1.358   4.874   1.005 -0.5023  0.7518  1.1343
 7497TIP3   OH222454   2.000   6.572   1.808 -0.0148  0.2341  0.3878
 7497TIP3    H122455   1.960   6.659   1.800  0.2702  0.2401 -1.2671
 7497TIP3    H222456   2.094   6.587   1.797 -0.0911 -0.4361 -1.3973
 7498TIP3   OH222457   3.552   5.641   5.750  0.3947  0.0529  0.5630
 7498TIP3    H122458   3.560   5.731   5.716 -0.7590  0.2391  0.7593
 7498TIP3    H222459   3.626   5.595   5.711  0.8704  1.0363  0.2702
 7499TIP3   OH222460   5.450   1.163   3.630  0.3469 -0.2138 -0.6099
 7499TIP3    H122461   5.418   1.154   3.720 -0.4295 -3.4488 -1.0858
 7499TIP3    H222462   5.540   1.130   3.633  0.1530 -0.7953 -1.1065
 7500TIP3   OH222463   6.980   1.083   4.024 -0.5491  0.1913  0.5450
 7500TIP3    H122464   7.004   1.151   4.087 -2.6410  0.5204  1.0489
 7500TIP3    H222465   6.926   1.128   3.959 -2.5714 -1.0575  1.2640
 7501TIP3   OH222466   2.614   1.693   5.571  0.1564 -0.4597 -0.5983
 7501TIP3    H122467   2.545   1.679   5.507  0.4038  0.3341 -1.0508
 7501TIP3    H222468   2.639   1.785   5.560  1.3255 -0.7446 -0.4936
 7502TIP3   OH222469   0.334   5.657   2.584 -0.0371 -0.2091  0.5810
 7502TIP3    H122470   0.397   5.702   2.528 -0.4242  1.0061  1.0803
 7502TIP3    H222471   0.249   5.682   2.548 -0.2767  0.2576  1.4353
 7503TIP3   OH222472   0.835   0.224   2.660 -0.1557  0.4027 -0.5695
 7503TIP3    H122473   0.760   0.165   2.662 -0.1473  0.3558 -1.3309
 7503TIP3    H222474   0.809   0.297   2.717  0.7066 -1.3054  2.2199
 7504TIP3   OH222475   0.585   1.749   5.707 -0.1409  0.0167 -0.6310
 7504TIP3    H122476   0.597   1.680   5.772  0.2957  0.8567  0.2122
 7504TIP3    H222477   0.672   1.786   5.694 -0.2831  0.0683 -1.4511
 7505TIP3   OH222478   3.860   1.834   4.956 -0.2658  0.0896 -0.3005
 7505TIP3    H122479   3.912   1.828   4.876 -0.1063  0.3975 -0.2218
 7505TIP3    H222480   3.816   1.750   4.962 -0.5405  0.1834 -0.8900
 7506TIP3   OH222481   1.803   4.437   1.556 -0.1693  0.3621 -0.2054
 7506TIP3    H122482   1.885   4.393   1.579 -0.7006 -0.3077  0.4519
 7506TIP3    H222483   1.783   4.491   1.632 -0.7692 -0.1245 -0.0097
 7507TIP3   OH222484   4.529   5.331   4.521  0.0896 -0.2976  0.0881
 7507TIP3    H122485   4.495   5.250   4.559  0.0887 -0.5917 -0.5297
 7507TIP3    H222486   4.596   5.302   4.458  0.9382  0.2314  0.7168
 7508TIP3   OH222487   6.413   3.416   0.213 -0.2542  0.0616  0.6945
 7508TIP3    H122488   6.374   3.406   0.126  0.4680 -0.6625  0.4420
 7508TIP3    H222489   6.397   3.333   0.257  0.0679  0.1385  0.9671
 7509TIP3   OH222490   6.064   2.695   2.864  0.1897 -0.0218 -0.0382
 7509TIP3    H122491   6.130   2.631   2.890 -0.9941 -0.6637  1.5962
 7509TIP3    H222492   5.981   2.648   2.872 -0.6475  1.4767  0.4060
 7510TIP3   OH222493   0.726   5.479   2.330  0.3519 -0.0717  0.5489
 7510TIP3    H122494   0.791   5.525   2.383  0.5500 -2.3625  2.4332
 7510TIP3    H222495   0.645   5.485   2.380 -0.3428  0.7250 -0.6312
 7511TIP3   OH222496   5.658   2.049   0.867  0.2123  0.1233 -0.0522
 7511TIP3    H122497   5.729   2.097   0.911 -1.2609  2.2640  0.1525
 7511TIP3    H222498   5.703   1.986   0.811  2.2647  1.0257  0.4680
 7512TIP3   OH222499   6.756   2.810   4.762 -0.0901  0.6429  0.6517
 7512TIP3    H122500   6.750   2.903   4.783 -1.4281  0.3990  1.5082
 7512TIP3    H222501   6.802   2.807   4.678  0.3672  2.0382  0.8226
 7513TIP3   OH222502   1.897   3.094   0.963 -0.0369 -0.6486  0.4875
 7513TIP3    H122503   1.980   3.050   0.978 -0.5966 -2.5122 -1.3202
 7513TIP3    H222504   1.919   3.187   0.959  1.9905 -1.1088 -0.1049
 7514TIP3   OH222505   2.505   4.465   4.972 -0.6416 -0.3667  0.4639
 7514TIP3    H122506   2.528   4.486   5.063  1.5601 -1.0020  0.1028
 7514TIP3    H222507   2.521   4.546   4.924 -1.2372 -0.2067  0.5181
 7515TIP3   OH222508   1.878   2.044   4.260  0.4279 -0.3493 -0.1592
 7515TIP3    H122509   1.800   2.018   4.310  0.9739  0.9935  1.4724
 7515TIP3    H222510   1.943   1.976   4.280  0.3851 -0.2537  0.3209
 7516TIP3   OH222511   4.070   5.209   4.798 -0.0001 -0.0041 -0.1191
 7516TIP3    H122512   3.989   5.160   4.782  0.2439 -0.2229 -0.7198
 7516TIP3    H222513   4.139   5.153   4.763  0.2490  0.9249 -1.1841
 7517TIP3   OH222514   2.858   2.348   0.023  0.5387  0.0987  0.0133
 7517TIP3    H122515   2.862   2.335   0.118  0.3339 -0.1765 -0.0130
 7517TIP3    H222516   2.942   2.389   0.001  0.2864  0.8484  0.4149
 7518TIP3   OH222517   5.126   4.437   0.563  0.2731 -0.6344  0.2888
 7518TIP3    H122518   5.093   4.368   0.620  0.0048  0.2602  1.2491
 7518TIP3    H222519   5.216   4.411   0.543 -0.5358 -2.3959 -1.2285
 7519TIP3   OH222520   3.439   0.525   2.310 -0.2221 -0.1270 -0.2791
 7519TIP3    H122521   3.434   0.504   2.403 -1.8323  1.7014  0.0918
 7519TIP3    H222522   3.504   0.464   2.276  0.0116 -1.2087  1.9232
 7520TIP3   OH222523   5.470   6.314   1.618  0.0887 -0.0811 -0.0243
 7520TIP3    H122524   5.492   6.232   1.662  0.0970  0.5179  1.1253
 7520TIP3    H222525   5.533   6.320   1.546  1.9925  0.2880  1.5731
 7521TIP3   OH222526   1.660   3.498   4.408 -0.0891  0.4271 -0.5834
 7521TIP3    H122527   1.606   3.576   4.414  2.5705  2.4837 -1.7601
 7521TIP3    H222528   1.673   3.484   4.315  0.0601 -1.0678 -0.3769
 7522TIP3   OH222529   2.031   3.609   3.595  1.1137 -0.6297 -0.3957
 7522TIP3    H122530   2.067   3.554   3.665  1.1229 -0.3191 -0.1540
 7522TIP3    H222531   2.107   3.647   3.553  1.1467 -1.3644 -1.0389
 7523TIP3   OH222532   4.621   0.681   3.499 -0.3662  0.7338  0.0554
 7523TIP3    H122533   4.614   0.775   3.514 -1.6759  0.9983 -1.8328
 7523TIP3    H222534   4.532   0.648   3.512 -0.4386  0.1780 -1.6054
 7524TIP3   OH222535   5.104   0.749   3.428  0.0751  0.1759  0.0423
 7524TIP3    H122536   5.186   0.704   3.411 -0.3864 -0.4694 -0.5295
 7524TIP3    H222537   5.037   0.681   3.423 -0.4283  0.5444  1.2868
 7525TIP3   OH222538   5.328   0.499   1.120 -0.1241 -0.2966  0.2359
 7525TIP3    H122539   5.422   0.518   1.120 -0.5633  2.4624  1.6902
 7525TIP3    H222540   5.302   0.510   1.029  0.5318  1.8502  0.2556
 7526TIP3   OH222541   4.797   5.975   5.205 -0.4119  0.2600 -0.2666
 7526TIP3    H122542   4.703   5.977   5.192 -0.4494  1.5497  0.1052
 7526TIP3    H222543   4.825   5.892   5.166 -1.6745 -0.0801 -0.4765
 7527TIP3   OH222544   3.594   2.506   2.154 -0.3189  0.1020 -0.4782
 7527TIP3    H122545   3.642   2.580   2.116 -1.1178  0.5597 -0.6148
 7527TIP3    H222546   3.514   2.545   2.189  0.0360 -0.4277  1.0030
 7528TIP3   OH222547   5.217   4.023   1.613  0.2365 -0.2008  0.4352
 7528TIP3    H122548   5.166   4.102   1.596  3.0017  1.8660  1.0484
 7528TIP3    H222549   5.201   3.967   1.537 -2.5205  0.4558  0.4136
 7529TIP3   OH222550   6.163   4.438   4.302 -0.0801  0.4857 -0.2151
 7529TIP3    H122551   6.089   4.437   4.362 -0.1355 -0.4790 -0.2837
 7529TIP3    H222552   6.152   4.519   4.252 -2.2292 -0.5476 -1.5829
 7530TIP3   OH222553   6.527   6.592   3.669  0.3264 -0.3664  0.5683
 7530TIP3    H122554   6.439   6.592   3.631  1.1987 -1.5491 -1.6452
 7530TIP3    H222555   6.516   6.632   3.756 -2.2504  0.1101  0.1013
 7531TIP3   OH222556   4.327   3.847   4.292  0.3290  0.6539  0.0179
 7531TIP3    H122557   4.267   3.881   4.358  0.8418  0.2367  0.7129
 7531TIP3    H222558   4.356   3.925   4.244 -0.0221  0.9660  0.3044
 7532TIP3   OH222559   5.432   3.150   3.081  0.2253  0.3619 -0.0804
 7532TIP3    H122560   5.344   3.120   3.056 -1.5189  1.9978  3.4724
 7532TIP3    H222561   5.451   3.221   3.019 -0.4302 -0.7165 -1.5819
 7533TIP3   OH222562   2.651   1.869   2.143  1.1728 -0.1987  0.4864
 7533TIP3    H122563   2.587   1.801   2.164  2.2202 -1.7253 -1.0430
 7533TIP3    H222564   2.609   1.950   2.172 -0.4747 -1.3671  1.6040
 7534TIP3   OH222565   0.116   2.408   4.283  0.3371 -0.4701 -0.1153
 7534TIP3    H122566   0.030   2.377   4.256 -0.4918  0.7423  0.9995
 7534TIP3    H222567   0.156   2.333   4.326 -0.7131 -0.6809  0.5369
 7535TIP3   OH222568   6.447   4.881   0.070 -0.3632  0.4700  0.1379
 7535TIP3    H122569   6.526   4.839   0.036  0.1377 -0.5814  2.3486
 7535TIP3    H222570   6.477   4.934   0.143 -1.7308 -0.8022  1.7394
 7536TIP3   OH222571   6.600   5.019   2.193  0.7251  0.0557 -0.2737
 7536TIP3    H122572   6.611   5.063   2.277  2.9528  0.1102 -0.5266
 7536TIP3    H222573   6.533   5.070   2.147  0.1023  0.5298  1.1227
 7537TIP3   OH222574   1.367   1.468   0.373 -0.1073 -0.6588  0.4163
 7537TIP3    H122575   1.364   1.383   0.329 -0.3180 -0.9654  1.0089
 7537TIP3    H222576   1.275   1.488   0.392 -0.0102 -0.5891  0.8264
 7538TIP3   OH222577   6.630   5.891   2.229  0.2111  0.4186  0.3321
 7538TIP3    H122578   6.646   5.978   2.192  0.2689 -0.6354 -2.3348
 7538TIP3    H222579   6.618   5.835   2.153  2.6451 -2.4245  1.8571
 7539TIP3   OH222580   2.010   1.699   0.556  0.0612 -0.5583 -0.0875
 7539TIP3    H122581   2.001   1.661   0.469 -0.6716  1.8085 -1.1554
 7539TIP3    H222582   2.095   1.670   0.587 -0.7767 -3.6623 -0.3868
 7540TIP3   OH222583   4.248   3.402   1.735  0.6995  0.8651 -0.2942
 7540TIP3    H122584   4.223   3.455   1.659  1.0066 -0.7826 -1.6088
 7540TIP3    H222585   4.302   3.332   1.699  0.4814 -0.2403  1.3927
 7541TIP3   OH222586   5.934   0.460   2.205  0.0394  0.1619 -0.0645
 7541TIP3    H122587   5.927   0.512   2.286 -1.6648  1.1483 -0.7770
 7541TIP3    H222588   5.992   0.511   2.149 -0.0960  0.3315 -0.0528
 7542TIP3   OH222589   4.375   2.265   4.334  0.1182  0.3051  0.3286
 7542TIP3    H122590   4.384   2.337   4.272 -0.3706 -0.6428 -0.8811
 7542TIP3    H222591   4.281   2.260   4.351  0.2080  0.2950  0.8438
 7543TIP3   OH222592   2.813   1.577   3.495 -0.3966 -0.3303 -0.2212
 7543TIP3    H122593   2.822   1.626   3.414  0.0555 -0.4803 -0.2591
 7543TIP3    H222594   2.897   1.587   3.540 -0.7797  0.1063  0.4273
 7544TIP3   OH222595   2.504   4.728   1.754  0.2397  0.4146 -0.0236
 7544TIP3    H122596   2.515   4.774   1.671  0.1477 -1.3616 -1.0584
 7544TIP3    H222597   2.409   4.729   1.769  0.2556  0.7258  0.0783
 7545TIP3   OH222598   3.187   0.638   2.310 -0.1918 -0.7483  0.0309
 7545TIP3    H122599   3.260   0.578   2.327  0.4639  0.2892  1.0880
 7545TIP3    H222600   3.227   0.712   2.265 -0.2510  0.4971  1.8932
 7546TIP3   OH222601   0.932   5.778   0.021 -0.2404  0.2819 -0.4585
 7546TIP3    H122602   0.967   5.856   0.063  0.2411 -0.0337 -0.2716
 7546TIP3    H222603   0.844   5.768   0.059  0.8781 -1.0867  1.9555
 7547TIP3   OH222604   0.905   3.276   2.747 -0.2980 -0.0231  0.0186
 7547TIP3    H122605   0.838   3.276   2.679 -1.2342 -0.3222  0.9299
 7547TIP3    H222606   0.988   3.274   2.698 -0.9545 -0.7947 -1.1037
 7548TIP3   OH222607   6.248   0.009   2.725  0.5477  0.0065  0.8946
 7548TIP3    H122608   6.335   0.022   2.763  1.0598  0.5723 -0.3881
 7548TIP3    H222609   6.191   0.067   2.775  0.9181 -0.2883  1.6815
 7549TIP3   OH222610   5.296   1.194   0.399 -0.3940  0.0960  0.1173
 7549TIP3    H122611   5.265   1.200   0.490  0.8864  0.4922  0.5523
 7549TIP3    H222612   5.364   1.261   0.393 -0.5987  0.2009 -1.2068
 7550TIP3   OH222613   1.153   0.100   2.035  0.0219 -0.0107  0.7522
 7550TIP3    H122614   1.082   0.142   2.083  0.5486  0.5957  1.0230
 7550TIP3    H222615   1.230   0.115   2.089  0.3813 -0.5173  0.3826
 7551TIP3   OH222616   6.172   2.060   1.031 -0.4004 -0.3256 -0.5483
 7551TIP3    H122617   6.241   2.022   0.976 -0.1234  0.0526 -0.4626
 7551TIP3    H222618   6.219   2.112   1.096 -0.8395  1.8878 -1.9156
 7552TIP3   OH222619   3.314   4.970   3.785  0.6245  0.0095 -0.1186
 7552TIP3    H122620   3.220   4.978   3.802  0.5856  0.8290 -0.6413
 7552TIP3    H222621   3.351   4.941   3.868  0.3946  3.4841  1.3659
 7553TIP3   OH222622   2.489   0.887   0.862 -0.3692  0.1885  0.6037
 7553TIP3    H122623   2.416   0.846   0.816  0.5743  0.6025 -1.3466
 7553TIP3    H222624   2.513   0.824   0.930 -1.5241 -0.6439  0.2748
 7554TIP3   OH222625   0.296   0.064   1.131 -0.5583  0.0643 -0.1562
 7554TIP3    H122626   0.231   0.020   1.185 -0.2349 -1.2573 -0.7999
 7554TIP3    H222627   0.287   0.023   1.045  0.0429  0.9886 -0.6780
 7555TIP3   OH222628   3.031   4.370   4.803 -0.4614 -0.3209 -0.1747
 7555TIP3    H122629   3.095   4.404   4.865 -1.2005 -0.5478  0.7339
 7555TIP3    H222630   3.081   4.354   4.723 -0.0605  2.8671 -0.6761
 7556TIP3   OH222631   6.925   6.241   0.120 -0.1773  0.3569 -0.3256
 7556TIP3    H122632   6.954   6.152   0.140 -3.1971 -0.8533 -0.8454
 7556TIP3    H222633   6.954   6.255   0.030  0.8328  0.1408 -0.0438
 7557TIP3   OH222634   5.051   2.948   5.712 -0.5309 -0.0179  0.3700
 7557TIP3    H122635   4.991   3.023   5.711 -1.2884 -0.6063  0.4305
 7557TIP3    H222636   5.039   2.907   5.626 -1.8463 -1.3704  1.1381
 7558TIP3   OH222637   5.442   0.658   0.173 -0.3956 -0.4723 -0.3458
 7558TIP3    H122638   5.363   0.604   0.167 -0.5528 -0.1054 -1.8602
 7558TIP3    H222639   5.499   0.625   0.104  0.4080 -0.1261  0.1458
 7559TIP3   OH222640   5.825   3.858   1.945  0.5342 -0.2869 -0.1685
 7559TIP3    H122641   5.834   3.797   1.871 -1.9569 -0.8166 -0.1188
 7559TIP3    H222642   5.740   3.900   1.931  0.7687  0.8315  1.5201
 7560TIP3   OH222643   6.733   5.266   2.834  0.6467  0.1325  0.5986
 7560TIP3    H122644   6.775   5.229   2.912  0.7353 -1.2959 -0.0871
 7560TIP3    H222645   6.701   5.189   2.786 -0.5007  1.0558 -0.1627
 7561TIP3   OH222646   2.692   5.291   4.864 -0.5437  0.1016 -0.3120
 7561TIP3    H122647   2.767   5.350   4.865  1.1895 -1.7113 -4.1174
 7561TIP3    H222648   2.721   5.215   4.915 -0.6347  0.2429 -0.0455
 7562TIP3   OH222649   2.927   0.229   3.679 -0.1849  0.0432  0.0980
 7562TIP3    H122650   2.984   0.172   3.627 -1.5024 -1.7615  0.5420
 7562TIP3    H222651   2.841   0.220   3.638 -0.0659  3.5770 -1.2584
 7563TIP3   OH222652   6.561   5.777   4.554  0.1188  0.0568 -0.6489
 7563TIP3    H122653   6.483   5.817   4.593  0.4153 -0.4139  0.4773
 7563TIP3    H222654   6.528   5.701   4.506 -0.2110  0.4035 -0.9742
 7564TIP3   OH222655   1.946   3.801   3.780 -0.4848  0.3596 -0.6871
 7564TIP3    H122656   1.886   3.855   3.729 -1.2293 -1.2005 -1.5295
 7564TIP3    H222657   1.993   3.750   3.715  0.3641  0.1329  0.0789
 7565TIP3   OH222658   0.745   5.059   4.690  0.0498 -0.3290 -0.0277
 7565TIP3    H122659   0.711   4.992   4.631  0.4545  0.2176 -0.8879
 7565TIP3    H222660   0.832   5.027   4.715 -0.4899 -1.0266  1.0517
 7566TIP3   OH222661   6.874   3.063   2.903  0.4639 -0.5450  0.4751
 7566TIP3    H122662   6.918   2.978   2.909  0.3371 -0.5492  1.4971
 7566TIP3    H222663   6.804   3.058   2.967 -1.7514 -0.9331 -1.8317
 7567TIP3   OH222664   0.642   5.949   5.488  0.2083 -0.1348 -0.4232
 7567TIP3    H122665   0.653   6.038   5.455 -0.6285  0.4054  0.6932
 7567TIP3    H222666   0.585   5.958   5.564 -0.6748 -1.7430 -0.8473
 7568TIP3   OH222667   5.454   1.529   5.007 -0.1635  0.3049 -0.3887
 7568TIP3    H122668   5.412   1.448   4.978 -1.0498  1.1671 -1.6402
 7568TIP3    H222669   5.411   1.550   5.090 -0.1926 -0.3167 -0.2443
 7569TIP3   OH222670   0.981   5.662   5.355  0.4777  0.2919 -0.2538
 7569TIP3    H122671   0.904   5.640   5.302 -0.2139  0.3687  0.7017
 7569TIP3    H222672   0.948   5.722   5.421  1.5120  0.8979 -0.2664
 7570TIP3   OH222673   3.689   1.835   0.606  0.5282 -0.6134  0.0715
 7570TIP3    H122674   3.687   1.739   0.614 -0.1193 -0.6063  0.0154
 7570TIP3    H222675   3.782   1.855   0.595  0.5866 -1.3209 -0.9338
 7571TIP3   OH222676   6.610   4.436   4.387 -0.1733 -0.2599  0.0788
 7571TIP3    H122677   6.693   4.436   4.338  0.1170  0.8840  0.5272
 7571TIP3    H222678   6.546   4.401   4.326  0.4209 -0.0173 -0.7018
 7572TIP3   OH222679   3.957   6.655   0.963  0.0963  0.3720 -0.1182
 7572TIP3    H122680   3.961   6.561   0.948  1.1044  0.0503  1.9148
 7572TIP3    H222681   4.046   6.686   0.945  0.4441  0.4989  1.6961
 7573TIP3   OH222682   4.159   1.159   4.457 -0.1000 -0.3617  0.4058
 7573TIP3    H122683   4.099   1.183   4.527 -0.3140  1.3683 -0.3302
 7573TIP3    H222684   4.220   1.233   4.451  0.1243 -0.6334 -1.0083
 7574TIP3   OH222685   6.944   2.326   5.353 -0.1410  0.8171 -0.5548
 7574TIP3    H122686   6.984   2.295   5.271 -1.9144 -1.5386 -0.6600
 7574TIP3    H222687   6.871   2.382   5.324  0.4019  1.5703 -0.4950
 7575TIP3   OH222688   6.702   3.014   5.738  0.6656  0.3170 -0.2819
 7575TIP3    H122689   6.780   3.040   5.786  0.0211  1.0519  0.3910
 7575TIP3    H222690   6.634   3.074   5.768 -0.3461 -0.7725 -0.3071
 7576TIP3   OH222691   1.548   3.674   5.280  0.5218 -0.2009  0.3349
 7576TIP3    H122692   1.549   3.624   5.198 -2.0230 -0.6064  0.4569
 7576TIP3    H222693   1.563   3.765   5.253  2.6858 -0.6473 -0.1738
 7577TIP3   OH222694   3.898   1.091   3.347 -0.1394  0.4179 -0.0399
 7577TIP3    H122695   3.897   1.050   3.433 -1.9844  2.4458  0.9947
 7577TIP3    H222696   3.969   1.047   3.300  1.4793 -0.2095  2.7744
 7578TIP3   OH222697   0.297   4.001   1.274 -0.1329 -0.1538 -0.1940
 7578TIP3    H122698   0.292   4.056   1.352  0.4527  2.5752 -1.9604
 7578TIP3    H222699   0.365   3.936   1.295  1.8159  2.0328  0.7423
 7579TIP3   OH222700   3.843   4.712   0.506 -0.1048  0.5726  0.5013
 7579TIP3    H122701   3.859   4.638   0.446  0.3322  0.5234  0.6710
 7579TIP3    H222702   3.831   4.671   0.592 -1.3806  0.5980  0.3513
 7580TIP3   OH222703   3.770   5.921   1.440  0.1152 -0.4630 -0.3380
 7580TIP3    H122704   3.794   5.831   1.419 -1.4861 -0.2512 -3.9242
 7580TIP3    H222705   3.837   5.974   1.397 -0.2010  0.0622 -0.1909
 7581TIP3   OH222706   5.791   0.988   5.914  0.6006 -0.0875 -0.9860
 7581TIP3    H122707   5.837   1.026   5.839 -1.0563 -2.0658 -3.1675
 7581TIP3    H222708   5.817   0.896   5.915 -0.0802 -0.2995  0.3467
 7582TIP3   OH222709   2.754   5.826   0.031  0.3107  0.1686 -0.2291
 7582TIP3    H122710   2.681   5.795  -0.024 -0.0364 -0.3620  0.5063
 7582TIP3    H222711   2.768   5.755   0.093  2.0678 -0.1347 -0.9081
 7583TIP3   OH222712   5.982   5.208   4.601 -0.2170 -0.1930  0.2344
 7583TIP3    H122713   5.914   5.159   4.649  0.1197 -0.1518  0.7614
 7583TIP3    H222714   6.042   5.238   4.669  0.0183  0.2687 -0.1716
 7584TIP3   OH222715   1.050   3.885   2.088 -0.2714  0.0357  0.1312
 7584TIP3    H122716   0.997   3.935   2.027 -0.0636  0.8011  0.5578
 7584TIP3    H222717   1.134   3.873   2.043 -0.2663  0.2182  0.0910
 7585TIP3   OH222718   5.889   1.489   4.326 -0.1830  0.2197 -0.3986
 7585TIP3    H122719   5.905   1.583   4.324 -2.2430  0.6098 -1.0730
 7585TIP3    H222720   5.903   1.465   4.418  0.9503  1.0545 -0.3349
 7586TIP3   OH222721   6.989   3.189   4.778  0.6123 -0.1382  0.2829
 7586TIP3    H122722   6.999   3.096   4.759  1.2580  0.1161 -0.6508
 7586TIP3    H222723   6.963   3.228   4.695 -1.8251  0.2250  1.1183
 7587TIP3   OH222724   6.438   1.512   4.518 -0.4719  0.1950  0.2840
 7587TIP3    H122725   6.421   1.453   4.445 -3.6998  0.7015  0.4828
 7587TIP3    H222726   6.474   1.456   4.587  0.2989 -0.7246 -0.8231
 7588TIP3   OH222727   4.815   3.171   2.550 -0.0061  0.3236 -0.1123
 7588TIP3    H122728   4.827   3.126   2.633  0.7068  0.6470 -0.0381
 7588TIP3    H222729   4.721   3.192   2.547  0.1821  1.4310  1.1752
 7589TIP3   OH222730   4.851   6.214   5.393 -0.5917  0.2334 -0.1564
 7589TIP3    H122731   4.825   6.123   5.381 -0.3112 -0.3460  3.0084
 7589TIP3    H222732   4.769   6.263   5.388 -1.1885 -0.5750  1.0918
 7590TIP3   OH222733   5.695   1.071   3.618  0.7519  0.1645 -0.0202
 7590TIP3    H122734   5.738   0.994   3.657  1.4322  0.3634 -0.3622
 7590TIP3    H222735   5.731   1.076   3.530 -0.7979 -0.3056 -0.7225
 7591TIP3   OH222736   6.111   6.665   2.385  0.1451  0.7977  0.6779
 7591TIP3    H122737   6.123   6.614   2.465 -1.6130 -1.4516 -0.3752
 7591TIP3    H222738   6.016   6.673   2.376  0.2892  0.7656 -1.2803
 7592TIP3   OH222739   2.092   5.998   3.223  0.7743  0.0506  0.4266
 7592TIP3    H122740   2.103   5.971   3.132 -2.6105 -1.7859  0.4182
 7592TIP3    H222741   2.081   6.093   3.219 -0.1245 -0.0888 -1.1863
 7593TIP3   OH222742   5.286   4.674   0.204  0.8276  0.1454  0.0633
 7593TIP3    H122743   5.340   4.716   0.271  1.3889  1.2085 -1.0173
 7593TIP3    H222744   5.215   4.737   0.188  0.8646  0.0298 -0.5563
 7594TIP3   OH222745   5.353   0.120   3.798 -0.0512  0.3546 -0.6643
 7594TIP3    H122746   5.316   0.172   3.727 -1.8741 -0.3890 -0.3173
 7594TIP3    H222747   5.282   0.113   3.862  0.9327 -0.5654  0.3706
 7595TIP3   OH222748   7.050   5.010   4.752  0.2044 -0.0089  0.0895
 7595TIP3    H122749   6.970   5.051   4.721 -1.8240 -3.3681  0.3496
 7595TIP3    H222750   7.105   5.002   4.674  0.2618  2.1221 -0.1379
 7596TIP3   OH222751   5.570   2.803   5.019  0.0026 -0.0432 -0.3686
 7596TIP3    H122752   5.616   2.719   5.010 -0.4103 -0.6310  2.2169
 7596TIP3    H222753   5.641   2.867   5.029  0.3054 -0.3260 -0.6560
 7597TIP3   OH222754   6.271   1.751   1.512 -0.0499  0.4126 -0.0602
 7597TIP3    H122755   6.228   1.779   1.431 -0.3533 -0.1544 -0.1022
 7597TIP3    H222756   6.201   1.713   1.564  0.4182 -0.6879 -0.2016
 7598TIP3   OH222757   0.591   1.433   4.283  0.0631  0.4780  0.1723
 7598TIP3    H122758   0.549   1.397   4.204  0.3855  0.7904 -0.1492
 7598TIP3    H222759   0.561   1.524   4.286  0.5585  0.6514  0.0433
 7599TIP3   OH222760   5.712   4.730   0.948 -0.3272 -0.5518  0.0357
 7599TIP3    H122761   5.665   4.785   1.010  0.2365 -1.7822  1.6297
 7599TIP3    H222762   5.799   4.721   0.986  1.1699  1.3085 -2.6038
 7600TIP3   OH222763   6.845   3.176   4.501  0.0381  0.2224 -0.5458
 7600TIP3    H122764   6.877   3.184   4.411  2.0999 -1.5118 -0.0358
 7600TIP3    H222765   6.768   3.119   4.495  0.6985 -0.6255 -1.1378
 7601TIP3   OH222766   3.283   5.441   1.813  0.2312  0.2316  0.0282
 7601TIP3    H122767   3.212   5.504   1.802 -0.7495 -0.8506 -0.0297
 7601TIP3    H222768   3.277   5.384   1.736 -0.3210 -1.2705  1.1409
 7602TIP3   OH222769   5.909   0.498   5.321 -0.1844  0.1117 -0.2277
 7602TIP3    H122770   5.901   0.488   5.227  0.4137  0.7895 -0.3610
 7602TIP3    H222771   5.964   0.425   5.349  0.3006  0.3672 -0.5170
 7603TIP3   OH222772   6.056   5.949   0.886  0.3703 -0.0085  0.4214
 7603TIP3    H122773   5.978   5.945   0.941  0.7615  0.8663  1.0707
 7603TIP3    H222774   6.040   5.886   0.816  0.3685 -2.0291  2.1652
 7604TIP3   OH222775   5.188   2.980   1.412  0.3471 -0.4492 -0.2301
 7604TIP3    H122776   5.128   2.924   1.461 -0.1869 -0.9096 -1.3663
 7604TIP3    H222777   5.235   3.030   1.479 -0.4587 -0.9441  0.7283
 7605TIP3   OH222778   0.869   1.206   3.333 -0.3545 -0.0027 -0.5504
 7605TIP3    H122779   0.796   1.243   3.284 -0.9145 -0.2576  0.0867
 7605TIP3    H222780   0.871   1.114   3.308 -1.2205 -0.3505  0.5747
 7606TIP3   OH222781   2.748   4.016   0.124  0.3245 -0.1288 -0.3862
 7606TIP3    H122782   2.738   4.099   0.170 -1.4344 -0.0929 -0.7416
 7606TIP3    H222783   2.830   4.024   0.076  0.2730  1.3389 -0.2657
 7607TIP3   OH222784   4.637   3.999   4.367  0.6365 -0.5673  0.1140
 7607TIP3    H122785   4.630   4.043   4.282 -1.4021 -1.8570 -0.4807
 7607TIP3    H222786   4.703   4.049   4.415  1.3378  0.6369 -1.9558
 7608TIP3   OH222787   4.204   0.640   3.316 -0.6951  0.4800 -0.5087
 7608TIP3    H122788   4.256   0.563   3.338 -1.4817  0.3135  0.9278
 7608TIP3    H222789   4.247   0.678   3.240  0.8750 -0.2663 -0.0283
 7609TIP3   OH222790   1.908   3.199   3.782  0.2012 -0.2359 -0.3078
 7609TIP3    H122791   1.822   3.178   3.818 -0.0574 -0.8375 -1.2407
 7609TIP3    H222792   1.908   3.159   3.694  0.7683  1.2450 -1.0171
 7610TIP3   OH222793   5.522   4.175   3.770 -0.1278  0.3050  0.6261
 7610TIP3    H122794   5.464   4.230   3.717  2.0606  2.3512  0.1723
 7610TIP3    H222795   5.493   4.190   3.860 -1.6075 -0.3667  0.2804
 7611TIP3   OH222796   1.928   6.325   1.921 -0.9467 -0.3736  0.1785
 7611TIP3    H122797   2.009   6.292   1.960 -0.4255  0.9909  0.2784
 7611TIP3    H222798   1.952   6.408   1.881 -1.6834 -1.2883 -2.3149
 7612TIP3   OH222799   5.761   1.211   3.926 -0.2076 -0.3028 -0.5546
 7612TIP3    H122800   5.720   1.278   3.980 -0.8518 -0.5953 -0.6717
 7612TIP3    H222801   5.811   1.260   3.860 -0.0798  0.0539 -0.1957
 7613TIP3   OH222802   6.473   3.170   0.449 -0.2090  1.0704  0.0153
 7613TIP3    H122803   6.562   3.195   0.424  0.4188  1.8375  2.6315
 7613TIP3    H222804   6.484   3.120   0.530 -2.0593 -0.7433 -0.7626
 7614TIP3   OH222805   0.465   2.152   3.225 -0.1104  0.6936  0.3376
 7614TIP3    H122806   0.412   2.094   3.171  0.0682  2.1510 -1.4741
 7614TIP3    H222807   0.451   2.239   3.189  2.0960  1.3720  0.9390
 7615TIP3   OH222808   1.013   1.993   5.176 -0.0289  0.1063 -0.1635
 7615TIP3    H122809   1.063   2.040   5.242 -0.3829 -0.1995  0.3243
 7615TIP3    H222810   0.956   2.060   5.137 -2.1002 -0.2592  1.9984
 7616TIP3   OH222811   1.357   6.322   0.992  0.3375 -0.0815 -0.1969
 7616TIP3    H122812   1.442   6.303   0.953  1.7850  1.9145  1.6818
 7616TIP3    H222813   1.343   6.250   1.053  1.5226  0.3492  0.6387
 7617TIP3   OH222814   4.113   0.025   1.406 -0.6438  0.3410 -0.0873
 7617TIP3    H122815   4.204   0.055   1.411 -0.7407  0.7879 -0.8900
 7617TIP3    H222816   4.069   0.071   1.477  0.1877 -1.5474  1.7659
 7618TIP3   OH222817   5.189   0.171   0.190 -0.0164  0.3719 -0.1621
 7618TIP3    H122818   5.204   0.118   0.112 -0.3907  0.6274 -0.4082
 7618TIP3    H222819   5.112   0.132   0.232 -0.4427  0.8718 -0.4773
 7619TIP3   OH222820   6.849   0.433   5.723  0.1533 -0.1190 -0.3560
 7619TIP3    H122821   6.848   0.430   5.819  1.6630  0.2969 -0.3074
 7619TIP3    H222822   6.756   0.435   5.699 -0.2628  1.2593  1.1512
 7620TIP3   OH222823   6.767   4.884   3.603 -0.4293  0.7187  0.3535
 7620TIP3    H122824   6.800   4.926   3.683  0.2930 -2.2469  1.7711
 7620TIP3    H222825   6.846   4.866   3.551 -0.5394 -0.1108  0.4552
 7621TIP3   OH222826   5.493   1.107   2.530 -0.3190  0.2969 -0.7437
 7621TIP3    H122827   5.415   1.138   2.577 -2.0140  1.1452 -3.8391
 7621TIP3    H222828   5.474   1.016   2.509  1.5448 -0.8918  2.1796
 7622TIP3   OH222829   2.864   0.247   0.349  0.5211 -0.2258 -0.1565
 7622TIP3    H122830   2.791   0.271   0.405  1.4731 -0.6553  1.3373
 7622TIP3    H222831   2.886   0.328   0.302  0.8388  0.6878  1.4727
 7623TIP3   OH222832   3.335   3.739   1.760 -0.1502  0.4380 -0.3703
 7623TIP3    H122833   3.289   3.710   1.838  0.9068  0.4415  0.2788
 7623TIP3    H222834   3.418   3.690   1.760  0.1478  0.9057 -1.1372
 7624TIP3   OH222835   6.210   1.856   4.407  0.2912  0.3470  0.0870
 7624TIP3    H122836   6.282   1.838   4.347  0.1535  1.2204 -0.3653
 7624TIP3    H222837   6.233   1.940   4.447 -0.2053  0.3624  0.3470
 7625TIP3   OH222838   5.405   3.317   3.645  0.7342  0.2571 -0.0415
 7625TIP3    H122839   5.453   3.235   3.656  1.5881  0.6053 -1.0406
 7625TIP3    H222840   5.429   3.347   3.558 -0.3719  1.0581 -0.0812
 7626TIP3   OH222841   5.185   5.541   5.155 -0.7056 -0.9712  0.6586
 7626TIP3    H122842   5.156   5.459   5.193  0.9071 -2.2959 -0.8026
 7626TIP3    H222843   5.211   5.519   5.065  0.9077  0.8582  0.5967
 7627TIP3   OH222844   2.630   0.776   4.803  0.3129  0.2178 -0.8180
 7627TIP3    H122845   2.707   0.833   4.803 -0.3662  1.1646 -0.0054
 7627TIP3    H222846   2.666   0.688   4.809  1.3351  0.6958  0.9194
 7628TIP3   OH222847   0.478   4.777   4.432 -0.3424 -0.2217  0.5687
 7628TIP3    H122848   0.492   4.683   4.418  0.4352  0.0305 -0.4576
 7628TIP3    H222849   0.425   4.805   4.357  2.2844  0.7812 -1.0588
 7629TIP3   OH222850   0.177   5.865   5.435  0.4669  0.0377 -0.0493
 7629TIP3    H122851   0.122   5.886   5.510 -0.6111  1.7092 -1.2255
 7629TIP3    H222852   0.228   5.789   5.462 -0.5904  0.0060  1.9994
 7630TIP3   OH222853   6.732   6.075   5.315  0.2561 -0.0360 -0.1841
 7630TIP3    H122854   6.657   6.123   5.280  0.3768  0.6594  0.4677
 7630TIP3    H222855   6.751   6.009   5.249  1.2271  1.9670 -2.0544
 7631TIP3   OH222856   6.894   3.660   3.244  0.0894  0.1982 -0.5342
 7631TIP3    H122857   6.856   3.690   3.161 -0.4423  1.0281 -0.0015
 7631TIP3    H222858   6.825   3.608   3.284 -0.0616  0.7097 -0.1164
 7632TIP3   OH222859   6.736   1.033   2.015 -0.1707 -0.1247 -0.5062
 7632TIP3    H122860   6.717   1.121   1.980 -1.8473  0.1125  0.8886
 7632TIP3    H222861   6.651   0.991   2.023  0.4301 -1.2120  0.5917
 7633TIP3   OH222862   4.960   4.836   4.497 -0.2008  0.1863 -0.7326
 7633TIP3    H122863   4.992   4.894   4.429 -1.0544  1.1822 -0.3062
 7633TIP3    H222864   4.970   4.885   4.578 -0.7790 -0.3208 -0.3411
 7634TIP3   OH222865   0.712   0.108   3.513  0.1221  0.4695 -0.2633
 7634TIP3    H122866   0.642   0.131   3.453 -0.5416  0.3882  0.4689
 7634TIP3    H222867   0.709   0.175   3.581 -0.5105 -0.5954  0.7980
 7635TIP3   OH222868   2.019   3.348   3.068 -0.4420  0.0899 -0.4187
 7635TIP3    H122869   2.046   3.387   2.985 -1.8253  0.3481 -0.7772
 7635TIP3    H222870   2.022   3.253   3.052 -0.9775  0.1444 -0.8712
 7636TIP3   OH222871   1.674   3.585   1.486 -0.0634 -0.0843 -0.0142
 7636TIP3    H122872   1.719   3.662   1.520  0.9506 -0.8116  0.3414
 7636TIP3    H222873   1.721   3.511   1.524 -1.4542 -0.8897  0.2144
 7637TIP3   OH222874   0.580   5.798   3.816  0.1667 -0.0928 -0.1804
 7637TIP3    H122875   0.515   5.737   3.782 -0.6218 -0.3919  1.7255
 7637TIP3    H222876   0.529   5.864   3.863  1.1861  0.0150  0.8221
 7638TIP3   OH222877   3.395   0.584   1.207  0.3552  0.6594  0.1209
 7638TIP3    H122878   3.402   0.631   1.123 -0.2731  0.1022 -0.2549
 7638TIP3    H222879   3.421   0.494   1.186 -3.4028 -0.4911 -0.4222
 7639TIP3   OH222880   5.717   3.323   3.183  0.3886  0.7641  0.7620
 7639TIP3    H122881   5.811   3.332   3.201  0.7787  0.9811 -1.1614
 7639TIP3    H222882   5.703   3.228   3.180  0.9238  0.7076 -0.5802
 7640TIP3   OH222883   4.291   0.213   2.696  0.2877  0.0503 -0.1568
 7640TIP3    H122884   4.211   0.258   2.669  0.0834 -0.4797 -0.4555
 7640TIP3    H222885   4.281   0.124   2.661  0.7842 -0.1602  0.2293
 7641TIP3   OH222886   6.773   6.568   3.911  0.4571 -0.0994 -0.2718
 7641TIP3    H122887   6.687   6.608   3.920  0.5252  0.0148 -0.1139
 7641TIP3    H222888   6.800   6.548   4.001  0.3280 -0.7088 -0.3646
 7642TIP3   OH222889   2.795   3.670   5.793  0.0829  0.5564 -0.3600
 7642TIP3    H122890   2.885   3.636   5.797 -0.1843 -0.9527 -3.7009
 7642TIP3    H222891   2.740   3.591   5.788 -1.2627  1.4614 -0.2838
 7643TIP3   OH222892   6.277   0.622   1.796 -0.3395 -0.0220  0.8286
 7643TIP3    H122893   6.366   0.656   1.797 -0.8580  1.4154  2.8274
 7643TIP3    H222894   6.281   0.539   1.844 -0.1450  0.2030  1.1969
 7644TIP3   OH222895   2.875   6.096   3.463 -0.1536  0.2276 -0.2087
 7644TIP3    H122896   2.851   6.022   3.519 -0.8147  1.8775  1.8069
 7644TIP3    H222897   2.794   6.121   3.419  0.2115 -0.6151 -1.4038
 7645TIP3   OH222898   5.967   4.252   0.940  0.5023  0.1102  0.3313
 7645TIP3    H122899   6.056   4.227   0.963  0.5612 -1.5450 -1.4770
 7645TIP3    H222900   5.913   4.180   0.970 -0.2756  1.0859  1.3778
 7646TIP3   OH222901   4.055   2.431   4.990  0.0619 -0.6936  0.0319
 7646TIP3    H122902   4.020   2.344   5.009 -2.7887  0.6885  1.8784
 7646TIP3    H222903   4.014   2.488   5.055  1.0391  2.1912 -1.6773
 7647TIP3   OH222904   1.260   3.116   2.526 -0.0621 -0.4353  0.2224
 7647TIP3    H122905   1.354   3.097   2.527  0.0986  0.3358  1.0684
 7647TIP3    H222906   1.225   3.068   2.601 -0.1182  0.2905  0.6736
 7648TIP3   OH222907   2.241   0.781   2.984  0.5783 -0.4075 -0.1968
 7648TIP3    H122908   2.206   0.738   2.905 -1.5339 -0.4683  0.7070
 7648TIP3    H222909   2.244   0.711   3.049  1.0342 -0.0647  0.1446
 7649TIP3   OH222910   5.687   1.366   3.263  0.1148  0.4320 -0.8063
 7649TIP3    H122911   5.710   1.391   3.352 -2.5894  0.1371  0.0520
 7649TIP3    H222912   5.733   1.283   3.249  0.3541  0.3419  0.4178
 7650TIP3   OH222913   0.648   1.312   4.522  0.6072 -0.3647 -0.4707
 7650TIP3    H122914   0.640   1.361   4.440  0.9426  0.4984 -0.0044
 7650TIP3    H222915   0.565   1.329   4.568 -0.7108 -2.9642 -1.7126
 7651TIP3   OH222916   7.169   0.835   4.314  0.3625 -0.1178 -0.4526
 7651TIP3    H122917   7.143   0.764   4.373  0.7614  0.1076 -0.0035
 7651TIP3    H222918   7.191   0.908   4.372  0.5818  0.1647 -0.8876
 7652TIP3   OH222919   5.086   5.788   0.711  0.3217  0.0575  0.3586
 7652TIP3    H122920   5.111   5.735   0.635  1.8880 -0.9448  1.5226
 7652TIP3    H222921   5.054   5.726   0.775  0.6620  0.6834  1.1528
 7653TIP3   OH222922   2.941   0.453   2.721  0.2119 -0.4573  0.3781
 7653TIP3    H122923   3.023   0.452   2.671 -0.1607  1.0772 -0.3059
 7653TIP3    H222924   2.920   0.360   2.732  1.3835 -0.8675 -0.5275
 7654TIP3   OH222925   3.944   4.828   2.705  0.3060 -0.8357  0.3654
 7654TIP3    H122926   3.926   4.735   2.721 -1.9101 -0.7796 -1.3007
 7654TIP3    H222927   3.858   4.870   2.711  0.9450  0.7687 -0.9575
 7655TIP3   OH222928   4.371   2.690   0.938  0.2430 -0.3902  0.0030
 7655TIP3    H122929   4.359   2.654   1.026 -1.2804  0.6194  0.2505
 7655TIP3    H222930   4.386   2.784   0.953  0.7321 -0.3356 -0.7927
 7656TIP3   OH222931   3.633   5.318   0.899 -0.0665 -0.1050  0.4033
 7656TIP3    H122932   3.569   5.373   0.945  0.1618 -1.2129  2.1905
 7656TIP3    H222933   3.599   5.229   0.911  0.4270 -0.5025 -0.9714
 7657TIP3   OH222934   4.276   1.133   3.105  0.0558 -0.0549 -0.3078
 7657TIP3    H122935   4.315   1.213   3.071 -0.3730  0.4720  0.4062
 7657TIP3    H222936   4.197   1.120   3.052  0.4730 -0.3872 -0.8657
 7658TIP3   OH222937   4.508   5.538   0.849  0.0547 -0.5230  0.3460
 7658TIP3    H122938   4.464   5.622   0.864  0.2443  0.3583 -3.2026
 7658TIP3    H222939   4.587   5.561   0.801  0.1669 -2.7347 -0.6283
 7659TIP3   OH222940   6.727   5.839   4.315 -0.5309  0.3995  0.0207
 7659TIP3    H122941   6.768   5.925   4.309  0.5317  0.0140  1.4030
 7659TIP3    H222942   6.689   5.836   4.403  1.7988 -1.5124  1.0557
 7660TIP3   OH222943   0.041   2.777   1.193  0.7748  0.1718 -0.8978
 7660TIP3    H122944  -0.026   2.753   1.258  0.6006 -0.8441 -1.4361
 7660TIP3    H222945  -0.004   2.769   1.109 -0.0158  4.6523 -1.1089
 7661TIP3   OH222946   5.302   3.250   2.174 -0.2281 -0.2280  0.2124
 7661TIP3    H122947   5.327   3.290   2.090  3.0742 -0.2762  1.0307
 7661TIP3    H222948   5.268   3.164   2.150  1.1303 -0.4400 -1.1066
 7662TIP3   OH222949   6.041   3.494   1.188 -0.1923  0.3102 -0.0035
 7662TIP3    H122950   6.098   3.428   1.150  0.8411  1.1163  0.1242
 7662TIP3    H222951   6.063   3.575   1.143 -1.9752  0.4569 -0.6984
 7663TIP3   OH222952   1.847   5.707   1.642  0.1747 -0.3908 -0.4255
 7663TIP3    H122953   1.913   5.709   1.711  1.3300  0.7829 -1.5178
 7663TIP3    H222954   1.897   5.703   1.561 -1.1529 -3.0090 -1.2292
 7664TIP3   OH222955   3.326   4.972   1.885  0.1548  0.1224 -0.3282
 7664TIP3    H122956   3.325   4.934   1.973 -1.0160 -1.1215 -0.8334
 7664TIP3    H222957   3.359   5.060   1.897  0.7678 -0.2935  1.2484
 7665TIP3   OH222958   3.935   0.906   3.113 -0.1425  0.1379  0.4204
 7665TIP3    H122959   3.871   0.884   3.045  0.1344 -1.4167  0.6444
 7665TIP3    H222960   3.944   0.826   3.164  1.0814  0.7177  1.1342
 7666TIP3   OH222961   6.419   2.054   4.447  0.6192  0.0342  0.5932
 7666TIP3    H122962   6.484   1.995   4.484  0.8520 -0.9068 -1.2261
 7666TIP3    H222963   6.436   2.054   4.353 -2.3590 -0.7183 -0.0633
 7667TIP3   OH222964   5.709   2.442   3.726 -0.5099 -0.1017 -0.2449
 7667TIP3    H122965   5.705   2.537   3.717  0.2568 -0.1360 -1.1891
 7667TIP3    H222966   5.726   2.410   3.637 -0.9082 -1.1339  0.0267
 7668TIP3   OH222967   7.135   0.823   1.081 -0.0423  0.1601 -0.4256
 7668TIP3    H122968   7.069   0.892   1.084 -0.5390 -0.3557  1.1191
 7668TIP3    H222969   7.090   0.745   1.112  0.4567 -0.9541 -2.3153
 7669TIP3   OH222970   2.770   4.845   2.198  0.0313  0.0218  0.3273
 7669TIP3    H122971   2.687   4.820   2.238 -0.3357 -0.1567 -0.5088
 7669TIP3    H222972   2.759   4.938   2.177 -1.0417 -0.5737 -2.2047
 7670TIP3   OH222973   5.933   6.227   2.213  0.2524  0.6256  0.5623
 7670TIP3    H122974   5.984   6.181   2.280  0.1414  0.4903  0.5547
 7670TIP3    H222975   5.858   6.263   2.261  0.3995  0.8978  0.5896
 7671TIP3   OH222976   2.767   4.256   1.660  0.3137  0.4674 -0.0915
 7671TIP3    H122977   2.833   4.316   1.625  1.3519  0.9990  2.5175
 7671TIP3    H222978   2.758   4.188   1.594  1.8207  1.5700 -1.5079
 7672TIP3   OH222979   0.589   3.092   3.142 -0.2020 -0.6873 -0.4517
 7672TIP3    H122980   0.591   3.156   3.071  1.1028 -1.3638 -1.0641
 7672TIP3    H222981   0.662   3.033   3.123 -1.4177 -2.4255  0.0295
 7673TIP3   OH222982   5.836   6.369   1.058  0.1958  0.0213  0.1990
 7673TIP3    H122983   5.895   6.360   1.133  2.0087 -2.1527 -1.3384
 7673TIP3    H222984   5.874   6.439   1.005  0.2553 -0.0262  0.1789
 7674TIP3   OH222985   1.432   6.200   2.852 -0.2142 -0.0008 -0.2289
 7674TIP3    H122986   1.522   6.182   2.877 -0.7317 -1.4141  0.7217
 7674TIP3    H222987   1.427   6.175   2.759  0.6513  1.2844 -0.6584
 7675TIP3   OH222988   5.003   1.769   1.426  0.5223  0.1359  0.0174
 7675TIP3    H122989   4.931   1.707   1.432  0.9063 -0.5656 -1.9336
 7675TIP3    H222990   5.082   1.715   1.429  0.9180  0.7014  0.1010
 7676TIP3   OH222991   1.020   6.189   4.058  0.6147  0.6383  0.0741
 7676TIP3    H122992   1.075   6.159   4.131  0.2675 -2.7556 -0.8684
 7676TIP3    H222993   0.933   6.155   4.078  0.1839  0.9205 -1.2173
 7677TIP3   OH222994   5.604   5.400   2.881  0.2142  0.4895  0.8185
 7677TIP3    H122995   5.566   5.488   2.890  1.9443  1.5449 -1.3244
 7677TIP3    H222996   5.691   5.415   2.845  1.3884 -2.0349  2.3555
 7678TIP3   OH222997   0.571   0.376   1.776 -0.4897 -0.0641  0.9918
 7678TIP3    H122998   0.656   0.376   1.733 -1.1131 -0.0280 -0.2640
 7678TIP3    H222999   0.553   0.469   1.793 -1.7337  0.2930 -1.7691
 7679TIP3   OH223000   6.195   5.992   3.827  0.3656  0.5686  0.6594
 7679TIP3    H123001   6.142   6.054   3.877  2.4428  2.0952  1.0717
 7679TIP3    H223002   6.191   5.911   3.878 -1.3780  0.6647  0.7524
 7680TIP3   OH223003   0.391   3.451   5.610 -0.4500 -0.7813 -0.4896
 7680TIP3    H123004   0.457   3.452   5.541 -0.7304  0.8219 -0.7835
 7680TIP3    H223005   0.316   3.407   5.570 -0.5581 -0.0047 -1.1720
 7681TIP3   OH223006   4.124   5.359   0.111 -0.1862  0.2061 -0.3243
 7681TIP3    H123007   4.132   5.351   0.206 -3.1801  0.5462  0.0568
 7681TIP3    H223008   4.214   5.366   0.080  0.8455  1.5810  2.6123
 7682TIP3   OH223009   6.631   6.734   1.918  0.2867 -0.1256 -0.2643
 7682TIP3    H123010   6.607   6.800   1.982  2.9690  3.5172 -2.6451
 7682TIP3    H223011   6.674   6.665   1.968  1.8987  2.3436  1.9622
 7683TIP3   OH223012   1.244   1.419   4.136  0.1321 -0.6154  0.4043
 7683TIP3    H123013   1.160   1.383   4.166 -0.6015  0.9410  0.3239
 7683TIP3    H223014   1.219   1.493   4.080  1.5478  0.3641  1.0183
 7684TIP3   OH223015   5.265   0.904   4.093 -0.3595 -0.2065  0.0795
 7684TIP3    H123016   5.173   0.900   4.122 -1.0949 -0.0541 -2.0758
 7684TIP3    H223017   5.311   0.947   4.165 -2.6311  3.0922 -0.2264
 7685TIP3   OH223018   4.556   6.357   1.142  0.1277 -0.3727  0.3668
 7685TIP3    H123019   4.538   6.431   1.201  0.9079  0.8153 -0.8327
 7685TIP3    H223020   4.471   6.334   1.106 -0.0716  0.2372  0.4315
 7686TIP3   OH223021   4.502   6.382   5.798 -0.1267 -0.2204 -0.1029
 7686TIP3    H123022   4.549   6.310   5.840  0.9511  0.3140 -0.3745
 7686TIP3    H223023   4.488   6.446   5.868  0.5792  0.1284 -0.2776
 7687TIP3   OH223024   0.530   5.914   0.784  0.1587  0.1629  0.2974
 7687TIP3    H123025   0.607   5.950   0.740 -0.8544  2.0343 -0.0688
 7687TIP3    H223026   0.548   5.820   0.790  2.2585  0.4702 -0.1515
 7688TIP3   OH223027   5.244   6.522   4.493  0.2239  0.3104 -0.1830
 7688TIP3    H123028   5.327   6.491   4.456  1.3004 -0.7027  2.7518
 7688TIP3    H223029   5.262   6.613   4.517  0.2311  0.3083 -0.1807
 7689TIP3   OH223030   1.314   4.228   5.022  0.5818  0.2965  0.2116
 7689TIP3    H123031   1.409   4.215   5.021  0.6614 -0.2230  3.4202
 7689TIP3    H223032   1.296   4.271   5.106 -2.2364 -1.9212  0.9019
 7690TIP3   OH223033   5.658   2.852   3.366  0.0534  0.1747  0.0880
 7690TIP3    H123034   5.715   2.782   3.337 -0.6037 -0.2676 -0.1677
 7690TIP3    H223035   5.570   2.822   3.344 -0.4207  0.1718  1.7888
 7691TIP3   OH223036   3.627   3.903   1.528  0.0729 -0.1127 -0.1499
 7691TIP3    H123037   3.670   3.871   1.448 -0.4186  1.6274 -1.1804
 7691TIP3    H223038   3.623   3.827   1.585 -0.0176 -1.5745 -1.9824
 7692TIP3   OH223039   5.222   1.393   0.863  0.2152 -0.0976 -0.7339
 7692TIP3    H123040   5.304   1.386   0.815  0.5938  2.0949 -0.5351
 7692TIP3    H223041   5.248   1.389   0.955  0.1524  0.7495 -0.6682
 7693TIP3   OH223042   4.264   1.495   3.700 -0.2824  0.2893  0.1362
 7693TIP3    H123043   4.268   1.553   3.624 -1.4389 -0.7701 -0.7864
 7693TIP3    H223044   4.197   1.430   3.677  1.0677 -1.5103  1.0552
 7694TIP3   OH223045   3.048   3.604   4.390  0.8185 -0.3148  0.5884
 7694TIP3    H123046   3.117   3.538   4.390  1.5280  0.3833 -0.7084
 7694TIP3    H223047   3.036   3.627   4.482 -0.7132 -3.4767  1.3253
 7695TIP3   OH223048   0.360   6.812   3.883  0.3106  0.0207 -0.1818
 7695TIP3    H123049   0.328   6.725   3.860  0.6039  0.1864 -1.2938
 7695TIP3    H223050   0.453   6.799   3.904  0.5212  0.1489 -0.9922
 7696TIP3   OH223051   0.496   2.701   3.355 -0.7040 -0.2622 -0.4579
 7696TIP3    H123052   0.491   2.630   3.418 -0.5986 -0.5393 -0.7597
 7696TIP3    H223053   0.431   2.764   3.385  1.5545  1.1973  1.8564
 7697TIP3   OH223054   3.882   6.370   4.689  0.2358 -0.6011  0.0529
 7697TIP3    H123055   3.794   6.406   4.691  0.5145  0.0815  0.6204
 7697TIP3    H223056   3.869   6.275   4.685 -0.5162 -0.4857 -0.3582
 7698TIP3   OH223057   6.249   5.764   2.833  0.2352 -0.3745  0.5427
 7698TIP3    H123058   6.220   5.713   2.757  0.1890 -1.9559  1.5661
 7698TIP3    H223059   6.293   5.840   2.795 -2.7869  0.7337 -1.0602
 7699TIP3   OH223060   4.842   6.023   0.062  0.2531 -0.0557  0.0387
 7699TIP3    H123061   4.914   6.059   0.010 -0.1112  1.0587  0.2804
 7699TIP3    H223062   4.814   6.096   0.117 -1.3299 -0.3562 -0.3444
 7700TIP3   OH223063   5.123   2.046   0.876  0.1771 -0.0925 -0.2716
 7700TIP3    H123064   5.079   2.110   0.932 -1.0963 -0.3930 -0.8821
 7700TIP3    H223065   5.215   2.070   0.879  0.3926 -0.8556  2.9552
 7701TIP3   OH223066   4.658   5.844   5.625  0.0790 -0.0806  0.8944
 7701TIP3    H123067   4.604   5.912   5.667 -0.4853 -0.6210  1.0695
 7701TIP3    H223068   4.608   5.763   5.639  0.5757 -0.4771  0.3910
 7702TIP3   OH223069   3.912   4.421   3.654  0.1312  0.3942  0.0410
 7702TIP3    H123070   3.875   4.480   3.720 -0.4965  0.6393 -0.5196
 7702TIP3    H223071   4.004   4.448   3.646 -0.1211  1.2179 -0.1246
 7703TIP3   OH223072   1.395   6.692   4.203  0.2883  0.0460 -0.1512
 7703TIP3    H123073   1.326   6.746   4.165 -0.4459 -0.7719 -0.0073
 7703TIP3    H223074   1.387   6.704   4.297 -0.1500 -0.6244 -0.0960
 7704TIP3   OH223075   4.998   4.339   2.538  0.7055 -0.2669  0.0458
 7704TIP3    H123076   4.949   4.268   2.495  0.5907 -0.4166  0.4176
 7704TIP3    H223077   4.967   4.337   2.629 -1.2685  1.9712 -0.4808
 7705TIP3   OH223078   0.530   6.737   0.933 -0.4465  0.8407  0.2480
 7705TIP3    H123079   0.523   6.830   0.956 -0.8174  0.8576  0.0658
 7705TIP3    H223080   0.442   6.702   0.945 -0.2645  0.4677  0.5010
 7706TIP3   OH223081   2.957   2.000   1.354 -0.3255  0.2990 -0.0722
 7706TIP3    H123082   2.989   2.068   1.294  0.0866  1.1806  1.0916
 7706TIP3    H223083   2.876   2.036   1.389  0.0201  0.3103  0.7360
 7707TIP3   OH223084   2.120   6.075   5.104 -0.4661 -0.0507  0.7269
 7707TIP3    H123085   2.139   6.153   5.052  1.1121 -0.3049  0.8568
 7707TIP3    H223086   2.025   6.075   5.116 -0.6390  1.0312 -0.5361
 7708TIP3   OH223087   2.603   0.958   2.211  0.6129 -0.5558  0.4100
 7708TIP3    H123088   2.664   0.936   2.140  1.6121  0.4196  0.9272
 7708TIP3    H223089   2.631   0.903   2.284  1.5799  0.6262  0.9672
 7709TIP3   OH223090   5.095   2.597   5.313 -0.2386  0.3777  0.2925
 7709TIP3    H123091   5.151   2.605   5.236  0.8067 -0.8630  0.8929
 7709TIP3    H223092   5.094   2.504   5.333 -3.6137  0.0986 -0.4395
 7710TIP3   OH223093   4.424   0.074   5.486 -0.0950  0.2788 -0.1437
 7710TIP3    H123094   4.514   0.107   5.480  0.0783 -0.0513  0.5567
 7710TIP3    H223095   4.379   0.139   5.541 -0.0938  0.0638  0.1150
 7711TIP3   OH223096   0.231   6.587   4.086  0.1654  0.3427  0.1197
 7711TIP3    H123097   0.324   6.583   4.108  1.5662 -0.9479 -4.8032
 7711TIP3    H223098   0.202   6.672   4.119  3.8088  1.9231 -0.2897
 7712TIP3   OH223099   5.356   5.152   2.455  0.2328  0.0657 -0.4598
 7712TIP3    H123100   5.445   5.179   2.431  0.6855 -0.7147  0.2755
 7712TIP3    H223101   5.318   5.230   2.497  0.7099  0.2849 -0.4223
 7713TIP3   OH223102   0.850   1.013   1.271 -0.5973 -0.1299 -0.3737
 7713TIP3    H123103   0.865   0.937   1.328 -0.7111 -0.0786 -0.2750
 7713TIP3    H223104   0.907   1.081   1.307 -2.4776  0.6962  1.2251
 7714TIP3   OH223105   0.111   3.583   5.890 -0.0987 -0.3710  0.0878
 7714TIP3    H123106   0.101   3.677   5.902  0.5127 -0.3263  0.2663
 7714TIP3    H223107   0.106   3.571   5.795 -0.2451 -0.1696  0.0685
 7715TIP3   OH223108   5.804   6.229   4.724 -0.4139 -0.1107 -0.0817
 7715TIP3    H123109   5.725   6.276   4.696  0.9101  2.4733  0.2444
 7715TIP3    H223110   5.873   6.261   4.666  1.1595  0.6955  2.1036
 7716TIP3   OH223111   6.851   0.846   3.911 -0.4651  0.0533 -0.5211
 7716TIP3    H123112   6.885   0.914   3.970 -0.2099  0.4198 -1.0845
 7716TIP3    H223113   6.878   0.764   3.951  0.6974  0.3244 -0.7114
 7717TIP3   OH223114   4.209   5.050   0.028  0.1373 -0.0294  0.6549
 7717TIP3    H123115   4.226   4.957   0.011  0.1923  0.2122 -0.7562
 7717TIP3    H223116   4.191   5.054   0.121  3.2103 -1.0028  1.4064
 7718TIP3   OH223117   4.573   4.589   4.775 -0.3927 -0.4491 -0.0187
 7718TIP3    H123118   4.553   4.496   4.766  0.1425 -0.5347 -0.3412
 7718TIP3    H223119   4.496   4.634   4.742 -0.6909 -0.7782  0.2245
 7719TIP3   OH223120   2.702   0.474   0.664  0.4874 -0.2422 -0.4667
 7719TIP3    H123121   2.676   0.413   0.596 -0.7199  1.0001 -1.1593
 7719TIP3    H223122   2.703   0.560   0.621 -1.6604  0.7926  1.3389
 7720TIP3   OH223123   1.882   5.444   4.907  0.2175  0.5295  0.1441
 7720TIP3    H123124   1.929   5.373   4.952 -1.6563 -0.6073  0.4190
 7720TIP3    H223125   1.842   5.402   4.831 -1.7362  1.0216  0.8359
 7721TIP3   OH223126   4.463   2.917   2.912  0.1911 -0.0383  0.1346
 7721TIP3    H123127   4.413   2.969   2.849 -0.6090 -1.3399 -0.3413
 7721TIP3    H223128   4.492   2.841   2.862  1.3711 -0.0497  0.8025
 7722TIP3   OH223129   5.736   5.674   2.673 -0.3810  0.3062  0.0948
 7722TIP3    H123130   5.757   5.663   2.580 -2.5072 -3.5559 -0.1684
 7722TIP3    H223131   5.798   5.618   2.719 -1.3848 -0.4184  0.6166
 7723TIP3   OH223132   6.443   0.886   0.320 -0.0247 -0.3923  0.1725
 7723TIP3    H123133   6.396   0.951   0.373 -1.3698 -0.1393 -1.2756
 7723TIP3    H223134   6.523   0.869   0.370 -1.6259 -0.8842  2.7545
 7724TIP3   OH223135   4.125   1.367   5.150 -0.1883  0.2919  0.0184
 7724TIP3    H123136   4.205   1.348   5.198 -0.2337  1.3113  0.5327
 7724TIP3    H223137   4.099   1.454   5.180  0.1231  1.2584 -2.3380
 7725TIP3   OH223138   2.463   4.857   1.512 -0.1074 -0.2751 -0.7045
 7725TIP3    H123139   2.532   4.918   1.484  1.2617 -0.9210  1.0439
 7725TIP3    H223140   2.401   4.912   1.561  0.4830 -0.0598 -0.1755
 7726TIP3   OH223141   1.722   4.038   4.617  0.5584  0.1384 -0.2758
 7726TIP3    H123142   1.627   4.044   4.612  0.5138  0.9111  0.9371
 7726TIP3    H223143   1.752   4.128   4.600  0.9403  0.3148  1.1742
 7727TIP3   OH223144   3.095   1.473   3.307  0.0619  0.4337  0.0812
 7727TIP3    H123145   3.161   1.449   3.242  0.4023  0.3777  0.4482
 7727TIP3    H223146   3.061   1.390   3.339 -0.5139  0.4603 -0.4287
 7728TIP3   OH223147   5.339   4.292   5.317  0.2406 -0.6423 -0.7083
 7728TIP3    H123148   5.256   4.324   5.281 -0.3193 -0.5876  0.5544
 7728TIP3    H223149   5.404   4.312   5.250 -0.2563  2.0743 -0.4885
 7729TIP3   OH223150   6.568   1.825   4.556  0.6150  0.4326 -0.5012
 7729TIP3    H123151   6.589   1.831   4.649  0.6646 -0.4273 -0.4527
 7729TIP3    H223152   6.514   1.747   4.548  0.2622  0.7372 -1.1354
 7730TIP3   OH223153   1.786   1.756   5.110 -0.1048 -0.0819  0.2727
 7730TIP3    H123154   1.865   1.737   5.059 -0.5117 -0.2852 -0.2795
 7730TIP3    H223155   1.818   1.811   5.182  0.3955  0.6084 -0.4535
 7731TIP3   OH223156   3.614   5.999   0.702 -0.2970  0.7560 -0.3021
 7731TIP3    H123157   3.575   5.961   0.781  1.4450 -0.9826 -0.2113
 7731TIP3    H223158   3.630   6.091   0.726  1.7809 -0.1240  2.0652
 7732TIP3   OH223159   4.280   4.305   4.144  0.3246 -0.4547 -0.2147
 7732TIP3    H123160   4.298   4.364   4.217 -0.1946  1.1012 -1.2834
 7732TIP3    H223161   4.188   4.319   4.123  0.9869  0.9825 -2.6433
 7733TIP3   OH223162   7.228   6.794   4.686 -0.0097 -0.0091  0.2803
 7733TIP3    H123163   7.172   6.815   4.612  1.1399 -0.2840 -0.7160
 7733TIP3    H223164   7.169   6.764   4.755 -1.2925  2.2705  0.2291
 7734TIP3   OH223165   6.377   2.212   2.914  0.2670 -0.1566 -0.0158
 7734TIP3    H123166   6.403   2.296   2.875  0.4011 -0.3073 -0.2563
 7734TIP3    H223167   6.311   2.235   2.979  0.7494  0.1994  0.3566
 7735TIP3   OH223168   1.941   5.143   5.536  0.6262  0.0711  0.5475
 7735TIP3    H123169   1.864   5.090   5.519 -0.2896  0.4629  3.0836
 7735TIP3    H223170   2.014   5.091   5.503 -0.4907 -1.5407  0.5282
 7736TIP3   OH223171   5.855   6.391   4.432 -0.0886 -0.1060  0.2818
 7736TIP3    H123172   5.926   6.334   4.461  0.8027  1.3595  1.1010
 7736TIP3    H223173   5.853   6.461   4.497 -1.3733  0.6213 -0.5069
 7737TIP3   OH223174   1.216   5.625   1.902 -0.3959  0.2195 -0.4796
 7737TIP3    H123175   1.163   5.679   1.960  0.4771  0.5841 -0.0024
 7737TIP3    H223176   1.161   5.549   1.882 -0.3897 -0.3682  1.5608
 7738TIP3   OH223177   3.631   5.938   3.403 -0.5080 -0.1801 -0.1878
 7738TIP3    H123178   3.634   6.014   3.460  0.2903  0.0337 -0.5144
 7738TIP3    H223179   3.721   5.907   3.397 -0.9523 -1.8118  0.8214
 7739TIP3   OH223180   3.220   3.589   3.098  0.0231  0.0778  0.1235
 7739TIP3    H123181   3.193   3.648   3.028  3.6295  1.5202 -0.2741
 7739TIP3    H223182   3.184   3.628   3.177 -0.5822  0.8213 -0.4982
 7740TIP3   OH223183   0.153   5.090   3.537 -0.1170  0.4737  0.1915
 7740TIP3    H123184   0.182   5.056   3.452 -1.3037  2.6659 -1.2132
 7740TIP3    H223185   0.214   5.053   3.600  1.5015 -0.4014 -1.7706
 7741TIP3   OH223186   3.413   3.351   4.862 -0.2627  0.4140  0.1519
 7741TIP3    H123187   3.455   3.366   4.947 -0.3261 -0.8277  0.4220
 7741TIP3    H223188   3.338   3.295   4.882  1.9084 -3.2940 -1.0965
 7742TIP3   OH223189   2.410   3.498   3.083 -0.6236  0.3315 -0.5238
 7742TIP3    H123190   2.354   3.422   3.102  0.3457 -0.7529 -1.8187
 7742TIP3    H223191   2.461   3.471   3.007  0.9544  1.6705  0.0154
 7743TIP3   OH223192   2.220   4.315   3.732 -0.4441  0.2802  0.0110
 7743TIP3    H123193   2.140   4.264   3.732  0.5239 -1.3157  0.9279
 7743TIP3    H223194   2.255   4.305   3.821  0.7954  0.8832 -0.3832
 7744TIP3   OH223195   3.701   3.495   5.398 -0.4061  0.0435  0.5250
 7744TIP3    H123196   3.775   3.460   5.349 -0.4459  0.0827  0.4375
 7744TIP3    H223197   3.654   3.418   5.429 -1.3334 -0.0053 -0.9101
 7745TIP3   OH223198   2.516   3.878   0.046  0.0774 -0.2512 -0.1354
 7745TIP3    H123199   2.596   3.924   0.075  0.8534 -1.4280 -0.3538
 7745TIP3    H223200   2.508   3.901  -0.047  0.9427 -1.1893 -0.4639
 7746TIP3   OH223201   6.333   1.956   3.485 -0.0833 -0.2977  0.3176
 7746TIP3    H123202   6.239   1.977   3.482 -0.5402 -1.2021  3.6347
 7746TIP3    H223203   6.336   1.861   3.474  0.3221 -0.3787  1.0509
 7747TIP3   OH223204   3.974   3.907   5.634  0.0751 -0.0371  0.0153
 7747TIP3    H123205   3.878   3.915   5.628  0.0354 -0.6007 -0.1628
 7747TIP3    H223206   3.989   3.821   5.674  0.5021  0.3147  0.6222
 7748TIP3   OH223207   0.646   3.579   0.236 -0.0073 -0.0391  0.2928
 7748TIP3    H123208   0.613   3.498   0.197 -1.6608  0.7184  0.0434
 7748TIP3    H223209   0.741   3.571   0.230 -0.1545 -1.5519 -0.5614
 7749TIP3   OH223210   0.963   0.813   1.434 -0.1320  0.3828  0.6195
 7749TIP3    H123211   0.985   0.723   1.459  1.0833  0.4107 -0.2663
 7749TIP3    H223212   1.041   0.864   1.457  0.1309  0.7869 -1.0581
 7750TIP3   OH223213   6.113   6.746   4.883 -0.2302 -0.2797  0.6525
 7750TIP3    H123214   6.187   6.744   4.944  0.7213  1.5020 -0.3481
 7750TIP3    H223215   6.144   6.699   4.806 -0.7193 -0.8285  0.7788
 7751TIP3   OH223216   5.640   3.647   4.817  0.1054  0.2182 -0.3991
 7751TIP3    H123217   5.568   3.608   4.768 -0.4116  1.1491 -0.4056
 7751TIP3    H223218   5.618   3.631   4.909 -0.0976  0.4657 -0.4027
 7752TIP3   OH223219   1.121   6.494   3.057  0.0884  0.2015 -0.1215
 7752TIP3    H123220   1.182   6.556   3.017 -0.6706  1.1673  0.1816
 7752TIP3    H223221   1.134   6.413   3.008  0.4455  0.8624 -1.1511
 7753TIP3   OH223222   0.379   5.025   0.971 -0.0735  0.4772  0.1349
 7753TIP3    H123223   0.441   5.051   0.902 -0.1735 -0.1801 -0.2110
 7753TIP3    H223224   0.343   5.108   1.002 -0.4515  0.7656 -1.0001
 7754TIP3   OH223225   1.962   1.241   3.826  0.4297 -0.5327  0.1379
 7754TIP3    H123226   2.053   1.269   3.830  0.5047 -0.8771  1.1660
 7754TIP3    H223227   1.920   1.285   3.900 -0.2140 -0.4583 -0.2637
 7755TIP3   OH223228   4.088   1.923   3.886  0.1633 -0.6272 -0.0802
 7755TIP3    H123229   4.039   1.878   3.955 -0.3060 -1.6993 -1.0707
 7755TIP3    H223230   4.125   2.000   3.928 -1.0468 -0.6611  1.0835
 7756TIP3   OH223231   3.601   4.022   4.330 -0.1725  0.0808  0.1995
 7756TIP3    H123232   3.587   4.050   4.421 -1.7137  1.3829 -0.3830
 7756TIP3    H223233   3.651   4.094   4.290 -0.1313 -0.1455 -0.1617
 7757TIP3   OH223234   3.792   2.031   3.459 -0.1077  0.5447 -0.1323
 7757TIP3    H123235   3.773   1.999   3.547 -0.6905 -1.3071 -0.8709
 7757TIP3    H223236   3.731   1.983   3.403  0.3974  1.5236 -1.5662
 7758TIP3   OH223237   6.629   0.518   2.289  0.0899 -0.0269  0.4681
 7758TIP3    H123238   6.720   0.521   2.259 -0.1156 -2.3192 -0.5715
 7758TIP3    H223239   6.636   0.497   2.382  0.6289 -1.3248  0.1523
 7759TIP3   OH223240   2.007   3.424   4.097 -0.1126  0.3327 -0.1067
 7759TIP3    H123241   1.997   3.518   4.087 -1.7233  0.2857  0.6747
 7759TIP3    H223242   1.923   3.395   4.134  0.6856 -1.2731  0.5435
 7760TIP3   OH223243   4.613   2.212   3.363  0.1468 -0.2248  0.4160
 7760TIP3    H123244   4.538   2.155   3.344  0.7709 -1.3232  1.1438
 7760TIP3    H223245   4.577   2.281   3.419 -0.5854  0.0226 -0.3292
 7761TIP3   OH223246   5.152   5.276   5.145 -0.1809 -0.3239 -0.0039
 7761TIP3    H123247   5.126   5.187   5.123 -0.3863 -0.1726 -0.3836
 7761TIP3    H223248   5.226   5.294   5.088 -0.8580  0.1511 -0.7567
 7762TIP3   OH223249   3.048   6.000   5.121  0.3395  0.5025 -0.6609
 7762TIP3    H123250   3.130   5.978   5.076  0.8848 -0.1277  0.5900
 7762TIP3    H223251   3.074   6.063   5.188 -0.1945  0.2900 -0.2448
 7763TIP3   OH223252   5.694   3.158   2.817  0.1445 -0.0684 -0.3047
 7763TIP3    H123253   5.689   3.241   2.865  2.6539  0.1695 -0.3234
 7763TIP3    H223254   5.779   3.121   2.842 -1.0475 -2.8409 -0.0387
 7764TIP3   OH223255   6.950   1.332   5.084  0.0771  0.3108  0.4770
 7764TIP3    H123256   6.892   1.331   5.161  1.8319 -0.4505  1.8411
 7764TIP3    H223257   6.951   1.424   5.057 -0.9552  0.5079  1.0244
 7765TIP3   OH223258   1.720   4.968   5.476  0.2136  0.0724 -0.2861
 7765TIP3    H123259   1.704   4.997   5.386 -1.5658 -0.0822 -0.0659
 7765TIP3    H223260   1.634   4.937   5.506  1.1999 -1.7058  0.8206
 7766TIP3   OH223261   4.265   4.787   5.399  0.1873  0.1263 -0.2084
 7766TIP3    H123262   4.206   4.715   5.422  0.3744  0.2986  0.8575
 7766TIP3    H223263   4.341   4.775   5.456  0.5110  0.7839 -0.4914
 7767TIP3   OH223264   5.274   5.387   4.934  0.0931  0.3024 -0.8620
 7767TIP3    H123265   5.356   5.434   4.919  0.8658 -0.7487 -0.0517
 7767TIP3    H223266   5.238   5.374   4.846  0.3010  1.5913 -1.1629
 7768TIP3   OH223267   1.180   6.104   0.533  0.7073  0.3998 -0.1279
 7768TIP3    H123268   1.121   6.063   0.596 -2.4455  0.5355 -2.7340
 7768TIP3    H223269   1.210   6.032   0.478  1.9691  0.5367  0.3423
 7769TIP3   OH223270   6.087   2.135   4.227 -0.1026 -0.0643  0.3686
 7769TIP3    H123271   6.011   2.102   4.177  0.0446 -1.2397  0.8775
 7769TIP3    H223272   6.082   2.230   4.218 -0.6742 -0.2003 -1.0114
 7770TIP3   OH223273   5.682   1.393   4.129 -0.3901 -0.2118  0.1606
 7770TIP3    H123274   5.663   1.454   4.057 -2.1595 -0.8867  0.0244
 7770TIP3    H223275   5.745   1.441   4.183 -0.1302  0.8990 -1.0442
 7771TIP3   OH223276   0.083   3.177   4.301  0.0203  0.2182 -0.0113
 7771TIP3    H123277   0.035   3.109   4.348 -0.1115 -1.6709 -2.6676
 7771TIP3    H223278   0.015   3.239   4.273 -0.3821 -0.4895 -0.6271
 7772TIP3   OH223279   2.747   3.308   2.471 -0.2213  0.2293 -0.7307
 7772TIP3    H123280   2.754   3.288   2.378 -1.2213 -0.0233 -0.7613
 7772TIP3    H223281   2.827   3.273   2.509 -0.7956 -1.6756 -1.1676
 7773TIP3   OH223282   1.346   1.219   3.390  0.0044  0.2467  0.5559
 7773TIP3    H123283   1.308   1.136   3.417  0.0139 -0.6808 -2.0454
 7773TIP3    H223284   1.276   1.283   3.404 -0.4570 -0.4046  1.3277
 7774TIP3   OH223285   1.325   0.140   2.288  0.4065  0.3166 -0.4718
 7774TIP3    H123286   1.380   0.105   2.358  0.3061  2.2557  0.6632
 7774TIP3    H223287   1.280   0.214   2.328 -0.1587  1.1031 -2.4319
 7775TIP3   OH223288   7.010   3.087   1.312  0.0710  0.5286  0.4190
 7775TIP3    H123289   6.915   3.080   1.306  0.2427 -1.2693 -1.3065
 7775TIP3    H223290   7.040   3.088   1.221  1.5870  4.8077  0.7534
 7776TIP3   OH223291   3.667   4.677   5.591 -0.0678  0.1582  0.0351
 7776TIP3    H123292   3.687   4.742   5.524  0.7400 -0.5850 -0.4680
 7776TIP3    H223293   3.735   4.687   5.657  0.6779 -0.8438 -0.5531
 7777TIP3   OH223294   2.171   5.806   5.099  0.3548  0.1746  0.3320
 7777TIP3    H123295   2.114   5.793   5.175 -1.0512 -0.1563 -0.7269
 7777TIP3    H223296   2.187   5.900   5.096  2.5119 -0.0365  2.4360
 7778TIP3   OH223297   2.397   2.548   5.222  0.0650 -0.1209  0.1100
 7778TIP3    H123298   2.350   2.628   5.200 -0.3078 -0.1123  0.8862
 7778TIP3    H223299   2.397   2.497   5.142  0.2885  0.6465 -0.3873
 7779TIP3   OH223300   3.726   4.439   0.774 -0.0984 -0.4245 -0.2269
 7779TIP3    H123301   3.763   4.521   0.807 -1.9576  0.7553 -0.9024
 7779TIP3    H223302   3.790   4.408   0.709  0.8958  0.1615  0.4376
 7780TIP3   OH223303   2.843   2.683   2.306 -0.4051  0.1369 -0.4313
 7780TIP3    H123304   2.774   2.622   2.331 -1.1403  0.9006 -0.5867
 7780TIP3    H223305   2.829   2.760   2.360  0.4158  0.2541 -0.3615
 7781TIP3   OH223306   0.092   5.222   2.859 -0.6361  0.2485 -0.2147
 7781TIP3    H123307   0.129   5.293   2.807  0.4397 -0.1755 -0.0615
 7781TIP3    H223308   0.020   5.263   2.908  0.8358  1.5983  0.9305
 7782TIP3   OH223309   0.617   1.915   0.244  0.4793  0.3629 -0.5475
 7782TIP3    H123310   0.690   1.872   0.199  0.3242 -0.1807 -0.2916
 7782TIP3    H223311   0.656   1.956   0.320  0.3764 -0.8161  0.1697
 7783TIP3   OH223312   4.910   0.503   5.306 -0.1943  0.4721 -0.5194
 7783TIP3    H123313   4.899   0.410   5.324 -0.7592  0.7477  0.6653
 7783TIP3    H223314   4.925   0.543   5.391  1.3548  1.3151 -1.1506
 7784TIP3   OH223315   6.216   0.898   2.822 -0.0583  0.2928 -0.3533
 7784TIP3    H123316   6.280   0.826   2.818 -0.4734 -0.8092  4.8745
 7784TIP3    H223317   6.132   0.854   2.829 -0.6152  1.4147  0.1460
 7785TIP3   OH223318   4.843   5.715   1.899  0.2798 -0.1986 -0.0415
 7785TIP3    H123319   4.922   5.700   1.847  0.8224  3.8985 -0.7426
 7785TIP3    H223320   4.868   5.692   1.988  1.6215 -0.8411 -0.5516
 7786TIP3   OH223321   1.937   6.290   2.975 -0.3498  0.6167  0.0017
 7786TIP3    H123322   1.986   6.292   3.058 -1.8879 -0.6909  1.0036
 7786TIP3    H223323   2.004   6.280   2.908  1.1091  3.3596  0.8698
 7787TIP3   OH223324   3.606   6.296   1.709 -0.0214  0.2132  0.3625
 7787TIP3    H123325   3.682   6.286   1.651 -0.0877 -0.3042  0.3553
 7787TIP3    H223326   3.537   6.246   1.666 -0.5350  1.1406  0.0862
 7788TIP3   OH223327   0.202   3.679   0.158  0.4383  0.0517  0.0886
 7788TIP3    H123328   0.110   3.683   0.184  1.0435  2.0236  2.2093
 7788TIP3    H223329   0.247   3.638   0.232  1.4692  0.4328 -0.3017
 7789TIP3   OH223330   4.300   2.569   5.475  0.1303 -0.1626 -0.4183
 7789TIP3    H123331   4.323   2.562   5.382  0.7495 -0.5998 -0.2417
 7789TIP3    H223332   4.215   2.527   5.483 -0.6890  1.3111 -1.0608
 7790TIP3   OH223333   7.109   0.399   1.121 -0.5369  0.0285  0.0772
 7790TIP3    H123334   7.033   0.343   1.132 -0.4581  0.0872  1.0595
 7790TIP3    H223335   7.109   0.424   1.029 -0.8616 -1.1651 -0.2503
 7791TIP3   OH223336   0.978   6.228   2.144  0.0575  0.2896 -0.7154
 7791TIP3    H123337   0.925   6.166   2.094  1.2708 -1.5152  0.1306
 7791TIP3    H223338   1.045   6.258   2.082 -0.3254  0.4853 -1.0358
 7792TIP3   OH223339   2.933   6.042   0.708  0.2770  0.2752  0.1779
 7792TIP3    H123340   2.858   5.987   0.684 -1.4934  2.2665  0.8584
 7792TIP3    H223341   2.919   6.063   0.800  2.7160 -0.7700  0.8708
 7793TIP3   OH223342   0.448   4.866   1.173 -0.2339 -0.0540 -0.1570
 7793TIP3    H123343   0.437   4.907   1.259  1.3996  1.4591 -0.6184
 7793TIP3    H223344   0.424   4.934   1.110 -0.1582 -0.7152 -0.9204
 7794TIP3   OH223345   1.697   0.010   4.260  0.0858  0.3360 -0.2665
 7794TIP3    H123346   1.766  -0.056   4.272 -0.4538 -0.1909  0.0341
 7794TIP3    H223347   1.713   0.074   4.329 -0.2896 -0.2975  0.4335
 7795TIP3   OH223348   5.592   5.234   1.719 -0.2786 -0.3657  0.5704
 7795TIP3    H123349   5.677   5.215   1.757 -0.0444 -2.0466 -0.7042
 7795TIP3    H223350   5.587   5.180   1.640 -1.1550  2.2149 -1.2748
 7796TIP3   OH223351   3.716   4.828   5.377 -0.2041  1.0260 -0.0883
 7796TIP3    H123352   3.793   4.833   5.321 -0.2339  2.2285 -0.0314
 7796TIP3    H223353   3.644   4.809   5.317  0.4066 -2.8114  0.1060
 7797TIP3   OH223354   5.222   4.995   3.003  0.3437 -0.0320 -0.4080
 7797TIP3    H123355   5.204   4.931   2.934  0.9849 -0.9595  0.2613
 7797TIP3    H223356   5.174   5.073   2.976 -1.8481 -1.2969 -0.4013
 7798TIP3   OH223357   6.784   1.880   0.740  0.0477  0.0404  0.4420
 7798TIP3    H123358   6.762   1.972   0.758  1.2310  0.6974 -1.2529
 7798TIP3    H223359   6.879   1.877   0.740  0.0945 -0.6391 -1.8507
 7799TIP3   OH223360   3.701   1.495   3.735 -0.1114  0.3296 -0.0366
 7799TIP3    H123361   3.673   1.466   3.648  0.1331  0.1297 -0.0500
 7799TIP3    H223362   3.769   1.433   3.761  0.1542  0.6695  0.0959
 7800TIP3   OH223363   3.768   5.344   4.109  0.6966 -0.3220  0.3520
 7800TIP3    H123364   3.726   5.296   4.037  1.1349 -1.3137  0.7428
 7800TIP3    H223365   3.786   5.431   4.073 -0.6871 -0.2297 -0.1705
 7801TIP3   OH223366   4.783   1.579   1.522  1.3774  0.6204  0.2490
 7801TIP3    H123367   4.785   1.559   1.616 -0.1449  0.2618  0.2378
 7801TIP3    H223368   4.774   1.494   1.479  0.1499  0.8938 -0.0913
 7802TIP3   OH223369   0.639   1.863   1.242  0.1877 -0.4655 -0.9296
 7802TIP3    H123370   0.728   1.849   1.211  0.2843 -0.2106 -0.7716
 7802TIP3    H223371   0.639   1.953   1.274  0.1746 -0.8035  0.0692
 7803TIP3   OH223372   7.047   0.477   2.089  0.1670  0.1814 -0.1704
 7803TIP3    H123373   6.976   0.432   2.135  0.4177 -1.1008 -0.9827
 7803TIP3    H223374   7.025   0.469   1.996  0.9240  0.5418 -0.3935
 7804TIP3   OH223375   0.975   4.075   4.356 -0.5247 -0.8939  0.3788
 7804TIP3    H123376   0.885   4.075   4.391  0.3121  0.5909  2.7456
 7804TIP3    H223377   1.008   3.988   4.376 -0.9474 -0.9357  0.9295
 7805TIP3   OH223378   0.930   2.221   2.908 -0.6142 -0.4063 -0.6212
 7805TIP3    H123379   0.982   2.273   2.970 -1.2503  0.0640 -0.4729
 7805TIP3    H223380   0.911   2.140   2.955 -2.2834  0.5036  0.3650
 7806TIP3   OH223381   5.618   3.726   1.752  0.3414 -0.5027  0.0796
 7806TIP3    H123382   5.537   3.763   1.788  0.3976  0.4006 -0.6854
 7806TIP3    H223383   5.647   3.790   1.687  0.8484 -1.5402 -0.7561
 7807TIP3   OH223384   1.541   4.036   2.689 -0.0147 -0.3700 -0.3686
 7807TIP3    H123385   1.585   4.077   2.615  0.3413  2.0063  1.0549
 7807TIP3    H223386   1.497   4.109   2.735  1.1608 -1.4067  2.6809
 7808TIP3   OH223387   5.570   3.810   4.309 -0.3356  0.0922  0.1883
 7808TIP3    H123388   5.482   3.826   4.273  0.1676  2.1953 -0.1774
 7808TIP3    H223389   5.621   3.781   4.234 -0.8803 -2.0662  0.5733
 7809TIP3   OH223390   3.153   2.330   1.885 -0.4919  0.2422  0.5491
 7809TIP3    H123391   3.220   2.318   1.818 -1.2032 -0.7148 -0.0263
 7809TIP3    H223392   3.183   2.404   1.937  1.2880 -0.5366  0.6741
 7810TIP3   OH223393   2.532   5.436   0.626  0.3979  0.0237 -0.3090
 7810TIP3    H123394   2.594   5.366   0.605 -0.6291 -1.3498  1.0250
 7810TIP3    H223395   2.486   5.453   0.544  0.3293 -1.2363 -0.5484
 7811TIP3   OH223396   2.257   5.662   1.993 -0.1476 -0.1263  0.1385
 7811TIP3    H123397   2.347   5.631   1.985 -0.2570 -0.4221  0.0522
 7811TIP3    H223398   2.220   5.650   1.906  0.2062  1.5078 -0.2800
 7812TIP3   OH223399   4.661   1.830   1.575  0.4917 -0.5274  0.3531
 7812TIP3    H123400   4.683   1.739   1.556 -0.6755 -1.1734  1.8292
 7812TIP3    H223401   4.571   1.839   1.543  0.9211  0.4127 -0.6421
 7813TIP3   OH223402   1.563   0.138   0.208  0.0184 -0.1793  0.3244
 7813TIP3    H123403   1.620   0.074   0.251  0.3567  0.5447  0.9800
 7813TIP3    H223404   1.549   0.103   0.120  1.6811 -0.2743  0.0608
 7814TIP3   OH223405   4.932   0.485   3.120  0.0901  0.2917 -0.1637
 7814TIP3    H123406   4.943   0.417   3.187 -0.0330  2.6596  2.4664
 7814TIP3    H223407   4.898   0.438   3.044  2.6492 -2.9905  0.4860
 7815TIP3   OH223408   3.452   5.961   4.886  0.2579 -0.3159  0.4284
 7815TIP3    H123409   3.496   6.038   4.851 -0.9021  0.2538  0.1782
 7815TIP3    H223410   3.495   5.887   4.844 -0.4017  0.3033 -1.4264
 7816TIP3   OH223411   0.268   6.309   2.130 -0.4256  0.2362  0.0051
 7816TIP3    H123412   0.329   6.383   2.119 -1.1032  0.9694  0.9930
 7816TIP3    H223413   0.195   6.329   2.071 -0.1959 -0.1129 -0.4018
 7817TIP3   OH223414   2.160   4.186   0.085  0.3510 -0.1752  0.7591
 7817TIP3    H123415   2.210   4.265   0.105  2.2044 -1.4810  1.6261
 7817TIP3    H223416   2.083   4.217   0.038  2.0926  1.9615 -0.8912
 7818TIP3   OH223417   3.228   1.742   2.363 -0.0729  0.3712  0.0973
 7818TIP3    H123418   3.166   1.671   2.382 -0.8741  0.9356 -0.3532
 7818TIP3    H223419   3.199   1.815   2.418 -0.6419  1.0713 -1.1022
 7819TIP3   OH223420   5.756   4.148   5.617  0.1389  0.3172  0.0393
 7819TIP3    H123421   5.692   4.212   5.647  0.5985  1.4216 -1.1974
 7819TIP3    H223422   5.705   4.071   5.594 -0.8952  1.4697 -1.7375
 7820TIP3   OH223423   0.283   0.234   4.011  0.6852  0.3176  0.1354
 7820TIP3    H123424   0.299   0.328   4.023 -0.2723  0.3484  1.2890
 7820TIP3    H223425   0.267   0.225   3.917  0.7185  1.3124  0.0236
 7821TIP3   OH223426   2.480   0.406   0.840  0.4079  0.7097 -0.3305
 7821TIP3    H123427   2.538   0.440   0.772  1.8076  1.4509  1.1578
 7821TIP3    H223428   2.536   0.347   0.891 -1.2418 -1.7510 -1.1923
 7822TIP3   OH223429   4.640   1.098   5.440  0.5244  0.2353 -0.5953
 7822TIP3    H123430   4.558   1.086   5.488  1.2129  0.3133  0.6701
 7822TIP3    H223431   4.668   1.010   5.418  1.4568 -0.0340  1.4289
 7823TIP3   OH223432   1.931   6.590   5.184  0.0782 -0.1653  0.2561
 7823TIP3    H123433   1.979   6.612   5.263  0.4914 -2.1297  0.5870
 7823TIP3    H223434   1.849   6.639   5.192  1.0476  1.4765  0.7380
 7824TIP3   OH223435   7.188   1.749   4.345 -0.0062  0.2825 -0.5448
 7824TIP3    H123436   7.097   1.725   4.362  0.5538 -0.2249  2.2237
 7824TIP3    H223437   7.234   1.666   4.334  0.6922  0.3089  1.7400
 7825TIP3   OH223438   6.104   3.380   0.669  0.8209  0.2656  0.2904
 7825TIP3    H123439   6.159   3.386   0.591  0.5400  0.2881  0.0920
 7825TIP3    H223440   6.025   3.431   0.647  0.3497 -0.4665  0.2503
 7826TIP3   OH223441   5.982   3.743   1.740 -0.0069  0.4618 -0.0188
 7826TIP3    H123442   6.013   3.683   1.808  1.2459  2.8690  1.7120
 7826TIP3    H223443   6.029   3.718   1.661  2.4900  0.7304  1.2996
 7827TIP3   OH223444   1.390   3.791   2.564 -0.3845 -0.5972  0.2722
 7827TIP3    H123445   1.362   3.870   2.610 -1.8791 -1.4163  0.8726
 7827TIP3    H223446   1.393   3.724   2.632  0.3079 -1.1810 -0.3206
 7828TIP3   OH223447   5.257   0.462   0.196  0.4797 -0.3508  0.1459
 7828TIP3    H123448   5.181   0.520   0.195  1.8664  1.5323 -0.8149
 7828TIP3    H223449   5.226   0.382   0.154 -1.0013  0.3523 -0.1677
 7829TIP3   OH223450   5.902   1.063   4.998  0.7254 -0.3456  0.0319
 7829TIP3    H123451   5.974   1.093   5.053  0.6545 -2.1290  1.1952
 7829TIP3    H223452   5.931   0.978   4.965  0.0166 -0.1114 -1.2572
 7830TIP3   OH223453   0.332   3.810   0.926 -0.3792 -0.9387  0.1905
 7830TIP3    H123454   0.238   3.796   0.936 -0.5512 -0.3442 -0.5466
 7830TIP3    H223455   0.347   3.898   0.959 -0.0432 -1.1029  0.4855
 7831TIP3   OH223456   3.048   6.476   1.953 -0.2773 -0.2811 -0.3166
 7831TIP3    H123457   3.105   6.439   2.021 -0.4140 -0.9417 -0.5506
 7831TIP3    H223458   3.070   6.569   1.951  0.7054 -0.5012 -0.3176
 7832TIP3   OH223459   2.731   2.110   3.060  0.1172 -0.3480  0.1220
 7832TIP3    H123460   2.708   2.176   3.126 -0.5751 -0.6081  0.1460
 7832TIP3    H223461   2.819   2.135   3.031 -0.6213  1.3577 -0.7978
 7833TIP3   OH223462   1.900   6.460   3.292  0.0006 -0.0913  0.2757
 7833TIP3    H123463   1.844   6.471   3.215  0.6029  0.8843 -0.0487
 7833TIP3    H223464   1.967   6.528   3.282  1.5718 -1.5561  0.3589
 7834TIP3   OH223465   3.077   1.346   2.241  0.1932 -0.5293 -0.0078
 7834TIP3    H123466   3.171   1.346   2.257 -0.0005 -1.2668  1.2935
 7834TIP3    H223467   3.068   1.352   2.146  1.5203  0.9182 -0.0794
 7835TIP3   OH223468   3.945   6.097   5.859 -0.1372  0.0982 -0.0903
 7835TIP3    H123469   3.951   6.038   5.934 -1.9606 -0.3691 -0.2547
 7835TIP3    H223470   3.864   6.071   5.815  0.1390  1.3227 -1.3912
 7836TIP3   OH223471   4.033   6.567   5.329  0.1571  0.0319  0.1178
 7836TIP3    H123472   4.127   6.557   5.317  0.0622 -1.3057  0.3811
 7836TIP3    H223473   4.016   6.531   5.417 -1.1135 -3.4867 -1.3809
 7837TIP3   OH223474   3.584   2.325   5.644  0.2164 -0.4342  0.2441
 7837TIP3    H123475   3.515   2.389   5.661 -1.7114 -1.5158 -2.6511
 7837TIP3    H223476   3.546   2.240   5.668 -0.0024 -1.1732 -2.3525
 7838TIP3   OH223477   5.587   0.314   3.781  0.1345  0.1972  0.9420
 7838TIP3    H123478   5.593   0.221   3.805 -0.2909  0.0636  0.5649
 7838TIP3    H223479   5.547   0.356   3.857 -1.9783 -0.3606  0.2208
 7839TIP3   OH223480   4.303   2.942   4.134 -0.7161  0.4898 -0.4532
 7839TIP3    H123481   4.222   2.992   4.127 -1.9013 -0.8730  1.9516
 7839TIP3    H223482   4.322   2.912   4.045 -2.4093  1.5066 -1.1862
 7840TIP3   OH223483   0.455   1.177   0.506  0.2066  0.4718 -0.5014
 7840TIP3    H123484   0.433   1.239   0.576  0.0577  2.2599 -2.0370
 7840TIP3    H223485   0.374   1.168   0.455  0.5667 -0.0436 -0.9973
 7841TIP3   OH223486   3.466   1.744   2.693  0.1259  0.0707 -0.1557
 7841TIP3    H123487   3.468   1.687   2.616 -0.7981 -0.9944  0.5655
 7841TIP3    H223488   3.517   1.821   2.668  0.1614 -0.4197 -1.6884
 7842TIP3   OH223489   3.483   6.701   4.504  0.2313 -0.3930 -0.1051
 7842TIP3    H123490   3.396   6.720   4.540  0.6668 -1.6130  1.7492
 7842TIP3    H223491   3.473   6.617   4.459 -0.0336  0.5591 -1.8949
 7843TIP3   OH223492   0.346   4.675   4.680  0.4480  0.6559  0.0873
 7843TIP3    H123493   0.337   4.605   4.615 -0.1865  1.4471 -0.6969
 7843TIP3    H223494   0.297   4.644   4.756  0.1300  0.2700 -0.2731
 7844TIP3   OH223495   2.102   0.683   2.071  0.1067  0.1871 -0.9972
 7844TIP3    H123496   2.196   0.662   2.067  0.1756  0.2676 -0.0261
 7844TIP3    H223497   2.068   0.628   2.141 -0.9211 -1.0348 -2.4066
 7845TIP3   OH223498   3.679   0.366   2.501  0.5312 -0.3814 -0.3458
 7845TIP3    H123499   3.612   0.316   2.548  0.9062 -0.2450  0.3507
 7845TIP3    H223500   3.672   0.337   2.410 -0.3278 -0.5276 -0.2417
 7846TIP3   OH223501   1.880   6.464   1.548 -0.2289  0.3005 -0.2715
 7846TIP3    H123502   1.832   6.383   1.565 -1.1067  0.7625 -0.4894
 7846TIP3    H223503   1.931   6.480   1.628 -0.9359  0.1403  0.2129
 7847TIP3   OH223504   1.894   4.847   2.132  0.5710 -0.1769 -0.2296
 7847TIP3    H123505   1.824   4.868   2.194  0.9402 -1.1652  0.5565
 7847TIP3    H223506   1.969   4.897   2.163  0.2639  0.7961 -1.0079
 7848TIP3   OH223507   4.359   3.096   4.531  0.1244 -0.7210  0.5024
 7848TIP3    H123508   4.430   3.101   4.595  0.3110  0.6992  0.2232
 7848TIP3    H223509   4.386   3.026   4.471  1.1755 -0.3706  0.5406
 7849TIP3   OH223510   5.583   1.621   1.957  0.1032  0.1318 -0.2035
 7849TIP3    H123511   5.619   1.710   1.963  1.2622 -0.0214 -3.1773
 7849TIP3    H223512   5.491   1.631   1.982  0.4873  1.9227  0.6926
 7850TIP3   OH223513   0.280   5.906   0.294  0.0835 -0.1001  0.1621
 7850TIP3    H123514   0.304   5.828   0.344 -0.7797 -0.3254  0.2533
 7850TIP3    H223515   0.186   5.917   0.312  0.1442  0.8083 -0.0576
 7851TIP3   OH223516   5.439   0.965   3.091  0.1899 -0.0691 -0.1481
 7851TIP3    H123517   5.484   0.912   3.157  1.9643 -0.0816 -1.2889
 7851TIP3    H223518   5.434   1.052   3.130 -2.2688 -0.8719  1.5215
 7852TIP3   OH223519   0.133   3.349   1.825  0.6533  0.0149 -0.4794
 7852TIP3    H123520   0.161   3.417   1.763 -0.8554  0.3999 -0.7809
 7852TIP3    H223521   0.163   3.267   1.786  1.6847  0.4154 -0.5734
 7853TIP3   OH223522   0.919   2.258   2.257 -0.3672 -0.0910 -0.7542
 7853TIP3    H123523   0.849   2.205   2.218 -0.3628 -0.4178 -0.3310
 7853TIP3    H223524   0.877   2.339   2.284 -0.1143  0.7365 -2.6527
 7854TIP3   OH223525   2.166   3.160   4.839 -0.0243 -0.2705  0.6431
 7854TIP3    H123526   2.082   3.178   4.797 -0.4176 -1.9414  0.6598
 7854TIP3    H223527   2.223   3.232   4.809 -1.5392  1.1448  0.9823
 7855TIP3   OH223528   7.160   4.994   5.013 -0.6866  0.4701 -0.2797
 7855TIP3    H123529   7.129   5.011   4.924  0.6503  0.2915 -0.8122
 7855TIP3    H223530   7.245   4.952   5.001 -0.7643 -0.1486  1.0882
 7856TIP3   OH223531   7.058   3.716   1.595 -0.5361  0.5852 -0.8845
 7856TIP3    H123532   7.150   3.744   1.592 -0.7760  1.3986 -0.7857
 7856TIP3    H223533   7.008   3.798   1.600 -1.2631  0.1423 -0.8140
 7857TIP3   OH223534   2.994   3.011   2.215  0.1092  0.3830  0.6562
 7857TIP3    H123535   2.932   2.974   2.278 -0.8960  1.2693  0.2251
 7857TIP3    H223536   3.075   3.024   2.264 -0.1985 -0.3116  1.3663
 7858TIP3   OH223537   0.699   1.300   0.368  0.0757  0.4393 -0.1547
 7858TIP3    H123538   0.644   1.264   0.437  0.1322  3.3188  1.5719
 7858TIP3    H223539   0.789   1.282   0.395  0.0673  0.1279 -0.3360
 7859TIP3   OH223540   2.276   4.522   4.713 -0.4202 -0.2945  0.1351
 7859TIP3    H123541   2.220   4.571   4.653 -1.0543 -1.7008 -0.4498
 7859TIP3    H223542   2.258   4.430   4.694  1.4256 -0.7817  0.5711
 7860TIP3   OH223543   2.650   1.673   1.429 -0.5829  0.4176 -0.5987
 7860TIP3    H123544   2.667   1.684   1.335 -0.6321  0.1178 -0.6447
 7860TIP3    H223545   2.588   1.742   1.451  1.6442  2.4117 -0.1428
 7861TIP3   OH223546   1.555  -0.007   5.059  0.2403 -0.3355  0.4271
 7861TIP3    H123547   1.559  -0.014   5.155  0.4861  0.2826  0.4685
 7861TIP3    H223548   1.607   0.071   5.039  0.6964 -0.8134 -0.2640
 7862TIP3   OH223549   0.844   6.686   4.675 -0.5094 -0.1643  1.0213
 7862TIP3    H123550   0.820   6.614   4.733 -1.8467 -0.0141  0.6655
 7862TIP3    H223551   0.781   6.683   4.603 -1.3937  2.0692  1.5959
 7863TIP3   OH223552   7.057   1.237   4.836  0.0474 -0.7472  0.3219
 7863TIP3    H123553   7.048   1.289   4.916  0.5869 -1.9032  1.1406
 7863TIP3    H223554   6.997   1.280   4.774  0.1579  0.5930  1.0979
 7864TIP3   OH223555   0.387   6.592   0.335  0.6842  0.1452 -0.0736
 7864TIP3    H123556   0.448   6.529   0.375  0.6321 -0.3539 -0.7584
 7864TIP3    H223557   0.301   6.566   0.367  0.7292  0.2770  0.1591
 7865TIP3   OH223558   5.706   4.776   2.735 -0.4908 -0.3947  0.8939
 7865TIP3    H123559   5.633   4.775   2.797 -0.9122  1.7468  0.5231
 7865TIP3    H223560   5.668   4.810   2.654  0.7292  0.0143  0.4627
 7866TIP3   OH223561   1.983   2.855   1.287  0.0121  0.4315 -0.0085
 7866TIP3    H123562   1.929   2.787   1.328 -0.8152 -0.1298 -1.9347
 7866TIP3    H223563   2.072   2.819   1.289 -0.1399  0.0599  0.5144
 7867TIP3   OH223564   4.926   2.890   5.169 -0.4822  0.1164  0.4886
 7867TIP3    H123565   4.839   2.924   5.189  0.5589  2.0322  2.1181
 7867TIP3    H223566   4.979   2.913   5.246  1.6549 -0.2672 -0.7930
 7868TIP3   OH223567   0.539   3.952   3.112 -0.4273 -0.5997  0.3444
 7868TIP3    H123568   0.515   3.961   3.020  0.2947 -0.6927  0.1365
 7868TIP3    H223569   0.621   3.902   3.111 -0.1101 -0.1131  1.0010
 7869TIP3   OH223570   1.169   6.053   2.629  0.2064 -0.2980  0.2966
 7869TIP3    H123571   1.097   5.992   2.645  1.4560 -1.6773  0.9529
 7869TIP3    H223572   1.163   6.072   2.535 -0.5024 -1.0701  0.1688
 7870TIP3   OH223573   0.951   4.940   1.487  0.1087  0.2402 -0.2869
 7870TIP3    H123574   0.859   4.919   1.502  0.6438 -2.5462 -0.3522
 7870TIP3    H223575   0.951   5.033   1.463 -2.4118  0.9438  1.8818
 7871TIP3   OH223576   4.201   6.714   1.793 -0.3372  0.2011 -0.2492
 7871TIP3    H123577   4.288   6.734   1.760 -0.5448  0.2663 -0.7675
 7871TIP3    H223578   4.173   6.637   1.743  0.4816 -1.4919  1.7615
 7872TIP3   OH223579   3.084   5.422   0.542 -0.4440 -0.2522 -0.5510
 7872TIP3    H123580   3.051   5.507   0.511 -0.9297 -0.1322  0.2586
 7872TIP3    H223581   3.066   5.423   0.636  1.4299 -0.4019 -0.1523
 7873TIP3   OH223582   6.853   2.230   2.490 -0.1018  0.8058  0.2295
 7873TIP3    H123583   6.889   2.149   2.527  2.4257  1.2497 -1.0265
 7873TIP3    H223584   6.881   2.229   2.399 -2.5180  1.7611 -0.5931
 7874TIP3   OH223585   1.515   5.383   4.927  0.2846 -0.1075  0.1016
 7874TIP3    H123586   1.570   5.446   4.973 -1.6857  2.7738 -1.2004
 7874TIP3    H223587   1.428   5.395   4.965 -1.1498  1.4958 -3.2617
 7875TIP3   OH223588   2.812   3.715   3.955  0.2926 -0.1493  0.1038
 7875TIP3    H123589   2.820   3.644   4.018 -0.4384 -0.7326 -0.4391
 7875TIP3    H223590   2.718   3.720   3.937  0.5766 -0.8416 -1.8701
 7876TIP3   OH223591   2.492   2.095   4.335  0.2578 -0.1940 -0.0242
 7876TIP3    H123592   2.501   2.000   4.331  0.5659 -0.1430 -0.8680
 7876TIP3    H223593   2.542   2.127   4.259 -1.7735  0.4947 -1.1546
 7877TIP3   OH223594   2.698   3.647   1.218 -0.0392 -0.1053  0.1209
 7877TIP3    H123595   2.754   3.682   1.149  1.1709  0.4516  1.3431
 7877TIP3    H223596   2.757   3.628   1.290 -1.4177  0.4561  1.4473
 7878TIP3   OH223597   5.182   4.644   1.595  0.1120  0.1987  0.1052
 7878TIP3    H123598   5.140   4.673   1.514 -0.7099 -0.7339  0.1680
 7878TIP3    H223599   5.275   4.653   1.578 -0.0760  1.5314 -0.3483
 7879TIP3   OH223600   1.579   0.493   1.671  0.0400  0.1880 -0.4230
 7879TIP3    H123601   1.488   0.512   1.647  0.3465 -0.2997 -2.0994
 7879TIP3    H223602   1.607   0.570   1.721 -0.8211  1.0779 -1.2509
 7880TIP3   OH223603   5.343   6.640   2.233 -0.0475 -0.5117  0.0809
 7880TIP3    H123604   5.309   6.716   2.187 -1.5406 -1.0509  0.2499
 7880TIP3    H223605   5.274   6.615   2.294  1.1275 -0.9582  1.2772
 7881TIP3   OH223606   6.342   6.641   2.273 -0.3706  0.0711 -0.4043
 7881TIP3    H123607   6.252   6.630   2.305 -0.2060 -0.0271  0.0316
 7881TIP3    H223608   6.340   6.724   2.225 -1.0825 -0.7295 -1.8089
 7882TIP3   OH223609   1.608   1.814   2.485 -0.2672  0.0886 -0.0203
 7882TIP3    H123610   1.616   1.841   2.576  0.0750 -2.3753  0.7580
 7882TIP3    H223611   1.546   1.741   2.487 -0.1225 -0.1167 -1.7215
 7883TIP3   OH223612   5.294   5.260   0.923 -0.4495  0.4044  0.2485
 7883TIP3    H123613   5.285   5.289   0.833  1.0316  0.5512  0.1388
 7883TIP3    H223614   5.265   5.168   0.921  0.7249  0.0352 -0.6229
 7884TIP3   OH223615   6.892   5.485   5.601 -0.3018  0.4877  0.4228
 7884TIP3    H123616   6.957   5.417   5.583 -1.1582 -0.8212  1.9672
 7884TIP3    H223617   6.829   5.478   5.528  0.1347  0.3034  0.0594
 7885TIP3   OH223618   0.107   6.273   0.913 -0.5405 -0.4736 -0.6420
 7885TIP3    H123619   0.093   6.339   0.981  1.8096 -1.5539  1.0480
 7885TIP3    H223620   0.082   6.316   0.832 -1.4738  1.6041  0.6562
 7886TIP3   OH223621   6.240   4.080   3.814 -0.2182  0.0048 -0.0408
 7886TIP3    H123622   6.327   4.087   3.775 -0.4557  0.3284 -0.5298
 7886TIP3    H223623   6.251   4.114   3.903  0.3703 -0.9187  0.2558
 7887TIP3   OH223624   6.441   1.868   5.845  0.3070 -0.2721  0.0324
 7887TIP3    H123625   6.353   1.880   5.879  0.5635 -0.6674  0.8605
 7887TIP3    H223626   6.442   1.778   5.811 -0.5419  0.7224 -2.9076
 7888TIP3   OH223627   6.436   4.619   1.625 -0.4883  0.9593  0.0149
 7888TIP3    H123628   6.388   4.692   1.585 -1.4212  0.2897 -0.1122
 7888TIP3    H223629   6.369   4.552   1.641  0.3607  0.1196  0.1161
 7889TIP3   OH223630   5.380   3.069   5.680 -0.5702  0.2964 -0.0567
 7889TIP3    H123631   5.345   3.154   5.653 -1.4139 -0.5614 -1.8010
 7889TIP3    H223632   5.373   3.070   5.776  2.3261  3.3611  0.2950
 7890TIP3   OH223633   4.443   6.718   5.514 -0.3332  0.4798  0.6598
 7890TIP3    H123634   4.464   6.810   5.530  0.3231  0.3263  0.7290
 7890TIP3    H223635   4.357   6.706   5.556  0.9033  0.3316  3.3928
 7891TIP3   OH223636   3.317   5.080   1.136  0.4632  0.0483  0.0414
 7891TIP3    H123637   3.412   5.068   1.139  0.3940 -0.3844  2.3303
 7891TIP3    H223638   3.283   4.991   1.130  0.2010  0.1897 -0.5466
 7892TIP3   OH223639   6.030   2.349   5.030  0.1621  0.6142 -0.0107
 7892TIP3    H123640   5.956   2.290   5.047  0.6881  0.0048  0.1859
 7892TIP3    H223641   5.990   2.425   4.988 -0.3867 -0.4303 -1.4637
 7893TIP3   OH223642   2.790   0.428   3.999  0.2223 -0.0279  0.0021
 7893TIP3    H123643   2.872   0.417   3.949  1.5184  1.0498  1.7896
 7893TIP3    H223644   2.725   0.379   3.948  1.6493  0.2219 -2.2243
 7894TIP3   OH223645   1.382   5.781   5.659 -0.4735 -0.0789  0.0535
 7894TIP3    H123646   1.391   5.841   5.585 -1.2734 -0.5209 -0.4193
 7894TIP3    H223647   1.333   5.830   5.725 -1.3042 -0.2635 -0.4123
 7895TIP3   OH223648   4.082   1.558   4.149  0.0609 -0.2843  0.0442
 7895TIP3    H123649   4.143   1.612   4.098  0.2890 -0.8251 -0.2581
 7895TIP3    H223650   4.132   1.531   4.226 -0.0088 -0.1846  0.1250
 7896TIP3   OH223651   1.464   5.658   2.302  0.4245 -1.0622 -0.2490
 7896TIP3    H123652   1.469   5.717   2.226 -2.0456  0.2723  0.5096
 7896TIP3    H223653   1.371   5.640   2.311  0.5600 -0.6694  2.8371
 7897TIP3   OH223654   2.859   3.345   5.222  0.2152 -0.5500  0.0802
 7897TIP3    H123655   2.949   3.361   5.195 -0.2143  1.3101 -0.4263
 7897TIP3    H223656   2.853   3.250   5.234  1.9255 -0.8208 -0.9627
 7898TIP3   OH223657   4.630   0.400   0.516 -0.4667  0.2404 -0.4156
 7898TIP3    H123658   4.605   0.429   0.603 -0.1564 -0.5959 -0.0379
 7898TIP3    H223659   4.710   0.348   0.530  0.3407  1.1747 -1.3499
 7899TIP3   OH223660   3.890   1.073   2.146 -0.1275  0.3974 -0.4945
 7899TIP3    H123661   3.837   1.039   2.218  0.3324  0.1599 -0.2703
 7899TIP3    H223662   3.856   1.161   2.131 -0.5534  0.2678 -0.3157
 7900TIP3   OH223663   5.657   0.190   4.805 -0.9033  0.3959  0.4536
 7900TIP3    H123664   5.657   0.240   4.886  0.3651 -1.3329  1.5993
 7900TIP3    H223665   5.750   0.180   4.783 -1.2256  1.5003 -1.6832
 7901TIP3   OH223666   1.132   5.517   5.607  0.6208  0.6198 -0.1343
 7901TIP3    H123667   1.092   5.595   5.569 -1.1146 -0.1727 -0.0565
 7901TIP3    H223668   1.103   5.516   5.698 -1.5886 -1.3889 -0.7501
 7902TIP3   OH223669   0.447   3.666   2.677  0.2979  0.0069  0.3532
 7902TIP3    H123670   0.540   3.645   2.669  0.4058  0.6103  0.0350
 7902TIP3    H223671   0.422   3.629   2.762  0.3967 -1.7144 -0.3173
 7903TIP3   OH223672   5.025   6.374   2.071  0.3690  0.3356  0.1671
 7903TIP3    H123673   5.120   6.381   2.080  0.3620  2.4887 -0.8793
 7903TIP3    H223674   5.011   6.348   1.980 -0.0533 -0.2483  0.3910
 7904TIP3   OH223675   3.829   2.099   2.449  0.5024 -0.2926 -0.1213
 7904TIP3    H123676   3.784   2.173   2.408  1.8220  0.6486  0.0690
 7904TIP3    H223677   3.811   2.109   2.542  0.6924 -0.1967 -0.0940
 7905TIP3   OH223678   1.597   6.066   1.721  0.2416 -0.8362  1.3879
 7905TIP3    H123679   1.555   6.039   1.639  0.4159  0.2127  0.9325
 7905TIP3    H223680   1.597   5.988   1.775 -1.3800 -1.1406  1.0033
 7906TIP3   OH223681   6.348   6.526   1.362  0.3133  0.4778  0.7059
 7906TIP3    H123682   6.294   6.523   1.283 -0.9068 -1.3095  1.5222
 7906TIP3    H223683   6.285   6.542   1.433  0.7601 -1.7192  1.6973
 7907TIP3   OH223684   5.355   2.650   4.142  0.2812 -0.3920 -0.7470
 7907TIP3    H123685   5.352   2.555   4.152  0.6105 -0.4769 -1.3771
 7907TIP3    H223686   5.444   2.668   4.110  1.2686  0.4220  2.1670
 7908TIP3   OH223687   2.658   0.850   2.838 -0.1841  0.1829 -0.2578
 7908TIP3    H123688   2.687   0.764   2.866 -0.3312  0.7982  2.0147
 7908TIP3    H223689   2.739   0.899   2.821  0.1416  0.8381  2.6640
 7909TIP3   OH223690   1.367   6.125   4.831  0.1671  0.1113  0.5791
 7909TIP3    H123691   1.303   6.080   4.886  0.2717  0.2962  0.8540
 7909TIP3    H223692   1.384   6.207   4.876  0.1530  0.3275  0.1978
 7910TIP3   OH223693   0.915   1.417   4.090  0.3665 -0.0456 -0.1245
 7910TIP3    H123694   0.852   1.350   4.114 -0.0634  0.6000  0.5839
 7910TIP3    H223695   0.917   1.415   3.994 -1.7649  0.8402 -0.2480
 7911TIP3   OH223696   3.675   2.455   1.789 -0.4396 -0.3690 -0.4039
 7911TIP3    H123697   3.633   2.539   1.809 -0.6664 -0.6267  0.2492
 7911TIP3    H223698   3.647   2.397   1.861 -0.5281 -1.0829 -0.9965
 7912TIP3   OH223699   6.818   3.347   1.660  0.0318 -0.1561  0.2817
 7912TIP3    H123700   6.802   3.277   1.597  1.5638  1.2860 -1.8278
 7912TIP3    H223701   6.906   3.330   1.694 -0.1295  0.0082  0.7992
 7913TIP3   OH223702   4.232   4.738   0.464 -0.1618  0.1050 -0.3128
 7913TIP3    H123703   4.180   4.665   0.497  1.7285 -0.3615  1.8793
 7913TIP3    H223704   4.261   4.709   0.378  0.3367 -1.6425  0.4015
 7914TIP3   OH223705   3.055   1.439   0.750 -0.5859 -0.3525  0.1479
 7914TIP3    H123706   2.966   1.404   0.761 -0.3853 -0.6526  0.8848
 7914TIP3    H223707   3.075   1.481   0.833 -0.7044  1.2983 -0.6250
 7915TIP3   OH223708   3.238   3.872   1.532 -0.1427 -0.2625  0.5351
 7915TIP3    H123709   3.253   3.966   1.540  0.3038 -0.2581 -0.2103
 7915TIP3    H223710   3.265   3.835   1.616 -2.5406  0.5137  1.7152
 7916TIP3   OH223711   1.507   1.390   3.543  0.8173 -0.1437 -0.3808
 7916TIP3    H123712   1.602   1.382   3.542  0.7406 -1.1867 -1.4379
 7916TIP3    H223713   1.476   1.323   3.483 -0.5274  1.0892 -1.1404
 7917TIP3   OH223714   1.160   2.427   3.974 -0.0125 -0.4484  0.5756
 7917TIP3    H123715   1.189   2.404   3.886  0.6782 -0.7732  0.8760
 7917TIP3    H223716   1.093   2.493   3.961 -1.4061 -1.9425 -0.3073
 7918TIP3   OH223717   3.935   1.322   3.769  0.3474  0.8213 -0.1354
 7918TIP3    H123718   4.013   1.283   3.729 -0.0793 -1.9504  1.4787
 7918TIP3    H223719   3.950   1.313   3.864 -1.6511  0.8016  0.2105
 7919TIP3   OH223720   1.906   2.834   4.714 -0.2292  0.2761 -0.8174
 7919TIP3    H123721   1.848   2.887   4.660 -0.6933  0.9346  0.2993
 7919TIP3    H223722   1.846   2.774   4.760  0.1702 -0.3501 -1.1034
 7920TIP3   OH223723   1.902   5.701   1.265 -0.2086 -0.3909 -0.2819
 7920TIP3    H123724   1.865   5.788   1.253 -0.0875 -0.3988 -0.7557
 7920TIP3    H223725   1.898   5.661   1.178  0.8848 -0.3904 -0.3540
 7921TIP3   OH223726   2.329   2.087   3.251 -0.4816 -0.1762  0.3486
 7921TIP3    H123727   2.342   2.129   3.166 -2.1192  0.0248  0.1563
 7921TIP3    H223728   2.397   2.020   3.256  0.1437  0.3495 -0.7595
 7922TIP3   OH223729   5.471   2.456   3.548 -0.2407 -0.2419 -0.4235
 7922TIP3    H123730   5.550   2.412   3.517  0.3321 -0.4795  1.2559
 7922TIP3    H223731   5.448   2.517   3.477  2.2628  0.8475 -0.4227
 7923TIP3   OH223732   6.923   4.097   5.508  0.2049 -0.2285 -0.2601
 7923TIP3    H123733   6.894   4.147   5.432  1.9187  0.9691 -0.2004
 7923TIP3    H223734   6.857   4.116   5.575  1.6452  3.5985  0.3526
 7924TIP3   OH223735   6.051   1.549   0.937  0.4332  0.3250  0.1466
 7924TIP3    H123736   5.973   1.501   0.908 -0.3877  1.4270  0.4844
 7924TIP3    H223737   6.022   1.639   0.947  1.8498  0.8277 -0.0431
 7925TIP3   OH223738   0.745   4.933   0.656 -0.9806  0.4527 -0.0253
 7925TIP3    H123739   0.659   4.952   0.619 -1.6327  0.3465  1.3734
 7925TIP3    H223740   0.747   4.837   0.663 -1.1279  0.5094  0.8082
 7926TIP3   OH223741   3.517   2.221   4.939  0.0174  0.1908  0.8198
 7926TIP3    H123742   3.543   2.128   4.932 -0.9518 -0.1706  1.8061
 7926TIP3    H223743   3.494   2.246   4.849  1.6485 -0.0857  0.2786
 7927TIP3   OH223744   0.876   0.765   5.873  0.1394  0.0421  0.1875
 7927TIP3    H123745   0.902   0.819   5.798 -1.1500  1.4810  0.7089
 7927TIP3    H223746   0.906   0.677   5.852  0.3264  0.5315 -1.7387
 7928TIP3   OH223747   0.297   5.720   3.800  0.4481 -0.3658 -0.0599
 7928TIP3    H123748   0.285   5.814   3.788 -1.7808 -0.4578  0.9018
 7928TIP3    H223749   0.278   5.704   3.892  2.2254 -1.5993  0.1407
 7929TIP3   OH223750   1.726   1.929   1.693 -0.1543  0.0699  0.0559
 7929TIP3    H123751   1.818   1.928   1.666  0.2712  1.9373  1.2541
 7929TIP3    H223752   1.729   1.941   1.788 -1.6477 -1.2757  0.3279
 7930TIP3   OH223753   1.456   2.823   4.310 -0.8112 -0.3813  0.0849
 7930TIP3    H123754   1.382   2.766   4.330 -0.6602  0.0984  2.3781
 7930TIP3    H223755   1.530   2.783   4.356  0.1811 -0.3485 -1.4075
 7931TIP3   OH223756   4.517   4.372   4.992  0.2463  0.3427  0.0234
 7931TIP3    H123757   4.546   4.281   4.993  0.8855  0.5449  0.1930
 7931TIP3    H223758   4.553   4.410   5.072 -0.8264  0.5071  0.4448
 7932TIP3   OH223759   6.367   5.533   4.777 -0.0850  0.4164 -0.2613
 7932TIP3    H123760   6.422   5.459   4.752  1.3412  1.0212  0.9507
 7932TIP3    H223761   6.302   5.539   4.707 -0.0732 -1.7957 -0.5409
 7933TIP3   OH223762   1.813   2.593   3.285 -0.3392 -0.4910  0.4816
 7933TIP3    H123763   1.879   2.544   3.336  1.1829 -0.0132 -0.9386
 7933TIP3    H223764   1.801   2.541   3.206 -0.7317  0.0933  0.1575
 7934TIP3   OH223765   0.501   5.010   0.542 -0.1087  0.0580  0.2017
 7934TIP3    H123766   0.524   5.073   0.474  2.2596 -2.6329 -1.7580
 7934TIP3    H223767   0.425   4.964   0.507 -1.5897  1.4531  1.4476
 7935TIP3   OH223768   6.984   6.266   4.558 -0.0753  0.2022 -0.1535
 7935TIP3    H123769   7.003   6.339   4.499 -0.7031  0.9248  0.5133
 7935TIP3    H223770   7.060   6.209   4.551  1.0501  1.5881  0.3064
 7936TIP3   OH223771   4.596   1.842   0.570  0.4196 -0.5567 -0.2830
 7936TIP3    H123772   4.645   1.844   0.653  0.4846  0.5312 -0.3333
 7936TIP3    H223773   4.551   1.758   0.571  2.1804 -1.5465 -0.1682
 7937TIP3   OH223774   0.101   0.050   2.396  0.0952 -0.2009 -0.3264
 7937TIP3    H123775   0.159   0.068   2.470 -1.0843 -1.2764  0.9050
 7937TIP3    H223776   0.095  -0.045   2.393  0.6979 -0.2243 -2.3127
 7938TIP3   OH223777   6.726   0.025   3.884 -0.2821  0.5057 -0.1268
 7938TIP3    H123778   6.646   0.057   3.926 -0.1997  1.3819 -0.6131
 7938TIP3    H223779   6.786   0.007   3.956 -0.9726 -0.3223  0.2510
 7939TIP3   OH223780   0.015   1.009   0.340 -0.1926  0.8348 -0.6380
 7939TIP3    H123781   0.021   0.937   0.402  1.2966  2.0090  0.7016
 7939TIP3    H223782   0.032   0.969   0.255 -2.0602 -0.7856 -0.3043
 7940TIP3   OH223783   3.697   0.033   5.284 -0.1112 -0.6506  0.2814
 7940TIP3    H123784   3.761   0.072   5.225 -0.0621 -0.6160  0.3588
 7940TIP3    H223785   3.638  -0.016   5.226 -0.9727  0.6323  0.0277
 7941TIP3   OH223786   6.548   4.455   1.311 -0.2746 -0.6868 -0.5082
 7941TIP3    H123787   6.629   4.423   1.352 -0.0393 -0.0211 -0.4408
 7941TIP3    H223788   6.565   4.450   1.217  0.4130  0.8278 -0.4914
 7942TIP3   OH223789   1.552   3.789   4.876  0.0924  0.1982  0.7128
 7942TIP3    H123790   1.470   3.806   4.922  0.2342 -0.8588  1.3856
 7942TIP3    H223791   1.582   3.705   4.910  0.5627 -0.2897 -0.8199
 7943TIP3   OH223792   0.898   1.950   2.412  0.2571 -0.3800  0.2547
 7943TIP3    H123793   0.921   1.857   2.407 -0.0819 -0.5016  0.8343
 7943TIP3    H223794   0.908   1.982   2.323 -1.7396 -1.4853 -0.4350
 7944TIP3   OH223795   0.909   0.862   2.852  0.4268  0.4968 -0.1570
 7944TIP3    H123796   0.880   0.937   2.800 -1.6956 -0.0365  0.1595
 7944TIP3    H223797   0.859   0.789   2.817 -0.8282  0.0464  2.3704
 7945TIP3   OH223798   0.778   0.182   5.879  0.1112 -0.8132 -0.3219
 7945TIP3    H123799   0.843   0.234   5.926 -1.9058  1.4373  0.1615
 7945TIP3    H223800   0.798   0.197   5.787 -0.5872  1.1366 -0.1952
 7946TIP3   OH223801   3.654   5.333   5.156  0.0803 -0.1020  0.1185
 7946TIP3    H123802   3.712   5.307   5.228  0.5389  1.7107  0.4720
 7946TIP3    H223803   3.714   5.349   5.082 -0.1740 -0.0249 -0.0714
 7947TIP3   OH223804   3.635   6.450   4.724 -0.3924 -0.4020 -0.2302
 7947TIP3    H123805   3.606   6.427   4.813  3.4096 -1.4066  0.9370
 7947TIP3    H223806   3.585   6.529   4.703 -1.8157 -0.4065  2.5764
 7948TIP3   OH223807   4.660   0.708   0.056  0.3134  0.1968  0.3761
 7948TIP3    H123808   4.585   0.720   0.115  1.4647 -0.3702  2.0049
 7948TIP3    H223809   4.682   0.615   0.064  2.0109  0.6199  0.9765
 7949TIP3   OH223810   2.920   4.720   4.883 -0.2988  0.0450  0.1671
 7949TIP3    H123811   2.904   4.782   4.954  1.2856 -0.9472  1.4347
 7949TIP3    H223812   2.868   4.643   4.905  1.2093 -0.7802  1.0154
 7950TIP3   OH223813   2.090   4.370   2.226 -0.8447 -0.1320  0.7906
 7950TIP3    H123814   2.081   4.347   2.134  1.3137 -1.2608  0.8113
 7950TIP3    H223815   2.062   4.292   2.274 -1.1868  0.1662  1.0876
 7951TIP3   OH223816   2.639   1.575   5.821 -0.5582 -0.2650  0.2439
 7951TIP3    H123817   2.640   1.617   5.735 -1.2770  0.9919  0.8237
 7951TIP3    H223818   2.644   1.481   5.801  0.4812  0.0316 -1.1111
 7952TIP3   OH223819   2.305   5.073   0.616  0.5705 -0.0558  0.1436
 7952TIP3    H123820   2.336   5.047   0.529 -0.9736 -3.1823  0.3846
 7952TIP3    H223821   2.369   5.035   0.676  0.8141  0.8088  0.4499
 7953TIP3   OH223822   5.787   0.904   2.498  0.2715  0.6387  0.3474
 7953TIP3    H123823   5.759   0.890   2.588 -1.9401  0.1497 -0.3497
 7953TIP3    H223824   5.736   0.980   2.468 -0.1641 -0.1031 -0.8985
 7954TIP3   OH223825   0.269   6.026   4.494  0.4295 -0.0828  0.1384
 7954TIP3    H123826   0.253   6.064   4.408 -0.4072  1.2109  0.8413
 7954TIP3    H223827   0.263   5.932   4.480  0.4667  0.0976 -1.2444
 7955TIP3   OH223828   3.606   5.768   1.693  0.1593  0.3348  0.1294
 7955TIP3    H123829   3.568   5.802   1.612 -2.0963 -0.3340  0.8235
 7955TIP3    H223830   3.615   5.674   1.677 -2.4062 -0.2063  1.3059
 7956TIP3   OH223831   5.858   5.208   2.735  0.0327  0.2814 -0.4005
 7956TIP3    H123832   5.799   5.140   2.769  0.2053 -0.0303 -0.7277
 7956TIP3    H223833   5.902   5.167   2.661  0.7051  0.4984 -0.1219
 7957TIP3   OH223834   6.966   6.569   4.615 -0.6408 -0.3453 -0.1672
 7957TIP3    H123835   6.871   6.554   4.616 -0.7346  0.2189 -0.6263
 7957TIP3    H223836   6.981   6.636   4.681 -0.4213 -1.1671  0.6536
 7958TIP3   OH223837   2.870   0.747   5.074 -0.3748  0.3431  0.7582
 7958TIP3    H123838   2.950   0.758   5.023 -0.3605 -0.5733  0.5677
 7958TIP3    H223839   2.899   0.707   5.156 -0.5496  0.7006  0.9964
 7959TIP3   OH223840   5.357   0.139   3.492  0.3124  0.2140 -0.3922
 7959TIP3    H123841   5.378   0.049   3.516  0.4581  0.1462 -0.7625
 7959TIP3    H223842   5.442   0.185   3.495  0.4147  0.0934 -1.2390
 7960TIP3   OH223843   5.850   2.886   4.184  0.6366 -0.1200 -0.1717
 7960TIP3    H123844   5.756   2.867   4.189  0.5196  0.6918  1.0748
 7960TIP3    H223845   5.877   2.893   4.275  2.4962 -2.9694 -0.3759
 7961TIP3   OH223846   7.144   1.813   5.206  0.2397  0.1385 -0.5790
 7961TIP3    H123847   7.228   1.810   5.251 -0.1870  2.4664  0.5212
 7961TIP3    H223848   7.161   1.864   5.126 -0.5394  3.0580  0.9579
 7962TIP3   OH223849   2.759   0.116   1.748  0.1736 -0.0286 -0.2220
 7962TIP3    H123850   2.754   0.041   1.807 -0.5031 -0.6528 -1.0655
 7962TIP3    H223851   2.853   0.133   1.739  0.4035 -1.4793 -0.8869
 7963TIP3   OH223852   5.739   5.084   5.792  0.3782 -0.0930 -0.2649
 7963TIP3    H123853   5.655   5.127   5.808  0.9086  0.6843  0.5642
 7963TIP3    H223854   5.727   5.036   5.711 -0.4997  0.9799 -0.7970
 7964TIP3   OH223855   4.100   5.500   4.315  0.6298 -0.2899 -0.3840
 7964TIP3    H123856   4.084   5.487   4.408  0.7195  0.7701 -0.2058
 7964TIP3    H223857   4.196   5.499   4.307  0.6519  0.6391 -0.2963
 7965TIP3   OH223858   5.780   4.844   0.712 -0.0223  0.3134  0.0454
 7965TIP3    H123859   5.874   4.825   0.713 -0.1295 -0.2606 -0.1724
 7965TIP3    H223860   5.745   4.793   0.784 -0.1788  0.4544  0.0673
 7966TIP3   OH223861   1.532   0.292   3.332  0.0316  0.5129  0.0157
 7966TIP3    H123862   1.580   0.307   3.251  0.8168 -2.7737 -0.2370
 7966TIP3    H223863   1.450   0.252   3.305  0.3202 -0.6699  0.7940
 7967TIP3   OH223864   6.538   2.429   3.976 -0.1313 -0.2678 -0.0957
 7967TIP3    H123865   6.469   2.490   3.951 -0.4797  0.2869  2.0211
 7967TIP3    H223866   6.494   2.361   4.026  0.7851 -0.0924  0.9947
 7968TIP3   OH223867   3.380   2.971   0.919 -0.0753  0.7889  0.1242
 7968TIP3    H123868   3.447   3.008   0.862  0.2473 -0.8699 -0.6088
 7968TIP3    H223869   3.426   2.948   0.999  0.1001  0.2782 -0.1212
 7969TIP3   OH223870   2.596   1.515   0.724  0.0102 -0.2245 -0.6911
 7969TIP3    H123871   2.505   1.518   0.754  0.0577  1.2574 -0.5959
 7969TIP3    H223872   2.590   1.491   0.632 -0.7709  2.6588 -1.4995
 7970TIP3   OH223873   0.444   3.424   3.347  0.4727  0.0062 -0.1363
 7970TIP3    H123874   0.492   3.499   3.383  1.2290 -0.8566  0.7004
 7970TIP3    H223875   0.497   3.348   3.371 -1.8488 -1.1155  1.8738
 7971TIP3   OH223876   3.108   2.617   2.283 -0.3200 -0.0518  0.2019
 7971TIP3    H123877   3.171   2.672   2.331  0.5579 -0.1176 -0.8352
 7971TIP3    H223878   3.022   2.653   2.306  0.0382 -0.2496  2.0329
 7972TIP3   OH223879   2.337   3.556   3.712 -0.0418  0.3331  0.3011
 7972TIP3    H123880   2.402   3.561   3.783 -1.4023 -1.5880  1.7959
 7972TIP3    H223881   2.273   3.492   3.743 -1.5246  0.5681 -2.0482
 7973TIP3   OH223882   2.162   3.184   0.323 -0.1314 -0.1792  0.0158
 7973TIP3    H123883   2.243   3.201   0.371  0.3659  0.2543 -0.9403
 7973TIP3    H223884   2.099   3.247   0.357  0.5460  0.9113 -0.6803
 7974TIP3   OH223885   2.711   5.413   1.513 -0.7402  0.6536 -0.4324
 7974TIP3    H123886   2.745   5.460   1.437 -1.4794 -0.7655 -1.6758
 7974TIP3    H223887   2.629   5.374   1.483  0.6123 -2.8185 -0.0278
 7975TIP3   OH223888   2.689   2.907   3.001  0.2012 -0.5844  0.0093
 7975TIP3    H123889   2.599   2.934   2.981 -0.5772 -1.6199  1.8580
 7975TIP3    H223890   2.712   2.845   2.932 -0.2295  0.2306 -0.8816
 7976TIP3   OH223891   6.637   6.570   1.159  0.0859  0.0615 -0.0163
 7976TIP3    H123892   6.688   6.636   1.206  1.3676 -0.0281 -1.2092
 7976TIP3    H223893   6.550   6.609   1.149  0.3584  0.8787  0.6984
 7977TIP3   OH223894   1.750   6.627   4.852  0.2193 -0.4329  0.2242
 7977TIP3    H123895   1.766   6.584   4.768  0.5147 -0.3653  0.2447
 7977TIP3    H223896   1.802   6.576   4.915  1.7688  0.8410  0.0177
 7978TIP3   OH223897   4.192   6.247   2.281  0.3022 -0.5030 -0.3494
 7978TIP3    H123898   4.158   6.293   2.359  1.3223 -0.9408  0.3829
 7978TIP3    H223899   4.263   6.193   2.315  0.5229 -0.9890 -1.5479
 7979TIP3   OH223900   2.330   3.630   2.660 -0.3960  0.2848  0.0080
 7979TIP3    H123901   2.400   3.684   2.624 -1.8685  0.5498 -2.8088
 7979TIP3    H223902   2.355   3.540   2.637 -1.1380  0.4204 -1.4610
 7980TIP3   OH223903   5.398   3.700   2.755  0.5149 -0.3783  0.3445
 7980TIP3    H123904   5.393   3.746   2.671 -0.1506 -0.9902  0.0435
 7980TIP3    H223905   5.492   3.697   2.774  0.5565  1.5458  0.6282
 7981TIP3   OH223906   3.400   6.019   3.614 -0.2052  0.8686 -0.3385
 7981TIP3    H123907   3.462   6.050   3.548  0.2084  1.2723  0.2282
 7981TIP3    H223908   3.377   5.931   3.586  3.3725 -0.8109  1.2691
 7982TIP3   OH223909   5.258   2.533   5.070  0.1088 -0.4733  0.3699
 7982TIP3    H123910   5.285   2.614   5.114  0.0608  0.0880 -0.5856
 7982TIP3    H223911   5.339   2.497   5.034  0.0493 -0.5221  0.2854
 7983TIP3   OH223912   1.581   6.754   0.570  0.3539 -0.0806 -0.3039
 7983TIP3    H123913   1.633   6.678   0.545  1.5789  0.1632  1.3224
 7983TIP3    H223914   1.603   6.821   0.505 -0.2152 -0.8824 -1.3451
 7984TIP3   OH223915   6.347   4.817   4.393  0.5688  0.5149 -0.4780
 7984TIP3    H123916   6.353   4.756   4.466 -0.4792  0.1713 -0.6631
 7984TIP3    H223917   6.435   4.855   4.386  0.8704  0.0204  0.4898
 7985TIP3   OH223918   6.336   2.167   1.378  0.1654 -0.2333 -0.4839
 7985TIP3    H123919   6.429   2.145   1.372  0.3520  0.5061 -0.3944
 7985TIP3    H223920   6.329   2.217   1.460  0.1869  2.0205 -1.7543
 7986TIP3   OH223921   3.940   1.044   0.701 -0.1885  0.2709 -0.4333
 7986TIP3    H123922   3.979   0.970   0.746 -2.3401 -1.6485 -1.5000
 7986TIP3    H223923   3.857   1.060   0.747  0.2223  2.0788 -0.2167
 7987TIP3   OH223924   0.214   4.060   5.142 -0.2776  0.5250 -0.2411
 7987TIP3    H123925   0.153   4.128   5.113  0.6749  1.7466  0.5181
 7987TIP3    H223926   0.193   4.047   5.234 -0.7567 -0.5753 -0.4872
 7988TIP3   OH223927   4.152   3.049   2.237 -0.0390 -0.1524  0.3003
 7988TIP3    H123928   4.102   3.074   2.315 -0.8551 -0.8865  0.0358
 7988TIP3    H223929   4.090   3.062   2.165  0.0620 -1.3470 -0.0104
 7989TIP3   OH223930   1.229   1.823   2.176  0.5281  0.8294  0.3215
 7989TIP3    H123931   1.163   1.883   2.209  1.0716  2.9142 -2.0963
 7989TIP3    H223932   1.184   1.772   2.109  0.8193  0.6545  0.2562
 7990TIP3   OH223933   4.506   2.377   0.290 -0.3254 -0.1209  0.5992
 7990TIP3    H123934   4.494   2.375   0.195 -1.2387 -0.3019  0.6997
 7990TIP3    H223935   4.450   2.306   0.322  0.4581 -0.4695  1.2329
 7991TIP3   OH223936   6.131   5.574   4.621  0.8067 -0.0498  0.0230
 7991TIP3    H123937   6.117   5.660   4.660  1.1201  0.1315 -0.2575
 7991TIP3    H223938   6.054   5.523   4.648  1.7435 -0.4249  2.2041
 7992TIP3   OH223939   6.354   6.299   1.523 -0.4107 -0.2652  1.0437
 7992TIP3    H123940   6.360   6.382   1.476  3.8667 -0.7077  0.3910
 7992TIP3    H223941   6.290   6.248   1.474  0.5323  0.9178 -1.6081
 7993TIP3   OH223942   6.161   5.686   0.532 -0.8247 -0.5580  0.9943
 7993TIP3    H123943   6.161   5.590   0.525  0.0435 -0.7164  2.7011
 7993TIP3    H223944   6.177   5.716   0.442 -1.3200 -1.9992  0.3880
 7994TIP3   OH223945   1.632   1.351   2.784  0.0442  0.4919  0.0680
 7994TIP3    H123946   1.576   1.273   2.780 -0.3853  0.7508  0.9425
 7994TIP3    H223947   1.594   1.411   2.721 -0.2349  0.3902  0.1384
 7995TIP3   OH223948   1.340   5.557   5.095 -0.5352 -0.0618 -0.0562
 7995TIP3    H123949   1.246   5.572   5.088 -0.3391  0.4119 -3.8877
 7995TIP3    H223950   1.380   5.639   5.067  1.0656 -0.3097  1.3510
 7996TIP3   OH223951   3.271   4.272   0.236 -0.2046 -0.0904 -0.0388
 7996TIP3    H123952   3.183   4.310   0.224  0.5348  1.2131 -1.7962
 7996TIP3    H223953   3.302   4.255   0.147  1.6987  0.3903  0.4857
 7997TIP3   OH223954   4.856   0.764   0.236  0.5332  0.3908 -0.5200
 7997TIP3    H123955   4.833   0.855   0.255 -1.0638  0.0081 -0.4805
 7997TIP3    H223956   4.790   0.735   0.173  0.9267 -0.7863 -0.4160
 7998TIP3   OH223957   5.883   0.621   1.456  0.7293 -0.1301  0.5404
 7998TIP3    H123958   5.890   0.526   1.454  0.9209 -0.1762  2.0953
 7998TIP3    H223959   5.971   0.652   1.437  0.2785 -0.1817 -1.9131
 7999TIP3   OH223960   7.014   4.280   0.665 -0.3185  0.2158 -0.0199
 7999TIP3    H123961   7.031   4.367   0.699 -1.7511  0.5263 -0.0064
 7999TIP3    H223962   6.989   4.294   0.573  0.5914 -0.3073 -0.3559
 8000TIP3   OH223963   3.484   5.718   3.347  0.1304  0.5881  0.4963
 8000TIP3    H123964   3.392   5.715   3.374  0.0491  0.6207  0.2255
 8000TIP3    H223965   3.523   5.784   3.404 -0.0683  0.7501  0.4451
 8001TIP3   OH223966   6.899   5.192   1.966 -0.3982  0.1493  0.4710
 8001TIP3    H123967   6.886   5.212   1.873  0.2964 -0.2001  0.2888
 8001TIP3    H223968   6.820   5.224   2.009 -0.6911  0.3892 -0.2316
 8002TIP3   OH223969   1.013   0.043   4.104  0.3238 -1.0094  0.0729
 8002TIP3    H123970   1.079   0.038   4.173 -0.0906  0.2373  0.5754
 8002TIP3    H223971   0.933   0.069   4.148 -0.0080 -0.4488 -0.8349
 8003TIP3   OH223972   5.045   4.064   1.843 -0.3890 -0.1335  1.1246
 8003TIP3    H123973   5.112   4.045   1.909 -0.5634  1.7253  1.9178
 8003TIP3    H223974   5.048   3.990   1.783  1.8658 -0.4559  1.5493
 8004TIP3   OH223975   0.322   5.023   3.726 -0.4741 -0.1303  0.5306
 8004TIP3    H123976   0.322   4.933   3.761  0.8435 -0.3223  0.0956
 8004TIP3    H223977   0.367   5.074   3.793 -0.6929  0.0958  0.5047
 8005TIP3   OH223978   0.972   5.269   5.571 -0.1104 -0.2783 -0.1819
 8005TIP3    H123979   0.890   5.315   5.586 -0.2686 -0.8553  0.8487
 8005TIP3    H223980   1.038   5.337   5.567 -0.3129  0.0453  1.5019
 8006TIP3   OH223981   4.687   3.191   0.543 -0.4397  0.5373  0.7239
 8006TIP3    H123982   4.643   3.228   0.620 -0.7126  0.7876  0.4517
 8006TIP3    H223983   4.728   3.266   0.500 -1.6456  0.6845 -0.2568
 8007TIP3   OH223984   0.663   0.977   4.653  0.4048  0.5648 -0.4773
 8007TIP3    H123985   0.715   1.049   4.688 -0.4382  1.9749 -1.9758
 8007TIP3    H223986   0.578   1.016   4.632 -0.8538 -1.3671  0.6463
 8008TIP3   OH223987   4.857   4.237   3.614 -0.3229  0.4244  0.4521
 8008TIP3    H123988   4.808   4.171   3.565 -0.4594  1.1650 -0.4300
 8008TIP3    H223989   4.795   4.270   3.679 -0.9395  1.2331 -0.5453
 8009TIP3   OH223990   1.122   4.613   4.381 -1.6067  0.3881  0.2803
 8009TIP3    H123991   1.205   4.656   4.360 -1.1035 -0.7856 -0.1966
 8009TIP3    H223992   1.081   4.671   4.446 -0.1159  0.6506  1.0240
 8010TIP3   OH223993   3.931   1.537   1.361 -0.2855  0.7292  0.0550
 8010TIP3    H123994   3.940   1.447   1.329 -0.9683  0.6062  0.2093
 8010TIP3    H223995   3.973   1.590   1.293 -1.4958  0.4464 -0.9609
 8011TIP3   OH223996   1.078   0.343   5.068 -0.0335  0.0756 -0.8580
 8011TIP3    H123997   1.130   0.264   5.079  0.4331  0.3235 -1.2221
 8011TIP3    H223998   1.142   0.411   5.046 -0.1812  0.9641  1.2070
 8012TIP3   OH223999   4.205   4.861   3.294 -0.2595 -0.3355 -0.1375
 8012TIP3    H124000   4.178   4.945   3.257 -1.3344 -0.6802 -0.1613
 8012TIP3    H224001   4.143   4.844   3.365 -0.0043 -1.0697 -0.0753
 8013TIP3   OH224002   4.970   4.707   4.156 -0.1330  0.2724 -0.0906
 8013TIP3    H124003   4.907   4.691   4.226 -0.0978  1.4907  0.2559
 8013TIP3    H224004   5.055   4.687   4.196 -0.2700 -1.2019 -0.5038
 8014TIP3   OH224005   0.054   3.873   0.881  0.0119 -0.0743  0.2993
 8014TIP3    H124006   0.082   3.826   0.802  0.7581  1.4538 -0.3917
 8014TIP3    H224007  -0.031   3.909   0.857  0.2075  0.3326  0.2148
 8015TIP3   OH224008   5.983   5.599   2.084  1.0933 -0.5238 -0.2761
 8015TIP3    H124009   6.053   5.551   2.129  1.3281 -0.6763 -0.7918
 8015TIP3    H224010   6.011   5.691   2.088  0.7892 -0.4542  0.4538
 8016TIP3   OH224011   6.915   3.808   3.686  0.0405  0.6933  0.4179
 8016TIP3    H124012   6.996   3.822   3.636 -0.4650  1.4972 -0.2016
 8016TIP3    H224013   6.928   3.857   3.767 -0.0316  1.2814  0.0815
 8017TIP3   OH224014   5.168   1.368   1.971  0.3622 -0.3221  0.3033
 8017TIP3    H124015   5.207   1.451   1.941 -0.7138 -0.2014 -0.8587
 8017TIP3    H224016   5.239   1.324   2.017  0.6533  1.7093  1.9282
 8018TIP3   OH224017   4.824   0.970   4.701  0.0843  0.1918 -0.4079
 8018TIP3    H124018   4.814   0.985   4.795  0.3658  2.4653 -0.6786
 8018TIP3    H224019   4.918   0.974   4.685  0.0578 -0.4538 -0.7533
 8019TIP3   OH224020   5.820   4.951   1.924 -0.1136  0.0200 -0.2769
 8019TIP3    H124021   5.739   4.903   1.903  0.2548 -0.4652 -0.6073
 8019TIP3    H224022   5.885   4.883   1.939 -0.4419  0.2622  3.1418
 8020TIP3   OH224023   3.898   3.135   2.117  0.3811  0.8103 -0.7484
 8020TIP3    H124024   3.938   3.219   2.094 -0.6041  1.0333 -1.7847
 8020TIP3    H224025   3.867   3.100   2.033  1.5500 -1.0253 -0.4732
 8021TIP3   OH224026   1.421   1.245   4.019  0.3577 -0.1122  0.2531
 8021TIP3    H124027   1.445   1.275   3.931  0.6198 -1.3297 -0.1192
 8021TIP3    H224028   1.374   1.318   4.058 -0.2141  0.2681 -1.0952
 8022TIP3   OH224029   4.355   4.171   5.176  0.2364 -0.5261 -0.1450
 8022TIP3    H124030   4.272   4.217   5.165 -0.9358 -2.2815  0.7073
 8022TIP3    H224031   4.390   4.204   5.259  0.0262 -0.2713 -0.1558
 8023TIP3   OH224032   4.241   6.157   2.721  0.8849  0.9156 -0.1206
 8023TIP3    H124033   4.197   6.224   2.773  0.1818 -0.2140  0.7865
 8023TIP3    H224034   4.198   6.161   2.636  0.0380  0.8247  0.2969
 8024TIP3   OH224035   0.764   1.763   1.989  0.0608 -0.8646  0.1109
 8024TIP3    H124036   0.856   1.787   1.982 -0.6093  2.4258  0.8181
 8024TIP3    H224037   0.741   1.730   1.902  1.5137 -0.0244 -0.6318
 8025TIP3   OH224038   5.821   5.223   1.840 -0.1607 -0.1270 -0.0760
 8025TIP3    H124039   5.884   5.283   1.880  1.9357 -1.9744 -0.3565
 8025TIP3    H224040   5.821   5.147   1.898 -1.2259 -0.6732 -0.7524
 8026TIP3   OH224041   5.181   0.978   3.321  0.2757  0.4266 -0.1689
 8026TIP3    H124042   5.142   0.904   3.368  0.8595  0.0561 -0.2452
 8026TIP3    H224043   5.275   0.960   3.324  0.2910 -0.0511 -2.1905
 8027TIP3   OH224044   1.533   2.695   0.455  0.0485  0.2044  0.1064
 8027TIP3    H124045   1.517   2.668   0.545  0.1966 -1.8238 -0.4232
 8027TIP3    H224046   1.575   2.619   0.414  1.7946  1.7572 -1.1780
 8028TIP3   OH224047   5.563   4.978   3.335 -0.7561  0.2222  0.1500
 8028TIP3    H124048   5.612   4.945   3.410 -1.6455 -0.1011  0.6091
 8028TIP3    H224049   5.560   5.073   3.348 -0.3729  0.2292  0.1890
 8029TIP3   OH224050   4.119   0.981   3.850  0.0697  0.0499  0.1040
 8029TIP3    H124051   4.113   0.886   3.855  0.5781  0.0759  1.8208
 8029TIP3    H224052   4.136   0.999   3.758  0.5646 -1.5593 -0.1503
 8030TIP3   OH224053   6.082   2.903   2.144  0.1731  0.0480 -0.6667
 8030TIP3    H124054   5.989   2.914   2.123 -0.5030 -1.2971  1.3097
 8030TIP3    H224055   6.123   2.880   2.061 -1.7362 -1.8886 -1.1652
 8031TIP3   OH224056   3.307   5.410   4.911  0.1816 -0.2033 -0.4454
 8031TIP3    H124057   3.375   5.416   4.844  1.5935  0.2273  0.9596
 8031TIP3    H224058   3.268   5.497   4.914  0.5506 -0.0426 -0.2764
 8032TIP3   OH224059   0.252   4.738   1.923 -0.5223  0.1429  0.1407
 8032TIP3    H124060   0.158   4.727   1.931 -0.4685 -4.1046 -2.0204
 8032TIP3    H224061   0.287   4.706   2.006 -0.9737 -0.1208  0.2320
 8033TIP3   OH224062   1.604   4.110   5.774  0.3117 -0.3580  0.0455
 8033TIP3    H124063   1.602   4.104   5.869  0.9077  0.3390  0.1144
 8033TIP3    H224064   1.661   4.038   5.746 -2.4475 -2.7112 -0.0564
 8034TIP3   OH224065   6.529   4.114   0.253  0.0430  0.0663  0.3930
 8034TIP3    H124066   6.498   4.103   0.343 -1.0879 -0.5604 -0.0534
 8034TIP3    H224067   6.510   4.205   0.232  0.0452  0.1374  0.6917
 8035TIP3   OH224068   5.844   5.328   2.469 -0.3466  0.0228 -0.4346
 8035TIP3    H124069   5.932   5.302   2.444 -0.2033 -0.6301  0.6955
 8035TIP3    H224070   5.846   5.332   2.565 -0.8726  2.4447 -0.4607
 8036TIP3   OH224071   4.522   5.920   4.171 -0.2749 -0.2402 -0.0820
 8036TIP3    H124072   4.587   5.894   4.235 -0.1969 -0.8504 -0.4036
 8036TIP3    H224073   4.440   5.885   4.204 -0.4603  0.5874  0.3580
 8037TIP3   OH224074   4.851   1.920   2.217  0.1961 -0.1132  0.0280
 8037TIP3    H124075   4.827   2.005   2.255 -0.1234  0.0969 -0.6382
 8037TIP3    H224076   4.889   1.942   2.132  0.9255 -0.5815  0.2260
 8038TIP3   OH224077   2.997   3.607   3.760 -0.0249  0.1548  0.0686
 8038TIP3    H124078   2.969   3.585   3.670  1.0338 -1.9245  0.1789
 8038TIP3    H224079   2.918   3.642   3.801 -1.0110 -0.4567 -1.1964
 8039TIP3   OH224080   2.437   2.313   5.856 -0.1773 -0.2251 -0.7915
 8039TIP3    H124081   2.377   2.385   5.873 -0.8635 -0.8479 -0.5160
 8039TIP3    H224082   2.510   2.353   5.810 -1.1962  0.4092 -1.9219
 8040TIP3   OH224083   5.399   2.505   4.699 -0.5496 -0.2833  0.2463
 8040TIP3    H124084   5.389   2.588   4.745 -0.0889 -0.3130  0.4055
 8040TIP3    H224085   5.322   2.454   4.724  0.5654 -1.0188  2.5238
 8041TIP3   OH224086   5.307   6.315   0.743  0.0448 -0.4704 -0.1434
 8041TIP3    H124087   5.396   6.293   0.717  0.5181  0.5452  0.5368
 8041TIP3    H224088   5.278   6.240   0.796  1.5361  0.3384  1.9594
 8042TIP3   OH224089   2.802   4.499   2.195 -0.0615  0.0883  0.9289
 8042TIP3    H124090   2.886   4.508   2.149  0.3525 -2.2184  1.0938
 8042TIP3    H224091   2.738   4.535   2.134  0.9372  1.0418  0.4029
 8043TIP3   OH224092   6.482   0.782   3.696  0.1508 -0.2811 -0.6148
 8043TIP3    H124093   6.474   0.873   3.725  0.4505  0.0588 -1.5858
 8043TIP3    H224094   6.576   0.766   3.692  0.1008 -0.6010 -0.5767
 8044TIP3   OH224095   6.264   1.759   2.129 -0.2969 -0.2417  0.4273
 8044TIP3    H124096   6.313   1.761   2.047 -1.5823 -1.5699 -0.4455
 8044TIP3    H224097   6.306   1.691   2.181  0.0960  0.1128  0.5687
 8045TIP3   OH224098   6.828   3.354   2.690  0.7421  0.1164 -0.1659
 8045TIP3    H124099   6.892   3.348   2.760  0.1963  1.7178  0.5267
 8045TIP3    H224100   6.802   3.446   2.689 -2.0640 -0.5731  0.0688
 8046TIP3   OH224101   2.586   6.389   4.589 -0.0514 -0.6700 -0.2405
 8046TIP3    H124102   2.653   6.456   4.577 -1.4182  0.4145 -2.7079
 8046TIP3    H224103   2.632   6.306   4.571  0.8980 -0.0797 -0.6225
 8047TIP3   OH224104   3.918   3.608   0.640  0.3621  0.5048  0.0627
 8047TIP3    H124105   3.965   3.688   0.616  1.5558 -0.2512 -0.2419
 8047TIP3    H224106   3.848   3.637   0.698  1.0055  1.7252  0.2609
 8048TIP3   OH224107   6.638   2.246   4.576  0.0889  0.5513  0.0460
 8048TIP3    H124108   6.566   2.194   4.537  1.1096 -0.5647 -0.4196
 8048TIP3    H224109   6.668   2.193   4.650 -0.5476  1.7464  1.1997
 8049TIP3   OH224110   2.767   6.403   3.846  0.1556 -0.1115  0.1641
 8049TIP3    H124111   2.813   6.319   3.843 -0.0971 -0.2242 -1.3233
 8049TIP3    H224112   2.692   6.391   3.788 -0.7895  0.6329  1.2077
 8050TIP3   OH224113   3.621   4.213   2.643  0.3342 -0.0246 -0.6523
 8050TIP3    H124114   3.576   4.294   2.618  0.2335 -0.0882 -0.6785
 8050TIP3    H224115   3.595   4.150   2.575 -0.1545 -0.2714 -0.2423
 8051TIP3   OH224116   5.209   3.507   4.413  0.4077  0.7076 -0.1005
 8051TIP3    H124117   5.271   3.533   4.345  0.7891  0.4890  0.1640
 8051TIP3    H224118   5.220   3.412   4.422  0.2102  0.7032  0.1214
 8052TIP3   OH224119   5.131   1.473   0.447  0.5195 -0.4514 -0.2007
 8052TIP3    H124120   5.088   1.418   0.513  0.1238  1.1450  0.9239
 8052TIP3    H224121   5.094   1.560   0.461  1.0962  0.1047 -1.9687
 8053TIP3   OH224122   4.541   4.838   5.489 -0.3943  0.1040 -0.1671
 8053TIP3    H124123   4.580   4.796   5.565 -2.4789 -1.4471  0.1453
 8053TIP3    H224124   4.580   4.925   5.486  0.9578 -0.3922  1.6832
 8054TIP3   OH224125   4.377   1.802   1.531 -0.3173 -0.0383  0.3371
 8054TIP3    H124126   4.380   1.707   1.517 -1.8279 -0.1099  0.3321
 8054TIP3    H224127   4.341   1.812   1.619 -0.1111  0.5249  0.3588
 8055TIP3   OH224128   3.313   0.302   1.795  0.3265  0.4876 -0.3541
 8055TIP3    H124129   3.375   0.241   1.755  0.9826 -0.2633  1.6914
 8055TIP3    H224130   3.278   0.352   1.721  1.7649 -0.5256 -1.7959
 8056TIP3   OH224131   1.993   1.433   3.193  0.2722 -0.8903  0.4719
 8056TIP3    H124132   2.054   1.407   3.124 -0.4046 -1.4298  0.0648
 8056TIP3    H224133   1.949   1.352   3.218 -1.0512 -0.3494 -0.0113
 8057TIP3   OH224134   5.004   1.311   5.849 -0.3719 -0.1353  0.3967
 8057TIP3    H124135   4.938   1.350   5.791  1.9002  3.4973 -0.1068
 8057TIP3    H224136   5.064   1.266   5.789 -0.5990 -0.5127  0.4561
 8058TIP3   OH224137   4.058   3.511   2.750 -0.3694  0.0699 -0.7199
 8058TIP3    H124138   4.017   3.593   2.778 -0.7095 -0.3991  0.1563
 8058TIP3    H224139   4.017   3.493   2.665 -0.6902  0.5252 -0.6707
 8059TIP3   OH224140   6.445   5.655   1.675  0.4764 -0.0032  0.6240
 8059TIP3    H124141   6.497   5.734   1.688 -0.0149  0.4095  0.1139
 8059TIP3    H224142   6.505   5.593   1.633  0.8993  0.0469  1.1422
 8060TIP3   OH224143   1.080   0.323   3.245  0.2785  0.6921 -0.1048
 8060TIP3    H124144   1.134   0.261   3.196 -2.3407 -1.1917 -0.7902
 8060TIP3    H224145   1.075   0.287   3.333 -0.0616  0.7116 -0.1148
 8061TIP3   OH224146   0.901   1.046   3.811  0.1347  0.4555  0.4447
 8061TIP3    H124147   0.897   1.035   3.906 -0.7149 -0.5421  0.3087
 8061TIP3    H224148   0.964   1.117   3.798  3.0316 -1.6622  1.6284
 8062TIP3   OH224149   0.676   0.824   1.456 -0.2487  0.2977 -0.5483
 8062TIP3    H124150   0.656   0.903   1.506  1.0065  0.7483 -0.7278
 8062TIP3    H224151   0.635   0.838   1.370 -0.1565  0.6895 -0.5273
 8063TIP3   OH224152   1.574   4.695   1.632 -0.0451 -0.3014  0.2292
 8063TIP3    H124153   1.497   4.752   1.628 -1.0415 -1.6460 -0.5732
 8063TIP3    H224154   1.560   4.642   1.710  1.5096  1.3413  1.7061
 8064TIP3   OH224155   0.474   4.956   4.839 -0.2621  0.0452  0.3397
 8064TIP3    H124156   0.535   4.883   4.825 -0.3310  0.2821 -1.4274
 8064TIP3    H224157   0.499   4.992   4.924  0.5396 -1.2939  0.7113
 8065TIP3   OH224158   3.048   5.149   0.795  0.6125  0.1186  0.4382
 8065TIP3    H124159   3.130   5.175   0.838  0.1789  0.2967  1.1611
 8065TIP3    H224160   2.980   5.168   0.859  0.0553 -0.5735  0.0673
 8066TIP3   OH224161   5.399   3.858   3.175  0.2183 -0.5007  0.1824
 8066TIP3    H124162   5.486   3.862   3.135  0.7773 -0.9668  1.3356
 8066TIP3    H224163   5.361   3.776   3.144  0.8308 -1.0831  0.9497
 8067TIP3   OH224164   2.363   2.347   4.726  0.9094  0.5635 -0.1199
 8067TIP3    H124165   2.442   2.368   4.676  1.1302  1.5315  0.5938
 8067TIP3    H224166   2.317   2.282   4.673  1.8766  0.4487 -0.8410
 8068TIP3   OH224167   5.260   6.274   1.446 -0.5769 -0.1864  0.1850
 8068TIP3    H124168   5.322   6.260   1.518 -0.5109 -1.4452 -0.0855
 8068TIP3    H224169   5.230   6.364   1.457 -0.0402 -0.1308  1.3731
 8069TIP3   OH224170   4.485   4.507   5.544 -0.0033  0.6162  0.4898
 8069TIP3    H124171   4.403   4.457   5.543  0.6459 -0.8191 -3.8102
 8069TIP3    H224172   4.462   4.591   5.582 -2.7141 -0.6954  2.0749
 8070TIP3   OH224173   2.860   4.672   5.522 -0.3260 -0.2840  0.3353
 8070TIP3    H124174   2.949   4.668   5.488 -0.2126  1.1761  0.3836
 8070TIP3    H224175   2.856   4.756   5.568 -1.2656 -1.0282  1.6895
 8071TIP3   OH224176   3.748   0.574   5.632  0.3259  0.3394  0.3977
 8071TIP3    H124177   3.778   0.540   5.716  0.8379 -2.0990 -0.6895
 8071TIP3    H224178   3.666   0.526   5.615  0.3640  0.6183 -0.5974
 8072TIP3   OH224179   7.120   4.980   3.292 -0.2891  0.1461 -0.1676
 8072TIP3    H124180   7.126   4.935   3.208 -3.1150  0.2547 -0.5237
 8072TIP3    H224181   7.144   5.070   3.273  1.7443 -0.3484 -0.2169
 8073TIP3   OH224182   2.400   4.354   1.062 -0.4018 -0.0627 -0.8073
 8073TIP3    H124183   2.330   4.402   1.016 -0.8326  0.8548  0.7352
 8073TIP3    H224184   2.413   4.275   1.010  1.2499  2.2279 -4.2887
 8074TIP3   OH224185   1.540   5.260   0.633  0.5136 -0.7318  0.0231
 8074TIP3    H124186   1.508   5.328   0.574  1.7886 -0.1646 -0.0306
 8074TIP3    H224187   1.529   5.179   0.584 -0.6478 -0.5429 -0.0617
 8075TIP3   OH224188   1.750   6.302   3.501  0.3499 -0.0762  0.0485
 8075TIP3    H124189   1.807   6.226   3.497  1.6947  0.9209 -0.4411
 8075TIP3    H224190   1.773   6.354   3.424  0.7815  1.7199  1.3177
 8076TIP3   OH224191   3.124   2.213   2.453  0.9761 -0.1952  0.2777
 8076TIP3    H124192   3.194   2.207   2.518  0.5931  0.3537  0.7468
 8076TIP3    H224193   3.083   2.126   2.455  0.0974  0.2022  1.7805
 8077TIP3   OH224194   0.143   3.760   0.646 -0.1922  0.2825  0.4523
 8077TIP3    H124195   0.160   3.671   0.613  0.2481  0.5344 -0.0103
 8077TIP3    H224196   0.222   3.809   0.623 -0.1511  0.6319  1.3066
 8078TIP3   OH224197   5.682   3.694   5.799 -0.0014  0.3608 -0.2084
 8078TIP3    H124198   5.708   3.667   5.711 -0.0303  1.6674 -0.6368
 8078TIP3    H224199   5.699   3.617   5.854  0.0938 -0.4386 -1.3354
 8079TIP3   OH224200   4.934   1.782   1.740 -0.0614  0.0765  0.1147
 8079TIP3    H124201   5.000   1.816   1.679  0.3561  1.4851  1.2922
 8079TIP3    H224202   4.870   1.738   1.684  0.2071  1.4705 -1.3717
 8080TIP3   OH224203   0.030   0.145   4.705 -0.2728 -0.3523  0.1663
 8080TIP3    H124204   0.101   0.190   4.660 -1.0585  0.5895 -0.1700
 8080TIP3    H224205   0.056   0.053   4.705  1.0655  0.0012  0.2980
 8081TIP3   OH224206   1.169   2.420   3.706 -0.2404 -0.0105 -0.5070
 8081TIP3    H124207   1.194   2.498   3.657 -0.2638  0.7985  0.7246
 8081TIP3    H224208   1.223   2.350   3.670  1.0514  0.9343 -0.4681
 8082TIP3   OH224209   5.871   0.570   0.880  0.1660  0.1523 -0.3406
 8082TIP3    H124210   5.787   0.525   0.868  0.4276 -0.5140  0.2079
 8082TIP3    H224211   5.895   0.601   0.793 -0.3029 -0.2881 -0.6292
 8083TIP3   OH224212   6.284   6.543   3.548  0.0899 -0.5137  0.2375
 8083TIP3    H124213   6.247   6.631   3.556  0.6788 -0.3601  1.4383
 8083TIP3    H224214   6.303   6.534   3.454 -0.4283  0.4524  0.0308
 8084TIP3   OH224215   5.852   0.117   0.194 -0.2584  0.4532  0.3934
 8084TIP3    H124216   5.826   0.053   0.261 -0.9203 -0.6547 -0.8716
 8084TIP3    H224217   5.815   0.200   0.225  0.3145  0.1862  1.8952
 8085TIP3   OH224218   4.697   2.179   0.160  0.2648 -0.3351 -0.2142
 8085TIP3    H124219   4.690   2.119   0.234  0.1414  0.4623  0.4323
 8085TIP3    H224220   4.638   2.143   0.094  1.5799 -1.9639 -0.5834
 8086TIP3   OH224221   5.279   5.542   2.759 -0.1888  0.5508  0.5289
 8086TIP3    H124222   5.338   5.543   2.835  1.0699  0.0706 -0.4223
 8086TIP3    H224223   5.255   5.634   2.747 -1.1694  0.5362  2.0595
 8087TIP3   OH224224   1.962   3.434   2.501  0.1500 -0.4272  0.1270
 8087TIP3    H124225   1.974   3.339   2.506  0.3150 -0.3736  1.0421
 8087TIP3    H224226   1.878   3.445   2.455  2.0419 -0.8662 -3.8436
 8088TIP3   OH224227   5.689   1.767   2.881  0.1071 -0.4148 -0.1866
 8088TIP3    H124228   5.678   1.701   2.949  1.6985  0.1393  0.6764
 8088TIP3    H224229   5.627   1.743   2.813 -2.0202 -0.6365  1.7136
 8089TIP3   OH224230   2.676   0.905   4.161 -0.2259 -0.0222  0.0049
 8089TIP3    H124231   2.705   0.996   4.166 -1.5651  0.5081 -1.0696
 8089TIP3    H224232   2.688   0.871   4.249 -0.3371  1.4131  0.6016
 8090TIP3   OH224233   1.181   1.848   1.145 -0.4831 -0.0351  0.7133
 8090TIP3    H124234   1.172   1.913   1.075 -3.1783  0.0530  1.0233
 8090TIP3    H224235   1.262   1.872   1.191  1.5524 -0.2689 -2.4629
 8091TIP3   OH224236   1.096   0.767   0.504 -0.0021 -0.0857 -0.8409
 8091TIP3    H124237   1.065   0.850   0.541 -1.9647 -0.2243 -2.0752
 8091TIP3    H224238   1.050   0.758   0.421  0.4666 -2.2359 -0.9310
 8092TIP3   OH224239   6.538   1.132   0.523  0.1123 -0.0249  0.3152
 8092TIP3    H124240   6.586   1.073   0.581 -0.8131 -0.0297  1.0924
 8092TIP3    H224241   6.475   1.176   0.579  1.0383  2.0519 -0.1557
 8093TIP3   OH224242   3.952   2.800   1.400 -0.0034 -0.0079  0.0959
 8093TIP3    H124243   3.970   2.874   1.458 -1.4982  0.3971  0.0902
 8093TIP3    H224244   3.858   2.805   1.383 -0.1517 -1.9318  0.1058
 8094TIP3   OH224245   6.458   3.035   4.572  0.2744 -0.0923  0.6587
 8094TIP3    H124246   6.486   3.085   4.649 -0.1330  1.2519 -0.0166
 8094TIP3    H224247   6.539   3.015   4.525  0.5799 -1.4349  1.7028
 8095TIP3   OH224248   6.321   2.734   0.519  0.1378  0.5082  0.0361
 8095TIP3    H124249   6.335   2.761   0.428 -1.5070 -1.7392 -0.9723
 8095TIP3    H224250   6.270   2.805   0.557 -1.2343  0.4295 -1.5494
 8096TIP3   OH224251   1.134   4.427   4.888  0.0571  0.1586 -0.1967
 8096TIP3    H124252   1.082   4.382   4.821  0.0199 -0.5771  0.3182
 8096TIP3    H224253   1.199   4.362   4.915  0.6758  0.7748 -0.1916
 8097TIP3   OH224254   6.033   3.199   1.364 -0.1255  0.4028  0.1813
 8097TIP3    H124255   6.103   3.237   1.313  0.5458  0.2530  0.9740
 8097TIP3    H224256   6.075   3.168   1.445 -0.8955 -0.6790  0.2006
 8098TIP3   OH224257   2.403   3.220   4.982 -0.1585  0.5087 -0.4091
 8098TIP3    H124258   2.484   3.266   4.960 -0.2802  0.6792 -0.5033
 8098TIP3    H224259   2.421   3.129   4.961  0.2644  0.4312  0.2794
 8099TIP3   OH224260   0.459   6.279   4.913 -0.0718 -0.7603 -0.0375
 8099TIP3    H124261   0.395   6.257   4.845  0.2050 -2.6039  0.2416
 8099TIP3    H224262   0.449   6.210   4.979  1.0765 -0.1638  0.7913
 8100TIP3   OH224263   2.420   1.188   0.376  0.3346  0.5476  1.1599
 8100TIP3    H124264   2.392   1.154   0.290 -0.3264 -2.2258  2.3637
 8100TIP3    H224265   2.339   1.219   0.416  0.0014 -1.2930  2.0265
 8101TIP3   OH224266   5.012   2.699   2.267 -0.1608 -0.3338 -0.2230
 8101TIP3    H124267   5.049   2.785   2.288  0.4839 -0.8534  0.8975
 8101TIP3    H224268   5.017   2.693   2.172 -0.3855  0.9370 -0.3271
 8102TIP3   OH224269   2.101   2.833   5.619 -0.1483  0.1636  0.3370
 8102TIP3    H124270   2.046   2.755   5.633  1.6624 -0.8387  2.4034
 8102TIP3    H224271   2.180   2.800   5.577  0.3271  1.0132  0.5318
 8103TIP3   OH224272   5.771   2.830   2.380 -0.1545 -0.1557  0.0406
 8103TIP3    H124273   5.725   2.899   2.332 -1.1145  1.2179  2.6805
 8103TIP3    H224274   5.703   2.790   2.434  0.9408 -1.1762  0.7021
 8104TIP3   OH224275   4.550   4.287   1.392  0.0469 -0.3819 -0.3484
 8104TIP3    H124276   4.533   4.216   1.454  0.3601 -0.5588 -0.4624
 8104TIP3    H224277   4.562   4.365   1.447 -1.0958 -0.2465 -0.2603
 8105TIP3   OH224278   2.430   6.376   0.516  0.1215 -0.7202  0.2476
 8105TIP3    H124279   2.512   6.397   0.561  0.0261  1.7489 -0.5511
 8105TIP3    H224280   2.412   6.286   0.540  2.5881 -1.0489  1.1847
 8106TIP3   OH224281   5.934   1.150   2.792 -0.4386  0.4320  0.2410
 8106TIP3    H124282   6.024   1.183   2.796 -0.5457  0.7936 -0.2683
 8106TIP3    H224283   5.880   1.229   2.797 -0.8240  0.1052  3.1969
 8107TIP3   OH224284   2.099   5.942   2.040 -0.8427  0.0560 -0.2618
 8107TIP3    H124285   2.147   6.004   2.096 -1.0987  0.8752 -0.9261
 8107TIP3    H224286   2.120   5.856   2.076 -0.6273  0.5358  0.8079
 8108TIP3   OH224287   6.311   2.449   4.303  0.7196 -0.0382 -0.1869
 8108TIP3    H124288   6.370   2.513   4.344  1.5428 -2.3223  2.5716
 8108TIP3    H224289   6.235   2.447   4.360  0.4903 -1.1374 -0.5071
 8109TIP3   OH224290   5.361   3.971   0.169  0.0207  0.4020  0.1889
 8109TIP3    H124291   5.350   3.876   0.164  1.4838  0.2622 -1.2509
 8109TIP3    H224292   5.441   3.983   0.220  0.4017  0.8127 -0.4948
 8110TIP3   OH224293   5.104   1.036   0.888  0.2635  0.3383  0.0091
 8110TIP3    H124294   5.186   1.042   0.938  0.7293 -1.0264 -0.5516
 8110TIP3    H224295   5.078   0.944   0.896 -1.2753  0.7630  0.2425
 8111TIP3   OH224296   1.063   2.945   1.197 -0.1758 -0.0827 -0.4004
 8111TIP3    H124297   1.083   2.925   1.105 -0.4156 -0.2409 -0.4215
 8111TIP3    H224298   0.971   2.972   1.196  0.2738  1.4917 -0.4310
 8112TIP3   OH224299   1.988   2.679   5.321 -0.2844 -0.1979 -0.5575
 8112TIP3    H124300   1.928   2.615   5.360  0.0293 -0.9129 -1.2210
 8112TIP3    H224301   1.938   2.719   5.250 -0.5173  0.3875 -0.0747
 8113TIP3   OH224302   5.017   1.393   5.487 -0.8194  0.4267  0.1088
 8113TIP3    H124303   4.943   1.411   5.545 -3.2044  1.9132 -3.0503
 8113TIP3    H224304   4.982   1.334   5.420  2.3498 -2.8701  1.0253
 8114TIP3   OH224305   2.332   0.779   4.309  0.8564  0.0076 -0.1606
 8114TIP3    H124306   2.366   0.717   4.374 -0.8500 -0.7382  0.0763
 8114TIP3    H224307   2.360   0.743   4.225 -0.0688 -1.1126 -0.0244
 8115TIP3   OH224308   0.757   2.542   1.507  0.1519 -0.4288  0.1799
 8115TIP3    H124309   0.708   2.619   1.535  0.6900 -0.2714  0.6986
 8115TIP3    H224310   0.758   2.485   1.585  0.0251 -0.8263 -0.1040
 8116TIP3   OH224311   1.527   2.318   4.894  0.3551  0.5778  0.5049
 8116TIP3    H124312   1.479   2.343   4.815  0.1799  1.3023  0.8296
 8116TIP3    H224313   1.517   2.393   4.953  0.5399  0.0750  1.1910
 8117TIP3   OH224314   2.534   4.044   1.873  0.0114 -0.2261 -0.0253
 8117TIP3    H124315   2.598   4.016   1.939 -0.4352  0.2085  0.6105
 8117TIP3    H224316   2.558   4.133   1.851  0.6467 -0.6371 -1.0797
 8118TIP3   OH224317   5.860   0.831   2.184 -0.7357 -0.0385  0.1866
 8118TIP3    H124318   5.829   0.786   2.263 -1.2438  0.7751  0.4628
 8118TIP3    H224319   5.814   0.788   2.112 -1.6104  0.3716  0.4910
 8119TIP3   OH224320   2.537   2.933   4.876 -0.1880  0.2968 -0.4638
 8119TIP3    H124321   2.538   2.945   4.781 -0.2788 -2.7110 -0.9512
 8119TIP3    H224322   2.624   2.898   4.896 -1.0516 -1.6585  0.0795
 8120TIP3   OH224323   4.452   2.581   2.561 -0.0509  0.0235  0.1240
 8120TIP3    H124324   4.418   2.612   2.645  0.1966 -3.8190  1.8646
 8120TIP3    H224325   4.541   2.551   2.581 -0.6009 -2.6390 -0.9713
 8121TIP3   OH224326   6.603   2.896   5.197 -0.0161  0.3612 -0.2317
 8121TIP3    H124327   6.562   2.877   5.281 -1.4238  1.1552 -0.7072
 8121TIP3    H224328   6.695   2.911   5.218  0.1741 -1.8878  0.8142
 8122TIP3   OH224329   2.027   6.774   5.026  0.4784 -0.3932  0.0045
 8122TIP3    H124330   2.008   6.697   5.079 -0.5649 -0.0556  0.1341
 8122TIP3    H224331   2.083   6.741   4.955  0.3429 -1.1972  0.2625
 8123TIP3   OH224332   6.260   5.588   2.615  0.1979 -0.4227  0.2337
 8123TIP3    H124333   6.242   5.499   2.587  0.5520 -0.6535  0.7285
 8123TIP3    H224334   6.339   5.581   2.669 -0.5509 -0.0272  1.4309
 8124TIP3   OH224335   5.240   1.290   2.981 -0.1997 -0.0854  0.8544
 8124TIP3    H124336   5.172   1.234   3.020  0.2566 -0.1147  1.6327
 8124TIP3    H224337   5.316   1.277   3.037 -0.0444  1.2393  0.9746
 8125TIP3   OH224338   2.671   5.788   0.874 -0.7289  0.2548  0.0928
 8125TIP3    H124339   2.695   5.865   0.822 -3.2169  0.6162 -0.6542
 8125TIP3    H224340   2.720   5.799   0.956 -1.4544  3.0094  0.2762
 8126TIP3   OH224341   0.076   6.506   5.697  0.4300  0.4383 -0.3952
 8126TIP3    H124342   0.149   6.518   5.758 -0.7700 -0.4026  1.2941
 8126TIP3    H224343  -0.001   6.539   5.744 -0.5713 -0.4136 -1.3708
 8127TIP3   OH224344   1.715   1.477   5.163 -0.0819  0.1859  0.1055
 8127TIP3    H124345   1.742   1.438   5.080  1.0723  1.3059 -0.0693
 8127TIP3    H224346   1.712   1.571   5.145  0.0053  0.4245  1.2963
 8128TIP3   OH224347   4.613   2.342   4.520  0.0065  0.1425  0.0851
 8128TIP3    H124348   4.565   2.262   4.499  1.0098  0.0961 -2.4040
 8128TIP3    H224349   4.546   2.409   4.526 -0.6223 -0.3968 -0.6735
 8129TIP3   OH224350   1.234   2.484   0.904 -0.0018 -0.2247  0.0316
 8129TIP3    H124351   1.142   2.475   0.877  0.0282  1.5066 -0.7417
 8129TIP3    H224352   1.244   2.421   0.975 -2.4890  1.2594  1.8375
 8130TIP3   OH224353   6.733   1.075   2.671 -0.4443  0.4129 -0.2310
 8130TIP3    H124354   6.694   1.039   2.751 -1.3966  2.0866  0.1159
 8130TIP3    H224355   6.759   0.999   2.620 -1.7605 -0.7366  0.7310
 8131TIP3   OH224356   2.276   2.847   2.133 -0.3673  0.3094 -0.0836
 8131TIP3    H124357   2.237   2.857   2.220  2.5334 -0.6556  1.4607
 8131TIP3    H224358   2.336   2.921   2.126  0.4686 -0.4017 -0.6220
 8132TIP3   OH224359   1.368   1.263   4.651 -0.1678 -0.0844 -0.2226
 8132TIP3    H124360   1.324   1.292   4.571 -2.1275 -1.6594  0.1889
 8132TIP3    H224361   1.430   1.196   4.622  2.2754  2.2932 -0.8347
 8133TIP3   OH224362   4.729   2.758   0.995  0.3666 -0.3293 -0.1488
 8133TIP3    H124363   4.744   2.736   0.903 -0.7925 -2.3202  0.0838
 8133TIP3    H224364   4.662   2.696   1.023  0.8600  0.1057  2.1146
 8134TIP3   OH224365   6.207   3.846   3.707  0.2785 -0.0761  0.0958
 8134TIP3    H124366   6.228   3.921   3.762  0.6585 -1.9155  2.6015
 8134TIP3    H224367   6.290   3.799   3.697 -0.1195 -0.6359 -0.7031
 8135TIP3   OH224368   0.284   2.169   1.766 -0.0688  0.4160  0.5523
 8135TIP3    H124369   0.371   2.208   1.766  0.1254  0.1387 -2.0301
 8135TIP3    H224370   0.239   2.211   1.840  0.7820  4.0699 -0.7732
 8136TIP3   OH224371   6.448   4.915   2.780  0.2407  0.2551 -0.5953
 8136TIP3    H124372   6.502   4.839   2.801 -0.2546  0.2572  0.7412
 8136TIP3    H224373   6.358   4.885   2.789  0.0279  1.2863  1.1837
 8137TIP3   OH224374   4.512   3.427   0.248 -0.2346 -0.4444  0.0203
 8137TIP3    H124375   4.601   3.404   0.275 -0.6309 -0.4887  1.3338
 8137TIP3    H224376   4.509   3.522   0.257  0.4715 -0.1071 -2.5611
 8138TIP3   OH224377   1.770   1.307   3.624  0.1440 -0.8560  0.0227
 8138TIP3    H124378   1.828   1.360   3.569  0.0808  1.7974  2.2971
 8138TIP3    H224379   1.827   1.275   3.694 -0.7608  0.6231  1.5142
 8139TIP3   OH224380   0.593   3.438   2.120  0.1169  0.1150 -0.0372
 8139TIP3    H124381   0.632   3.355   2.148  1.3490  0.4005 -0.8232
 8139TIP3    H224382   0.591   3.492   2.199  2.1236  0.3824 -0.1277
 8140TIP3   OH224383   0.761   5.774   1.976 -0.2424 -0.3473  0.2561
 8140TIP3    H124384   0.752   5.722   2.056 -0.4151 -0.8688 -0.0907
 8140TIP3    H224385   0.715   5.722   1.909 -1.8371  1.0290  0.2271
 8141TIP3   OH224386   4.359   4.667   5.739  0.2797 -0.1666 -0.1034
 8141TIP3    H124387   4.328   4.608   5.808 -0.5410 -0.9761 -1.1213
 8141TIP3    H224388   4.285   4.728   5.725  0.8520  0.6813  0.4520
 8142TIP3   OH224389   3.674   6.428   5.671  0.3724 -0.2287  0.0564
 8142TIP3    H124390   3.624   6.386   5.601 -0.5882  1.1289 -0.1014
 8142TIP3    H224391   3.608   6.460   5.732  1.1827 -1.0397  1.4176
 8143TIP3   OH224392   5.560   6.271   0.391  0.9682 -0.1317  0.3473
 8143TIP3    H124393   5.543   6.247   0.482  0.4381 -1.4575 -0.0868
 8143TIP3    H224394   5.643   6.227   0.370  0.8222 -0.2579  0.0329
 8144TIP3   OH224395   1.663   4.596   1.373  0.2356  0.5882 -0.1837
 8144TIP3    H124396   1.708   4.525   1.418 -1.2406  1.0196  2.1270
 8144TIP3    H224397   1.617   4.644   1.442  0.4197  3.2626 -1.7547
 8145TIP3   OH224398   5.649   1.583   1.134 -0.2261 -0.3494 -0.2397
 8145TIP3    H124399   5.653   1.571   1.039  0.6535 -1.0688 -0.1262
 8145TIP3    H224400   5.644   1.678   1.146  1.8921 -0.0956 -0.9674
 8146TIP3   OH224401   6.267   2.982   3.939  0.1084 -0.1057 -0.7091
 8146TIP3    H124402   6.334   3.050   3.926  0.0805  0.1304  0.3066
 8146TIP3    H224403   6.196   3.027   3.983  0.3248 -0.9134  0.5072
 8147TIP3   OH224404   5.644   4.828   3.768 -0.1017 -0.5726 -0.0540
 8147TIP3    H124405   5.557   4.814   3.730  0.1795 -2.9434 -0.0277
 8147TIP3    H224406   5.679   4.903   3.721 -2.3535  0.8214  0.3295
 8148TIP3   OH224407   5.193   0.351   5.380 -0.6261  0.7337  0.1871
 8148TIP3    H124408   5.181   0.292   5.454  1.2736 -0.0761 -0.1034
 8148TIP3    H224409   5.156   0.435   5.410 -1.8265 -0.1302  1.2256
 8149TIP3   OH224410   1.279   3.687   4.727 -0.6460  0.1370 -0.3121
 8149TIP3    H124411   1.349   3.726   4.779 -1.0392 -2.6357  2.6650
 8149TIP3    H224412   1.212   3.755   4.722 -0.9097  0.4175  3.7271
 8150TIP3   OH224413   3.006   2.321   1.478  0.2381  0.0275  0.1062
 8150TIP3    H124414   3.038   2.395   1.529 -0.5785  0.2535  0.3073
 8150TIP3    H224415   3.083   2.268   1.461  0.6719  0.4384  0.7701
 8151TIP3   OH224416   0.822   0.720   1.980  0.2007 -0.3570 -0.4177
 8151TIP3    H124417   0.863   0.789   2.031 -2.2377  0.4969  0.5751
 8151TIP3    H224418   0.831   0.748   1.889  0.2106  0.7102 -0.0963
 8152TIP3   OH224419   1.488   0.667   3.733 -0.4363 -0.3964  0.0936
 8152TIP3    H124420   1.517   0.600   3.671 -1.2766 -0.7007  0.0200
 8152TIP3    H224421   1.550   0.661   3.806 -0.6343 -1.4022  0.1887
 8153TIP3   OH224422   0.629   2.790   3.126  0.2076  0.1116  0.1976
 8153TIP3    H124423   0.599   2.751   3.044  0.0063  0.0540  0.2985
 8153TIP3    H224424   0.577   2.747   3.193  0.0187  0.5203  0.3140
 8154TIP3   OH224425   0.838   5.393   1.309  0.6259 -0.5261  0.1934
 8154TIP3    H124426   0.822   5.408   1.216  1.1125  0.6139  0.2845
 8154TIP3    H224427   0.826   5.478   1.350  0.8647 -0.9218  1.1208
 8155TIP3   OH224428   5.057   6.502   1.112  0.1354  0.0059  1.0092
 8155TIP3    H124429   5.078   6.549   1.032  0.0480 -0.6421  0.6026
 8155TIP3    H224430   4.961   6.509   1.120  0.1619  0.2275  1.1628
 8156TIP3   OH224431  -0.005   0.098   3.206 -0.0144  0.1722 -0.0766
 8156TIP3    H124432   0.085   0.087   3.238  0.3718  1.0033 -0.8183
 8156TIP3    H224433   0.000   0.173   3.147 -0.7009 -1.2488 -2.0471
 8157TIP3   OH224434   0.965   3.943   0.973  0.0351 -0.9510  0.4887
 8157TIP3    H124435   0.871   3.956   0.964  0.2312  0.6669  0.4997
 8157TIP3    H224436   1.001   4.032   0.980  1.6653 -1.4927 -0.4879
 8158TIP3   OH224437   2.627   3.518   3.710 -0.1136  0.0883  0.1098
 8158TIP3    H124438   2.655   3.589   3.652  1.5558  0.7071  1.5907
 8158TIP3    H224439   2.604   3.447   3.651  0.0420  1.2015 -1.3469
 8159TIP3   OH224440   3.453   3.174  -0.011 -0.4904 -0.5637 -0.0408
 8159TIP3    H124441   3.453   3.092  -0.061 -1.8982 -0.8686  0.4094
 8159TIP3    H224442   3.437   3.147   0.079 -0.9951  0.2112  0.1098
 8160TIP3   OH224443   6.846   1.884   0.158 -0.3681 -0.6713 -0.4249
 8160TIP3    H124444   6.883   1.889   0.246 -0.0428 -1.1063 -0.5376
 8160TIP3    H224445   6.769   1.827   0.168 -0.4709 -0.5267 -0.3786
 8161TIP3   OH224446   5.272   6.632   0.086  0.0613 -0.2127  0.1448
 8161TIP3    H124447   5.196   6.601   0.135  1.5241 -0.9505  2.0558
 8161TIP3    H224448   5.301   6.710   0.134  1.9760 -1.3781  0.9799
 8162TIP3   OH224449   6.031   2.690   4.127  0.1530 -0.5299  0.1499
 8162TIP3    H124450   5.957   2.737   4.165  0.2724 -0.2477  0.0345
 8162TIP3    H224451   6.104   2.707   4.186  0.5668  0.6559 -0.6695
 8163TIP3   OH224452   0.340   3.414   5.259 -0.8238  0.1468  0.0602
 8163TIP3    H124453   0.360   3.343   5.321  2.0845  1.1547  0.4071
 8163TIP3    H224454   0.390   3.392   5.181 -0.9510  1.1574 -0.3172
 8164TIP3   OH224455   3.421   1.846   0.545  0.0549  0.2098 -0.3412
 8164TIP3    H124456   3.345   1.803   0.584  0.3102  0.8183  0.8627
 8164TIP3    H224457   3.482   1.859   0.618  1.5813 -0.7662 -1.3748
 8165TIP3   OH224458   6.802   3.671   0.841  0.0075  0.3481  0.3030
 8165TIP3    H124459   6.829   3.639   0.927 -0.0753  1.6428  0.8242
 8165TIP3    H224460   6.769   3.759   0.857  1.8193  1.3958 -1.3357
 8166TIP3   OH224461   7.083   2.976   2.523 -0.2616 -0.2446 -0.6125
 8166TIP3    H124462   7.119   3.060   2.494 -0.4021  0.1681  0.3432
 8166TIP3    H224463   6.996   2.998   2.557 -0.6737 -0.9325 -1.1907
 8167TIP3   OH224464   4.593   3.674   1.292 -0.0861  0.3021  0.0555
 8167TIP3    H124465   4.542   3.613   1.345 -0.7853  1.2575  0.5083
 8167TIP3    H224466   4.605   3.751   1.347 -0.4579  1.1504 -1.0008
 8168TIP3   OH224467   1.819   2.133   4.013 -0.1819 -0.3497  0.0662
 8168TIP3    H124468   1.790   2.051   3.972 -0.8294 -1.2292  2.1449
 8168TIP3    H224469   1.857   2.106   4.097 -1.1020  1.5242  1.1548
 8169TIP3   OH224470   2.439   3.375   5.281 -0.0128 -0.4977  0.6751
 8169TIP3    H124471   2.409   3.287   5.260  0.4662 -0.1754 -1.5939
 8169TIP3    H224472   2.359   3.428   5.279 -0.1480 -0.6882  0.9452
 8170TIP3   OH224473   0.371   2.287   0.910  0.3033 -0.3249 -0.7089
 8170TIP3    H124474   0.280   2.265   0.889 -0.4467  1.5137  0.3463
 8170TIP3    H224475   0.374   2.382   0.904  1.7092 -0.2282  0.9782
 8171TIP3   OH224476   2.364   1.495   0.867  0.1201  0.1259  0.1659
 8171TIP3    H124477   2.365   1.519   0.960 -0.9661  1.7503 -0.2065
 8171TIP3    H224478   2.336   1.403   0.867  0.0443  0.1224  1.4265
 8172TIP3   OH224479   2.229   0.186   1.603 -0.2895 -0.1024  0.1845
 8172TIP3    H124480   2.135   0.189   1.585 -0.3481  4.3099  0.1605
 8172TIP3    H224481   2.234   0.155   1.694 -1.8970  0.6905  0.5889
 8173TIP3   OH224482   0.301   0.501   4.003  0.6878 -0.1066 -0.3105
 8173TIP3    H124483   0.365   0.514   3.933 -0.5948 -0.3617 -1.5642
 8173TIP3    H224484   0.236   0.570   3.989 -1.0305 -1.7978 -1.0890
 8174TIP3   OH224485   1.657   6.450   5.714 -0.2137  0.2691 -0.2387
 8174TIP3    H124486   1.667   6.458   5.809 -0.3573  1.3543 -0.3000
 8174TIP3    H224487   1.717   6.379   5.690  1.4409  1.3869  0.4022
 8175TIP3   OH224488   2.202   4.018   2.186 -0.3185 -0.3698  0.2671
 8175TIP3    H124489   2.134   4.062   2.238 -1.2774 -0.4168 -0.9109
 8175TIP3    H224490   2.269   4.086   2.173 -1.3319  0.4880 -0.7100
 8176TIP3   OH224491   4.926   3.803   3.877 -0.7509 -0.0826 -0.7719
 8176TIP3    H124492   4.956   3.894   3.874  0.3672 -0.3934  0.2517
 8176TIP3    H224493   4.854   3.802   3.940  0.4407 -0.2023  0.6363
 8177TIP3   OH224494   6.887   3.423   3.774 -0.8504 -0.6663 -0.4017
 8177TIP3    H124495   6.943   3.498   3.791 -0.3805 -1.4306  1.7540
 8177TIP3    H224496   6.924   3.381   3.696  1.6052 -1.1154  0.9263
 8178TIP3   OH224497   3.770   1.223   1.196  0.4205 -0.3258  0.3488
 8178TIP3    H124498   3.852   1.245   1.239 -0.4164  1.4763  1.1359
 8178TIP3    H224499   3.791   1.149   1.140  2.0601 -1.3373  2.1938
 8179TIP3   OH224500   1.581   5.085   1.776  0.1849  0.4073 -0.1308
 8179TIP3    H124501   1.627   5.151   1.827 -0.6314  1.3254 -0.5349
 8179TIP3    H224502   1.601   5.002   1.820 -0.9088  1.1934  2.0261
 8180TIP3   OH224503   0.464   5.664   3.079  0.0207  0.2061  0.2189
 8180TIP3    H124504   0.407   5.671   3.156 -2.3127  0.1030 -1.3955
 8180TIP3    H224505   0.409   5.625   3.012  2.3681 -0.9220 -1.1798
 8181TIP3   OH224506   0.276   0.776   2.009  0.0706 -0.8973 -0.1689
 8181TIP3    H124507   0.242   0.687   2.001 -2.2817 -0.1819  0.9474
 8181TIP3    H224508   0.298   0.801   1.919 -1.2760 -1.8642 -0.8145
 8182TIP3   OH224509   4.816   5.332   3.402  0.0117 -0.3910  0.4110
 8182TIP3    H124510   4.737   5.359   3.449 -0.9279 -0.5198 -1.0038
 8182TIP3    H224511   4.850   5.258   3.452 -0.2491  0.2328  1.5303
 8183TIP3   OH224512   6.623   0.316   1.705  0.0858 -0.5572  0.3098
 8183TIP3    H124513   6.697   0.376   1.715  0.9105 -1.4887 -0.0616
 8183TIP3    H224514   6.602   0.290   1.795  1.2844 -1.5347  0.3341
 8184TIP3   OH224515   2.541   1.452   1.593 -0.6635 -0.7804 -0.6034
 8184TIP3    H124516   2.491   1.525   1.629  0.0321 -0.9363  0.7349
 8184TIP3    H224517   2.485   1.376   1.607 -0.6947 -0.7365 -0.4877
 8185TIP3   OH224518   0.587   0.640   3.124  0.4934 -0.5906 -0.1328
 8185TIP3    H124519   0.540   0.699   3.183 -0.5576 -0.8078 -0.7161
 8185TIP3    H224520   0.645   0.589   3.180 -0.5850 -0.8878  0.7282
 8186TIP3   OH224521   4.137   5.443   5.071  0.1321 -0.0179  0.3888
 8186TIP3    H124522   4.144   5.387   5.149  1.9554  0.7952  0.8649
 8186TIP3    H224523   4.154   5.383   4.998  0.2863 -0.4379  0.7584
 8187TIP3   OH224524   4.212   1.789   2.531  0.2292  0.1459 -0.2761
 8187TIP3    H124525   4.238   1.865   2.480  0.6604  0.0683 -0.1799
 8187TIP3    H224526   4.253   1.715   2.486 -1.3161 -0.2082 -1.1823
 8188TIP3   OH224527   4.354   4.161   3.469 -0.0475  0.5682  0.0110
 8188TIP3    H124528   4.440   4.201   3.456  0.1659 -0.1065 -0.7559
 8188TIP3    H224529   4.367   4.098   3.540  0.0729  0.5346 -0.0405
 8189TIP3   OH224530   3.580   3.961   3.246  0.2338 -0.0109  0.0611
 8189TIP3    H124531   3.634   3.912   3.309 -0.8983 -2.0263 -0.4358
 8189TIP3    H224532   3.503   3.988   3.297  0.4348  0.4717  0.1120
 8190TIP3   OH224533   7.001   5.949   4.332 -0.7013 -0.5803  0.1397
 8190TIP3    H124534   6.962   6.007   4.266  0.1074  1.0034  1.0048
 8190TIP3    H224535   6.998   5.862   4.292 -0.5684  0.2786 -1.8329
 8191TIP3   OH224536   6.112   4.440   2.089  0.7079 -0.4074 -0.0219
 8191TIP3    H124537   6.080   4.455   2.178  2.3143  1.1760  0.3431
 8191TIP3    H224538   6.051   4.376   2.052 -1.8077  1.1160  1.2031
 8192TIP3   OH224539   6.758   1.178   5.750 -0.5332 -0.1995  0.4084
 8192TIP3    H124540   6.809   1.193   5.830  0.4657 -1.5399  0.0475
 8192TIP3    H224541   6.668   1.168   5.781 -0.3762  0.7426  1.2079
 8193TIP3   OH224542   6.870   1.365   3.319 -0.8395  0.1168 -0.0728
 8193TIP3    H124543   6.819   1.437   3.281 -1.7837  1.5816  3.5381
 8193TIP3    H224544   6.958   1.400   3.329 -1.0438  0.4240  0.7189
 8194TIP3   OH224545   4.816   4.094   0.887 -0.1349 -0.1428 -0.4979
 8194TIP3    H124546   4.798   4.018   0.832  0.1374  0.0722 -0.8921
 8194TIP3    H224547   4.871   4.059   0.957  1.1376 -0.0822 -1.4139
 8195TIP3   OH224548   0.086   2.421   1.660  0.0641 -0.5269 -0.5822
 8195TIP3    H124549   0.156   2.422   1.726 -0.5469 -0.4035  0.0689
 8195TIP3    H224550   0.125   2.466   1.584 -0.0322  1.6448  0.5570
 8196TIP3   OH224551   6.952   0.530   0.183  0.1600  0.0019 -0.0323
 8196TIP3    H124552   7.024   0.525   0.120  0.2933  2.9197 -0.2052
 8196TIP3    H224553   6.883   0.577   0.137 -2.0388 -2.8104  0.0859
 8197TIP3   OH224554   1.396   4.330   1.844  0.5766  0.0101  0.0856
 8197TIP3    H124555   1.386   4.252   1.898  1.1934  0.1294  0.3858
 8197TIP3    H224556   1.362   4.401   1.898  2.9598  0.4403  1.1716
 8198TIP3   OH224557   1.839   0.974   0.718 -0.3200  0.3463 -0.3794
 8198TIP3    H124558   1.825   1.059   0.759 -1.3975 -0.3459  0.7634
 8198TIP3    H224559   1.920   0.941   0.757 -1.1808 -0.1803  1.0422
 8199TIP3   OH224560   1.945   2.639   0.421  0.4331 -0.6162 -0.2480
 8199TIP3    H124561   1.971   2.674   0.507  1.0060 -0.4281 -0.4938
 8199TIP3    H224562   1.850   2.644   0.422  0.4583  2.9906 -1.0889
 8200TIP3   OH224563   3.405   1.463   4.313  0.1448  0.0117 -0.0012
 8200TIP3    H124564   3.499   1.446   4.314  0.1021 -0.2363  0.9645
 8200TIP3    H224565   3.395   1.541   4.258  0.7976 -0.5399 -0.9300
 8201TIP3   OH224566   5.746   0.652   1.998  0.2884 -0.4704 -0.0134
 8201TIP3    H124567   5.718   0.562   2.016  0.6475 -0.4335  0.7865
 8201TIP3    H224568   5.800   0.645   1.920 -0.3795 -0.8167 -0.4584
 8202TIP3   OH224569   3.777   6.824   0.532  0.4407  0.2450 -0.5048
 8202TIP3    H124570   3.808   6.842   0.621 -1.4883 -1.0486  0.4970
 8202TIP3    H224571   3.810   6.736   0.512  1.4471  0.7929 -1.3952
 8203TIP3   OH224572   0.909   1.601   5.390  0.4656 -0.1917 -0.2610
 8203TIP3    H124573   0.873   1.688   5.406 -0.8346 -0.8666  0.6997
 8203TIP3    H224574   0.955   1.578   5.470 -0.5428 -0.9828  0.1266
 8204TIP3   OH224575   6.979   2.185   3.757  0.0743 -0.1739 -0.1272
 8204TIP3    H124576   6.948   2.207   3.669  0.4463 -0.6151 -0.3684
 8204TIP3    H224577   6.983   2.090   3.758  2.3084 -0.1275 -0.4154
 8205TIP3   OH224578   4.097   4.145   0.560  0.2729 -0.4120  0.4644
 8205TIP3    H124579   4.050   4.219   0.597 -0.7363 -1.0057  0.4080
 8205TIP3    H224580   4.172   4.132   0.618 -0.3659 -0.2769  1.3372
 8206TIP3   OH224581   3.816   4.372   1.349  0.0248  0.4540 -0.4266
 8206TIP3    H124582   3.793   4.426   1.273  0.7714  1.6469  0.1649
 8206TIP3    H224583   3.876   4.306   1.314  0.0802  0.7730 -0.9406
 8207TIP3   OH224584   0.414   4.035   2.538 -0.0954 -0.5387 -0.2505
 8207TIP3    H124585   0.468   3.983   2.598  0.9511 -0.8805 -1.4517
 8207TIP3    H224586   0.324   4.017   2.565  0.3141 -1.3579  0.6548
 8208TIP3   OH224587   3.354   3.625   2.308 -0.2250 -0.0001  0.6280
 8208TIP3    H124588   3.375   3.668   2.391 -0.1800  1.5509 -0.1469
 8208TIP3    H224589   3.431   3.643   2.252 -1.3709  1.3763 -0.6030
 8209TIP3   OH224590   0.519   5.882   4.213 -0.8321 -0.6730  0.8199
 8209TIP3    H124591   0.506   5.796   4.174  0.1105  0.5161 -2.4664
 8209TIP3    H224592   0.434   5.924   4.209 -0.4247  0.0504 -1.8291
 8210TIP3   OH224593   0.723   4.204   2.814 -0.1302 -0.0522 -1.0113
 8210TIP3    H124594   0.756   4.287   2.846 -1.0467  1.0368 -2.7235
 8210TIP3    H224595   0.638   4.194   2.857  0.9276 -1.3053  0.9609
 8211TIP3   OH224596   7.112   6.558   1.758  0.7475 -0.4661  0.1974
 8211TIP3    H124597   7.098   6.465   1.745  2.0922 -0.4267 -1.8232
 8211TIP3    H224598   7.025   6.597   1.746  0.5466 -1.2526 -1.0022
 8212TIP3   OH224599   0.470   3.252   2.729 -0.2927 -0.1218  0.1091
 8212TIP3    H124600   0.410   3.179   2.746 -0.5963 -0.0782 -0.7196
 8212TIP3    H224601   0.413   3.329   2.724 -0.0878  0.0208 -0.0271
 8213TIP3   OH224602   0.245   1.367   5.707 -0.1106  0.1208  0.3491
 8213TIP3    H124603   0.205   1.302   5.649  0.0850 -0.3986  0.7869
 8213TIP3    H224604   0.188   1.369   5.784  0.2219  0.0073  0.6034
 8214TIP3   OH224605   0.840   3.718   5.310 -0.5275 -0.4027  0.3120
 8214TIP3    H124606   0.924   3.722   5.355 -0.3558  0.6666 -0.0687
 8214TIP3    H224607   0.863   3.695   5.220 -0.4719  1.3295 -0.1520
 8215TIP3   OH224608   0.770   0.508   3.314 -0.3658 -0.5595 -0.5067
 8215TIP3    H124609   0.842   0.570   3.318 -1.3684  0.8157 -2.0504
 8215TIP3    H224610   0.729   0.512   3.400  1.8528 -2.0542  0.7156
 8216TIP3   OH224611   6.622   6.386   0.884  0.4346 -0.0587  0.1750
 8216TIP3    H124612   6.591   6.477   0.891 -0.0741  0.1780 -3.4174
 8216TIP3    H224613   6.541   6.335   0.876  0.7678 -0.4143 -1.0418
 8217TIP3   OH224614   5.231   3.844   4.848 -0.5494 -0.5528 -0.0353
 8217TIP3    H124615   5.180   3.771   4.810 -1.0826  0.7491 -1.9976
 8217TIP3    H224616   5.188   3.922   4.814  1.8995  0.6340 -0.6070
 8218TIP3   OH224617   0.543   6.737   2.303 -0.4313  0.0459  0.5184
 8218TIP3    H124618   0.593   6.800   2.355 -0.8955  0.4860  0.4422
 8218TIP3    H224619   0.466   6.716   2.357  0.1087 -1.0698  0.8864
 8219TIP3   OH224620   6.229   5.746   5.162  0.2813 -0.3341  0.5601
 8219TIP3    H124621   6.204   5.656   5.143  0.4030  0.0325 -1.5378
 8219TIP3    H224622   6.318   5.739   5.196  1.3893 -0.8576 -2.2318
 8220TIP3   OH224623   2.528   6.544   2.302 -0.0165  0.1371 -0.1953
 8220TIP3    H124624   2.562   6.458   2.279 -1.1350 -0.0481 -1.2837
 8220TIP3    H224625   2.606   6.600   2.309  0.5538 -0.3324 -2.2585
 8221TIP3   OH224626   0.321   1.710   3.683  0.0052 -0.2950  0.5410
 8221TIP3    H124627   0.260   1.778   3.708 -0.8357  0.1597 -2.3531
 8221TIP3    H224628   0.403   1.732   3.728 -0.4973  2.1521  0.3457
 8222TIP3   OH224629   5.787   3.410   1.281  0.4816 -0.0535  0.0786
 8222TIP3    H124630   5.870   3.437   1.240 -0.5808  0.4345 -1.8905
 8222TIP3    H224631   5.813   3.344   1.345  2.5000  0.9416  0.3706
 8223TIP3   OH224632   5.715   5.690   2.356 -0.5299  0.1380 -0.3603
 8223TIP3    H124633   5.703   5.781   2.328 -0.4376  0.1616 -0.3259
 8223TIP3    H224634   5.810   5.683   2.371 -0.8454  1.0743  3.0276
 8224TIP3   OH224635   3.035   1.195   3.353  1.1535  0.6096  0.5209
 8224TIP3    H124636   2.946   1.216   3.382  1.2465  0.7658  0.6894
 8224TIP3    H224637   3.036   1.099   3.348  0.2505  0.6466 -1.7330
 8225TIP3   OH224638   0.921   6.331   0.798  0.3479  0.1545  0.1620
 8225TIP3    H124639   0.885   6.276   0.868 -0.9864 -1.1159 -1.4507
 8225TIP3    H224640   0.981   6.273   0.751 -0.4728  0.3025 -1.0935
 8226TIP3   OH224641   2.738   5.069   5.223  0.4942 -0.5965  0.0912
 8226TIP3    H124642   2.676   5.039   5.156  0.3888  0.7913 -0.4709
 8226TIP3    H224643   2.797   4.994   5.236 -0.6643 -1.5768 -0.1095
 8227TIP3   OH224644   3.265   2.943   0.423 -0.0028  0.5894 -0.0534
 8227TIP3    H124645   3.330   2.875   0.438  0.9636  1.4195 -0.3364
 8227TIP3    H224646   3.186   2.896   0.399 -0.0073 -0.5214  1.9544
 8228TIP3   OH224647   4.809   6.224   1.912 -0.0231 -0.6470  0.5392
 8228TIP3    H124648   4.861   6.148   1.936 -0.6869 -1.4093 -0.3499
 8228TIP3    H224649   4.719   6.193   1.913 -0.2309 -0.2100 -0.9276
 8229TIP3   OH224650   5.374   6.597   0.786  0.3061 -0.2378  0.0369
 8229TIP3    H124651   5.349   6.508   0.813  1.3269 -0.6760 -0.4091
 8229TIP3    H224652   5.452   6.585   0.733  1.2095  1.0388  1.0192
 8230TIP3   OH224653   1.548   6.325   4.522  0.1307 -0.3084  0.3088
 8230TIP3    H124654   1.578   6.258   4.461  0.2325 -1.7010  1.8113
 8230TIP3    H224655   1.477   6.369   4.477  1.4804  0.0484 -1.5719
 8231TIP3   OH224656   1.797   1.989  -0.006  0.2419 -0.0255  0.3171
 8231TIP3    H124657   1.783   2.001   0.088  2.0064 -2.8292  1.0759
 8231TIP3    H224658   1.709   1.977  -0.041 -0.6403  3.2125  1.1463
 8232TIP3   OH224659   1.649   6.452   5.191 -0.5455  0.0042  0.1983
 8232TIP3    H124660   1.732   6.412   5.219 -0.4510  0.4534  0.5665
 8232TIP3    H224661   1.656   6.544   5.218 -1.1759  0.0399  0.2605
 8233TIP3   OH224662   0.211   0.985   5.239 -0.5381 -0.4364  0.0788
 8233TIP3    H124663   0.282   1.039   5.274  0.5762 -0.8027 -1.5147
 8233TIP3    H224664   0.134   1.041   5.243  0.0940  0.4074  0.7074
 8234TIP3   OH224665   3.996   0.108   2.766  0.2402 -0.4070 -0.2423
 8234TIP3    H124666   4.061   0.054   2.721  0.8632 -0.6481  0.8995
 8234TIP3    H224667   3.991   0.188   2.714  1.0647 -0.6018 -0.6457
 8235TIP3   OH224668   4.369   4.557   2.302 -0.5770  0.4530  0.2203
 8235TIP3    H124669   4.450   4.538   2.254 -1.1776  1.9820 -1.4994
 8235TIP3    H224670   4.369   4.494   2.374  2.5001  0.8318  0.7185
 8236TIP3   OH224671   4.921   3.836   5.531 -0.0649 -0.4031  0.4437
 8236TIP3    H124672   5.010   3.869   5.525 -0.7467  1.2404 -2.5406
 8236TIP3    H224673   4.930   3.741   5.533  1.7581 -0.3827 -2.1494
 8237TIP3   OH224674   3.441   5.415   1.191  0.0517 -0.0643  0.7106
 8237TIP3    H124675   3.500   5.343   1.214  0.2789  0.7858  3.0559
 8237TIP3    H224676   3.442   5.417   1.095  0.2481 -2.9726  0.5707
 8238TIP3   OH224677   5.081   1.026   4.561 -0.4130 -0.2945  0.1576
 8238TIP3    H124678   5.095   1.114   4.598 -1.4344 -0.9881  2.3906
 8238TIP3    H224679   5.165   0.982   4.574 -0.9367 -0.7626  2.5881
 8239TIP3   OH224680   0.991   2.525   5.692  0.4424 -0.4482  0.3536
 8239TIP3    H124681   1.020   2.616   5.687 -1.3825  0.1745  0.2242
 8239TIP3    H224682   1.043   2.479   5.627  0.7020  0.7085 -0.2845
 8240TIP3   OH224683   6.071   6.138   3.335  0.6274 -0.4521  0.1286
 8240TIP3    H124684   6.105   6.222   3.365  1.1360  0.0656 -1.7726
 8240TIP3    H224685   6.141   6.076   3.352  1.1348 -0.0596 -0.4735
 8241TIP3   OH224686   0.817   3.913   0.228 -0.5748 -0.1170  0.0483
 8241TIP3    H124687   0.741   3.905   0.286 -1.5752  0.3797 -1.1399
 8241TIP3    H224688   0.807   3.842   0.165  0.3337 -0.4670  0.2807
 8242TIP3   OH224689   6.565   1.519   2.522 -0.6141 -0.1440  0.1035
 8242TIP3    H124690   6.476   1.499   2.551 -0.6865  0.5963  0.4177
 8242TIP3    H224691   6.603   1.434   2.499 -1.3826 -0.4689  0.0110
 8243TIP3   OH224692   6.672   5.223   0.519  0.2322 -0.8329  0.2965
 8243TIP3    H124693   6.632   5.161   0.580 -0.3036  0.1044  0.9344
 8243TIP3    H224694   6.699   5.170   0.445 -1.1416 -1.6849  0.3685
 8244TIP3   OH224695   0.558   0.031   5.155  0.2603 -0.5413 -0.3167
 8244TIP3    H124696   0.607   0.110   5.179  1.6324 -1.5644  0.3576
 8244TIP3    H224697   0.528  -0.005   5.238 -1.2049 -0.2357 -0.6874
 8245TIP3   OH224698   4.691   2.779   1.817 -0.1637 -0.0292 -0.0106
 8245TIP3    H124699   4.754   2.843   1.851 -0.8660  1.4897 -1.3927
 8245TIP3    H224700   4.605   2.816   1.840 -0.6858  1.1427 -3.2848
 8246TIP3   OH224701   5.408   1.485   1.343  0.0371  0.2038 -0.6104
 8246TIP3    H124702   5.437   1.396   1.363 -2.0277 -0.0635  1.7632
 8246TIP3    H224703   5.457   1.540   1.404 -0.7202  0.3221 -0.0901
 8247TIP3   OH224704   2.831   1.351   4.797  0.3650  0.0459  0.0269
 8247TIP3    H124705   2.859   1.387   4.881  0.3319 -1.0965  0.5471
 8247TIP3    H224706   2.845   1.422   4.734  0.1761  0.9917  1.0304
 8248TIP3   OH224707   6.874   6.210   0.774 -0.2618  0.6493  0.0579
 8248TIP3    H124708   6.865   6.265   0.852  0.3731  0.8760 -0.0237
 8248TIP3    H224709   6.792   6.224   0.726 -0.5907  0.6280  0.6033
 8249TIP3   OH224710   6.019   2.836   0.907  0.4129 -0.4072  0.4233
 8249TIP3    H124711   5.926   2.841   0.884  0.3617 -1.9320  0.2002
 8249TIP3    H224712   6.022   2.853   1.001 -0.2914 -1.8164  0.7344
 8250TIP3   OH224713   2.042   5.266   2.629  0.1670 -0.2000  1.1535
 8250TIP3    H124714   2.132   5.290   2.652 -0.0045  0.0327  1.5984
 8250TIP3    H224715   2.006   5.229   2.709 -0.3522  0.3636  1.1862
 8251TIP3   OH224716   5.277   5.335   5.661  0.6921  0.7822  0.1571
 8251TIP3    H124717   5.252   5.324   5.569  3.3549  2.1528 -0.8298
 8251TIP3    H224718   5.308   5.425   5.667  2.0732  0.2420  2.0174
 8252TIP3   OH224719   1.815   4.679   0.358  0.2239  0.1091  0.2430
 8252TIP3    H124720   1.801   4.694   0.452  0.5430  2.1760  0.0115
 8252TIP3    H224721   1.850   4.762   0.326  1.1354 -0.9134 -1.5223
 8253TIP3   OH224722   4.768   3.234   5.048  0.1936  0.8181  0.7578
 8253TIP3    H124723   4.740   3.146   5.022 -0.3739  1.3010 -0.3040
 8253TIP3    H224724   4.711   3.256   5.122  0.6275  0.1348  1.3092
 8254TIP3   OH224725   7.001   6.542   0.041 -0.2867 -0.4281  0.0557
 8254TIP3    H124726   7.005   6.548   0.136  0.7089  1.2151 -0.0497
 8254TIP3    H224727   7.092   6.550   0.012 -0.5679 -0.9904 -1.0334
 8255TIP3   OH224728   2.273   6.824   5.667 -0.5066  0.5462  0.5161
 8255TIP3    H124729   2.284   6.791   5.756 -0.1592  3.4504  1.6415
 8255TIP3    H224730   2.299   6.750   5.611 -0.7919 -1.3838  2.7616
 8256TIP3   OH224731   6.537   0.273   3.304  0.3990  0.3394 -0.3883
 8256TIP3    H124732   6.555   0.184   3.334 -0.0700  0.1360 -0.6882
 8256TIP3    H224733   6.578   0.278   3.217  0.3090  0.3675 -0.4299
 8257TIP3   OH224734   5.816   2.915   4.987 -0.7857 -0.2051  0.5895
 8257TIP3    H124735   5.878   2.844   5.000  0.2061  0.5302 -0.0052
 8257TIP3    H224736   5.834   2.948   4.899 -2.2988 -0.2292  0.2387
 8258TIP3   OH224737   6.641   5.421   1.902  0.1885 -0.1659  0.0946
 8258TIP3    H124738   6.650   5.367   1.981 -0.7399  0.5340  0.7061
 8258TIP3    H224739   6.624   5.358   1.832 -1.1807 -0.6836  0.8455
 8259TIP3   OH224740   6.986   1.193   2.409  0.0458  0.2694 -0.4243
 8259TIP3    H124741   7.081   1.192   2.405  0.0625 -0.1589 -0.0029
 8259TIP3    H224742   6.957   1.165   2.322  0.2651  2.9848 -1.4714
 8260TIP3   OH224743   7.037   4.199   3.831  0.2271 -0.6026  0.8836
 8260TIP3    H124744   6.981   4.233   3.761  0.7216 -1.3013  0.1187
 8260TIP3    H224745   7.119   4.247   3.822 -0.2717  0.5400  2.1117
 8261TIP3   OH224746   4.192   6.645   2.610  0.5254 -0.3788 -0.0626
 8261TIP3    H124747   4.120   6.642   2.672  0.7614 -0.6035  0.2038
 8261TIP3    H224748   4.157   6.692   2.534 -0.1303 -1.1163 -0.2334
 8262TIP3   OH224749   2.343   4.306   1.647  0.7599  0.2231  0.4806
 8262TIP3    H124750   2.411   4.318   1.714  0.0666 -1.4381  1.5403
 8262TIP3    H224751   2.388   4.260   1.576  0.6738 -1.4035  1.4226
 8263TIP3   OH224752   6.296   1.172   2.411 -0.1817 -0.4157 -0.3455
 8263TIP3    H124753   6.256   1.096   2.453 -1.6910 -0.1759 -1.2682
 8263TIP3    H224754   6.268   1.167   2.319  0.1799  0.9211 -0.5608
 8264TIP3   OH224755   1.076   6.304   4.850  0.1656  0.0418 -0.2833
 8264TIP3    H124756   1.071   6.209   4.865 -0.8903  0.0717 -0.4186
 8264TIP3    H224757   1.135   6.335   4.918 -0.3482 -0.5657  0.4604
 8265TIP3   OH224758   1.645   1.061   5.706  0.3979 -0.2844 -0.1860
 8265TIP3    H124759   1.649   1.144   5.753  1.4892 -0.6906  0.4729
 8265TIP3    H224760   1.650   1.085   5.614 -2.4578  0.5696 -0.2145
 8266TIP3   OH224761   2.147   1.222   1.786 -0.1738 -0.0772 -0.1952
 8266TIP3    H124762   2.104   1.297   1.828  1.5715  1.3714 -0.8496
 8266TIP3    H224763   2.079   1.155   1.780 -1.4311  0.9336  1.6874
 8267TIP3   OH224764   1.860   0.640   4.601 -0.1669 -0.0374  0.4696
 8267TIP3    H124765   1.845   0.595   4.519 -0.5407  0.1685  0.4243
 8267TIP3    H224766   1.824   0.582   4.668  2.0087 -1.2253  0.7250
 8268TIP3   OH224767   0.540   6.437   1.530 -0.3341 -0.2392 -0.1073
 8268TIP3    H124768   0.497   6.390   1.459 -1.2702  0.8158 -0.2760
 8268TIP3    H224769   0.468   6.477   1.579  0.4094  0.7611  0.1958
 8269TIP3   OH224770   4.844   3.437   0.624  0.1317 -0.0683 -0.3212
 8269TIP3    H124771   4.799   3.520   0.641  0.5345 -0.1700  1.4117
 8269TIP3    H224772   4.847   3.431   0.528 -0.4848  1.5842 -0.4839
 8270TIP3   OH224773   5.875   5.777   5.182  0.1721 -0.1968  0.5227
 8270TIP3    H124774   5.946   5.721   5.213 -0.5183 -1.3175  0.1472
 8270TIP3    H224775   5.798   5.748   5.231 -0.4711 -0.4790 -0.6217
 8271TIP3   OH224776   0.778   5.948   1.237 -0.5155 -0.4834  0.2766
 8271TIP3    H124777   0.723   5.943   1.158  0.2880 -1.2753 -0.2515
 8271TIP3    H224778   0.716   5.966   1.308 -1.1344  1.3124 -0.6606
 8272TIP3   OH224779   4.751   2.632   4.876  0.1226 -0.0521 -0.0425
 8272TIP3    H124780   4.717   2.672   4.956 -0.6425  0.0576 -0.4082
 8272TIP3    H224781   4.831   2.587   4.903 -0.0419  0.1180  0.7476
 8273TIP3   OH224782   1.574   1.259   3.265 -0.2495 -0.0583 -0.2500
 8273TIP3    H124783   1.594   1.188   3.203 -0.3313 -0.3718  0.0791
 8273TIP3    H224784   1.479   1.259   3.271 -0.3220  0.8768 -1.1679
 8274TIP3   OH224785   3.759   0.635   0.301  0.2508  0.8598  0.0547
 8274TIP3    H124786   3.792   0.648   0.390  0.2035  0.1934  0.1741
 8274TIP3    H224787   3.812   0.564   0.265 -0.7400  0.0788  0.0898
 8275TIP3   OH224788   6.167   4.838   2.816  0.2454 -0.1396 -0.0004
 8275TIP3    H124789   6.181   4.746   2.791 -1.7142 -0.4978  0.0950
 8275TIP3    H224790   6.073   4.845   2.831  0.2229  2.1013 -0.8068
 8276TIP3   OH224791   5.133   2.505   3.337 -1.0329 -0.6927 -0.1791
 8276TIP3    H124792   5.150   2.593   3.304 -1.2120 -0.9098 -0.8721
 8276TIP3    H224793   5.046   2.509   3.375 -1.4382 -0.7979 -1.0719
 8277TIP3   OH224794   6.802   2.499   3.278  0.1879  0.3473  0.2352
 8277TIP3    H124795   6.795   2.421   3.223 -0.4502  0.5875 -0.0357
 8277TIP3    H224796   6.871   2.552   3.236  0.9590 -0.2720  0.6897
 8278TIP3   OH224797   4.173   3.466   3.879  0.1310 -0.1687  0.5636
 8278TIP3    H124798   4.167   3.451   3.784 -0.3749 -0.3725  0.6206
 8278TIP3    H224799   4.197   3.558   3.887  0.5588 -0.2490  0.2301
 8279TIP3   OH224800   6.509   0.266   2.989  0.6846 -0.2925 -0.0747
 8279TIP3    H124801   6.458   0.252   2.909 -1.7158  1.4904  1.0188
 8279TIP3    H224802   6.481   0.196   3.048  0.7374 -0.2909 -0.0483
 8280TIP3   OH224803   4.900   0.220   5.321  0.5220 -0.4912  0.4452
 8280TIP3    H124804   4.966   0.151   5.328 -0.4732 -1.5917 -0.3583
 8280TIP3    H224805   4.854   0.200   5.239 -0.4548  0.5444  0.7167
 8281TIP3   OH224806   5.325   1.090   5.222  0.2167 -0.1031  0.0161
 8281TIP3    H124807   5.392   1.025   5.200 -0.1501 -0.8791  1.1574
 8281TIP3    H224808   5.276   1.052   5.294 -0.8305  0.8945 -0.1342
 8282TIP3   OH224809   3.245   5.155   4.871 -0.0729  0.9494 -0.2370
 8282TIP3    H124810   3.265   5.249   4.870 -0.3212  1.0023 -0.4066
 8282TIP3    H224811   3.177   5.146   4.938 -1.0525  1.1094 -1.1620
 8283TIP3   OH224812   2.940   5.350   5.844  0.4434 -0.0623 -0.1694
 8283TIP3    H124813   2.965   5.349   5.936  1.9657 -0.4420 -0.5607
 8283TIP3    H224814   2.977   5.432   5.811 -0.0149  0.0249 -0.4731
 8284TIP3   OH224815   2.481   1.994   5.193 -0.1024  0.2162 -0.1528
 8284TIP3    H124816   2.477   2.049   5.114  3.1484  1.9527  0.6862
 8284TIP3    H224817   2.425   2.039   5.256 -1.4489 -0.2923 -0.9572
 8285TIP3   OH224818   1.370   2.989   3.948  0.1230 -0.4028  0.5761
 8285TIP3    H124819   1.303   2.967   4.013 -0.1756 -0.5846  0.2114
 8285TIP3    H224820   1.349   2.934   3.873  0.4003 -0.1122  0.2842
 8286TIP3   OH224821   5.859   4.633   4.205 -0.0439  0.3744 -0.3800
 8286TIP3    H124822   5.858   4.693   4.280 -0.1590 -0.2723  0.1511
 8286TIP3    H224823   5.952   4.623   4.184 -0.0096  0.5574 -0.3161
 8287TIP3   OH224824   1.808   5.506   3.875 -0.2382  0.3833  0.3201
 8287TIP3    H124825   1.882   5.562   3.896 -0.0194  0.9239 -1.6819
 8287TIP3    H224826   1.731   5.557   3.901  0.0263  0.0603  1.8535
 8288TIP3   OH224827   1.302   4.299   0.129  0.1561  0.0877 -0.2687
 8288TIP3    H124828   1.328   4.339   0.045  1.0401  0.3406  0.1095
 8288TIP3    H224829   1.226   4.245   0.107 -0.2148  0.8892 -1.0561
 8289TIP3   OH224830   3.071   4.527   4.368 -0.2886  0.2649  0.2422
 8289TIP3    H124831   3.094   4.435   4.355 -1.3541 -0.0010  0.1599
 8289TIP3    H224832   2.978   4.526   4.388 -0.1733  1.2806  0.8799
 8290TIP3   OH224833   1.801   0.482   2.012  0.4216  0.3792 -0.1542
 8290TIP3    H124834   1.719   0.447   2.046  0.4952 -2.4983 -2.4792
 8290TIP3    H224835   1.774   0.554   1.955 -0.7814 -1.5202 -2.1378
 8291TIP3   OH224836   0.723   4.454   5.301  1.0430  0.2966  0.4846
 8291TIP3    H124837   0.781   4.386   5.335  1.2465  0.2829  0.1190
 8291TIP3    H224838   0.636   4.431   5.334  0.9843 -0.5632 -0.2358
 8292TIP3   OH224839   4.337   0.420   3.408  0.6587 -0.2751 -0.5848
 8292TIP3    H124840   4.305   0.360   3.476 -0.2217 -1.0289 -1.6288
 8292TIP3    H224841   4.425   0.388   3.388 -0.7517 -3.0504 -3.0606
 8293TIP3   OH224842   6.552   0.321   3.681  0.2443  0.2194 -0.1339
 8293TIP3    H124843   6.472   0.368   3.705 -1.3516 -1.6713 -1.3458
 8293TIP3    H224844   6.590   0.371   3.610 -0.2763  0.7765 -0.0249
 8294TIP3   OH224845   0.579   6.223   2.458 -0.3726 -0.3404 -0.4656
 8294TIP3    H124846   0.663   6.177   2.457  0.2481  0.6472  1.3927
 8294TIP3    H224847   0.520   6.166   2.507 -0.1511 -0.0286  0.1646
 8295TIP3   OH224848   4.866   4.843   1.768 -0.4751 -0.7401  0.4765
 8295TIP3    H124849   4.811   4.771   1.796 -1.8973  0.5214  1.0230
 8295TIP3    H224850   4.818   4.922   1.793  0.4016  0.4169 -1.2762
 8296TIP3   OH224851   1.314   0.075   0.024 -0.3801  0.2559 -0.4881
 8296TIP3    H124852   1.358  -0.003   0.057 -1.5299 -0.1063  0.2199
 8296TIP3    H224853   1.340   0.080  -0.068 -0.0621 -0.7876 -0.4622
 8297TIP3   OH224854   2.877   1.602   0.563 -0.0586 -0.5218 -0.2929
 8297TIP3    H124855   2.909   1.515   0.589 -0.0212 -1.1918 -2.4483
 8297TIP3    H224856   2.808   1.584   0.499 -0.7849  1.0441  0.0119
 8298TIP3   OH224857   2.876   2.366   2.725  0.1512  0.7641 -0.5480
 8298TIP3    H124858   2.851   2.426   2.795 -1.8414  0.6358 -1.0902
 8298TIP3    H224859   2.902   2.286   2.770 -0.6805  0.8379  0.0765
 8299TIP3   OH224860   0.151   6.400   1.240 -0.2575 -0.0186 -0.0432
 8299TIP3    H124861   0.139   6.308   1.265 -1.7143  0.3011  0.5526
 8299TIP3    H224862   0.086   6.415   1.171  0.5633  0.3545 -0.7595
 8300TIP3   OH224863   6.285   2.496   3.272  0.4288  0.4962 -0.0102
 8300TIP3    H124864   6.375   2.514   3.301  0.6323 -0.8882  0.2884
 8300TIP3    H224865   6.288   2.406   3.241 -1.2447 -0.1883  1.6773
 8301TIP3   OH224866   4.831   3.592   5.240 -0.0339 -0.1196  0.1942
 8301TIP3    H124867   4.737   3.607   5.253 -0.0519 -0.9886  1.1425
 8301TIP3    H224868   4.862   3.557   5.323  1.2136  0.4821  0.0116
 8302TIP3   OH224869   0.370   2.078   0.242 -0.0725 -0.1321  0.0652
 8302TIP3    H124870   0.293   2.021   0.249 -0.2552  0.2698  1.4710
 8302TIP3    H224871   0.439   2.032   0.288 -0.3330  0.9422  1.5853
 8303TIP3   OH224872   0.267   6.760   2.655 -0.1855  0.7270 -0.1515
 8303TIP3    H124873   0.346   6.812   2.640  0.0406  0.4988  0.2455
 8303TIP3    H224874   0.199   6.825   2.677 -0.1141  0.9215 -0.4847
 8304TIP3   OH224875   4.989   3.371   0.151 -0.2889  0.3764  0.3534
 8304TIP3    H124876   4.965   3.424   0.075  2.3324  0.4225 -0.5451
 8304TIP3    H224877   4.989   3.281   0.119 -0.6477  0.2424  0.7250
 8305TIP3   OH224878   6.818   1.147   3.142 -0.2806 -0.0055 -0.5575
 8305TIP3    H124879   6.805   1.205   3.067  1.1704  1.0700 -0.0185
 8305TIP3    H224880   6.838   1.206   3.214 -0.2947 -1.1099  0.3748
 8306TIP3   OH224881   0.388   3.233   4.769 -0.7877  0.3714  0.1834
 8306TIP3    H124882   0.326   3.210   4.700 -1.9533  0.0096  1.3090
 8306TIP3    H224883   0.394   3.328   4.766 -0.7308  0.3512 -0.4780
 8307TIP3   OH224884   5.885   4.450   5.920 -0.2046 -0.3898  0.3680
 8307TIP3    H124885   5.878   4.506   5.843 -1.5303 -0.0053  0.7360
 8307TIP3    H224886   5.900   4.362   5.884  1.1491  0.0609 -0.2336
 8308TIP3   OH224887   4.982   4.234   0.697  0.4880  0.2824  0.0550
 8308TIP3    H124888   4.960   4.179   0.622 -0.6763  0.4290  0.2634
 8308TIP3    H224889   4.897   4.261   0.733  0.9643 -0.9819  2.3180
 8309TIP3   OH224890   5.355   1.942   1.439 -0.0415 -0.0120  0.2256
 8309TIP3    H124891   5.354   1.994   1.358  0.5917 -1.9039 -1.0752
 8309TIP3    H224892   5.435   1.968   1.484 -0.2585  0.8588  0.1359
 8310TIP3   OH224893   2.959   0.451   2.254  0.0545  1.5108  0.3248
 8310TIP3    H124894   2.935   0.543   2.242 -0.6799  1.2440 -0.3278
 8310TIP3    H224895   2.988   0.422   2.168 -0.8356  0.8250  0.2367
 8311TIP3   OH224896   2.587   5.698   1.939  0.1602  0.1491  0.0660
 8311TIP3    H124897   2.606   5.626   1.879  0.0750  0.2690 -0.1046
 8311TIP3    H224898   2.598   5.660   2.026  0.2392 -0.0368 -0.0243
 8312TIP3   OH224899   4.272   0.782   3.569 -0.6370  0.2704 -0.1529
 8312TIP3    H124900   4.308   0.705   3.612 -3.2218  0.0104  1.7614
 8312TIP3    H224901   4.231   0.748   3.489  0.4751  0.0843 -0.6514
 8313TIP3   OH224902   1.665   6.164   4.732  0.2101 -0.4792 -0.4931
 8313TIP3    H124903   1.632   6.222   4.664 -1.8573 -1.8918 -0.7762
 8313TIP3    H224904   1.601   6.093   4.736  1.5087 -1.6233  1.3314
 8314TIP3   OH224905   5.463   1.198   1.383 -0.5675  0.1316  0.1484
 8314TIP3    H124906   5.490   1.146   1.307  0.8646 -1.8394  1.8933
 8314TIP3    H224907   5.405   1.140   1.433  2.8644 -0.9230  3.3428
 8315TIP3   OH224908   3.444   5.700   4.632  0.6354 -0.2686 -0.4078
 8315TIP3    H124909   3.368   5.702   4.690 -0.9805  2.8679 -2.3978
 8315TIP3    H224910   3.517   5.677   4.690 -1.3529 -0.7845  2.1032
 8316TIP3   OH224911   1.100   4.638   5.335 -0.8305 -0.1898  0.0345
 8316TIP3    H124912   1.011   4.665   5.312 -0.9882 -1.2310 -0.6717
 8316TIP3    H224913   1.110   4.661   5.427 -2.0170 -0.4952  0.2543
 8317TIP3   OH224914   6.345   2.543   0.127 -0.5841  0.5953 -0.2281
 8317TIP3    H124915   6.337   2.478   0.197 -1.2627 -0.6376 -1.3999
 8317TIP3    H224916   6.258   2.546   0.088  0.3939 -0.7142 -2.6919
 8318TIP3   OH224917   6.718   3.217   1.999 -0.1119 -0.4975  0.3851
 8318TIP3    H124918   6.734   3.149   2.064 -1.8098 -1.4617 -0.1498
 8318TIP3    H224919   6.798   3.270   2.000  1.0913 -2.2351  1.1090
 8319TIP3   OH224920   2.231   5.441   5.383 -0.7290 -0.1470 -0.2342
 8319TIP3    H124921   2.151   5.400   5.349 -1.1175  1.8160 -1.9310
 8319TIP3    H224922   2.298   5.417   5.319 -0.0806 -1.2126  0.8142
 8320TIP3   OH224923   3.849   1.289   2.685 -0.2079 -0.0619 -0.1046
 8320TIP3    H124924   3.940   1.282   2.655  0.4569 -0.4440  1.8308
 8320TIP3    H224925   3.810   1.354   2.628  0.6294 -1.4814 -2.4388
 8321TIP3   OH224926   7.095   1.775   3.272 -0.1026 -0.8717 -0.4807
 8321TIP3    H124927   7.092   1.810   3.183  1.1469 -1.2640 -0.6854
 8321TIP3    H224928   7.175   1.722   3.275 -0.7432 -1.8337  0.5197
 8322TIP3   OH224929   4.278   0.026   1.085 -0.4702 -0.4072 -0.0344
 8322TIP3    H124930   4.328   0.029   1.167  0.0212  1.1062 -0.3490
 8322TIP3    H224931   4.327  -0.035   1.030  1.1245  1.0217 -0.3258
 8323TIP3   OH224932   5.081   0.287   5.755  0.1221 -0.5152  0.1900
 8323TIP3    H124933   5.007   0.338   5.721 -0.7039 -1.3168  0.7248
 8323TIP3    H224934   5.072   0.292   5.850  0.1543 -1.4626  0.2516
 8324TIP3   OH224935   1.591   0.091   0.969  0.2710 -0.1087 -0.3186
 8324TIP3    H124936   1.634   0.151   1.031  1.4960  0.4736 -1.6814
 8324TIP3    H224937   1.547   0.149   0.907  0.2768 -0.6488 -0.8327
 8325TIP3   OH224938   7.070   6.106   0.642  0.5879  0.0294  0.3787
 8325TIP3    H124939   6.994   6.144   0.684  0.8019  0.3077  0.5194
 8325TIP3    H224940   7.108   6.047   0.708 -0.5143 -1.5134 -0.2929
 8326TIP3   OH224941   1.041   4.344   5.608 -0.7274 -0.0422  0.3269
 8326TIP3    H124942   0.979   4.312   5.542  0.2192  1.0665 -1.1542
 8326TIP3    H224943   1.114   4.283   5.604 -0.6243  0.0849  0.2778
 8327TIP3   OH224944   1.016   4.604   0.561  0.6905  0.6555 -0.4163
 8327TIP3    H124945   0.932   4.632   0.599  0.7653 -0.3750  0.5661
 8327TIP3    H224946   0.991   4.538   0.496  0.7771 -0.3501  0.5500
 8328TIP3   OH224947   6.600   4.973   0.776 -0.0890 -0.4262 -0.6851
 8328TIP3    H124948   6.517   4.998   0.735  0.1216  0.2166 -0.7388
 8328TIP3    H224949   6.586   4.987   0.870  0.2918  0.7512 -0.7797
 8329TIP3   OH224950   6.912  -0.016   0.911  0.1578 -0.1914 -0.0271
 8329TIP3    H124951   6.916   0.072   0.872 -0.2750  0.1024  0.5648
 8329TIP3    H224952   6.999  -0.028   0.950 -0.1336  0.4462  0.8560
 8330TIP3   OH224953   3.164   6.571   0.407 -0.0489 -0.0780  0.6021
 8330TIP3    H124954   3.130   6.482   0.400  1.2028 -0.5483  0.2037
 8330TIP3    H224955   3.228   6.567   0.478 -0.3683  0.6421  0.9427
 8331TIP3   OH224956   2.490   2.307   5.289  0.5901 -0.1068  0.0341
 8331TIP3    H124957   2.577   2.319   5.251  0.0855  0.8253 -0.8802
 8331TIP3    H224958   2.455   2.396   5.296 -0.6077 -0.5329 -0.3539
 8332TIP3   OH224959   4.241   4.336   4.489 -0.4791 -0.0986  0.0073
 8332TIP3    H124960   4.147   4.355   4.486  0.0872  3.6221  0.6794
 8332TIP3    H224961   4.256   4.305   4.579 -1.3041 -3.1440 -0.7980
 8333TIP3   OH224962   2.215   5.043   0.983  0.0329 -0.9563 -0.1051
 8333TIP3    H124963   2.300   5.024   1.023  0.8786  2.1435 -0.2238
 8333TIP3    H224964   2.228   5.125   0.936 -2.4437 -1.5985 -2.1135
 8334TIP3   OH224965   1.814   1.150   0.067 -0.1278 -0.2549 -0.3744
 8334TIP3    H124966   1.773   1.234   0.086 -0.3301 -0.6158  0.8754
 8334TIP3    H224967   1.797   1.097   0.145  1.0607 -1.0486 -0.6306
 8335TIP3   OH224968   0.074   0.402   4.222 -0.0321  0.5585 -0.0189
 8335TIP3    H124969   0.047   0.312   4.203  0.6800  0.5340 -0.9849
 8335TIP3    H224970   0.009   0.456   4.178  0.1700  0.5094 -0.3803
 8336TIP3   OH224971   0.933   1.428   4.495 -0.1151  0.5377  1.0789
 8336TIP3    H124972   0.857   1.466   4.540 -1.7700 -0.5242 -0.6791
 8336TIP3    H224973   0.897   1.357   4.442  2.3936 -1.2391  1.5716
 8337TIP3   OH224974   3.662   0.655   3.047  0.4222 -0.1144 -0.0289
 8337TIP3    H124975   3.620   0.649   3.133 -1.5283 -0.7855 -0.9699
 8337TIP3    H224976   3.682   0.748   3.036  2.5053 -0.2580  1.9128
 8338TIP3   OH224977   3.311   4.347   3.389 -0.5548  0.3965  0.4053
 8338TIP3    H124978   3.392   4.394   3.365  0.3176 -1.0419  0.3922
 8338TIP3    H224979   3.241   4.399   3.350  0.4625  0.9907 -0.7150
 8339TIP3   OH224980   1.410   0.012   0.531  0.3297  0.2741  0.4156
 8339TIP3    H124981   1.422  -0.012   0.439  0.0326  0.9845  0.1871
 8339TIP3    H224982   1.489   0.061   0.554  0.5195 -0.1201  0.6182
 8340TIP3   OH224983   4.795   6.468   5.846 -0.0675 -0.2948  0.4915
 8340TIP3    H124984   4.743   6.531   5.795 -0.9984 -1.1317  0.3826
 8340TIP3    H224985   4.814   6.397   5.785 -1.7563 -1.6270  1.4102
 8341TIP3   OH224986   7.137   4.929   0.328  0.0828 -0.5865  0.0940
 8341TIP3    H124987   7.103   4.953   0.414  1.2181  2.6385 -0.2398
 8341TIP3    H224988   7.215   4.878   0.346 -0.2217 -0.7583  0.9565
 8342TIP3   OH224989   3.460   0.345   1.084  0.1788  0.6745  0.0842
 8342TIP3    H124990   3.436   0.252   1.084 -0.3563  0.7950 -1.1504
 8342TIP3    H224991   3.414   0.382   1.009  0.9278  1.8018  0.1503
 8343TIP3   OH224992   5.512   5.283   4.804  0.5190  0.4798  0.0244
 8343TIP3    H124993   5.528   5.284   4.710 -0.1464 -1.0426 -0.1377
 8343TIP3    H224994   5.487   5.192   4.823 -2.0790  1.3519  1.1967
 8344TIP3   OH224995   0.045   2.517   3.606  0.6748 -0.2048 -0.7500
 8344TIP3    H124996   0.031   2.437   3.656  1.8188 -0.6816 -1.1580
 8344TIP3    H224997   0.079   2.580   3.670  0.7471 -0.3634 -0.6308
 8345TIP3   OH224998   3.452   3.647   3.255 -0.2961 -0.2627 -0.0389
 8345TIP3    H124999   3.400   3.614   3.182 -0.1872  0.4901 -0.4622
 8345TIP3    H225000   3.410   3.611   3.333 -0.4736 -0.9919 -0.4583
 8346TIP3   OH225001   5.216   5.910   3.180 -0.3639  0.3115 -0.1784
 8346TIP3    H125002   5.149   5.843   3.163 -0.0009 -0.4432  1.1979
 8346TIP3    H225003   5.299   5.864   3.167 -0.1021  0.1944  1.6672
 8347TIP3   OH225004   2.517   0.880   0.466  0.1528 -0.5953 -0.0793
 8347TIP3    H125005   2.445   0.934   0.432 -1.2147 -1.6324  1.0173
 8347TIP3    H225006   2.478   0.794   0.479  1.5839 -1.1681  0.6555
 8348TIP3   OH225007   4.784   6.257   0.177  1.0171 -0.2684  0.1300
 8348TIP3    H125008   4.853   6.309   0.218  1.1953 -0.2911 -0.1423
 8348TIP3    H225009   4.703   6.298   0.207  1.1605  0.6594 -0.7020
 8349TIP3   OH225010   4.955   4.181   2.964  0.0311 -0.0200  0.6562
 8349TIP3    H125011   5.033   4.229   2.990  0.2746 -0.1805  0.2382
 8349TIP3    H225012   4.988   4.107   2.914 -0.4113  0.2110  0.0055
 8350TIP3   OH225013   6.371   6.398   2.140  0.2280 -0.1601  0.0404
 8350TIP3    H125014   6.391   6.484   2.178  0.8517  0.2809 -1.2132
 8350TIP3    H225015   6.278   6.402   2.119  0.5515  0.8227 -1.4005
 8351TIP3   OH225016   6.468   3.796   4.486  0.1890  0.5328  0.4902
 8351TIP3    H125017   6.471   3.829   4.576  2.1773  0.2054  0.5861
 8351TIP3    H225018   6.449   3.873   4.433 -0.0010  0.9253  1.1173
 8352TIP3   OH225019   0.296   2.115   2.401  0.4652  0.1266  0.1382
 8352TIP3    H125020   0.283   2.030   2.443 -0.4022 -0.4222 -1.1672
 8352TIP3    H225021   0.255   2.178   2.461  0.4886 -0.4557  0.7764
 8353TIP3   OH225022   4.231   0.306   3.619 -0.0116 -0.0935 -0.6008
 8353TIP3    H125023   4.144   0.298   3.580 -0.2867 -0.4388  0.0627
 8353TIP3    H225024   4.224   0.260   3.703  0.3669  1.1770  0.1641
 8354TIP3   OH225025   0.782   4.971   2.086  0.2776  0.0226  0.3587
 8354TIP3    H125026   0.702   5.020   2.104  2.0605  2.6221  1.8231
 8354TIP3    H225027   0.841   4.995   2.158  1.4454 -4.1567  1.0482
 8355TIP3   OH225028   6.676   2.697   5.725 -0.8697 -0.1119  0.2945
 8355TIP3    H125029   6.625   2.650   5.660 -0.3078  0.8581 -0.8814
 8355TIP3    H225030   6.625   2.776   5.743  0.5189  1.2670 -1.4932
 8356TIP3   OH225031   5.416   2.530   4.406  0.5791  0.3351 -0.1960
 8356TIP3    H125032   5.424   2.525   4.502  1.7322  3.0759 -0.0612
 8356TIP3    H225033   5.322   2.544   4.391  0.6747  2.4670  0.7912
 8357TIP3   OH225034   3.369   0.447   2.558 -0.3285 -0.3940  0.2489
 8357TIP3    H125035   3.274   0.437   2.561 -0.2728 -2.5025 -1.6891
 8357TIP3    H225036   3.402   0.358   2.568  1.6491  0.5375  3.5027
 8358TIP3   OH225037   2.177   6.252   1.979 -0.2100  0.7181 -0.1285
 8358TIP3    H125038   2.223   6.216   1.903 -0.4240 -0.3226  0.2131
 8358TIP3    H225039   2.246   6.285   2.036 -0.0995  3.9535 -1.8581
 8359TIP3   OH225040   2.716   2.711   2.827  0.4667  0.1192 -0.5361
 8359TIP3    H125041   2.702   2.623   2.862  0.3355  0.2422 -0.2780
 8359TIP3    H225042   2.674   2.709   2.741 -0.0327  0.1026 -0.2940
 8360TIP3   OH225043   6.659   1.934   3.588  0.4154 -0.0893  0.3638
 8360TIP3    H125044   6.586   1.878   3.563 -1.4049  0.6123  3.4891
 8360TIP3    H225045   6.648   2.014   3.536 -2.6137  0.9599  2.3183
 8361TIP3   OH225046   0.502   3.827   0.187  0.3541 -0.2464 -0.4853
 8361TIP3    H125047   0.517   3.819   0.092  0.9713  0.3951 -0.4451
 8361TIP3    H225048   0.542   3.747   0.223  1.8914  0.4326 -0.5885
 8362TIP3   OH225049   5.656   2.736   0.282  0.1593  0.2144 -0.4551
 8362TIP3    H125050   5.568   2.771   0.298  0.0420  0.6822 -1.9261
 8362TIP3    H225051   5.715   2.809   0.303  0.3193 -0.5218  1.8192
 8363TIP3   OH225052   3.338   1.407   1.265 -0.4738 -0.1178  0.2225
 8363TIP3    H125053   3.387   1.474   1.217  0.5797 -1.7464 -1.0405
 8363TIP3    H225054   3.287   1.457   1.329  1.6123  1.7723  0.5385
 8364TIP3   OH225055   3.190   0.272   3.199  0.0003  0.4754 -0.1018
 8364TIP3    H125056   3.231   0.350   3.236  0.2025  0.5090 -0.4027
 8364TIP3    H225057   3.126   0.305   3.136 -0.9783  0.4545  0.8292
 8365TIP3   OH225058   0.507   0.534   4.326 -0.6148  0.6297  0.1633
 8365TIP3    H125059   0.508   0.526   4.421  1.3436  2.3440  0.3492
 8365TIP3    H225060   0.569   0.604   4.307 -1.3810  0.7237 -2.3555
 8366TIP3   OH225061   1.623   1.402   5.449 -0.3713 -0.0397  0.5480
 8366TIP3    H125062   1.663   1.316   5.440 -2.4646 -0.9189 -1.2975
 8366TIP3    H225063   1.646   1.448   5.368 -0.5962  0.5358  0.8016
 8367TIP3   OH225064   4.746   3.579   4.649 -0.1404 -0.1259  0.1863
 8367TIP3    H125065   4.726   3.567   4.742 -0.3974 -0.3042  0.1111
 8367TIP3    H225066   4.817   3.643   4.647 -0.0191 -0.2503  0.5139
 8368TIP3   OH225067   4.344   2.221   0.481  0.6007  0.7569  0.5244
 8368TIP3    H125068   4.280   2.292   0.482  2.0946  2.1475  0.5097
 8368TIP3    H225069   4.311   2.160   0.414 -0.5220  1.6005  0.2906
 8369TIP3   OH225070   5.855   6.012   0.600 -0.4172  0.2150  0.1532
 8369TIP3    H125071   5.883   5.920   0.599 -1.1932 -0.1041 -3.0193
 8369TIP3    H225072   5.930   6.060   0.563 -0.7950  0.5405 -0.2019
 8370TIP3   OH225073   2.302   5.081   1.603 -0.1274  0.2073 -0.1533
 8370TIP3    H125074   2.356   5.159   1.589  0.1422  0.0999  0.2577
 8370TIP3    H225075   2.248   5.075   1.525  0.9694 -0.0868 -0.9236
 8371TIP3   OH225076   0.412   0.334   4.788 -0.4289  0.1641  0.2643
 8371TIP3    H125077   0.363   0.268   4.740  0.4267 -0.4519  0.2230
 8371TIP3    H225078   0.473   0.370   4.723 -0.0348  0.1085  0.5992
 8372TIP3   OH225079   5.219   3.010   2.070  0.7279  0.2537  0.4142
 8372TIP3    H125080   5.139   3.044   2.031  0.8847  0.2159  0.0528
 8372TIP3    H225081   5.196   2.922   2.101  0.8230 -0.0591 -0.3715
 8373TIP3   OH225082   6.837   5.141   0.322 -0.1978 -0.3257  0.1054
 8373TIP3    H125083   6.892   5.065   0.340  1.0389  0.8074  1.4431
 8373TIP3    H225084   6.899   5.213   0.312 -1.3919  1.1183  2.2177
 8374TIP3   OH225085   4.790   2.474   0.324 -0.8179 -0.0925 -0.2068
 8374TIP3    H125086   4.698   2.446   0.322 -1.0780  0.5468  1.3932
 8374TIP3    H225087   4.839   2.392   0.313 -1.5670 -0.5288 -0.4295
 8375TIP3   OH225088   4.736   4.387   5.491  0.2305 -0.2116  0.0608
 8375TIP3    H125089   4.661   4.439   5.522  0.9964  2.0306 -1.5811
 8375TIP3    H225090   4.697   4.305   5.461 -1.4161  0.4520  0.2676
 8376TIP3   OH225091   4.308   6.596   5.310  0.0162  0.2008  0.0733
 8376TIP3    H125092   4.365   6.610   5.386  1.1817 -2.4932 -0.2222
 8376TIP3    H225093   4.317   6.676   5.259  0.4178  1.4449  1.9580
 8377TIP3   OH225094   5.671   3.943   1.186 -0.4898 -0.0703  0.0580
 8377TIP3    H125095   5.594   3.961   1.240 -0.8010 -0.3294 -0.2968
 8377TIP3    H225096   5.665   4.004   1.114  0.2494  0.6878  0.6227
 8378TIP3   OH225097   3.359   2.466   5.415  0.0176 -0.3748 -0.0603
 8378TIP3    H125098   3.309   2.539   5.376  0.4837  0.2227  0.4347
 8378TIP3    H225099   3.292   2.403   5.440 -0.4116 -0.0623 -0.3866
 8379TIP3   OH225100   3.586   0.075   3.237  0.4278  0.2386  0.1195
 8379TIP3    H125101   3.556  -0.014   3.217  0.3051  0.4908 -0.8740
 8379TIP3    H225102   3.576   0.083   3.331 -0.6534 -0.4134  0.0817
 8380TIP3   OH225103   2.126   6.801   2.450 -0.4324 -0.6119 -0.0488
 8380TIP3    H125104   2.160   6.734   2.390  1.8835  0.7881 -0.4199
 8380TIP3    H225105   2.032   6.784   2.454 -0.0466 -3.4381 -0.6467
 8381TIP3   OH225106   3.989   6.181   5.575 -0.1087  0.1295 -0.5275
 8381TIP3    H125107   3.987   6.198   5.669  2.3482 -2.1074  0.0460
 8381TIP3    H225108   3.908   6.133   5.558  1.1145 -2.9024  1.3663
 8382TIP3   OH225109   2.638   4.576   3.343 -0.5335  0.0222 -0.1355
 8382TIP3    H125110   2.626   4.667   3.370 -1.8206 -0.5968  1.5607
 8382TIP3    H225111   2.690   4.536   3.412  1.8823 -0.0983 -1.8972
 8383TIP3   OH225112   0.609   5.400   3.998  0.0059 -0.0224 -0.1727
 8383TIP3    H125113   0.633   5.483   4.039 -0.0761 -0.6836  1.3053
 8383TIP3    H225114   0.632   5.334   4.063  1.9695 -1.3655 -2.0982
 8384TIP3   OH225115   6.009   0.628  -0.002  0.3230 -0.2159  0.7565
 8384TIP3    H125116   6.048   0.553   0.042  1.4622  0.6264  1.2432
 8384TIP3    H225117   6.007   0.697   0.065 -1.8418 -0.1480  0.6883
 8385TIP3   OH225118   0.662   3.971   2.643 -0.3687  0.7763  0.0446
 8385TIP3    H125119   0.701   4.040   2.588  0.4340 -0.3206 -0.7972
 8385TIP3    H225120   0.700   3.986   2.729  0.7596  0.6741 -0.4131
 8386TIP3   OH225121   1.065   2.240   1.825 -0.0766  0.1164 -0.1165
 8386TIP3    H125122   0.980   2.258   1.867 -0.4139 -0.7778 -0.3901
 8386TIP3    H225123   1.128   2.244   1.897 -0.3646  0.6378  0.1175
 8387TIP3   OH225124   2.350   4.249   2.106 -0.6282 -0.4375 -0.1805
 8387TIP3    H125125   2.335   4.306   2.031  0.0570  0.2923  0.2245
 8387TIP3    H225126   2.354   4.308   2.181  1.2423 -0.8467  0.1114
 8388TIP3   OH225127   2.606   4.354   3.812 -0.3332 -0.2455 -0.2702
 8388TIP3    H125128   2.687   4.318   3.776 -0.6753 -1.3928  0.0643
 8388TIP3    H225129   2.634   4.400   3.891  0.1229  0.3067 -0.7401
 8389TIP3   OH225130   0.385   2.092   3.490 -0.7563 -0.1281 -0.4419
 8389TIP3    H125131   0.417   2.115   3.402 -0.2686  0.1335 -0.1953
 8389TIP3    H225132   0.381   1.997   3.489  0.0912 -0.1726 -0.4602
 8390TIP3   OH225133   5.657   6.086   1.086  0.0612 -0.2560 -0.1768
 8390TIP3    H125134   5.629   6.026   1.017 -0.9536 -1.5878  1.3054
 8390TIP3    H225135   5.608   6.167   1.069 -1.0186 -0.9308 -0.4213
 8391TIP3   OH225136   1.828   3.184   0.371 -0.0956  0.2795  0.2440
 8391TIP3    H125137   1.783   3.138   0.441 -1.9406  0.7410 -0.5763
 8391TIP3    H225138   1.814   3.129   0.293 -1.4951  1.6871 -0.5482
 8392TIP3   OH225139   0.032   4.812   4.683 -0.0768 -0.2212 -0.3213
 8392TIP3    H125140   0.058   4.842   4.770  1.1090  1.4753 -1.2107
 8392TIP3    H225141   0.099   4.749   4.658  0.9441  1.0760 -0.9429
 8393TIP3   OH225142   4.765   2.202   4.031 -0.2729  0.2055 -0.3834
 8393TIP3    H125143   4.738   2.264   4.099 -0.0185 -0.3746  0.2648
 8393TIP3    H225144   4.776   2.119   4.078 -1.4395 -0.5418 -1.3716
 8394TIP3   OH225145   6.876   2.141   4.279 -0.4586 -0.5557 -0.1923
 8394TIP3    H125146   6.855   2.062   4.330 -2.4797  1.5240  2.5051
 8394TIP3    H225147   6.838   2.125   4.193  0.0516 -2.8766 -0.0500
 8395TIP3   OH225148   3.419   2.904   2.572 -0.2111  0.5088  0.2300
 8395TIP3    H125149   3.340   2.863   2.537 -0.8235  2.1212 -0.4086
 8395TIP3    H225150   3.488   2.840   2.558 -0.9254  0.0631 -1.6247
 8396TIP3   OH225151   6.681   4.154   0.030 -0.6094  0.3506 -0.5327
 8396TIP3    H125152   6.743   4.095  -0.011 -0.6999  0.8590 -1.4386
 8396TIP3    H225153   6.652   4.109   0.109  0.9809  0.1507 -0.0428
 8397TIP3   OH225154   2.057   6.623   5.406 -0.7476 -0.7424 -0.7056
 8397TIP3    H125155   2.041   6.709   5.445 -0.2023 -1.2941  0.8291
 8397TIP3    H225156   2.132   6.636   5.349 -0.9814 -0.0976 -0.8748
 8398TIP3   OH225157   4.235   4.035   2.280  0.5351 -0.2930  0.6983
 8398TIP3    H125158   4.317   4.022   2.329 -0.5013 -0.7807  2.3751
 8398TIP3    H225159   4.175   4.072   2.344 -0.5279  0.1770 -0.5510
 8399TIP3   OH225160   4.359   3.782   2.941 -0.1227  0.2024 -0.4984
 8399TIP3    H125161   4.415   3.851   2.976 -1.1579 -0.1318  2.0349
 8399TIP3    H225162   4.411   3.702   2.949 -0.8357 -0.1099  1.8637
 8400TIP3   OH225163   2.051   0.333   5.331  0.0491 -0.2238 -0.1259
 8400TIP3    H125164   1.978   0.392   5.351 -0.4668 -0.8203 -0.2087
 8400TIP3    H225165   2.129   0.381   5.357 -0.4385  0.0130  0.9393
 8401TIP3   OH225166   1.204   3.727   1.739  0.3390  0.2756  0.1778
 8401TIP3    H125167   1.208   3.633   1.723 -0.3620  0.1126  0.9238
 8401TIP3    H225168   1.142   3.760   1.675  0.4131  0.1993  0.0660
 8402TIP3   OH225169   0.985   2.193   5.599 -0.7801  0.1412  0.1803
 8402TIP3    H125170   0.971   2.103   5.571 -0.6733  0.6514 -1.6657
 8402TIP3    H225171   0.919   2.208   5.667 -1.1741 -1.1312  0.0949
 8403TIP3   OH225172   5.525   3.183   4.504  0.1677  0.0865  0.6037
 8403TIP3    H125173   5.520   3.088   4.512  2.5317 -0.0727  0.7146
 8403TIP3    H225174   5.458   3.215   4.566 -0.1934 -1.4804  1.0719
 8404TIP3   OH225175   1.203   0.668   3.461 -0.5341  0.1451 -0.7562
 8404TIP3    H125176   1.299   0.672   3.465 -0.5283  1.4601 -1.5928
 8404TIP3    H225177   1.174   0.737   3.521 -0.9494  0.2204 -1.0464
 8405TIP3   OH225178   5.403   0.837   5.173 -0.5248  0.2316  0.4941
 8405TIP3    H125179   5.499   0.838   5.170 -0.5349  1.2102 -0.9031
 8405TIP3    H225180   5.379   0.744   5.167  0.3310  0.0582 -0.4621
 8406TIP3   OH225181   0.897   2.314   5.842  0.3324  0.7751 -0.0479
 8406TIP3    H125182   0.938   2.388   5.798  1.0169  0.2174 -0.3690
 8406TIP3    H225183   0.970   2.261   5.873 -0.1213 -0.5040 -1.0738
 8407TIP3   OH225184   0.038   6.739   2.901  0.2554 -0.6292  0.1151
 8407TIP3    H125185   0.046   6.675   2.830 -0.9186 -0.1062 -0.5137
 8407TIP3    H225186  -0.003   6.815   2.860 -0.1486 -0.2025  1.2792
 8408TIP3   OH225187   1.953   4.825   5.543  0.1215 -0.7369  0.3491
 8408TIP3    H125188   1.864   4.861   5.549  0.7801  0.7346  2.8488
 8408TIP3    H225189   1.941   4.730   5.537 -1.6842 -0.8777  3.8248
 8409TIP3   OH225190   1.736   5.438   2.563 -0.2783  0.1047 -0.2195
 8409TIP3    H125191   1.711   5.403   2.648  0.5622 -1.3615 -0.5377
 8409TIP3    H225192   1.777   5.364   2.518 -3.4656 -0.1411 -3.1393
 8410TIP3   OH225193   4.764   2.769   4.185 -0.8648  0.3512 -0.7579
 8410TIP3    H125194   4.807   2.855   4.186  0.0601 -0.0790  1.1210
 8410TIP3    H225195   4.834   2.708   4.160 -0.9383 -0.0972  0.1083
 8411TIP3   OH225196   2.933   4.114   2.382  0.1346  0.2063 -0.4276
 8411TIP3    H125197   2.870   4.042   2.383 -0.5147  0.7569 -0.6132
 8411TIP3    H225198   2.942   4.140   2.473  2.1236 -1.5744 -0.0476
 8412TIP3   OH225199   6.652   0.192   4.653 -0.2739  0.0618  0.4103
 8412TIP3    H125200   6.567   0.162   4.618 -0.4720 -0.9180  1.6635
 8412TIP3    H225201   6.664   0.279   4.614 -2.0199  0.3702  0.4549
 8413TIP3   OH225202   6.542   2.138   2.323  0.3025 -0.2664 -0.6969
 8413TIP3    H125203   6.611   2.084   2.361 -1.2134 -2.0842 -0.4198
 8413TIP3    H225204   6.563   2.142   2.230  1.5155  0.3809 -0.4215
 8414TIP3   OH225205   5.700   6.353   2.302  0.5795 -0.4929 -0.1252
 8414TIP3    H125206   5.671   6.355   2.210  0.5191  0.3139 -0.0982
 8414TIP3    H225207   5.621   6.373   2.352  0.6697 -0.6787  0.0899
 8415TIP3   OH225208   2.502   3.049   1.357  0.4470  0.2454 -0.1751
 8415TIP3    H125209   2.508   2.963   1.400  0.6814 -0.6371 -1.8656
 8415TIP3    H225210   2.435   3.036   1.289 -0.2513  1.7271  0.1894
 8416TIP3   OH225211   6.347   1.818   4.749 -0.4757  0.5060  0.1289
 8416TIP3    H125212   6.252   1.814   4.748 -0.4472 -0.4040  0.3020
 8416TIP3    H225213   6.368   1.890   4.809 -1.0384 -0.0571  1.0153
 8417TIP3   OH225214   3.432   2.746   0.489 -0.5650  0.2059 -0.3906
 8417TIP3    H125215   3.413   2.656   0.517  0.3117 -0.4918 -1.9376
 8417TIP3    H225216   3.485   2.782   0.560  1.0621 -1.3009 -0.7663
 8418TIP3   OH225217   2.846   1.883   1.624 -0.8084  0.0196  0.3463
 8418TIP3    H125218   2.762   1.903   1.583 -0.9608  0.5936  0.9238
 8418TIP3    H225219   2.855   1.948   1.694  0.3716  0.3322 -0.0634
 8419TIP3   OH225220   5.961   6.119   3.940  0.3316  0.4105  0.4786
 8419TIP3    H125221   5.992   6.151   4.025  2.4411  0.9950 -0.4469
 8419TIP3    H225222   5.866   6.120   3.948  0.3052  3.7880  1.6877
 8420TIP3   OH225223   3.030   5.878   2.607 -0.1014 -0.0381 -0.2646
 8420TIP3    H125224   3.122   5.871   2.631 -0.2695 -0.4974  0.2441
 8420TIP3    H225225   3.023   5.964   2.565  0.1097  0.9911  1.7101
 8421TIP3   OH225226   6.121   4.879   3.309  0.1649  0.4296 -0.0283
 8421TIP3    H125227   6.095   4.942   3.241 -1.5554 -0.1221  0.0614
 8421TIP3    H225228   6.168   4.810   3.262 -1.8051 -0.4160 -0.8863
 8422TIP3   OH225229   2.626   0.265   0.036 -0.1136  0.6444 -0.0596
 8422TIP3    H125230   2.690   0.197   0.056 -1.8134 -0.3503  2.6349
 8422TIP3    H225231   2.549   0.218   0.003 -0.5518  1.4636 -0.2365
 8423TIP3   OH225232   5.153   0.592   5.505 -0.0129  0.3524  0.5573
 8423TIP3    H125233   5.184   0.613   5.593  0.9726  0.4602  0.1946
 8423TIP3    H225234   5.076   0.647   5.492 -0.0210  0.5076  1.2568
 8424TIP3   OH225235   5.579   2.408   2.962  0.1621 -0.1915 -0.1714
 8424TIP3    H125236   5.495   2.369   2.938 -0.2477  1.0757 -0.9093
 8424TIP3    H225237   5.640   2.335   2.964 -0.7908 -1.0168 -0.4201
 8425TIP3   OH225238   4.395   0.574   0.448 -0.6232  0.1198  0.0562
 8425TIP3    H125239   4.471   0.516   0.446 -1.0994 -0.5943  1.2730
 8425TIP3    H225240   4.321   0.517   0.430 -1.0994  0.3217  1.2445
 8426TIP3   OH225241   3.809   6.485   2.333 -0.0287  0.5337 -0.5331
 8426TIP3    H125242   3.736   6.434   2.367 -0.8976  1.8293 -0.4123
 8426TIP3    H225243   3.776   6.575   2.327  1.2692  0.9922 -1.3082
 8427TIP3   OH225244   1.189   2.768   5.238 -0.5293 -0.1927  0.4758
 8427TIP3    H125245   1.196   2.855   5.276  2.7351  0.1757 -0.6062
 8427TIP3    H225246   1.121   2.777   5.171  0.3704  1.8309 -0.2539
 8428TIP3   OH225247   0.749   5.774   0.237 -0.0376  0.9440  0.0013
 8428TIP3    H125248   0.764   5.867   0.253  0.5921  1.0360 -1.0111
 8428TIP3    H225249   0.813   5.729   0.292 -0.3130  1.1013  0.4573
 8429TIP3   OH225250   1.283   1.195   2.434  0.0392  0.2617  0.2072
 8429TIP3    H125251   1.345   1.268   2.436  1.3140 -0.7839  0.7762
 8429TIP3    H225252   1.200   1.234   2.409  0.9260  1.7306 -0.5779
 8430TIP3   OH225253   5.344   3.960   4.379 -0.0303 -0.4698  0.0776
 8430TIP3    H125254   5.379   3.934   4.464 -2.5879  3.5859  2.7025
 8430TIP3    H225255   5.410   4.019   4.343 -0.2373  0.1966  0.7641
 8431TIP3   OH225256   2.365   4.893   2.133 -0.4586  0.1656  0.4384
 8431TIP3    H125257   2.344   4.933   2.049 -0.8292 -0.2038  0.3505
 8431TIP3    H225258   2.399   4.965   2.186 -2.6538  0.9988  0.8382
 8432TIP3   OH225259   5.664   3.739   3.150 -0.7092  0.8249 -0.3135
 8432TIP3    H125260   5.732   3.801   3.177  1.6032 -1.7996  0.3362
 8432TIP3    H225261   5.649   3.685   3.228 -1.2596 -0.6154 -1.3835
 8433TIP3   OH225262   3.701   1.482   2.566  0.2512  0.0488 -0.6632
 8433TIP3    H125263   3.753   1.560   2.584 -1.3197  1.0151 -0.2125
 8433TIP3    H225264   3.623   1.514   2.520  0.8380 -1.5622 -3.0192
 8434TIP3   OH225265   3.644   2.620   1.043  0.3157 -0.3529  0.1471
 8434TIP3    H125266   3.635   2.701   0.993 -1.2969 -0.4668  0.2264
 8434TIP3    H225267   3.686   2.646   1.125  2.5763 -0.0931 -1.0134
 8435TIP3   OH225268   5.757   0.259   3.582  0.0418 -0.1054 -0.8203
 8435TIP3    H125269   5.681   0.289   3.631  0.5276  0.4464 -0.3831
 8435TIP3    H225270   5.721   0.213   3.506 -0.7186  0.0221 -0.5395
 8436TIP3   OH225271   5.930   3.421   2.686  0.1475  0.5099 -0.1441
 8436TIP3    H125272   5.911   3.329   2.667  0.5665  0.7830 -2.0160
 8436TIP3    H225273   5.975   3.453   2.608  0.7328  2.1047  0.8014
 8437TIP3   OH225274   5.829   6.188   0.320  0.0234  0.7753 -0.1665
 8437TIP3    H125275   5.923   6.176   0.326 -0.0368  0.4487  0.0866
 8437TIP3    H225276   5.800   6.121   0.258 -0.4351 -1.0662  1.9265
 8438TIP3   OH225277   4.552   5.250   3.225  0.2251 -0.7110  0.2279
 8438TIP3    H125278   4.589   5.322   3.173 -1.7134  0.9538  0.9879
 8438TIP3    H225279   4.627   5.209   3.266  1.5657 -0.3275 -1.7166
 8439TIP3   OH225280   2.308   5.126   2.265  0.7381  0.8330 -0.1129
 8439TIP3    H125281   2.335   5.217   2.278 -0.1489  1.1833 -0.6862
 8439TIP3    H225282   2.330   5.083   2.348  2.7322  1.1597 -0.4121
 8440TIP3   OH225283   6.483   1.026   4.953  0.5223  0.4682 -0.5381
 8440TIP3    H125284   6.509   0.983   5.034  0.5015  1.1937 -0.1382
 8440TIP3    H225285   6.548   1.095   4.940  1.0347 -0.1894 -1.6112
 8441TIP3   OH225286   5.046   5.403   2.348  0.0817  0.1098  0.3489
 8441TIP3    H125287   5.088   5.392   2.434 -0.8279 -0.8449  0.6838
 8441TIP3    H225288   5.108   5.364   2.286  0.7537  0.8205  0.5564
 8442TIP3   OH225289   6.396   5.370   3.681 -0.2064  0.3376 -0.1347
 8442TIP3    H125290   6.404   5.326   3.596  1.5228 -0.2673  0.3129
 8442TIP3    H225291   6.301   5.378   3.695 -0.5247  0.2577 -2.0094
 8443TIP3   OH225292   4.243   2.129   3.082 -0.2946  0.1761  0.8287
 8443TIP3    H125293   4.162   2.158   3.040  0.4949  0.4810 -0.5691
 8443TIP3    H225294   4.243   2.172   3.167 -0.3122  2.4311 -0.2364
 8444TIP3   OH225295   2.713   6.407   0.566  0.1167  0.3439 -0.7877
 8444TIP3    H125296   2.789   6.391   0.622  0.5097  0.2855 -1.3332
 8444TIP3    H225297   2.718   6.500   0.544 -0.8895  0.7364  0.5027
 8445TIP3   OH225298   3.019   4.078   2.907  0.2592  0.2949  0.3276
 8445TIP3    H125299   2.941   4.025   2.919 -1.7551  3.4341  2.7953
 8445TIP3    H225300   3.081   4.044   2.972 -0.3528 -0.0534  0.7333
 8446TIP3   OH225301   1.454   0.966   3.068  0.2407 -0.3337  0.3976
 8446TIP3    H125302   1.434   0.946   3.159 -2.3540  0.2973  0.0237
 8446TIP3    H225303   1.396   0.909   3.017  0.1947  0.7494 -0.8133
 8447TIP3   OH225304   0.060   4.899   0.563  0.0306 -0.4025 -0.1874
 8447TIP3    H125305   0.023   4.838   0.627 -1.0638  0.2898 -0.1415
 8447TIP3    H225306   0.017   4.982   0.580  1.1678  0.2966 -0.5516
 8448TIP3   OH225307   2.899   5.260   2.225 -0.0095 -0.1703  0.4437
 8448TIP3    H125308   2.931   5.176   2.257 -2.7065 -0.5033  2.5835
 8448TIP3    H225309   2.850   5.239   2.146  2.0993 -0.0582 -0.9891
 8449TIP3   OH225310   5.970   4.234   5.776  0.2112 -0.2061 -0.0733
 8449TIP3    H125311   5.908   4.203   5.710  0.0620  2.2964 -1.2120
 8449TIP3    H225312   6.040   4.170   5.774 -0.4748 -0.9741 -1.6493
 8450TIP3   OH225313   3.135   3.738   2.881 -0.3175  0.0777  0.3770
 8450TIP3    H125314   3.204   3.773   2.825 -1.9110 -0.1603 -1.8528
 8450TIP3    H225315   3.080   3.687   2.822 -1.8728 -0.5385  2.2702
 8451TIP3   OH225316   2.587   2.935   0.398  0.0752  0.3543  0.1204
 8451TIP3    H125317   2.635   2.863   0.355  1.2228  0.9301  0.3848
 8451TIP3    H225318   2.557   2.990   0.326 -1.9603 -1.0462 -0.1674
 8452TIP3   OH225319   4.660   6.517   4.034 -0.3093  0.5267 -0.2703
 8452TIP3    H125320   4.604   6.591   4.056  0.1880  0.7065  0.4291
 8452TIP3    H225321   4.634   6.493   3.945 -0.8573  1.1849 -0.2971
 8453TIP3   OH225322   2.544   3.163   4.695 -0.0927  0.2008 -0.4762
 8453TIP3    H125323   2.458   3.181   4.733  0.2827  0.4772  0.2737
 8453TIP3    H225324   2.526   3.142   4.603 -0.9515  0.2926 -0.3396
 8454TIP3   OH225325   2.485   3.557   2.075 -0.2252  0.2437 -0.1761
 8454TIP3    H125326   2.534   3.608   2.010  0.0974  0.7665  0.4528
 8454TIP3    H225327   2.532   3.574   2.157  0.5825 -1.9927 -0.1241
 8455TIP3   OH225328   4.340   1.996   0.304  0.3603  0.2757 -0.1085
 8455TIP3    H125329   4.305   1.997   0.215  0.3930  2.4589 -0.1456
 8455TIP3    H225330   4.272   1.952   0.355 -1.2825  2.0047 -0.6596
 8456TIP3   OH225331   1.407   2.980   0.267 -0.4107 -0.3918 -0.4701
 8456TIP3    H125332   1.440   3.002   0.180  0.6820 -0.5443 -0.1150
 8456TIP3    H225333   1.483   2.944   0.313 -1.4973 -2.3490 -0.1353
 8457TIP3   OH225334   1.267   0.432   1.320  0.2133  0.5101  0.2499
 8457TIP3    H125335   1.232   0.495   1.257  1.1473  0.7976 -0.0001
 8457TIP3    H225336   1.197   0.367   1.331 -0.6375  1.4044  0.2615
 8458TIP3   OH225337   6.593   6.241   0.202 -0.8035  0.4845  0.4616
 8458TIP3    H125338   6.613   6.328   0.237 -1.7305  0.2499  1.6566
 8458TIP3    H225339   6.677   6.207   0.172  0.0236  0.8200  2.2783
 8459TIP3   OH225340   1.730   5.076   4.872  0.2892 -0.1006  0.0809
 8459TIP3    H125341   1.718   5.146   4.809 -1.8156 -1.1513 -0.7890
 8459TIP3    H225342   1.804   5.026   4.839 -1.1148 -0.9619 -1.9745
 8460TIP3   OH225343   6.455   5.839   3.783 -0.1034 -0.0162  0.0536
 8460TIP3    H125344   6.488   5.845   3.873  0.4334 -0.7739 -0.0751
 8460TIP3    H225345   6.470   5.747   3.758 -0.7070  0.0616 -0.6347
 8461TIP3   OH225346   6.799   5.608   3.266 -0.2117  0.0118  0.5560
 8461TIP3    H125347   6.709   5.593   3.238  0.5983  0.1504 -2.3716
 8461TIP3    H225348   6.814   5.543   3.335 -1.7355 -1.7514 -0.7051
 8462TIP3   OH225349   1.316   2.705   0.264  0.2262  0.4806 -0.6352
 8462TIP3    H125350   1.328   2.668   0.351  1.5577 -0.4998 -1.2046
 8462TIP3    H225351   1.366   2.787   0.265 -2.0189  1.9397  0.3504
 8463TIP3   OH225352   5.502   1.084   4.865 -0.2678  0.0368  0.2859
 8463TIP3    H125353   5.422   1.034   4.879 -0.3492 -0.2124 -0.9424
 8463TIP3    H225354   5.567   1.019   4.841  0.5739  0.1270  2.1884
 8464TIP3   OH225355   5.550   3.204   0.170  0.1840 -0.1525  0.3320
 8464TIP3    H125356   5.526   3.186   0.261  0.5862 -0.0173  0.4709
 8464TIP3    H225357   5.593   3.290   0.174 -0.2251  0.0697 -0.0594
 8465TIP3   OH225358   0.958   1.512   4.936  0.5984 -0.2968 -0.1236
 8465TIP3    H125359   0.923   1.426   4.961 -0.9505  0.5774  0.9429
 8465TIP3    H225360   1.022   1.494   4.867  1.8156 -2.4716  1.4738
 8466TIP3   OH225361   5.939   2.876   5.838 -0.0042  0.2316 -0.1883
 8466TIP3    H125362   5.981   2.943   5.892  0.4991  0.4787 -0.8778
 8466TIP3    H225363   5.953   2.905   5.748 -1.2454  0.0798 -0.4527
 8467TIP3   OH225364   0.058   1.812   2.274  0.1731 -0.0733 -0.2399
 8467TIP3    H125365   0.087   1.721   2.278  0.7390  0.1393  1.5144
 8467TIP3    H225366   0.047   1.837   2.366 -4.9770  0.1029 -0.6146
 8468TIP3   OH225367   4.234   0.119   4.150  0.7369 -0.0086  0.1882
 8468TIP3    H125368   4.192   0.035   4.167  0.6558 -0.2211 -1.0011
 8468TIP3    H225369   4.179   0.183   4.196  1.7475 -0.7333  2.5453
 8469TIP3   OH225370   0.140   1.699   0.671  0.6186 -0.2427  0.4608
 8469TIP3    H125371   0.221   1.656   0.645 -0.2723 -1.8042  0.1404
 8469TIP3    H225372   0.107   1.646   0.744 -0.5898 -0.1955 -0.0343
 8470TIP3   OH225373   2.314   2.524   4.362  0.0755  0.3840 -0.4559
 8470TIP3    H125374   2.288   2.433   4.353 -0.7174  0.5218  0.3169
 8470TIP3    H225375   2.361   2.527   4.446  1.2707  0.4455 -1.0940
 8471TIP3   OH225376   0.286   6.046   0.710  1.1126 -0.3566  0.9425
 8471TIP3    H125377   0.243   5.983   0.653 -2.6706  2.6941 -0.0047
 8471TIP3    H225378   0.369   6.005   0.733  0.1981 -4.3362 -1.8342
 8472TIP3   OH225379   7.120   2.621   4.710 -0.4689 -0.3776 -0.1540
 8472TIP3    H125380   7.093   2.713   4.704  0.9585  0.0897  0.2061
 8472TIP3    H225381   7.178   2.609   4.635 -0.5760 -0.9705 -0.1449
 8473TIP3   OH225382   6.794   0.147   2.837  0.3565 -0.1848  0.0652
 8473TIP3    H125383   6.773   0.234   2.804 -1.1011 -0.2391  0.8050
 8473TIP3    H225384   6.825   0.099   2.760  2.6215  1.3785 -0.0938
 8474TIP3   OH225385   3.173   3.311   0.087  0.0123 -0.4459 -0.1608
 8474TIP3    H125386   3.156   3.233   0.034  0.0926 -0.1095 -0.6944
 8474TIP3    H225387   3.173   3.383   0.024  0.3646 -0.0667  0.2619
 8475TIP3   OH225388   0.682   1.420   4.952 -0.4072  0.1427 -0.7603
 8475TIP3    H125389   0.722   1.373   5.025 -0.5996  0.4585 -0.4466
 8475TIP3    H225390   0.610   1.364   4.923 -0.1182 -0.1423 -0.9302
 8476TIP3   OH225391   0.882   4.806   3.388 -0.5979 -0.2657  0.0743
 8476TIP3    H125392   0.952   4.750   3.422 -0.2511 -0.1009 -0.3495
 8476TIP3    H225393   0.841   4.752   3.319 -0.4156 -0.0919 -0.1729
 8477TIP3   OH225394   0.161   1.501   0.173 -0.0973  0.1574  0.0994
 8477TIP3    H125395   0.172   1.544   0.258  0.2479  0.5994 -0.1627
 8477TIP3    H225396   0.095   1.434   0.189 -1.2217  1.2686  0.3497
 8478TIP3   OH225397   0.103   3.231   1.529  0.2652  0.4963 -0.3586
 8478TIP3    H125398   0.036   3.299   1.520 -0.3819 -0.2501 -1.3747
 8478TIP3    H225399   0.054   3.149   1.536  1.0446  0.0737  0.3305
 8479TIP3   OH225400   3.219   5.565   1.237 -0.2100  0.0379 -0.2364
 8479TIP3    H125401   3.315   5.565   1.234 -0.2036 -1.8975 -2.6414
 8479TIP3    H225402   3.195   5.658   1.235  1.5907  0.5691  0.7233
 8480TIP3   OH225403   6.721   0.906   0.065 -0.0010  0.0357  0.1730
 8480TIP3    H125404   6.665   0.891   0.142 -0.7301  1.0649 -0.1452
 8480TIP3    H225405   6.757   0.994   0.077  0.0986  0.0985 -0.5302
 8481TIP3   OH225406   6.344   5.333   4.291 -0.2379  0.4337  0.2656
 8481TIP3    H125407   6.269   5.391   4.307  0.1638  0.6618  1.4133
 8481TIP3    H225408   6.338   5.267   4.360  0.8717  0.7325  0.6747
 8482TIP3   OH225409   3.881   4.347   1.021  0.4811 -0.3881 -0.1104
 8482TIP3    H125410   3.858   4.259   0.990  0.2546 -0.0232 -1.0185
 8482TIP3    H225411   3.798   4.384   1.051  0.5867 -0.5022  0.3261
 8483TIP3   OH225412   5.476   0.326   0.343  0.0419 -0.3642  0.1950
 8483TIP3    H125413   5.418   0.375   0.284 -0.7996 -1.1978  0.3067
 8483TIP3    H225414   5.466   0.235   0.316  2.0017 -0.4629 -0.3573
 8484TIP3   OH225415   5.960   4.550   5.263  0.1299 -0.3273  0.7518
 8484TIP3    H125416   6.026   4.503   5.213  1.0142  0.3555  1.2339
 8484TIP3    H225417   5.932   4.621   5.206 -0.0264 -0.4872  0.6295
 8485TIP3   OH225418   1.669   4.262   3.230 -0.0148  0.3315  0.5735
 8485TIP3    H125419   1.710   4.233   3.312  1.9913 -3.1185 -1.4022
 8485TIP3    H225420   1.667   4.357   3.237  1.4984  0.2853  3.9404
 8486TIP3   OH225421   6.292   1.463   1.470  0.9978 -0.2527  0.1726
 8486TIP3    H125422   6.339   1.546   1.482 -1.9361  1.8522 -1.5982
 8486TIP3    H225423   6.212   1.474   1.521 -0.3566 -1.1382 -1.6619
 8487TIP3   OH225424   3.621   4.225   2.959 -0.0586  0.4983 -0.2469
 8487TIP3    H125425   3.639   4.311   2.922  0.7283 -0.5245 -2.4018
 8487TIP3    H225426   3.652   4.163   2.893  2.0622 -1.5247  2.3976
 8488TIP3   OH225427   2.520   2.086   2.189  0.1616 -0.2853 -0.1058
 8488TIP3    H125428   2.494   2.104   2.279  0.4958 -1.4681  0.2467
 8488TIP3    H225429   2.531   2.172   2.149  0.1598  0.2534  1.0245
 8489TIP3   OH225430   2.905   6.414   1.511  0.3474 -0.2837  0.1789
 8489TIP3    H125431   2.834   6.429   1.449 -0.7695 -2.6810  0.7390
 8489TIP3    H225432   2.923   6.500   1.549 -1.2721  0.6351 -1.0087
 8490TIP3   OH225433   1.412   3.313   1.219  0.0065 -0.0537 -0.3206
 8490TIP3    H125434   1.482   3.265   1.175 -0.0371 -0.0786 -0.3640
 8490TIP3    H225435   1.438   3.317   1.311  0.0706 -0.0521 -0.3393
 8491TIP3   OH225436   6.165   6.497   1.562  0.3575 -0.1805  0.2732
 8491TIP3    H125437   6.193   6.417   1.606 -0.8604 -2.0864 -2.1319
 8491TIP3    H225438   6.070   6.501   1.576  0.2823  0.3819 -0.2982
 8492TIP3   OH225439   0.050   1.171   2.407  0.1968  0.4341 -0.2395
 8492TIP3    H125440   0.139   1.169   2.371  0.7815  1.0882  1.1023
 8492TIP3    H225441   0.058   1.128   2.493 -1.1982 -1.2792 -0.9070
 8493TIP3   OH225442   0.792   5.488   2.925  0.1695 -0.3568  0.4563
 8493TIP3    H125443   0.795   5.393   2.938 -0.8811 -0.6787 -1.3514
 8493TIP3    H225444   0.746   5.522   3.002  0.4830 -1.2994  1.0774
 8494TIP3   OH225445   0.079   3.520   5.328 -0.0686  0.3365 -0.3281
 8494TIP3    H125446   0.124   3.603   5.312 -0.6298  0.2793 -2.5758
 8494TIP3    H225447   0.142   3.453   5.304  0.0551  0.1185  0.5711
 8495TIP3   OH225448   2.638   3.645   0.695 -0.1921 -0.5770  0.0299
 8495TIP3    H125449   2.588   3.623   0.617  1.7060  0.5925 -1.6180
 8495TIP3    H225450   2.645   3.562   0.743 -0.3850 -1.6302 -1.6734
 8496TIP3   OH225451   3.328   4.674   3.936  0.0034 -0.3104 -0.4178
 8496TIP3    H125452   3.257   4.671   3.873 -0.5360  0.3913  0.1387
 8496TIP3    H225453   3.356   4.583   3.945  0.6064 -0.3461 -2.2167
 8497TIP3   OH225454   6.028   4.218   3.158  0.0968  0.0907 -0.0689
 8497TIP3    H125455   6.098   4.203   3.220  0.1375 -0.6817 -0.2862
 8497TIP3    H225456   5.950   4.231   3.212  0.3142  0.4719  0.1593
 8498TIP3   OH225457   4.050   0.290   4.276 -0.2776  0.8742 -0.4743
 8498TIP3    H125458   3.964   0.264   4.243  0.1214  0.0440 -0.8651
 8498TIP3    H225459   4.037   0.380   4.306 -1.7540  0.2083  1.1233
 8499TIP3   OH225460   3.738   0.650   2.509 -0.1624  0.3116  0.1282
 8499TIP3    H125461   3.687   0.673   2.587  1.8695 -0.6333  1.8520
 8499TIP3    H225462   3.734   0.554   2.506 -0.4711  0.3532 -1.1316
 8500TIP3   OH225463   1.539   4.331   2.441  0.3550  0.3554  0.7465
 8500TIP3    H125464   1.601   4.403   2.441  0.2217  0.4709  0.6839
 8500TIP3    H225465   1.583   4.262   2.392  0.4194  0.4487  0.6728
 8501TIP3   OH225466   3.131   6.159   3.334 -0.2144  0.0761 -0.1949
 8501TIP3    H125467   3.038   6.142   3.326 -0.4212  1.3794 -0.6579
 8501TIP3    H225468   3.172   6.074   3.318 -1.2638 -0.2899 -1.0251
 8502TIP3   OH225469   5.420   1.281   5.407  0.2945 -0.8736  0.5514
 8502TIP3    H125470   5.512   1.255   5.409  0.0062 -1.9948  2.4426
 8502TIP3    H225471   5.382   1.232   5.334  1.0334 -1.0767  0.3021
 8503TIP3   OH225472   1.559   6.070   5.747  0.3572  0.2447 -0.0893
 8503TIP3    H125473   1.502   6.137   5.784 -0.8406 -1.1932  0.7684
 8503TIP3    H225474   1.636   6.069   5.804  0.6458  1.2142 -0.4260
 8504TIP3   OH225475   2.939   5.412   5.111 -0.1732 -0.1043 -0.2899
 8504TIP3    H125476   2.917   5.474   5.041  0.8040  0.5558 -0.0208
 8504TIP3    H225477   3.006   5.456   5.162 -0.6523 -0.7206  0.8935
 8505TIP3   OH225478   6.733   3.022   3.905  0.2032  0.2174  0.0035
 8505TIP3    H125479   6.682   2.946   3.878 -0.2265  0.4180  0.2293
 8505TIP3    H225480   6.685   3.097   3.869  0.9042  0.3587 -0.6635
 8506TIP3   OH225481   5.487   6.706   1.551  0.5677 -0.5244 -1.0969
 8506TIP3    H125482   5.551   6.739   1.613 -1.6364  0.7123  0.6690
 8506TIP3    H225483   5.473   6.779   1.490  0.9377 -0.8678 -1.6093
 8507TIP3   OH225484   2.560   5.885   3.817 -0.0653 -0.0484 -0.1566
 8507TIP3    H125485   2.546   5.912   3.726 -1.3642  0.7016  0.2293
 8507TIP3    H225486   2.565   5.968   3.865  0.4708 -0.4446  0.4764
 8508TIP3   OH225487   0.108   1.234   4.902 -0.1087 -0.4039  0.1366
 8508TIP3    H125488   0.013   1.248   4.895 -0.1024 -0.9459 -2.2520
 8508TIP3    H225489   0.146   1.322   4.900 -0.5524 -0.1944  0.8098
 8509TIP3   OH225490   4.822   3.487   5.846 -0.0630  0.3191  0.0081
 8509TIP3    H125491   4.738   3.483   5.800 -0.1063 -0.3132  0.1326
 8509TIP3    H225492   4.840   3.396   5.871  0.5069  0.4961  0.2546
 8510TIP3   OH225493   0.461   3.665   5.249  0.4110 -0.0520  0.2591
 8510TIP3    H125494   0.538   3.621   5.285 -0.5084 -0.0968  2.2473
 8510TIP3    H225495   0.394   3.598   5.245  0.1571  0.2332 -0.5291
 8511TIP3   OH225496   1.802   5.648   5.750  0.4986 -0.1649 -0.3669
 8511TIP3    H125497   1.746   5.676   5.822 -0.0894 -0.6274 -0.6373
 8511TIP3    H225498   1.878   5.607   5.793 -0.4966 -1.6960  0.0022
 8512TIP3   OH225499   0.572   4.104   2.005  0.7995  0.4037 -0.0977
 8512TIP3    H125500   0.608   4.093   1.917  1.1045  2.1438 -0.2299
 8512TIP3    H225501   0.633   4.165   2.047  0.3447  0.0210  1.1328
 8513TIP3   OH225502   2.278   1.900   2.728  0.7438 -0.4553  0.7002
 8513TIP3    H125503   2.327   1.837   2.780  0.4578  0.2265  1.8367
 8513TIP3    H225504   2.211   1.848   2.683  1.1265 -1.0870  0.8570
 8514TIP3   OH225505   4.540   1.278   5.720 -0.0540  0.5897 -0.2519
 8514TIP3    H125506   4.462   1.331   5.736  0.3102  0.7812  1.0341
 8514TIP3    H225507   4.507   1.196   5.685 -0.7728  0.9422 -0.4128
 8515TIP3   OH225508   0.896   0.266   4.548  0.3755 -0.1746 -0.1095
 8515TIP3    H125509   0.915   0.316   4.628 -0.2731 -0.6154  0.3247
 8515TIP3    H225510   0.925   0.323   4.477 -1.8611  1.5474  0.2812
 8516TIP3   OH225511   5.288   5.215   3.779  0.4317  0.0097 -0.0639
 8516TIP3    H125512   5.212   5.157   3.774  0.5781 -0.2677  0.7617
 8516TIP3    H225513   5.351   5.167   3.832  1.0595  0.3818 -0.4666
 8517TIP3   OH225514   2.852   0.568   1.021 -0.0347  0.5766 -0.5701
 8517TIP3    H125515   2.876   0.503   1.087  0.4546  1.6254  0.3041
 8517TIP3    H225516   2.909   0.549   0.947 -0.8174 -0.8234 -0.8587
 8518TIP3   OH225517   6.380   3.036   5.664 -0.2472  0.6312  0.1199
 8518TIP3    H125518   6.438   3.108   5.691 -1.2391  1.4353  0.1669
 8518TIP3    H225519   6.319   3.076   5.603 -1.1292 -0.0649  0.5261
 8519TIP3   OH225520   3.766   2.147   3.078  0.4123  0.2075  0.1218
 8519TIP3    H125521   3.713   2.090   3.133  0.2865  0.2701  0.0658
 8519TIP3    H225522   3.749   2.235   3.110  2.6961  0.0580  2.0353
 8520TIP3   OH225523   6.740   3.254   5.289  0.2452  0.3312  0.1003
 8520TIP3    H125524   6.789   3.329   5.325  0.4402 -0.4227  1.4877
 8520TIP3    H225525   6.718   3.202   5.366  0.0885 -1.0290 -0.8461
 8521TIP3   OH225526   6.858   2.301   1.424 -0.8188 -0.0402 -0.1142
 8521TIP3    H125527   6.793   2.365   1.398 -1.4122  0.3024  1.9930
 8521TIP3    H225528   6.912   2.347   1.489  1.5309 -0.3238 -1.7465
 8522TIP3   OH225529   0.796   3.331   5.153 -0.3310  0.0205  0.1971
 8522TIP3    H125530   0.834   3.411   5.118 -3.0883  1.3827  0.0229
 8522TIP3    H225531   0.793   3.345   5.248 -3.2288  1.4440  0.0097
 8523TIP3   OH225532   0.867   1.754   5.085 -0.3696  0.0532  0.2770
 8523TIP3    H125533   0.947   1.798   5.115  0.0210 -0.1210 -0.5004
 8523TIP3    H225534   0.809   1.757   5.161  1.0332 -1.4489  1.4890
 8524TIP3   OH225535   7.003   3.092   5.506 -0.1053  0.2933  0.4232
 8524TIP3    H125536   7.079   3.100   5.448 -0.5204  0.6713 -0.0782
 8524TIP3    H225537   6.973   3.182   5.518 -1.3859  0.0313 -0.6292
 8525TIP3   OH225538   0.883   1.094   4.363  0.3937  0.1298  0.0108
 8525TIP3    H125539   0.838   1.147   4.297 -1.4080  0.1097  1.1767
 8525TIP3    H225540   0.814   1.040   4.402  1.7435 -1.2013  0.6441
 8526TIP3   OH225541   6.386   5.817   4.222  0.5087 -0.2607 -0.8403
 8526TIP3    H125542   6.439   5.807   4.143  0.6920  0.4496 -0.8212
 8526TIP3    H225543   6.429   5.762   4.287  0.1859 -1.0802 -1.3122
 8527TIP3   OH225544   1.163   3.731   3.739 -0.3785  0.0626  0.5383
 8527TIP3    H125545   1.191   3.640   3.729 -0.8113 -0.1756  1.3956
 8527TIP3    H225546   1.094   3.742   3.673  1.1968  0.4629 -1.1365
 8528TIP3   OH225547   6.464   4.253   2.277  0.1720 -0.1890  0.1053
 8528TIP3    H125548   6.478   4.346   2.297 -0.3011  0.0560 -0.6484
 8528TIP3    H225549   6.494   4.243   2.187 -0.4345 -0.6085 -0.0591
 8529TIP3   OH225550   2.849   3.727   2.524  0.3189  0.2169 -0.0550
 8529TIP3    H125551   2.918   3.697   2.463  1.2528  1.3319  0.4099
 8529TIP3    H225552   2.866   3.679   2.605  1.0486  1.0242  0.2959
 8530TIP3   OH225553   2.383   0.934   5.231  0.4657 -0.3280 -0.1228
 8530TIP3    H125554   2.471   0.899   5.238  0.6216  0.1892  0.7367
 8530TIP3    H225555   2.392   1.027   5.254 -0.6293 -0.7533  2.4439
 8531TIP3   OH225556   4.880   4.148   1.504 -0.3632  0.2905  0.6384
 8531TIP3    H125557   4.936   4.124   1.430 -0.5071  0.4179  0.4875
 8531TIP3    H225558   4.842   4.233   1.479 -0.1510  0.4930  1.0031
 8532TIP3   OH225559   1.252   1.105   4.394  0.3663  0.0411 -0.0041
 8532TIP3    H125560   1.218   1.193   4.380  1.3423  0.5012  0.4645
 8532TIP3    H225561   1.342   1.108   4.363 -0.4749 -1.6621 -2.9897
 8533TIP3   OH225562   5.502   5.913   5.830 -0.3562 -0.1276 -0.1561
 8533TIP3    H125563   5.587   5.954   5.846 -0.3092 -0.2036 -0.2100
 8533TIP3    H225564   5.468   5.959   5.753 -0.2927 -0.2059 -0.2311
 8534TIP3   OH225565   1.110   6.507   4.411 -0.4864 -0.1226  0.3645
 8534TIP3    H125566   1.133   6.593   4.447 -0.0865 -0.1505  0.1848
 8534TIP3    H225567   1.092   6.525   4.318  1.0658 -0.4630 -0.0228
 8535TIP3   OH225568   5.372   3.169   0.966  0.0139 -0.4197 -0.1697
 8535TIP3    H125569   5.288   3.213   0.951 -0.6799 -1.8087 -0.5863
 8535TIP3    H225570   5.419   3.177   0.883  0.2051  0.1601 -0.0093
 8536TIP3   OH225571   6.107   4.009   1.296 -0.0616  0.1795 -0.0213
 8536TIP3    H125572   6.179   4.071   1.285  0.5960 -0.8896 -2.6871
 8536TIP3    H225573   6.086   4.012   1.389  2.1177  1.9651  0.4973
 8537TIP3   OH225574   6.476   6.682   5.495 -0.0584  0.3068 -0.8199
 8537TIP3    H125575   6.482   6.756   5.556 -0.1188  2.2264 -2.9866
 8537TIP3    H225576   6.555   6.630   5.512 -0.2675  0.5693  1.1054
 8538TIP3   OH225577   1.311   4.402   2.565 -0.1310  0.1829 -0.1110
 8538TIP3    H125578   1.380   4.365   2.510  0.0552  0.5681 -0.1457
 8538TIP3    H225579   1.359   4.451   2.632 -0.3714  1.1640 -0.6318
 8539TIP3   OH225580   3.382   3.441   1.588 -0.2080  0.1269  0.5208
 8539TIP3    H125581   3.366   3.390   1.508  2.1268 -2.0269  1.2871
 8539TIP3    H225582   3.299   3.486   1.605 -1.3389 -0.7782 -2.0931
 8540TIP3   OH225583   3.530   4.653   0.637 -0.0693 -0.1259  0.0091
 8540TIP3    H125584   3.589   4.586   0.670 -1.3130 -1.2055  0.1160
 8540TIP3    H225585   3.476   4.608   0.572 -1.6752  0.4719  0.8774
 8541TIP3   OH225586   4.301   3.429   2.839 -0.5378 -0.0288 -0.1973
 8541TIP3    H125587   4.216   3.464   2.812  0.4920  1.6267 -1.5399
 8541TIP3    H225588   4.364   3.472   2.781  1.1660 -1.7786  0.2350
 8542TIP3   OH225589   1.567   0.589   3.061  0.4656 -0.4103 -0.5519
 8542TIP3    H125590   1.486   0.586   3.011 -0.9537  0.5398  1.5802
 8542TIP3    H225591   1.632   0.550   3.002 -1.3978 -0.7782 -2.5017
 8543TIP3   OH225592   2.939   3.677   2.081  0.2251  0.4976  0.1244
 8543TIP3    H125593   3.005   3.692   2.013  0.8905  1.2118  0.9059
 8543TIP3    H225594   2.857   3.705   2.041  0.4468  0.0054 -0.7091
 8544TIP3   OH225595   2.166   6.570   2.804 -0.1057  0.3204  0.4434
 8544TIP3    H125596   2.081   6.586   2.846  0.2963  0.3917  1.2540
 8544TIP3    H225597   2.226   6.556   2.877  0.2155 -1.6631 -0.1428
 8545TIP3   OH225598   2.885   3.817   4.249 -0.7377  0.4020 -0.1741
 8545TIP3    H125599   2.952   3.771   4.199 -0.4678  0.8244 -0.2043
 8545TIP3    H225600   2.889   3.779   4.337  1.4812  2.3110  0.6565
 8546TIP3   OH225601   2.657   4.699   3.804 -0.5068 -0.0049 -0.2359
 8546TIP3    H125602   2.734   4.676   3.857 -0.1027  0.1262 -0.7641
 8546TIP3    H225603   2.583   4.662   3.853 -0.0083 -1.1173 -0.2924
 8547TIP3   OH225604   2.556   4.952   0.432  0.3857 -0.8567 -0.4013
 8547TIP3    H125605   2.591   5.040   0.427  1.2286 -1.0855  0.9723
 8547TIP3    H225606   2.505   4.941   0.352 -1.7892  1.7426  0.4796
 8548TIP3   OH225607   3.970   1.737   0.230 -0.1280 -0.2164 -0.1299
 8548TIP3    H125608   3.942   1.775   0.146 -0.1836  0.3622  0.1406
 8548TIP3    H225609   3.888   1.711   0.273 -0.1306 -0.1123 -0.0714
 8549TIP3   OH225610   1.672   0.343   0.352  0.2475 -0.6528  0.2903
 8549TIP3    H125611   1.697   0.407   0.286  0.3485  0.2734  1.1921
 8549TIP3    H225612   1.629   0.273   0.303 -0.3151  0.3383 -0.6782
 8550TIP3   OH225613   0.284   3.223   4.466  0.1760 -0.0229  0.3424
 8550TIP3    H125614   0.215   3.223   4.400 -0.0398  0.5846  0.5636
 8550TIP3    H225615   0.357   3.176   4.425 -0.1197 -0.0528 -0.1482
 8551TIP3   OH225616   4.713   4.664   0.877 -0.4280  0.1191 -0.4241
 8551TIP3    H125617   4.791   4.715   0.901 -0.8698  0.2740  0.7455
 8551TIP3    H225618   4.664   4.656   0.959 -2.4066  1.3139 -1.4377
 8552TIP3   OH225619   6.275   4.889   0.859 -0.4178  0.4232 -0.1469
 8552TIP3    H125620   6.316   4.928   0.782  0.0873  0.2694  0.0368
 8552TIP3    H225621   6.294   4.950   0.930  2.1984 -1.0777  0.5964
 8553TIP3   OH225622   1.160   1.002   3.329  0.4133  0.3891  0.2022
 8553TIP3    H125623   1.114   0.941   3.271 -0.5415 -0.1464  1.4781
 8553TIP3    H225624   1.251   0.974   3.325  0.2789  0.0192 -0.6077
 8554TIP3   OH225625   6.736   3.483   0.157  0.5796  0.4299 -0.0951
 8554TIP3    H125626   6.642   3.491   0.139  0.1992 -2.9192 -0.2408
 8554TIP3    H225627   6.775   3.462   0.073  1.1159 -0.3217  0.3326
 8555TIP3   OH225628   1.816   6.234   5.660 -0.5650 -0.4709 -0.3145
 8555TIP3    H125629   1.892   6.289   5.678 -2.1966  2.1395 -0.8417
 8555TIP3    H225630   1.834   6.196   5.573  1.5279 -2.6674  0.9392
 8556TIP3   OH225631   6.267   6.551   5.380  0.5438 -0.6387  0.3056
 8556TIP3    H125632   6.358   6.564   5.406  0.9191  0.4916 -1.4482
 8556TIP3    H225633   6.269   6.549   5.285 -1.0957 -2.1137  0.2634
 8557TIP3   OH225634   6.163   4.029   1.567 -0.6314  0.2230  0.1664
 8557TIP3    H125635   6.089   4.069   1.612 -1.2741 -0.1102 -0.5803
 8557TIP3    H225636   6.236   4.090   1.582 -1.6447  1.8565 -1.1547
 8558TIP3   OH225637   6.510   3.611   5.219 -0.4917 -0.4168  0.0345
 8558TIP3    H125638   6.529   3.689   5.168 -0.3882  0.2939  1.1120
 8558TIP3    H225639   6.426   3.580   5.187  0.2236 -0.8302 -1.5236
 8559TIP3   OH225640   6.467   4.068   1.864 -0.3954  0.0986  0.3228
 8559TIP3    H125641   6.501   4.004   1.801 -3.9311  0.1283 -1.8781
 8559TIP3    H225642   6.413   4.017   1.924 -1.2038  0.6658  0.0973
 8560TIP3   OH225643   3.764   5.676   5.437  0.3817  0.4789  0.1338
 8560TIP3    H125644   3.773   5.708   5.527  0.4278  0.9742 -0.0432
 8560TIP3    H225645   3.839   5.714   5.391  0.0831  0.6378 -0.2267
 8561TIP3   OH225646   5.249   1.826   4.479  0.6741  0.4546 -0.1157
 8561TIP3    H125647   5.217   1.780   4.401 -0.4677  0.1203  0.5261
 8561TIP3    H225648   5.180   1.813   4.544  1.9569  0.0732  1.2007
 8562TIP3   OH225649   5.935   2.622   5.002 -0.4226 -0.0921 -0.0695
 8562TIP3    H125650   6.011   2.674   4.976  1.1368 -2.5753 -0.8832
 8562TIP3    H225651   5.936   2.625   5.098 -1.2648  2.4389 -0.0617
 8563TIP3   OH225652   0.508   1.416   4.012  0.3366  0.6102  0.0573
 8563TIP3    H125653   0.524   1.489   3.952  1.8181  0.6859  0.4996
 8563TIP3    H225654   0.420   1.386   3.991  0.6800  0.8527 -1.9185
 8564TIP3   OH225655   1.730   3.053   3.572  0.0658  0.7223 -0.4271
 8564TIP3    H125656   1.817   3.019   3.553  1.0817  1.6745  2.0763
 8564TIP3    H225657   1.678   2.975   3.595  0.7435  0.3065 -0.2801
 8565TIP3   OH225658   2.164   1.992   5.781 -0.5303  0.0060  0.2640
 8565TIP3    H125659   2.204   2.053   5.720 -1.9204  1.3111  0.6168
 8565TIP3    H225660   2.235   1.930   5.803 -0.3506 -1.5315 -3.8280
 8566TIP3   OH225661   3.684   3.782   0.162 -0.1181  0.3504  0.0805
 8566TIP3    H125662   3.733   3.753   0.085  1.6039  1.9932  0.4615
 8566TIP3    H225663   3.659   3.873   0.141 -1.1936  0.2312  0.7627
 8567TIP3   OH225664   4.122   1.391   1.146 -0.5830  0.4526 -0.8067
 8567TIP3    H125665   4.215   1.390   1.123 -0.8529 -0.5328 -1.9208
 8567TIP3    H225666   4.077   1.415   1.065 -1.3272  0.5368 -0.3761
 8568TIP3   OH225667   5.269   5.292   0.351  0.3625  0.0732 -0.2736
 8568TIP3    H125668   5.285   5.198   0.365 -1.2014  0.0378  1.8100
 8568TIP3    H225669   5.355   5.333   0.364  0.7755 -0.9434  0.3750
 8569TIP3   OH225670   3.527   5.580   5.350 -0.0270 -0.2211  0.0135
 8569TIP3    H125671   3.486   5.654   5.305  0.2069  0.0653  0.2645
 8569TIP3    H225672   3.611   5.614   5.379 -1.0611  0.3588  2.6473
 8570TIP3   OH225673   6.653   1.576   4.265  0.6933 -0.5812 -0.2585
 8570TIP3    H125674   6.592   1.650   4.258  1.7463  0.3949  0.6333
 8570TIP3    H225675   6.663   1.545   4.175 -1.3915 -1.0290 -0.4056
 8571TIP3   OH225676   1.506   3.072   2.183  0.0954 -0.7178  0.4398
 8571TIP3    H125677   1.520   3.031   2.097  3.0433  0.5618  0.1760
 8571TIP3    H225678   1.565   3.026   2.242 -0.4841 -0.3201  1.3573
 8572TIP3   OH225679   2.406   5.492   4.560  0.2223  0.1750 -0.5176
 8572TIP3    H125680   2.497   5.482   4.587 -0.0604  0.2815  0.5311
 8572TIP3    H225681   2.383   5.582   4.585 -0.5969 -0.3265  0.6139
 8573TIP3   OH225682   3.603   4.057   0.100 -0.4247  0.1281 -0.4011
 8573TIP3    H125683   3.625   4.114   0.026  0.4766 -1.1952 -1.1841
 8573TIP3    H225684   3.517   4.021   0.077  0.0055 -0.5443 -0.9833
 8574TIP3   OH225685   4.415   6.114   2.440 -0.2814 -0.0822  0.0348
 8574TIP3    H125686   4.471   6.040   2.417 -0.7847 -0.1713 -0.9684
 8574TIP3    H225687   4.333   6.073   2.468 -0.2791  0.0798  0.2811
 8575TIP3   OH225688   5.020   1.644   1.101  0.0222 -0.4330 -0.1263
 8575TIP3    H125689   5.063   1.591   1.168 -2.1453  0.1669  1.8829
 8575TIP3    H225690   5.053   1.732   1.115 -1.2561 -0.0899  1.0083
 8576TIP3   OH225691   1.856   4.104   5.044 -0.7094 -1.2939 -0.1380
 8576TIP3    H125692   1.907   4.109   4.963 -0.4773  0.5681  0.0955
 8576TIP3    H225693   1.766   4.123   5.017 -0.4611  0.4533  0.1678
 8577TIP3   OH225694   2.773   5.833   1.154  0.8577 -0.0384 -0.1540
 8577TIP3    H125695   2.849   5.859   1.206 -0.2695  0.2015  1.4320
 8577TIP3    H225696   2.699   5.842   1.214 -0.2235 -1.9170 -1.1470
 8578TIP3   OH225697   4.476   3.714   4.903 -0.5782 -0.5423 -0.2671
 8578TIP3    H125698   4.394   3.703   4.856 -1.9692  1.1802  1.5762
 8578TIP3    H225699   4.451   3.754   4.986  2.0003 -1.2034  0.9434
 8579TIP3   OH225700   4.131   4.532   0.622  0.3997  0.3190 -0.4997
 8579TIP3    H125701   4.213   4.546   0.668 -0.5677  3.8532  0.4697
 8579TIP3    H225702   4.075   4.487   0.685  0.9045 -0.1207 -0.3648
 8580TIP3   OH225703   3.166   5.254   2.627 -0.0623  0.3372  1.0160
 8580TIP3    H125704   3.209   5.258   2.712 -1.1867  0.2455  1.6144
 8580TIP3    H225705   3.174   5.163   2.600  3.3571  0.9587 -0.6859
 8581TIP3   OH225706   7.009   4.906   1.968  0.1203 -0.2498 -0.2691
 8581TIP3    H125707   6.952   4.859   2.029  0.3904  1.1830  1.1563
 8581TIP3    H225708   7.089   4.853   1.964  0.4643  0.0815  1.3931
 8582TIP3   OH225709   1.699   3.204   5.069 -0.0137 -0.7252  0.3730
 8582TIP3    H125710   1.619   3.255   5.062  0.9335  0.5832 -2.2089
 8582TIP3    H225711   1.686   3.149   5.147 -2.4169  1.0869  1.3651
 8583TIP3   OH225712   6.597   0.222   0.735 -0.0237 -0.0491  0.1546
 8583TIP3    H125713   6.593   0.314   0.709  0.2274  0.4563  1.7692
 8583TIP3    H225714   6.557   0.175   0.662  2.6960  0.9758 -2.1811
 8584TIP3   OH225715   0.862   5.478   1.677 -0.5765 -0.7104 -0.0884
 8584TIP3    H125716   0.770   5.486   1.705 -0.1574  1.0272  0.9417
 8584TIP3    H225717   0.874   5.548   1.614  0.2601 -0.3851  0.4211
 8585TIP3   OH225718   2.452   3.580   5.038  0.4330 -0.2336 -0.2058
 8585TIP3    H125719   2.477   3.501   4.991  1.5790 -0.3782  0.6057
 8585TIP3    H225720   2.460   3.556   5.131 -3.7310 -0.6268  0.2547
 8586TIP3   OH225721   4.982   4.100   3.855  0.1913  0.3006  0.1501
 8586TIP3    H125722   4.947   4.130   3.770  1.8003 -0.7790 -0.9537
 8586TIP3    H225723   4.973   4.176   3.912 -1.1229  1.0090 -0.9141
 8587TIP3   OH225724   7.182   2.186   0.202 -0.2222 -1.2432  0.4007
 8587TIP3    H125725   7.131   2.185   0.121  1.5658 -0.9736 -0.7897
 8587TIP3    H225726   7.218   2.097   0.208  0.0938 -1.1013  0.6129
 8588TIP3   OH225727   7.001   0.068   1.284  0.0449 -0.5447  0.1520
 8588TIP3    H125728   7.092   0.077   1.255 -0.0373 -0.1159  0.0078
 8588TIP3    H225729   6.961   0.152   1.261 -0.3444 -0.6685  0.3685
 8589TIP3   OH225730   4.555   2.612   2.861  0.6461 -0.3921  0.6294
 8589TIP3    H125731   4.586   2.521   2.869  2.0691  0.1319  1.4541
 8589TIP3    H225732   4.615   2.652   2.798 -1.8446 -0.7545 -2.2047
 8590TIP3   OH225733   1.019   2.575   1.342  0.0109 -0.0683  0.7948
 8590TIP3    H125734   0.997   2.661   1.379 -0.3408  0.5484 -0.7713
 8590TIP3    H225735   0.973   2.512   1.398 -0.2563  0.8018  1.5797
 8591TIP3   OH225736   6.099   1.910   2.633  0.0428  0.1568 -0.1297
 8591TIP3    H125737   6.076   1.845   2.699 -0.5953  2.0649  1.6206
 8591TIP3    H225738   6.149   1.861   2.567 -0.2773 -2.0356  1.1764
 8592TIP3   OH225739   4.637   5.539   4.095 -0.0839 -0.0297  0.0383
 8592TIP3    H125740   4.610   5.448   4.082  1.9914 -0.7074  0.0258
 8592TIP3    H225741   4.601   5.586   4.020 -0.8954 -0.8988 -0.1386
 8593TIP3   OH225742   0.055   0.724   2.843 -0.1206  0.0073 -0.1789
 8593TIP3    H125743   0.035   0.807   2.886  0.0978 -0.5817  1.1199
 8593TIP3    H225744  -0.030   0.679   2.837  0.1037 -0.7169  1.4636
 8594TIP3   OH225745   2.020   2.544   5.636 -0.0589  0.4350 -1.0177
 8594TIP3    H125746   1.991   2.454   5.642  2.5550 -0.4012  1.6419
 8594TIP3    H225747   2.112   2.538   5.609  0.8652  2.0279  1.4081
 8595TIP3   OH225748   5.771   2.453   1.957 -0.2464  0.3484  0.1462
 8595TIP3    H125749   5.835   2.518   1.928 -0.2936  0.2348 -0.2173
 8595TIP3    H225750   5.687   2.488   1.929 -0.4950  1.1128  1.7104
 8596TIP3   OH225751   2.059   2.367   2.661  0.2924  0.3316  0.1890
 8596TIP3    H125752   2.015   2.289   2.628  0.4528  0.1351  0.4416
 8596TIP3    H225753   2.024   2.379   2.749  1.6621 -0.5605  0.8904
 8597TIP3   OH225754   5.555   2.689   5.663 -0.2346 -0.2422  0.2275
 8597TIP3    H125755   5.469   2.708   5.702  0.1031  0.1451  0.8116
 8597TIP3    H225756   5.589   2.775   5.638  0.0875 -0.3682  0.2320
 8598TIP3   OH225757   4.587   3.037   2.069 -0.2940  0.4802  0.5818
 8598TIP3    H125758   4.563   2.958   2.117 -1.0797 -0.2152 -0.9185
 8598TIP3    H225759   4.509   3.093   2.076  0.1680  1.0464  1.4233
 8599TIP3   OH225760   4.639   1.924   3.122 -0.3598  0.3240  0.8073
 8599TIP3    H125761   4.663   1.833   3.104  0.5500  1.1690 -2.8734
 8599TIP3    H225762   4.638   1.929   3.218  1.8505 -2.9426  1.1686
 8600TIP3   OH225763   6.181   5.278   4.776  0.7034  0.0310  0.0316
 8600TIP3    H125764   6.268   5.318   4.776  0.7318 -0.0229 -0.3589
 8600TIP3    H225765   6.158   5.269   4.868  1.6776 -1.2053  0.1733
 8601TIP3   OH225766   0.620   3.403   1.484 -0.1240  0.3438  0.2664
 8601TIP3    H125767   0.530   3.375   1.465 -0.0546 -0.1072  0.5716
 8601TIP3    H225768   0.616   3.498   1.483 -0.5866  0.3291  0.1745
 8602TIP3   OH225769   2.168   5.698   1.734  1.1858 -0.6047 -0.2885
 8602TIP3    H125770   2.147   5.779   1.687 -0.1616 -0.0893  1.1408
 8602TIP3    H225771   2.148   5.629   1.671  0.9749  0.1129 -1.0292
 8603TIP3   OH225772   2.327   2.062   0.426 -0.2292 -0.0119  0.2913
 8603TIP3    H125773   2.383   2.116   0.370 -1.9515 -0.8983 -2.4245
 8603TIP3    H225774   2.330   1.975   0.388 -3.9528  0.0350 -0.4978
 8604TIP3   OH225775   4.116   5.864   5.657 -0.0841  0.3512 -0.1780
 8604TIP3    H125776   4.141   5.931   5.721  2.9939 -1.0225  0.2147
 8604TIP3    H225777   4.185   5.866   5.591 -1.7982 -0.0873 -2.0630
 8605TIP3   OH225778   3.262   3.886   3.639  0.6940 -0.5809 -0.0787
 8605TIP3    H125779   3.259   3.880   3.735  0.4961 -2.0645 -0.1508
 8605TIP3    H225780   3.172   3.866   3.612  0.4279  1.1250 -0.5438
 8606TIP3   OH225781   1.799   2.594   3.010 -0.5786  0.2050 -0.4757
 8606TIP3    H125782   1.813   2.689   3.007 -0.4418  0.1786 -0.7250
 8606TIP3    H225783   1.709   2.583   2.978 -0.6859  0.2701 -0.1975
 8607TIP3   OH225784   1.469   4.747   5.493 -0.5342 -0.7957  0.2012
 8607TIP3    H125785   1.383   4.784   5.509 -0.1222  0.3947 -0.2657
 8607TIP3    H225786   1.515   4.812   5.440  1.8218  0.2155  3.1450
 8608TIP3   OH225787   1.036   6.832   5.794  0.4658  0.1950  0.3041
 8608TIP3    H125788   0.987   6.751   5.810  2.5489 -1.0974  0.4882
 8608TIP3    H225789   1.087   6.814   5.715 -0.6212  2.1487 -0.9202
 8609TIP3   OH225790   1.175   2.005   3.617  0.8122 -0.4480 -0.0270
 8609TIP3    H125791   1.223   1.956   3.550 -1.1991 -0.7841 -1.2950
 8609TIP3    H225792   1.084   1.980   3.605 -0.1709  2.7013  0.0643
 8610TIP3   OH225793   4.163   3.285   5.207  0.1577  0.3686 -0.2979
 8610TIP3    H125794   4.218   3.241   5.272 -1.9787 -0.3944  1.1112
 8610TIP3    H225795   4.139   3.215   5.145 -0.9915  0.1538  0.3661
 8611TIP3   OH225796   4.278   0.804   1.263 -0.5213 -0.2687  0.5471
 8611TIP3    H125797   4.351   0.744   1.277 -1.6886 -1.7773  0.3837
 8611TIP3    H225798   4.302   0.854   1.185  0.9744  0.3140  1.3386
 8612TIP3   OH225799   1.010   6.597   4.184 -0.0612 -0.4632 -0.1676
 8612TIP3    H125800   1.052   6.550   4.112 -0.9647 -0.2937 -0.8185
 8612TIP3    H225801   0.937   6.643   4.144 -0.3199 -0.0134  0.7868
 8613TIP3   OH225802   1.424   6.612   1.534 -0.0000 -0.2562 -0.0186
 8613TIP3    H125803   1.437   6.601   1.629 -0.0210  0.5844  0.0838
 8613TIP3    H225804   1.493   6.560   1.494  0.9314  0.5880  0.4737
 8614TIP3   OH225805   7.069   2.343   4.156 -0.6713 -0.0371 -0.4629
 8614TIP3    H125806   7.019   2.286   4.214 -0.1417  1.6698  1.7804
 8614TIP3    H225807   7.004   2.402   4.117 -0.7251  0.6153  0.5866
 8615TIP3   OH225808   0.088   1.036   3.743  0.7719 -0.3338  0.8444
 8615TIP3    H125809   0.135   1.035   3.826  0.8310 -0.2117  0.8130
 8615TIP3    H225810  -0.000   1.006   3.764  1.2717 -2.0580  0.6519
 8616TIP3   OH225811   4.972   5.343   3.886  0.2306 -0.4216 -0.2003
 8616TIP3    H125812   4.882   5.324   3.858  1.0706 -2.0829 -2.0045
 8616TIP3    H225813   5.024   5.331   3.806  2.0277  0.8122  0.7393
 8617TIP3   OH225814   1.640   1.787   0.618 -0.1721 -0.6558 -0.5521
 8617TIP3    H125815   1.608   1.799   0.529 -0.7063 -1.4464 -0.4864
 8617TIP3    H225816   1.599   1.705   0.647  1.1443 -1.1715 -0.0885
 8618TIP3   OH225817   3.091   6.142   2.284  0.4570 -0.7624 -0.1297
 8618TIP3    H125818   3.064   6.138   2.376 -0.2791 -1.0295 -0.3447
 8618TIP3    H225819   3.149   6.067   2.273  0.5228 -0.7473  0.1105
 8619TIP3   OH225820   1.171   3.314   2.349  0.2887 -0.5420  0.4108
 8619TIP3    H125821   1.240   3.381   2.355  0.2419 -0.5759  1.6649
 8619TIP3    H225822   1.201   3.244   2.407 -0.5650 -0.7797  0.5802
 8620TIP3   OH225823   6.617   4.656   4.623 -0.4032  0.4294  0.4600
 8620TIP3    H125824   6.620   4.583   4.561 -0.0482  0.5526  0.3307
 8620TIP3    H225825   6.537   4.704   4.599 -0.6788  0.0396  0.5980
 8621TIP3   OH225826   0.661   0.202   3.205 -0.0148  0.3223 -0.5528
 8621TIP3    H125827   0.679   0.296   3.199  1.3218  0.2599  1.3647
 8621TIP3    H225828   0.748   0.161   3.197 -0.5131 -0.7090 -0.8040
 8622TIP3   OH225829   7.141   6.233   5.580  0.4706  0.2206  0.5423
 8622TIP3    H125830   7.233   6.213   5.567  0.3398  0.0455 -0.1503
 8622TIP3    H225831   7.141   6.316   5.629  0.9925 -0.0973  1.0909
 8623TIP3   OH225832   7.146   0.208   5.619  0.0314 -0.9355  0.0779
 8623TIP3    H125833   7.184   0.137   5.670 -0.9152 -2.9579 -1.8863
 8623TIP3    H225834   7.196   0.208   5.537  0.5174  1.2370  0.2938
 8624TIP3   OH225835   1.538   1.403   3.816 -0.2234 -0.0916 -0.2633
 8624TIP3    H125836   1.496   1.427   3.733 -0.9307 -1.0845 -0.2196
 8624TIP3    H225837   1.609   1.345   3.791 -1.1160 -1.2802 -0.1361
 8625TIP3   OH225838   2.876   3.285   3.753  0.4813 -0.5236  0.7245
 8625TIP3    H125839   2.884   3.380   3.762 -0.0128 -0.5044  0.9863
 8625TIP3    H225840   2.814   3.274   3.681 -0.8004 -0.6280  1.8125
 8626TIP3   OH225841   0.844   1.868   0.788 -0.7484 -0.0062 -0.0106
 8626TIP3    H125842   0.849   1.892   0.881 -0.2876 -0.6725  0.1460
 8626TIP3    H225843   0.848   1.951   0.742  2.0547  0.2064  0.4681
 8627TIP3   OH225844   7.154   1.794   3.959 -0.3619 -0.1454  0.1062
 8627TIP3    H125845   7.085   1.811   4.023  0.9435 -0.3827  1.6311
 8627TIP3    H225846   7.190   1.709   3.985  2.1018  1.0594  0.8777
 8628TIP3   OH225847   6.435   5.076   1.317 -0.9040  0.5241 -0.5307
 8628TIP3    H125848   6.447   4.992   1.272 -0.9346  0.8458 -1.1495
 8628TIP3    H225849   6.404   5.136   1.249  1.2720  1.6344 -0.6376
 8629TIP3   OH225850   3.211   5.301   2.156 -0.4183  0.4520  0.1703
 8629TIP3    H125851   3.159   5.266   2.228  1.1580 -0.0642  1.1110
 8629TIP3    H225852   3.222   5.394   2.178 -1.0192  0.5909 -0.0960
 8630TIP3   OH225853   3.871   3.495   1.305  0.2913 -0.1537  0.1766
 8630TIP3    H125854   3.856   3.587   1.325  0.8460  0.0205 -0.1927
 8630TIP3    H225855   3.802   3.449   1.352  0.5929  0.3735  1.1738
 8631TIP3   OH225856   0.809   1.362   3.034  0.4018  0.1574  0.0350
 8631TIP3    H125857   0.790   1.359   2.940  1.3246  0.5007 -0.1765
 8631TIP3    H225858   0.879   1.427   3.042 -1.4673  2.1669  1.2893
 8632TIP3   OH225859   3.383   1.209   2.873  0.2265 -0.2915  0.1422
 8632TIP3    H125860   3.391   1.305   2.868 -2.0492 -0.0796 -0.8932
 8632TIP3    H225861   3.473   1.177   2.869  1.0041  1.6619 -4.4121
 8633TIP3   OH225862   5.979   4.216   4.965  0.5244 -0.7230 -0.8924
 8633TIP3    H125863   6.012   4.139   4.919  2.3386 -0.8346  0.5191
 8633TIP3    H225864   5.951   4.183   5.050  0.5346  0.0437 -0.5847
 8634TIP3   OH225865   6.074   2.795   3.879 -0.4257  0.1230  0.0385
 8634TIP3    H125866   6.059   2.769   3.970 -1.7329  0.6090 -0.0313
 8634TIP3    H225867   6.143   2.861   3.885 -1.8758  1.6441  0.9120
 8635TIP3   OH225868   2.348   0.302   2.153  0.1929 -0.0452 -0.3188
 8635TIP3    H125869   2.261   0.261   2.145 -0.5115  0.8265  2.0052
 8635TIP3    H225870   2.383   0.300   2.064 -1.7764 -1.3450 -1.1527
 8636TIP3   OH225871   1.057   0.519   4.532 -0.1927  0.4422 -0.2627
 8636TIP3    H125872   1.026   0.479   4.451 -2.0918 -0.9368  1.0584
 8636TIP3    H225873   1.030   0.610   4.526 -3.0431 -0.2785  0.0054
 8637TIP3   OH225874   1.452   2.548   5.031  0.4232 -0.6008 -0.4539
 8637TIP3    H125875   1.444   2.551   5.126  0.2937 -1.5826 -0.4187
 8637TIP3    H225876   1.446   2.639   5.003 -0.1051 -0.3541  0.4314
 8638TIP3   OH225877   1.941   1.325   5.040 -0.9100 -0.1835  0.2741
 8638TIP3    H125878   1.950   1.309   5.134 -1.3455 -1.2187  0.1483
 8638TIP3    H225879   2.031   1.323   5.006 -0.8200 -0.6928  0.5347
 8639TIP3   OH225880   6.049   0.862   1.146 -0.2420 -0.2632  0.4056
 8639TIP3    H125881   6.046   0.958   1.150  0.4049 -0.1694 -0.8852
 8639TIP3    H225882   6.108   0.837   1.216 -0.2307  0.2923  0.6008
 8640TIP3   OH225883   3.119   0.394   1.645 -0.2379 -0.1185  0.0076
 8640TIP3    H125884   3.091   0.306   1.671 -0.3584  0.0338  0.3933
 8640TIP3    H225885   3.039   0.437   1.615 -0.2361 -0.0336  0.1231
 8641TIP3   OH225886   7.203   4.468   2.415  0.1797 -0.6526 -0.1598
 8641TIP3    H125887   7.175   4.466   2.323  0.7560 -0.3110 -0.3463
 8641TIP3    H225888   7.130   4.430   2.463 -1.5863  2.1824 -0.3783
 8642TIP3   OH225889   6.301   1.918   1.767 -0.0058 -0.0639  0.2492
 8642TIP3    H125890   6.381   1.876   1.799  1.0636 -0.0430 -2.1821
 8642TIP3    H225891   6.290   1.884   1.678 -1.4265  1.6877 -0.3057
 8643TIP3   OH225892   0.075   0.588   1.685  0.1612 -0.1232 -0.6885
 8643TIP3    H125893   0.051   0.497   1.669 -0.6786 -0.1044  0.3909
 8643TIP3    H225894   0.108   0.619   1.601  0.2453 -1.3509 -1.1287
 8644TIP3   OH225895   0.578   6.490   2.522 -0.2104  0.0017 -1.2375
 8644TIP3    H125896   0.575   6.402   2.484 -3.8856  0.8047 -3.2439
 8644TIP3    H225897   0.640   6.538   2.466 -0.2641 -0.6209 -1.8396
 8645TIP3   OH225898   4.591   2.884   2.541  0.1490 -0.3084  0.1120
 8645TIP3    H125899   4.663   2.885   2.478  1.0159 -2.3349  0.9866
 8645TIP3    H225900   4.525   2.827   2.502  0.8212 -1.8284  1.1050
 8646TIP3   OH225901   3.697   5.016   4.582 -0.3623  0.4123 -0.1416
 8646TIP3    H125902   3.724   5.045   4.495  0.0555  1.4326  0.3000
 8646TIP3    H225903   3.617   4.966   4.568 -0.1853  0.3900 -1.1270
 8647TIP3   OH225904  -0.026   3.517   3.823  0.0295 -0.5801  0.3616
 8647TIP3    H125905   0.061   3.556   3.837  1.1900 -2.2867 -1.5596
 8647TIP3    H225906  -0.023   3.433   3.869 -0.4489 -0.8279 -0.0466
 8648TIP3   OH225907   5.658   0.392   0.831  0.5774 -0.3175 -0.2893
 8648TIP3    H125908   5.617   0.372   0.747 -0.0413  0.8170 -0.2773
 8648TIP3    H225909   5.598   0.357   0.896  0.4158 -0.0584 -0.2987
 8649TIP3   OH225910   3.976   3.754   1.435 -0.8412 -0.1121 -0.6797
 8649TIP3    H125911   4.022   3.771   1.352 -1.1025 -0.0217 -0.8087
 8649TIP3    H225912   4.041   3.775   1.503  0.4457 -3.1036 -0.8334
 8650TIP3   OH225913   1.896   6.402   4.385  0.2767 -0.0204  0.5892
 8650TIP3    H125914   1.909   6.308   4.398  0.4599  0.1762  2.1107
 8650TIP3    H225915   1.917   6.417   4.293 -1.0232 -1.6571 -0.0192
 8651TIP3   OH225916   4.097   6.180   5.108  0.3932  0.0078  0.4254
 8651TIP3    H125917   4.028   6.215   5.052  1.4678 -0.4317 -1.2664
 8651TIP3    H225918   4.067   6.196   5.197 -0.1479  3.2797 -0.2402
 8652TIP3   OH225919   3.559   0.627   1.591 -0.6473  0.0099  0.2646
 8652TIP3    H125920   3.497   0.675   1.536 -0.1188  0.9083  0.4477
 8652TIP3    H225921   3.578   0.547   1.542 -1.9019 -0.2573  0.1783
 8653TIP3   OH225922   1.894   2.454   2.114  0.3251 -0.0677  0.0603
 8653TIP3    H125923   1.883   2.367   2.154 -0.9848  0.0870  0.0758
 8653TIP3    H225924   1.905   2.513   2.188 -1.8249  0.1785  0.2600
 8654TIP3   OH225925   4.328   4.525   0.039  0.0388  0.3654  0.3891
 8654TIP3    H125926   4.398   4.473  -0.002 -0.6876  1.0239 -1.8054
 8654TIP3    H225927   4.267   4.460   0.073  0.6291 -0.2034  0.3881
 8655TIP3   OH225928   2.795   5.670   3.983  0.0932  0.6566  0.2914
 8655TIP3    H125929   2.717   5.717   3.954  0.3764  1.3527  0.6285
 8655TIP3    H225930   2.788   5.669   4.079 -0.8623 -1.6577  0.2636
 8656TIP3   OH225931   5.629   3.623   5.308 -0.0281 -0.2298 -0.1290
 8656TIP3    H125932   5.580   3.671   5.375 -4.1686 -1.4216 -2.0179
 8656TIP3    H225933   5.622   3.531   5.334 -1.2054 -0.6566 -1.7903
 8657TIP3   OH225934   3.419   1.864   0.913 -0.5931 -0.2882  0.9148
 8657TIP3    H125935   3.396   1.910   0.993  2.1393 -1.1772  2.3454
 8657TIP3    H225936   3.435   1.934   0.849  0.5861  0.6844  2.1967
 8658TIP3   OH225937   4.993   2.938   1.044  0.0867  0.3889  0.6501
 8658TIP3    H125938   4.908   2.906   1.013  0.4294  0.3681 -0.2911
 8658TIP3    H225939   4.994   3.030   1.017 -1.0063  1.3824  3.5516
 8659TIP3   OH225940   4.201   3.170   5.871  0.2155 -0.6546 -0.1176
 8659TIP3    H125941   4.124   3.132   5.827  1.5301 -2.5020 -0.9361
 8659TIP3    H225942   4.275   3.138   5.820  1.6247 -0.1771  1.5728
 8660TIP3   OH225943   0.847   0.829   5.162 -0.0899 -0.1008 -0.0025
 8660TIP3    H125944   0.829   0.742   5.198  0.2285 -0.3836 -0.5171
 8660TIP3    H225945   0.941   0.841   5.175 -0.1285  0.1582  0.0469
 8661TIP3   OH225946   6.204   5.024   0.379 -0.1478  0.6800  0.0642
 8661TIP3    H125947   6.129   4.971   0.404  1.2900 -0.5110  2.1307
 8661TIP3    H225948   6.172   5.078   0.307 -2.6416 -0.5591  0.1387
 8662TIP3   OH225949   6.053   4.825   1.280 -0.3294  0.1211  0.5878
 8662TIP3    H125950   6.020   4.824   1.370  0.5954  1.4175  0.9664
 8662TIP3    H225951   6.026   4.911   1.246  0.5170  0.1942  0.0847
 8663TIP3   OH225952   2.650   3.793   0.372 -0.2198 -0.3955  0.2425
 8663TIP3    H125953   2.737   3.752   0.371  1.0865  2.1033  1.2182
 8663TIP3    H225954   2.654   3.858   0.303  0.0276  2.0946  2.4403
 8664TIP3   OH225955   1.670   3.828   5.641  0.0241  0.2546  0.5686
 8664TIP3    H125956   1.715   3.744   5.654 -0.0304  0.2400  0.6637
 8664TIP3    H225957   1.579   3.811   5.665 -0.0487  0.2641  0.2966
 8665TIP3   OH225958   2.566   5.285   3.227 -0.0422 -0.4101  0.4387
 8665TIP3    H125959   2.487   5.284   3.173 -0.3530  0.7885  0.8366
 8665TIP3    H225960   2.539   5.249   3.312  0.4460 -2.2916 -0.1478
 8666TIP3   OH225961   1.825   5.378   1.611  0.4304  0.2722  0.5479
 8666TIP3    H125962   1.764   5.405   1.543  0.5244  1.5909  0.9605
 8666TIP3    H225963   1.834   5.455   1.667  0.8206 -0.5876  1.7105
 8667TIP3   OH225964   4.785   4.681   3.317 -0.0131 -0.1422  0.1518
 8667TIP3    H125965   4.779   4.661   3.411  1.7162 -1.4528  0.0410
 8667TIP3    H225966   4.729   4.757   3.305  0.4417  0.6332  2.4371
 8668TIP3   OH225967   4.645   1.858   4.443 -0.9601  0.7566 -0.2914
 8668TIP3    H125968   4.628   1.869   4.537  2.0961  3.2012  0.1374
 8668TIP3    H225969   4.612   1.939   4.404  0.0695  0.8842 -0.9186
 8669TIP3   OH225970   5.675   4.444   5.401 -0.3064 -0.0640 -0.0447
 8669TIP3    H125971   5.732   4.515   5.372  0.9381  0.4549  3.2410
 8669TIP3    H225972   5.587   4.482   5.399  0.3145  1.6528  1.5277
 8670TIP3   OH225973   3.919   6.529   5.575  0.4691  0.1996  0.7816
 8670TIP3    H125974   3.893   6.618   5.553  0.7461  0.1033  0.0010
 8670TIP3    H225975   3.848   6.495   5.628 -0.7543  0.1193 -0.8499
 8671TIP3   OH225976   1.321   0.342   4.621  0.7997 -0.6243  0.1026
 8671TIP3    H125977   1.371   0.317   4.698  0.8737 -1.0897 -0.0980
 8671TIP3    H225978   1.281   0.426   4.645  2.2589  0.1343  0.0097
 8672TIP3   OH225979   4.071   2.802   1.756  0.6285  0.5076 -0.1562
 8672TIP3    H125980   4.075   2.883   1.705  0.7176 -0.1473 -1.2170
 8672TIP3    H225981   3.978   2.789   1.773  0.5631  0.5672 -0.4531
 8673TIP3   OH225982   5.572   0.265   0.620  0.9114 -0.2496 -0.3431
 8673TIP3    H125983   5.535   0.282   0.534  0.7724 -2.4889 -0.7760
 8673TIP3    H225984   5.535   0.181   0.647  1.6365 -0.0361  1.5261
 8674TIP3   OH225985   1.765   2.038   5.691 -0.2376  0.2505 -0.3334
 8674TIP3    H125986   1.831   2.036   5.760 -0.2282  2.2420 -0.2223
 8674TIP3    H225987   1.729   1.949   5.689 -0.0097  0.0509  1.9887
 8675TIP3   OH225988   4.538   4.654   1.098 -0.7461  0.5127  0.1626
 8675TIP3    H125989   4.586   4.633   1.178 -0.3858  1.5927  0.2394
 8675TIP3    H225990   4.448   4.666   1.126 -0.6200  0.8919  0.4110
 8676TIP3   OH225991   6.983   2.619   2.998  0.2337  0.0132  0.1407
 8676TIP3    H125992   6.902   2.670   2.996 -0.0784 -0.4569  0.6307
 8676TIP3    H225993   7.030   2.650   3.076  0.7709  0.6428 -0.4172
 8677TIP3   OH225994   2.782   5.637   3.030  0.2066 -0.8508 -0.2519
 8677TIP3    H125995   2.784   5.728   3.001  1.5072 -0.8809 -0.3065
 8677TIP3    H225996   2.843   5.633   3.103  0.1098 -1.6664 -0.2023
 8678TIP3   OH225997   3.862   5.447   2.859 -0.6930  0.2955  0.7576
 8678TIP3    H125998   3.793   5.494   2.813  0.9070  0.9147 -1.1397
 8678TIP3    H225999   3.853   5.357   2.828  0.6685  0.7897 -1.3156
 8679TIP3   OH226000   6.272   5.333   2.539 -0.2037 -1.0138 -0.3097
 8679TIP3    H126001   6.229   5.247   2.533  1.0626 -1.6565 -0.7448
 8679TIP3    H226002   6.320   5.341   2.456  0.3294 -0.2432  0.0630
 8680TIP3   OH226003   4.417   4.812   3.888 -0.4448 -0.9636 -0.3998
 8680TIP3    H126004   4.436   4.731   3.937 -0.3887 -0.5546  0.2729
 8680TIP3    H226005   4.495   4.826   3.834  0.4839 -0.2310  1.0547
 8681TIP3   OH226006   4.156   2.439   0.396  0.3048 -0.3010  0.1238
 8681TIP3    H126007   4.204   2.476   0.321  1.1925 -0.2735  0.6811
 8681TIP3    H226008   4.139   2.514   0.453 -0.4898 -0.2993 -0.1186
 8682TIP3   OH226009   6.068   3.693   0.971  0.6235 -0.2771  0.4781
 8682TIP3    H126010   6.019   3.745   1.034 -0.9137  0.2813 -1.1097
 8682TIP3    H226011   6.148   3.743   0.955 -0.9404  1.8575 -1.2367
 8683TIP3   OH226012   3.883   5.079   0.242  0.1372  0.3679  0.4288
 8683TIP3    H126013   3.866   5.031   0.161  1.8496 -0.8508  0.7531
 8683TIP3    H226014   3.869   5.171   0.218 -1.0040 -0.0813 -0.7821
 8684TIP3   OH226015   5.896   1.510   3.929  0.3716  0.0415  0.5009
 8684TIP3    H126016   5.985   1.503   3.895  0.1446  3.1756 -1.1006
 8684TIP3    H226017   5.904   1.569   4.004 -0.2560 -0.2159  0.7752
 8685TIP3   OH226018   0.503  -0.015   4.843 -0.1089 -0.2502 -0.3946
 8685TIP3    H126019   0.547  -0.055   4.918 -1.0943 -1.0362 -0.2055
 8685TIP3    H226020   0.543   0.071   4.835  0.0866 -0.1818  0.9810
 8686TIP3   OH226021   6.763   2.790   3.002  0.5960  0.1665  0.4879
 8686TIP3    H126022   6.735   2.849   3.072 -0.2286  0.7508 -0.3162
 8686TIP3    H226023   6.693   2.725   2.995  0.5307  0.2823  0.0110
 8687TIP3   OH226024   3.647   1.165   2.797 -0.8180  0.1713  0.1593
 8687TIP3    H126025   3.579   1.192   2.735  0.1330 -0.1289 -1.0586
 8687TIP3    H226026   3.726   1.212   2.769  0.1466 -1.5732 -0.1954
 8688TIP3   OH226027   3.956   1.502   5.625 -0.1253  0.2195 -0.5568
 8688TIP3    H126028   4.009   1.470   5.697 -0.5936  0.6112 -0.0291
 8688TIP3    H226029   3.870   1.464   5.638 -0.5859  1.3538 -0.1334
 8689TIP3   OH226030   4.390   3.365   3.082  0.2845  0.2925 -0.5587
 8689TIP3    H126031   4.385   3.387   2.989  0.0059 -2.2704 -1.2241
 8689TIP3    H226032   4.312   3.312   3.098  0.9038 -0.2506  0.8411
 8690TIP3   OH226033   2.065   0.968   0.477  0.4639  0.4270  0.3999
 8690TIP3    H126034   2.102   0.925   0.554  0.5875 -0.7147 -0.2619
 8690TIP3    H226035   2.102   0.919   0.403 -1.5347 -0.1209 -0.3160
 8691TIP3   OH226036   4.427   3.432   1.983 -0.1802 -0.2658  0.0515
 8691TIP3    H126037   4.360   3.417   1.916  1.2291 -0.3447 -1.4293
 8691TIP3    H226038   4.507   3.450   1.932  0.3972  2.3273  1.7245
 8692TIP3   OH226039   1.172   1.637   0.074 -0.1135  0.2607 -0.3616
 8692TIP3    H126040   1.188   1.554   0.119  1.0823  0.0389 -1.1520
 8692TIP3    H226041   1.137   1.694   0.142 -1.1197 -0.9212  0.1567
 8693TIP3   OH226042   6.331   2.618   3.886  0.9920 -0.6237 -0.4138
 8693TIP3    H126043   6.240   2.597   3.903  1.0690 -0.9297 -0.3669
 8693TIP3    H226044   6.341   2.610   3.791  0.6792  0.6086 -0.5732
 8694TIP3   OH226045   4.324   5.213   2.543 -0.2268  0.0755  0.1861
 8694TIP3    H126046   4.299   5.164   2.621  0.3950 -1.6294 -0.6449
 8694TIP3    H226047   4.420   5.212   2.543 -0.2050 -1.0321 -1.2162
 8695TIP3   OH226048   1.543   3.064   5.826  0.7106  0.2327 -0.9615
 8695TIP3    H126049   1.491   3.021   5.894  0.6669  1.8044  0.0371
 8695TIP3    H226050   1.617   3.004   5.811  0.4493 -0.3773  0.1025
 8696TIP3   OH226051   4.959   2.531   2.478  0.3991 -0.3574 -0.2334
 8696TIP3    H126052   4.964   2.587   2.400  0.6870  0.0731  0.0880
 8696TIP3    H226053   4.998   2.448   2.450 -2.5988 -1.4441 -1.5883
 8697TIP3   OH226054   6.822   4.426   3.898  0.1848  0.0718 -0.0796
 8697TIP3    H126055   6.736   4.445   3.859  0.6103  2.2211 -0.1083
 8697TIP3    H226056   6.816   4.335   3.926 -1.7271 -0.1551 -1.0514
 8698TIP3   OH226057   6.605   3.142   5.080  0.7611 -0.0063 -0.1733
 8698TIP3    H126058   6.654   3.196   5.142 -1.8942 -0.4192  2.5202
 8698TIP3    H226059   6.603   3.056   5.121 -1.7338 -0.1000 -0.3775
 8699TIP3   OH226060   4.413   1.961   5.658 -0.0929 -0.0183  0.2769
 8699TIP3    H126061   4.341   2.019   5.684  0.5377  0.7838  0.3011
 8699TIP3    H226062   4.490   1.999   5.701  0.6323  0.1380 -1.1176
 8700TIP3   OH226063   5.557   5.552   3.855 -0.0517 -0.2636  0.4911
 8700TIP3    H126064   5.581   5.471   3.809 -0.3855  0.2570 -0.6502
 8700TIP3    H226065   5.627   5.565   3.919  0.9137 -0.5735 -0.4551
 8701TIP3   OH226066   6.617   4.444   0.632 -0.5649  0.1803 -0.2706
 8701TIP3    H126067   6.650   4.435   0.543 -0.3895  2.3381 -0.4610
 8701TIP3    H226068   6.587   4.534   0.638 -0.7569  0.0251  1.8104
 8702TIP3   OH226069   7.169   6.103   2.521 -0.1960  0.1923  0.0632
 8702TIP3    H126070   7.150   6.054   2.441  2.3968  0.0313 -0.5263
 8702TIP3    H226071   7.151   6.041   2.592 -1.3668 -0.0543 -0.4316
 8703TIP3   OH226072   0.239   5.957   3.626 -0.1759  0.6727 -0.0764
 8703TIP3    H126073   0.216   5.882   3.571  0.4770  1.0107 -0.8282
 8703TIP3    H226074   0.201   6.032   3.580 -0.3592  0.8685  0.3901
 8704TIP3   OH226075   0.029   5.452   0.878  0.1862  0.0124  0.1479
 8704TIP3    H126076  -0.018   5.369   0.875 -2.3520  1.3718 -0.3564
 8704TIP3    H226077   0.038   5.471   0.971 -0.5148 -0.1286  0.2459
 8705TIP3   OH226078   2.446   3.451   0.829  0.2986 -0.0107 -0.0464
 8705TIP3    H126079   2.473   3.461   0.920  2.6878  1.4497 -0.8133
 8705TIP3    H226080   2.488   3.369   0.801  0.7964  0.2963 -0.2110
 8706TIP3   OH226081   6.233   3.262   2.648  0.1443  0.0420 -0.2377
 8706TIP3    H126082   6.240   3.309   2.731 -2.3231  3.3742 -1.6688
 8706TIP3    H226083   6.147   3.220   2.652  0.6803 -1.1217 -0.5450
 8707TIP3   OH226084   4.810   1.656   0.652 -0.3953  0.4354 -0.3438
 8707TIP3    H126085   4.872   1.618   0.713 -0.5364 -0.0286 -0.4866
 8707TIP3    H226086   4.741   1.694   0.707 -1.3554 -1.3751 -0.2113
 8708TIP3   OH226087   5.047   4.960   1.583  0.3357  0.2816  0.4673
 8708TIP3    H126088   5.034   5.054   1.593 -1.4113  0.2653 -1.0882
 8708TIP3    H226089   4.981   4.920   1.638  0.9469 -0.0530  0.9721
 8709TIP3   OH226090   0.428   2.840   0.585 -0.2743 -0.0500  0.3332
 8709TIP3    H126091   0.356   2.817   0.643 -0.4824  1.1059  0.5663
 8709TIP3    H226092   0.493   2.880   0.643 -0.6740  1.5402 -0.2509
 8710TIP3   OH226093   5.096   2.008   2.580  0.1324  0.2625 -0.0927
 8710TIP3    H126094   5.017   2.018   2.633 -0.6219 -1.8943 -0.6999
 8710TIP3    H226095   5.168   2.020   2.641 -0.6540  1.5321  0.6268
 8711TIP3   OH226096   2.718   3.770   3.204  0.6903 -0.3337  0.7708
 8711TIP3    H126097   2.716   3.759   3.109  0.6822 -0.3291  0.7704
 8711TIP3    H226098   2.646   3.830   3.223 -0.0791 -1.2673  0.9078
 8712TIP3   OH226099   3.553   0.352   3.172 -0.3881  0.4932  0.4008
 8712TIP3    H126100   3.563   0.258   3.161 -0.7134  0.6231 -1.3946
 8712TIP3    H226101   3.561   0.387   3.083  1.0039  2.2986  1.1640
 8713TIP3   OH226102   2.441   4.319   3.572 -0.3275  0.3252  0.6467
 8713TIP3    H126103   2.502   4.370   3.625 -0.7962  0.8778  0.6601
 8713TIP3    H226104   2.365   4.307   3.628 -0.4622  0.1278  0.4243
 8714TIP3   OH226105   2.125   5.660   3.158  0.3930  0.0943  0.2840
 8714TIP3    H126106   2.113   5.698   3.245  0.2995  1.9523 -0.4927
 8714TIP3    H226107   2.152   5.734   3.103  0.6206 -1.0646 -1.2384
 8715TIP3   OH226108   7.120   5.349   5.472  0.2410  0.1933 -0.7371
 8715TIP3    H126109   7.116   5.405   5.395  1.6952 -1.3745 -2.0194
 8715TIP3    H226110   7.171   5.273   5.445  1.1510 -0.2495  1.8912
 8716TIP3   OH226111   7.134   3.487   3.278  0.2583 -0.1585  0.5581
 8716TIP3    H126112   7.145   3.472   3.372 -0.7042  0.1750  0.7316
 8716TIP3    H226113   7.055   3.540   3.271 -0.2158 -0.9606 -0.5044
 8717TIP3   OH226114   1.575   3.031   2.631 -0.3614  0.7107  0.4399
 8717TIP3    H126115   1.608   3.119   2.616 -2.6786  1.1928 -2.9757
 8717TIP3    H226116   1.649   2.973   2.613  0.8285  1.8505  1.4713
 8718TIP3   OH226117   0.079   3.179   4.637 -0.5075  0.1279 -0.2676
 8718TIP3    H126118   0.076   3.259   4.690  2.1056 -0.0962  0.3419
 8718TIP3    H226119   0.147   3.196   4.572 -1.0668 -1.0219 -1.1953
 8719TIP3   OH226120   6.816   0.368   4.893 -0.0799  0.4983  0.0090
 8719TIP3    H126121   6.762   0.447   4.884  0.2063  0.7039  0.0853
 8719TIP3    H226122   6.789   0.312   4.820 -2.5571 -0.7058  1.7085
 8720TIP3   OH226123   2.163   5.293   0.601 -0.1925 -0.1623  0.3837
 8720TIP3    H126124   2.210   5.210   0.604  0.5257  0.2079 -0.3463
 8720TIP3    H226125   2.167   5.326   0.691  0.0363 -0.6353  0.5475
 8721TIP3   OH226126   3.759   6.564   2.727 -0.3079  0.4513  0.3468
 8721TIP3    H126127   3.757   6.553   2.822  1.6119  0.3250  0.4167
 8721TIP3    H226128   3.784   6.655   2.714 -2.4409  1.0308 -0.1077
 8722TIP3   OH226129   0.149   0.747   5.132 -0.8305  0.1005 -0.0743
 8722TIP3    H126130   0.080   0.784   5.077 -1.7238 -0.0930  0.8653
 8722TIP3    H226131   0.173   0.818   5.191 -0.1426  0.1959 -0.4624
 8723TIP3   OH226132   6.981   4.363   1.091 -0.4194 -0.0865  0.1876
 8723TIP3    H126133   6.996   4.455   1.111  1.5913  0.0242 -1.4337
 8723TIP3    H226134   6.898   4.342   1.134 -1.7471  2.8672 -0.6384
 8724TIP3   OH226135   2.780   3.121   4.821 -0.3390  0.2988 -0.2875
 8724TIP3    H126136   2.693   3.136   4.786 -0.1463 -0.3109 -1.0442
 8724TIP3    H226137   2.830   3.085   4.748 -0.3275 -2.4641  0.9478
 8725TIP3   OH226138   5.598   5.619   0.474  0.6360  0.5238  0.1941
 8725TIP3    H126139   5.615   5.554   0.542 -0.5657  1.9786  1.9968
 8725TIP3    H226140   5.624   5.702   0.513 -0.3115  1.4429 -1.0326
 8726TIP3   OH226141   2.351   5.395   0.413  0.2739  0.5990 -0.0446
 8726TIP3    H126142   2.297   5.345   0.474  0.6856  1.2678  0.8877
 8726TIP3    H226143   2.303   5.391   0.330 -1.3058  1.3045  0.7870
 8727TIP3   OH226144   6.857   0.260   0.878  0.1207 -0.4157  0.6851
 8727TIP3    H126145   6.900   0.333   0.834 -1.4258  0.1550  0.0679
 8727TIP3    H226146   6.785   0.235   0.820 -3.8913  2.2327  3.9930
 8728TIP3   OH226147   5.483   5.543   2.385 -0.2635  0.1838 -0.3488
 8728TIP3    H126148   5.571   5.581   2.382 -0.4710  1.0140  1.9782
 8728TIP3    H226149   5.425   5.618   2.375 -0.6737  0.4092  2.8845
 8729TIP3   OH226150   3.139   2.596   4.619 -0.2524  0.0810  0.0786
 8729TIP3    H126151   3.157   2.520   4.674  1.2934 -0.6873 -1.4060
 8729TIP3    H226152   3.134   2.561   4.530  0.2211  1.6813 -0.6200
 8730TIP3   OH226153   3.438   5.436   4.685  0.0097 -0.3552  0.0547
 8730TIP3    H126154   3.402   5.509   4.634  1.2258  1.5362  1.7251
 8730TIP3    H226155   3.533   5.442   4.672  0.2261 -0.7523  1.2944
 8731TIP3   OH226156   4.369   0.540   3.681  0.3785 -0.6539 -0.0786
 8731TIP3    H126157   4.453   0.497   3.670 -0.1473 -1.2255 -2.5191
 8731TIP3    H226158   4.304   0.473   3.658 -0.6917  0.0681  0.7398
 8732TIP3   OH226159   2.453   3.879   2.573 -0.1367  0.6433  0.2681
 8732TIP3    H126160   2.473   3.966   2.538  0.1455  0.8159  0.8356
 8732TIP3    H226161   2.364   3.861   2.544 -0.0690  0.9723 -0.1499
 8733TIP3   OH226162   3.077   6.305   1.136  0.2339  0.5060 -0.0910
 8733TIP3    H126163   3.141   6.354   1.084 -0.8551 -0.8099 -2.8425
 8733TIP3    H226164   2.995   6.355   1.126 -0.3864 -0.6595 -1.1662
 8734TIP3   OH226165   1.097   3.024   4.233  0.4471  0.6019 -0.2031
 8734TIP3    H126166   1.134   2.943   4.199  0.0128 -0.7237  2.2381
 8734TIP3    H226167   1.159   3.053   4.300 -1.1771  0.1616  1.5942
 8735TIP3   OH226168   5.420   3.778   2.042 -0.1703 -0.1669 -0.3103
 8735TIP3    H126169   5.506   3.803   2.077  0.8389 -0.2579 -2.4970
 8735TIP3    H226170   5.390   3.708   2.099  0.4187  1.0011  1.4910
 8736TIP3   OH226171   2.323   4.578   3.488 -0.2687 -0.4647  0.1662
 8736TIP3    H126172   2.404   4.526   3.491 -0.7455 -1.2060  0.4582
 8736TIP3    H226173   2.300   4.591   3.579  1.5856  3.1000  0.2806
 8737TIP3   OH226174   7.160   2.983   0.852 -0.3547 -0.1230 -0.2518
 8737TIP3    H126175   7.130   2.893   0.842 -0.9394  0.1114 -0.6483
 8737TIP3    H226176   7.102   3.020   0.918  0.3600 -0.2458  0.4570
 8738TIP3   OH226177   2.215   0.218   1.078 -0.4062  0.2901 -0.0534
 8738TIP3    H126178   2.127   0.254   1.070 -0.3862  0.8154  1.5586
 8738TIP3    H226179   2.213   0.170   1.161  0.2030 -1.6230 -1.0816
 8739TIP3   OH226180   6.355   3.032   1.780 -0.0818  0.4744  0.6947
 8739TIP3    H126181   6.443   3.015   1.747  0.4996  2.1792  1.2959
 8739TIP3    H226182   6.367   3.091   1.854 -1.7118  0.4689  1.0114
 8740TIP3   OH226183   1.340   2.057   5.549 -0.2927 -0.0899  0.0629
 8740TIP3    H126184   1.387   2.130   5.590 -0.3831 -0.8801  1.6493
 8740TIP3    H226185   1.373   1.979   5.595  0.0464 -1.1078 -1.8157
 8741TIP3   OH226186   4.964   4.151   5.322  0.1134  0.0478  0.0550
 8741TIP3    H126187   5.035   4.205   5.286  0.6704  0.1939  1.2863
 8741TIP3    H226188   4.999   4.121   5.407 -0.3266 -1.9529 -0.4357
 8742TIP3   OH226189   5.567   2.160   1.223  0.0085 -0.0865  0.0797
 8742TIP3    H126190   5.660   2.145   1.236  0.3903  0.9295 -1.2629
 8742TIP3    H226191   5.562   2.234   1.163 -1.5544 -2.1466 -2.5727
 8743TIP3   OH226192   5.015   4.245   4.100  0.6559  0.0315 -0.6615
 8743TIP3    H126193   4.996   4.300   4.177  0.9819 -0.0708 -0.5050
 8743TIP3    H226194   5.048   4.163   4.136 -0.5213 -0.5606 -0.8747
 8744TIP3   OH226195   3.219   3.339   4.174 -0.2065 -0.5264 -0.1076
 8744TIP3    H126196   3.287   3.405   4.190 -1.9278  1.9775 -2.2960
 8744TIP3    H226197   3.220   3.326   4.079 -0.8835 -2.6718  0.1200
 8745TIP3   OH226198   6.911   6.776   3.311  0.7682 -0.0887 -0.3713
 8745TIP3    H126199   6.945   6.756   3.224 -0.2058 -1.9053 -0.3782
 8745TIP3    H226200   6.951   6.712   3.369  1.2735  0.9918  0.5225
 8746TIP3   OH226201   7.169   5.459   5.246  0.4894  0.6482 -0.6376
 8746TIP3    H126202   7.106   5.531   5.247  0.1501  0.4014  1.8895
 8746TIP3    H226203   7.135   5.398   5.180 -0.7589  1.4896 -0.8028
 8747TIP3   OH226204   0.287   0.720   4.264  0.0049 -0.3146 -0.0379
 8747TIP3    H126205   0.316   0.629   4.261  1.7292  0.2415 -1.5930
 8747TIP3    H226206   0.317   0.751   4.350  1.9853 -0.4287 -0.6550
 8748TIP3   OH226207   4.179   5.478   0.437  0.2415  0.8188 -0.3471
 8748TIP3    H126208   4.205   5.399   0.485  1.5380  0.2045 -1.9700
 8748TIP3    H226209   4.214   5.550   0.490 -1.2876  0.3787  1.3506
 8749TIP3   OH226210   1.552   6.129   0.560 -0.3365 -0.2719  0.3276
 8749TIP3    H126211   1.530   6.073   0.635  0.2135 -1.3501 -0.2843
 8749TIP3    H226212   1.509   6.212   0.579 -1.0692 -0.8521  1.3396
 8750TIP3   OH226213   0.482   5.276   1.082  0.4759 -0.0193  0.7863
 8750TIP3    H126214   0.554   5.242   1.030 -0.0976  0.2090 -0.1681
 8750TIP3    H226215   0.457   5.358   1.039  0.4558  0.5522  1.8324
 8751TIP3   OH226216   3.232   0.485   2.844 -0.0530  0.6360 -0.3304
 8751TIP3    H126217   3.245   0.533   2.925  1.4637 -0.4597  0.1248
 8751TIP3    H226218   3.279   0.536   2.778  0.6393  0.3604 -0.0590
 8752TIP3   OH226219   6.343   0.081   1.221  0.2341  0.4255  0.2310
 8752TIP3    H126220   6.301   0.166   1.209  1.3011  0.6952 -2.3097
 8752TIP3    H226221   6.291   0.021   1.167  0.8920 -0.0134  0.0744
 8753TIP3   OH226222   5.670   5.506   4.127  0.4642 -1.1271  0.2439
 8753TIP3    H126223   5.725   5.455   4.067 -0.1537  0.4053 -1.7323
 8753TIP3    H226224   5.732   5.552   4.183  1.2897  0.3871 -1.7953
 8754TIP3   OH226225   5.720   6.700   3.535 -0.6439  0.3046 -0.4551
 8754TIP3    H126226   5.687   6.670   3.620  0.4225 -4.6095 -1.4749
 8754TIP3    H226227   5.672   6.781   3.518 -1.6627  0.9782  4.2743
 8755TIP3   OH226228   7.060   6.366   4.814 -0.4665 -0.1208  0.3614
 8755TIP3    H126229   7.085   6.448   4.771 -0.3177 -0.1618  0.3688
 8755TIP3    H226230   7.031   6.309   4.742 -1.3720  0.2251  0.4461
 8756TIP3   OH226231   6.297   1.049   3.979 -0.3517 -0.1488  0.1755
 8756TIP3    H126232   6.322   1.136   3.949  0.1675 -0.0678  0.8295
 8756TIP3    H226233   6.378   0.997   3.971 -0.1157 -0.0503  1.7041
 8757TIP3   OH226234   6.487   6.264   5.676  0.5419 -0.9068 -0.5585
 8757TIP3    H126235   6.533   6.181   5.669  0.9288 -0.7283 -0.1585
 8757TIP3    H226236   6.429   6.265   5.600  0.6584 -1.4635 -0.6602
 8758TIP3   OH226237   1.613   2.234   1.592 -0.2092  0.6778  0.2926
 8758TIP3    H126238   1.590   2.187   1.672  0.1895 -0.0308 -0.0011
 8758TIP3    H226239   1.704   2.208   1.573 -0.1040  1.2782 -0.0777
 8759TIP3   OH226240   0.309   5.123   5.601  0.3923  0.4526 -0.2461
 8759TIP3    H126241   0.398   5.122   5.568  0.1639  1.0131 -0.8982
 8759TIP3    H226242   0.315   5.170   5.684  0.7958 -0.0384  0.0075
 8760TIP3   OH226243   6.066   6.364   5.555  0.2076 -1.0346 -0.0675
 8760TIP3    H126244   6.036   6.305   5.486  1.8979 -0.6151 -1.2236
 8760TIP3    H226245   6.147   6.401   5.521  1.5114 -1.3564  2.4424
 8761TIP3   OH226246   2.475   2.319   2.044 -0.4853  0.1231 -0.4795
 8761TIP3    H126247   2.402   2.378   2.063  0.5785  1.7129 -1.1196
 8761TIP3    H226248   2.525   2.364   1.976  0.2421 -1.6508 -1.1611
 8762TIP3   OH226249   3.414   3.596   0.985 -0.2036 -0.3007 -0.1996
 8762TIP3    H126250   3.437   3.665   0.924 -2.2210  0.2005 -0.4743
 8762TIP3    H226251   3.358   3.537   0.934 -1.3449 -0.2488  0.9497
 8763TIP3   OH226252   3.770   6.311   0.131 -0.3764  0.0545 -0.7086
 8763TIP3    H126253   3.794   6.250   0.201 -0.3849 -0.7392 -1.3841
 8763TIP3    H226254   3.691   6.273   0.093 -1.1094  1.1594 -0.3304
 8764TIP3   OH226255   3.855   2.423   4.174  0.5858  0.4339 -0.2199
 8764TIP3    H126256   3.873   2.443   4.266  3.2965 -0.6896 -0.3860
 8764TIP3    H226257   3.892   2.497   4.126  1.9436 -0.3620 -0.4630
 8765TIP3   OH226258   5.938   6.597   2.054 -0.5343  0.2256  0.5936
 8765TIP3    H126259   5.913   6.603   2.147  0.2204  1.9691  0.7180
 8765TIP3    H226260   5.948   6.688   2.026 -0.5522 -0.2842 -1.1613
 8766TIP3   OH226261   4.061   6.494   3.384  0.2449 -0.4167 -0.3431
 8766TIP3    H126262   3.983   6.439   3.389 -0.0633  0.0542  0.0076
 8766TIP3    H226263   4.130   6.434   3.355 -0.2315 -0.8431 -0.6024
 8767TIP3   OH226264   4.818   0.805   2.576  0.1417 -0.1811 -0.0749
 8767TIP3    H126265   4.844   0.843   2.660  2.1341  0.9110 -1.1175
 8767TIP3    H226266   4.760   0.870   2.536  0.2827 -0.0919 -0.1327
 8768TIP3   OH226267   0.818   5.412   0.408 -0.1075 -0.0244 -0.5065
 8768TIP3    H126268   0.834   5.335   0.462  0.2895  0.9798  0.8508
 8768TIP3    H226269   0.883   5.407   0.339 -0.6488 -1.3515 -0.9507
 8769TIP3   OH226270   4.816   4.340   1.043 -0.2114  0.2288 -0.4882
 8769TIP3    H126271   4.899   4.313   1.081 -1.7982 -2.3589  1.4340
 8769TIP3    H226272   4.796   4.273   0.977 -0.5457  1.1291 -1.3381
 8770TIP3   OH226273   4.057   3.122   5.618 -0.1696  0.4843  0.4370
 8770TIP3    H126274   4.134   3.157   5.575 -0.4465  1.4514  0.6957
 8770TIP3    H226275   4.045   3.035   5.580 -0.7309  1.4940 -1.8362
 8771TIP3   OH226276   1.399   3.265   3.934  0.3041  0.4715  0.2166
 8771TIP3    H126277   1.366   3.176   3.920  2.2329 -0.3489  0.4143
 8771TIP3    H226278   1.366   3.290   4.020  0.1841 -0.2754  0.3928
 8772TIP3   OH226279   5.810   2.833   5.390  0.3564  0.5667 -0.5299
 8772TIP3    H126280   5.735   2.842   5.448  1.1436 -0.5343  0.7177
 8772TIP3    H226281   5.812   2.915   5.340 -0.8658  1.1715  0.3608
 8773TIP3   OH226282   7.023   0.008   3.702 -0.2681 -0.1841 -0.0076
 8773TIP3    H126283   7.006   0.093   3.743 -0.0596  0.0040 -0.3156
 8773TIP3    H226284   6.998  -0.056   3.770 -0.0312  0.1243  0.3722
 8774TIP3   OH226285   6.575   2.982   1.994  0.5090  0.0256 -0.3817
 8774TIP3    H126286   6.589   3.073   2.020  2.0695 -0.0967 -0.7416
 8774TIP3    H226287   6.660   2.940   2.004  0.9552 -0.3585 -4.4005
 8775TIP3   OH226288   6.356   1.889   0.922 -0.1771 -0.6635  0.2413
 8775TIP3    H126289   6.451   1.888   0.935 -0.3703 -0.1530  2.0520
 8775TIP3    H226290   6.333   1.799   0.903  0.5954 -0.9340  0.5438
 8776TIP3   OH226291   1.258   1.184   1.865 -0.0326  0.2700  0.0434
 8776TIP3    H126292   1.235   1.228   1.947  0.6555  0.4640  0.1429
 8776TIP3    H226293   1.296   1.253   1.811  0.0225  0.0281 -0.2297
 8777TIP3   OH226294   7.116   6.011   4.729  0.2793  0.0894  0.1397
 8777TIP3    H126295   7.133   6.039   4.639  0.2169 -0.3260 -0.0080
 8777TIP3    H226296   7.193   6.037   4.778  0.0129  0.9477  0.1116
 8778TIP3   OH226297   3.054   5.331   5.475 -0.0246 -0.5549  0.4221
 8778TIP3    H126298   3.093   5.384   5.406  1.4946 -0.4822  1.2869
 8778TIP3    H226299   3.109   5.252   5.480 -0.0021 -0.4945  1.6150
 8779TIP3   OH226300   2.352   6.172   5.438  0.0410 -0.0303 -0.3383
 8779TIP3    H126301   2.393   6.092   5.472 -0.4527 -0.1573 -0.0212
 8779TIP3    H226302   2.387   6.242   5.492  0.3348 -0.0528 -0.4965
 8780TIP3   OH226303   3.063   1.762   1.183 -0.0963  0.3043  0.2035
 8780TIP3    H126304   3.156   1.784   1.188  0.0221 -0.3724  1.1496
 8780TIP3    H226305   3.021   1.823   1.244 -0.1863  0.1258  0.3183
 8781TIP3   OH226306   5.138   1.534   1.337 -0.4832 -0.6579 -0.3909
 8781TIP3    H126307   5.088   1.453   1.345 -0.1516 -1.0696 -2.1067
 8781TIP3    H226308   5.229   1.509   1.351 -0.4190 -0.5084 -0.5278
 8782TIP3   OH226309   1.071   5.711   1.371 -0.3965 -0.3660 -0.2857
 8782TIP3    H126310   1.027   5.760   1.440 -0.9491 -1.0771 -0.1227
 8782TIP3    H226311   1.145   5.669   1.414 -0.8091 -0.9045 -0.0919
 8783TIP3   OH226312   3.268   3.920   5.497  0.3185 -0.3343 -0.0875
 8783TIP3    H126313   3.188   3.870   5.510  0.2729 -0.7128 -1.6045
 8783TIP3    H226314   3.243   4.010   5.518 -0.2383 -0.5810  0.3575
 8784TIP3   OH226315   6.844   5.597   0.617  0.2355 -0.1921 -0.9213
 8784TIP3    H126316   6.889   5.516   0.639  0.8569  0.7678  1.7257
 8784TIP3    H226317   6.914   5.661   0.603 -0.2477  0.5384 -0.1084
 8785TIP3   OH226318   6.391   5.316   0.270 -0.2297  0.3751 -0.5031
 8785TIP3    H126319   6.349   5.276   0.194 -1.5545 -1.9512  1.3389
 8785TIP3    H226320   6.323   5.370   0.310 -0.2777 -0.2174  0.2483
 8786TIP3   OH226321   1.618   6.070   1.210  0.0249  0.0396 -0.2978
 8786TIP3    H126322   1.528   6.064   1.179  0.1506  0.0177 -0.6643
 8786TIP3    H226323   1.615   6.136   1.280 -0.1283  0.6633 -0.8760
 8787TIP3   OH226324   4.289   6.280   0.398  0.1105  0.3044 -0.3386
 8787TIP3    H126325   4.235   6.201   0.397 -0.4155  0.6588 -0.1903
 8787TIP3    H226326   4.260   6.330   0.322 -0.7753  1.1591  0.5343
 8788TIP3   OH226327   4.012   6.223   4.405  0.3517 -0.2102 -0.1275
 8788TIP3    H126328   4.008   6.212   4.500 -0.9161 -0.0423 -0.1421
 8788TIP3    H226329   4.074   6.295   4.391 -0.0910  0.3214  0.6241
 8789TIP3   OH226330   3.683   0.358   4.000  0.0682  0.3073  0.1633
 8789TIP3    H126331   3.591   0.329   3.999 -0.4370  1.7666 -1.7703
 8789TIP3    H226332   3.697   0.396   3.914  2.6287 -0.1497  0.3141
 8790TIP3   OH226333   6.418   2.040   4.909  0.0344  0.3622 -0.2796
 8790TIP3    H126334   6.350   2.080   4.854  0.0995 -0.9663 -1.3891
 8790TIP3    H226335   6.486   2.108   4.915 -1.3360  1.7131  0.8522
 8791TIP3   OH226336   2.211   6.613   1.397  0.2965 -0.1738 -0.5695
 8791TIP3    H126337   2.206   6.549   1.468  0.3696  2.1309  1.6894
 8791TIP3    H226338   2.150   6.581   1.331 -0.7209 -1.8237  1.0706
 8792TIP3   OH226339   5.551   0.791   2.122  0.0979  0.6617 -0.2541
 8792TIP3    H126340   5.487   0.742   2.071  0.0878 -0.6612  0.9792
 8792TIP3    H226341   5.634   0.776   2.077  0.1480 -0.7854  0.2970
 8793TIP3   OH226342   1.602   2.871   4.671 -0.1724 -0.3630 -0.1849
 8793TIP3    H126343   1.545   2.938   4.633  0.1677 -0.5526 -1.0556
 8793TIP3    H226344   1.572   2.789   4.631  2.0723 -0.2217 -2.3774
 8794TIP3   OH226345   6.575   3.338   1.791  0.2481 -0.4506 -0.2365
 8794TIP3    H126346   6.585   3.283   1.869  0.1862  1.2939  1.0481
 8794TIP3    H226347   6.662   3.342   1.753  0.6907  0.1363  0.7889
 8795TIP3   OH226348   5.938   1.464   4.579 -0.0152  0.9701 -0.1976
 8795TIP3    H126349   6.007   1.528   4.565 -0.5233  2.2207  2.3624
 8795TIP3    H226350   5.929   1.459   4.674 -0.7550 -2.1371 -0.3242
 8796TIP3   OH226351   3.312   2.540   1.647 -0.0058  0.0683 -0.2083
 8796TIP3    H126352   3.375   2.609   1.625  0.6276 -0.6732 -0.7734
 8796TIP3    H226353   3.230   2.569   1.606  0.7029 -0.3763 -2.0651
 8797TIP3   OH226354   5.163   0.712   2.595  0.5732  0.4133  0.4277
 8797TIP3    H126355   5.121   0.736   2.513 -0.2385  2.3448  1.3457
 8797TIP3    H226356   5.133   0.623   2.613  0.5949  0.0444 -1.2228
 8798TIP3   OH226357   4.938   2.013   3.712  0.0311 -0.6080 -0.5061
 8798TIP3    H126358   4.991   1.939   3.681 -0.2668 -0.3629 -1.6505
 8798TIP3    H226359   4.975   2.089   3.667  0.8930  0.1126  1.3050
 8799TIP3   OH226360   3.647   3.053   4.016 -0.2851 -0.3170 -0.6647
 8799TIP3    H126361   3.709   3.099   4.073 -0.9567  0.4157 -0.5043
 8799TIP3    H226362   3.586   3.121   3.988 -1.4047 -1.1401 -0.2840
 8800TIP3   OH226363   1.594   6.239   3.721  0.8316 -0.0473 -0.0864
 8800TIP3    H126364   1.668   6.240   3.661  0.7810  0.4017 -0.1410
 8800TIP3    H226365   1.567   6.147   3.724  0.5464 -0.0143 -1.1100
 8801TIP3   OH226366   0.977   3.050   4.677  0.8082 -0.6879 -0.4642
 8801TIP3    H126367   0.886   3.079   4.666  0.5205 -1.2570  0.3617
 8801TIP3    H226368   0.974   2.988   4.749  1.7842 -1.0789 -0.7491
 8802TIP3   OH226369   1.815   3.313   1.781  0.5657  0.2993  0.2113
 8802TIP3    H126370   1.798   3.219   1.788  0.4687  0.4243  2.4232
 8802TIP3    H226371   1.898   3.319   1.733  0.8892 -0.9409  0.5816
 8803TIP3   OH226372   0.633   1.759   4.932 -0.4212  0.2149  0.4741
 8803TIP3    H126373   0.564   1.773   4.996 -1.1546  0.5844 -0.3747
 8803TIP3    H226374   0.672   1.845   4.918  0.2735 -0.0016  0.9976
 8804TIP3   OH226375   3.064   6.233   4.172 -0.0181  0.1903  0.0492
 8804TIP3    H126376   3.066   6.149   4.127 -0.1353 -0.0505  0.4923
 8804TIP3    H226377   3.081   6.212   4.264 -0.7327  0.5688  0.2761
 8805TIP3   OH226378   0.268   1.918   2.629 -0.1262  0.4116  0.0044
 8805TIP3    H126379   0.233   1.944   2.714  1.0019  0.3145  0.5131
 8805TIP3    H226380   0.201   1.860   2.592 -0.3604 -0.0310  1.0890
 8806TIP3   OH226381   7.039   3.935   4.196 -0.0511 -0.3055 -0.3689
 8806TIP3    H126382   6.959   3.897   4.231  0.2635 -0.4995  0.1446
 8806TIP3    H226383   7.108   3.907   4.256  0.1858  1.1474  0.0768
 8807TIP3   OH226384   3.680   2.998   4.499 -0.0735  0.1394 -0.2760
 8807TIP3    H126385   3.645   3.060   4.564 -1.1454 -0.1119 -0.5900
 8807TIP3    H226386   3.772   3.024   4.489  0.0719  0.3202  1.1770
 8808TIP3   OH226387   4.159   5.066   0.301  0.0862 -0.5249 -0.3654
 8808TIP3    H126388   4.069   5.099   0.302  0.4818  0.6007 -0.7329
 8808TIP3    H226389   4.175   5.037   0.390 -1.0170 -1.8328 -0.5502
 8809TIP3   OH226390   1.221   5.052   2.959  0.0792  0.2988 -0.4235
 8809TIP3    H126391   1.298   5.016   3.002  0.3943  2.4285  0.9357
 8809TIP3    H226392   1.239   5.042   2.865  1.1010 -1.0121 -0.1144
 8810TIP3   OH226393   5.317   0.044   4.281 -0.1041  0.0305  0.6993
 8810TIP3    H126394   5.378   0.085   4.221 -0.9830 -0.8264 -0.8523
 8810TIP3    H226395   5.368  -0.024   4.326  0.2221 -0.3472 -0.2250
 8811TIP3   OH226396   1.503   5.308   0.917 -0.3551 -0.1804  0.1451
 8811TIP3    H126397   1.518   5.237   0.980  1.4785 -0.8148 -0.9450
 8811TIP3    H226398   1.536   5.275   0.834 -2.9032  0.5617 -1.2809
 8812TIP3   OH226399   2.099   0.649   3.510 -0.4077  0.5105  0.2046
 8812TIP3    H126400   2.133   0.735   3.537  0.8777  0.0696  0.0515
 8812TIP3    H226401   2.021   0.637   3.565  1.4554  0.1627  2.9852
 8813TIP3   OH226402   0.250   3.357   0.696 -0.2095 -0.0198  0.6018
 8813TIP3    H126403   0.296   3.436   0.727  1.3464 -0.3929 -0.6512
 8813TIP3    H226404   0.304   3.325   0.624 -2.0318 -0.9771 -0.3905
 8814TIP3   OH226405   1.037   0.891   2.542 -0.1639  0.1204 -0.2143
 8814TIP3    H126406   1.026   0.844   2.624  1.8729  0.9533  0.5862
 8814TIP3    H226407   1.010   0.980   2.561 -0.2947  0.1766 -0.6477
 8815TIP3   OH226408   6.927   5.033   4.357 -0.2084 -0.4484  0.3491
 8815TIP3    H126409   6.946   4.939   4.367 -0.3316 -0.7905 -1.9139
 8815TIP3    H226410   6.832   5.040   4.368 -0.3657 -0.8188 -0.6383
 8816TIP3   OH226411   6.775   1.504   0.590  0.3013  0.7013  0.5752
 8816TIP3    H126412   6.744   1.591   0.565 -1.0532 -0.3229 -1.6963
 8816TIP3    H226413   6.850   1.520   0.648  0.2132  3.3518  0.0694
 8817TIP3   OH226414   6.851   5.564   2.176  0.0967 -0.0737 -0.1878
 8817TIP3    H126415   6.827   5.595   2.263 -1.3922  1.1673 -0.9838
 8817TIP3    H226416   6.946   5.572   2.173  0.5296 -2.7275  2.2230
 8818TIP3   OH226417   5.940   5.175   3.620  0.1008 -0.1377  0.0516
 8818TIP3    H126418   5.992   5.210   3.547 -0.3492  1.8112  0.5883
 8818TIP3    H226419   6.004   5.133   3.677  0.8379  0.5712 -0.2225
 8819TIP3   OH226420   4.412   1.477   5.052  0.1509 -0.0476 -0.3366
 8819TIP3    H126421   4.364   1.527   5.118 -1.5879 -0.6519 -1.1030
 8819TIP3    H226422   4.497   1.521   5.045  0.4534 -0.0333  2.3778
 8820TIP3   OH226423   2.114   4.750   5.287 -0.6718  0.1370  0.9024
 8820TIP3    H126424   2.181   4.728   5.352 -0.6018  1.0297  1.1405
 8820TIP3    H226425   2.046   4.795   5.337  0.4174  2.9253  0.0399
 8821TIP3   OH226426   6.297   2.500   0.691  0.5528  0.4524 -0.1097
 8821TIP3    H126427   6.309   2.568   0.624  0.9213  0.2181 -0.2834
 8821TIP3    H226428   6.216   2.525   0.736 -0.4353 -0.1005 -1.5063
 8822TIP3   OH226429   5.606   0.574   1.152 -0.5001  0.5001  0.5839
 8822TIP3    H126430   5.670   0.566   1.223  0.4303 -0.4043 -0.3238
 8822TIP3    H226431   5.568   0.661   1.164  1.5184  1.4363  0.6961
 8823TIP3   OH226432   4.498   3.278   4.060 -0.2305 -0.2654  0.3663
 8823TIP3    H126433   4.443   3.251   3.987 -0.4520  1.3158 -0.0888
 8823TIP3    H226434   4.442   3.267   4.137 -0.6058 -0.2691  0.0959
 8824TIP3   OH226435   6.819   1.642   1.708  0.1938  0.1525 -0.6146
 8824TIP3    H126436   6.790   1.607   1.792 -1.8633 -0.6814 -1.6052
 8824TIP3    H226437   6.798   1.736   1.712 -0.4577  0.0038 -0.4074
 8825TIP3   OH226438   5.551   3.637   4.495 -0.3252  0.4157 -0.4872
 8825TIP3    H126439   5.568   3.719   4.448 -0.9688 -0.4915 -2.4328
 8825TIP3    H226440   5.629   3.584   4.481  0.4370  0.9563  1.4707
 8826TIP3   OH226441   4.080   3.783   3.893 -0.0577  0.0871  0.3400
 8826TIP3    H126442   4.039   3.869   3.897 -2.2953 -0.9402  0.7949
 8826TIP3    H226443   4.174   3.801   3.903 -0.5817  2.3386  1.9233
 8827TIP3   OH226444   3.237   0.505   5.224 -0.1483  0.4554  0.0417
 8827TIP3    H126445   3.263   0.416   5.199  0.5685  1.2392 -2.2652
 8827TIP3    H226446   3.233   0.503   5.319 -2.9067 -2.7902  0.0417
 8828TIP3   OH226447   0.482   3.835   3.636 -0.0121  0.4952 -0.4314
 8828TIP3    H126448   0.484   3.917   3.586 -1.1175  0.7543 -0.0951
 8828TIP3    H226449   0.391   3.829   3.667  0.5234  0.1179  1.1490
 8829TIP3   OH226450   1.585   1.025   1.187  0.5335  0.0290  0.3743
 8829TIP3    H126451   1.531   0.962   1.139  0.6576  0.3523 -0.2011
 8829TIP3    H226452   1.628   0.974   1.255  0.5050 -0.4751  0.0148
 8830TIP3   OH226453   3.950   2.619   1.195  0.2380  0.4494  0.5602
 8830TIP3    H126454   3.960   2.679   1.270  0.9521 -0.0972  0.9167
 8830TIP3    H226455   3.963   2.532   1.233  0.7954  0.1815 -0.2385
 8831TIP3   OH226456   0.788   0.271   5.082  0.3325  0.0492  0.0173
 8831TIP3    H126457   0.879   0.297   5.094  0.2650 -0.0214  0.7290
 8831TIP3    H226458   0.751   0.338   5.025  0.8910 -0.0600 -0.4844
 8832TIP3   OH226459   5.765   4.323   3.814 -0.0861  0.1348  0.6314
 8832TIP3    H126460   5.687   4.273   3.789  0.2442 -0.3917  0.6337
 8832TIP3    H226461   5.731   4.396   3.866 -0.5518 -0.2916  0.9409
 8833TIP3   OH226462   3.932   2.940   4.276 -0.5456 -0.1743  0.1267
 8833TIP3    H126463   3.999   2.986   4.326  0.4282  0.4131 -1.6255
 8833TIP3    H226464   3.902   2.870   4.335  0.8276  0.2147  1.3493
 8834TIP3   OH226465   5.827   2.630   1.123  0.4015 -0.0351  0.5468
 8834TIP3    H126466   5.887   2.700   1.149 -1.0449  1.1581  0.8055
 8834TIP3    H226467   5.759   2.629   1.191 -0.2203 -0.9243 -0.0582
 8835TIP3   OH226468   3.301   0.943   4.205 -0.6725  0.0613 -0.5859
 8835TIP3    H126469   3.357   0.870   4.233  0.5940  1.5260  0.9244
 8835TIP3    H226470   3.357   0.994   4.146 -0.7385  1.0084  0.1516
 8836TIP3   OH226471   5.502   2.886   2.460 -0.1884  0.3611  0.1140
 8836TIP3    H126472   5.491   2.978   2.434  0.9550  0.9109  1.4175
 8836TIP3    H226473   5.422   2.864   2.507  0.0539  1.0936  0.8785
 8837TIP3   OH226474   6.218   1.910   4.097  0.1722 -0.3825 -0.1478
 8837TIP3    H126475   6.195   1.978   4.160 -0.2610  0.6649 -1.4019
 8837TIP3    H226476   6.142   1.852   4.094  0.7501 -1.2761  1.3203
 8838TIP3   OH226477   3.988   3.960   2.929  0.1312 -0.0044  0.7534
 8838TIP3    H126478   3.897   3.941   2.908  0.9507 -0.9937 -2.5274
 8838TIP3    H226479   3.987   4.050   2.961 -1.6825  1.5303 -3.0221
 8839TIP3   OH226480   6.080   2.254   3.915  0.2445  0.5503 -0.1541
 8839TIP3    H126481   6.015   2.308   3.960 -0.4400  0.6727 -1.2545
 8839TIP3    H226482   6.062   2.267   3.822  1.4942  0.1517 -0.4773
 8840TIP3   OH226483   5.932   6.606   0.901  0.1437  0.2618 -0.4531
 8840TIP3    H126484   6.012   6.643   0.938  0.2607  2.3157 -2.5799
 8840TIP3    H226485   5.889   6.679   0.856 -1.9352 -1.2252 -1.0716
 8841TIP3   OH226486   6.259   6.580   2.977  0.0297 -0.1359  0.1372
 8841TIP3    H126487   6.207   6.502   2.959 -1.6871  0.9328  0.2094
 8841TIP3    H226488   6.319   6.554   3.047 -0.2544 -1.4790 -0.0985
 8842TIP3   OH226489   0.330   0.888   2.994 -0.2109 -1.0086 -0.6186
 8842TIP3    H126490   0.411   0.846   2.968 -1.4439 -2.4526 -2.3810
 8842TIP3    H226491   0.326   0.968   2.940  1.0219  0.2607  1.0628
 8843TIP3   OH226492   3.590   1.642   0.857  0.5401 -0.2844  0.1507
 8843TIP3    H126493   3.676   1.684   0.864  0.4103 -0.1421  0.9700
 8843TIP3    H226494   3.528   1.714   0.859  0.3966 -0.3665 -0.7158
 8844TIP3   OH226495   0.362   1.944   1.640 -0.2176 -0.0095 -0.2162
 8844TIP3    H126496   0.289   1.881   1.640 -0.5892  0.4111  0.7109
 8844TIP3    H226497   0.330   2.018   1.691  1.2024 -0.2256  1.0694
 8845TIP3   OH226498   0.582   6.464   3.856  0.6219 -0.0610 -0.6293
 8845TIP3    H126499   0.530   6.465   3.775  0.0860  1.8311 -0.3123
 8845TIP3    H226500   0.638   6.387   3.847 -1.0821 -1.2633 -1.7250
 8846TIP3   OH226501   4.039   2.508   0.809 -0.1680 -0.4076 -0.2363
 8846TIP3    H126502   4.022   2.594   0.847  0.6902 -0.5652  0.5213
 8846TIP3    H226503   4.133   2.494   0.820 -0.5181 -2.1094  1.0995
 8847TIP3   OH226504   1.727   0.797   0.914 -0.1267 -0.1763  0.6412
 8847TIP3    H126505   1.785   0.841   0.976 -3.1190  2.9183  1.5718
 8847TIP3    H226506   1.764   0.818   0.828  1.3711 -0.3115  1.2265
 8848TIP3   OH226507   6.941   2.585   1.846 -0.5004 -1.0952 -0.5812
 8848TIP3    H126508   6.897   2.650   1.901  0.5362 -0.9788  0.1447
 8848TIP3    H226509   6.990   2.531   1.908  0.2851 -1.2846 -1.3587
 8849TIP3   OH226510   4.210   3.972   0.372 -0.4245 -0.2048  0.1908
 8849TIP3    H126511   4.166   4.028   0.436 -1.9507  0.3582 -1.2787
 8849TIP3    H226512   4.185   4.008   0.287  3.0843  0.2535 -0.8045
 8850TIP3   OH226513   6.925   1.208   2.142 -0.1018  0.0716  0.2670
 8850TIP3    H126514   6.954   1.234   2.054  0.3523 -0.5964  0.2154
 8850TIP3    H226515   6.863   1.137   2.126 -0.5517  0.4129  0.4607
 8851TIP3   OH226516   5.914   4.053   3.686 -0.2337  0.0830  0.4271
 8851TIP3    H126517   5.940   4.144   3.699 -0.1372 -0.0311  1.0275
 8851TIP3    H226518   5.850   4.057   3.615 -0.7580  0.7046  0.9196
 8852TIP3   OH226519   7.173   6.089   4.469  0.3051 -0.2667  0.3176
 8852TIP3    H126520   7.128   6.012   4.436 -1.1652  0.4750  0.5402
 8852TIP3    H226521   7.258   6.088   4.423  0.2844 -1.9384  0.2634
 8853TIP3   OH226522   4.447   5.352   5.791 -0.5326 -0.5526 -0.5217
 8853TIP3    H126523   4.444   5.301   5.710  0.8468 -0.0143 -0.9377
 8853TIP3    H226524   4.360   5.393   5.796 -0.7156 -0.7710 -1.6076
 8854TIP3   OH226525   1.697   5.126   5.138  0.0223  0.5786  0.4284
 8854TIP3    H126526   1.709   5.107   5.045 -0.1219 -0.1898  0.5592
 8854TIP3    H226527   1.786   5.142   5.171 -0.0463  2.2743 -0.1154
 8855TIP3   OH226528   2.605   0.672   5.667 -0.2553 -0.2567 -0.1953
 8855TIP3    H126529   2.639   0.689   5.755  1.3822  1.3542 -1.0687
 8855TIP3    H226530   2.652   0.594   5.638  1.4586  0.8740 -0.6693
 8856TIP3   OH226531   5.689   4.407   4.872 -0.1925  0.3487 -0.2437
 8856TIP3    H126532   5.688   4.467   4.947 -1.7721  0.5542 -0.4020
 8856TIP3    H226533   5.764   4.350   4.889  0.5029  1.4594  0.6298
 8857TIP3   OH226534   0.501   5.800   5.315 -0.3955 -0.5955 -0.0413
 8857TIP3    H126535   0.540   5.857   5.381 -1.5517 -0.6618  0.7226
 8857TIP3    H226536   0.505   5.712   5.354 -0.2486 -0.7765 -0.4576
 8858TIP3   OH226537   4.109   4.727   4.605  0.3308  0.5506  0.6203
 8858TIP3    H126538   4.099   4.754   4.696  2.4061  0.5609  0.8815
 8858TIP3    H226539   4.103   4.808   4.555  2.3945  1.0172  1.0540
 8859TIP3   OH226540   3.711   3.662   4.986  0.6407 -0.1614 -0.2862
 8859TIP3    H126541   3.761   3.676   5.066  0.2512  1.4486 -0.2810
 8859TIP3    H226542   3.635   3.611   5.013  0.9648 -0.3921  0.1959
 8860TIP3   OH226543   0.583   3.060   3.681  0.3152  0.3971 -0.5484
 8860TIP3    H126544   0.583   3.152   3.707  0.7717 -0.1045  1.3859
 8860TIP3    H226545   0.582   3.062   3.585  1.9395  2.4473 -0.5990
 8861TIP3   OH226546   1.350   5.275   0.151  0.2679 -0.6556 -0.4030
 8861TIP3    H126547   1.286   5.303   0.087 -1.2075 -1.5108  0.6339
 8861TIP3    H226548   1.307   5.203   0.199  0.9196  0.5036  2.1103
 8862TIP3   OH226549   0.547   0.259   5.382  0.6526  0.6024  0.1095
 8862TIP3    H126550   0.617   0.282   5.443  0.8356  0.6545 -0.1161
 8862TIP3    H226551   0.534   0.338   5.330  4.2188 -0.8437 -3.5559
 8863TIP3   OH226552   7.161   3.911   0.478  0.0529  0.3424  0.2026
 8863TIP3    H126553   7.231   3.852   0.506  0.8603  0.8661 -0.6291
 8863TIP3    H226554   7.117   3.864   0.407  0.1336  0.3824  0.1265
 8864TIP3   OH226555   5.892   0.666   2.425  0.0992  0.3995 -0.2375
 8864TIP3    H126556   5.887   0.615   2.506 -0.7005  0.8650  0.0240
 8864TIP3    H226557   5.872   0.756   2.452 -2.0585  0.2762 -1.1951
 8865TIP3   OH226558   2.094   2.267   0.094 -0.5094 -0.1177 -0.0000
 8865TIP3    H126559   2.086   2.326   0.169 -1.2334 -1.0734  0.6910
 8865TIP3    H226560   2.187   2.272   0.070 -0.5683  1.3444 -0.0105
 8866TIP3   OH226561   6.619   3.707   3.029 -0.5477  0.5692 -0.0143
 8866TIP3    H126562   6.621   3.793   2.987 -1.0932  0.8248  0.4674
 8866TIP3    H226563   6.593   3.647   2.959 -0.0202  0.7718 -0.3871
 8867TIP3   OH226564   0.848   0.029   4.982 -0.0329  0.0138  0.0973
 8867TIP3    H126565   0.783  -0.041   4.974 -0.8542  0.3691  2.5788
 8867TIP3    H226566   0.799   0.103   5.018  1.6721  0.2835  2.0982
 8868TIP3   OH226567   1.752   6.399   2.559 -0.2334  0.2068 -0.0948
 8868TIP3    H126568   1.772   6.385   2.467 -0.8725 -0.1211 -0.1867
 8868TIP3    H226569   1.699   6.479   2.560 -0.9103 -0.2413 -0.0947
 8869TIP3   OH226570   6.215   2.953   5.860 -0.3951 -0.8773  0.7211
 8869TIP3    H126571   6.220   3.028   5.918 -1.1648 -0.0687 -0.2076
 8869TIP3    H226572   6.273   2.975   5.787 -1.6982 -0.5052 -0.2501
 8870TIP3   OH226573   5.578   6.370   4.631 -0.5362  0.2429  0.2407
 8870TIP3    H126574   5.591   6.378   4.537 -1.7858 -0.5705 -0.0352
 8870TIP3    H226575   5.561   6.459   4.661 -0.2389  0.4931 -0.3186
 8871TIP3   OH226576   6.680   3.579   3.412 -0.1131 -0.0632  0.2689
 8871TIP3    H126577   6.656   3.522   3.485  1.8298  0.3555  1.3089
 8871TIP3    H226578   6.597   3.601   3.371 -1.0244 -2.6571  0.5418
 8872TIP3   OH226579   1.558   2.219   2.739 -0.2541 -0.5678  0.4772
 8872TIP3    H126580   1.469   2.186   2.750 -0.5911 -0.3317 -1.2829
 8872TIP3    H226581   1.583   2.250   2.826 -1.1261 -2.4745  1.4520
 8873TIP3   OH226582   1.655   0.238   5.037 -0.2081  0.3496 -0.0687
 8873TIP3    H126583   1.581   0.279   5.081 -1.6722 -0.1667 -1.9319
 8873TIP3    H226584   1.730   0.259   5.093 -1.8615 -0.0465  2.4787
 8874TIP3   OH226585   3.766   5.224   5.416  0.7057  0.8071  0.2065
 8874TIP3    H126586   3.775   5.287   5.487 -0.5611  0.6061  0.5815
 8874TIP3    H226587   3.689   5.172   5.440  0.0290  0.9629 -1.4782
 8875TIP3   OH226588   6.386   4.590   0.154 -0.0059 -0.3278  0.2556
 8875TIP3    H126589   6.447   4.597   0.081 -0.2812  1.1656  0.1596
 8875TIP3    H226590   6.336   4.671   0.154  0.5158  0.0835  2.5621
 8876TIP3   OH226591   2.553   0.996   0.037 -0.0579  0.6841  0.0995
 8876TIP3    H126592   2.604   1.031   0.111  0.4949  1.2871 -0.5486
 8876TIP3    H226593   2.465   1.032   0.050 -0.0756  0.4454  0.6881
 8877TIP3   OH226594   3.041   4.151   2.637  0.2664 -0.1415  0.6001
 8877TIP3    H126595   3.068   4.113   2.720 -0.3094  1.2664  1.4597
 8877TIP3    H226596   2.955   4.190   2.655 -0.2797 -0.5616 -0.8846
 8878TIP3   OH226597   5.939   4.293   1.941  0.0561  0.0279  0.3236
 8878TIP3    H126598   5.931   4.328   1.852 -1.3005  1.4719  0.9732
 8878TIP3    H226599   5.849   4.291   1.974  0.4082 -1.5694  1.2960
 8879TIP3   OH226600   3.946   0.682   3.255 -0.5483 -0.1822  0.7289
 8879TIP3    H126601   3.937   0.618   3.184 -3.2564 -1.1339  1.7911
 8879TIP3    H226602   4.028   0.658   3.297 -1.3031 -2.9043  0.9076
 8880TIP3   OH226603   5.403   5.724   3.224 -0.5824  0.0468  0.4055
 8880TIP3    H126604   5.438   5.813   3.223 -0.8934  0.1655  0.0647
 8880TIP3    H226605   5.437   5.686   3.305  0.3051  0.1666  0.0963
 8881TIP3   OH226606   5.996   0.084   1.681  0.1467 -0.1161 -0.6970
 8881TIP3    H126607   5.909   0.115   1.660 -0.1299 -1.1849 -1.1826
 8881TIP3    H226608   6.037   0.066   1.596  0.2822 -1.0710 -0.4460
 8882TIP3   OH226609   0.904   3.349   1.156 -0.8527 -0.4638 -0.1435
 8882TIP3    H126610   0.998   3.363   1.168 -0.7931 -1.6367  1.0952
 8882TIP3    H226611   0.885   3.380   1.067 -0.0244  3.1942  0.8025
 8883TIP3   OH226612   3.840   1.373   2.158  0.2246 -0.8318 -0.3617
 8883TIP3    H126613   3.844   1.389   2.063  0.9188 -0.6368 -0.3061
 8883TIP3    H226614   3.902   1.436   2.195 -0.3285 -0.6423  0.2627
 8884TIP3   OH226615   6.083   3.265   5.086 -0.2745 -0.1668 -0.0964
 8884TIP3    H126616   6.092   3.282   4.993 -0.8530 -0.7609 -0.2681
 8884TIP3    H226617   6.158   3.210   5.108 -0.4034 -0.4344 -0.3201
 8885TIP3   OH226618   3.235   6.701   2.874  0.1956 -0.0015 -0.2161
 8885TIP3    H126619   3.194   6.617   2.851 -3.7998  1.6442  0.0388
 8885TIP3    H226620   3.254   6.742   2.790 -2.6486  0.7963 -0.5952
 8886TIP3   OH226621   6.731   4.437   1.546  0.5933  0.2981  0.1357
 8886TIP3    H126622   6.681   4.361   1.578 -0.7142  1.5198  1.0972
 8886TIP3    H226623   6.710   4.507   1.608 -0.6603  2.3350 -2.4117
 8887TIP3   OH226624   1.539   6.288   4.139 -0.0464 -0.0597 -0.6947
 8887TIP3    H126625   1.483   6.237   4.080 -0.1777 -1.9158  0.9416
 8887TIP3    H226626   1.478   6.336   4.195 -0.0315 -1.2831  0.4099
 8888TIP3   OH226627   5.586   5.452   1.878 -0.0949 -0.2859  0.1212
 8888TIP3    H126628   5.672   5.491   1.863 -0.2604  0.3611  0.8158
 8888TIP3    H226629   5.580   5.384   1.811  1.1838 -0.7174  0.4006
 8889TIP3   OH226630   1.546   6.428   2.137 -0.1215 -0.5087  0.2829
 8889TIP3    H126631   1.458   6.466   2.139 -0.2119 -0.5125 -1.5209
 8889TIP3    H226632   1.532   6.334   2.140 -0.0977 -0.4913  1.1696
 8890TIP3   OH226633   2.789   3.024   0.869 -0.4005 -0.5485 -0.5343
 8890TIP3    H126634   2.794   3.113   0.904  0.2455 -0.5362 -0.6400
 8890TIP3    H226635   2.801   3.034   0.775 -0.1790 -0.7531 -0.5304
 8891TIP3   OH226636   1.949   6.095   4.079  0.2729 -0.2669  0.0084
 8891TIP3    H126637   1.917   6.168   4.132  0.1655  0.4572 -1.0185
 8891TIP3    H226638   1.987   6.137   4.001 -0.3932 -1.3368 -0.9225
 8892TIP3   OH226639   2.171   4.970   5.584  0.2543 -0.5974 -0.4744
 8892TIP3    H126640   2.233   4.909   5.546  0.0562 -1.2283  0.1990
 8892TIP3    H226641   2.088   4.922   5.586 -0.0212 -0.1309 -0.3911
 8893TIP3   OH226642   2.620   5.005   1.896  0.0551  0.1791  0.4975
 8893TIP3    H126643   2.529   4.997   1.866  0.0322  2.8259 -0.3646
 8893TIP3    H226644   2.615   5.063   1.971  0.8081 -1.7303  2.0931
 8894TIP3   OH226645   3.420   6.539   0.545 -0.1262  0.4844  0.3291
 8894TIP3    H126646   3.412   6.457   0.593  2.2875  0.0022  0.0101
 8894TIP3    H226647   3.434   6.606   0.612 -0.5893  0.4171  0.4964
 8895TIP3   OH226648   4.861   4.508   5.273  0.4194  0.9721  0.0571
 8895TIP3    H126649   4.782   4.480   5.226  1.2047  0.4702 -1.0339
 8895TIP3    H226650   4.848   4.476   5.362 -1.6455  2.9813  0.5613
 8896TIP3   OH226651   5.043   2.540   4.853 -0.1056  0.0907  0.2367
 8896TIP3    H126652   5.045   2.481   4.777  1.6121  0.2766  0.0993
 8896TIP3    H226653   5.117   2.512   4.907  0.8490  2.1893  0.0993
 8897TIP3   OH226654   0.257   6.120   5.315  0.2050  0.2737 -0.1019
 8897TIP3    H126655   0.239   6.035   5.354 -2.9369  0.7405 -0.2775
 8897TIP3    H226656   0.333   6.106   5.260 -1.4682 -3.0361 -1.8622
 8898TIP3   OH226657   6.652   3.088   5.474 -0.0345 -0.0996 -0.2382
 8898TIP3    H126658   6.597   3.019   5.437 -1.4335  0.7403  0.1763
 8898TIP3    H226659   6.674   3.055   5.562  0.4612 -0.6043 -0.5423
 8899TIP3   OH226660   5.575   6.091   1.953 -0.1607  0.2402  0.1012
 8899TIP3    H126661   5.584   6.051   1.867 -0.5612 -0.3673  0.3360
 8899TIP3    H226662   5.625   6.034   2.012  0.4937  0.9025  0.2016
 8900TIP3   OH226663   4.711   1.132   0.135  0.3342 -0.2064 -0.0047
 8900TIP3    H126664   4.657   1.089   0.068 -0.3561 -2.6258  1.9523
 8900TIP3    H226665   4.672   1.219   0.144 -1.8178 -1.0739 -0.3037
 8901TIP3   OH226666   0.095   1.424   3.737  0.3140 -0.1572 -0.7054
 8901TIP3    H126667   0.062   1.467   3.816 -2.0059 -1.3071 -0.9522
 8901TIP3    H226668   0.111   1.496   3.676  1.0031  0.6600  0.3881
 8902TIP3   OH226669   0.057   1.939   1.745  0.0144  0.0102  0.4073
 8902TIP3    H126670   0.040   2.033   1.750 -0.1331 -0.0917  2.7334
 8902TIP3    H226671   0.119   1.922   1.815  0.2280 -1.6006 -0.1343
 8903TIP3   OH226672   6.775   1.108   1.116 -0.0566 -0.4643 -0.0552
 8903TIP3    H126673   6.864   1.076   1.099 -0.2753 -1.1550  0.0813
 8903TIP3    H226674   6.743   1.137   1.030  1.4354  2.8138  0.3481
 8904TIP3   OH226675   2.638   1.559   0.418  0.6539  0.1641 -0.0788
 8904TIP3    H126676   2.608   1.649   0.434 -0.3369 -0.1453 -0.1611
 8904TIP3    H226677   2.565   1.517   0.373  1.2690 -0.5759 -0.4002
 8905TIP3   OH226678   5.623   5.745   0.109 -0.2847  0.0570  0.0891
 8905TIP3    H126679   5.543   5.796   0.104 -0.3963 -0.2081 -1.1553
 8905TIP3    H226680   5.641   5.737   0.203 -0.6306  1.7938  0.3302
 8906TIP3   OH226681   0.008   0.305   1.623 -0.0249  0.4414  0.2589
 8906TIP3    H126682  -0.059   0.237   1.616  0.2672  0.2390 -0.8857
 8906TIP3    H226683   0.087   0.263   1.589  0.1115  1.4074 -0.6658
 8907TIP3   OH226684   6.744   6.533   2.463 -0.3814  0.5182 -0.1983
 8907TIP3    H126685   6.728   6.619   2.503 -0.6127  0.0531  0.7596
 8907TIP3    H226686   6.662   6.512   2.419  0.6014  2.0361 -2.9581
 8908TIP3   OH226687   1.305   2.433   4.733 -0.1954  0.0185 -0.3119
 8908TIP3    H126688   1.260   2.430   4.817  0.6419 -0.4787  0.1289
 8908TIP3    H226689   1.264   2.505   4.686 -0.5110  0.4474  0.6113
 8909TIP3   OH226690   0.818   4.687   5.189 -0.4048 -0.0415 -0.1165
 8909TIP3    H126691   0.797   4.752   5.123  0.0135 -1.3783 -1.6200
 8909TIP3    H226692   0.742   4.685   5.247 -1.3700  0.1782 -1.3519
 8910TIP3   OH226693   2.667   5.520   5.634 -0.0603 -0.2984 -0.3032
 8910TIP3    H126694   2.611   5.465   5.689 -1.1968 -0.4328 -1.5514
 8910TIP3    H226695   2.703   5.461   5.568 -0.9610  0.3309 -1.4025
 8911TIP3   OH226696   0.187   5.285   0.233  0.3228  0.7333  0.3483
 8911TIP3    H126697   0.166   5.279   0.140 -1.4061  0.6323  0.7127
 8911TIP3    H226698   0.267   5.336   0.237  0.2519  0.9896 -1.1734
 8912TIP3   OH226699   1.576   1.067   2.006 -0.2768  0.6370 -0.3374
 8912TIP3    H126700   1.508   1.073   2.073  1.5431  0.6086  1.6113
 8912TIP3    H226701   1.527   1.059   1.924 -2.6417  2.7455  0.7099
 8913TIP3   OH226702   0.523   5.211   3.517  0.3173 -0.2307  0.1181
 8913TIP3    H126703   0.496   5.221   3.609 -0.2416  1.5526 -0.2039
 8913TIP3    H226704   0.542   5.118   3.508  3.0442 -0.0703  2.7443
 8914TIP3   OH226705   5.854   6.543   4.657 -0.0913  0.2467 -0.4055
 8914TIP3    H126706   5.915   6.488   4.706 -2.0336 -1.0319  0.7315
 8914TIP3    H226707   5.828   6.611   4.719 -4.2907 -2.6509  1.4957
 8915TIP3   OH226708   4.752   5.529   1.441  0.3067 -0.1810 -0.2805
 8915TIP3    H126709   4.716   5.613   1.412  2.0648  1.2132  1.2870
 8915TIP3    H226710   4.697   5.503   1.514 -0.6446 -0.7786 -1.1801
 8916TIP3   OH226711   5.134   3.514   3.067  0.0476 -0.2074  0.3121
 8916TIP3    H126712   5.178   3.554   3.143 -3.9227  2.7182  1.3630
 8916TIP3    H226713   5.086   3.439   3.104  0.4666 -0.6157  0.0459
 8917TIP3   OH226714   4.555   0.695   4.150  0.0370 -0.1703  0.5237
 8917TIP3    H126715   4.563   0.726   4.240 -0.6639  1.3492  0.0946
 8917TIP3    H226716   4.472   0.732   4.119  0.4994 -0.2537 -0.8978
 8918TIP3   OH226717   1.224   2.680   1.928 -0.1213 -0.1803  0.4180
 8918TIP3    H126718   1.267   2.598   1.905 -0.0072  0.0166 -0.0890
 8918TIP3    H226719   1.195   2.668   2.018 -0.9332 -1.1245  0.0430
 8919TIP3   OH226720   3.443   0.050   2.283  0.9806  0.6505 -0.0708
 8919TIP3    H126721   3.359   0.091   2.259  0.2716  1.0128  2.6597
 8919TIP3    H226722   3.498   0.061   2.205 -1.6824 -0.2251 -2.2318
 8920TIP3   OH226723   1.959   4.973   2.384 -0.6343  0.6934  0.2734
 8920TIP3    H126724   1.990   5.026   2.311  0.4815  2.0387  1.6526
 8920TIP3    H226725   1.937   5.037   2.452  0.9887 -0.5883  2.1015
 8921TIP3   OH226726   4.092   1.900   3.105  0.1026  0.0105 -0.3666
 8921TIP3    H126727   4.161   1.860   3.159  1.6045  0.1323 -2.1091
 8921TIP3    H226728   4.132   1.979   3.069 -1.0163  0.1878 -1.2820
 8922TIP3   OH226729   2.151   4.692   4.517 -0.1752 -0.4316 -0.6154
 8922TIP3    H126730   2.226   4.727   4.470 -0.6046 -0.6653 -1.4848
 8922TIP3    H226731   2.079   4.692   4.453 -0.9207 -0.2206  0.1928
 8923TIP3   OH226732   2.678   0.889   1.446 -0.3950 -0.2475 -0.2004
 8923TIP3    H126733   2.666   0.795   1.453  1.9515 -0.7200 -1.6583
 8923TIP3    H226734   2.671   0.908   1.352  2.3099  0.4412 -0.3615
 8924TIP3   OH226735   0.306   1.458   0.945  0.5104 -0.0208  0.5087
 8924TIP3    H126736   0.388   1.506   0.944  0.2298  0.5006 -1.2530
 8924TIP3    H226737   0.289   1.441   1.038  1.6665  1.4584  1.0317
 8925TIP3   OH226738   3.251   3.073   5.126 -0.0870 -0.2476 -0.5654
 8925TIP3    H126739   3.318   3.133   5.159 -0.1086  0.0822 -1.0980
 8925TIP3    H226740   3.233   3.013   5.198 -1.0209  1.1958  0.4357
 8926TIP3   OH226741   2.520   3.040   5.555  0.1479 -0.1274 -0.3091
 8926TIP3    H126742   2.492   3.025   5.645  0.3845 -0.7486 -0.3331
 8926TIP3    H226743   2.442   3.072   5.510 -0.3623 -1.2138 -0.2271
 8927TIP3   OH226744   5.647   5.362   3.667 -0.2229 -0.2369 -0.1091
 8927TIP3    H126745   5.715   5.427   3.684 -2.3023  1.8312  0.8461
 8927TIP3    H226746   5.649   5.348   3.573  0.3946  1.1284 -0.3184
 8928TIP3   OH226747   5.211   3.439   0.300  0.1177  1.0327 -0.2947
 8928TIP3    H126748   5.144   3.395   0.249  0.6697  1.1226 -1.1185
 8928TIP3    H226749   5.199   3.532   0.280  1.7193  0.9303 -2.0569
 8929TIP3   OH226750   3.303   5.780   3.573  0.2904  0.4147 -0.6338
 8929TIP3    H126751   3.212   5.752   3.584  1.0280 -2.2427 -0.5082
 8929TIP3    H226752   3.346   5.753   3.654  1.3947  0.6553 -1.1268
 8930TIP3   OH226753   4.046   2.459   5.464  0.4082  0.3487  0.1616
 8930TIP3    H126754   3.989   2.461   5.387  1.0298  1.1336 -0.2825
 8930TIP3    H226755   3.988   2.431   5.535 -0.4335  0.7018 -0.3665
 8931TIP3   OH226756   6.522   2.111   3.854  0.0226 -0.1744 -0.2823
 8931TIP3    H126757   6.476   2.195   3.848 -0.0891 -0.3167 -1.9454
 8931TIP3    H226758   6.564   2.101   3.769  3.2667  0.0077  1.1490
 8932TIP3   OH226759   0.680   6.505   2.783 -0.5347 -0.1533 -0.5795
 8932TIP3    H126760   0.646   6.499   2.694  2.2773 -0.6746 -1.7005
 8932TIP3    H226761   0.691   6.599   2.799  0.1490 -0.1126 -1.2718
 8933TIP3   OH226762   0.297   2.437   3.489  0.2336 -0.0840  0.0904
 8933TIP3    H126763   0.306   2.367   3.424  0.2044  0.7424 -0.8339
 8933TIP3    H226764   0.203   2.452   3.496  0.1737 -0.8195  1.0584
 8934TIP3   OH226765   5.727   5.928   2.927  0.2935 -0.6097 -0.2142
 8934TIP3    H126766   5.663   5.906   2.859  0.2913 -1.0728 -0.0680
 8934TIP3    H226767   5.784   5.851   2.932 -0.4141 -1.0723  1.1220
 8935TIP3   OH226768   1.217   5.113   3.294 -0.3454  0.4033  0.3796
 8935TIP3    H126769   1.291   5.128   3.235 -0.6373  0.5928  0.0667
 8935TIP3    H226770   1.140   5.143   3.246 -0.5868  0.5399  0.8447
 8936TIP3   OH226771   4.224   4.108   1.729  0.0385 -0.4604 -0.0229
 8936TIP3    H126772   4.160   4.061   1.783 -2.9430  2.7651 -0.4006
 8936TIP3    H226773   4.268   4.166   1.791  1.3003 -1.2767 -0.1101
 8937TIP3   OH226774   4.366   2.857   3.886 -0.8101 -0.6115  0.4535
 8937TIP3    H126775   4.335   2.784   3.833  1.7377 -1.4725  0.0347
 8937TIP3    H226776   4.406   2.917   3.823 -1.5843  0.4763  0.9618
 8938TIP3   OH226777   3.987   4.747   1.052 -0.5257 -0.2978  0.2278
 8938TIP3    H126778   3.894   4.724   1.051 -0.3507 -1.2692  1.9114
 8938TIP3    H226779   4.032   4.663   1.063  0.4196  0.3382  1.4930
 8939TIP3   OH226780   1.633   1.404   0.885  0.0551  0.3359  0.6244
 8939TIP3    H126781   1.585   1.430   0.806  0.3182  1.3357  0.7822
 8939TIP3    H226782   1.593   1.456   0.955 -0.2003 -0.5680  1.1688
 8940TIP3   OH226783   2.863   1.203   2.377  0.0246  0.1056  0.0636
 8940TIP3    H126784   2.845   1.131   2.317  1.1236 -1.5514  1.6100
 8940TIP3    H226785   2.937   1.249   2.338  1.3333 -1.5104  0.5186
 8941TIP3   OH226786   4.052   0.814   0.760 -0.5186  0.4146  0.1788
 8941TIP3    H126787   4.042   0.806   0.855  1.1473 -0.2099  0.3371
 8941TIP3    H226788   4.122   0.753   0.738  0.3628  1.8319 -1.2032
 8942TIP3   OH226789   5.914   4.139   4.606  0.2885 -0.7389  0.1605
 8942TIP3    H126790   5.831   4.108   4.570 -0.8867  1.6528  0.5952
 8942TIP3    H226791   5.935   4.077   4.675 -0.3871 -2.1687 -0.8684
 8943TIP3   OH226792   1.868   0.928   5.046 -0.0279  0.4918 -0.3592
 8943TIP3    H126793   1.963   0.934   5.055  0.0264  0.2186 -0.7128
 8943TIP3    H226794   1.850   0.961   4.958 -0.1328 -0.5764 -0.7546
 8944TIP3   OH226795   4.524   6.496   1.606  0.3148 -0.5226  0.0705
 8944TIP3    H126796   4.435   6.469   1.627 -0.2921 -0.6777 -2.3427
 8944TIP3    H226797   4.578   6.423   1.635 -0.2559 -0.2930  1.8537
 8945TIP3   OH226798   6.178   2.873   2.658  0.0667 -0.3765 -0.0131
 8945TIP3    H126799   6.137   2.834   2.581 -0.1194 -0.9289  0.3562
 8945TIP3    H226800   6.160   2.811   2.729 -0.3936  0.4748  0.6327
 8946TIP3   OH226801   2.905   1.567   5.913 -0.1262 -0.0493  0.2780
 8946TIP3    H126802   2.810   1.563   5.902  0.0943 -2.2445 -1.2656
 8946TIP3    H226803   2.939   1.594   5.828  0.6788  0.4147  0.7268
 8947TIP3   OH226804   2.806   2.442   2.971  0.3822 -0.6296  0.0409
 8947TIP3    H126805   2.871   2.462   3.038 -0.0576  1.2217 -0.0362
 8947TIP3    H226806   2.724   2.432   3.020  0.0537  0.7601 -0.1808
 8948TIP3   OH226807   1.954   0.266   5.073 -0.0438  0.2337  0.5244
 8948TIP3    H126808   2.026   0.272   5.136  0.8004  0.8871 -0.4715
 8948TIP3    H226809   1.997   0.259   4.988 -1.1594  0.9521 -0.1242
 8949TIP3   OH226810   5.599   1.868   1.139 -0.3800 -0.4427 -0.1252
 8949TIP3    H126811   5.672   1.893   1.196 -0.8887 -1.6031  1.1220
 8949TIP3    H226812   5.560   1.950   1.110 -0.4657  0.2182  1.7417
 8950TIP3   OH226813   0.525   6.057   3.900 -0.2435  0.2098  0.3515
 8950TIP3    H126814   0.431   6.055   3.922 -0.8269 -2.8810 -1.7919
 8950TIP3    H226815   0.528   6.092   3.811  0.4768 -0.6149  0.0330
 8951TIP3   OH226816   4.467   4.940   4.915  0.1017  0.2104 -0.1622
 8951TIP3    H126817   4.418   4.902   4.988  0.0913  1.5937  0.5987
 8951TIP3    H226818   4.555   4.903   4.924  0.5977  1.6624  1.6688
 8952TIP3   OH226819   1.540   4.581   1.082 -0.1380  0.3669 -0.2297
 8952TIP3    H126820   1.550   4.620   1.169 -2.8023 -2.4845  1.5933
 8952TIP3    H226821   1.470   4.631   1.040 -1.2877 -0.3467  0.7702
 8953TIP3   OH226822   2.386   4.024   1.055 -0.6321 -0.0453 -0.6246
 8953TIP3    H126823   2.372   3.985   1.141 -1.2195  1.6007  0.0817
 8953TIP3    H226824   2.476   4.002   1.033 -0.7589 -1.2498 -0.0001
 8954TIP3   OH226825   3.368   0.734   2.815  0.0643 -0.0971  0.0839
 8954TIP3    H126826   3.385   0.816   2.862  0.1348 -0.2256  0.2871
 8954TIP3    H226827   3.454   0.705   2.787  0.0521 -0.1635  0.1160
 8955TIP3   OH226828   4.913   0.185   3.136 -0.5842  0.3671 -0.4306
 8955TIP3    H126829   4.924   0.210   3.228 -1.0203 -0.2480 -0.2033
 8955TIP3    H226830   4.821   0.161   3.129 -0.7327  1.1202 -1.2184
 8956TIP3   OH226831   2.353   1.588   1.152 -0.5541  0.1978 -0.5218
 8956TIP3    H126832   2.389   1.503   1.178  0.1178  0.1205 -1.5922
 8956TIP3    H226833   2.282   1.604   1.213 -0.8134 -1.2230 -0.4012
 8957TIP3   OH226834   4.565   2.077   4.292 -0.1427  0.3770  0.0750
 8957TIP3    H126835   4.501   2.144   4.268 -0.4711 -0.0651 -0.3020
 8957TIP3    H226836   4.582   2.030   4.211  0.1605  0.0666  0.3161
 8958TIP3   OH226837   4.335   1.325   5.343  0.3002  0.5080 -0.0266
 8958TIP3    H126838   4.365   1.415   5.357  0.7287  0.2959  0.4373
 8958TIP3    H226839   4.389   1.293   5.271 -1.5752  1.4381 -1.9972
 8959TIP3   OH226840   5.545   6.096   2.524  0.2285  0.0668 -0.3554
 8959TIP3    H126841   5.450   6.102   2.535  0.4585  2.8320  0.9705
 8959TIP3    H226842   5.556   6.054   2.439 -2.0682 -2.9137  0.6532
 8960TIP3   OH226843   2.073   3.620   1.434  0.0942  0.4321  0.1390
 8960TIP3    H126844   2.051   3.652   1.347  2.4140 -0.6574 -0.9100
 8960TIP3    H226845   2.020   3.541   1.444  0.3474  0.1657 -0.5807
 8961TIP3   OH226846   5.973   4.979   3.072 -0.5470 -0.4170  0.0882
 8961TIP3    H126847   5.894   4.996   3.123 -0.3651  1.5040 -0.1880
 8961TIP3    H226848   5.956   4.895   3.029 -2.4485 -0.0427  0.0160
 8962TIP3   OH226849   1.367   6.339   0.678  0.0535  0.3787 -0.2684
 8962TIP3    H126850   1.287   6.365   0.631 -1.0319 -0.5634  0.9665
 8962TIP3    H226851   1.343   6.346   0.771  1.0656 -0.9431  0.1137
 8963TIP3   OH226852   3.890   0.059   3.339  0.2099 -0.3488 -0.3045
 8963TIP3    H126853   3.876   0.071   3.246  0.9819  1.0355 -0.2655
 8963TIP3    H226854   3.849  -0.025   3.359  0.1631 -0.7303 -1.9070
 8964TIP3   OH226855   2.057   4.964   5.033 -0.1114 -0.1398 -0.0188
 8964TIP3    H126856   2.046   4.870   5.046 -1.2641  0.1391  1.2012
 8964TIP3    H226857   2.082   4.997   5.119  1.2767  0.5666 -0.6541
 8965TIP3   OH226858   0.033   5.792   2.956 -0.1403 -0.2624  0.0682
 8965TIP3    H126859  -0.050   5.792   3.004  0.2048  0.5475  0.6846
 8965TIP3    H226860   0.040   5.881   2.921  0.4885 -0.3184  0.0571
 8966TIP3   OH226861   3.251   4.374   0.741  0.5649  0.5191  0.6061
 8966TIP3    H126862   3.210   4.448   0.696  2.1998  0.0202 -1.9047
 8966TIP3    H226863   3.202   4.298   0.711  1.5311  0.2077 -0.2610
 8967TIP3   OH226864   3.136   5.279   4.552 -0.2975 -0.4013 -0.3641
 8967TIP3    H126865   3.142   5.307   4.460 -0.6892  0.8609 -0.0197
 8967TIP3    H226866   3.212   5.222   4.564 -0.5468 -1.0522 -1.6182
 8968TIP3   OH226867   5.021   3.788   1.721 -0.2072  0.1417  0.1350
 8968TIP3    H126868   5.076   3.728   1.772 -0.7787  1.1926  2.0899
 8968TIP3    H226869   5.005   3.741   1.639 -0.3186 -2.2643  1.4162
 8969TIP3   OH226870   6.384   0.728   5.628 -0.1583 -0.0109 -0.4749
 8969TIP3    H126871   6.425   0.719   5.541 -0.3509 -1.9501 -0.4113
 8969TIP3    H226872   6.296   0.761   5.610 -0.7115 -1.7567 -1.1958
 8970TIP3   OH226873   0.256   3.924   1.716 -0.1284  0.1400 -0.2820
 8970TIP3    H126874   0.184   3.932   1.778  0.5479 -0.1014  0.5659
 8970TIP3    H226875   0.330   3.894   1.769  0.8154  1.1566 -0.9584
 8971TIP3   OH226876   6.824   6.468   1.436 -0.2551 -0.4572  0.4526
 8971TIP3    H126877   6.881   6.537   1.401 -2.6773  1.1260 -0.6133
 8971TIP3    H226878   6.798   6.417   1.359  0.0753 -1.4739  0.9977
 8972TIP3   OH226879   6.715   6.615   4.377  0.4907  0.1186 -0.7171
 8972TIP3    H126880   6.763   6.691   4.411  0.1453  0.7534 -1.6258
 8972TIP3    H226881   6.719   6.552   4.449  1.1392  0.8308 -0.0944
 8973TIP3   OH226882   2.912   5.648   2.013 -0.4154 -0.0069  0.2494
 8973TIP3    H126883   2.941   5.574   1.960  0.1923  0.3896  0.0121
 8973TIP3    H226884   2.865   5.704   1.952 -0.0876  0.2402  0.2204
 8974TIP3   OH226885   5.531   5.965   3.182 -0.3960  0.0812 -0.1801
 8974TIP3    H126886   5.519   6.027   3.254 -0.6291  1.8348 -1.6713
 8974TIP3    H226887   5.624   5.973   3.159 -0.5781  0.3953 -0.8224
 8975TIP3   OH226888   6.952   1.834   1.001 -0.3124  0.2457  0.3967
 8975TIP3    H126889   7.024   1.847   1.063  0.3145 -1.4605  0.0760
 8975TIP3    H226890   6.983   1.875   0.920 -0.0954  0.3261  0.5180
 8976TIP3   OH226891   0.229   5.748   4.415 -0.7168  0.0699 -0.4672
 8976TIP3    H126892   0.290   5.716   4.480  0.3114  3.8856  0.7206
 8976TIP3    H226893   0.143   5.737   4.455 -0.1970  1.1639  1.0507
 8977TIP3   OH226894   4.376   6.725   1.197 -0.3506  0.3540  0.0292
 8977TIP3    H126895   4.381   6.709   1.103  0.2010  0.6798  0.0001
 8977TIP3    H226896   4.452   6.781   1.216  0.1947 -0.6330  0.8568
 8978TIP3   OH226897   0.280   3.957   0.270 -0.3516 -0.0274 -0.6250
 8978TIP3    H126898   0.323   3.911   0.199  0.9110  1.6980 -1.0472
 8978TIP3    H226899   0.188   3.964   0.242 -0.0357 -0.0525 -1.7129
 8979TIP3   OH226900   3.588   0.386   0.753 -0.3580  0.5560  0.5256
 8979TIP3    H126901   3.515   0.446   0.745  0.5144  1.6235  0.3636
 8979TIP3    H226902   3.549   0.299   0.745 -1.9715  0.9566  3.0617
 8980TIP3   OH226903   4.332   6.355   4.098 -0.0146 -0.2976  0.4287
 8980TIP3    H126904   4.393   6.406   4.152 -1.4175 -0.4241  2.2366
 8980TIP3    H226905   4.325   6.271   4.142 -0.1842 -0.9091 -0.7327
 8981TIP3   OH226906   3.964   0.794   2.591 -0.3604  0.0792 -0.0493
 8981TIP3    H126907   3.899   0.847   2.545 -2.4589 -3.5313 -1.6533
 8981TIP3    H226908   3.914   0.745   2.656  1.7330  1.0127  2.4761
 8982TIP3   OH226909   5.060   5.014   5.050 -0.0893 -0.5723 -0.5540
 8982TIP3    H126910   5.011   4.938   5.081 -1.3209 -0.3660 -1.9299
 8982TIP3    H226911   4.995   5.071   5.011  0.5041  2.0456  1.9062
 8983TIP3   OH226912   2.881   5.896   4.276 -0.3838  0.0839 -0.1206
 8983TIP3    H126913   2.820   5.959   4.238 -1.0137 -0.3274  0.1723
 8983TIP3    H226914   2.966   5.918   4.239 -0.8590  0.1375 -1.2185
 8984TIP3   OH226915   5.999   3.168   4.339  0.6824  0.1217  0.5099
 8984TIP3    H126916   5.929   3.226   4.368 -0.7497 -0.5787 -1.3395
 8984TIP3    H226917   5.971   3.080   4.365  1.3104 -0.0766  0.5449
 8985TIP3   OH226918   6.460   0.474   0.918  0.1205 -0.0634 -0.0878
 8985TIP3    H126919   6.380   0.439   0.880  0.0170  0.0506  0.0251
 8985TIP3    H226920   6.519   0.486   0.844 -0.5386  1.4364 -0.4029
 8986TIP3   OH226921   5.342   1.001   5.772 -0.0927  0.0183  0.2764
 8986TIP3    H126922   5.326   1.073   5.711  1.1785 -1.1960 -1.6198
 8986TIP3    H226923   5.419   1.028   5.822  0.3154  0.0562 -0.3582
 8987TIP3   OH226924   6.582   2.012   5.455 -0.6155 -0.3543  0.1737
 8987TIP3    H126925   6.589   2.082   5.390 -0.0841 -0.4706  0.1000
 8987TIP3    H226926   6.549   1.937   5.405  3.2340 -1.5645 -0.8722
 8988TIP3   OH226927   1.279   3.319   4.187 -0.0253 -0.4451  0.2997
 8988TIP3    H126928   1.306   3.266   4.262 -1.1978 -3.3257 -1.1323
 8988TIP3    H226929   1.241   3.398   4.225  1.6683 -0.6359  2.5920
 8989TIP3   OH226930   6.719   5.615   2.976  0.3786  0.5156 -0.0847
 8989TIP3    H126931   6.806   5.575   2.973  0.8540  1.1784  2.5568
 8989TIP3    H226932   6.736   5.708   2.987 -0.6750  0.6924  0.1123
 8990TIP3   OH226933   1.825   0.700   3.361 -0.2291 -0.1013 -0.1363
 8990TIP3    H126934   1.852   0.703   3.453 -2.6659  0.5605  0.6216
 8990TIP3    H226935   1.869   0.623   3.325 -0.5596 -1.3772  2.0468
 8991TIP3   OH226936   1.612   2.830   2.297 -0.0248  0.1774  0.0356
 8991TIP3    H126937   1.550   2.757   2.297 -1.9865  1.7554 -0.0985
 8991TIP3    H226938   1.698   2.788   2.301 -0.9974 -2.1735 -1.4216
 8992TIP3   OH226939   3.984   4.233   1.964 -0.0209 -0.2305 -0.0706
 8992TIP3    H126940   3.922   4.257   1.895  0.5873  0.6518 -0.3276
 8992TIP3    H226941   4.048   4.177   1.921  1.7289  2.2318 -0.8712
 8993TIP3   OH226942   6.815   4.700   5.825  0.2566  0.0516 -0.3635
 8993TIP3    H126943   6.724   4.669   5.823 -0.2114  1.3439 -1.7364
 8993TIP3    H226944   6.831   4.729   5.735  2.4916 -1.3396 -0.4719
 8994TIP3   OH226945   4.038   4.088   0.186  0.1668 -0.2373 -0.3728
 8994TIP3    H126946   3.954   4.088   0.232  0.7143  1.6513  0.7179
 8994TIP3    H226947   4.049   4.178   0.157  1.3038 -0.7247 -1.5355
 8995TIP3   OH226948   1.098   3.157   1.691  0.2375 -0.6312 -0.2104
 8995TIP3    H126949   1.144   3.091   1.742  0.4095 -1.5887 -1.5672
 8995TIP3    H226950   1.104   3.127   1.601 -0.3377  0.8548 -0.7794
 8996TIP3   OH226951   1.174   5.405   1.348  0.1881  0.4316 -0.3933
 8996TIP3    H126952   1.154   5.438   1.260 -3.4529  1.4845  0.6749
 8996TIP3    H226953   1.144   5.314   1.346  0.4875  0.3318 -0.3507
 8997TIP3   OH226954   6.879   0.899   3.185  0.2593  0.1453  0.1595
 8997TIP3    H126955   6.856   0.992   3.181 -0.9928  0.0570  3.1554
 8997TIP3    H226956   6.906   0.884   3.275  2.8394 -1.9534 -0.8226
 8998TIP3   OH226957   5.586   1.159   0.657  0.3174  0.3907  0.1504
 8998TIP3    H126958   5.546   1.220   0.595  1.4134 -0.7407 -1.7500
 8998TIP3    H226959   5.660   1.122   0.610  0.4052 -1.5135  1.6858
 8999TIP3   OH226960   3.923   6.796   0.228  0.0415 -0.7286  0.2984
 8999TIP3    H126961   3.910   6.702   0.237 -0.5668 -0.4739  2.9787
 8999TIP3    H226962   3.835   6.832   0.218 -0.0219 -0.2846  2.0608
 9000TIP3   OH226963   2.893   0.920   5.740  0.0415  0.3532 -0.4209
 9000TIP3    H126964   2.928   0.967   5.815 -0.2417  1.8615 -1.1892
 9000TIP3    H226965   2.894   0.985   5.669 -1.3387 -0.4959 -1.2588
 9001TIP3   OH226966   5.922   5.784   1.392 -0.1060  0.3154  0.0903
 9001TIP3    H126967   5.978   5.807   1.466 -0.1713  1.4084 -0.1909
 9001TIP3    H226968   5.965   5.825   1.316  0.1411 -1.0531 -0.5398
 9002TIP3   OH226969   2.477   1.288   4.292  0.5608  0.2876 -0.1285
 9002TIP3    H126970   2.425   1.209   4.274  1.5639 -0.0851 -1.5622
 9002TIP3    H226971   2.501   1.280   4.385 -1.0886 -0.0156  0.2957
 9003TIP3   OH226972   1.213   0.614   0.680 -0.0973  0.5618  0.0653
 9003TIP3    H126973   1.169   0.660   0.608 -1.1504 -0.2684  0.1491
 9003TIP3    H226974   1.219   0.523   0.651  1.0861  0.5454  0.3001
 9004TIP3   OH226975   3.196   1.505   4.520 -0.3476 -0.3839  0.5232
 9004TIP3    H126976   3.250   1.493   4.442  1.4092  2.0560  1.2148
 9004TIP3    H226977   3.131   1.570   4.494 -0.4809 -0.4185  0.7722
 9005TIP3   OH226978   5.742   0.828   0.371  0.2750  0.0244 -0.8574
 9005TIP3    H126979   5.685   0.859   0.301 -0.9551  0.8685  0.4729
 9005TIP3    H226980   5.692   0.760   0.415  0.7716 -0.0577 -0.3992
 9006TIP3   OH226981   6.964   0.965   5.735 -0.2617  0.1495  0.1889
 9006TIP3    H126982   6.871   0.981   5.752 -0.6063 -1.4217 -0.0716
 9006TIP3    H226983   6.968   0.873   5.711  1.4576  0.0245  0.8350
 9007TIP3   OH226984   5.907   3.797   2.321  0.3202 -0.0100  0.1601
 9007TIP3    H126985   5.841   3.728   2.321 -0.1716  0.4423 -0.3975
 9007TIP3    H226986   5.967   3.774   2.250  0.7944 -0.4390  0.6887
 9008TIP3   OH226987   2.152   3.789   5.366  0.1415  0.4190 -0.3126
 9008TIP3    H126988   2.058   3.799   5.382  0.2308  0.3607  0.2739
 9008TIP3    H226989   2.188   3.877   5.377  0.2002  0.3877 -0.2624
 9009TIP3   OH226990   1.250   6.121   5.635  0.1264  0.5472 -0.3806
 9009TIP3    H126991   1.313   6.099   5.704 -0.1180 -0.8836 -0.5873
 9009TIP3    H226992   1.221   6.210   5.657  0.8142  0.5092  0.7738
 9010TIP3   OH226993   5.421   5.711   1.221 -0.2290  0.3084 -0.3682
 9010TIP3    H126994   5.517   5.710   1.230 -0.3000 -0.8685  0.5219
 9010TIP3    H226995   5.405   5.690   1.129  0.3673 -0.1288 -0.3831
 9011TIP3   OH226996   3.299   0.538   3.298  0.8851 -0.5044 -0.2202
 9011TIP3    H126997   3.266   0.578   3.218  0.8466  0.0724  0.0847
 9011TIP3    H226998   3.384   0.580   3.313  0.2929  0.3699  0.7780
 9012TIP3   OH226999   5.600   4.458   0.386 -0.0153 -1.0194  0.1601
 9012TIP3    H127000   5.611   4.541   0.434  0.7408 -1.4509  0.7626
 9012TIP3    H227001   5.631   4.477   0.298  0.2076 -0.6711  0.3111
 9013TIP3   OH227002   2.789   4.222   2.628 -0.0908  0.3449 -0.5018
 9013TIP3    H127003   2.746   4.299   2.590 -0.5678 -0.2095 -1.1047
 9013TIP3    H227004   2.720   4.177   2.676 -1.0136 -2.1267 -3.8566
 9014TIP3   OH227005   6.416   3.122   4.234 -0.5283 -0.1179 -0.5542
 9014TIP3    H127006   6.478   3.127   4.307 -1.3976  0.1375  0.1779
 9014TIP3    H227007   6.421   3.031   4.205 -1.8372 -0.8429  1.3217
 9015TIP3   OH227008   2.115   3.393   3.803  0.8731  0.0115  0.0191
 9015TIP3    H127009   2.107   3.431   3.891 -0.0981  0.2001 -0.1403
 9015TIP3    H227010   2.060   3.315   3.805  0.4514  0.2832 -0.5610
 9016TIP3   OH227011   1.168   0.621   5.603  0.2093 -0.8782 -0.1629
 9016TIP3    H127012   1.216   0.545   5.570 -0.8510 -1.9403  0.6477
 9016TIP3    H227013   1.187   0.691   5.540  2.2839 -1.4156 -0.2071
 9017TIP3   OH227014   6.499   4.097   3.750 -0.3178 -0.0317  0.4764
 9017TIP3    H127015   6.547   4.016   3.736  2.6623  1.5098  0.9697
 9017TIP3    H227016   6.502   4.141   3.665 -2.9732 -0.8390 -0.1328
 9018TIP3   OH227017   5.451   4.397   4.176 -0.4915 -0.1781  0.7061
 9018TIP3    H127018   5.381   4.386   4.112 -0.7346 -1.2574  1.1298
 9018TIP3    H227019   5.473   4.490   4.173 -0.8637 -0.1169 -0.5504
 9019TIP3   OH227020   4.952   6.122   0.647  0.0106  0.1669  0.4255
 9019TIP3    H127021   4.865   6.137   0.683  0.3259 -0.4779  1.5211
 9019TIP3    H227022   5.006   6.101   0.723  1.2717  1.1710 -0.1507
 9020TIP3   OH227023   1.815   1.128   4.865 -0.1139 -0.0100 -0.2571
 9020TIP3    H127024   1.807   1.205   4.808  0.3086  0.5235  0.3944
 9020TIP3    H227025   1.878   1.154   4.932  0.5963 -1.1784 -0.4467
 9021TIP3   OH227026   6.060   1.103   3.860  0.1172  0.2296 -0.1328
 9021TIP3    H127027   5.987   1.043   3.843  0.8899 -0.0033 -3.2575
 9021TIP3    H227028   6.122   1.051   3.911  0.8384 -1.8912 -2.8680
 9022TIP3   OH227029   6.308   1.053   3.022 -0.3170 -0.2690  0.1775
 9022TIP3    H127030   6.280   0.986   2.961 -1.7175 -1.0501  1.6154
 9022TIP3    H227031   6.400   1.033   3.039 -0.7561 -1.9719  0.7263
 9023TIP3   OH227032   5.016   3.663   0.686  0.5155 -0.1285 -0.0655
 9023TIP3    H127033   5.040   3.711   0.766 -0.6345 -0.4602  0.5066
 9023TIP3    H227034   5.085   3.597   0.676  1.3474  0.7159 -0.0683
 9024TIP3   OH227035   3.936   5.069   1.864 -0.0067 -0.6543 -0.2156
 9024TIP3    H127036   3.844   5.080   1.888  0.4027  0.0399  1.1065
 9024TIP3    H227037   3.949   5.131   1.792 -0.8504 -1.6102 -1.2250
 9025TIP3   OH227038   3.448   3.215   2.252  0.0159  0.1587  0.6889
 9025TIP3    H127039   3.497   3.172   2.322  2.0964 -1.7799 -1.7611
 9025TIP3    H227040   3.500   3.291   2.228  1.2066 -1.1127 -0.9690
 9026TIP3   OH227041   6.956   0.478   0.751  0.0443  0.3559  0.7326
 9026TIP3    H127042   7.010   0.519   0.819  0.8485 -0.7116  0.7648
 9026TIP3    H227043   6.975   0.528   0.672  1.2190 -0.1135  0.7094
 9027TIP3   OH227044   0.657   4.175   3.232  0.2413  0.3948  0.0046
 9027TIP3    H127045   0.728   4.179   3.167  0.9829 -1.9485  0.5575
 9027TIP3    H227046   0.598   4.108   3.198 -0.2789  0.4040  0.8772
 9028TIP3   OH227047   1.244   5.552   3.983 -0.0899 -0.5187 -0.3992
 9028TIP3    H127048   1.288   5.563   4.067  1.6751 -1.6372 -1.1295
 9028TIP3    H227049   1.165   5.503   4.004  0.4032 -0.9185  0.5817
 9029TIP3   OH227050   3.343   6.122   4.458  0.6803 -0.3450 -0.0427
 9029TIP3    H127051   3.335   6.029   4.479 -0.8510 -0.3002 -0.3128
 9029TIP3    H227052   3.318   6.128   4.366 -3.0142  0.7161  0.8493
 9030TIP3   OH227053   6.646   4.738   2.887 -0.2606 -0.2867 -0.3053
 9030TIP3    H127054   6.670   4.734   2.979 -0.2077 -1.6804 -0.3494
 9030TIP3    H227055   6.702   4.806   2.850  1.3270 -1.2415  0.2495
 9031TIP3   OH227056   3.815   0.186   4.594 -0.1508  0.1563  0.4017
 9031TIP3    H127057   3.760   0.135   4.535 -2.0282  1.4557  0.9260
 9031TIP3    H227058   3.836   0.125   4.665 -1.1775 -0.3118  0.3253
 9032TIP3   OH227059   3.216   1.050   2.188 -0.1798  0.0436  0.0077
 9032TIP3    H127060   3.262   1.134   2.194  2.8277 -1.5728  2.0069
 9032TIP3    H227061   3.258   1.005   2.115 -2.8293  0.6830 -2.0933
 9033TIP3   OH227062   5.769   3.381   3.799  0.0654 -0.3239  0.0477
 9033TIP3    H127063   5.676   3.404   3.805  0.0911  0.3008 -1.4505
 9033TIP3    H227064   5.815   3.464   3.809  0.5381 -0.7382  1.6270
 9034TIP3   OH227065   6.071   2.617   3.406  0.2593 -0.2618  0.4941
 9034TIP3    H127066   6.106   2.688   3.459  0.2524 -0.9979  1.5041
 9034TIP3    H227067   6.140   2.599   3.342  0.0454  0.9919 -0.1311
 9035TIP3   OH227068   5.691   3.604   2.386  0.2543 -0.4792 -0.0053
 9035TIP3    H127069   5.659   3.604   2.477 -2.8039  0.0473 -0.9540
 9035TIP3    H227070   5.679   3.514   2.357  0.9001 -0.5676 -0.0062
 9036TIP3   OH227071   6.449   6.278   5.137  0.6394 -0.1309  0.7396
 9036TIP3    H127072   6.452   6.239   5.224  1.5032  0.6559  1.0812
 9036TIP3    H227073   6.532   6.255   5.097  0.9483  0.8833  0.7576
 9037TIP3   OH227074   3.954   2.784   0.226  0.5401  0.4486 -0.2468
 9037TIP3    H127075   3.908   2.701   0.242  0.1258  0.1102 -2.6874
 9037TIP3    H227076   3.991   2.808   0.311 -1.8970 -0.6498  1.2428
 9038TIP3   OH227077   5.218   6.425   3.745  0.4065 -0.0232  0.6077
 9038TIP3    H127078   5.255   6.420   3.657  2.0647 -1.6037  1.3166
 9038TIP3    H227079   5.174   6.341   3.758  0.3621  0.1084  1.3571
 9039TIP3   OH227080   4.295   6.329   3.427  0.0392  0.2773 -0.0421
 9039TIP3    H127081   4.382   6.370   3.426 -0.4025  1.2376  0.3194
 9039TIP3    H227082   4.300   6.263   3.358  1.1243  0.1779  0.1122
 9040TIP3   OH227083   0.597   4.669   3.551  0.3695 -0.6049  0.0377
 9040TIP3    H127084   0.539   4.695   3.622  0.7252  0.9669 -0.2115
 9040TIP3    H227085   0.684   4.696   3.580  0.7359 -1.3094 -0.3636
 9041TIP3   OH227086   2.646   1.867   2.988 -0.6848  0.4261  0.0989
 9041TIP3    H127087   2.722   1.812   2.972 -0.9370 -0.5776  2.0633
 9041TIP3    H227088   2.680   1.957   2.989 -0.2157  0.4014 -2.8183
 9042TIP3   OH227089   0.741   0.588   0.473 -0.1377 -0.2439 -0.1001
 9042TIP3    H127090   0.775   0.572   0.561  0.2091  0.2248 -0.1450
 9042TIP3    H227091   0.813   0.629   0.426  0.0937 -1.5779 -0.9740
 9043TIP3   OH227092   0.054   1.849   4.630  0.2753  0.0076  0.5033
 9043TIP3    H127093   0.025   1.853   4.539 -0.6745 -0.4664  0.7755
 9043TIP3    H227094   0.138   1.895   4.631 -1.1468  2.8077 -0.0251
 9044TIP3   OH227095   3.503   1.139   3.121 -0.2215  0.2852 -0.4007
 9044TIP3    H127096   3.409   1.157   3.120 -0.4004  0.0354  2.8271
 9044TIP3    H227097   3.545   1.225   3.118 -0.6348  0.5166  0.3736
 9045TIP3   OH227098   2.352   5.487   2.483 -0.1272  0.0101 -0.4911
 9045TIP3    H127099   2.342   5.412   2.542  3.9496 -0.3505  0.0336
 9045TIP3    H227100   2.271   5.537   2.495 -0.6335 -1.3353  3.5217
 9046TIP3   OH227101   4.646   2.730   3.610 -0.0637  0.3081  0.5277
 9046TIP3    H127102   4.604   2.813   3.630 -0.5215  0.1015  0.4435
 9046TIP3    H227103   4.633   2.677   3.689  0.1242  0.2786  0.5378
 9047TIP3   OH227104   0.922   4.644   2.995 -0.2540  0.5304  0.3238
 9047TIP3    H127105   0.937   4.726   2.948 -0.6466  0.3718 -0.0838
 9047TIP3    H227106   0.983   4.647   3.068  0.8088  0.5197 -0.5331
 9048TIP3   OH227107   3.663   1.135   0.651 -0.7000  0.1466  0.2529
 9048TIP3    H127108   3.668   1.045   0.617 -1.2183  0.2799 -0.1890
 9048TIP3    H227109   3.609   1.181   0.587 -1.3828  0.4967  1.0701
 9049TIP3   OH227110   2.756   2.351   5.194 -0.2596  0.3836 -0.4351
 9049TIP3    H127111   2.851   2.350   5.182 -0.1722 -0.4326  0.2365
 9049TIP3    H227112   2.722   2.390   5.114  0.7599  2.7822  0.2200
 9050TIP3   OH227113   3.712   1.560   0.456 -0.1062  0.2240  0.4501
 9050TIP3    H127114   3.690   1.506   0.533 -3.2960  0.5982 -0.0824
 9050TIP3    H227115   3.790   1.518   0.420  0.4014 -1.0799  2.7977
 9051TIP3   OH227116   3.578   2.279   1.989 -0.2461  0.0782 -0.4122
 9051TIP3    H127117   3.544   2.298   2.076  0.3042  2.0202 -0.5623
 9051TIP3    H227118   3.645   2.212   2.003  0.2509  0.7845  0.7639
 9052TIP3   OH227119   2.048   0.333   1.929  0.1704  0.0426  0.0633
 9052TIP3    H127120   1.955   0.345   1.945 -1.0063 -1.8138 -3.9912
 9052TIP3    H227121   2.077   0.419   1.896 -1.0434 -0.1841 -1.7739
 9053TIP3   OH227122   6.837   5.303   4.467 -0.6580 -0.2669 -0.1498
 9053TIP3    H127123   6.841   5.223   4.414 -0.7692  0.4532 -1.2823
 9053TIP3    H227124   6.744   5.326   4.468 -1.0167 -1.4854  2.2841
 9054TIP3   OH227125   2.949   3.422   2.941 -0.7700 -0.2666  0.1613
 9054TIP3    H127126   2.885   3.354   2.964 -0.4642 -1.1569 -1.5063
 9054TIP3    H227127   3.026   3.401   2.994 -0.9219 -0.8180  0.1721
 9055TIP3   OH227128   3.236   2.959   5.384 -0.0106  0.2319 -0.2600
 9055TIP3    H127129   3.157   2.910   5.363  0.8574 -0.7860 -1.3147
 9055TIP3    H227130   3.227   2.979   5.477 -1.0996 -0.6350 -0.1522
 9056TIP3   OH227131   0.363   1.421   2.084 -0.5068  0.1791  0.2340
 9056TIP3    H127132   0.408   1.502   2.063 -0.7250  0.7677  1.8467
 9056TIP3    H227133   0.307   1.404   2.008 -2.3789  2.9536  0.8025
 9057TIP3   OH227134   0.889   5.228   1.518  0.5604  0.0196 -0.1528
 9057TIP3    H127135   0.904   5.319   1.542  0.0258 -0.1359  0.8410
 9057TIP3    H227136   0.876   5.230   1.424 -1.7006  1.3210  0.1095
 9058TIP3   OH227137   4.903   0.931   1.768  0.1227  0.2556  0.2141
 9058TIP3    H127138   4.951   0.867   1.715  1.7301  0.4875  1.3096
 9058TIP3    H227139   4.972   0.985   1.808 -1.0232  0.3293  2.1950
 9059TIP3   OH227140   1.239   2.496   0.494 -0.1813  0.5430 -0.1280
 9059TIP3    H127141   1.311   2.463   0.549  0.7922  1.1269 -1.0139
 9059TIP3    H227142   1.227   2.428   0.428  0.0350  0.7516 -0.3864
 9060TIP3   OH227143   1.331   3.794   0.646 -0.4514  0.3583  0.4321
 9060TIP3    H127144   1.322   3.832   0.733 -0.1321 -1.7894  1.4838
 9060TIP3    H227145   1.377   3.711   0.661 -0.5876 -0.1832 -1.7576
 9061TIP3   OH227146   5.650   4.445   2.920 -0.5142 -0.8221 -0.6464
 9061TIP3    H127147   5.708   4.490   2.981 -0.5638 -1.7356  0.0845
 9061TIP3    H227148   5.562   4.464   2.953 -0.5608 -0.9161 -0.7161
 9062TIP3   OH227149   2.143   3.484   2.834  1.0432  0.1935  0.2091
 9062TIP3    H127150   2.206   3.414   2.814 -1.5480 -2.0339 -0.7282
 9062TIP3    H227151   2.186   3.564   2.804  2.9602 -1.3603 -1.4733
 9063TIP3   OH227152   0.392   2.058   4.963  0.2660 -0.5995 -0.4107
 9063TIP3    H127153   0.360   2.030   4.877 -0.3686  0.0248 -0.3874
 9063TIP3    H227154   0.330   2.126   4.991  1.2277  0.1581 -0.0546
 9064TIP3   OH227155   4.543   5.623   4.999  0.2159 -0.2258 -0.0203
 9064TIP3    H127156   4.507   5.648   5.085 -0.5657  0.7001 -0.5889
 9064TIP3    H227157   4.577   5.705   4.963  1.4067 -0.7837 -0.2170
 9065TIP3   OH227158   3.654   0.926   3.298  0.5332 -0.1642  0.4460
 9065TIP3    H127159   3.610   0.999   3.254  1.6250  0.3869  0.2455
 9065TIP3    H227160   3.743   0.957   3.314  0.9757 -1.3981  0.4994
 9066TIP3   OH227161   2.847   0.583   1.374  0.0536  0.8906 -0.0694
 9066TIP3    H127162   2.757   0.616   1.379 -0.2605 -0.0518  0.9631
 9066TIP3    H227163   2.872   0.569   1.465  0.5684 -0.6133 -0.4048
 9067TIP3   OH227164   0.367   2.664   3.621  0.8597 -0.0124 -0.0247
 9067TIP3    H127165   0.353   2.579   3.579  0.8257 -0.0446  0.0517
 9067TIP3    H227166   0.280   2.692   3.651  0.6529  0.6518 -1.1907
 9068TIP3   OH227167   0.527   3.843   1.353 -0.4809  0.0169 -0.4471
 9068TIP3    H127168   0.561   3.765   1.309  0.2062  0.2638 -0.3589
 9068TIP3    H227169   0.583   3.914   1.322  1.8932 -0.1667  2.9326
 9069TIP3   OH227170   3.696   1.794   1.878  0.8962  0.0675 -0.0591
 9069TIP3    H127171   3.688   1.829   1.789  0.8773 -0.2154 -0.1683
 9069TIP3    H227172   3.790   1.775   1.887  0.7585 -0.7823 -0.3521
 9070TIP3   OH227173   6.633   3.924   2.187  0.0933 -0.1449 -0.0849
 9070TIP3    H127174   6.691   3.860   2.148  0.6253  0.9109 -1.0792
 9070TIP3    H227175   6.692   3.994   2.218 -0.3058 -0.8026  2.4393
 9071TIP3   OH227176   6.390   5.212   3.455 -0.8988 -0.4136 -0.3960
 9071TIP3    H127177   6.464   5.233   3.399  0.0741 -1.1767  0.5558
 9071TIP3    H227178   6.389   5.116   3.459 -2.1653 -0.4380 -0.6741
 9072TIP3   OH227179   1.221   3.947   1.409  0.3101  0.6554  0.3835
 9072TIP3    H127180   1.209   4.027   1.358  2.0479  0.7189 -0.0018
 9072TIP3    H227181   1.226   3.878   1.343 -0.2425  0.3411  0.6605
 9073TIP3   OH227182   5.538   2.331   1.010 -0.1184  0.0005  0.3252
 9073TIP3    H127183   5.500   2.418   0.999 -0.1925 -0.0744 -0.0235
 9073TIP3    H227184   5.495   2.278   0.943 -0.5871 -0.4690  0.9874
 9074TIP3   OH227185   1.845   5.855   2.388  0.2062 -0.3615  0.1809
 9074TIP3    H127186   1.935   5.887   2.375 -0.5296  1.2394 -1.5052
 9074TIP3    H227187   1.837   5.783   2.325 -0.1490  0.5728 -0.8847
 9075TIP3   OH227188   4.016   5.924   4.714  0.2473  0.0805  0.2963
 9075TIP3    H127189   3.942   5.983   4.724  0.3091  0.3292 -0.6112
 9075TIP3    H227190   4.090   5.971   4.753 -0.3709 -0.8941  2.8384
 9076TIP3   OH227191   1.779   4.370   0.551 -0.4185  0.2254 -0.4399
 9076TIP3    H127192   1.855   4.418   0.583 -0.1569  0.6461 -1.6749
 9076TIP3    H227193   1.706   4.431   0.561 -1.0085 -0.7814  2.4680
 9077TIP3   OH227194   2.108   4.215   0.790  0.3977  0.2000  0.4915
 9077TIP3    H127195   2.134   4.302   0.759 -0.6564 -0.6993 -3.6019
 9077TIP3    H227196   2.022   4.229   0.831 -0.1864  1.0402 -0.9285
 9078TIP3   OH227197   5.761   3.096   0.449 -0.2246 -0.4408  0.0009
 9078TIP3    H127198   5.810   3.045   0.513 -0.2862  0.5561  0.8661
 9078TIP3    H227199   5.817   3.096   0.371  0.8973  0.2004  0.7843
 9079TIP3   OH227200   2.258   4.880   0.316  1.1179  0.2974 -0.0217
 9079TIP3    H127201   2.235   4.842   0.232  1.0104 -0.4736  0.3458
 9079TIP3    H227202   2.280   4.971   0.297  2.5138 -0.2264 -1.1007
 9080TIP3   OH227203   0.890   4.173   1.270 -0.0931 -0.0167  0.0241
 9080TIP3    H127204   0.946   4.229   1.324  0.3069  0.5991 -1.0105
 9080TIP3    H227205   0.937   4.164   1.187 -1.6307  0.7509 -0.9811
 9081TIP3   OH227206   4.199   5.795   4.524  0.2331  0.7124  0.3673
 9081TIP3    H127207   4.229   5.732   4.589 -0.2793  0.0736  0.0006
 9081TIP3    H227208   4.117   5.829   4.560  0.6245  1.3596  0.6748
 9082TIP3   OH227209   3.053   3.908   5.237 -0.2122 -0.6606 -0.1938
 9082TIP3    H127210   3.067   4.003   5.239 -0.5509 -0.6113 -0.1516
 9082TIP3    H227211   3.138   3.872   5.212 -0.6667 -0.2114 -2.6086
 9083TIP3   OH227212   2.804   0.814   3.327  0.5640 -0.6673 -0.6569
 9083TIP3    H127213   2.725   0.866   3.337  1.1717  0.3362 -0.8954
 9083TIP3    H227214   2.795   0.743   3.390 -0.5452 -0.5987 -0.7237
 9084TIP3   OH227215   2.021   2.784   0.639 -0.3509  0.1594 -0.3641
 9084TIP3    H127216   2.114   2.761   0.636 -0.6235 -1.0291 -0.0613
 9084TIP3    H227217   1.996   2.773   0.731 -0.7879  0.5109 -0.4351
 9085TIP3   OH227218   4.585   5.212   2.581 -0.7585 -0.1812 -0.0166
 9085TIP3    H127219   4.611   5.223   2.673  0.4456  1.6236 -0.5405
 9085TIP3    H227220   4.666   5.215   2.532 -1.5509  1.3096 -1.3360
 9086TIP3   OH227221   0.921   5.211   4.087  0.2997 -0.7636 -0.4394
 9086TIP3    H127222   0.886   5.178   4.004 -1.6035  0.5600 -0.2260
 9086TIP3    H227223   1.014   5.225   4.070 -0.1325 -0.0611 -2.5297
 9087TIP3   OH227224   2.091   4.647   4.945 -0.3342  0.0708 -0.5192
 9087TIP3    H127225   2.128   4.619   4.861 -1.9312  0.2077 -1.3035
 9087TIP3    H227226   2.013   4.593   4.956 -0.3091  0.2513  0.7618
 9088TIP3   OH227227   0.792   1.148   5.362  0.3291 -0.2741 -0.1709
 9088TIP3    H127228   0.760   1.103   5.284  0.3227 -0.3585 -0.1201
 9088TIP3    H227229   0.768   1.240   5.349 -0.4209 -0.4214  0.1122
 9089TIP3   OH227230   6.608   2.369   4.274 -0.0551 -0.0911 -0.2034
 9089TIP3    H127231   6.632   2.441   4.332  1.0450  0.4419 -1.2888
 9089TIP3    H227232   6.512   2.372   4.271 -0.0873  0.4393  0.8503
 9090TIP3   OH227233   3.454   5.671   3.059  0.3787  0.4292 -0.3051
 9090TIP3    H127234   3.389   5.714   3.004  0.1314 -0.4618 -0.7193
 9090TIP3    H227235   3.437   5.706   3.147  1.1876  2.3573 -0.8475
 9091TIP3   OH227236   0.741   5.707   3.128  0.1717  0.1314 -0.4364
 9091TIP3    H127237   0.746   5.798   3.158 -1.3460  0.3543 -0.7622
 9091TIP3    H227238   0.647   5.687   3.126  0.3719 -0.9003 -1.9468
 9092TIP3   OH227239   4.664   3.807   3.961 -0.3164  0.3241 -0.2318
 9092TIP3    H127240   4.662   3.735   3.897  0.4379 -0.7600  0.9061
 9092TIP3    H227241   4.643   3.765   4.044 -2.9439  1.9881  0.0583
 9093TIP3   OH227242   6.406   0.665   2.887  0.2930  0.3266 -0.1819
 9093TIP3    H127243   6.478   0.660   2.824  0.1656 -2.9679 -0.2397
 9093TIP3    H227244   6.444   0.632   2.968 -0.5108  1.0429  0.5032
 9094TIP3   OH227245   3.584   2.660   5.569 -0.1300  0.6706 -0.6918
 9094TIP3    H127246   3.580   2.723   5.498  0.7939  0.5029 -0.9005
 9094TIP3    H227247   3.590   2.575   5.526  0.4127  0.5658 -0.4251
 9095TIP3   OH227248   7.231   3.996   0.221  0.4740 -0.1984  0.6543
 9095TIP3    H127249   7.201   3.976   0.310 -0.3234 -1.1201  0.2096
 9095TIP3    H227250   7.189   4.079   0.199 -0.3523 -0.5819  0.7082
 9096TIP3   OH227251   5.533   1.358   0.485 -0.2919  0.0670  0.1297
 9096TIP3    H127252   5.627   1.372   0.482 -0.1475 -0.1375  2.4960
 9096TIP3    H227253   5.498   1.439   0.522 -0.8024 -0.6564  1.2771
 9097TIP3   OH227254   0.041   2.177   4.053  0.3634  0.1728  0.5035
 9097TIP3    H127255   0.018   2.110   4.117 -3.9249 -0.2658 -1.1916
 9097TIP3    H227256  -0.027   2.243   4.061  1.1325  1.3652 -1.8921
 9098TIP3   OH227257   4.971   0.234   2.212  0.3571 -0.2646  0.2496
 9098TIP3    H127258   4.898   0.172   2.216 -0.6975  0.9286  0.1266
 9098TIP3    H227259   4.930   0.320   2.215  1.9057  0.5102  3.4139
 9099TIP3   OH227260   6.861   6.279   3.976 -0.4316 -0.1253 -0.0674
 9099TIP3    H127261   6.936   6.324   4.015  1.7670 -2.3374 -1.4084
 9099TIP3    H227262   6.841   6.330   3.897 -0.2057  0.3863  0.2037
 9100TIP3   OH227263   6.231   0.357   1.995  0.3817  0.3529  0.3935
 9100TIP3    H127264   6.210   0.446   2.022 -0.4111  0.5718 -0.8925
 9100TIP3    H227265   6.170   0.337   1.925  0.6199 -1.1771  0.5712
 9101TIP3   OH227266   6.307   3.692   2.546  0.2025  0.3755 -0.2709
 9101TIP3    H127267   6.220   3.671   2.580  0.4149  1.0175  0.6930
 9101TIP3    H227268   6.304   3.664   2.454 -0.4269 -1.2706  0.2166
 9102TIP3   OH227269   4.235   2.123   4.017  0.4963 -0.2280 -0.0550
 9102TIP3    H127270   4.164   2.186   4.006  0.4077 -0.5148 -1.2192
 9102TIP3    H227271   4.249   2.119   4.112 -1.7961 -1.0017  0.3078
 9103TIP3   OH227272   1.947   1.798   1.303  0.4844 -0.2968  0.2106
 9103TIP3    H127273   2.006   1.860   1.345 -0.5073  1.5579 -0.9459
 9103TIP3    H227274   1.998   1.762   1.231  0.2456  1.4256 -0.8950
 9104TIP3   OH227275   1.203   1.913   4.714 -0.1651  0.1243  0.6280
 9104TIP3    H127276   1.128   1.905   4.655  1.9552 -0.1995 -2.2122
 9104TIP3    H227277   1.232   1.823   4.728  0.6152  0.3307  0.3888
 9105TIP3   OH227278   3.670   1.408   4.340  0.5661 -0.0933  0.2232
 9105TIP3    H127279   3.673   1.372   4.429 -2.6186  1.6799  1.2173
 9105TIP3    H227280   3.711   1.494   4.348  0.4662 -0.0172 -0.0793
 9106TIP3   OH227281   1.574   5.345   5.261  0.3115 -0.2339 -0.1726
 9106TIP3    H127282   1.605   5.264   5.222  4.2491  0.3246  1.3007
 9106TIP3    H227283   1.615   5.414   5.209 -0.0076  0.6889  0.7575
 9107TIP3   OH227284   0.829   4.432   3.288 -0.5934 -0.4303 -0.2920
 9107TIP3    H127285   0.734   4.441   3.276 -0.8543 -2.5922 -0.0982
 9107TIP3    H227286   0.842   4.448   3.382 -0.7868 -0.3356 -0.2791
 9108TIP3   OH227287   1.685   0.385   3.991  0.1348 -0.3125 -0.5761
 9108TIP3    H127288   1.695   0.479   3.978  1.4955 -0.2910  0.4455
 9108TIP3    H227289   1.769   0.348   3.961  0.2007 -1.0372  0.4706
 9109TIP3   OH227290   3.482   4.379   0.883  0.7529  0.0870  0.5561
 9109TIP3    H127291   3.409   4.402   0.826 -0.0416  0.3910  1.6609
 9109TIP3    H227292   3.559   4.414   0.839 -0.0838  2.2276  0.6822
 9110TIP3   OH227293   4.109   4.463   1.131 -0.6763 -0.0992  0.2585
 9110TIP3    H127294   4.029   4.420   1.101 -0.7375 -1.0693  1.7354
 9110TIP3    H227295   4.180   4.415   1.087 -0.7693 -1.4104  1.4918
 9111TIP3   OH227296   4.762   1.906   1.045  0.2087  0.3705  0.2551
 9111TIP3    H127297   4.851   1.907   1.080 -0.4123  1.8190  1.9772
 9111TIP3    H227298   4.707   1.888   1.122 -1.1012  1.6856 -0.3173
 9112TIP3   OH227299   2.205   1.331   4.975 -0.5721  0.3986 -0.1089
 9112TIP3    H127300   2.269   1.400   4.995 -0.8914  1.0180 -1.1427
 9112TIP3    H227301   2.257   1.251   4.966 -0.1839  0.5129  0.9965
 9113TIP3   OH227302   5.409   3.395   0.488 -0.4091 -0.1407  0.5176
 9113TIP3    H127303   5.469   3.326   0.459  0.0450  0.5899 -0.3464
 9113TIP3    H227304   5.339   3.394   0.423 -1.1610 -0.7448  1.3201
 9114TIP3   OH227305   7.016   2.638   5.683  0.2641  0.0227 -0.1302
 9114TIP3    H127306   7.083   2.640   5.614 -1.6537  0.0290 -2.0815
 9114TIP3    H227307   6.950   2.700   5.654 -0.9611 -0.5345  1.3701
 9115TIP3   OH227308   3.499   0.730   0.232  0.1041 -0.0240 -0.6949
 9115TIP3    H127309   3.587   0.704   0.260  0.2407  0.1963 -0.9213
 9115TIP3    H227310   3.512   0.771   0.147 -0.3838 -1.1974 -1.3517
 9116TIP3   OH227311   5.686   2.988   0.074  0.1041  0.4518 -0.1463
 9116TIP3    H127312   5.634   2.924   0.025 -0.4181  0.9398 -0.2407
 9116TIP3    H227313   5.622   3.052   0.105  0.4880  0.3694  0.8389
 9117TIP3   OH227314   4.788   2.299   5.460 -0.1439  0.0771 -0.1095
 9117TIP3    H127315   4.714   2.341   5.416  0.3397  0.1681 -0.8600
 9117TIP3    H227316   4.855   2.292   5.392  0.2209 -0.8009  0.3316
 9118TIP3   OH227317  -0.006   3.558   3.009 -0.0532 -0.0962 -0.4021
 9118TIP3    H127318  -0.036   3.538   3.098 -0.9676  0.6663 -0.5299
 9118TIP3    H227319   0.070   3.614   3.021 -0.3997  0.3153 -0.0978
 9119TIP3   OH227320   3.760   1.405   5.330  0.4862 -0.3770  0.3815
 9119TIP3    H127321   3.786   1.330   5.384  1.5486  0.1957  0.6767
 9119TIP3    H227322   3.842   1.447   5.306  0.2143 -1.4916 -3.0016
 9120TIP3   OH227323   6.293   2.145   2.637 -0.4276 -0.5075 -0.8831
 9120TIP3    H127324   6.293   2.159   2.731 -0.0392 -0.8131 -0.8331
 9120TIP3    H227325   6.240   2.067   2.624 -1.0274 -0.0871 -0.9822
 9121TIP3   OH227326   6.900   4.693   5.538 -0.1212 -0.0235  0.2370
 9121TIP3    H127327   6.863   4.605   5.540 -0.1162 -0.0216  0.4172
 9121TIP3    H227328   6.876   4.728   5.452  1.7730 -1.0224 -0.7638
 9122TIP3   OH227329   2.021   2.393   5.091 -0.2824  0.2035  0.4457
 9122TIP3    H127330   1.937   2.404   5.047 -0.7220  0.5665  1.3437
 9122TIP3    H227331   2.084   2.435   5.034 -0.9283  1.2136  0.4460
 9123TIP3   OH227332   3.652   4.162   0.537 -0.1704  0.1522  0.3315
 9123TIP3    H127333   3.673   4.226   0.605 -0.8428  2.1629 -1.2544
 9123TIP3    H227334   3.558   4.169   0.525 -0.3344 -1.4906  0.4108
 9124TIP3   OH227335   6.236   2.120   0.424  0.1870 -0.0320 -0.1776
 9124TIP3    H127336   6.233   2.125   0.520  2.9576 -0.7105  0.0339
 9124TIP3    H227337   6.226   2.026   0.405 -2.9540  0.3115 -0.8309
 9125TIP3   OH227338   0.748   4.333   4.234  0.9094  0.0788 -0.1953
 9125TIP3    H127339   0.723   4.276   4.161 -0.8336  0.9773 -0.3525
 9125TIP3    H227340   0.840   4.352   4.219  1.4599 -2.3589 -0.3484
 9126TIP3   OH227341   1.692   2.735   1.418 -0.2617  0.2347 -0.2344
 9126TIP3    H127342   1.618   2.766   1.366 -0.7648 -0.3400  0.1177
 9126TIP3    H227343   1.691   2.640   1.407  1.0960  0.2871 -1.0985
 9127TIP3   OH227344   3.122   5.939   4.153 -0.1655 -0.5517 -0.1722
 9127TIP3    H127345   3.117   5.878   4.079 -0.8510  0.9225 -1.3868
 9127TIP3    H227346   3.212   5.972   4.151  0.5119 -2.1765  1.0883
 9128TIP3   OH227347   5.017   6.140   5.042 -0.2233 -0.2627 -0.3912
 9128TIP3    H127348   4.927   6.172   5.053 -0.1882 -0.6383  1.2353
 9128TIP3    H227349   5.037   6.097   5.125  1.9261  0.9393 -0.2151
 9129TIP3   OH227350   4.767   3.742   3.468  0.2499  0.2719  0.5298
 9129TIP3    H127351   4.789   3.705   3.382 -0.0619 -1.0588  1.0055
 9129TIP3    H227352   4.840   3.717   3.524 -0.3333 -0.3096  1.0430
 9130TIP3   OH227353   1.836   6.157   5.379  0.1065  0.0768  0.0941
 9130TIP3    H127354   1.872   6.163   5.290  0.1379 -3.3111 -0.2469
 9130TIP3    H227355   1.910   6.129   5.433  0.4791  3.4875  1.6433
 9131TIP3   OH227356   0.710   1.001   5.604  0.1229 -0.0273 -0.3004
 9131TIP3    H127357   0.751   1.066   5.547  0.2624 -0.3030 -0.5162
 9131TIP3    H227358   0.656   1.053   5.664  0.5820  0.3263 -0.1807
 9132TIP3   OH227359   5.108   3.471   3.666 -0.3631 -0.3296 -0.4028
 9132TIP3    H127360   5.200   3.482   3.689 -0.2881  0.1416 -0.9095
 9132TIP3    H227361   5.103   3.385   3.626 -0.0278 -0.1058 -0.9306
 9133TIP3   OH227362   6.774   2.546   0.594  1.1799  0.0742  0.4623
 9133TIP3    H127363   6.797   2.620   0.650  0.7979  0.7168 -0.2097
 9133TIP3    H227364   6.739   2.480   0.655  1.4306  0.4831  1.0570
 9134TIP3   OH227365   1.454   1.591   3.122  0.3347 -0.2198  0.7867
 9134TIP3    H127366   1.538   1.547   3.110 -0.1932 -1.3763  1.2845
 9134TIP3    H227367   1.469   1.680   3.088  1.5329 -0.6369  0.1798
 9135TIP3   OH227368   6.655   3.607   2.234 -0.2055 -0.4249 -0.5045
 9135TIP3    H127369   6.617   3.545   2.297  0.3480 -0.1259  0.1268
 9135TIP3    H227370   6.589   3.614   2.165 -0.6112 -1.1228 -0.1962
 9136TIP3   OH227371   6.526   0.943   4.290  0.1144 -0.3696 -0.2756
 9136TIP3    H127372   6.543   0.923   4.382  0.2860  3.1076  0.5863
 9136TIP3    H227373   6.431   0.947   4.283  0.1032 -0.5790 -0.2456
 9137TIP3   OH227374   6.496   3.259   4.731  0.1794  0.1427  0.1969
 9137TIP3    H127375   6.439   3.325   4.772  0.7506 -0.1839  1.5841
 9137TIP3    H227376   6.554   3.231   4.801  1.8143  0.1873 -1.0861
 9138TIP3   OH227377   1.536   4.716   2.261  0.6443 -0.4796  0.0775
 9138TIP3    H127378   1.604   4.657   2.228  1.5372  0.9412 -0.7322
 9138TIP3    H227379   1.583   4.794   2.291 -0.5519  0.1590  0.3860
 9139TIP3   OH227380   3.243   1.647   0.355 -0.1275 -0.0759  0.7022
 9139TIP3    H127381   3.228   1.643   0.449 -2.6660 -1.8966  0.3259
 9139TIP3    H227382   3.337   1.633   0.345  0.0380 -0.9271  2.9243
 9140TIP3   OH227383   5.879   4.814   5.173  0.1352  0.1196  0.0009
 9140TIP3    H127384   5.965   4.853   5.161 -0.1195 -0.0404 -3.4777
 9140TIP3    H227385   5.820   4.888   5.186  0.4947  0.4191 -0.0686
 9141TIP3   OH227386   1.611   5.831   1.513  0.4030  0.3350 -0.1344
 9141TIP3    H127387   1.697   5.796   1.535 -0.1266 -0.2151  1.1135
 9141TIP3    H227388   1.592   5.796   1.426 -1.2632 -4.9419  1.9651
 9142TIP3   OH227389   6.507   3.483   4.896 -0.3125 -0.4641  0.7534
 9142TIP3    H127390   6.474   3.542   4.829 -0.8406 -2.1437 -0.5419
 9142TIP3    H227391   6.459   3.506   4.975 -0.3487  0.9416  0.3355
 9143TIP3   OH227392   5.490   5.131   0.150  0.3815 -0.4110  0.6181
 9143TIP3    H127393   5.424   5.078   0.104  2.0043 -0.5335 -1.7630
 9143TIP3    H227394   5.473   5.116   0.243 -3.6011  0.4294  0.1868
 9144TIP3   OH227395   6.808   2.772   0.189 -0.1665 -0.3133  0.5140
 9144TIP3    H127396   6.873   2.775   0.119  1.8493 -0.7836  2.2761
 9144TIP3    H227397   6.762   2.856   0.182  1.0127  0.2879 -0.4368
 9145TIP3   OH227398   1.184   5.711   0.761  0.1692  1.0103 -0.3853
 9145TIP3    H127399   1.169   5.643   0.827 -0.2484  0.5296 -0.9677
 9145TIP3    H227400   1.131   5.683   0.686  0.2120  1.8378 -0.7267
 9146TIP3   OH227401   0.112   2.346   5.495  0.2565 -0.0165  0.6448
 9146TIP3    H127402   0.102   2.279   5.427  0.3511  1.7417 -1.2161
 9146TIP3    H227403   0.204   2.343   5.518  0.4896  0.1510 -0.2161
 9147TIP3   OH227404   3.352   4.599   5.518 -0.4751  0.4627 -0.3198
 9147TIP3    H127405   3.384   4.531   5.459  0.0735  1.3721 -1.0974
 9147TIP3    H227406   3.257   4.591   5.514 -0.4289 -1.4353  1.0263
 9148TIP3   OH227407  -0.027   3.005   4.006  0.0282 -0.6116  0.0962
 9148TIP3    H127408   0.055   2.991   3.958  0.0668 -0.8046  0.2171
 9148TIP3    H227409  -0.018   2.953   4.086  0.7859  1.2246  1.2889
 9149TIP3   OH227410   4.250   5.401   2.051 -0.3394 -0.0812  0.2695
 9149TIP3    H127411   4.166   5.394   2.098 -1.1064  0.0776 -1.0178
 9149TIP3    H227412   4.245   5.486   2.007  0.6323  0.0541  0.4117
 9150TIP3   OH227413   1.899   1.690   3.106  0.2200  0.1652  0.3402
 9150TIP3    H127414   1.915   1.666   3.015 -4.0760 -0.2852 -0.5373
 9150TIP3    H227415   1.922   1.613   3.156  0.3108 -0.4916 -0.6843
 9151TIP3   OH227416   0.727   5.369   3.707 -0.5191 -0.1443 -0.3112
 9151TIP3    H127417   0.718   5.282   3.746 -1.6542 -0.4969 -1.3029
 9151TIP3    H227418   0.791   5.413   3.762 -1.6649 -0.7869  1.6290
 9152TIP3   OH227419   5.048   5.798   1.337  0.3137  0.2832  0.3892
 9152TIP3    H127420   5.064   5.818   1.244  1.0325  0.9628  0.6431
 9152TIP3    H227421   4.953   5.804   1.347  0.2231  0.1253 -0.3223
 9153TIP3   OH227422   2.049   6.001   5.825 -0.1232  0.1329 -0.1388
 9153TIP3    H127423   1.959   5.978   5.848 -0.5005  2.9122  1.5435
 9153TIP3    H227424   2.043   6.089   5.788  1.9325  0.5232  0.3437
 9154TIP3   OH227425   3.540   0.533   2.022  0.2217 -0.4455 -0.0209
 9154TIP3    H127426   3.447   0.511   2.026  0.3660 -2.0511 -2.7058
 9154TIP3    H227427   3.546   0.593   1.947  1.3742 -0.4944  0.0288
 9155TIP3   OH227428   0.972   1.261   5.688  0.1494  0.1834 -0.7857
 9155TIP3    H127429   1.017   1.319   5.750  1.1333 -1.7353  0.4006
 9155TIP3    H227430   1.014   1.279   5.604  0.4339  1.1893 -0.4420
 9156TIP3   OH227431   3.305   6.353   3.770  0.3171 -0.4743 -0.0907
 9156TIP3    H127432   3.311   6.429   3.712 -2.1815  0.3819  0.6734
 9156TIP3    H227433   3.243   6.294   3.727 -0.4464 -0.4834  0.9861
 9157TIP3   OH227434   6.716   1.908   1.779 -0.5900 -0.0300  0.3007
 9157TIP3    H127435   6.786   1.964   1.746  0.6935 -0.6343  1.8928
 9157TIP3    H227436   6.660   1.894   1.703  0.7637  0.8254 -0.9149
 9158TIP3   OH227437   4.589   4.787   1.427 -0.4040 -0.0447 -0.5360
 9158TIP3    H127438   4.679   4.819   1.438 -0.3002 -0.6362  0.3926
 9158TIP3    H227439   4.541   4.863   1.394  0.2406  0.5401 -0.1666
 9159TIP3   OH227440   3.260   4.745   0.522  0.1124  0.7015 -0.4605
 9159TIP3    H127441   3.262   4.838   0.542  1.0549  0.2696  1.7775
 9159TIP3    H227442   3.314   4.736   0.443  0.8302  1.9224 -0.1323
 9160TIP3   OH227443   2.925   2.597   3.887  0.4408 -0.1604 -0.0487
 9160TIP3    H127444   3.000   2.631   3.937  2.0301 -1.0276 -1.7473
 9160TIP3    H227445   2.963   2.564   3.806 -1.4729 -2.7279 -0.0310
 9161TIP3   OH227446   0.972   0.417   4.775 -0.3185  0.1033 -0.0089
 9161TIP3    H127447   1.012   0.463   4.701  1.0883  0.5046  0.9592
 9161TIP3    H227448   1.045   0.371   4.816 -0.9470  0.4357  1.5310
 9162TIP3   OH227449   5.384   1.720   1.108  0.1368  0.1563  0.5663
 9162TIP3    H127450   5.376   1.682   1.196 -0.1151  0.7165  0.7885
 9162TIP3    H227451   5.465   1.771   1.112  1.8682 -2.2782 -0.4700
 9163TIP3   OH227452   6.165   5.934   5.370 -0.3427 -0.0737 -0.1060
 9163TIP3    H127453   6.189   5.894   5.453  2.2966  0.0154 -0.7316
 9163TIP3    H227454   6.155   5.860   5.309 -0.5685 -0.0458 -0.1036
 9164TIP3   OH227455   0.116   4.999   1.315  0.9822  0.1640 -0.1996
 9164TIP3    H127456   0.186   5.051   1.276  1.2176  1.2773  1.5987
 9164TIP3    H227457   0.124   5.015   1.409 -1.4438 -0.0010  0.0954
 9165TIP3   OH227458   3.287   5.830   5.116  0.1559 -0.3419  0.1770
 9165TIP3    H127459   3.381   5.812   5.116  0.1717 -0.2629  0.3105
 9165TIP3    H227460   3.255   5.790   5.197 -0.1163 -1.3217 -0.3962
 9166TIP3   OH227461   5.700   1.425   3.521 -0.1934  0.0849  0.2593
 9166TIP3    H127462   5.645   1.487   3.474  0.5095  0.5625  0.0365
 9166TIP3    H227463   5.677   1.437   3.613 -1.1721 -0.4507  0.0959
 9167TIP3   OH227464   2.020   5.753   5.324 -0.1242 -0.1584  0.8279
 9167TIP3    H127465   1.991   5.750   5.415 -2.7435  2.4657  0.2474
 9167TIP3    H227466   1.987   5.672   5.285  2.4710 -2.1318  2.4458
 9168TIP3   OH227467   4.589   1.470   2.850  0.1255  0.3615 -0.0632
 9168TIP3    H127468   4.520   1.441   2.909 -0.2258  0.0919 -0.6013
 9168TIP3    H227469   4.550   1.465   2.763  0.9563 -0.1783 -0.4097
 9169TIP3   OH227470   5.008   5.630   4.859 -0.7176  1.2905  0.4415
 9169TIP3    H127471   4.974   5.563   4.917 -1.3069  0.8240 -0.4222
 9169TIP3    H227472   4.969   5.610   4.774 -0.5851  2.4904  0.0855
 9170TIP3   OH227473   0.544   5.129   2.483 -0.2132  0.5615  0.6156
 9170TIP3    H127474   0.475   5.063   2.477 -0.4454  0.6434  1.9598
 9170TIP3    H227475   0.566   5.150   2.392 -0.2214 -1.2723  0.1492
 9171TIP3   OH227476   1.917   0.847   2.624 -0.0199  0.4886  0.4848
 9171TIP3    H127477   1.933   0.889   2.708  1.7685  1.0443 -0.1035
 9171TIP3    H227478   1.839   0.794   2.639 -1.3018  2.5851  1.7536
 9172TIP3   OH227479   4.547   1.192   0.853  0.5049 -0.1682  0.0112
 9172TIP3    H127480   4.486   1.126   0.821  1.2051 -0.4885 -0.6837
 9172TIP3    H227481   4.631   1.146   0.861  0.5528  0.1153  1.5010
 9173TIP3   OH227482   3.180   3.273   5.493  0.3796  0.6908 -0.1621
 9173TIP3    H127483   3.213   3.213   5.560  1.0040 -0.3401 -1.3449
 9173TIP3    H227484   3.094   3.298   5.524 -0.1199 -1.2282  0.1619
 9174TIP3   OH227485   6.288   0.572   1.113 -0.7859 -0.4467  0.2380
 9174TIP3    H127486   6.321   0.540   1.029  1.1727  0.0294  0.7524
 9174TIP3    H227487   6.193   0.575   1.103 -0.6364 -1.0038 -1.7295
 9175TIP3   OH227488   0.791   3.787   2.159  0.6327 -0.3270 -0.7317
 9175TIP3    H127489   0.738   3.849   2.208  1.1826 -0.4821  0.0779
 9175TIP3    H227490   0.874   3.831   2.145  0.3702 -0.1556 -1.8384
 9176TIP3   OH227491   5.212   1.513   0.158 -0.2845  0.4948  0.6816
 9176TIP3    H127492   5.186   1.482   0.244 -3.3719  0.9332  0.0170
 9176TIP3    H227493   5.257   1.596   0.175  0.9498 -0.3642  1.9150
 9177TIP3   OH227494   5.061   5.126   1.235 -0.6149 -0.0285 -0.2484
 9177TIP3    H127495   5.131   5.087   1.287  1.5242  1.0005 -2.1496
 9177TIP3    H227496   5.055   5.216   1.267 -0.1357  0.2544 -0.9211
 9178TIP3   OH227497   2.229   6.556   0.463 -0.1782 -0.2337  0.0336
 9178TIP3    H127498   2.288   6.480   0.459  2.0905  1.3253  1.6878
 9178TIP3    H227499   2.149   6.521   0.502  0.8524 -1.8158  0.8719
 9179TIP3   OH227500   0.199   4.963   3.297 -0.2107  0.4496  0.1528
 9179TIP3    H127501   0.244   4.995   3.219 -2.2083  2.7784 -0.1920
 9179TIP3    H227502   0.135   4.900   3.263  1.7870 -1.9248  0.5101
 9180TIP3   OH227503   2.344   6.599   3.429 -0.4567  0.4799 -0.1100
 9180TIP3    H127504   2.346   6.503   3.427 -1.0436  0.4688 -0.9226
 9180TIP3    H227505   2.417   6.626   3.374  0.7027  0.5441  1.3787
 9181TIP3   OH227506   4.174   1.600   0.903  0.5715  0.3852  0.5881
 9181TIP3    H127507   4.101   1.540   0.913  1.7093 -1.2802 -0.5580
 9181TIP3    H227508   4.232   1.557   0.840  1.4604  2.6785 -0.2782
 9182TIP3   OH227509   0.442   4.490   0.257  0.0180  0.4708 -0.2537
 9182TIP3    H127510   0.535   4.510   0.250  0.3274 -0.6124  0.5295
 9182TIP3    H227511   0.415   4.527   0.341 -0.3858  1.2081 -0.6959
 9183TIP3   OH227512   6.119   4.581   4.651 -0.1681  0.3605  0.4236
 9183TIP3    H127513   6.040   4.606   4.698 -1.3444 -2.9456  0.4059
 9183TIP3    H227514   6.088   4.552   4.565  1.4468  1.7674 -0.7194
 9184TIP3   OH227515   1.475   4.853   0.602 -0.0259  0.3079 -0.1997
 9184TIP3    H127516   1.397   4.801   0.586  0.2427 -0.2604  0.2725
 9184TIP3    H227517   1.492   4.898   0.519 -0.9397  0.5710 -0.2570
 9185TIP3   OH227518   2.948   5.192   3.467 -0.6780 -0.4664 -0.3741
 9185TIP3    H127519   3.015   5.130   3.440 -0.0606 -0.1695  0.4284
 9185TIP3    H227520   2.953   5.193   3.563 -2.6070 -1.2850 -0.2224
 9186TIP3   OH227521   2.250   0.600   4.743 -0.6271  0.0812  0.9343
 9186TIP3    H127522   2.253   0.506   4.757 -0.6336 -0.5893 -2.5630
 9186TIP3    H227523   2.157   0.619   4.728 -0.2601 -0.4526 -3.2967
 9187TIP3   OH227524   5.935   4.838   1.529  0.0881 -0.0288  0.2253
 9187TIP3    H127525   6.005   4.801   1.583  1.3213  0.5112 -0.9473
 9187TIP3    H227526   5.934   4.931   1.551  1.3010  0.4003 -1.3621
 9188TIP3   OH227527   3.033   2.178   1.149  0.5397  0.4168  0.4274
 9188TIP3    H127528   2.937   2.182   1.155  0.5530  0.7981  0.4031
 9188TIP3    H227529   3.062   2.268   1.166  1.0057 -0.0667  2.4035
 9189TIP3   OH227530   4.435   5.483   1.529 -0.1529 -0.0600  0.1253
 9189TIP3    H127531   4.411   5.570   1.562 -1.6545 -0.7136  0.8977
 9189TIP3    H227532   4.364   5.460   1.469  0.0795 -0.8604  0.1404
 9190TIP3   OH227533   2.139   2.451   1.976  0.2702  0.3300  0.9089
 9190TIP3    H127534   2.052   2.490   1.982 -0.4601 -0.1245 -3.4374
 9190TIP3    H227535   2.127   2.360   2.003 -0.9425 -0.0170 -0.6611
 9191TIP3   OH227536   4.869   0.738   4.446  0.2440  0.2421 -0.3854
 9191TIP3    H127537   4.775   0.737   4.426  0.6303 -0.5704 -2.4727
 9191TIP3    H227538   4.899   0.824   4.417  0.2692  0.1921 -0.5116
 9192TIP3   OH227539   1.818   1.331   5.782 -0.0881 -0.3410 -0.7008
 9192TIP3    H127540   1.887   1.385   5.743  0.4590 -1.1762 -0.9212
 9192TIP3    H227541   1.863   1.279   5.849 -0.6853 -0.2280 -0.1985
 9193TIP3   OH227542   3.959   2.610   5.196 -0.4412 -0.3607 -0.0303
 9193TIP3    H127543   3.870   2.635   5.220 -0.1139  1.3899 -0.4685
 9193TIP3    H227544   4.004   2.693   5.183  1.0579 -1.2188 -0.5787
 9194TIP3   OH227545   3.611   4.235   4.539 -0.1797 -0.3833 -0.0753
 9194TIP3    H127546   3.653   4.319   4.519 -0.5026  0.3226  1.9903
 9194TIP3    H227547   3.525   4.241   4.496 -1.2678  1.5085  2.1285
 9195TIP3   OH227548   1.088   2.604   0.045 -0.0110 -0.2833 -0.6126
 9195TIP3    H127549   1.134   2.607  -0.039  1.1469 -0.0854  0.0058
 9195TIP3    H227550   1.142   2.658   0.104 -2.7434  2.7711 -0.6558
 9196TIP3   OH227551   1.754   2.030   3.606  0.0636 -0.4953  0.2943
 9196TIP3    H127552   1.802   2.108   3.632 -0.8204  0.2423 -0.2241
 9196TIP3    H227553   1.671   2.034   3.654 -0.2729 -0.7488 -0.2481
 9197TIP3   OH227554   5.099   0.242   1.886  0.0806 -0.0583 -0.2797
 9197TIP3    H127555   5.108   0.155   1.925 -1.6668 -0.0087  0.2979
 9197TIP3    H227556   5.135   0.232   1.797  1.8177 -0.7982  0.4586
 9198TIP3   OH227557   0.630   3.125   2.250 -0.0668 -0.1795  0.6256
 9198TIP3    H127558   0.716   3.089   2.271 -1.3916 -3.4306  1.0557
 9198TIP3    H227559   0.585   3.131   2.334 -0.8679 -0.2565  0.2089
 9199TIP3   OH227560   2.251   2.554   2.719 -0.2506  0.3787  0.2619
 9199TIP3    H127561   2.267   2.518   2.807  1.3787 -2.4061 -1.0241
 9199TIP3    H227562   2.204   2.484   2.673  1.4367  0.5340 -1.8759
 9200TIP3   OH227563   0.607   0.411   0.312  0.5208  0.4720 -0.2915
 9200TIP3    H127564   0.665   0.374   0.245 -0.0668  0.9987 -1.1024
 9200TIP3    H227565   0.660   0.478   0.355  0.7158  0.5267 -0.6136
 9201TIP3   OH227566   7.091   1.481   5.720  0.1352 -0.0489  0.3571
 9201TIP3    H127567   7.126   1.542   5.655 -1.1662 -0.0022 -0.3496
 9201TIP3    H227568   7.006   1.454   5.684  0.4923 -1.9762  0.8374
 9202TIP3   OH227569   6.272   1.388   5.572 -0.1418  0.2559  0.6537
 9202TIP3    H127570   6.201   1.336   5.535  1.5715  0.0138 -2.6136
 9202TIP3    H227571   6.330   1.325   5.613  0.7138 -0.2356 -1.2055
 9203TIP3   OH227572   7.083   5.853   1.558  0.2439  0.0349  0.0820
 9203TIP3    H127573   7.149   5.921   1.548  2.1722 -1.6987  0.3192
 9203TIP3    H227574   7.065   5.824   1.469 -1.0076  1.1893 -0.0672
 9204TIP3   OH227575   2.255   0.865   2.700 -0.4478  0.2233 -0.2224
 9204TIP3    H127576   2.211   0.816   2.630 -2.2498  0.4464  0.6871
 9204TIP3    H227577   2.307   0.931   2.654 -1.3444  0.1617 -1.3851
 9205TIP3   OH227578   6.783   6.804   2.511 -0.4598 -0.0689 -0.4525
 9205TIP3    H127579   6.863   6.790   2.561 -0.0015 -1.8705 -1.5845
 9205TIP3    H227580   6.811   6.802   2.419 -1.9775 -2.8523 -0.9799
 9206TIP3   OH227581   0.914   5.224   2.590 -0.4544 -0.6407  0.3265
 9206TIP3    H127582   0.955   5.282   2.654  0.1181 -0.9954  0.2887
 9206TIP3    H227583   0.829   5.264   2.572  0.1907  0.5574 -0.1892
 9207TIP3   OH227584   1.441   5.733   2.025  0.3665 -0.4579  0.1225
 9207TIP3    H127585   1.486   5.764   1.947  0.8697 -1.6611 -0.0879
 9207TIP3    H227586   1.365   5.685   1.992 -0.7339  0.9807  0.4607
 9208TIP3   OH227587   3.429   4.824   0.009  0.5769 -0.0478  0.2377
 9208TIP3    H127588   3.445   4.744   0.059  0.3244  0.5054  1.2283
 9208TIP3    H227589   3.501   4.883   0.034  2.4872 -0.9290 -2.6976
 9209TIP3   OH227590   4.284   1.930   2.293 -0.0165  0.0661 -0.5560
 9209TIP3    H127591   4.331   1.939   2.210 -1.0258  0.1503 -1.1379
 9209TIP3    H227592   4.229   2.008   2.298 -0.1405 -0.0565  0.0765
 9210TIP3   OH227593   3.430   1.441   4.698  0.0408 -0.4072 -0.2264
 9210TIP3    H127594   3.431   1.518   4.641  0.9523 -0.6579 -0.5783
 9210TIP3    H227595   3.373   1.465   4.771 -0.1344  0.3907 -0.6133
 9211TIP3   OH227596   5.478   3.514   3.854  0.9123 -0.1477 -0.0730
 9211TIP3    H127597   5.504   3.584   3.794 -0.9433  0.3447 -0.3528
 9211TIP3    H227598   5.437   3.448   3.799 -0.5149  0.1590  0.5644
 9212TIP3   OH227599   6.699   6.453   2.007  0.2227  0.5621 -0.1457
 9212TIP3    H127600   6.632   6.411   2.061  1.4857 -0.3024  0.8010
 9212TIP3    H227601   6.680   6.423   1.918  0.1394 -0.7378  0.2962
 9213TIP3   OH227602   0.725   2.834   1.868 -0.0739  0.4656  0.0021
 9213TIP3    H127603   0.752   2.831   1.777 -1.3278  0.7754 -0.3963
 9213TIP3    H227604   0.655   2.900   1.871 -0.1349  0.3750  1.1536
 9214TIP3   OH227605   0.227   2.150   4.371  0.2249 -0.2067 -0.7765
 9214TIP3    H127606   0.137   2.124   4.351 -0.0792  1.3157 -1.5827
 9214TIP3    H227607   0.237   2.134   4.465  0.0052 -2.8356 -1.1385
 9215TIP3   OH227608   1.645   3.732   2.464  0.3963 -0.0881  0.0225
 9215TIP3    H127609   1.669   3.805   2.408  0.7972  0.4220  0.8465
 9215TIP3    H227610   1.558   3.753   2.496 -0.1360 -0.7187 -0.9392
 9216TIP3   OH227611   3.674   2.197   5.410 -0.1095 -0.0607 -0.0097
 9216TIP3    H127612   3.597   2.200   5.466 -1.3214 -0.4517 -1.5587
 9216TIP3    H227613   3.746   2.229   5.464 -1.2904 -0.0392  1.5925
 9217TIP3   OH227614   0.613   3.936   4.127 -0.3069 -0.5154 -0.0349
 9217TIP3    H127615   0.653   3.923   4.041 -0.4413 -0.0559 -0.1687
 9217TIP3    H227616   0.657   3.872   4.184  0.8348  0.1824 -0.1028
 9218TIP3   OH227617   1.083   5.602   5.095  0.0929  0.9013 -0.3291
 9218TIP3    H127618   1.007   5.552   5.066  0.5184 -1.0433  1.5704
 9218TIP3    H227619   1.059   5.635   5.182  1.3662  0.1599  0.3520
 9219TIP3   OH227620   2.945   0.338   5.198 -0.4474  0.6659  0.0153
 9219TIP3    H127621   2.984   0.341   5.110  0.0137  0.5894  0.2125
 9219TIP3    H227622   3.006   0.388   5.253  0.3739 -0.9878  0.6907
 9220TIP3   OH227623   5.139   0.179   5.082 -0.5830  0.7039  0.0386
 9220TIP3    H127624   5.139   0.168   5.177 -1.7015  0.6951  0.0535
 9220TIP3    H227625   5.061   0.231   5.064 -0.0930  1.1716 -0.8348
 9221TIP3   OH227626   5.817   1.504   0.111 -0.2027  0.1836 -0.1267
 9221TIP3    H127627   5.729   1.465   0.108 -0.0095 -0.2271 -2.5438
 9221TIP3    H227628   5.832   1.535   0.022  1.1245  2.5603  0.8479
 9222TIP3   OH227629   0.373   3.412   0.383  0.3656 -0.3523  0.0473
 9222TIP3    H127630   0.367   3.321   0.412 -0.1791  0.0881  1.4112
 9222TIP3    H227631   0.431   3.409   0.307 -2.9459 -2.4745 -2.7391
 9223TIP3   OH227632   0.504   5.950   5.711  0.0728 -0.2542  0.3139
 9223TIP3    H127633   0.415   5.983   5.723 -0.5326 -1.7993  0.2215
 9223TIP3    H227634   0.543   5.955   5.799 -0.5388 -0.7969  0.6181
 9224TIP3   OH227635   3.024   4.464   1.763 -0.5700 -0.2085 -0.2104
 9224TIP3    H127636   2.979   4.543   1.733 -1.8626 -0.6961  0.3512
 9224TIP3    H227637   3.028   4.408   1.685  0.2700  0.3651 -0.5870
 9225TIP3   OH227638   4.141   4.991   5.746  0.0732 -0.1158 -0.0292
 9225TIP3    H127639   4.107   4.984   5.657  1.4448  0.4282 -0.6328
 9225TIP3    H227640   4.073   4.953   5.801 -0.9864 -0.0833 -1.2671
 9226TIP3   OH227641   1.693   5.310   2.805  0.2791 -0.4473 -0.3850
 9226TIP3    H127642   1.772   5.256   2.813  0.7391  0.4443  2.1823
 9226TIP3    H227643   1.621   5.252   2.830  0.4815 -0.5174  0.0428
 9227TIP3   OH227644   0.988   5.061   2.277 -0.0114  0.1324 -0.2495
 9227TIP3    H127645   0.935   5.039   2.354  0.1672  0.1312 -0.1260
 9227TIP3    H227646   1.069   5.098   2.314 -0.0857  0.4892 -0.4422
 9228TIP3   OH227647   6.174   6.138   1.185 -0.5010  0.1302 -0.2162
 9228TIP3    H127648   6.079   6.128   1.185 -0.3959 -1.0585 -0.1335
 9228TIP3    H227649   6.190   6.218   1.135 -1.6010  1.0761  0.8841
 9229TIP3   OH227650   1.223   6.624   3.859  0.1127  0.4081  0.1020
 9229TIP3    H127651   1.286   6.694   3.874 -1.3200  1.5811  0.9055
 9229TIP3    H227652   1.234   6.565   3.934  1.0279 -0.0122 -0.3541
 9230TIP3   OH227653   4.227   2.607   4.849 -0.0402 -0.7124 -0.7156
 9230TIP3    H127654   4.313   2.576   4.874 -0.6210 -1.7288  0.1114
 9230TIP3    H227655   4.166   2.558   4.904 -1.0941  0.9079 -0.3478
 9231TIP3   OH227656   1.318   1.202   1.466 -0.0728 -0.0091  0.4363
 9231TIP3    H127657   1.343   1.226   1.377  0.3112 -0.1170  0.5123
 9231TIP3    H227658   1.358   1.269   1.521  1.3192 -0.9924  0.6787
 9232TIP3   OH227659   3.056   5.580   0.042  0.1593 -0.3066  0.2038
 9232TIP3    H127660   3.119   5.639   0.000  0.4159 -0.3767  0.4809
 9232TIP3    H227661   3.002   5.548  -0.029 -0.7522  1.1693  0.2044
 9233TIP3   OH227662   1.249   1.337   2.102  0.1096  0.1408 -0.4584
 9233TIP3    H127663   1.340   1.366   2.097  0.1722 -0.0686 -0.5368
 9233TIP3    H227664   1.199   1.417   2.114  0.1740  0.4171 -1.8489
 9234TIP3   OH227665   1.914   3.338   4.368  0.6930  0.0208 -0.5915
 9234TIP3    H127666   1.855   3.409   4.342  0.1499 -0.6978 -1.4170
 9234TIP3    H227667   1.997   3.358   4.325 -0.3376 -1.4229 -3.5545
 9235TIP3   OH227668   4.309   2.867   2.650  0.0033  0.5267 -0.6739
 9235TIP3    H127669   4.266   2.945   2.684  2.4171  1.5665  0.1244
 9235TIP3    H227670   4.334   2.890   2.561  1.1267  0.8677 -0.2843
 9236TIP3   OH227671   0.231   1.042   4.771 -0.2739  0.1078 -0.4456
 9236TIP3    H127672   0.196   1.104   4.834 -0.5059  1.1974 -1.6201
 9236TIP3    H227673   0.317   1.018   4.806 -0.4220  0.6469  0.3080
 9237TIP3   OH227674   6.291   1.094   1.141 -0.4122  0.9076  0.0042
 9237TIP3    H127675   6.306   1.159   1.210 -1.8342  1.5440 -0.2408
 9237TIP3    H227676   6.348   1.021   1.164  1.5500  2.3660  0.0789
 9238TIP3   OH227677   1.593   5.574   4.454 -0.0597  0.1647 -0.2650
 9238TIP3    H127678   1.675   5.596   4.409 -0.0021 -0.4646 -0.4740
 9238TIP3    H227679   1.609   5.600   4.545 -0.0013  0.9883 -0.4991
 9239TIP3   OH227680   6.423   1.666   1.860  0.1061 -0.0891 -0.2626
 9239TIP3    H127681   6.408   1.654   1.767 -0.3637  0.9789 -0.3440
 9239TIP3    H227682   6.511   1.631   1.875  0.6628  0.7661 -1.3450
 9240TIP3   OH227683   4.141   3.109   5.006 -0.3830  0.1354  0.1061
 9240TIP3    H127684   4.158   3.027   5.052  1.8736  2.3349  3.7098
 9240TIP3    H227685   4.224   3.130   4.964 -0.2227  1.4797  1.0161
 9241TIP3   OH227686   3.849   3.165   0.989  0.4238  0.0396  0.7518
 9241TIP3    H127687   3.904   3.233   1.028  1.7052 -1.1182  1.0229
 9241TIP3    H227688   3.836   3.194   0.899  1.2219  0.4895  0.7700
 9242TIP3   OH227689   0.508   2.765   2.409 -0.6354 -0.3477 -0.1275
 9242TIP3    H127690   0.553   2.849   2.417  1.0346 -1.1514 -0.6423
 9242TIP3    H227691   0.423   2.779   2.452  0.0297  1.2699  0.7537
 9243TIP3   OH227692   2.586   2.718   3.501 -0.3449  0.1583 -0.6884
 9243TIP3    H127693   2.512   2.779   3.500 -0.1618  0.3918 -0.3249
 9243TIP3    H227694   2.597   2.696   3.594 -1.3651 -1.6095 -0.9349
 9244TIP3   OH227695   5.156   0.188   2.998  0.2974  0.0851 -0.5582
 9244TIP3    H127696   5.065   0.187   3.025  0.2510 -0.5391 -0.7195
 9244TIP3    H227697   5.205   0.210   3.077  0.0042  0.5226 -0.4972
 9245TIP3   OH227698   1.749   5.002   0.984 -0.2490 -0.1747 -0.4471
 9245TIP3    H127699   1.684   4.991   0.914  1.1151 -0.9390 -1.6465
 9245TIP3    H227700   1.697   5.001   1.064 -1.8451  0.5004 -1.4148
 9246TIP3   OH227701   3.441   6.174   2.143 -0.6723 -0.2990  0.1665
 9246TIP3    H127702   3.475   6.159   2.055  0.9080  2.6560  0.1715
 9246TIP3    H227703   3.434   6.086   2.181  1.0963 -1.4702 -1.9984
 9247TIP3   OH227704   3.254   0.569   1.893 -0.3680 -0.2190 -0.9603
 9247TIP3    H127705   3.217   0.637   1.837 -0.5182 -0.3098 -0.9726
 9247TIP3    H227706   3.264   0.494   1.835 -0.0240 -0.1489 -0.9925
 9248TIP3   OH227707   1.369   3.158   5.569 -0.5909  0.3580  0.0462
 9248TIP3    H127708   1.464   3.164   5.559 -0.3629 -0.6091  1.3877
 9248TIP3    H227709   1.349   3.213   5.644 -0.9436 -0.3046  0.4464
 9249TIP3   OH227710   1.922   3.224   4.737 -0.2881 -0.3260  0.8811
 9249TIP3    H127711   1.941   3.303   4.686  0.0942  0.4553  2.1878
 9249TIP3    H227712   1.834   3.198   4.709 -0.6366  0.8705  0.8105
 9250TIP3   OH227713   6.279   0.926   0.898  0.0778 -0.2185  0.4969
 9250TIP3    H127714   6.263   0.847   0.949 -0.0920  0.0387  0.8390
 9250TIP3    H227715   6.295   0.994   0.963 -0.0600  0.0905  0.2076
 9251TIP3   OH227716   5.653   0.578   2.930 -0.0597 -0.0951  0.0211
 9251TIP3    H127717   5.600   0.652   2.900  1.3208  1.0421  0.2907
 9251TIP3    H227718   5.650   0.515   2.858  0.0220  0.8925 -0.8613
 9252TIP3   OH227719   1.978   4.902   4.722 -0.0785 -0.2888 -0.0279
 9252TIP3    H127720   2.038   4.965   4.683  0.3476 -0.9571 -0.4632
 9252TIP3    H227721   2.031   4.854   4.786 -0.1792 -0.7765 -0.3040
 9253TIP3   OH227722   6.861   2.832   5.543  0.0151 -0.1001  0.3797
 9253TIP3    H127723   6.905   2.904   5.498 -1.4213 -0.1904 -1.3093
 9253TIP3    H227724   6.825   2.872   5.622 -2.1694  1.5826 -1.3076
 9254TIP3   OH227725   4.008   0.747   5.592  0.3198 -0.3834 -0.2602
 9254TIP3    H127726   3.964   0.663   5.606  0.8518 -0.8312 -1.1814
 9254TIP3    H227727   3.949   0.811   5.632 -0.2183 -1.1600  0.2377
 9255TIP3   OH227728   1.141   2.372   3.006 -0.4273 -0.7265  0.4119
 9255TIP3    H127729   1.231   2.346   3.024 -0.0560 -2.3050 -2.9537
 9255TIP3    H227730   1.150   2.446   2.946 -1.3619 -1.0047 -0.0804
 9256TIP3   OH227731   1.856   2.992   0.603 -0.0145  0.5316  0.1165
 9256TIP3    H127732   1.926   2.927   0.611 -1.0810 -0.6817 -0.0534
 9256TIP3    H227733   1.787   2.947   0.555 -1.9063  0.8309  2.3615
 9257TIP3   OH227734   5.800   6.229   5.278 -0.1567 -0.1455 -0.2828
 9257TIP3    H127735   5.891   6.216   5.305 -0.3239 -1.5223 -0.3018
 9257TIP3    H227736   5.788   6.167   5.205 -0.5339  1.4541 -1.6471
 9258TIP3   OH227737   3.875   2.790   3.366  0.4326  0.5406 -0.7688
 9258TIP3    H127738   3.843   2.725   3.304 -0.5616 -0.6232  0.8760
 9258TIP3    H227739   3.965   2.764   3.385  0.7541  0.9223 -1.6944
 9259TIP3   OH227740   5.588   6.255   5.706  0.5147 -0.1546 -0.4791
 9259TIP3    H127741   5.670   6.264   5.754  0.4994 -0.3097 -0.4227
 9259TIP3    H227742   5.613   6.210   5.625  0.3998 -0.6965 -0.2176
 9260TIP3   OH227743   4.763   6.082   0.403 -0.0012  0.1175 -0.0182
 9260TIP3    H127744   4.827   6.117   0.341  0.5736  1.7787  1.4254
 9260TIP3    H227745   4.814   6.030   0.465  0.0419  1.5463  1.2097
 9261TIP3   OH227746   5.590   5.062   3.057 -0.2790 -0.0250  0.5455
 9261TIP3    H127747   5.537   5.138   3.081 -0.1902 -0.0622  0.8612
 9261TIP3    H227748   5.667   5.067   3.114  0.8210  0.8747 -0.9220
 9262TIP3   OH227749   6.366   2.591   5.760 -0.2318  0.8429 -0.3407
 9262TIP3    H127750   6.393   2.595   5.851 -1.3861  0.6622  0.0312
 9262TIP3    H227751   6.390   2.503   5.731  0.3819  0.9945 -0.3023
 9263TIP3   OH227752   2.083   6.100   3.555 -0.4893  0.0846 -0.2761
 9263TIP3    H127753   2.136   6.166   3.511  0.7033 -0.4649  0.3065
 9263TIP3    H227754   2.144   6.053   3.611 -1.6540 -0.3793  0.6431
 9264TIP3   OH227755   5.051   1.392   4.914  0.2351 -0.4240 -0.1572
 9264TIP3    H127756   4.960   1.368   4.935  0.5403 -0.6794  0.8851
 9264TIP3    H227757   5.090   1.416   4.998  0.6735  1.3014 -0.8184
 9265TIP3   OH227758   5.836   5.392   4.429 -0.2049  0.2905  0.0233
 9265TIP3    H127759   5.902   5.347   4.482  0.6373 -0.2144 -1.4068
 9265TIP3    H227760   5.761   5.333   4.429  0.8422 -1.1556 -1.7279
 9266TIP3   OH227761   0.141   3.024   2.266 -0.0429  0.4720 -0.2365
 9266TIP3    H127762   0.197   3.099   2.245  0.1367  0.1324 -1.0263
 9266TIP3    H227763   0.059   3.043   2.220  0.3803 -0.3228 -1.3501
 9267TIP3   OH227764   1.520   2.860   5.182 -0.3404 -0.5311  0.0631
 9267TIP3    H127765   1.530   2.857   5.087  3.1001 -0.8969  0.3426
 9267TIP3    H227766   1.575   2.933   5.210  1.1926 -2.3047  1.9747
 9268TIP3   OH227767   5.940   0.358   1.408 -0.0027 -0.5956  0.0231
 9268TIP3    H127768   6.010   0.311   1.363  0.4888  0.5350 -0.4397
 9268TIP3    H227769   5.869   0.294   1.416 -0.3851 -0.6976 -2.9611
 9269TIP3   OH227770   4.217   2.537   1.679  0.1857  0.1588 -0.0602
 9269TIP3    H127771   4.184   2.620   1.714  0.5006 -0.4049  1.6747
 9269TIP3    H227772   4.187   2.471   1.741 -0.9266 -1.2202 -1.9368
 9270TIP3   OH227773   1.905   4.653   2.782 -0.3871  0.1641  0.1350
 9270TIP3    H127774   1.925   4.747   2.773 -0.0690  0.0860  0.0081
 9270TIP3    H227775   1.991   4.612   2.789 -0.5442  0.0003  1.3191
 9271TIP3   OH227776   4.972   5.372   1.870 -0.1247 -0.6628  0.1497
 9271TIP3    H127777   4.964   5.404   1.960 -0.1490 -1.1767  0.3392
 9271TIP3    H227778   4.881   5.367   1.839 -0.0422  0.7572 -0.3664
 9272TIP3   OH227779   2.922   3.417   1.227 -0.0321 -0.5458  0.0317
 9272TIP3    H127780   2.980   3.492   1.211 -1.6978  0.6129 -0.9240
 9272TIP3    H227781   2.906   3.381   1.139  0.0678 -1.5107  0.3975
 9273TIP3   OH227782   4.808   0.623   4.094  0.4755 -0.4566  0.1500
 9273TIP3    H127783   4.718   0.654   4.107  0.9276  0.2117  1.9269
 9273TIP3    H227784   4.818   0.553   4.158  0.7602 -1.5858 -1.0975
 9274TIP3   OH227785   0.179   4.885   4.921 -0.4852  0.2350  0.1085
 9274TIP3    H127786   0.173   4.813   4.984 -0.1829 -0.1183 -0.2671
 9274TIP3    H227787   0.248   4.859   4.861  0.9374  1.6512  1.0292
 9275TIP3   OH227788   1.078   1.459   1.489 -0.4229  0.0580  0.1953
 9275TIP3    H127789   1.142   1.483   1.422  1.3415 -0.1724  1.7091
 9275TIP3    H227790   1.058   1.367   1.470  0.4202 -0.1449  0.2261
 9276TIP3   OH227791   6.471   3.936   2.879 -0.0590  0.2286 -0.0113
 9276TIP3    H127792   6.475   3.901   2.790  0.4309  1.4815 -0.5021
 9276TIP3    H227793   6.412   3.877   2.926  0.4891 -1.0550 -0.8818
 9277TIP3   OH227794   3.919   6.057   3.354 -0.0995  0.0968  0.3863
 9277TIP3    H127795   3.891   5.997   3.422  1.7959 -1.7847 -0.3450
 9277TIP3    H227796   3.939   6.000   3.279  0.9971  1.7221 -0.6282
 9278TIP3   OH227797   6.357   0.376   2.480 -0.0103 -0.1278  0.2195
 9278TIP3    H127798   6.308   0.458   2.480  1.4231  0.7746 -1.0341
 9278TIP3    H227799   6.317   0.324   2.410 -0.3740 -0.1830  0.4617
 9279TIP3   OH227800   5.595   3.498   1.590 -0.2046 -0.3313  0.4375
 9279TIP3    H127801   5.674   3.444   1.592 -1.3908 -2.1510  0.3407
 9279TIP3    H227802   5.617   3.574   1.644  2.1231  0.0278 -0.8484
 9280TIP3   OH227803   2.494   0.999   3.723 -0.3100  0.1823  0.0673
 9280TIP3    H127804   2.474   0.906   3.716 -0.4292  0.0689  1.5317
 9280TIP3    H227805   2.588   1.003   3.738 -0.2519  0.3156 -0.3384
 9281TIP3   OH227806   2.703   1.910   3.754 -0.3668  0.1044 -0.3385
 9281TIP3    H127807   2.673   1.826   3.789 -0.8841  1.7567  3.6085
 9281TIP3    H227808   2.799   1.904   3.759 -0.3480 -0.6147 -1.1952
 9282TIP3   OH227809   0.534   3.322   5.058  0.1503 -0.3098 -0.2314
 9282TIP3    H127810   0.624   3.338   5.085 -0.0486 -0.8167  0.7922
 9282TIP3    H227811   0.541   3.290   4.968  1.0431 -0.8688  0.0243
 9283TIP3   OH227812   3.233   0.769   5.797  0.2795  0.1251  0.1621
 9283TIP3    H127813   3.236   0.837   5.865 -0.1464  1.5647 -1.2109
 9283TIP3    H227814   3.281   0.806   5.724  1.8827 -1.9269  0.0670
 9284TIP3   OH227815   1.628   3.915   1.718  1.0531 -0.0675  0.1826
 9284TIP3    H127816   1.697   3.861   1.756  0.7198 -1.0861 -0.6136
 9284TIP3    H227817   1.575   3.854   1.666  0.6536  1.0163 -0.7369
 9285TIP3   OH227818   0.290   4.770   5.279  0.1367  0.5846  0.2422
 9285TIP3    H127819   0.295   4.864   5.295  2.0321  0.4650  0.6025
 9285TIP3    H227820   0.380   4.740   5.289 -0.2421 -1.0837 -1.0137
 9286TIP3   OH227821   5.136   2.656   0.474 -0.0410  0.2223 -0.0185
 9286TIP3    H127822   5.179   2.675   0.391 -1.9308 -0.7148 -1.3011
 9286TIP3    H227823   5.043   2.667   0.455 -0.6934 -2.1990  1.3255
 9287TIP3   OH227824   2.746   3.333   1.016 -0.9958  0.0781  0.0717
 9287TIP3    H127825   2.663   3.375   1.040 -1.4100 -1.0011  0.5815
 9287TIP3    H227826   2.800   3.405   0.980 -1.5198  1.1282  1.3101
 9288TIP3   OH227827   1.596   0.758   1.479 -0.1382  0.2151 -0.1412
 9288TIP3    H127828   1.524   0.767   1.541 -1.8001  0.2201 -1.9648
 9288TIP3    H227829   1.589   0.668   1.447 -2.3198  1.4113 -3.6194
 9289TIP3   OH227830   1.537   0.671   4.569  0.2113  0.3111 -0.2821
 9289TIP3    H127831   1.463   0.679   4.629 -1.0414  1.1604 -1.8696
 9289TIP3    H227832   1.607   0.633   4.623 -1.2538 -0.2234  1.3478
 9290TIP3   OH227833   4.568   3.699   5.242  0.6990  0.0621 -0.0744
 9290TIP3    H127834   4.563   3.781   5.289  0.8326 -0.2671  0.5243
 9290TIP3    H227835   4.481   3.660   5.250 -0.0674  1.1533 -2.2644
 9291TIP3   OH227836   4.280   6.356   1.588  0.3463 -0.2139 -0.1172
 9291TIP3    H127837   4.240   6.290   1.531 -0.4660  0.9910 -1.0056
 9291TIP3    H227838   4.207   6.392   1.637  0.2380  1.9665 -1.6954
 9292TIP3   OH227839   6.003   5.206   0.506  0.3575 -0.5042 -0.2123
 9292TIP3    H127840   5.957   5.243   0.432 -0.0207  0.1491  0.3376
 9292TIP3    H227841   6.038   5.122   0.474 -0.1452 -0.4187 -0.9918
 9293TIP3   OH227842   3.837   0.199   1.326  0.6420  0.3502  0.6533
 9293TIP3    H127843   3.886   0.172   1.403  0.1000  0.5609  1.0778
 9293TIP3    H227844   3.862   0.135   1.259  2.9477  1.5537  0.2719
 9294TIP3   OH227845   5.675   3.470   5.040 -0.0401  0.3521 -0.5232
 9294TIP3    H127846   5.714   3.383   5.036  2.0263  1.1368  0.6784
 9294TIP3    H227847   5.708   3.507   5.122 -1.8300  1.8412 -0.4063
 9295TIP3   OH227848   1.583   3.673   0.715 -0.5284 -0.1813  0.1836
 9295TIP3    H127849   1.654   3.710   0.769  0.5364  1.7873 -2.3279
 9295TIP3    H227850   1.620   3.593   0.679 -0.8320 -0.8973  1.4022
 9296TIP3   OH227851   4.486   5.060   4.506 -0.6817 -0.2894 -0.4336
 9296TIP3    H127852   4.474   4.976   4.462  2.4485  0.0809 -2.2669
 9296TIP3    H227853   4.567   5.049   4.556  1.1021  2.2357 -2.5475
 9297TIP3   OH227854   0.206   0.807   1.143  0.3484 -0.1672 -0.6074
 9297TIP3    H127855   0.228   0.861   1.219  2.9512 -0.6783 -0.8956
 9297TIP3    H227856   0.115   0.827   1.124  0.7578  2.9386  0.2560
 9298TIP3   OH227857   0.194   2.490   0.519  0.0013  0.2259 -0.0592
 9298TIP3    H127858   0.115   2.492   0.573  0.1623  1.7699  0.1524
 9298TIP3    H227859   0.162   2.502   0.429 -0.1616 -1.1984 -0.2162
 9299TIP3   OH227860   5.386   0.272   0.893  0.3416  0.0844  0.4381
 9299TIP3    H127861   5.336   0.353   0.886  0.1859 -0.1355 -1.5942
 9299TIP3    H227862   5.401   0.261   0.986 -3.0000  0.3978  1.1476
 9300TIP3   OH227863   0.692   3.670   2.750 -0.5361 -0.5105 -0.1600
 9300TIP3    H127864   0.775   3.637   2.786 -1.0570 -0.1765  1.4297
 9300TIP3    H227865   0.679   3.755   2.792 -0.0336  1.0828 -2.9700
 9301TIP3   OH227866   3.225   1.692   4.958 -0.4167 -0.1019 -0.0089
 9301TIP3    H127867   3.179   1.630   4.901 -0.8325 -0.6895  0.9427
 9301TIP3    H227868   3.221   1.775   4.911  2.3217 -1.2121 -2.5528
 9302TIP3   OH227869   1.034   3.431   5.433  0.0917 -0.2852  0.4546
 9302TIP3    H127870   1.120   3.405   5.401  0.0799  0.3616 -0.1381
 9302TIP3    H227871   1.035   3.527   5.430 -0.1026 -0.2156  1.9302
 9303TIP3   OH227872   0.254   6.080   5.763  0.1703 -0.3635 -0.0749
 9303TIP3    H127873   0.222   6.120   5.682 -1.4602 -2.0389 -0.3253
 9303TIP3    H227874   0.216   6.133   5.833  0.0795 -0.0000 -0.3954
 9304TIP3   OH227875   6.343   1.906   5.136 -0.0835  0.1190  0.2165
 9304TIP3    H127876   6.283   1.966   5.180  0.0510  1.0692 -0.8743
 9304TIP3    H227877   6.362   1.947   5.052  1.5303 -0.5267  0.2384
 9305TIP3   OH227878   5.341   0.759   0.722  0.1869  0.5581 -0.5622
 9305TIP3    H127879   5.423   0.783   0.679  0.4429  0.2426 -0.2488
 9305TIP3    H227880   5.350   0.792   0.811  0.1564  0.1219 -0.3979
 9306TIP3   OH227881   7.224   0.405   0.428 -0.5530  0.4149 -0.3303
 9306TIP3    H127882   7.274   0.445   0.498 -0.4530  0.3578 -0.3689
 9306TIP3    H227883   7.139   0.449   0.430 -1.4355 -1.2130  1.3976
 9307TIP3   OH227884   1.456   1.278   1.196 -0.3730 -0.1919  0.0096
 9307TIP3    H127885   1.535   1.333   1.203  0.2912 -0.7373 -2.1987
 9307TIP3    H227886   1.490   1.189   1.188 -1.0631 -0.3330 -2.1653
 9308TIP3   OH227887   4.855   6.292   3.776  0.2342 -0.3483  0.4200
 9308TIP3    H127888   4.764   6.299   3.748  0.0641 -0.0071  1.0346
 9308TIP3    H227889   4.891   6.222   3.722 -0.6156 -1.0437  0.7190
 9309TIP3   OH227890   0.451   1.441   0.148  0.3151 -0.2964  0.7230
 9309TIP3    H127891   0.512   1.502   0.106  0.2539 -1.7214 -1.6473
 9309TIP3    H227892   0.372   1.493   0.164  0.7659  0.5934  0.1375
 9310TIP3   OH227893   1.318   6.546   1.831 -0.0683  0.7536 -0.2797
 9310TIP3    H127894   1.246   6.489   1.857 -0.0501  0.2968 -1.1760
 9310TIP3    H227895   1.396   6.493   1.841 -0.0733  0.5070 -1.3627
 9311TIP3   OH227896   6.250   3.729   1.227  0.4344  0.2949 -0.7708
 9311TIP3    H127897   6.336   3.761   1.255  0.3436 -0.0393 -0.0691
 9311TIP3    H227898   6.263   3.698   1.138  1.1717 -0.2301 -0.4921
 9312TIP3   OH227899   2.795   5.864   3.635 -0.5652 -0.5400 -0.2876
 9312TIP3    H127900   2.767   5.879   3.725  0.7483  1.3397 -0.1292
 9312TIP3    H227901   2.719   5.888   3.581 -0.3666  1.3954  0.2331
 9313TIP3   OH227902   2.698   6.760   4.495 -0.3232  0.6241 -0.2479
 9313TIP3    H127903   2.758   6.752   4.569 -0.0460  2.0341 -0.2904
 9313TIP3    H227904   2.755   6.782   4.421 -0.3278 -2.7032 -1.4029
 9314TIP3   OH227905   6.995   0.964   4.826 -0.4761  0.3651  0.1779
 9314TIP3    H127906   7.013   1.058   4.819 -1.6099  0.6921  1.2584
 9314TIP3    H227907   6.949   0.943   4.744  0.8146  0.4601 -0.6079
 9315TIP3   OH227908   4.656   5.833   0.218  0.6681  0.3222 -0.2503
 9315TIP3    H127909   4.589   5.868   0.159  1.4253  1.8382 -0.2428
 9315TIP3    H227910   4.734   5.886   0.200  1.3439 -0.1907  1.0579
 9316TIP3   OH227911   5.458   4.535   2.535 -0.6324  0.6283 -0.3819
 9316TIP3    H127912   5.508   4.605   2.493 -0.2746 -0.7449 -2.4184
 9316TIP3    H227913   5.518   4.497   2.599  1.4214 -1.4425 -3.2567
 9317TIP3   OH227914   6.884   3.462   2.054 -0.0763  0.5451  0.2839
 9317TIP3    H127915   6.913   3.525   1.988  1.5229  0.2904  0.7221
 9317TIP3    H227916   6.892   3.509   2.137 -0.2227  0.2191  0.4854
 9318TIP3   OH227917   2.692   2.200   4.125  0.1749 -0.2656  0.4565
 9318TIP3    H127918   2.634   2.165   4.058  0.3452  2.1024 -1.0648
 9318TIP3    H227919   2.780   2.194   4.088  0.7177 -1.8366  1.8536
 9319TIP3   OH227920   4.488   1.370   0.442 -0.1465 -0.2455 -0.0211
 9319TIP3    H127921   4.527   1.300   0.493  0.9410 -1.6491 -2.5839
 9319TIP3    H227922   4.526   1.450   0.478 -0.9806 -0.9289  2.5899
 9320TIP3   OH227923   6.840   6.388   1.063 -0.3505  0.0822 -0.0161
 9320TIP3    H127924   6.767   6.412   1.005  0.5318 -0.3113 -1.3364
 9320TIP3    H227925   6.903   6.460   1.053 -0.9450  0.9250  1.8851
 9321TIP3   OH227926   4.470   3.966   0.599 -0.2137  0.5799  0.4917
 9321TIP3    H127927   4.436   4.034   0.657  0.3548  1.1214  0.2073
 9321TIP3    H227928   4.525   4.014   0.536 -0.4639 -0.0437 -0.2139
 9322TIP3   OH227929   6.198   5.943   5.664 -0.3801  0.7703 -0.0258
 9322TIP3    H127930   6.269   5.991   5.706  0.3447  0.5194 -0.9312
 9322TIP3    H227931   6.168   5.882   5.731 -1.4743  2.5845  1.2218
 9323TIP3   OH227932   1.521   6.793   5.804  0.1641  0.5391 -0.0834
 9323TIP3    H127933   1.530   6.805   5.709 -0.6109 -0.5643 -0.3138
 9323TIP3    H227934   1.435   6.753   5.815 -0.5646  2.3299  1.2643
 9324TIP3   OH227935   2.861   5.451   1.237  0.0190 -0.5172 -0.3818
 9324TIP3    H127936   2.779   5.485   1.203 -0.7314  0.0882  1.8617
 9324TIP3    H227937   2.913   5.432   1.159 -1.2287  1.5417 -1.8134
 9325TIP3   OH227938   4.341   3.163   2.093 -0.9681 -0.2091  0.2745
 9325TIP3    H127939   4.271   3.132   2.150 -0.7541 -0.1116  0.5961
 9325TIP3    H227940   4.339   3.259   2.104  0.3668 -0.3030  1.6754
 9326TIP3   OH227941   1.826   2.651   4.178 -0.1840  0.4290  0.1135
 9326TIP3    H127942   1.860   2.584   4.118  2.8362  3.3743 -1.7885
 9326TIP3    H227943   1.732   2.655   4.158 -0.6209 -3.3555  0.6322
 9327TIP3   OH227944   6.591   2.778   0.861  0.7963  0.8330 -0.4453
 9327TIP3    H127945   6.569   2.865   0.896 -0.7763  0.9336 -1.5706
 9327TIP3    H227946   6.512   2.726   0.875  1.8052 -0.5242  0.4383
 9328TIP3   OH227947   0.131   6.794   0.513 -1.0972  0.1711 -0.1022
 9328TIP3    H127948   0.145   6.701   0.530 -0.1540  0.4411  0.6209
 9328TIP3    H227949   0.061   6.795   0.447 -1.0895 -1.0443 -0.1557
 9329TIP3   OH227950   1.841   2.354   0.042 -1.0392  0.5613  0.3221
 9329TIP3    H127951   1.918   2.299   0.035 -2.2071 -1.1379  0.1556
 9329TIP3    H227952   1.875   2.443   0.050  0.8953 -0.0506 -0.5499
 9330TIP3   OH227953   3.582   6.122   1.932  0.0206 -0.4179 -0.0608
 9330TIP3    H127954   3.633   6.182   1.877 -0.3568 -0.3253 -0.3174
 9330TIP3    H227955   3.531   6.071   1.870 -0.7058 -0.0417  0.2161
 9331TIP3   OH227956   6.903   3.385   0.489  0.0929 -0.3970 -0.0365
 9331TIP3    H127957   6.889   3.472   0.524 -0.1653 -1.0122  1.4531
 9331TIP3    H227958   6.920   3.330   0.565  1.9995 -1.3403 -1.0583
 9332TIP3   OH227959   5.552   2.814   1.095  0.2551  0.1825  0.3082
 9332TIP3    H127960   5.623   2.838   1.154 -0.8121  0.8794  1.3736
 9332TIP3    H227961   5.475   2.858   1.131 -0.4033  0.9063 -1.7996
 9333TIP3   OH227962   2.779   6.464   4.291 -0.2841 -0.3572 -0.3424
 9333TIP3    H127963   2.847   6.518   4.330 -1.5739  0.4238  0.9079
 9333TIP3    H227964   2.751   6.512   4.213 -0.8771  0.4304  0.3341
 9334TIP3   OH227965   2.381   5.761   2.949 -0.0737  0.3130  0.6455
 9334TIP3    H127966   2.442   5.827   2.917  1.3006 -1.8413 -1.4914
 9334TIP3    H227967   2.437   5.690   2.981 -1.4492 -0.9638  0.3504
 9335TIP3   OH227968   2.173   1.391   0.404 -0.5176 -0.0952 -0.0014
 9335TIP3    H127969   2.131   1.466   0.361 -0.8260 -1.0882 -1.5114
 9335TIP3    H227970   2.109   1.362   0.469  0.8704  2.8416  2.9617
 9336TIP3   OH227971   5.212   1.171   1.139  0.1371  0.3258  0.6707
 9336TIP3    H127972   5.212   1.091   1.192 -0.0566 -0.4250 -0.4420
 9336TIP3    H227973   5.190   1.241   1.201  0.9044 -0.3839  1.7871
 9337TIP3   OH227974   2.312   5.799   5.639  0.5449 -0.9477  0.4206
 9337TIP3    H127975   2.334   5.889   5.664  0.4206 -0.5425 -0.8484
 9337TIP3    H227976   2.217   5.799   5.631  0.6881 -0.4852 -1.9943
 9338TIP3   OH227977   0.857   0.836   1.705  0.0184  0.1273 -0.3006
 9338TIP3    H127978   0.780   0.892   1.712 -0.7687 -0.9655  0.0186
 9338TIP3    H227979   0.904   0.868   1.628 -1.8132 -0.4564 -1.7123
 9339TIP3   OH227980   5.396   0.489   4.465 -0.2020 -0.2326  0.0263
 9339TIP3    H127981   5.337   0.419   4.491  0.0849 -0.3848  0.2650
 9339TIP3    H227982   5.432   0.461   4.381  1.4337 -1.3225  1.0362
 9340TIP3   OH227983   2.349   5.994   3.404  0.5288 -0.9097 -0.1866
 9340TIP3    H127984   2.291   6.006   3.329  0.3605 -1.3815 -0.1347
 9340TIP3    H227985   2.348   6.078   3.449  0.3049 -0.7533 -0.4799
 9341TIP3   OH227986   1.025   1.967   2.705  0.7534  0.0547  0.5568
 9341TIP3    H127987   0.939   1.929   2.722  1.7035 -2.7047 -0.2035
 9341TIP3    H227988   1.053   2.002   2.790 -0.4761 -0.4170  1.1799
 9342TIP3   OH227989   1.476   0.972   3.635  0.1013 -0.1497  0.5141
 9342TIP3    H127990   1.564   0.998   3.663  0.2512 -1.4582  1.3379
 9342TIP3    H227991   1.469   0.880   3.661 -1.0834 -0.4034 -0.6062
 9343TIP3   OH227992   1.208   4.973   0.790 -0.1994  0.4829 -0.6082
 9343TIP3    H127993   1.213   5.003   0.699 -1.1304 -0.6510 -1.0585
 9343TIP3    H227994   1.189   4.879   0.783  2.3060 -0.2049  0.7377
 9344TIP3   OH227995   4.003   3.428   1.068  0.0958  0.2145 -0.1085
 9344TIP3    H127996   4.093   3.416   1.098  0.0553 -1.1385 -0.4472
 9344TIP3    H227997   3.954   3.454   1.146  0.7089  0.5546  0.1622
 9345TIP3   OH227998   4.390   0.975   0.096  0.8145  0.0458 -0.1891
 9345TIP3    H127999   4.397   0.882   0.116 -1.1359 -0.5415 -1.9188
 9345TIP3    H228000   4.450   0.989   0.023  2.5733  0.6511  1.2749
 9346TIP3   OH228001   4.257   1.359   4.846  0.0210  0.2234  0.5101
 9346TIP3    H128002   4.258   1.264   4.830 -1.0096  0.1230  0.9854
 9346TIP3    H228003   4.286   1.368   4.936  1.9135  0.5156 -0.0784
 9347TIP3   OH228004   3.608   2.673  -0.016 -0.1261 -0.5237  0.1218
 9347TIP3    H128005   3.617   2.663   0.079  0.2015 -0.0509  0.1450
 9347TIP3    H228006   3.698   2.668  -0.049 -0.3133 -1.5784 -0.2593
 9348TIP3   OH228007   5.234   4.676   4.252 -0.7970  0.2589  0.7121
 9348TIP3    H128008   5.302   4.644   4.192 -2.3398 -0.2262 -0.8685
 9348TIP3    H228009   5.276   4.746   4.300  0.7725  0.1156 -0.3520
 9349TIP3   OH228010   5.559   1.667   1.491 -0.1173 -0.0492 -0.4666
 9349TIP3    H128011   5.511   1.746   1.466  0.2457 -0.1244 -1.4527
 9349TIP3    H228012   5.651   1.693   1.488 -0.0003 -0.4679 -0.6936
 9350TIP3   OH228013   1.261   0.345   1.810 -0.3944 -0.7042 -0.1804
 9350TIP3    H128014   1.319   0.403   1.861  0.3404 -0.2252 -1.5201
 9350TIP3    H228015   1.317   0.311   1.740 -1.5492 -0.8703 -1.0394
 9351TIP3   OH228016   3.184   4.688   4.179 -0.7943  0.5594  0.1028
 9351TIP3    H128017   3.274   4.719   4.182 -0.7887  0.7217 -1.0799
 9351TIP3    H228018   3.164   4.661   4.268  0.7933 -0.5328  0.1616
 9352TIP3   OH228019   1.150   1.959   3.255 -0.1169  0.1399  1.2624
 9352TIP3    H128020   1.226   1.911   3.288  1.3718 -0.5648 -2.6550
 9352TIP3    H228021   1.075   1.904   3.279  0.8122 -0.4694  2.9760
 9353TIP3   OH228022   4.002   3.795   2.678  0.2555 -0.5872  0.2695
 9353TIP3    H128023   4.048   3.849   2.743 -0.7277  0.2993  0.2530
 9353TIP3    H228024   3.912   3.791   2.711 -0.2921 -0.0121 -1.1065
 9354TIP3   OH228025   5.661   4.801   3.127 -0.1251  0.0636 -0.4577
 9354TIP3    H128026   5.672   4.757   3.211  2.2832  0.6299 -0.3910
 9354TIP3    H228027   5.633   4.890   3.149  1.8779  0.6596 -0.0769
 9355TIP3   OH228028   0.166   2.657   3.801 -0.1340  0.3744  0.7575
 9355TIP3    H128029   0.106   2.629   3.871 -0.0044  0.9581  1.1134
 9355TIP3    H228030   0.172   2.752   3.812  1.2178  0.2760  1.0233
 9356TIP3   OH228031   3.756   4.101   1.219 -0.1532 -0.0648 -0.0381
 9356TIP3    H128032   3.798   4.027   1.176  0.2737 -0.3189  0.8157
 9356TIP3    H228033   3.667   4.101   1.184 -0.0073 -0.6648 -0.4274
 9357TIP3   OH228034   3.690   5.156   4.325  0.2847  0.6435  0.0058
 9357TIP3    H128035   3.595   5.144   4.323  0.4977 -1.5337 -0.1937
 9357TIP3    H228036   3.707   5.224   4.260 -1.1022  0.8355 -0.1887
 9358TIP3   OH228037   6.994   6.468   3.532  0.1091  0.4816  0.1799
 9358TIP3    H128038   7.004   6.482   3.438 -0.8442  2.5142  0.3103
 9358TIP3    H228039   7.068   6.516   3.571  0.2949 -0.0499  0.4911
 9359TIP3   OH228040   6.267   2.494   4.979  0.3959 -0.1702  1.0227
 9359TIP3    H128041   6.200   2.425   4.979  0.0496  0.1327 -0.6113
 9359TIP3    H228042   6.287   2.508   4.887  0.0140  2.3659  1.2654
 9360TIP3   OH228043   7.174   5.563   0.058  0.2399 -0.7463  0.0217
 9360TIP3    H128044   7.163   5.577  -0.036 -1.4374  1.2765  0.4350
 9360TIP3    H228045   7.260   5.599   0.078  0.2041 -0.3002 -0.5991
 9361TIP3   OH228046   6.543   2.817   1.225  0.1739  0.1779  0.1211
 9361TIP3    H128047   6.532   2.908   1.198  0.5421  0.1628 -0.0787
 9361TIP3    H228048   6.454   2.780   1.222 -0.1907  0.8743  1.4553
 9362TIP3   OH228049   6.646   6.679   1.491  0.5185  0.2776  0.1555
 9362TIP3    H128050   6.590   6.678   1.568 -2.0958 -0.6360 -1.6181
 9362TIP3    H228051   6.686   6.592   1.489  0.2482  0.1478  0.2663
 9363TIP3   OH228052   5.595   5.316   0.420  0.2331 -0.3575  0.1557
 9363TIP3    H128053   5.670   5.340   0.365 -1.2195  1.1469 -1.2832
 9363TIP3    H228054   5.627   5.326   0.510  1.4095  1.4998 -0.4103
 9364TIP3   OH228055   2.011   1.326   4.296  0.3606  0.4926 -0.0087
 9364TIP3    H128056   1.996   1.238   4.331 -0.0009  1.2514  1.8630
 9364TIP3    H228057   1.935   1.342   4.240  1.3417 -1.0514 -1.9183
 9365TIP3   OH228058   6.015   5.353   0.788 -1.1257 -0.3369 -0.5082
 9365TIP3    H128059   6.047   5.280   0.735  0.2113 -1.3946  1.6558
 9365TIP3    H228060   5.940   5.317   0.836  0.0152 -0.6117  1.1593
 9366TIP3   OH228061   1.263   4.722   0.491  0.0791 -0.1203  0.5120
 9366TIP3    H128062   1.313   4.659   0.440 -0.2029 -1.8764  2.2467
 9366TIP3    H228063   1.184   4.674   0.517 -0.3993  1.1184  1.4704
 9367TIP3   OH228064   4.679   3.722   2.604 -0.2364 -0.0722  0.4069
 9367TIP3    H128065   4.711   3.783   2.670  0.5213 -0.8229  0.7510
 9367TIP3    H228066   4.731   3.741   2.526  0.1916 -0.4473  0.5949
 9368TIP3   OH228067   7.135   4.189   2.909 -0.4329 -0.3563 -0.3804
 9368TIP3    H128068   7.118   4.101   2.875 -0.4418 -0.0297 -1.2386
 9368TIP3    H228069   7.199   4.226   2.849  1.1516 -0.4978  1.1456
 9369TIP3   OH228070   6.033   0.509   4.029 -0.0698 -0.5323  0.1537
 9369TIP3    H128071   6.090   0.552   4.093 -0.1308  1.2346 -0.9191
 9369TIP3    H228072   5.956   0.482   4.079  0.7088 -0.9159  1.1713
 9370TIP3   OH228073   3.797   1.736   3.635  0.5914  0.0658 -0.0112
 9370TIP3    H128074   3.758   1.661   3.680  0.6110  0.0927  0.0508
 9370TIP3    H228075   3.761   1.813   3.680  0.4665  0.0968 -0.1611
 9371TIP3   OH228076   5.717   3.995   0.275 -0.3832  0.0684 -0.4561
 9371TIP3    H128077   5.686   4.076   0.234 -2.0401 -0.8475 -1.1313
 9371TIP3    H228078   5.797   3.973   0.228 -1.5305 -0.2489 -2.3780
 9372TIP3   OH228079   0.787   2.122   0.699  0.1101 -0.6657 -0.2224
 9372TIP3    H128080   0.793   2.110   0.794 -1.2558 -0.3292 -0.0766
 9372TIP3    H228081   0.719   2.189   0.687  1.1141  0.1981 -1.3980
 9373TIP3   OH228082   1.322   5.265   1.913  0.1060 -0.1006  0.1287
 9373TIP3    H128083   1.252   5.314   1.870  0.1904  0.9505  1.1204
 9373TIP3    H228084   1.286   5.177   1.924  0.2818 -0.5665 -2.4882
 9374TIP3   OH228085   4.436   3.818   1.003 -0.7071 -0.5472 -0.4197
 9374TIP3    H128086   4.505   3.883   0.987 -1.4935  0.5692  0.5253
 9374TIP3    H228087   4.355   3.868   0.993 -1.4096 -1.8786 -1.6972
 9375TIP3   OH228088   0.871   1.194   4.649 -0.2130  0.5691  0.2542
 9375TIP3    H128089   0.825   1.208   4.566  0.0585  1.4494  0.2429
 9375TIP3    H228090   0.841   1.264   4.706  0.9114  1.0165  0.3248
 9376TIP3   OH228091   1.452   6.279   2.514 -0.4643  0.2269  0.0862
 9376TIP3    H128092   1.399   6.217   2.464 -1.2659  0.8051  0.2083
 9376TIP3    H228093   1.542   6.252   2.496 -0.7533 -0.0217 -1.1032
 9377TIP3   OH228094   6.758   4.607   0.874  0.3822  0.4161  0.1742
 9377TIP3    H128095   6.698   4.616   0.800 -0.9864  1.4170  1.3444
 9377TIP3    H228096   6.732   4.676   0.934  2.4528  0.5902  0.9457
 9378TIP3   OH228097   2.708   1.606   2.588  0.6739  0.2582  0.7085
 9378TIP3    H128098   2.614   1.601   2.605  0.9279 -0.1870  2.1010
 9378TIP3    H228099   2.715   1.629   2.495 -0.8165  1.9112  0.9666
 9379TIP3   OH228100   0.912   2.516   2.393  0.3501  0.0601 -0.3106
 9379TIP3    H128101   0.874   2.553   2.473  0.2389  1.1356 -0.8566
 9379TIP3    H228102   0.972   2.583   2.361  1.6535 -1.0272 -0.2519
 9380TIP3   OH228103   3.377   0.813   1.448  0.3214  0.0394 -0.0471
 9380TIP3    H128104   3.301   0.757   1.429 -0.1212  0.5302  0.2403
 9380TIP3    H228105   3.390   0.863   1.367 -0.5306  0.9350  0.3334
 9381TIP3   OH228106   5.581   2.040   3.368 -0.1726  0.2759  0.0139
 9381TIP3    H128107   5.498   2.068   3.329 -1.2235  0.8836  2.4931
 9381TIP3    H228108   5.628   2.121   3.387  0.4914 -0.0182 -0.3262
 9382TIP3   OH228109   2.307   1.006   3.937 -0.0083 -0.0801 -0.0541
 9382TIP3    H128110   2.359   1.019   3.858  0.2314  0.8874  0.2422
 9382TIP3    H228111   2.359   0.947   3.992  0.7038  0.7189  0.1542
 9383TIP3   OH228112   4.027   1.623   2.810 -0.1592  0.0039  0.9150
 9383TIP3    H128113   4.069   1.538   2.800 -0.1666 -0.1491  2.1070
 9383TIP3    H228114   4.100   1.686   2.803 -0.3365  0.0620 -1.5781
 9384TIP3   OH228115   0.154   5.614   4.173  0.3925  0.2141 -0.5256
 9384TIP3    H128116   0.245   5.602   4.147  0.5969  0.6307 -0.0229
 9384TIP3    H228117   0.157   5.680   4.242 -0.2958  0.2689 -0.5367
 9385TIP3   OH228118   4.206  -0.023   1.692  0.4204 -0.2590 -0.2483
 9385TIP3    H128119   4.167  -0.050   1.609  1.9979 -0.1827 -1.0657
 9385TIP3    H228120   4.213   0.073   1.686  2.0620 -0.3701 -0.8021
 9386TIP3   OH228121   4.532   5.649   2.274  0.5818  0.2208 -0.0605
 9386TIP3    H128122   4.563   5.577   2.329  0.0712 -0.1255 -0.2162
 9386TIP3    H228123   4.437   5.650   2.288  0.7274  1.7494  0.9992
 9387TIP3   OH228124   1.667   1.771   5.698 -0.0660 -0.4390 -0.1467
 9387TIP3    H128125   1.579   1.739   5.679  0.5931 -1.5720 -1.4572
 9387TIP3    H228126   1.692   1.728   5.779 -0.9259  0.3567  0.5574
 9388TIP3   OH228127   5.778   5.177   3.209 -0.2294 -0.3616  0.7777
 9388TIP3    H128128   5.728   5.217   3.280 -2.0673 -0.7840 -0.2186
 9388TIP3    H228129   5.802   5.250   3.152 -2.7873 -0.4303 -0.5548
 9389TIP3   OH228130   6.835   2.352   0.382 -0.2452  0.7338 -0.1444
 9389TIP3    H128131   6.779   2.411   0.432  0.1234  1.7000 -0.8463
 9389TIP3    H228132   6.789   2.341   0.298  0.3669  1.1573 -0.5450
 9390TIP3   OH228133   4.827   3.754   3.142 -0.2571 -0.2496 -0.2884
 9390TIP3    H128134   4.887   3.826   3.164 -2.8392  2.2870 -0.8719
 9390TIP3    H228135   4.850   3.684   3.202  1.6233  1.5082  1.2043
 9391TIP3   OH228136   7.177   3.949   3.601 -0.2036 -0.6273 -0.8655
 9391TIP3    H128137   7.145   4.027   3.645 -0.8386 -2.1772  1.6523
 9391TIP3    H228138   7.181   3.973   3.509 -0.5749  2.2641 -0.2202
 9392TIP3   OH228139   1.911   3.132   1.298 -0.0520 -0.0582 -0.2176
 9392TIP3    H128140   1.917   3.037   1.304 -0.1156  0.0080  1.3176
 9392TIP3    H228141   2.002   3.162   1.299 -0.0466 -0.0790  0.0129
 9393TIP3   OH228142   0.488   3.172   1.719  0.1993  0.2217 -0.4376
 9393TIP3    H128143   0.572   3.147   1.757  0.9143 -0.7398 -2.5015
 9393TIP3    H228144   0.468   3.257   1.758  0.7499 -0.7460  2.1474
 9394TIP3   OH228145   0.550   5.609   0.087 -0.3650  0.4208 -0.0105
 9394TIP3    H128146   0.530   5.660   0.009 -0.7112  0.2915 -0.0101
 9394TIP3    H228147   0.613   5.662   0.136  0.1359  0.3296 -0.5547
 9395TIP3   OH228148   1.825   3.772   1.267 -0.2662 -0.3607  0.0887
 9395TIP3    H128149   1.760   3.762   1.338 -0.4414  2.1412  0.3578
 9395TIP3    H228150   1.849   3.682   1.244 -4.1216 -1.4767 -0.2961
 9396TIP3   OH228151   0.608   2.336   0.763  0.3298 -0.0845  0.1689
 9396TIP3    H128152   0.542   2.301   0.823  0.5999 -1.3516 -0.2428
 9396TIP3    H228153   0.556   2.381   0.696  0.0264  1.3139  1.2903
 9397TIP3   OH228154   5.524   2.092   3.003  0.2654 -0.0079 -0.1262
 9397TIP3    H128155   5.488   2.078   2.915  0.0133 -3.0070  0.3593
 9397TIP3    H228156   5.611   2.053   2.999  0.7622  0.9787  0.6504
 9398TIP3   OH228157   3.606   1.387   3.061  0.1548 -0.6875 -0.4241
 9398TIP3    H128158   3.578   1.447   2.991  0.1529 -0.4783 -0.2442
 9398TIP3    H228159   3.702   1.388   3.057  0.1557 -0.6253 -0.3796
 9399TIP3   OH228160   3.477   0.008   2.938 -0.1340  0.1754 -0.0839
 9399TIP3    H128161   3.422  -0.028   3.008  0.4569  1.5491  1.1523
 9399TIP3    H228162   3.429   0.084   2.907  0.6657  0.9255  0.4596
 9400TIP3   OH228163   2.248   5.591   4.090  0.5432 -0.2489  0.2819
 9400TIP3    H128164   2.188   5.556   4.156 -1.1925  0.9597 -0.5620
 9400TIP3    H228165   2.306   5.650   4.139 -0.1037 -0.0942  0.8745
 9401TIP3   OH228166   0.165   2.282   3.257  0.0684  0.0326  0.2571
 9401TIP3    H128167   0.153   2.338   3.181  1.0389 -1.4484 -1.0568
 9401TIP3    H228168   0.082   2.287   3.305 -0.8271  0.4319 -1.2889
 9402TIP3   OH228169   5.651   0.726   4.110 -0.0283 -0.1099 -0.2929
 9402TIP3    H128170   5.625   0.701   4.199  0.0514  1.0364  0.0592
 9402TIP3    H228171   5.744   0.749   4.117 -0.2399  0.8401 -0.4838
 9403TIP3   OH228172   1.916   6.132   4.819  0.5574  0.1770 -0.1026
 9403TIP3    H128173   1.825   6.137   4.789 -0.5104  0.5311  2.8774
 9403TIP3    H228174   1.940   6.223   4.839  0.4687 -0.1867  1.8994
 9404TIP3   OH228175   1.900   2.859   2.321 -0.3518  0.0727 -0.4984
 9404TIP3    H128176   1.852   2.856   2.403 -0.5100  0.8549 -0.5551
 9404TIP3    H228177   1.939   2.772   2.312 -1.4762 -0.4663 -0.2796
 9405TIP3   OH228178   7.204   5.123   1.919  0.6320  0.0038 -0.1067
 9405TIP3    H128179   7.117   5.087   1.937  0.1271  1.1115 -0.2751
 9405TIP3    H228180   7.204   5.139   1.825  0.5339  1.2388  0.0941
 9406TIP3   OH228181   2.914   1.283   3.001 -0.2109 -0.4259  0.2967
 9406TIP3    H128182   2.839   1.264   2.946  0.0208 -0.1951 -0.1042
 9406TIP3    H228183   2.927   1.204   3.053 -0.0791 -0.8641 -0.3893
 9407TIP3   OH228184   3.184   0.172   2.215 -0.1511 -0.3876  0.2582
 9407TIP3    H128185   3.148   0.247   2.168  1.5764  0.8968  0.8893
 9407TIP3    H228186   3.173   0.098   2.155 -1.1386  0.5108 -0.7074
 9408TIP3   OH228187   5.396   4.532   5.404  0.3282 -0.5425  0.3836
 9408TIP3    H128188   5.357   4.445   5.399 -0.5556 -0.3956  3.1981
 9408TIP3    H228189   5.323   4.591   5.426  0.8727  0.9955 -1.5877
 9409TIP3   OH228190   2.783   2.892   4.973  0.3262 -0.5574  0.4842
 9409TIP3    H128191   2.871   2.869   4.943  1.0311 -1.2574  2.9223
 9409TIP3    H228192   2.776   2.987   4.958  0.6719 -0.8193 -1.6098
 9410TIP3   OH228193   0.807   2.442   4.938  0.6335  0.4905 -0.1083
 9410TIP3    H128194   0.790   2.380   4.866  1.1938  0.4916 -0.2490
 9410TIP3    H228195   0.791   2.392   5.017 -2.4115  1.1518 -0.1852
 9411TIP3   OH228196   0.966   3.133   2.110 -0.1479 -0.2771  0.3562
 9411TIP3    H128197   1.007   3.112   2.027 -1.8315  1.9118 -1.1369
 9411TIP3    H228198   0.947   3.227   2.105 -2.7856 -0.5992  2.0289
 9412TIP3   OH228199   5.445   5.867   4.166  0.2203  0.2181  0.4584
 9412TIP3    H128200   5.462   5.914   4.248  3.1511  0.1380  0.0080
 9412TIP3    H228201   5.407   5.932   4.108 -0.3266  0.7090  1.3321
 9413TIP3   OH228202   2.687   5.009   1.480  0.0933 -0.6139 -0.6628
 9413TIP3    H128203   2.760   5.035   1.537 -0.2564 -1.6750  0.3177
 9413TIP3    H228204   2.669   5.086   1.427  0.8640  0.2022  0.2252
 9414TIP3   OH228205   3.682   2.015   4.814  0.4518 -0.0383  0.1573
 9414TIP3    H128206   3.741   2.081   4.781  1.8388 -1.4232 -0.2475
 9414TIP3    H228207   3.734   1.966   4.878 -0.4774 -0.8324  0.3343
 9415TIP3   OH228208   6.455   2.640   4.449  0.6414 -0.2477 -0.9948
 9415TIP3    H128209   6.435   2.691   4.528  0.2051  1.1551 -1.9623
 9415TIP3    H228210   6.529   2.585   4.474 -1.2917 -2.0078  1.2437
 9416TIP3   OH228211   6.564   0.075   5.542 -0.1849  0.5181  0.6698
 9416TIP3    H128212   6.522   0.072   5.456 -1.4811 -0.9521  1.2933
 9416TIP3    H228213   6.564  -0.016   5.571  3.8582  0.3536  0.5876
 9417TIP3   OH228214   6.354   2.706   1.511 -0.2035  0.5363  0.0574
 9417TIP3    H128215   6.390   2.634   1.459 -0.7595  0.3739 -0.1069
 9417TIP3    H228216   6.431   2.752   1.544  0.1887  1.2800 -1.7848
 9418TIP3   OH228217   3.708   2.721   5.202  0.3457  0.0050 -0.2010
 9418TIP3    H128218   3.665   2.669   5.271  2.6738 -1.1052  0.5047
 9418TIP3    H228219   3.686   2.676   5.121  1.1965 -1.3441  0.2753
 9419TIP3   OH228220   5.061   1.807   1.972 -0.4917  0.0959 -0.6113
 9419TIP3    H128221   5.005   1.800   1.894 -1.6659  1.4823  0.0680
 9419TIP3    H228222   5.026   1.743   2.033 -0.0606 -0.4388 -0.9125
 9420TIP3   OH228223   4.759   4.722   0.499 -0.5411 -0.1149 -0.1050
 9420TIP3    H128224   4.762   4.777   0.421 -1.0257 -0.8747 -0.6671
 9420TIP3    H228225   4.677   4.745   0.542 -0.5953 -0.1825 -0.1736
 9421TIP3   OH228226   5.926   3.154   0.676  0.0248 -0.1598  0.0568
 9421TIP3    H128227   6.003   3.198   0.641  1.1885 -0.7340  1.7513
 9421TIP3    H228228   5.950   3.061   0.679 -0.6487 -0.3231  0.7693
 9422TIP3   OH228229   3.985  -0.015   0.085  0.2702  0.3572  0.1876
 9422TIP3    H128230   3.921   0.042   0.042 -2.7440 -2.4598  0.5872
 9422TIP3    H228231   3.995   0.022   0.173 -0.5812  0.9850  0.0309
 9423TIP3   OH228232   1.060   0.659   5.272  0.0885  0.5551 -0.4111
 9423TIP3    H128233   1.078   0.568   5.292  0.4716  0.2701 -1.9515
 9423TIP3    H228234   1.146   0.699   5.261 -0.0260  1.4007  1.3065
 9424TIP3   OH228235   6.351   6.403   1.796 -0.0661  0.6826  0.1996
 9424TIP3    H128236   6.355   6.355   1.713  0.7656  0.7165  0.2146
 9424TIP3    H228237   6.340   6.334   1.862  0.8157  0.5131  0.1918
 9425TIP3   OH228238   6.063   2.305   1.567 -0.5673 -0.1779 -0.3630
 9425TIP3    H128239   6.001   2.375   1.585 -0.4686  0.4848 -2.3337
 9425TIP3    H228240   6.071   2.258   1.650 -0.9123  1.9082  0.9270
 9426TIP3   OH228241   6.723   5.794   3.533 -0.0596 -0.1056 -0.2109
 9426TIP3    H128242   6.643   5.743   3.546 -0.8252  1.2291  0.5627
 9426TIP3    H228243   6.715   5.831   3.445 -0.0119 -0.4454 -0.3585
 9427TIP3   OH228244   2.753   2.778   4.655  0.1146  0.4085 -0.2101
 9427TIP3    H128245   2.767   2.847   4.590 -1.6438  0.8568 -0.1729
 9427TIP3    H228246   2.825   2.788   4.717  1.0472  0.8633 -1.3469
 9428TIP3   OH228247   6.984   0.262   3.841  0.1986  0.0373 -0.0575
 9428TIP3    H128248   6.959   0.324   3.772 -0.6881  1.7190  1.6799
 9428TIP3    H228249   7.078   0.275   3.852  0.1230  0.6510 -0.1143
 9429TIP3   OH228250   2.230   5.490   1.219  0.7364 -0.0027 -0.0585
 9429TIP3    H128251   2.293   5.536   1.274  1.2924  0.2403 -0.8778
 9429TIP3    H228252   2.211   5.410   1.267  1.7186 -0.1081  0.1830
 9430TIP3   OH228253   5.612   2.209   2.680 -0.5727 -0.3792  0.9459
 9430TIP3    H128254   5.700   2.245   2.690 -0.0400 -1.5197  0.5543
 9430TIP3    H228255   5.624   2.133   2.623 -2.1562  0.7276 -0.9678
 9431TIP3   OH228256   6.877   4.873   2.887 -0.0600  0.4678 -0.0376
 9431TIP3    H128257   6.935   4.946   2.909  1.4099 -0.1516 -1.5766
 9431TIP3    H228258   6.914   4.798   2.933 -1.4226  0.6001  1.3436
 9432TIP3   OH228259   3.133   3.474   2.562 -0.4182 -0.3198  0.1383
 9432TIP3    H128260   3.166   3.518   2.484 -0.0657 -2.4008 -0.9621
 9432TIP3    H228261   3.211   3.433   2.601 -0.7267  0.0057  1.1244
 9433TIP3   OH228262   3.982   4.411   2.350 -0.6010 -0.2221 -0.0164
 9433TIP3    H128263   4.045   4.361   2.402  0.0722  1.1781  0.5561
 9433TIP3    H228264   4.031   4.436   2.271 -1.7312 -2.6874 -1.6298
 9434TIP3   OH228265   2.302   3.337   4.688  0.0030  0.1234 -0.0017
 9434TIP3    H128266   2.329   3.422   4.722 -1.6785  0.6924  0.0053
 9434TIP3    H228267   2.232   3.357   4.626 -1.3254 -1.3014  0.9453
 9435TIP3   OH228268   3.562   6.066   0.427  0.0525  0.1323  0.9987
 9435TIP3    H128269   3.575   6.052   0.520 -0.7631  2.4729  1.5465
 9435TIP3    H228270   3.528   6.156   0.421 -1.4089 -0.4945 -1.4290
 9436TIP3   OH228271   0.741   2.467   4.589 -0.0619 -0.3575 -0.3148
 9436TIP3    H128272   0.769   2.385   4.548 -1.1982 -2.4609  2.6999
 9436TIP3    H228273   0.662   2.444   4.638 -0.3861  2.5594  0.7599
 9437TIP3   OH228274   6.756   5.446   5.366  0.1547  0.2032  0.3949
 9437TIP3    H128275   6.681   5.502   5.385 -2.2448 -2.1733 -1.2994
 9437TIP3    H228276   6.810   5.496   5.306 -0.4879  1.6420  0.9710
 9438TIP3   OH228277   4.482   0.671   5.535 -0.4202  0.8091  0.8349
 9438TIP3    H128278   4.406   0.726   5.515 -1.8554 -0.7411  1.7912
 9438TIP3    H228279   4.462   0.630   5.619  1.2035 -0.1419  0.8190
 9439TIP3   OH228280   0.193   0.535   0.644  0.3658 -0.1623 -0.2825
 9439TIP3    H128281   0.261   0.597   0.668 -0.2580 -0.0046  1.1498
 9439TIP3    H228282   0.169   0.492   0.726 -1.0185 -0.4565 -0.8122
 9440TIP3   OH228283   2.136   3.236   1.194 -0.0699  0.0633 -0.4993
 9440TIP3    H128284   2.164   3.229   1.103 -1.0590 -0.3124 -0.7943
 9440TIP3    H228285   2.216   3.253   1.243  0.7058 -1.2278 -1.2532
 9441TIP3   OH228286   3.782   0.598   4.678  0.0089  0.0383  0.3052
 9441TIP3    H128287   3.694   0.563   4.693 -0.2349  1.0130  1.3634
 9441TIP3    H228288   3.767   0.690   4.654  0.7224  0.0848  0.0056
 9442TIP3   OH228289   0.774   1.146   5.864  0.0368  0.4625 -0.2089
 9442TIP3    H128290   0.836   1.175   5.797 -0.2231  0.4863 -0.4400
 9442TIP3    H228291   0.735   1.227   5.897  0.8489  0.5169  0.6380
 9443TIP3   OH228292   1.027   1.059   5.445 -0.3319  0.2024 -0.0559
 9443TIP3    H128293   1.073   1.142   5.440  1.0537 -0.6025 -1.4685
 9443TIP3    H228294   0.935   1.081   5.427 -0.1351  1.5338  0.5242
 9444TIP3   OH228295   2.353   4.757   5.470  0.1437  0.0741 -0.0464
 9444TIP3    H128296   2.344   4.719   5.557  2.8951 -0.2116  0.1910
 9444TIP3    H228297   2.431   4.812   5.476 -0.7994  1.7128 -1.7892
 9445TIP3   OH228298   0.470   5.398   2.423 -0.6143 -0.0951  0.8741
 9445TIP3    H128299   0.439   5.453   2.495  0.3100  0.0808  1.1507
 9445TIP3    H228300   0.491   5.314   2.465 -0.7403 -0.2196  0.6893
 9446TIP3   OH228301   1.023   2.884   4.466 -0.4967  0.1796  0.1510
 9446TIP3    H128302   0.989   2.912   4.550 -0.4363  0.5154  0.0625
 9446TIP3    H228303   1.087   2.951   4.441  0.1630 -0.3845  0.2705
 9447TIP3   OH228304   6.698   4.374   2.559  0.0412  0.3046 -0.3099
 9447TIP3    H128305   6.654   4.430   2.622 -0.8017 -0.3716 -0.2749
 9447TIP3    H228306   6.646   4.293   2.558  1.1787 -0.4460 -0.4167
 9448TIP3   OH228307   2.596   5.399   2.711  0.0447 -0.2814  0.2193
 9448TIP3    H128308   2.504   5.387   2.732 -0.1174  0.5367 -0.0025
 9448TIP3    H228309   2.638   5.317   2.739 -0.6728 -0.4839  0.7232
 9449TIP3   OH228310   3.027   2.058   1.914 -0.3693 -0.4614 -0.3125
 9449TIP3    H128311   3.076   2.139   1.904  0.9122 -1.2043 -0.2533
 9449TIP3    H228312   3.094   1.990   1.923 -1.3922 -1.6916 -1.5733
 9450TIP3   OH228313   4.692   6.043   3.982  0.3824  0.2485  0.4116
 9450TIP3    H128314   4.627   6.026   4.051  0.5687  0.8799  0.7534
 9450TIP3    H228315   4.742   6.118   4.015  1.0283  0.0172 -0.0279
 9451TIP3   OH228316   6.175   3.671   3.233  0.2599  0.1608 -0.1406
 9451TIP3    H128317   6.110   3.667   3.162  0.0849 -0.5388  0.0531
 9451TIP3    H228318   6.156   3.594   3.286  1.7118 -0.4484 -0.4769
 9452TIP3   OH228319   4.649   3.070   3.051 -0.4217  0.0789 -0.3799
 9452TIP3    H128320   4.561   3.045   3.024 -1.3860  1.1892  1.5434
 9452TIP3    H228321   4.660   3.160   3.019  0.1206 -0.1195 -0.7844
 9453TIP3   OH228322   6.878   2.159   1.658  0.2722  0.1520 -0.1009
 9453TIP3    H128323   6.876   2.202   1.572 -1.4672 -1.3674 -0.8956
 9453TIP3    H228324   6.822   2.213   1.713  0.9599  0.8389 -0.0653
 9454TIP3   OH228325   1.736   1.517   0.610  0.3032 -0.2510  0.2002
 9454TIP3    H128326   1.763   1.607   0.592  0.8177 -0.6844 -1.3136
 9454TIP3    H228327   1.813   1.477   0.650  1.3691 -0.9628 -2.3880
 9455TIP3   OH228328   6.926   3.624   2.298  0.4045  0.6641 -0.7167
 9455TIP3    H128329   6.835   3.626   2.268  0.7889  0.2980 -1.9554
 9455TIP3    H228330   6.934   3.541   2.344 -0.1895  1.2302  0.4673
 9456TIP3   OH228331   0.944   4.488   3.553  0.6489  0.6441  0.1997
 9456TIP3    H128332   0.980   4.553   3.614  0.1426  0.6774  0.4714
 9456TIP3    H228333   0.886   4.434   3.607  3.0710 -1.7883  0.5944
 9457TIP3   OH228334   6.912   1.838   4.130 -0.3059  0.1653 -0.1224
 9457TIP3    H128335   6.913   1.787   4.211  0.5803  0.5227  0.1006
 9457TIP3    H228336   6.820   1.838   4.103 -0.6954  0.4516  1.1468
 9458TIP3   OH228337   5.136   4.330   3.680 -0.0060  0.2418 -0.0022
 9458TIP3    H128338   5.127   4.295   3.768 -1.4541 -2.3043 -1.0500
 9458TIP3    H228339   5.056   4.379   3.665  0.0186  0.2688 -0.0449
 9459TIP3   OH228340   4.011   0.925   3.532 -0.2021 -0.3668 -0.4683
 9459TIP3    H128341   4.103   0.898   3.536 -0.6508 -2.7879 -3.0795
 9459TIP3    H228342   3.964   0.855   3.578 -0.7874  1.1001  1.2831
 9460TIP3   OH228343   2.195   1.679   2.224 -0.5586  0.2070  0.1858
 9460TIP3    H128344   2.215   1.739   2.296  0.2831 -0.0335  0.1701
 9460TIP3    H228345   2.221   1.593   2.256  0.1420  0.1414 -0.5116
 9461TIP3   OH228346   0.088   4.311   5.472  0.1604 -0.0972 -0.5704
 9461TIP3    H128347  -0.003   4.295   5.448  0.4478 -0.1774 -1.6770
 9461TIP3    H228348   0.132   4.331   5.389  1.4728 -1.6457 -0.3218
 9462TIP3   OH228349   6.916   2.407   3.577 -0.4821 -0.2840 -0.2307
 9462TIP3    H128350   6.866   2.403   3.658  0.0425 -0.6321  0.0779
 9462TIP3    H228351   6.894   2.492   3.539 -1.2767 -0.4173 -0.0814
 9463TIP3   OH228352   0.246   6.568   5.176 -0.0814 -0.4851  0.1974
 9463TIP3    H128353   0.153   6.565   5.151 -0.0459 -2.0345  0.1572
 9463TIP3    H228354   0.261   6.659   5.200 -1.1777  0.1612 -1.4355
 9464TIP3   OH228355   0.749   4.693   2.375 -0.0886 -0.3472  0.2876
 9464TIP3    H128356   0.840   4.683   2.403 -0.1403 -0.0651  0.5672
 9464TIP3    H228357   0.702   4.624   2.421  0.3176 -1.9400 -1.5548
 9465TIP3   OH228358   3.517   2.174   1.012 -0.1217  0.0129 -0.1323
 9465TIP3    H128359   3.473   2.257   1.029 -0.1900  0.2370 -1.2990
 9465TIP3    H228360   3.518   2.166   0.916 -0.3856 -1.4724 -0.0450
 9466TIP3   OH228361   1.255   0.201   3.719 -0.2754  0.3086 -0.1435
 9466TIP3    H128362   1.321   0.262   3.751  0.3482 -0.2388 -0.3861
 9466TIP3    H228363   1.234   0.232   3.631  0.7960 -0.4190 -0.6695
 9467TIP3   OH228364   5.933   2.097   0.924  0.2996  0.4917  0.0384
 9467TIP3    H128365   5.940   2.058   0.837  0.0717  1.1371 -0.2714
 9467TIP3    H228366   6.023   2.099   0.956  0.5518  1.3937 -0.6920
 9468TIP3   OH228367   3.224   4.808   1.106  0.1633 -0.4697 -0.7683
 9468TIP3    H128368   3.255   4.717   1.103 -0.2121 -0.6598  0.4529
 9468TIP3    H228369   3.195   4.826   1.016 -0.1637 -1.7083 -0.9425
 9469TIP3   OH228370   0.115   3.928   2.559 -0.1490 -0.7397 -0.4211
 9469TIP3    H128371   0.055   3.997   2.529 -1.8376 -1.2817  1.4996
 9469TIP3    H228372   0.077   3.847   2.525  0.9562 -0.9134 -1.3187
 9470TIP3   OH228373   5.753   1.171   2.463 -0.2476  0.4330  0.4127
 9470TIP3    H128374   5.662   1.176   2.434 -0.4750  0.2190  1.0623
 9470TIP3    H228375   5.756   1.227   2.541  0.1228  0.2790  0.5100
 9471TIP3   OH228376   2.384   0.052   0.947  0.3766 -0.0119 -0.0062
 9471TIP3    H128377   2.299   0.096   0.952  0.8416  0.7801  1.6157
 9471TIP3    H228378   2.421   0.061   1.035  2.0296 -0.5811 -0.6029
 9472TIP3   OH228379   2.289   1.121   0.138 -0.0313 -0.4423  0.2007
 9472TIP3    H128380   2.256   1.210   0.148  1.6464 -0.0019  2.8374
 9472TIP3    H228381   2.211   1.068   0.120 -1.0621  1.5087 -1.3802
 9473TIP3   OH228382   4.775   5.369   3.108 -0.0014 -0.1332  0.3577
 9473TIP3    H128383   4.815   5.294   3.064  0.3803 -0.2000  0.8129
 9473TIP3    H228384   4.822   5.376   3.191 -1.3332 -0.5616  1.1563
 9474TIP3   OH228385   4.688   0.243   1.935  0.4291 -0.1423 -0.1114
 9474TIP3    H128386   4.738   0.324   1.926  1.2949 -0.7356 -0.7431
 9474TIP3    H228387   4.656   0.225   1.846 -1.5294  0.5868  0.3732
 9475TIP3   OH228388   6.511   3.699   3.763  0.2916 -0.2559  0.7028
 9475TIP3    H128389   6.478   3.667   3.679  0.6566  1.7655 -0.2872
 9475TIP3    H228390   6.587   3.752   3.739  1.1083 -0.5809  2.4463
 9476TIP3   OH228391   0.754   2.616   4.235  0.4730 -0.6488  0.1752
 9476TIP3    H128392   0.728   2.696   4.188  1.1379 -1.1397 -1.0887
 9476TIP3    H228393   0.671   2.576   4.262 -0.1690 -1.4886 -2.6013
 9477TIP3   OH228394   6.387   3.047   2.703  0.1311 -0.1103  0.2668
 9477TIP3    H128395   6.302   3.006   2.686  0.5860 -1.7828  1.8080
 9477TIP3    H228396   6.371   3.141   2.689 -1.5447 -0.5330 -0.9910
 9478TIP3   OH228397   3.712   5.345   0.509 -0.1335  0.0954 -0.3528
 9478TIP3    H128398   3.680   5.256   0.522 -0.6469  0.5484  1.9927
 9478TIP3    H228399   3.635   5.395   0.481  0.4647 -0.4151 -3.1554
 9479TIP3   OH228400   3.578   3.280   5.521  0.5719  0.0205  0.1022
 9479TIP3    H128401   3.641   3.247   5.584  1.3293  0.2389 -0.5331
 9479TIP3    H228402   3.587   3.222   5.444 -0.7656 -0.6246  0.3944
 9480TIP3   OH228403   0.950   4.050   3.685 -0.4606 -0.1775 -0.6369
 9480TIP3    H128404   0.921   4.129   3.731  0.6772 -0.3040  0.3434
 9480TIP3    H228405   0.982   4.082   3.601  2.3772  0.8345  0.6982
 9481TIP3   OH228406   5.931   3.877   0.109  0.5705 -0.5326 -0.2096
 9481TIP3    H128407   5.999   3.889   0.176  0.2147  0.0641  0.0562
 9481TIP3    H228408   5.966   3.810   0.051  2.0733  0.7792 -0.9164
 9482TIP3   OH228409   1.562   5.704   1.264 -0.0855  0.8585  0.3055
 9482TIP3    H128410   1.592   5.759   1.192 -0.5079  0.8301  0.1041
 9482TIP3    H228411   1.503   5.641   1.222  1.0255 -0.2878  0.3840
 9483TIP3   OH228412   4.660   3.491   4.929  0.0725  0.2147  0.2348
 9483TIP3    H128413   4.700   3.435   4.996  0.9350  0.2683 -0.2324
 9483TIP3    H228414   4.639   3.572   4.975 -2.1969 -0.8159  1.2100
 9484TIP3   OH228415   4.456   6.382   0.773 -0.0301  0.3061  0.5199
 9484TIP3    H128416   4.533   6.394   0.718  0.3061 -1.2466  0.6283
 9484TIP3    H228417   4.490   6.345   0.855 -0.8916 -0.4927  0.5336
 9485TIP3   OH228418   1.227   4.153   5.608 -0.2772  0.1211 -0.2745
 9485TIP3    H128419   1.212   4.114   5.694 -1.5557 -0.1078 -0.5871
 9485TIP3    H228420   1.298   4.215   5.622 -0.8360  0.4900  1.0591
 9486TIP3   OH228421   3.128   3.222   0.368 -0.0583 -0.2868 -0.0668
 9486TIP3    H128422   3.159   3.132   0.353  0.6713 -0.0665  0.0983
 9486TIP3    H228423   3.120   3.259   0.280  0.5278 -0.2173 -0.0898
 9487TIP3   OH228424   3.951   3.358   5.495 -0.4616  0.0486 -0.1670
 9487TIP3    H128425   3.956   3.364   5.400 -0.9786  0.4254 -0.1753
 9487TIP3    H228426   3.970   3.266   5.514  3.1713  0.6149 -0.3389
 9488TIP3   OH228427   0.634   1.995   1.966  0.5712 -0.3705  0.4331
 9488TIP3    H128428   0.635   2.035   1.878 -0.7023  0.8125  0.9101
 9488TIP3    H228429   0.654   1.903   1.951 -2.2442 -0.7957 -1.4798
 9489TIP3   OH228430   4.922   1.000   4.331  0.1607  0.5956 -0.6813
 9489TIP3    H128431   4.956   1.068   4.274  0.4825  1.4903  0.5389
 9489TIP3    H228432   4.977   1.005   4.409 -1.1815  0.3957  0.3045
 9490TIP3   OH228433   0.688   1.550   3.595  0.1866  0.2245 -0.1691
 9490TIP3    H128434   0.713   1.485   3.530  0.1467  0.5128 -0.4746
 9490TIP3    H228435   0.721   1.633   3.561  0.4955  0.3269  0.3598
 9491TIP3   OH228436   4.649   5.159   5.832 -0.6209 -0.0545  0.1949
 9491TIP3    H128437   4.617   5.236   5.880  1.6681  1.4027 -0.4704
 9491TIP3    H228438   4.576   5.097   5.835 -1.7491  1.2456  2.6958
 9492TIP3   OH228439   5.531   1.450   0.124 -0.2279  0.1083 -0.4107
 9492TIP3    H128440   5.521   1.357   0.107  1.2327 -0.1668  0.1164
 9492TIP3    H228441   5.476   1.466   0.201  1.7151 -0.9671  1.2930
 9493TIP3   OH228442   1.786   0.841   0.484  0.4475  0.0112 -0.1704
 9493TIP3    H128443   1.750   0.763   0.527 -2.2824  0.4737 -1.4025
 9493TIP3    H228444   1.821   0.893   0.556 -1.3814 -0.5531  1.2203
 9494TIP3   OH228445   3.482   3.024   3.741 -0.0556  0.3510 -0.3797
 9494TIP3    H128446   3.566   3.000   3.780 -0.6827 -0.1754  0.7094
 9494TIP3    H228447   3.465   3.113   3.771  0.4712  0.7649 -1.2634
 9495TIP3   OH228448   2.950   1.614   5.629 -0.1767 -0.0531 -0.4934
 9495TIP3    H128449   2.979   1.697   5.667  0.4619  0.3739 -1.8557
 9495TIP3    H228450   2.914   1.638   5.543  0.4535 -1.2245 -1.1097
 9496TIP3   OH228451   4.718   1.225   4.088 -0.5078  0.2073 -0.2022
 9496TIP3    H128452   4.719   1.312   4.048  1.2485  0.5824  0.5616
 9496TIP3    H228453   4.647   1.230   4.153 -0.1765  1.2023  0.0982
 9497TIP3   OH228454   1.310   3.842   0.324 -0.1613 -0.5609 -0.1423
 9497TIP3    H128455   1.227   3.886   0.343 -0.3083 -0.2117 -1.5226
 9497TIP3    H228456   1.355   3.840   0.408 -0.3595  1.7804  0.0810
 9498TIP3   OH228457   6.030   6.292   2.659 -0.2617  0.3166  0.1353
 9498TIP3    H128458   6.014   6.304   2.753 -1.4679  0.9600 -0.1172
 9498TIP3    H228459   5.954   6.243   2.628 -0.5543  1.2708 -0.7235
 9499TIP3   OH228460   6.349   2.255   5.173  0.4721 -0.2376 -0.0273
 9499TIP3    H128461   6.274   2.314   5.164  1.6859  1.6556  1.3428
 9499TIP3    H228462   6.314   2.180   5.221 -0.9493 -0.2893 -1.0875
 9500TIP3   OH228463   0.421   0.230   3.457  0.4978 -0.1180 -0.7122
 9500TIP3    H128464   0.349   0.234   3.394  1.9673 -0.2246 -2.5170
 9500TIP3    H228465   0.462   0.317   3.452  1.3723 -0.5252 -0.8617
 9501TIP3   OH228466   4.597   0.763   4.413  0.1097 -0.0369  0.2401
 9501TIP3    H128467   4.537   0.837   4.404  0.3852  0.2226  0.4846
 9501TIP3    H228468   4.563   0.713   4.487 -0.0654 -0.1480  0.0863
 9502TIP3   OH228469   6.777   5.621   2.423 -0.0617 -0.5980 -0.1217
 9502TIP3    H128470   6.828   5.554   2.469 -0.1351  0.2630  1.2895
 9502TIP3    H228471   6.762   5.688   2.490 -0.6170  0.4760 -1.3041
 9503TIP3   OH228472   4.438   2.429   1.290 -0.4460  0.1087  0.0358
 9503TIP3    H128473   4.439   2.338   1.318 -3.0855  0.1596  0.5038
 9503TIP3    H228474   4.404   2.427   1.201  1.7561  0.4971 -0.8676
 9504TIP3   OH228475   1.160   6.478   0.889  0.2938 -0.0039 -0.3101
 9504TIP3    H128476   1.074   6.437   0.899 -0.5481  1.0966 -2.5094
 9504TIP3    H228477   1.221   6.411   0.920 -1.1220 -2.3139 -2.1503
 9505TIP3   OH228478   2.614   4.587   1.973  0.6768  0.3827  0.1851
 9505TIP3    H128479   2.600   4.646   1.899 -0.3458  0.7705  0.6677
 9505TIP3    H228480   2.526   4.561   2.000  1.0953 -2.7545 -1.0621
 9506TIP3   OH228481   6.983   6.591   0.615  0.3508 -0.0792  0.3475
 9506TIP3    H128482   7.033   6.576   0.535  0.6906 -0.0640  0.5526
 9506TIP3    H228483   7.004   6.681   0.640  0.7915 -0.3037  0.8214
 9507TIP3   OH228484   1.074   1.818   0.522 -0.1933 -0.0029 -0.0766
 9507TIP3    H128485   0.980   1.816   0.541  0.0893  0.3512  1.4623
 9507TIP3    H228486   1.095   1.910   0.512  0.2395  0.0224  0.9748
 9508TIP3   OH228487   2.116   3.131   2.024 -0.0650  0.2818  0.2015
 9508TIP3    H128488   2.188   3.080   2.061  2.0615  0.9938 -2.6032
 9508TIP3    H228489   2.116   3.212   2.074 -0.0476 -0.3763  1.3029
 9509TIP3   OH228490   5.555   3.624   0.519  0.2134 -0.1305  0.0843
 9509TIP3    H128491   5.504   3.546   0.496  1.5752 -1.4409  1.3467
 9509TIP3    H228492   5.605   3.643   0.440 -0.9749  0.2042 -0.6230
 9510TIP3   OH228493   1.880   2.670   3.561 -0.3521  0.8390  0.1027
 9510TIP3    H128494   1.934   2.608   3.512 -0.8917  0.0438  0.4910
 9510TIP3    H228495   1.931   2.751   3.562 -0.0403  0.6836 -1.2065
 9511TIP3   OH228496   2.372   3.232   5.839  0.8206  0.6375  0.4656
 9511TIP3    H128497   2.410   3.293   5.902  0.6407  1.5392 -0.2873
 9511TIP3    H228498   2.355   3.285   5.761 -0.7935 -0.0068  0.3403
 9512TIP3   OH228499   4.309   4.337   0.939 -0.4802 -0.8864  0.5027
 9512TIP3    H128500   4.310   4.420   0.891  0.5526 -0.8146  0.6293
 9512TIP3    H228501   4.394   4.333   0.981 -0.7256 -1.7720  0.9293
 9513TIP3   OH228502   5.620   3.871   2.268  0.2720  0.1486  0.3513
 9513TIP3    H128503   5.698   3.926   2.258  0.7496 -0.5491  0.1764
 9513TIP3    H228504   5.648   3.798   2.323  0.7169 -1.8628 -2.3342
 9514TIP3   OH228505   4.191   3.468   4.753 -0.0753  0.1554 -0.2717
 9514TIP3    H128506   4.161   3.423   4.674 -1.7580 -0.7827  0.8306
 9514TIP3    H228507   4.281   3.492   4.734 -0.3627 -0.2094 -2.3911
 9515TIP3   OH228508   4.766   4.399   0.762 -0.2829  0.2019 -0.5622
 9515TIP3    H128509   4.768   4.486   0.801 -1.0220 -0.5071  1.1575
 9515TIP3    H228510   4.675   4.371   0.772 -0.1116 -0.6662 -1.3321
 9516TIP3   OH228511   0.697   0.350   2.365 -0.2012 -0.2107 -0.2795
 9516TIP3    H128512   0.719   0.398   2.285  1.7921  0.7730  0.7680
 9516TIP3    H228513   0.782   0.327   2.403 -1.1078 -2.2872  0.6380
 9517TIP3   OH228514   0.668   2.178   3.917 -1.4920  0.2708 -0.2580
 9517TIP3    H128515   0.676   2.271   3.938 -0.8703  0.4042 -1.0728
 9517TIP3    H228516   0.637   2.175   3.827 -1.7576 -0.3174 -0.1566
 9518TIP3   OH228517   2.169   1.341   2.624 -0.1653  0.0740 -0.2179
 9518TIP3    H128518   2.095   1.293   2.662  0.8646 -1.1298  0.3301
 9518TIP3    H228519   2.246   1.289   2.647  0.8497  1.2113 -0.9196
 9519TIP3   OH228520   0.795   0.369   0.838  0.4410 -0.1413  0.0136
 9519TIP3    H128521   0.799   0.451   0.788 -0.0579 -0.8851 -1.3108
 9519TIP3    H228522   0.860   0.313   0.796  1.6935 -0.0417  1.7190
 9520TIP3   OH228523   3.669   5.808   1.158 -0.4551 -0.2477  0.0390
 9520TIP3    H128524   3.737   5.858   1.203  0.4276 -1.7853  0.4596
 9520TIP3    H228525   3.618   5.767   1.228 -0.6110 -0.6668 -0.3126
 9521TIP3   OH228526   3.358   4.704   2.456 -0.2974 -0.4075  0.1119
 9521TIP3    H128527   3.438   4.713   2.404 -0.1975  1.6394  0.5682
 9521TIP3    H228528   3.310   4.633   2.413  2.1221 -2.3676  0.3503
 9522TIP3   OH228529   3.066   6.311   0.367 -0.1284  0.7049 -0.6400
 9522TIP3    H128530   3.098   6.255   0.437  0.4939 -0.3543 -1.7472
 9522TIP3    H228531   2.972   6.291   0.360  0.0296  0.0123 -0.8254
 9523TIP3   OH228532   6.298   2.966   3.241  0.0946 -0.1333  0.8745
 9523TIP3    H128533   6.215   2.924   3.265 -0.5994  1.3951  1.2736
 9523TIP3    H228534   6.343   2.981   3.325 -0.8570  2.2310  1.0424
 9524TIP3   OH228535   5.860   1.802   4.961  0.5578  0.0212  0.1447
 9524TIP3    H128536   5.904   1.885   4.980 -0.1937  0.4136  0.1988
 9524TIP3    H228537   5.931   1.738   4.956  0.9686  0.2325  2.4125
 9525TIP3   OH228538   4.248   1.651   5.178  0.2074 -0.1653 -0.2993
 9525TIP3    H128539   4.239   1.708   5.253 -2.2726 -0.3633 -0.3702
 9525TIP3    H228540   4.164   1.656   5.133  0.5868 -2.3270 -1.4111
 9526TIP3   OH228541   2.264   1.980   2.394 -0.6445  0.3548 -0.0711
 9526TIP3    H128542   2.252   2.046   2.462 -1.7961 -0.2561  0.3527
 9526TIP3    H228543   2.357   1.956   2.400 -0.5654  0.8279  0.7931
 9527TIP3   OH228544   5.432   4.664   4.068  0.0078  0.3408 -0.3769
 9527TIP3    H128545   5.493   4.620   4.008  0.6598 -0.1950  0.6519
 9527TIP3    H228546   5.470   4.750   4.082  0.5640 -0.0083  0.2978
 9528TIP3   OH228547   5.172   5.718   4.441  0.7294 -0.5884  0.3936
 9528TIP3    H128548   5.193   5.699   4.350 -0.2653  0.2572 -0.0263
 9528TIP3    H228549   5.254   5.701   4.488  1.7879  0.6914 -0.8899
 9529TIP3   OH228550   7.188   0.891   5.003  0.8317  0.2498  0.3831
 9529TIP3    H128551   7.115   0.876   4.943 -0.3591  0.5891  1.7073
 9529TIP3    H228552   7.208   0.984   4.992 -0.4162  0.6931  1.5841
 9530TIP3   OH228553   0.439   4.956   2.118 -0.1620 -0.7894  0.6477
 9530TIP3    H128554   0.445   4.997   2.205  0.5253 -1.1059  0.7568
 9530TIP3    H228555   0.466   4.866   2.132 -0.7175 -1.0261  0.2245
 9531TIP3   OH228556   4.018   3.709   4.530  0.3848  0.0153 -0.3122
 9531TIP3    H128557   3.974   3.683   4.611  0.1753  0.4347 -0.2882
 9531TIP3    H228558   3.947   3.741   4.474  0.6934  1.0057 -0.1523
 9532TIP3   OH228559   5.711   2.701   3.650 -0.8053  0.4752 -0.6845
 9532TIP3    H128560   5.724   2.683   3.557  0.8721 -0.8249 -0.2452
 9532TIP3    H228561   5.757   2.784   3.664  0.9218 -0.4390 -0.6196
 9533TIP3   OH228562   5.947   2.253   3.209 -0.2194  0.2283  0.3637
 9533TIP3    H128563   5.892   2.229   3.134 -0.3687 -0.4169  0.6684
 9533TIP3    H228564   5.888   2.254   3.284  0.0540  0.1979  0.5849
 9534TIP3   OH228565   6.771   3.835   4.314  0.2754 -0.6117 -0.5210
 9534TIP3    H128566   6.692   3.885   4.294 -0.2427 -1.4799 -0.7328
 9534TIP3    H228567   6.764   3.757   4.258  1.7514 -0.2623 -1.2182
 9535TIP3   OH228568   0.648   0.775   4.351 -0.1799  0.2857 -0.3804
 9535TIP3    H128569   0.734   0.759   4.389  0.0191 -0.7054 -1.2211
 9535TIP3    H228570   0.645   0.870   4.339  0.6350  0.3692  0.0192
 9536TIP3   OH228571   6.198   6.611   1.876  0.2906  0.3772  0.8237
 9536TIP3    H128572   6.135   6.554   1.920 -1.0419  2.2674  1.4709
 9536TIP3    H228573   6.251   6.551   1.823  0.1036 -1.6616  2.7761
 9537TIP3   OH228574   6.420   6.712   2.804  0.3709  0.1274 -0.4472
 9537TIP3    H128575   6.413   6.800   2.839  2.5476  0.7289 -1.3467
 9537TIP3    H228576   6.356   6.661   2.853  0.5087  1.7551  1.5261
 9538TIP3   OH228577   4.840   5.100   3.569  0.4814  0.1266 -0.2593
 9538TIP3    H128578   4.750   5.093   3.538  0.3120  4.1288 -1.1634
 9538TIP3    H228579   4.833   5.117   3.663  0.0202  2.9527 -0.7301
 9539TIP3   OH228580   2.958   0.716   2.474  0.1442  0.0285 -0.3102
 9539TIP3    H128581   3.002   0.696   2.557  0.2706 -1.5719 -0.7324
 9539TIP3    H228582   3.021   0.690   2.407 -0.2946  0.5004 -0.9077
 9540TIP3   OH228583   2.573   1.934   2.449  0.2404 -0.3161  0.2527
 9540TIP3    H128584   2.617   2.019   2.455 -0.5234  0.0891  0.3059
 9540TIP3    H228585   2.554   1.910   2.540  0.1471 -0.3817  0.2156
 9541TIP3   OH228586   0.775   5.102   3.279  0.0538  0.2358 -0.0790
 9541TIP3    H128587   0.790   5.087   3.372 -0.1730  2.2531  0.3287
 9541TIP3    H228588   0.821   5.030   3.235  0.3894 -0.5993  1.5590
 9542TIP3   OH228589   2.879   4.238   3.797 -0.1085  0.0702  0.7064
 9542TIP3    H128590   2.887   4.258   3.703  1.2368  0.4204  0.8716
 9542TIP3    H228591   2.915   4.149   3.805  4.2450  1.6590  1.4691
 9543TIP3   OH228592   7.045   3.759   1.039  0.0968  0.3667  0.5350
 9543TIP3    H128593   7.016   3.850   1.049  2.3058  1.0154  1.7277
 9543TIP3    H228594   7.138   3.762   1.059  0.4979 -1.9773 -0.6925
 9544TIP3   OH228595   5.641   6.767   1.764  0.3855  0.0271 -0.0214
 9544TIP3    H128596   5.596   6.800   1.841  0.7258  1.1518 -0.2859
 9544TIP3    H228597   5.734   6.784   1.781  0.7997 -2.4317  0.6054
 9545TIP3   OH228598   2.309   3.728   0.721 -1.1823  0.1639 -0.1381
 9545TIP3    H128599   2.349   3.656   0.769 -2.6883 -0.0492  0.8527
 9545TIP3    H228600   2.306   3.800   0.783  0.1477  1.0495 -1.0691
 9546TIP3   OH228601   0.885   6.379   5.366  0.0215  0.6162  0.2516
 9546TIP3    H128602   0.878   6.431   5.446  0.9300  1.2076 -0.0394
 9546TIP3    H228603   0.978   6.356   5.360  0.2500  1.7936 -1.3761
 9547TIP3   OH228604   4.281   4.650   1.484  0.4106  0.6943  0.2988
 9547TIP3    H128605   4.374   4.645   1.507  0.8136  1.2461 -1.0759
 9547TIP3    H228606   4.281   4.653   1.388 -0.9699  1.8047  0.3090
 9548TIP3   OH228607   3.798   1.952   1.070  0.5590  0.3664  0.3618
 9548TIP3    H128608   3.725   1.974   1.012  1.8213 -0.0450 -1.4775
 9548TIP3    H228609   3.825   2.037   1.106  0.4097  0.8032 -0.5067
 9549TIP3   OH228610   6.652   4.507   5.531  0.3205 -0.3206  0.3184
 9549TIP3    H128611   6.632   4.554   5.611 -0.2858 -0.4955  0.2737
 9549TIP3    H228612   6.586   4.537   5.468  1.7126  0.9929 -0.5892
 9550TIP3   OH228613   3.745   5.719   3.060  0.2638 -0.1735  0.4612
 9550TIP3    H128614   3.668   5.670   3.031  0.6530 -1.4886  1.5771
 9550TIP3    H228615   3.818   5.679   3.013  0.4402  0.1758  0.4324
 9551TIP3   OH228616   5.312   1.027   3.861  0.3087 -0.1485  0.0472
 9551TIP3    H128617   5.407   1.027   3.877  0.1686  1.4209  1.1169
 9551TIP3    H228618   5.276   0.975   3.932  0.3358 -0.7419 -0.3576
 9552TIP3   OH228619   5.532   2.428   3.227 -0.0020  0.2030  0.2688
 9552TIP3    H128620   5.562   2.411   3.138 -0.5860  0.7867 -0.0519
 9552TIP3    H228621   5.603   2.398   3.283  0.6884  0.5269 -0.4232
 9553TIP3   OH228622   4.204   3.052   3.741 -0.5417 -0.0605  0.1280
 9553TIP3    H128623   4.244   2.986   3.684 -1.6193 -1.3817  0.8425
 9553TIP3    H228624   4.174   3.003   3.817 -2.2554  1.0877  0.2491
 9554TIP3   OH228625   0.385   2.672   4.794  0.3661 -0.3758 -0.0414
 9554TIP3    H128626   0.463   2.686   4.846  0.3879 -1.1862  0.1557
 9554TIP3    H228627   0.336   2.604   4.841 -0.5795  0.2896 -0.0234
 9555TIP3   OH228628   5.023   2.170   3.946 -0.0925 -0.4105  0.4992
 9555TIP3    H128629   5.018   2.105   3.876  0.1964 -0.8539  0.8850
 9555TIP3    H228630   4.938   2.166   3.989  0.0430 -0.7692  0.7317
 9556TIP3   OH228631   1.740   1.295   4.467  0.2684  0.6658  0.8904
 9556TIP3    H128632   1.751   1.333   4.554  0.4574  0.9017  0.7670
 9556TIP3    H228633   1.688   1.359   4.419 -0.2719  0.3013  0.9786
 9557TIP3   OH228634   3.076   1.727   2.137 -0.2317  0.0009 -0.3248
 9557TIP3    H128635   3.136   1.703   2.209 -0.7149 -0.2306  0.0091
 9557TIP3    H228636   3.017   1.792   2.176 -1.0714 -0.7924 -0.2333
 9558TIP3   OH228637   4.671   3.886   1.442  0.2411 -0.5832  0.3355
 9558TIP3    H128638   4.587   3.917   1.477  0.6798 -0.1974  1.0482
 9558TIP3    H228639   4.724   3.965   1.433  1.5330 -1.1310  2.5850
 9559TIP3   OH228640   5.474   4.715   1.470 -0.3949 -0.2577 -0.3030
 9559TIP3    H128641   5.459   4.620   1.470  0.6526 -0.4367 -0.4217
 9559TIP3    H228642   5.429   4.746   1.392  1.2067 -1.0120 -1.5733
 9560TIP3   OH228643   1.905   5.254   4.539 -0.3555 -0.0600  0.1384
 9560TIP3    H128644   1.968   5.325   4.544 -0.1347 -0.3370  1.9412
 9560TIP3    H228645   1.843   5.272   4.610 -1.4872 -0.5629 -0.6968
 9561TIP3   OH228646   2.960   3.705   0.342 -0.0415 -0.4853  0.1903
 9561TIP3    H128647   2.939   3.642   0.274  0.7529  0.3009 -0.8170
 9561TIP3    H228648   3.008   3.775   0.297 -0.3918  0.5643  1.3647
 9562TIP3   OH228649   0.870   4.389   5.066  0.0879  0.3373 -0.0913
 9562TIP3    H128650   0.831   4.437   5.139  0.2769 -0.6199  0.6588
 9562TIP3    H228651   0.965   4.401   5.077  0.1484 -0.3598  0.2318
 9563TIP3   OH228652   0.627   6.438   0.240 -0.0084 -0.1262  0.2577
 9563TIP3    H128653   0.715   6.401   0.252  0.0643 -0.4283 -1.0358
 9563TIP3    H228654   0.568   6.375   0.281  0.3312 -0.1731  0.6851
 9564TIP3   OH228655   2.517   1.675   2.372 -0.2066  0.2570 -0.3860
 9564TIP3    H128656   2.518   1.762   2.412 -2.0653  1.0311 -1.8885
 9564TIP3    H228657   2.609   1.654   2.358  0.3099  1.6977  0.5652
 9565TIP3   OH228658   2.688   2.691   3.205 -0.1447  0.0761  0.4170
 9565TIP3    H128659   2.663   2.749   3.133 -0.1423 -0.6490 -0.1737
 9565TIP3    H228660   2.608   2.680   3.256 -0.5198 -0.5673 -0.2941
 9566TIP3   OH228661   1.266   4.393   5.269 -0.3673 -0.1645  0.1926
 9566TIP3    H128662   1.213   4.470   5.290 -2.5356 -1.7392  0.8790
 9566TIP3    H228663   1.356   4.421   5.282 -1.1686  1.6093  2.6772
 9567TIP3   OH228664   3.236   5.091   5.397  0.2447  0.6208  0.2198
 9567TIP3    H128665   3.303   5.023   5.404  0.8014  1.1458  0.0666
 9567TIP3    H228666   3.175   5.058   5.331  1.0828  0.7324 -0.6341
 9568TIP3   OH228667   1.321   5.008   2.672  0.0840  0.6203 -0.2188
 9568TIP3    H128668   1.356   4.925   2.639  1.6008  1.3079 -0.4205
 9568TIP3    H228669   1.230   5.009   2.643 -0.2147 -1.3334  0.4845
 9569TIP3   OH228670   1.420   0.039   3.557 -0.5012  0.3040 -0.4308
 9569TIP3    H128671   1.376   0.068   3.636 -1.5437  0.7800 -1.1659
 9569TIP3    H228672   1.371   0.079   3.485 -0.8700 -1.7581 -1.4153
 9570TIP3   OH228673   4.510   0.132   4.597 -0.2913 -0.2374 -0.0554
 9570TIP3    H128674   4.553   0.218   4.596  0.1726 -0.4629 -0.0679
 9570TIP3    H228675   4.417   0.151   4.603 -0.1050  0.2405  1.9192
 9571TIP3   OH228676   0.401   6.370   3.656  0.0369 -0.5612 -0.1494
 9571TIP3    H128677   0.359   6.387   3.571 -0.0573 -0.2517 -0.0402
 9571TIP3    H228678   0.447   6.287   3.643 -0.8973 -1.0922 -0.1610
 9572TIP3   OH228679   5.936   0.971   1.787 -0.2653 -0.2830 -0.2633
 9572TIP3    H128680   5.965   0.882   1.770 -0.4760 -0.3724 -0.1504
 9572TIP3    H228681   5.858   0.982   1.733 -0.2769 -0.1878 -0.2274
 9573TIP3   OH228682   4.875   1.186   1.038 -0.0203  0.6221  0.5628
 9573TIP3    H128683   4.847   1.095   1.052 -0.4279  0.4545 -1.0422
 9573TIP3    H228684   4.970   1.184   1.047  0.2624 -0.5297 -1.8194
 9574TIP3   OH228685   1.603   6.209   0.970  0.3801 -0.4214  0.1801
 9574TIP3    H128686   1.661   6.157   1.025 -0.7842 -2.5607 -0.4929
 9574TIP3    H228687   1.633   6.193   0.880 -0.3557 -0.4125 -0.0790
 9575TIP3   OH228688   2.659   1.226   2.558 -0.1334 -0.0356 -0.5045
 9575TIP3    H128689   2.595   1.287   2.522  0.6356  1.0911 -0.0272
 9575TIP3    H228690   2.731   1.228   2.495 -0.1337 -0.5044 -0.5196
 9576TIP3   OH228691   1.973   5.722   0.951 -0.2117  0.2083 -0.0734
 9576TIP3    H128692   2.062   5.688   0.937  0.1146  0.0996  1.9335
 9576TIP3    H228693   1.916   5.647   0.932  0.2147 -0.1318 -0.0226
 9577TIP3   OH228694   4.836   2.554   1.759 -0.8301 -0.5232  0.2069
 9577TIP3    H128695   4.793   2.639   1.747 -1.4464 -0.5800  1.8648
 9577TIP3    H228696   4.912   2.572   1.814  0.4896 -0.6746 -1.4853
 9578TIP3   OH228697   0.488   1.747   1.444 -0.3682  0.4010  0.0536
 9578TIP3    H128698   0.455   1.834   1.467  1.6645  1.3993 -0.5896
 9578TIP3    H228699   0.527   1.759   1.357 -1.6009 -1.6072 -0.8409
 9579TIP3   OH228700   3.908   1.838   5.232 -0.2553 -0.1661 -0.4234
 9579TIP3    H128701   3.886   1.856   5.141 -1.3216  0.6285 -0.0356
 9579TIP3    H228702   3.850   1.895   5.282 -0.6568 -1.5716  0.7871
 9580TIP3   OH228703   5.523   4.680   5.613  0.0052 -0.5294  0.1362
 9580TIP3    H128704   5.464   4.643   5.679 -0.9269  0.9470  0.1944
 9580TIP3    H228705   5.520   4.618   5.540  1.7315 -2.6418  1.7464
 9581TIP3   OH228706   2.743   3.121   1.191  0.6568 -0.0126  0.1547
 9581TIP3    H128707   2.721   3.193   1.132  0.3622 -0.8777 -0.8403
 9581TIP3    H228708   2.665   3.110   1.245  0.0789 -0.5545 -0.7442
 9582TIP3   OH228709   3.936   2.737   0.950 -0.1662 -0.2748  0.7053
 9582TIP3    H128710   3.933   2.699   1.037 -0.9177 -2.7743 -0.3222
 9582TIP3    H228711   3.845   2.763   0.932  0.0270  0.4355  0.7359
 9583TIP3   OH228712   1.902   0.325   4.690  0.1593 -0.2074  0.6874
 9583TIP3    H128713   1.966   0.280   4.746  1.5339 -0.2083 -0.8135
 9583TIP3    H228714   1.880   0.405   4.739  0.6711 -0.6012  1.6011
 9584TIP3   OH228715   4.938   5.730   4.562 -0.3942  0.3383  0.1489
 9584TIP3    H128716   4.968   5.802   4.618 -0.7299  1.3052 -0.8804
 9584TIP3    H228717   5.011   5.714   4.503 -0.8969  0.9209 -0.6523
 9585TIP3   OH228718   1.492   0.349   5.239 -0.3013 -0.3623  0.7616
 9585TIP3    H128719   1.521   0.392   5.319  0.0686 -0.4539  0.6804
 9585TIP3    H228720   1.443   0.272   5.270  1.6864 -1.6325  0.9262
 9586TIP3   OH228721   5.251   3.594   3.322 -0.4453  0.4363 -0.3999
 9586TIP3    H128722   5.236   3.678   3.364 -0.1278  0.5661 -0.5507
 9586TIP3    H228723   5.318   3.551   3.375 -1.4539 -0.2264  0.3835
 9587TIP3   OH228724   5.636   5.561   4.594 -0.1095 -0.7878  0.0986
 9587TIP3    H128725   5.731   5.556   4.606 -0.0076 -0.8625 -0.6850
 9587TIP3    H228726   5.615   5.486   4.539 -1.0627 -2.5638  2.6502
 9588TIP3   OH228727   6.677   0.249   4.251  0.2496  0.1111 -0.3255
 9588TIP3    H128728   6.686   0.266   4.157 -0.2435  2.5251 -0.0152
 9588TIP3    H228729   6.602   0.189   4.257 -0.0863  0.3813 -1.4531
 9589TIP3   OH228730   2.708   0.770   2.380 -1.0285 -0.1558  0.2706
 9589TIP3    H128731   2.663   0.691   2.409  0.1194 -0.4914  1.2036
 9589TIP3    H228732   2.798   0.759   2.410 -0.7015  1.2300 -0.1268
 9590TIP3   OH228733   2.985   3.155   1.976 -0.4899 -0.2089  0.0547
 9590TIP3    H128734   3.003   3.110   2.059  1.6734  0.1238 -0.1970
 9590TIP3    H228735   3.059   3.214   1.964 -1.6942  1.1052 -1.2213
 9591TIP3   OH228736   0.989   0.985   5.753  0.4445  0.3280 -0.0901
 9591TIP3    H128737   0.991   1.064   5.700 -3.7727  0.5399 -0.2669
 9591TIP3    H228738   0.915   0.997   5.813 -0.9403 -3.6958 -0.6598
 9592TIP3   OH228739   2.673   4.279   0.167 -0.4327  0.0912  0.7901
 9592TIP3    H128740   2.613   4.300   0.239 -2.6979  1.7207 -1.4018
 9592TIP3    H228741   2.693   4.364   0.127  0.9432 -0.7411 -0.3824
 9593TIP3   OH228742   0.220   4.538   1.195  0.7421  0.2878 -0.5267
 9593TIP3    H128743   0.305   4.577   1.215  1.0413  1.3381 -3.3470
 9593TIP3    H228744   0.242   4.459   1.146  0.0498 -1.0933  1.2692
 9594TIP3   OH228745   3.726   5.273   1.490  0.1487  0.0646 -0.0807
 9594TIP3    H128746   3.691   5.185   1.507 -0.5665  0.4113  0.2528
 9594TIP3    H228747   3.821   5.261   1.491  0.0885 -0.4440  1.4235
 9595TIP3   OH228748   0.627   1.409   1.669  0.2374  0.2204 -0.1370
 9595TIP3    H128749   0.668   1.494   1.684  1.3092 -0.1576 -0.7087
 9595TIP3    H228750   0.698   1.346   1.684  0.0674 -0.4283 -1.7738
 9596TIP3   OH228751   6.957   1.868   0.414  0.3995 -0.8056  0.0060
 9596TIP3    H128752   6.969   1.946   0.468 -1.9895  0.1792 -0.7375
 9596TIP3    H228753   7.043   1.853   0.374  1.3007  0.5110  1.3428
 9597TIP3   OH228754   3.812   6.130   2.679  0.1486  0.3951 -0.5974
 9597TIP3    H128755   3.831   6.208   2.627 -1.1701  1.5734  0.5863
 9597TIP3    H228756   3.748   6.081   2.628 -1.2005  1.5849 -0.0987
 9598TIP3   OH228757   4.917   1.457   1.973  0.5103 -0.1505  0.7700
 9598TIP3    H128758   4.987   1.399   1.942  1.2976  1.4990 -0.6700
 9598TIP3    H228759   4.957   1.505   2.046  0.6229  0.2088  0.4747
 9599TIP3   OH228760   1.724   0.256   1.739  0.1425  0.3232 -0.0882
 9599TIP3    H128761   1.658   0.323   1.723 -0.8099 -0.6810 -0.4640
 9599TIP3    H228762   1.707   0.226   1.828 -1.5221 -1.6309 -0.9950
 9600TIP3   OH228763   0.902   3.918   3.925  0.0756  0.1963 -0.0596
 9600TIP3    H128764   0.956   3.970   3.985  0.2994  0.0942 -0.1681
 9600TIP3    H228765   0.939   3.937   3.838 -0.5681  0.7359 -0.2160
 9601TIP3   OH228766   0.603   3.063   4.823  0.1148 -0.3874  0.5343
 9601TIP3    H128767   0.656   3.080   4.745 -0.9914  0.6227 -0.0277
 9601TIP3    H228768   0.516   3.096   4.800 -0.0567  0.6081  2.4645
 9602TIP3   OH228769   2.897   1.185   1.875 -0.0398 -0.0152 -0.2491
 9602TIP3    H128770   2.855   1.198   1.789  1.5835 -0.1320 -1.0943
 9602TIP3    H228771   2.977   1.136   1.856  0.9414  0.9432  1.1744
 9603TIP3   OH228772   6.720   3.940   3.403  0.2913 -0.2692  0.3744
 9603TIP3    H128773   6.795   3.995   3.379  0.5607 -1.1482 -0.9138
 9603TIP3    H228774   6.745   3.852   3.375 -1.1850 -0.5966  0.0058
 9604TIP3   OH228775   5.743   0.355   0.254 -0.1467  1.1587 -0.0913
 9604TIP3    H128776   5.720   0.366   0.162  1.6486  1.4439 -0.5453
 9604TIP3    H228777   5.660   0.365   0.301 -1.4476 -0.8841 -1.7713
 9605TIP3   OH228778   4.186   3.178   2.531 -0.3438  0.3146 -0.1708
 9605TIP3    H128779   4.173   3.169   2.626  1.1801  0.5192  0.0794
 9605TIP3    H228780   4.274   3.215   2.522 -0.6386  0.7214 -1.6633
 9606TIP3   OH228781   4.155   4.353   0.194 -0.6035 -0.1986  0.6766
 9606TIP3    H128782   4.213   4.360   0.269  0.6111  0.9595 -0.3307
 9606TIP3    H228783   4.088   4.420   0.208 -1.0094 -0.7091  1.2324
 9607TIP3   OH228784   1.948   0.148   1.585  0.8603  0.0887 -0.2485
 9607TIP3    H128785   1.889   0.086   1.543  0.9406  0.2419 -0.5844
 9607TIP3    H228786   1.895   0.188   1.654  1.0857 -1.0388  0.6036
 9608TIP3   OH228787   2.001   0.925   2.377  0.3473  0.1249 -0.2408
 9608TIP3    H128788   2.048   0.845   2.351  0.6130  0.7261 -1.7401
 9608TIP3    H228789   1.975   0.909   2.467  3.3316 -0.3121  0.6673
 9609TIP3   OH228790   1.713   4.098   1.029  0.3283  0.6041 -0.2967
 9609TIP3    H128791   1.715   4.019   0.975  0.0560 -0.3157  0.9969
 9609TIP3    H228792   1.661   4.160   0.978  1.0251  0.1531 -1.5925
 9610TIP3   OH228793   6.177   0.937   3.622  0.0996  0.7037 -0.3638
 9610TIP3    H128794   6.184   0.919   3.528 -0.1740  0.7075 -0.3877
 9610TIP3    H228795   6.154   1.030   3.627  0.4393  0.7821 -0.2809
 9611TIP3   OH228796   1.354   4.625   4.673  0.1687  0.3945 -0.7103
 9611TIP3    H128797   1.268   4.656   4.698  0.3379  0.4547 -0.1969
 9611TIP3    H228798   1.362   4.539   4.714  0.9691  1.0548  0.5890
 9612TIP3   OH228799   5.849   4.849   0.075  0.4525  0.2019  0.1358
 9612TIP3    H128800   5.832   4.905  -0.000  1.0214 -0.7689 -0.7373
 9612TIP3    H228801   5.943   4.831   0.071  0.2863 -0.7956  0.4116
 9613TIP3   OH228802   2.278   3.748   4.024  0.0484  0.0516 -0.5556
 9613TIP3    H128803   2.239   3.783   4.104 -0.4518 -0.7853 -0.4115
 9613TIP3    H228804   2.270   3.818   3.960 -1.4454  0.0287 -0.4443
 9614TIP3   OH228805   7.146   6.570   3.864  0.3961 -0.1621  0.1344
 9614TIP3    H128806   7.240   6.563   3.842  0.3749  0.6004 -0.2246
 9614TIP3    H228807   7.114   6.642   3.810 -0.3581 -0.2779  0.4154
 9615TIP3   OH228808   3.126   0.170   0.262  0.0531  0.4727 -0.2542
 9615TIP3    H128809   3.050   0.211   0.304 -0.7433  0.1406 -1.3262
 9615TIP3    H228810   3.113   0.076   0.274 -0.3090  0.3595 -1.4193
 9616TIP3   OH228811   7.070   2.339   5.647  0.3115 -0.0426  0.1332
 9616TIP3    H128812   7.080   2.351   5.553 -0.0765  2.1250  0.3213
 9616TIP3    H228813   7.026   2.418   5.677  0.1031 -0.8417  2.0992
 9617TIP3   OH228814   3.829   3.293  -0.020  0.0335  0.0815 -0.1227
 9617TIP3    H128815   3.741   3.327  -0.007 -0.3251 -0.4717 -0.9847
 9617TIP3    H228816   3.833   3.215   0.035  0.7936  1.3514  1.7084
 9618TIP3   OH228817   3.783   3.889   4.054  0.9747 -0.0840 -0.3064
 9618TIP3    H128818   3.709   3.931   4.010  1.6562 -0.0083 -1.3999
 9618TIP3    H228819   3.854   3.953   4.048  1.4970 -0.6659 -0.3975
 9619TIP3   OH228820   6.639   5.434   2.624  0.1887  0.3208 -0.6568
 9619TIP3    H128821   6.663   5.364   2.684  1.1173  0.1997 -1.1528
 9619TIP3    H228822   6.578   5.489   2.674  1.2519  0.4449  0.5413
 9620TIP3   OH228823   6.393   1.490   2.984 -0.4929  0.5032 -0.1584
 9620TIP3    H128824   6.319   1.474   2.926  0.0371 -0.9165 -0.4748
 9620TIP3    H228825   6.379   1.429   3.057  1.6283 -1.6734 -1.4261
 9621TIP3   OH228826   7.148   4.163   1.188  0.6278  0.3013 -0.2117
 9621TIP3    H128827   7.224   4.158   1.131 -1.1273 -1.2110 -2.6168
 9621TIP3    H228828   7.104   4.245   1.165  0.7614  0.4788  0.1520
 9622TIP3   OH228829   0.513   0.704   2.181  0.7399 -0.3612  0.2111
 9622TIP3    H128830   0.525   0.772   2.115 -0.2606 -0.2157  0.1604
 9622TIP3    H228831   0.419   0.684   2.178  1.2573 -2.9583 -0.9716
 9623TIP3   OH228832   4.379   2.000   1.117  0.1843  0.4834  0.1458
 9623TIP3    H128833   4.415   2.083   1.085  2.0897 -0.7878 -1.2733
 9623TIP3    H228834   4.363   1.949   1.038 -1.6066 -0.2956  0.9576
 9624TIP3   OH228835   5.800   4.080   2.302  0.7441 -0.1393 -0.2233
 9624TIP3    H128836   5.867   4.016   2.326  1.5306  0.1471 -1.5526
 9624TIP3    H228837   5.837   4.128   2.228 -0.6224  0.5557 -0.5022
 9625TIP3   OH228838   4.765   4.068   1.756 -0.1539  0.2852  0.1964
 9625TIP3    H128839   4.813   4.088   1.676  0.7879  0.4471  0.7900
 9625TIP3    H228840   4.833   4.054   1.822 -0.9059 -0.2686  0.8741
 9626TIP3   OH228841   7.149   3.255   2.519 -0.9197  0.1857 -0.3162
 9626TIP3    H128842   7.237   3.287   2.535 -1.1553 -0.1045  1.8063
 9626TIP3    H228843   7.104   3.329   2.478  0.2765  0.3147 -1.4817
 9627TIP3   OH228844   5.537   3.092   4.874  0.3569 -0.1553  1.1514
 9627TIP3    H128845   5.472   3.027   4.900 -0.7085 -0.1119 -1.1459
 9627TIP3    H228846   5.487   3.158   4.827  2.0929 -0.5258 -1.4007
 9628TIP3   OH228847   5.335   2.747   0.632 -0.1535 -0.5504 -0.6381
 9628TIP3    H128848   5.408   2.689   0.655 -0.3104 -0.3395  0.4438
 9628TIP3    H228849   5.261   2.688   0.616 -0.3562 -0.6628  0.6288
 9629TIP3   OH228850   2.898   6.134   3.169  0.4504  0.3204  0.7770
 9629TIP3    H128851   2.810   6.099   3.184 -0.4503  1.5710 -1.2341
 9629TIP3    H228852   2.947   6.061   3.132  0.4086 -0.4819  2.2151
 9630TIP3   OH228853   1.184   2.819   4.073  0.6559  0.3984  0.8094
 9630TIP3    H128854   1.245   2.764   4.123 -0.4501  1.4410  3.5191
 9630TIP3    H228855   1.119   2.757   4.039 -0.0946 -0.1763  3.0826
 9631TIP3   OH228856   2.629   5.231   0.904 -0.1326 -0.3052  0.5441
 9631TIP3    H128857   2.559   5.285   0.940 -0.1050 -0.1664  0.3928
 9631TIP3    H228858   2.687   5.293   0.860 -1.0253 -0.5991 -1.1704
 9632TIP3   OH228859   0.947   6.491   2.226  0.2944 -0.3455 -0.5754
 9632TIP3    H128860   0.959   6.495   2.321 -0.2886  0.8584 -0.5338
 9632TIP3    H228861   0.930   6.398   2.208 -1.3265 -0.3490  0.7288
 9633TIP3   OH228862   4.512   2.060   5.404  0.4146 -0.7349  0.5387
 9633TIP3    H128863   4.476   2.146   5.429 -0.9830 -0.7417 -1.2603
 9633TIP3    H228864   4.470   1.998   5.464  0.2409 -0.3418  0.8322
 9634TIP3   OH228865   1.733   6.501   3.076 -0.0279  0.7687 -0.0849
 9634TIP3    H128866   1.646   6.491   3.112  0.7746 -2.9326  1.2484
 9634TIP3    H228867   1.723   6.481   2.983 -0.5625  0.0940  0.1152
 9635TIP3   OH228868   4.968   5.975   1.929 -0.3930  0.0138 -0.3626
 9635TIP3    H128869   4.907   5.901   1.938 -1.4835  0.6486 -1.9852
 9635TIP3    H228870   5.028   5.948   1.860 -0.0420  0.1696 -0.1206
 9636TIP3   OH228871   5.913   1.440   2.922 -0.0627  0.3852 -0.3567
 9636TIP3    H128872   5.842   1.453   2.985  0.6739 -0.7713  0.7678
 9636TIP3    H228873   5.925   1.526   2.881 -1.9840  0.6342 -0.4711
 9637TIP3   OH228874   6.183   0.653   2.342  0.5830 -0.3646  0.4634
 9637TIP3    H128875   6.129   0.608   2.407 -0.9320  1.2366  0.3948
 9637TIP3    H228876   6.152   0.744   2.344 -0.3523 -0.4275 -3.2519
 9638TIP3   OH228877   0.171   6.264   2.715  0.2178  0.1492 -0.0622
 9638TIP3    H128878   0.129   6.225   2.639 -1.9202  1.4353  0.3561
 9638TIP3    H228879   0.218   6.340   2.681  0.6253 -0.1925 -0.2769
 9639TIP3   OH228880   0.258   5.635   2.850 -0.2143 -0.7568 -0.0698
 9639TIP3    H128881   0.194   5.702   2.876 -0.1536 -0.1042 -1.5089
 9639TIP3    H228882   0.285   5.661   2.762  2.4626 -0.7088  0.6995
 9640TIP3   OH228883   5.009   0.048   1.436  0.4586  0.0265  0.1165
 9640TIP3    H128884   4.965   0.110   1.495 -0.0765  0.0858 -0.3424
 9640TIP3    H228885   5.095   0.034   1.477  0.7114  1.3094  0.0637
 9641TIP3   OH228886   3.245   2.563   1.981 -0.5232 -0.9120 -0.0400
 9641TIP3    H128887   3.200   2.618   1.916 -1.4600 -1.4456  0.1353
 9641TIP3    H228888   3.210   2.593   2.065 -0.1612 -0.9896  0.1376
 9642TIP3   OH228889   1.769   2.655   4.891  0.1527  0.1204  0.7069
 9642TIP3    H128890   1.676   2.656   4.913  0.0066 -0.5113  0.1518
 9642TIP3    H228891   1.793   2.562   4.893  1.3834  0.4190  3.3271
 9643TIP3   OH228892   1.787   6.726   5.819 -0.3775 -0.7741  0.1971
 9643TIP3    H128893   1.799   6.638   5.784  0.9939 -0.0595 -1.2955
 9643TIP3    H228894   1.695   6.746   5.804  0.2133 -0.1921 -4.1527
 9644TIP3   OH228895   2.879   2.414   5.573 -0.1660 -0.1660  0.4016
 9644TIP3    H128896   2.898   2.320   5.573  0.4688 -0.1032 -1.9681
 9644TIP3    H228897   2.962   2.455   5.600  0.8613 -0.2000 -2.4144
 9645TIP3   OH228898   3.510   5.339   3.505  0.0188  0.1893  0.0859
 9645TIP3    H128899   3.451   5.338   3.430  0.5500  2.1673 -0.4210
 9645TIP3    H228900   3.454   5.364   3.579  0.2141  2.4813 -0.4681
 9646TIP3   OH228901   0.775   5.631   1.436  0.4061  0.1164 -0.0751
 9646TIP3    H128902   0.784   5.703   1.373 -0.8534  0.2615 -0.1186
 9646TIP3    H228903   0.704   5.659   1.494 -0.7640 -1.4731 -0.6614
 9647TIP3   OH228904   3.225   1.355   0.515  0.0644 -0.0895 -0.2817
 9647TIP3    H128905   3.165   1.369   0.442  0.4160 -1.8684 -0.9551
 9647TIP3    H228906   3.178   1.388   0.591 -0.8125  0.6561 -1.1157
 9648TIP3   OH228907   3.367   1.952   4.398  0.6367  0.5262 -0.5004
 9648TIP3    H128908   3.295   1.889   4.399 -0.2577  1.5427 -0.1490
 9648TIP3    H228909   3.420   1.925   4.323  0.3769 -0.7528 -0.2533
 9649TIP3   OH228910   3.813   2.857   1.926  0.3355  0.8441 -0.1576
 9649TIP3    H128911   3.733   2.908   1.942  0.6794  1.4653 -0.4028
 9649TIP3    H228912   3.789   2.768   1.951 -0.0795  1.2325  0.8843
 9650TIP3   OH228913   3.618   4.332   4.939  0.2531  0.6996 -0.6712
 9650TIP3    H128914   3.575   4.307   4.857 -0.1837 -1.1328  0.0563
 9650TIP3    H228915   3.684   4.264   4.952  1.5249  1.9505 -0.3641
 9651TIP3   OH228916   1.205   2.382   5.557 -0.9394  0.0423  0.3439
 9651TIP3    H128917   1.163   2.303   5.523 -0.1215 -0.6536  0.9063
 9651TIP3    H228918   1.279   2.350   5.608 -0.0805  1.2158 -0.1315
 9652TIP3   OH228919   4.888   4.820   5.117  0.1909 -0.0414  0.0804
 9652TIP3    H128920   4.851   4.744   5.071 -0.9810  0.8883 -0.5542
 9652TIP3    H228921   4.881   4.797   5.209  0.5210 -0.9970 -0.1119
 9653TIP3   OH228922   6.381   3.559   4.368 -0.2975 -0.0793 -0.2735
 9653TIP3    H128923   6.396   3.608   4.449  0.2338 -0.1207 -0.3404
 9653TIP3    H228924   6.432   3.479   4.379 -1.7881 -1.0144  0.1773
 9654TIP3   OH228925   0.769   3.326   5.471  0.0121  0.1566  0.5206
 9654TIP3    H128926   0.738   3.259   5.532 -1.0043 -0.8920 -1.0600
 9654TIP3    H228927   0.863   3.332   5.488 -0.0519 -0.9221  1.4164
 9655TIP3   OH228928   1.041   4.212   3.482  0.2304  0.2336 -0.3949
 9655TIP3    H128929   1.120   4.248   3.522 -0.2847 -1.2753  2.1831
 9655TIP3    H228930   0.984   4.287   3.469  0.6548  0.8590  1.2302
 9656TIP3   OH228931   1.517   1.909   1.508  0.4237 -0.2276 -0.3708
 9656TIP3    H128932   1.582   1.889   1.440  1.2214  3.6211 -0.9830
 9656TIP3    H228933   1.570   1.919   1.588  1.0816  4.1549 -1.1008
 9657TIP3   OH228934   5.140   3.318   0.891 -0.1169  0.3175  0.1411
 9657TIP3    H128935   5.195   3.371   0.833 -0.7463  1.2605  0.3774
 9657TIP3    H228936   5.086   3.266   0.832  2.0642 -1.8257 -0.1214
 9658TIP3   OH228937   3.354   6.532   3.566 -0.2532  0.5930 -0.5442
 9658TIP3    H128938   3.294   6.606   3.572 -1.0270 -0.0874  0.7089
 9658TIP3    H228939   3.333   6.490   3.482 -2.3784 -0.2703  0.3300
 9659TIP3   OH228940   2.970   6.413   2.297  0.6572 -0.2738  0.3214
 9659TIP3    H128941   2.977   6.318   2.285 -1.5233 -0.5314  0.5458
 9659TIP3    H228942   3.046   6.437   2.350 -0.4882 -2.5185  3.2690
 9660TIP3   OH228943   2.962   2.961   1.176 -0.0128 -0.0399 -0.3702
 9660TIP3    H128944   2.985   2.971   1.083 -0.0782  0.5752 -0.3270
 9660TIP3    H228945   2.892   3.025   1.189 -0.0060 -0.1316  0.1042
 9661TIP3   OH228946   5.563   0.290   3.128 -1.3367  0.3373 -0.5338
 9661TIP3    H128947   5.483   0.326   3.166 -0.7629  0.3274  0.7394
 9661TIP3    H228948   5.554   0.304   3.034 -2.8534  0.2862 -0.4182
 9662TIP3   OH228949   0.914   3.470   0.894  0.4290  0.0663  0.7690
 9662TIP3    H128950   0.989   3.514   0.855  0.3400  0.5364  1.1130
 9662TIP3    H228951   0.888   3.404   0.830  1.7299 -0.7669  1.0519
 9663TIP3   OH228952   4.031   6.780   2.009 -0.3627 -0.1373 -0.4101
 9663TIP3    H128953   4.021   6.693   2.048  0.4385 -0.7367 -1.4795
 9663TIP3    H228954   4.066   6.763   1.922 -0.8316  1.2358 -0.8869
 9664TIP3   OH228955   6.291   6.244   0.366 -0.0013  0.2508 -0.4758
 9664TIP3    H128956   6.351   6.296   0.420 -0.9059  0.5469  0.2917
 9664TIP3    H228957   6.345   6.175   0.328  1.4961  2.3309 -2.4035
 9665TIP3   OH228958   6.022   6.702   2.721 -0.2006 -0.2240  0.2768
 9665TIP3    H128959   5.973   6.747   2.653  0.3762 -0.3267 -0.2123
 9665TIP3    H228960   5.995   6.745   2.802 -0.2922  0.4401 -0.0987
 9666TIP3   OH228961   0.545   0.788   5.419 -0.2185 -0.7280 -0.1189
 9666TIP3    H128962   0.628   0.791   5.467  0.3717  0.5356 -1.1678
 9666TIP3    H228963   0.480   0.815   5.484  0.3041 -0.8650  0.4756
 9667TIP3   OH228964   5.784   4.191   3.351  0.5194 -0.4012 -0.3457
 9667TIP3    H128965   5.820   4.259   3.408  1.0647 -1.4868  0.6390
 9667TIP3    H228966   5.741   4.130   3.411  1.6643 -1.9239 -1.0177
 9668TIP3   OH228967   1.731   3.420   4.094  0.2119  0.3917 -0.0162
 9668TIP3    H128968   1.748   3.492   4.033  0.7081 -1.7654 -2.6619
 9668TIP3    H228969   1.697   3.350   4.038 -1.2266 -1.1029  2.5739
 9669TIP3   OH228970   3.252   6.500   5.307  0.1521 -0.2996  0.3351
 9669TIP3    H128971   3.332   6.483   5.357 -0.2198  0.0375  1.0607
 9669TIP3    H228972   3.235   6.594   5.321  0.3935 -0.0505 -0.9572
 9670TIP3   OH228973   7.177   5.435   2.476  0.0164 -0.0050  0.5598
 9670TIP3    H128974   7.196   5.353   2.432 -0.4878  0.2482 -0.1313
 9670TIP3    H228975   7.084   5.431   2.498  0.1457  0.0876  1.1598
 9671TIP3   OH228976   5.515   0.808   1.236 -0.1017 -0.3265 -0.5663
 9671TIP3    H128977   5.473   0.807   1.322 -0.9938 -0.1637 -0.9817
 9671TIP3    H228978   5.607   0.826   1.254 -0.1213 -1.0966  0.4096
 9672TIP3   OH228979   1.159   6.430   5.360 -0.0399 -0.4220 -0.3386
 9672TIP3    H128980   1.192   6.468   5.441  0.1675 -1.1076 -0.0912
 9672TIP3    H228981   1.233   6.378   5.326 -0.0822 -0.0500 -1.0264
 9673TIP3   OH228982   3.420   2.071   1.874 -0.4342 -0.0501 -0.3083
 9673TIP3    H128983   3.515   2.085   1.873 -0.4998  2.1312  3.9833
 9673TIP3    H228984   3.385   2.147   1.827 -0.1451 -0.7038 -1.6352
 9674TIP3   OH228985   1.490   2.789   4.900 -0.1409  0.4732 -0.0413
 9674TIP3    H128986   1.544   2.816   4.826 -0.7675 -1.4827 -1.2989
 9674TIP3    H228987   1.408   2.836   4.889 -0.2739  0.1039 -0.6886
 9675TIP3   OH228988   4.841   6.572   4.492  0.5304  0.6971  0.2416
 9675TIP3    H128989   4.781   6.581   4.566 -0.8283 -1.2891 -0.5381
 9675TIP3    H228990   4.869   6.662   4.473 -3.5286  2.0413 -0.4005
 9676TIP3   OH228991   1.109   5.464   1.085 -0.8248  0.3452 -0.4364
 9676TIP3    H128992   1.038   5.529   1.076 -0.7762  0.6408  1.0809
 9676TIP3    H228993   1.132   5.442   0.994 -0.6965  2.6077 -1.0204
 9677TIP3   OH228994   5.418   0.722   3.943  0.0176 -0.1596 -0.1270
 9677TIP3    H128995   5.511   0.742   3.959 -0.2029 -0.2836  1.4760
 9677TIP3    H228996   5.371   0.774   4.009 -1.0821  0.0894 -1.0708
 9678TIP3   OH228997   4.963   3.073   0.488  0.4045 -0.3943 -0.1945
 9678TIP3    H128998   5.001   3.137   0.547  0.0945  0.5008 -0.9398
 9678TIP3    H228999   4.966   2.991   0.536  2.3948 -0.1775  0.1404
 9679TIP3   OH229000   1.084   6.765   4.543  0.2011 -0.1028  0.2097
 9679TIP3    H129001   1.124   6.812   4.616 -0.7429  0.0170  0.6658
 9679TIP3    H229002   1.028   6.699   4.584  0.9604 -1.1680 -0.4195
 9680TIP3   OH229003   3.943   5.889   1.636  0.1640 -0.5007  0.0858
 9680TIP3    H129004   3.881   5.905   1.565  0.3015  2.1744  0.4548
 9680TIP3    H229005   3.895   5.836   1.699 -0.9005 -0.5764 -0.7665
 9681TIP3   OH229006   1.552   1.047   2.691 -0.3656  0.7194 -0.2591
 9681TIP3    H129007   1.493   1.005   2.628  0.1596 -0.7593  0.2040
 9681TIP3    H229008   1.507   1.038   2.775 -0.0740  0.7408 -0.0994
 9682TIP3   OH229009   2.475   6.484   2.585 -0.0746  1.2523  0.5057
 9682TIP3    H129010   2.454   6.491   2.492  0.6503  1.0048  0.3109
 9682TIP3    H229011   2.535   6.557   2.601 -0.1630  1.2676  0.7675
 9683TIP3   OH229012   6.535   3.446   3.880  0.3210 -0.3204 -0.1240
 9683TIP3    H129013   6.489   3.472   3.960 -0.1290  0.0999 -0.5161
 9683TIP3    H229014   6.553   3.529   3.835  0.3954 -0.5700 -0.5580
 9684TIP3   OH229015   5.472   5.406   4.271  0.3030  0.3288 -0.2370
 9684TIP3    H129016   5.540   5.452   4.222 -0.9517  1.3651 -1.0708
 9684TIP3    H229017   5.505   5.316   4.279  1.7773  0.8101 -0.5652
 9685TIP3   OH229018   6.757   5.987   0.397 -0.2906  0.2132  0.1278
 9685TIP3    H129019   6.669   5.981   0.360  0.4813  2.5577 -2.4466
 9685TIP3    H229020   6.751   6.059   0.460 -0.3210  0.0590  0.3009
 9686TIP3   OH229021   0.733   3.703   0.883 -0.6445 -0.0608  0.0520
 9686TIP3    H129022   0.794   3.632   0.900  0.0102  0.6528  0.7774
 9686TIP3    H229023   0.656   3.682   0.936 -0.9888 -0.8809 -0.7424
 9687TIP3   OH229024   6.853   1.153   0.108 -0.9334 -0.4584  0.1669
 9687TIP3    H129025   6.886   1.153   0.018  0.0682 -0.0046  0.5181
 9687TIP3    H229026   6.926   1.186   0.160 -1.9007  0.4516  1.0007
 9688TIP3   OH229027   4.411   2.441   4.113 -0.1930 -0.2705  0.3327
 9688TIP3    H129028   4.438   2.531   4.095 -0.6156 -0.2222 -0.0668
 9688TIP3    H229029   4.349   2.420   4.043  0.6039 -1.1845 -0.1255
 9689TIP3   OH229030   2.031   6.277   3.859  0.1356  0.2944  0.5992
 9689TIP3    H129031   2.008   6.216   3.788  0.3939  0.1507  0.6391
 9689TIP3    H229032   2.049   6.360   3.814 -0.7218  0.4839  0.5886
 9690TIP3   OH229033   4.552   5.877   0.488  0.3221 -0.3370  0.0766
 9690TIP3    H129034   4.639   5.859   0.522  1.0050  1.6604 -0.4457
 9690TIP3    H229035   4.563   5.883   0.393 -0.3832 -0.1153  0.0004
 9691TIP3   OH229036   0.887   0.618   2.633 -0.8021  0.2406  0.0359
 9691TIP3    H129037   0.813   0.678   2.637 -0.2752  0.8887  0.3129
 9691TIP3    H229038   0.867   0.550   2.698  0.1280  1.9370  2.2403
 9692TIP3   OH229039   5.876   6.809   1.433  0.2707  0.2458  0.1842
 9692TIP3    H129040   5.825   6.740   1.475  0.3831  0.4431  0.6579
 9692TIP3    H229041   5.959   6.811   1.481 -0.6543  2.3739  1.8703
 9693TIP3   OH229042   0.791   5.139   5.293  0.0581 -0.1431 -0.2412
 9693TIP3    H129043   0.742   5.204   5.243 -0.9545  0.4420  1.4293
 9693TIP3    H229044   0.871   5.124   5.242  0.4466  2.5820 -0.5899
 9694TIP3   OH229045   5.964   1.452   3.468  0.2230  0.0164  0.3485
 9694TIP3    H129046   5.871   1.435   3.484  0.9133 -2.6839  1.9967
 9694TIP3    H229047   6.010   1.406   3.538  2.8736  0.4323 -0.9864
 9695TIP3   OH229048   2.164   5.916   2.973 -0.0231 -0.3054  0.2940
 9695TIP3    H129049   2.115   5.928   2.892  0.2926 -1.3344 -0.0699
 9695TIP3    H229050   2.225   5.845   2.954  0.7969  0.1525  1.1087
 9696TIP3   OH229051   1.066   3.117  -0.020  0.1263  0.1175  0.0992
 9696TIP3    H129052   1.108   3.203  -0.018  1.1783 -0.3944  0.5801
 9696TIP3    H229053   1.105   3.070   0.054 -0.9943 -0.5207  0.3010
 9697TIP3   OH229054   2.389   4.787   2.708 -0.2580  0.2110 -0.5429
 9697TIP3    H129055   2.398   4.767   2.802  3.0888 -0.8562 -0.9316
 9697TIP3    H229056   2.372   4.703   2.667 -1.3405  0.6202 -0.9656
 9698TIP3   OH229057   0.830   3.472   1.731 -0.0595  0.3140  0.2302
 9698TIP3    H129058   0.812   3.442   1.642  1.1608  1.3471 -0.4028
 9698TIP3    H229059   0.804   3.564   1.731 -2.5684 -0.2907  1.7674
 9699TIP3   OH229060   6.184   3.237   3.169  0.4268 -0.0323 -0.1716
 9699TIP3    H129061   6.190   3.196   3.256 -0.2007  1.4612  0.6268
 9699TIP3    H229062   6.157   3.166   3.111  1.4898 -1.2179  0.7181
 9700TIP3   OH229063   3.427   2.484   0.620  0.1188  0.2402 -0.5049
 9700TIP3    H129064   3.366   2.412   0.637 -1.9104  1.0659 -3.5203
 9700TIP3    H229065   3.512   2.441   0.613 -0.9358 -1.8293 -1.6547
 9701TIP3   OH229066   5.594   5.802   3.714  0.6399 -0.1929 -0.3977
 9701TIP3    H129067   5.676   5.767   3.679  1.0537  0.3796  0.0059
 9701TIP3    H229068   5.619   5.878   3.765 -0.1854  0.2361 -0.6133
 9702TIP3   OH229069   4.664   3.265   0.880  0.3844  0.2856 -0.0865
 9702TIP3    H129070   4.693   3.196   0.938 -0.4356  0.9888  1.2110
 9702TIP3    H229071   4.736   3.329   0.879 -1.1481  2.3643  3.6669
 9703TIP3   OH229072   5.402   6.130   3.818 -0.2645  0.2128 -0.1700
 9703TIP3    H129073   5.419   6.098   3.907  0.8108  0.1695 -0.3724
 9703TIP3    H229074   5.357   6.057   3.775  2.3336 -1.2517 -0.6875
 9704TIP3   OH229075   6.441   6.743   4.724 -0.4963  0.3671 -0.3540
 9704TIP3    H129076   6.491   6.663   4.737 -0.0384  0.3174 -2.2458
 9704TIP3    H229077   6.351   6.714   4.712 -1.0451  0.4340  2.6636
 9705TIP3   OH229078   5.419   5.945   0.545  0.7157  0.3614  0.0001
 9705TIP3    H129079   5.502   5.936   0.499 -0.5333 -0.6204 -2.2078
 9705TIP3    H229080   5.427   6.029   0.591  1.5090  2.3243 -3.3600
 9706TIP3   OH229081   4.169   6.380   2.521 -0.0151 -0.6808 -0.0960
 9706TIP3    H129082   4.075   6.378   2.541 -0.6672  0.2744 -2.6305
 9706TIP3    H229083   4.201   6.456   2.569 -0.6356 -0.7372  0.4268
 9707TIP3   OH229084   6.660   3.887   3.650 -0.4333 -0.2892 -0.2194
 9707TIP3    H129085   6.743   3.851   3.679 -0.5806 -0.7559 -0.3691
 9707TIP3    H229086   6.672   3.902   3.556  0.1956  1.6432  0.1306
 9708TIP3   OH229087   1.575   2.372   1.012  0.2262  0.2265 -0.7715
 9708TIP3    H129088   1.494   2.322   1.002  0.3777  0.0483 -1.1127
 9708TIP3    H229089   1.554   2.440   1.077 -0.7811  1.4277 -2.2877
 9709TIP3   OH229090   0.502   2.531   4.266 -0.3291  0.9858 -0.5033
 9709TIP3    H129091   0.423   2.534   4.212 -0.4715 -0.5910 -0.4137
 9709TIP3    H229092   0.493   2.451   4.316 -0.0805  2.2753  1.7236
 9710TIP3   OH229093   2.016   5.484   5.853 -0.1492 -0.0511 -0.1558
 9710TIP3    H129094   2.021   5.406   5.909 -0.9824  1.7836  2.6859
 9710TIP3    H229095   2.002   5.449   5.765 -2.0070 -3.1046  1.1777
 9711TIP3   OH229096   0.475   4.608   1.264  0.8027 -0.4772  0.2889
 9711TIP3    H129097   0.490   4.695   1.227  0.6618  0.1310  1.6030
 9711TIP3    H229098   0.525   4.607   1.345  0.1955 -1.3475  0.6777
 9712TIP3   OH229099   4.831   3.759   0.522  0.3984  0.0001  0.0573
 9712TIP3    H129100   4.882   3.761   0.442  0.6192  2.0537  0.1771
 9712TIP3    H229101   4.893   3.732   0.590  0.4648 -0.7604 -0.3023
 9713TIP3   OH229102   2.410   4.883   3.674 -0.1883  0.3238 -0.2561
 9713TIP3    H129103   2.481   4.919   3.727  0.6493 -0.7260 -0.6239
 9713TIP3    H229104   2.398   4.794   3.706 -0.8490  0.2436 -0.6931
 9714TIP3   OH229105   4.171   5.798   1.447  0.3837 -0.2255  0.1906
 9714TIP3    H129106   4.114   5.818   1.522  2.3165 -0.4058  1.8002
 9714TIP3    H229107   4.234   5.870   1.445  0.4082 -0.2629 -1.2454
 9715TIP3   OH229108   4.054   0.102   0.330  0.2311 -0.4012  0.3798
 9715TIP3    H129109   4.149   0.095   0.335  0.2950  0.0448 -0.2007
 9715TIP3    H229110   4.037   0.195   0.318 -0.3513 -0.2781  1.9619
 9716TIP3   OH229111   7.025   4.674   0.473  0.2066  0.0525  0.4385
 9716TIP3    H129112   7.028   4.619   0.551  1.4574 -1.5094 -0.6507
 9716TIP3    H229113   7.110   4.661   0.431 -0.6013  0.5015 -1.4149
 9717TIP3   OH229114   3.465   3.246   5.182  0.4637 -0.5780 -0.1273
 9717TIP3    H129115   3.465   3.340   5.165  0.4034 -0.2134  1.6801
 9717TIP3    H229116   3.550   3.229   5.222 -0.9440 -0.4667  3.2821
 9718TIP3   OH229117   6.188   0.841   0.613  0.5453 -0.2764  0.5194
 9718TIP3    H129118   6.188   0.868   0.704 -0.5737 -1.9187  1.0369
 9718TIP3    H229119   6.210   0.921   0.564 -2.3496  1.5209  1.9429
 9719TIP3   OH229120   6.939   0.696   2.285  0.1184  0.2758  0.6983
 9719TIP3    H129121   6.999   0.640   2.235  0.5087 -0.5287  2.0095
 9719TIP3    H229122   6.962   0.680   2.376 -0.5398  1.7373  1.1556
 9720TIP3   OH229123   4.548   5.770   3.947 -0.2407 -0.4920  0.9968
 9720TIP3    H129124   4.562   5.807   4.034  1.0481 -0.5789  0.8428
 9720TIP3    H229125   4.463   5.805   3.919  0.9505  2.5165  0.7832
 9721TIP3   OH229126   3.434   0.468   0.280  0.0639 -0.6600  0.3056
 9721TIP3    H129127   3.440   0.562   0.268 -1.3575 -0.7758 -1.7920
 9721TIP3    H229128   3.394   0.457   0.367  2.5817  0.5216  1.7173
 9722TIP3   OH229129   6.619   5.432   0.369 -0.5106 -0.3329  0.2866
 9722TIP3    H129130   6.646   5.365   0.432  1.8662  0.8284  0.5898
 9722TIP3    H229131   6.537   5.398   0.332 -0.3755 -2.4808  1.7840
 9723TIP3   OH229132   3.994   5.949   1.288  0.2925  0.2150 -0.6437
 9723TIP3    H129133   3.994   5.890   1.213  1.1328 -0.4015 -0.1700
 9723TIP3    H229134   4.070   5.923   1.340 -0.4547  0.4059  0.5972
 9724TIP3   OH229135   3.648   1.351   5.075 -0.3052 -0.3650 -0.9626
 9724TIP3    H129136   3.662   1.358   5.169 -0.8090  1.5064 -0.9835
 9724TIP3    H229137   3.554   1.362   5.063 -0.0334  1.4419 -1.7842
 9725TIP3   OH229138   3.487   4.774   3.674  0.5728 -0.2661  0.2721
 9725TIP3    H129139   3.497   4.769   3.579  0.2031 -0.1577  0.2265
 9725TIP3    H229140   3.426   4.846   3.688  1.2115  0.2232  0.6305
 9726TIP3   OH229141   2.504   2.512   1.124 -0.0072 -0.1696  0.6837
 9726TIP3    H129142   2.549   2.449   1.068  0.1681  1.1524 -0.7245
 9726TIP3    H229143   2.567   2.530   1.194 -0.0982 -1.5969  1.1684
 9727TIP3   OH229144   1.490   3.732   2.161 -0.8824 -0.3155  0.4614
 9727TIP3    H129145   1.471   3.778   2.079 -1.5893  0.4110  1.0147
 9727TIP3    H229146   1.568   3.679   2.141 -0.2325  0.8694 -0.2943
 9728TIP3   OH229147   5.982   1.995   1.635 -0.2365  0.3428  0.2387
 9728TIP3    H129148   6.033   2.021   1.558 -0.9678 -1.2287 -0.8246
 9728TIP3    H229149   5.949   2.078   1.670  0.2476  1.1162 -1.0453
 9729TIP3   OH229150   1.667   2.962   3.942  0.0224  0.1683 -0.2357
 9729TIP3    H129151   1.657   3.045   3.896 -0.7568  0.6620  0.7892
 9729TIP3    H229152   1.577   2.932   3.956  0.2862 -0.6901 -0.3001
 9730TIP3   OH229153   5.255   0.258   4.441 -0.2748  0.0801 -0.4711
 9730TIP3    H129154   5.248   0.246   4.346  0.3997 -0.8264 -0.4197
 9730TIP3    H229155   5.276   0.171   4.475 -1.9572  0.0798  0.6792
 9731TIP3   OH229156   1.506   5.133   2.867 -0.3424 -0.1320  0.9277
 9731TIP3    H129157   1.554   5.064   2.911 -0.6476  0.1209  1.6770
 9731TIP3    H229158   1.444   5.088   2.810 -0.3928 -0.4694  1.2525
 9732TIP3   OH229159   0.086   2.872   3.359  0.1089 -0.1084 -0.1725
 9732TIP3    H129160   0.025   2.799   3.370 -0.0311  0.1452  0.8391
 9732TIP3    H229161   0.068   2.905   3.271 -0.5114 -0.6721 -0.2670
 9733TIP3   OH229162   5.835   6.082   1.512  0.4275  0.2757  0.0973
 9733TIP3    H129163   5.770   6.031   1.464 -0.9195  1.2515  0.8047
 9733TIP3    H229164   5.868   6.022   1.580  0.2252 -0.2138 -0.2340
 9734TIP3   OH229165   0.990   0.578   3.659 -0.3440 -0.2186  0.3859
 9734TIP3    H129166   1.071   0.597   3.706 -1.0185  1.5844  0.8683
 9734TIP3    H229167   0.958   0.663   3.630 -2.1330 -0.8814  0.2856
 9735TIP3   OH229168   1.868   0.554   5.370  0.4952 -0.3274 -0.1085
 9735TIP3    H129169   1.940   0.613   5.347 -0.1353 -0.1743 -1.8572
 9735TIP3    H229170   1.791   0.591   5.326 -0.0797 -2.0196 -0.6238
 9736TIP3   OH229171   6.127   4.851   0.061 -0.0613  0.2057 -0.3799
 9736TIP3    H129172   6.207   4.903   0.055  0.1735  0.0292  0.8290
 9736TIP3    H229173   6.122   4.805  -0.023 -0.3184  2.1964 -1.5037
 9737TIP3   OH229174   2.353   3.996   5.883 -0.1899  0.1260  0.2248
 9737TIP3    H129175   2.314   4.008   5.797 -0.5009  1.6471  0.5404
 9737TIP3    H229176   2.444   3.974   5.866 -0.2322  0.4967 -0.5043
 9738TIP3   OH229177   4.201   4.439   5.543 -0.7537 -0.5982  0.2471
 9738TIP3    H129178   4.181   4.519   5.592  2.1046  0.2386  0.2423
 9738TIP3    H229179   4.177   4.368   5.603 -1.1542  0.3215  1.2111
 9739TIP3   OH229180   6.170   2.023   5.670 -0.3477 -0.3491  0.0732
 9739TIP3    H129181   6.151   2.108   5.632 -0.1183 -0.1295  0.4442
 9739TIP3    H229182   6.266   2.018   5.673 -0.3616 -0.3410  0.6603
 9740TIP3   OH229183   5.098   3.704   2.211 -0.0851  0.0897  0.3392
 9740TIP3    H129184   5.183   3.666   2.233  0.3282  0.5948 -0.3515
 9740TIP3    H229185   5.035   3.636   2.234  0.6979 -1.5642 -1.9564
 9741TIP3   OH229186   3.513   2.050   2.292 -0.4943 -0.2333  0.2850
 9741TIP3    H129187   3.422   2.064   2.264  0.0788 -0.2972 -1.7989
 9741TIP3    H229188   3.552   2.137   2.293 -0.4383 -0.2614  0.6643
 9742TIP3   OH229189   5.251   3.852   2.952  0.0622  0.3820 -0.2203
 9742TIP3    H129190   5.290   3.905   3.022  0.2616  0.6460 -0.5328
 9742TIP3    H229191   5.325   3.820   2.901 -0.1727  2.6004 -2.0799
 9743TIP3   OH229192   0.989   3.807   4.986 -0.4810 -0.0070 -0.3310
 9743TIP3    H129193   1.018   3.803   4.895 -1.4219 -0.0205 -0.6315
 9743TIP3    H229194   1.003   3.898   5.012 -2.7586  0.6961 -1.3563
 9744TIP3   OH229195   0.718   4.448   4.832  0.1115 -0.3537 -0.3578
 9744TIP3    H129196   0.688   4.371   4.785  1.6550 -0.9960 -0.3417
 9744TIP3    H229197   0.778   4.414   4.898 -1.1664  0.6243  1.3938
 9745TIP3   OH229198   4.512   4.804   4.427 -0.1796 -0.3168  0.3369
 9745TIP3    H129199   4.465   4.733   4.471  0.0331 -0.4081  0.4201
 9745TIP3    H229200   4.598   4.767   4.406  0.3615  0.2491  1.4109
 9746TIP3   OH229201   3.199   2.653   5.308 -0.2741  0.3381 -0.0243
 9746TIP3    H129202   3.141   2.709   5.359  0.4476  0.4398  0.7154
 9746TIP3    H229203   3.146   2.623   5.234 -1.0637  0.9257  0.2963
 9747TIP3   OH229204   6.509   6.722   0.318  0.5951  0.7152 -0.2870
 9747TIP3    H129205   6.569   6.683   0.255  0.6632  0.2650  0.0510
 9747TIP3    H229206   6.556   6.718   0.401  0.2337  0.6797 -0.0829
 9748TIP3   OH229207   5.914   1.944   3.842 -0.5562 -0.7850  0.2288
 9748TIP3    H129208   5.931   2.033   3.874  0.9824  0.1139 -2.7421
 9748TIP3    H229209   5.837   1.952   3.786 -0.5284 -1.3918  0.0929
 9749TIP3   OH229210   5.596   4.131   3.041 -0.2521 -0.1821 -0.3261
 9749TIP3    H129211   5.565   4.101   2.956  0.5022  0.0059 -0.6680
 9749TIP3    H229212   5.619   4.223   3.027 -3.2079  0.8595  0.8694
   7.21441   6.80181   5.89053   0.00000   0.00000  -2.40481   0.00000  -2.40481  -3.40089
